<event>
 5    0  0.8533808E-002  0.2260896E+03  0.7546771E-02  0.1129423E+00
         21   -1    0    0  501  502  0.00000000000E+00  0.00000000000E+00  0.56822450726E+03  0.56822450726E+03  0.00000000000E+00 0.  1.
         21   -1    0    0  502  503 -0.00000000000E+00 -0.00000000000E+00 -0.15306499221E+03  0.15306499221E+03  0.00000000000E+00 0.  1.
         25    1    1    2    0    0  0.68019859994E+02  0.21224618890E+03  0.79738494587E+02  0.26769081713E+03  0.12500000000E+03 0.  0.
          2    1    1    2  501    0 -0.11596183596E+03 -0.14099947046E+03  0.31693911594E+03  0.36575729834E+03  0.00000000000E+00 0.  1.
         -2    1    1    2    0  503  0.47941975967E+02 -0.71246718440E+02  0.18481904517E+02  0.87841383998E+02  0.00000000000E+00 0. -1.
<mgrwt>
<rscale>  4 0.22608960E+03</rscale>
<asrwt>0</asrwt>
<pdfrwt beam="1">  1       21 0.87419154E-01 0.22608960E+03</pdfrwt>
<pdfrwt beam="2">  1       21 0.23548461E-01 0.22608960E+03</pdfrwt>
<totfact> 0.18694690E+04</totfact>
</mgrwt>
</event>
<event>
 5    0  0.8533808E-002  0.2450230E+03  0.7546771E-02  0.1116491E+00
         21   -1    0    0  501  502  0.00000000000E+00  0.00000000000E+00  0.21937426801E+03  0.21937426801E+03  0.00000000000E+00 0. -1.
         21   -1    0    0  502  503 -0.00000000000E+00 -0.00000000000E+00 -0.39281363646E+03  0.39281363646E+03  0.00000000000E+00 0.  1.
         25    1    1    2    0    0 -0.17594355349E+03  0.13154356512E+03 -0.25863464041E+03  0.36163064134E+03  0.12500000000E+03 0.  0.
          2    1    1    2  501    0  0.13848227988E+02 -0.31050807041E+02  0.43714655864E+02  0.55379573613E+02  0.00000000000E+00 0.  1.
         -2    1    1    2    0  503  0.16209532550E+03 -0.10049275808E+03  0.41480616094E+02  0.19517768952E+03  0.00000000000E+00 0. -1.
<mgrwt>
<rscale>  4 0.24502303E+03</rscale>
<asrwt>0</asrwt>
<pdfrwt beam="1">  1       21 0.33749887E-01 0.24502303E+03</pdfrwt>
<pdfrwt beam="2">  1       21 0.60432867E-01 0.24502303E+03</pdfrwt>
<totfact> 0.20968770E+04</totfact>
</mgrwt>
</event>
<event>
 5    0  0.8533808E-002  0.3059432E+03  0.7546771E-02  0.1082307E+00
         21   -1    0    0  501  502  0.00000000000E+00  0.00000000000E+00  0.87101092741E+03  0.87101092741E+03  0.00000000000E+00 0. -1.
         21   -1    0    0  502  503 -0.00000000000E+00 -0.00000000000E+00 -0.10470355007E+03  0.10470355007E+03  0.00000000000E+00 0. -1.
         25    1    1    2    0    0 -0.27821226952E+03  0.23962352807E+02  0.30830659269E+03  0.43434343136E+03  0.12500000000E+03 0.  0.
          4    1    1    2  501    0  0.11572881231E+03 -0.31571942478E+02  0.25025717825E+03  0.27752225283E+03  0.00000000000E+00 0. -1.
         -4    1    1    2    0  503  0.16248345722E+03  0.76095896715E+01  0.20774360640E+03  0.26384879329E+03  0.00000000000E+00 0.  1.
<mgrwt>
<rscale>  4 0.30594323E+03</rscale>
<asrwt>0</asrwt>
<pdfrwt beam="1">  1       21 0.13400168E+00 0.30594323E+03</pdfrwt>
<pdfrwt beam="2">  1       21 0.16108239E-01 0.30594323E+03</pdfrwt>
<totfact> 0.12924365E+04</totfact>
</mgrwt>
</event>
<event>
 5    0  0.8533808E-002  0.4851161E+03  0.7546771E-02  0.1017739E+00
         21   -1    0    0  501  502  0.00000000000E+00  0.00000000000E+00  0.66512400352E+03  0.66512400352E+03  0.00000000000E+00 0.  1.
         21   -1    0    0  502  503 -0.00000000000E+00 -0.00000000000E+00 -0.64038913673E+03  0.64038913673E+03  0.00000000000E+00 0. -1.
         25    1    1    2    0    0  0.50404659314E+03 -0.31074854250E+02 -0.25181490758E+03  0.57798301213E+03  0.12500000000E+03 0.  0.
          2    1    1    2  501    0 -0.36613202403E+03  0.22817933778E+03  0.19588458444E+03  0.47380295443E+03  0.00000000000E+00 0. -1.
         -2    1    1    2    0  503 -0.13791456911E+03 -0.19710448353E+03  0.80665189932E+02  0.25372717369E+03  0.00000000000E+00 0.  1.
<mgrwt>
<rscale>  4 0.48511611E+03</rscale>
<asrwt>0</asrwt>
<pdfrwt beam="1">  1       21 0.10232677E+00 0.48511611E+03</pdfrwt>
<pdfrwt beam="2">  1       21 0.98521405E-01 0.48511611E+03</pdfrwt>
<totfact> 0.54604414E+02</totfact>
</mgrwt>
</event>
<event>
 5    0  0.8533808E-002  0.2432875E+03  0.7546771E-02  0.1117622E+00
         21   -1    0    0  503  502  0.00000000000E+00  0.00000000000E+00  0.21137704852E+03  0.21137704852E+03  0.00000000000E+00 0.  1.
         21   -1    0    0  501  503 -0.00000000000E+00 -0.00000000000E+00 -0.29817649870E+03  0.29817649870E+03  0.00000000000E+00 0.  1.
         25    1    1    2    0    0  0.20684524067E+03 -0.27908012747E+02  0.60596068107E+02  0.25072035066E+03  0.12500000000E+03 0.  0.
          4    1    1    2  501    0 -0.39992280725E+02  0.14065693388E+02 -0.13624644760E+02  0.44529284667E+02  0.00000000000E+00 0. -1.
         -4    1    1    2    0  502 -0.16685295995E+03  0.13842319359E+02 -0.13377087352E+03  0.21430391189E+03  0.00000000000E+00 0.  1.
<mgrwt>
<rscale>  4 0.24328751E+03</rscale>
<asrwt>0</asrwt>
<pdfrwt beam="1">  1       21 0.32519546E-01 0.24328751E+03</pdfrwt>
<pdfrwt beam="2">  1       21 0.45873307E-01 0.24328751E+03</pdfrwt>
<totfact> 0.40465726E+04</totfact>
</mgrwt>
</event>
<event>
 5    0  0.8533808E-002  0.2640904E+03  0.7546771E-02  0.1104710E+00
         21   -1    0    0  501  502  0.00000000000E+00  0.00000000000E+00  0.15968042451E+03  0.15968042451E+03  0.00000000000E+00 0. -1.
         21   -1    0    0  502  503 -0.00000000000E+00 -0.00000000000E+00 -0.45492713555E+03  0.45492713555E+03  0.00000000000E+00 0. -1.
         25    1    1    2    0    0  0.22685254043E+03  0.51543072303E+02 -0.26182867222E+03  0.37188441349E+03  0.12500000000E+03 0.  0.
          3    1    1    2  501    0 -0.64062138674E+02 -0.81137712389E+00  0.14332835566E+02  0.65650941499E+02  0.00000000000E+00 0. -1.
         -3    1    1    2    0  503 -0.16279040176E+03 -0.50731695179E+02 -0.47750874387E+02  0.17707220506E+03  0.00000000000E+00 0.  1.
<mgrwt>
<rscale>  4 0.26409045E+03</rscale>
<asrwt>0</asrwt>
<pdfrwt beam="1">  1       21 0.24566219E-01 0.26409045E+03</pdfrwt>
<pdfrwt beam="2">  1       21 0.69988790E-01 0.26409045E+03</pdfrwt>
<totfact> 0.28014623E+04</totfact>
</mgrwt>
</event>
<event>
 5    0  0.8533808E-002  0.2496845E+03  0.7546771E-02  0.1113504E+00
         21   -1    0    0  503  502  0.00000000000E+00  0.00000000000E+00  0.32100791342E+03  0.32100791342E+03  0.00000000000E+00 0. -1.
         21   -1    0    0  501  503 -0.00000000000E+00 -0.00000000000E+00 -0.20959387012E+03  0.20959387012E+03  0.00000000000E+00 0. -1.
         25    1    1    2    0    0 -0.42541793344E+02 -0.21191404473E+03  0.17024559978E+03  0.30220180472E+03  0.12500000000E+03 0.  0.
          3    1    1    2  501    0 -0.14181973364E+01  0.93529847226E+02 -0.15052017037E+02  0.94743901243E+02  0.00000000000E+00 0.  1.
         -3    1    1    2    0  502  0.43959990681E+02  0.11838419750E+03 -0.43779539447E+02  0.13365607757E+03  0.00000000000E+00 0. -1.
<mgrwt>
<rscale>  4 0.24968453E+03</rscale>
<asrwt>0</asrwt>
<pdfrwt beam="1">  1       21 0.49385833E-01 0.24968453E+03</pdfrwt>
<pdfrwt beam="2">  1       21 0.32245211E-01 0.24968453E+03</pdfrwt>
<totfact> 0.35192022E+04</totfact>
</mgrwt>
</event>
<event>
 5    0  0.8533808E-002  0.3469185E+03  0.7546771E-02  0.1063887E+00
         21   -1    0    0  503  502  0.00000000000E+00  0.00000000000E+00  0.14711851130E+03  0.14711851130E+03  0.00000000000E+00 0. -1.
         21   -1    0    0  501  503 -0.00000000000E+00 -0.00000000000E+00 -0.13922723124E+04  0.13922723124E+04  0.00000000000E+00 0.  1.
         25    1    1    2    0    0  0.32316674528E+03  0.17049722865E+02 -0.11348661515E+04  0.11867070490E+04  0.12500000000E+03 0.  0.
          2    1    1    2  501    0 -0.12714816129E+03  0.35490916237E+02 -0.46439826438E+02  0.13993897789E+03  0.00000000000E+00 0.  1.
         -2    1    1    2    0  502 -0.19601858399E+03 -0.52540639101E+02 -0.63847823072E+02  0.21274479674E+03  0.00000000000E+00 0. -1.
<mgrwt>
<rscale>  4 0.34691849E+03</rscale>
<asrwt>0</asrwt>
<pdfrwt beam="1">  1       21 0.22633617E-01 0.34691849E+03</pdfrwt>
<pdfrwt beam="2">  1       21 0.21419574E+00 0.34691849E+03</pdfrwt>
<totfact> 0.17679725E+03</totfact>
</mgrwt>
</event>
<event>
 5    0  0.8533808E-002  0.2104895E+03  0.7546771E-02  0.1141179E+00
         21   -1    0    0  501  502  0.00000000000E+00  0.00000000000E+00  0.13275795474E+03  0.13275795474E+03  0.00000000000E+00 0. -1.
         21   -1    0    0  502  503 -0.00000000000E+00 -0.00000000000E+00 -0.69328321202E+03  0.69328321202E+03  0.00000000000E+00 0.  1.
         25    1    1    2    0    0  0.18334492856E+03 -0.19637756454E+03 -0.32236776312E+03  0.43786468844E+03  0.12500000000E+03 0.  0.
          1    1    1    2  501    0 -0.83689482115E+02  0.11902587263E+03 -0.36006276752E+02  0.14989176007E+03  0.00000000000E+00 0. -1.
         -1    1    1    2    0  503 -0.99655446449E+02  0.77351691911E+02 -0.20215121741E+03  0.23828471824E+03  0.00000000000E+00 0.  1.
<mgrwt>
<rscale>  4 0.21048946E+03</rscale>
<asrwt>0</asrwt>
<pdfrwt beam="1">  1       21 0.20424300E-01 0.21048946E+03</pdfrwt>
<pdfrwt beam="2">  1       21 0.10665896E+00 0.21048946E+03</pdfrwt>
<totfact> 0.15435976E+04</totfact>
</mgrwt>
</event>
<event>
 5    0  0.8533808E-002  0.2873115E+03  0.7546771E-02  0.1091761E+00
         21   -1    0    0  503  502  0.00000000000E+00  0.00000000000E+00  0.13013626797E+03  0.13013626797E+03  0.00000000000E+00 0.  1.
         21   -1    0    0  501  503 -0.00000000000E+00 -0.00000000000E+00 -0.61500683523E+03  0.61500683523E+03  0.00000000000E+00 0.  1.
         25    1    1    2    0    0 -0.20087070507E+03  0.16301488813E+03 -0.16747948714E+03  0.33256168228E+03  0.12500000000E+03 0.  0.
          1    1    1    2  501    0  0.61027494647E+02 -0.46690011504E+02 -0.60438870946E+02  0.97760776380E+02  0.00000000000E+00 0. -1.
         -1    1    1    2    0  502  0.13984321043E+03 -0.11632487663E+03 -0.25695220918E+03  0.31482064454E+03  0.00000000000E+00 0.  1.
<mgrwt>
<rscale>  4 0.28731149E+03</rscale>
<asrwt>0</asrwt>
<pdfrwt beam="1">  1       21 0.20020964E-01 0.28731149E+03</pdfrwt>
<pdfrwt beam="2">  1       21 0.94616436E-01 0.28731149E+03</pdfrwt>
<totfact> 0.20515120E+04</totfact>
</mgrwt>
</event>
<event>
 5    0  0.8533808E-002  0.2927878E+03  0.7546771E-02  0.1088903E+00
         21   -1    0    0  501  502  0.00000000000E+00  0.00000000000E+00  0.15757019476E+03  0.15757019476E+03  0.00000000000E+00 0. -1.
         21   -1    0    0  502  503 -0.00000000000E+00 -0.00000000000E+00 -0.68371931624E+03  0.68371931624E+03  0.00000000000E+00 0. -1.
         25    1    1    2    0    0 -0.23406254384E+03 -0.13865030723E+03 -0.82805584927E+02  0.31062991971E+03  0.12500000000E+03 0.  0.
          2    1    1    2  501    0  0.22609497351E+03  0.10965957654E+03 -0.33841040155E+03  0.42150416327E+03  0.00000000000E+00 0. -1.
         -2    1    1    2    0  503  0.79675703311E+01  0.28990730691E+02 -0.10493313500E+03  0.10915542801E+03  0.00000000000E+00 0.  1.
<mgrwt>
<rscale>  4 0.29278779E+03</rscale>
<asrwt>0</asrwt>
<pdfrwt beam="1">  1       21 0.24241568E-01 0.29278779E+03</pdfrwt>
<pdfrwt beam="2">  1       21 0.10518759E+00 0.29278779E+03</pdfrwt>
<totfact> 0.11028411E+04</totfact>
</mgrwt>
</event>
<event>
 5    0  0.8533808E-002  0.3082524E+03  0.7546771E-02  0.1081187E+00
         21   -1    0    0  501  502  0.00000000000E+00  0.00000000000E+00  0.82622229633E+02  0.82622229633E+02  0.00000000000E+00 0.  1.
         21   -1    0    0  502  503 -0.00000000000E+00 -0.00000000000E+00 -0.11314827534E+04  0.11314827534E+04  0.00000000000E+00 0.  1.
         25    1    1    2    0    0 -0.26094885787E+03  0.10630251742E+03 -0.66068970649E+03  0.72906132794E+03  0.12500000000E+03 0.  0.
          3    1    1    2  501    0  0.53027332706E+02 -0.45388255481E+02 -0.13377064627E+03  0.15088597533E+03  0.00000000000E+00 0. -1.
         -3    1    1    2    0  503  0.20792152517E+03 -0.60914261943E+02 -0.25440017104E+03  0.33415767979E+03  0.00000000000E+00 0.  1.
<mgrwt>
<rscale>  4 0.30825238E+03</rscale>
<asrwt>0</asrwt>
<pdfrwt beam="1">  1       21 0.12711113E-01 0.30825238E+03</pdfrwt>
<pdfrwt beam="2">  1       21 0.17407426E+00 0.30825238E+03</pdfrwt>
<totfact> 0.98262991E+03</totfact>
</mgrwt>
</event>
<event>
 5    0  0.8533808E-002  0.2817043E+03  0.7546771E-02  0.1094762E+00
         21   -1    0    0  501  502  0.00000000000E+00  0.00000000000E+00  0.25095483706E+03  0.25095483706E+03  0.00000000000E+00 0.  1.
         21   -1    0    0  502  503 -0.00000000000E+00 -0.00000000000E+00 -0.29118932166E+03  0.29118932166E+03  0.00000000000E+00 0.  1.
         25    1    1    2    0    0 -0.22800598992E+03  0.10837692458E+03 -0.30866547681E+02  0.28339024858E+03  0.12500000000E+03 0.  0.
          2    1    1    2  501    0  0.20749388413E+03 -0.96321270934E+02  0.86258531772E+01  0.22892335951E+03  0.00000000000E+00 0.  1.
         -2    1    1    2    0  503  0.20512105796E+02 -0.12055653645E+02 -0.17993790100E+02  0.29830550634E+02  0.00000000000E+00 0. -1.
<mgrwt>
<rscale>  4 0.28170426E+03</rscale>
<asrwt>0</asrwt>
<pdfrwt beam="1">  1       21 0.38608437E-01 0.28170426E+03</pdfrwt>
<pdfrwt beam="2">  1       21 0.44798357E-01 0.28170426E+03</pdfrwt>
<totfact> 0.29670328E+04</totfact>
</mgrwt>
</event>
<event>
 5    0  0.8533808E-002  0.2362393E+03  0.7546771E-02  0.1122324E+00
         21   -1    0    0  501  502  0.00000000000E+00  0.00000000000E+00  0.12928566464E+03  0.12928566464E+03  0.00000000000E+00 0.  1.
         21   -1    0    0  502  503 -0.00000000000E+00 -0.00000000000E+00 -0.79454625366E+03  0.79454625366E+03  0.00000000000E+00 0. -1.
         25    1    1    2    0    0  0.21025798643E+03  0.16718651230E+03 -0.47369863897E+03  0.55872636533E+03  0.12500000000E+03 0.  0.
          3    1    1    2  501    0 -0.75249470526E+02 -0.87359814250E+02  0.28234005701E+01  0.11533512713E+03  0.00000000000E+00 0.  1.
         -3    1    1    2    0  503 -0.13500851591E+03 -0.79826698053E+02 -0.19438535062E+03  0.24977042584E+03  0.00000000000E+00 0. -1.
<mgrwt>
<rscale>  4 0.23623932E+03</rscale>
<asrwt>0</asrwt>
<pdfrwt beam="1">  1       21 0.19890102E-01 0.23623932E+03</pdfrwt>
<pdfrwt beam="2">  1       21 0.12223789E+00 0.23623932E+03</pdfrwt>
<totfact> 0.11429219E+04</totfact>
</mgrwt>
</event>
<event>
 5    0  0.8533808E-002  0.2516894E+03  0.7546771E-02  0.1112242E+00
         21   -1    0    0  501  502  0.00000000000E+00  0.00000000000E+00  0.12871769216E+03  0.12871769216E+03  0.00000000000E+00 0.  1.
         21   -1    0    0  502  503 -0.00000000000E+00 -0.00000000000E+00 -0.51236192070E+03  0.51236192070E+03  0.00000000000E+00 0. -1.
         25    1    1    2    0    0  0.92004875648E+02  0.19813540907E+03 -0.28730549310E+03  0.38195809173E+03  0.12500000000E+03 0.  0.
          3    1    1    2  501    0  0.84082852536E+00 -0.11230146652E+03 -0.61149785220E+02  0.12787346326E+03  0.00000000000E+00 0. -1.
         -3    1    1    2    0  503 -0.92845704173E+02 -0.85833942554E+02 -0.35188950221E+02  0.13124805787E+03  0.00000000000E+00 0.  1.
<mgrwt>
<rscale>  4 0.25168937E+03</rscale>
<asrwt>0</asrwt>
<pdfrwt beam="1">  1       21 0.19802722E-01 0.25168937E+03</pdfrwt>
<pdfrwt beam="2">  1       21 0.78824909E-01 0.25168937E+03</pdfrwt>
<totfact> 0.32469058E+04</totfact>
</mgrwt>
</event>
<event>
 5    0  0.8533808E-002  0.2559646E+03  0.7546771E-02  0.1109592E+00
         21   -1    0    0  501  502  0.00000000000E+00  0.00000000000E+00  0.12346211124E+04  0.12346211124E+04  0.00000000000E+00 0. -1.
         21   -1    0    0  502  503 -0.00000000000E+00 -0.00000000000E+00 -0.49467534784E+02  0.49467534784E+02  0.00000000000E+00 0.  1.
         25    1    1    2    0    0  0.22252015730E+03 -0.19432745616E+02  0.50210568578E+03  0.56358492856E+03  0.12500000000E+03 0.  0.
          1    1    1    2  501    0 -0.83662723933E+02  0.15993706257E+02  0.33752978326E+03  0.34811148301E+03  0.00000000000E+00 0.  1.
         -1    1    1    2    0  503 -0.13885743337E+03  0.34390393590E+01  0.34551810858E+03  0.37239223562E+03  0.00000000000E+00 0. -1.
<mgrwt>
<rscale>  4 0.25596455E+03</rscale>
<asrwt>0</asrwt>
<pdfrwt beam="1">  1       21 0.18994169E+00 0.25596455E+03</pdfrwt>
<pdfrwt beam="2">  1       21 0.76103909E-02 0.25596455E+03</pdfrwt>
<totfact> 0.19592358E+04</totfact>
</mgrwt>
</event>
<event>
 5    0  0.8533808E-002  0.2902392E+03  0.7546771E-02  0.1090224E+00
         21   -1    0    0  503  502  0.00000000000E+00  0.00000000000E+00  0.47849010508E+03  0.47849010508E+03  0.00000000000E+00 0.  1.
         21   -1    0    0  501  503 -0.00000000000E+00 -0.00000000000E+00 -0.34357198850E+03  0.34357198850E+03  0.00000000000E+00 0.  1.
         25    1    1    2    0    0  0.20432362213E+03 -0.16390751568E+03 -0.23031608805E+03  0.37051898287E+03  0.12500000000E+03 0.  0.
          3    1    1    2  501    0 -0.42437006028E+02  0.33018409415E+02  0.47863786140E+02  0.71986504739E+02  0.00000000000E+00 0. -1.
         -3    1    1    2    0  502 -0.16188661610E+03  0.13088910626E+03  0.31737041849E+03  0.37955660598E+03  0.00000000000E+00 0.  1.
<mgrwt>
<rscale>  4 0.29023924E+03</rscale>
<asrwt>0</asrwt>
<pdfrwt beam="1">  1       21 0.73613862E-01 0.29023924E+03</pdfrwt>
<pdfrwt beam="2">  1       21 0.52857229E-01 0.29023924E+03</pdfrwt>
<totfact> 0.52811199E+03</totfact>
</mgrwt>
</event>
<event>
 5    0  0.8533808E-002  0.2791299E+03  0.7546771E-02  0.1096165E+00
         21   -1    0    0  501  502  0.00000000000E+00  0.00000000000E+00  0.24772730814E+03  0.24772730814E+03  0.00000000000E+00 0.  1.
         21   -1    0    0  502  503 -0.00000000000E+00 -0.00000000000E+00 -0.61425164649E+03  0.61425164649E+03  0.00000000000E+00 0. -1.
         25    1    1    2    0    0  0.25588746476E+02  0.26582811856E+03 -0.45762130581E+03  0.54439106540E+03  0.12500000000E+03 0.  0.
          4    1    1    2  501    0 -0.63314546631E+02 -0.17682006492E+03  0.11201023247E+03  0.21867866688E+03  0.00000000000E+00 0.  1.
         -4    1    1    2    0  503  0.37725800155E+02 -0.89008053640E+02 -0.20913265008E+02  0.98909222337E+02  0.00000000000E+00 0. -1.
<mgrwt>
<rscale>  4 0.27912991E+03</rscale>
<asrwt>0</asrwt>
<pdfrwt beam="1">  1       21 0.38111894E-01 0.27912991E+03</pdfrwt>
<pdfrwt beam="2">  1       21 0.94500251E-01 0.27912991E+03</pdfrwt>
<totfact> 0.58855305E+03</totfact>
</mgrwt>
</event>
<event>
 5    0  0.8533808E-002  0.2640944E+03  0.7546771E-02  0.1104708E+00
         21   -1    0    0  503  502  0.00000000000E+00  0.00000000000E+00  0.22744838707E+03  0.22744838707E+03  0.00000000000E+00 0.  1.
         21   -1    0    0  501  503 -0.00000000000E+00 -0.00000000000E+00 -0.32355983105E+03  0.32355983105E+03  0.00000000000E+00 0. -1.
         25    1    1    2    0    0 -0.23230992111E+03  0.12368079525E+02 -0.14978363686E+03  0.30361325187E+03  0.12500000000E+03 0.  0.
          3    1    1    2  501    0  0.38450894099E+02 -0.12442163733E+02 -0.12901666607E+02  0.42423244768E+02  0.00000000000E+00 0. -1.
         -3    1    1    2    0  502  0.19385902702E+03  0.74084207145E-01  0.66573859488E+02  0.20497172149E+03  0.00000000000E+00 0.  1.
<mgrwt>
<rscale>  4 0.26409443E+03</rscale>
<asrwt>0</asrwt>
<pdfrwt beam="1">  1       21 0.34992060E-01 0.26409443E+03</pdfrwt>
<pdfrwt beam="2">  1       21 0.49778435E-01 0.26409443E+03</pdfrwt>
<totfact> 0.29239646E+04</totfact>
</mgrwt>
</event>
<event>
 5    0  0.1246359E-001  0.2686558E+03  0.7546771E-02  0.1102051E+00
         21   -1    0    0  503  502  0.00000000000E+00  0.00000000000E+00  0.94140764535E+03  0.94140764535E+03  0.00000000000E+00 0. -1.
         21   -1    0    0  501  503 -0.00000000000E+00 -0.00000000000E+00 -0.16022028793E+03  0.16022028793E+03  0.00000000000E+00 0. -1.
         25    1    1    2    0    0  0.67157306504E+02 -0.22812460291E+03  0.81246458113E+03  0.85573046800E+03  0.12500000000E+03 0.  0.
          3    1    1    2  501    0 -0.23871873769E+02  0.14976685819E+03 -0.18583111137E+01  0.15166882174E+03  0.00000000000E+00 0. -1.
         -3    1    1    2    0  502 -0.43285432735E+02  0.78357744725E+02 -0.29418912594E+02  0.94228643542E+02  0.00000000000E+00 0.  1.
<mgrwt>
<rscale>  4 0.26865580E+03</rscale>
<asrwt>0</asrwt>
<pdfrwt beam="1">  1       21 0.14483194E+00 0.26865580E+03</pdfrwt>
<pdfrwt beam="2">  1       21 0.24649276E-01 0.26865580E+03</pdfrwt>
<totfact> 0.48250429E+03</totfact>
</mgrwt>
</event>
<event>
 5    0  0.8533808E-002  0.5816218E+03  0.7546771E-02  0.9944286E-01
         21   -1    0    0  503  502  0.00000000000E+00  0.00000000000E+00  0.10413119851E+04  0.10413119851E+04  0.00000000000E+00 0.  1.
         21   -1    0    0  501  503 -0.00000000000E+00 -0.00000000000E+00 -0.38994898605E+03  0.38994898605E+03  0.00000000000E+00 0.  1.
         25    1    1    2    0    0  0.17123452341E+03 -0.54160658714E+03  0.30265101390E+02  0.58240873414E+03  0.12500000000E+03 0.  0.
          4    1    1    2  501    0  0.13309615918E+02  0.83993448982E+02  0.84715984228E+02  0.12003684156E+03  0.00000000000E+00 0. -1.
         -4    1    1    2    0  502 -0.18454413932E+03  0.45761313816E+03  0.53638191341E+03  0.72881539542E+03  0.00000000000E+00 0.  1.
<mgrwt>
<rscale>  4 0.58162183E+03</rscale>
<asrwt>0</asrwt>
<pdfrwt beam="1">  1       21 0.16020184E+00 0.58162183E+03</pdfrwt>
<pdfrwt beam="2">  1       21 0.59992152E-01 0.58162183E+03</pdfrwt>
<totfact> 0.51328258E+02</totfact>
</mgrwt>
</event>
<event>
 5    0  0.8533808E-002  0.2643267E+03  0.7546771E-02  0.1104571E+00
         21   -1    0    0  503  502  0.00000000000E+00  0.00000000000E+00  0.77330633851E+02  0.77330633851E+02  0.00000000000E+00 0.  1.
         21   -1    0    0  501  503 -0.00000000000E+00 -0.00000000000E+00 -0.23368391090E+04  0.23368391090E+04  0.00000000000E+00 0.  1.
         25    1    1    2    0    0 -0.22184524504E+03  0.73648200020E+02 -0.20597730194E+04  0.20767593172E+04  0.12500000000E+03 0.  0.
          3    1    1    2  501    0 -0.88055512724E+00 -0.26894278228E+02 -0.71032274016E+02  0.75958288097E+02  0.00000000000E+00 0. -1.
         -3    1    1    2    0  502  0.22272580017E+03 -0.46753921792E+02 -0.12870318180E+03  0.26145213762E+03  0.00000000000E+00 0.  1.
<mgrwt>
<rscale>  4 0.26432672E+03</rscale>
<asrwt>0</asrwt>
<pdfrwt beam="1">  1       21 0.11897020E-01 0.26432672E+03</pdfrwt>
<pdfrwt beam="2">  1       21 0.35951374E+00 0.26432672E+03</pdfrwt>
<totfact> 0.83550518E+02</totfact>
</mgrwt>
</event>
<event>
 5    0  0.8533808E-002  0.4554993E+03  0.7546771E-02  0.1027220E+00
         21   -1    0    0  503  502  0.00000000000E+00  0.00000000000E+00  0.15013150698E+03  0.15013150698E+03  0.00000000000E+00 0.  1.
         21   -1    0    0  501  503 -0.00000000000E+00 -0.00000000000E+00 -0.13928683578E+04  0.13928683578E+04  0.00000000000E+00 0. -1.
         25    1    1    2    0    0  0.33575094142E+02  0.42100109152E+03 -0.76626146747E+03  0.88382738278E+03  0.12500000000E+03 0.  0.
          3    1    1    2  501    0  0.54040209992E+02 -0.26251241196E+03 -0.33705650590E+03  0.43062768014E+03  0.00000000000E+00 0.  1.
         -3    1    1    2    0  502 -0.87615304134E+02 -0.15848867956E+03 -0.13941887742E+03  0.22854480184E+03  0.00000000000E+00 0. -1.
<mgrwt>
<rscale>  4 0.45168883E+03</rscale>
<asrwt>0</asrwt>
<pdfrwt beam="1">  1       21 0.23097156E-01 0.45549925E+03</pdfrwt>
<pdfrwt beam="2">  1       21 0.21428743E+00 0.45549925E+03</pdfrwt>
<totfact> 0.16069133E+03</totfact>
</mgrwt>
</event>
<event>
 5    0  0.8533808E-002  0.2806267E+03  0.7546771E-02  0.1095347E+00
         21   -1    0    0  503  502  0.00000000000E+00  0.00000000000E+00  0.73339519707E+03  0.73339519707E+03  0.00000000000E+00 0.  1.
         21   -1    0    0  501  503 -0.00000000000E+00 -0.00000000000E+00 -0.16080596345E+03  0.16080596345E+03  0.00000000000E+00 0.  1.
         25    1    1    2    0    0  0.26752480754E+03 -0.19745129338E+02  0.41110954701E+03  0.50655251694E+03  0.12500000000E+03 0.  0.
          4    1    1    2  501    0 -0.35694618107E+02 -0.67824832806E+01 -0.57257785714E+02  0.67812696939E+02  0.00000000000E+00 0. -1.
         -4    1    1    2    0  502 -0.23183018943E+03  0.26527612618E+02  0.21873747233E+03  0.31983594664E+03  0.00000000000E+00 0.  1.
<mgrwt>
<rscale>  4 0.28062671E+03</rscale>
<asrwt>0</asrwt>
<pdfrwt beam="1">  1       21 0.11283003E+00 0.28062671E+03</pdfrwt>
<pdfrwt beam="2">  1       21 0.24739379E-01 0.28062671E+03</pdfrwt>
<totfact> 0.89869782E+03</totfact>
</mgrwt>
</event>
<event>
 5    0  0.8533808E-002  0.4566428E+03  0.7546771E-02  0.1025759E+00
         21   -1    0    0  501  502  0.00000000000E+00  0.00000000000E+00  0.12092788799E+03  0.12092788799E+03  0.00000000000E+00 0.  1.
         21   -1    0    0  502  503 -0.00000000000E+00 -0.00000000000E+00 -0.27748168360E+04  0.27748168360E+04  0.00000000000E+00 0.  1.
         25    1    1    2    0    0  0.23262020641E+03 -0.37548706204E+03 -0.47294706245E+03  0.65909530272E+03  0.12500000000E+03 0.  0.
          4    1    1    2  501    0 -0.24733068765E+03  0.35441892152E+03 -0.16685533192E+04  0.17236169586E+04  0.00000000000E+00 0.  1.
         -4    1    1    2    0  503  0.14710481239E+02  0.21068140524E+02 -0.51238856633E+03  0.51303246263E+03  0.00000000000E+00 0. -1.
<mgrwt>
<rscale>  4 0.45664279E+03</rscale>
<asrwt>0</asrwt>
<pdfrwt beam="1">  1       21 0.18604292E-01 0.45664279E+03</pdfrwt>
<pdfrwt beam="2">  1       21 0.42689486E+00 0.45664279E+03</pdfrwt>
<totfact> 0.11650826E+02</totfact>
</mgrwt>
</event>
<event>
 5    0  0.8533808E-002  0.2821395E+03  0.7546771E-02  0.1094526E+00
         21   -1    0    0  503  502  0.00000000000E+00  0.00000000000E+00  0.30234527698E+03  0.30234527698E+03  0.00000000000E+00 0.  1.
         21   -1    0    0  501  503 -0.00000000000E+00 -0.00000000000E+00 -0.52277392292E+03  0.52277392292E+03  0.00000000000E+00 0.  1.
         25    1    1    2    0    0 -0.18525376027E+03 -0.18796756990E+03  0.13253987395E+03  0.32069078755E+03  0.12500000000E+03 0.  0.
          4    1    1    2  501    0  0.75125462612E+02  0.22899680048E+03 -0.21277047479E+03  0.32148817195E+03  0.00000000000E+00 0.  1.
         -4    1    1    2    0  502  0.11012829766E+03 -0.41029230584E+02 -0.14019804510E+03  0.18294024040E+03  0.00000000000E+00 0. -1.
<mgrwt>
<rscale>  4 0.28213953E+03</rscale>
<asrwt>0</asrwt>
<pdfrwt beam="1">  1       21 0.46514658E-01 0.28213953E+03</pdfrwt>
<pdfrwt beam="2">  1       21 0.80426757E-01 0.28213953E+03</pdfrwt>
<totfact> 0.56775034E+03</totfact>
</mgrwt>
</event>
<event>
 5    0  0.8533808E-002  0.2532434E+03  0.7546771E-02  0.1111272E+00
         21   -1    0    0  501  502  0.00000000000E+00  0.00000000000E+00  0.11908027177E+03  0.11908027177E+03  0.00000000000E+00 0. -1.
         21   -1    0    0  502  503 -0.00000000000E+00 -0.00000000000E+00 -0.22402527875E+04  0.22402527875E+04  0.00000000000E+00 0.  1.
         25    1    1    2    0    0 -0.91004715745E+02  0.20464862714E+03 -0.20979926272E+04  0.21136132529E+04  0.12500000000E+03 0.  0.
          4    1    1    2  501    0  0.10579640188E+01 -0.54855092620E+02 -0.43228577593E+02  0.69849197525E+02  0.00000000000E+00 0.  1.
         -4    1    1    2    0  503  0.89946751726E+02 -0.14979353452E+03  0.20048689089E+02  0.17587060887E+03  0.00000000000E+00 0. -1.
<mgrwt>
<rscale>  4 0.25324336E+03</rscale>
<asrwt>0</asrwt>
<pdfrwt beam="1">  1       21 0.18320044E-01 0.25324336E+03</pdfrwt>
<pdfrwt beam="2">  1       21 0.34465423E+00 0.25324336E+03</pdfrwt>
<totfact> 0.47112420E+02</totfact>
</mgrwt>
</event>
<event>
 5    0  0.8533808E-002  0.2845840E+03  0.7546771E-02  0.1093211E+00
         21   -1    0    0  503  502  0.00000000000E+00  0.00000000000E+00  0.73087865008E+03  0.73087865008E+03  0.00000000000E+00 0. -1.
         21   -1    0    0  501  503 -0.00000000000E+00 -0.00000000000E+00 -0.35979129147E+03  0.35979129147E+03  0.00000000000E+00 0. -1.
         25    1    1    2    0    0  0.24123613114E+03 -0.67142626870E+02 -0.23908219926E+03  0.36808735555E+03  0.12500000000E+03 0.  0.
          1    1    1    2  501    0  0.59865735222E+02  0.88419005640E+01  0.32852436713E+02  0.68857592589E+02  0.00000000000E+00 0.  1.
         -1    1    1    2    0  502 -0.30110186636E+03  0.58300726306E+02  0.57731712116E+03  0.65372499340E+03  0.00000000000E+00 0. -1.
<mgrwt>
<rscale>  4 0.28458397E+03</rscale>
<asrwt>0</asrwt>
<pdfrwt beam="1">  1       21 0.11244287E+00 0.28458397E+03</pdfrwt>
<pdfrwt beam="2">  1       21 0.55352507E-01 0.28458397E+03</pdfrwt>
<totfact> 0.17740885E+03</totfact>
</mgrwt>
</event>
<event>
 5    0  0.8533808E-002  0.2433539E+03  0.7546771E-02  0.1117579E+00
         21   -1    0    0  501  502  0.00000000000E+00  0.00000000000E+00  0.15764406848E+04  0.15764406848E+04  0.00000000000E+00 0.  1.
         21   -1    0    0  502  503 -0.00000000000E+00 -0.00000000000E+00 -0.20650256091E+03  0.20650256091E+03  0.00000000000E+00 0. -1.
         25    1    1    2    0    0 -0.79887006436E+02 -0.21408347600E+03 -0.97131856097E+02  0.27798069351E+03  0.12500000000E+03 0.  0.
          2    1    1    2  501    0  0.44838099842E+01  0.90573455328E+02  0.11800273640E+04  0.11835067534E+04  0.00000000000E+00 0.  1.
         -2    1    1    2    0  503  0.75403196452E+02  0.12351002067E+03  0.28704261594E+03  0.32145579884E+03  0.00000000000E+00 0. -1.
<mgrwt>
<rscale>  4 0.24335391E+03</rscale>
<asrwt>0</asrwt>
<pdfrwt beam="1">  1       21 0.24252933E+00 0.24335391E+03</pdfrwt>
<pdfrwt beam="2">  1       21 0.31769626E-01 0.24335391E+03</pdfrwt>
<totfact> 0.66178299E+02</totfact>
</mgrwt>
</event>
<event>
 5    0  0.8533808E-002  0.2270842E+03  0.7546771E-02  0.1128709E+00
         21   -1    0    0  501  502  0.00000000000E+00  0.00000000000E+00  0.21278585087E+04  0.21278585087E+04  0.00000000000E+00 0.  1.
         21   -1    0    0  502  503 -0.00000000000E+00 -0.00000000000E+00 -0.55766865004E+02  0.55766865004E+02  0.00000000000E+00 0. -1.
         25    1    1    2    0    0 -0.23390770018E+03 -0.27096736480E+02  0.55260706930E+03  0.61355245772E+03  0.12500000000E+03 0.  0.
          2    1    1    2  501    0  0.16402006236E+03  0.81102527946E+02  0.14389780390E+04  0.14505647168E+04  0.00000000000E+00 0.  1.
         -2    1    1    2    0  503  0.69887637824E+02 -0.54005791466E+02  0.80506535413E+02  0.11950819920E+03  0.00000000000E+00 0. -1.
<mgrwt>
<rscale>  4 0.22708416E+03</rscale>
<asrwt>0</asrwt>
<pdfrwt beam="1">  1       21 0.32736278E+00 0.22708416E+03</pdfrwt>
<pdfrwt beam="2">  1       21 0.85795193E-02 0.22708416E+03</pdfrwt>
<totfact> 0.24164128E+03</totfact>
</mgrwt>
</event>
<event>
 5    0  0.8533808E-002  0.2731707E+03  0.7546771E-02  0.1099479E+00
         21   -1    0    0  501  502  0.00000000000E+00  0.00000000000E+00  0.22235267686E+04  0.22235267686E+04  0.00000000000E+00 0.  1.
         21   -1    0    0  502  503 -0.00000000000E+00 -0.00000000000E+00 -0.32673258184E+02  0.32673258184E+02  0.00000000000E+00 0.  1.
         25    1    1    2    0    0  0.23899983776E+03  0.43316502132E+02  0.87457648886E+03  0.91624575125E+03  0.12500000000E+03 0.  0.
          4    1    1    2  501    0 -0.94242978202E+02 -0.18529793599E+02  0.69205978813E+03  0.69869295297E+03  0.00000000000E+00 0.  1.
         -4    1    1    2    0  503 -0.14475685956E+03 -0.24786708533E+02  0.62421723341E+03  0.64126132255E+03  0.00000000000E+00 0. -1.
<mgrwt>
<rscale>  4 0.27317072E+03</rscale>
<asrwt>0</asrwt>
<pdfrwt beam="1">  1       21 0.34208092E+00 0.27317072E+03</pdfrwt>
<pdfrwt beam="2">  1       21 0.50266569E-02 0.27317072E+03</pdfrwt>
<totfact> 0.47670901E+03</totfact>
</mgrwt>
</event>
<event>
 5    0  0.8533808E-002  0.2788791E+03  0.7546771E-02  0.1096303E+00
         21   -1    0    0  503  502  0.00000000000E+00  0.00000000000E+00  0.68530413766E+03  0.68530413766E+03  0.00000000000E+00 0. -1.
         21   -1    0    0  501  503 -0.00000000000E+00 -0.00000000000E+00 -0.18700068286E+03  0.18700068286E+03  0.00000000000E+00 0. -1.
         25    1    1    2    0    0  0.78462165900E+02 -0.23662679338E+03 -0.35137135353E+02  0.28108391826E+03  0.12500000000E+03 0.  0.
          4    1    1    2  501    0 -0.51565408148E+01  0.58541811316E+02  0.86724830746E+02  0.10476129941E+03  0.00000000000E+00 0.  1.
         -4    1    1    2    0  502 -0.73305625085E+02  0.17808498206E+03  0.44671575941E+03  0.48645960286E+03  0.00000000000E+00 0. -1.
<mgrwt>
<rscale>  4 0.27887910E+03</rscale>
<asrwt>0</asrwt>
<pdfrwt beam="1">  1       21 0.10543140E+00 0.27887910E+03</pdfrwt>
<pdfrwt beam="2">  1       21 0.28769336E-01 0.27887910E+03</pdfrwt>
<totfact> 0.79225706E+03</totfact>
</mgrwt>
</event>
<event>
 5    0  0.8533808E-002  0.2986886E+03  0.7546771E-02  0.1085898E+00
         21   -1    0    0  503  502  0.00000000000E+00  0.00000000000E+00  0.61325703073E+03  0.61325703073E+03  0.00000000000E+00 0.  1.
         21   -1    0    0  501  503 -0.00000000000E+00 -0.00000000000E+00 -0.14203487900E+03  0.14203487900E+03  0.00000000000E+00 0.  1.
         25    1    1    2    0    0  0.11500844864E+03  0.24568871936E+03  0.28942972849E+03  0.41591400290E+03  0.12500000000E+03 0.  0.
          1    1    1    2  501    0 -0.95514090452E+02 -0.19389231741E+03  0.18419753168E+03  0.28398222286E+03  0.00000000000E+00 0.  1.
         -1    1    1    2    0  502 -0.19494358185E+02 -0.51796401950E+02 -0.24051084288E+01  0.55395683971E+02  0.00000000000E+00 0. -1.
<mgrwt>
<rscale>  4 0.29868862E+03</rscale>
<asrwt>0</asrwt>
<pdfrwt beam="1">  1       21 0.94347234E-01 0.29868862E+03</pdfrwt>
<pdfrwt beam="2">  1       21 0.21851520E-01 0.29868862E+03</pdfrwt>
<totfact> 0.17416079E+04</totfact>
</mgrwt>
</event>
<event>
 5    0  0.8533808E-002  0.2422857E+03  0.7546771E-02  0.1118279E+00
         21   -1    0    0  501  502  0.00000000000E+00  0.00000000000E+00  0.67885407588E+02  0.67885407588E+02  0.00000000000E+00 0.  1.
         21   -1    0    0  502  503 -0.00000000000E+00 -0.00000000000E+00 -0.10608790046E+04  0.10608790046E+04  0.00000000000E+00 0.  1.
         25    1    1    2    0    0 -0.18469061057E+03  0.94692894931E+02 -0.22769827597E+03  0.33248890337E+03  0.12500000000E+03 0.  0.
          2    1    1    2  501    0  0.75589707877E+02 -0.73196596360E+02 -0.30140318002E+03  0.31924194991E+03  0.00000000000E+00 0.  1.
         -2    1    1    2    0  503  0.10910090270E+03 -0.21496298571E+02 -0.46389214098E+03  0.47703355886E+03  0.00000000000E+00 0. -1.
<mgrwt>
<rscale>  4 0.24228571E+03</rscale>
<asrwt>0</asrwt>
<pdfrwt beam="1">  1       21 0.10443910E-01 0.24228571E+03</pdfrwt>
<pdfrwt beam="2">  1       21 0.16321214E+00 0.24228571E+03</pdfrwt>
<totfact> 0.17349687E+04</totfact>
</mgrwt>
</event>
<event>
 5    0  0.8533808E-002  0.2577631E+03  0.7546771E-02  0.1108495E+00
         21   -1    0    0  503  502  0.00000000000E+00  0.00000000000E+00  0.25677005140E+02  0.25677005140E+02  0.00000000000E+00 0. -1.
         21   -1    0    0  501  503 -0.00000000000E+00 -0.00000000000E+00 -0.24447911234E+04  0.24447911234E+04  0.00000000000E+00 0. -1.
         25    1    1    2    0    0 -0.14458157591E+03 -0.17295369355E+03 -0.10021416770E+04  0.10347607226E+04  0.12500000000E+03 0.  0.
          1    1    1    2  501    0  0.71209149006E+02  0.10084353060E+03 -0.62445741935E+03  0.63654318718E+03  0.00000000000E+00 0. -1.
         -1    1    1    2    0  502  0.73372426902E+02  0.72110162948E+02 -0.79251502192E+03  0.79916421879E+03  0.00000000000E+00 0.  1.
<mgrwt>
<rscale>  4 0.25776309E+03</rscale>
<asrwt>0</asrwt>
<pdfrwt beam="1">  1       21 0.39503081E-02 0.25776309E+03</pdfrwt>
<pdfrwt beam="2">  1       21 0.37612175E+00 0.25776309E+03</pdfrwt>
<totfact> 0.45333093E+03</totfact>
</mgrwt>
</event>
<event>
 5    0  0.8533808E-002  0.2910104E+03  0.7546771E-02  0.1089823E+00
         21   -1    0    0  503  502  0.00000000000E+00  0.00000000000E+00  0.35022477498E+03  0.35022477498E+03  0.00000000000E+00 0.  1.
         21   -1    0    0  501  503 -0.00000000000E+00 -0.00000000000E+00 -0.63569662212E+03  0.63569662212E+03  0.00000000000E+00 0.  1.
         25    1    1    2    0    0  0.65794478079E+02 -0.26295494563E+03 -0.52426000158E+03  0.60328083513E+03  0.12500000000E+03 0.  0.
          3    1    1    2  501    0 -0.23986321125E+02  0.62474593064E+02 -0.14788644391E+01  0.66937324563E+02  0.00000000000E+00 0. -1.
         -3    1    1    2    0  502 -0.41808156954E+02  0.20048035257E+03  0.24026701887E+03  0.31570323741E+03  0.00000000000E+00 0.  1.
<mgrwt>
<rscale>  4 0.29101040E+03</rscale>
<asrwt>0</asrwt>
<pdfrwt beam="1">  1       21 0.53880735E-01 0.29101040E+03</pdfrwt>
<pdfrwt beam="2">  1       21 0.97799480E-01 0.29101040E+03</pdfrwt>
<totfact> 0.26262320E+03</totfact>
</mgrwt>
</event>
<event>
 5    0  0.8533808E-002  0.2488404E+03  0.7546771E-02  0.1114040E+00
         21   -1    0    0  503  502  0.00000000000E+00  0.00000000000E+00  0.10944673546E+03  0.10944673546E+03  0.00000000000E+00 0. -1.
         21   -1    0    0  501  503 -0.00000000000E+00 -0.00000000000E+00 -0.55476571900E+03  0.55476571900E+03  0.00000000000E+00 0. -1.
         25    1    1    2    0    0 -0.16239402482E+03  0.14115496440E+03 -0.31450310476E+03  0.40104082856E+03  0.12500000000E+03 0.  0.
          3    1    1    2  501    0  0.68490302985E+02 -0.15500993780E+02 -0.53540406348E+02  0.88305025469E+02  0.00000000000E+00 0.  1.
         -3    1    1    2    0  502  0.93903721835E+02 -0.12565397062E+03 -0.77275472436E+02  0.17486660043E+03  0.00000000000E+00 0. -1.
<mgrwt>
<rscale>  4 0.24884040E+03</rscale>
<asrwt>0</asrwt>
<pdfrwt beam="1">  1       21 0.16837959E-01 0.24884040E+03</pdfrwt>
<pdfrwt beam="2">  1       21 0.85348574E-01 0.24884040E+03</pdfrwt>
<totfact> 0.36663976E+04</totfact>
</mgrwt>
</event>
<event>
 5    0  0.8533808E-002  0.2268567E+03  0.7546771E-02  0.1128872E+00
         21   -1    0    0  503  502  0.00000000000E+00  0.00000000000E+00  0.48363139439E+03  0.48363139439E+03  0.00000000000E+00 0. -1.
         21   -1    0    0  501  503 -0.00000000000E+00 -0.00000000000E+00 -0.26755417681E+03  0.26755417681E+03  0.00000000000E+00 0. -1.
         25    1    1    2    0    0 -0.10690971811E+02  0.20642380957E+03  0.37895065093E+03  0.44939256989E+03  0.12500000000E+03 0.  0.
          2    1    1    2  501    0  0.73139132299E+02 -0.89484855154E+02 -0.43780806649E+02  0.12358653246E+03  0.00000000000E+00 0.  1.
         -2    1    1    2    0  502 -0.62448160489E+02 -0.11693895441E+03 -0.11909262669E+03  0.17820646885E+03  0.00000000000E+00 0. -1.
<mgrwt>
<rscale>  4 0.22685670E+03</rscale>
<asrwt>0</asrwt>
<pdfrwt beam="1">  1       21 0.74404829E-01 0.22685670E+03</pdfrwt>
<pdfrwt beam="2">  1       21 0.41162181E-01 0.22685670E+03</pdfrwt>
<totfact> 0.89903436E+03</totfact>
</mgrwt>
</event>
<event>
 5    0  0.8533808E-002  0.3267701E+03  0.7546771E-02  0.1072575E+00
         21   -1    0    0  501  502  0.00000000000E+00  0.00000000000E+00  0.29869049492E+03  0.29869049492E+03  0.00000000000E+00 0. -1.
         21   -1    0    0  502  503 -0.00000000000E+00 -0.00000000000E+00 -0.35054576241E+03  0.35054576241E+03  0.00000000000E+00 0. -1.
         25    1    1    2    0    0  0.69986635770E+02  0.29369300899E+03 -0.18166736857E+02  0.32727472106E+03  0.12500000000E+03 0.  0.
          3    1    1    2  501    0 -0.67118415191E+02 -0.19741071718E+03  0.23676853561E+02  0.20984867479E+03  0.00000000000E+00 0. -1.
         -3    1    1    2    0  503 -0.28682205794E+01 -0.96282291815E+02 -0.57365384187E+02  0.11211286148E+03  0.00000000000E+00 0.  1.
<mgrwt>
<rscale>  4 0.32677012E+03</rscale>
<asrwt>0</asrwt>
<pdfrwt beam="1">  1       21 0.45952384E-01 0.32677012E+03</pdfrwt>
<pdfrwt beam="2">  1       21 0.53930117E-01 0.32677012E+03</pdfrwt>
<totfact> 0.13792128E+04</totfact>
</mgrwt>
</event>
<event>
 5    0  0.8533808E-002  0.2696149E+03  0.7546771E-02  0.1101500E+00
         21   -1    0    0  501  502  0.00000000000E+00  0.00000000000E+00  0.85898702276E+03  0.85898702276E+03  0.00000000000E+00 0. -1.
         21   -1    0    0  502  503 -0.00000000000E+00 -0.00000000000E+00 -0.18358124919E+03  0.18358124919E+03  0.00000000000E+00 0. -1.
         25    1    1    2    0    0 -0.13385929452E+03 -0.22945793715E+03  0.67055877689E+03  0.73201320269E+03  0.12500000000E+03 0.  0.
          2    1    1    2  501    0  0.56756817369E+02  0.17681505890E+03  0.68090330522E+02  0.19779078462E+03  0.00000000000E+00 0. -1.
         -2    1    1    2    0  503  0.77102477155E+02  0.52642878254E+02 -0.63243333843E+02  0.11276428464E+03  0.00000000000E+00 0.  1.
<mgrwt>
<rscale>  4 0.26961494E+03</rscale>
<asrwt>0</asrwt>
<pdfrwt beam="1">  1       21 0.13215185E+00 0.26961494E+03</pdfrwt>
<pdfrwt beam="2">  1       21 0.28243270E-01 0.26961494E+03</pdfrwt>
<totfact> 0.47028156E+03</totfact>
</mgrwt>
</event>
<event>
 5    0  0.8533808E-002  0.2425394E+03  0.7546771E-02  0.1118113E+00
         21   -1    0    0  501  502  0.00000000000E+00  0.00000000000E+00  0.12708995500E+03  0.12708995500E+03  0.00000000000E+00 0. -1.
         21   -1    0    0  502  503 -0.00000000000E+00 -0.00000000000E+00 -0.42671279825E+03  0.42671279825E+03  0.00000000000E+00 0. -1.
         25    1    1    2    0    0  0.74352282757E+02  0.19409301069E+03 -0.13850400812E+03  0.27930040998E+03  0.12500000000E+03 0.  0.
          4    1    1    2  501    0  0.73169838915E+01 -0.86670811707E+02 -0.55983219077E+02  0.10343833271E+03  0.00000000000E+00 0. -1.
         -4    1    1    2    0  503 -0.81669266648E+02 -0.10742219898E+03 -0.10513561605E+03  0.17106401056E+03  0.00000000000E+00 0.  1.
<mgrwt>
<rscale>  4 0.24253940E+03</rscale>
<asrwt>0</asrwt>
<pdfrwt beam="1">  1       21 0.19552301E-01 0.24253940E+03</pdfrwt>
<pdfrwt beam="2">  1       21 0.65648122E-01 0.24253940E+03</pdfrwt>
<totfact> 0.50203052E+04</totfact>
</mgrwt>
</event>
<event>
 5    0  0.8533808E-002  0.2391461E+03  0.7546771E-02  0.1120363E+00
         21   -1    0    0  503  502  0.00000000000E+00  0.00000000000E+00  0.15400555532E+03  0.15400555532E+03  0.00000000000E+00 0. -1.
         21   -1    0    0  501  503 -0.00000000000E+00 -0.00000000000E+00 -0.51047536992E+03  0.51047536992E+03  0.00000000000E+00 0. -1.
         25    1    1    2    0    0 -0.90854319298E+02 -0.20290791302E+03 -0.31448865563E+03  0.40491263628E+03  0.12500000000E+03 0.  0.
          4    1    1    2  501    0  0.55855319194E+01  0.22980219517E+02 -0.55166900584E+02  0.60022292324E+02  0.00000000000E+00 0.  1.
         -4    1    1    2    0  502  0.85268787379E+02  0.17992769350E+03  0.13185741617E+02  0.19954599663E+03  0.00000000000E+00 0. -1.
<mgrwt>
<rscale>  4 0.23914611E+03</rscale>
<asrwt>0</asrwt>
<pdfrwt beam="1">  1       21 0.23693162E-01 0.23914611E+03</pdfrwt>
<pdfrwt beam="2">  1       21 0.78534672E-01 0.23914611E+03</pdfrwt>
<totfact> 0.23451713E+04</totfact>
</mgrwt>
</event>
<event>
 5    0  0.8533808E-002  0.2216715E+03  0.7546771E-02  0.1132643E+00
         21   -1    0    0  503  502  0.00000000000E+00  0.00000000000E+00  0.59772918321E+02  0.59772918321E+02  0.00000000000E+00 0. -1.
         21   -1    0    0  501  503 -0.00000000000E+00 -0.00000000000E+00 -0.12936703253E+04  0.12936703253E+04  0.00000000000E+00 0.  1.
         25    1    1    2    0    0  0.31436536503E+02 -0.21705360150E+03 -0.89146061407E+03  0.92651365245E+03  0.12500000000E+03 0.  0.
          2    1    1    2  501    0  0.26869424385E+02  0.51405486421E+02 -0.17472033728E+03  0.18409694799E+03  0.00000000000E+00 0.  1.
         -2    1    1    2    0  502 -0.58305960888E+02  0.16564811507E+03 -0.16771645564E+03  0.24283264318E+03  0.00000000000E+00 0. -1.
<mgrwt>
<rscale>  4 0.22167153E+03</rscale>
<asrwt>0</asrwt>
<pdfrwt beam="1">  1       21 0.91958342E-02 0.22167153E+03</pdfrwt>
<pdfrwt beam="2">  1       21 0.19902619E+00 0.22167153E+03</pdfrwt>
<totfact> 0.12525823E+04</totfact>
</mgrwt>
</event>
<event>
 5    0  0.8533808E-002  0.2821131E+03  0.7546771E-02  0.1094540E+00
         21   -1    0    0  503  502  0.00000000000E+00  0.00000000000E+00  0.11211291376E+03  0.11211291376E+03  0.00000000000E+00 0.  1.
         21   -1    0    0  501  503 -0.00000000000E+00 -0.00000000000E+00 -0.82691108467E+03  0.82691108467E+03  0.00000000000E+00 0.  1.
         25    1    1    2    0    0  0.25174182130E+03  0.24266145118E+02 -0.16185424622E+03  0.32524542643E+03  0.12500000000E+03 0.  0.
          4    1    1    2  501    0 -0.47367068161E+02  0.14666265971E+02 -0.18025674578E+03  0.18695248836E+03  0.00000000000E+00 0. -1.
         -4    1    1    2    0  502 -0.20437475314E+03 -0.38932411089E+02 -0.37268717890E+03  0.42682608364E+03  0.00000000000E+00 0.  1.
<mgrwt>
<rscale>  4 0.28211308E+03</rscale>
<asrwt>0</asrwt>
<pdfrwt beam="1">  1       21 0.17248140E-01 0.28211308E+03</pdfrwt>
<pdfrwt beam="2">  1       21 0.12721709E+00 0.28211308E+03</pdfrwt>
<totfact> 0.13152187E+04</totfact>
</mgrwt>
</event>
<event>
 5    0  0.8533808E-002  0.2387717E+03  0.7546771E-02  0.1120614E+00
         21   -1    0    0  503  502  0.00000000000E+00  0.00000000000E+00  0.15043552858E+04  0.15043552858E+04  0.00000000000E+00 0. -1.
         21   -1    0    0  501  503 -0.00000000000E+00 -0.00000000000E+00 -0.62954045896E+02  0.62954045896E+02  0.00000000000E+00 0. -1.
         25    1    1    2    0    0  0.12885907860E+03 -0.17263783231E+03  0.11107897129E+04  0.11383704448E+04  0.12500000000E+03 0.  0.
          4    1    1    2  501    0  0.76152448076E+01  0.48000996440E+02 -0.17629245208E+01  0.48633275806E+02  0.00000000000E+00 0.  1.
         -4    1    1    2    0  502 -0.13647432341E+03  0.12463683587E+03  0.33237445150E+03  0.38030561108E+03  0.00000000000E+00 0. -1.
<mgrwt>
<rscale>  4 0.23877173E+03</rscale>
<asrwt>0</asrwt>
<pdfrwt beam="1">  1       21 0.23143925E+00 0.23877173E+03</pdfrwt>
<pdfrwt beam="2">  1       21 0.96852389E-02 0.23877173E+03</pdfrwt>
<totfact> 0.70694407E+03</totfact>
</mgrwt>
</event>
<event>
 5    0  0.8533808E-002  0.4200330E+03  0.7546771E-02  0.1037056E+00
         21   -1    0    0  501  502  0.00000000000E+00  0.00000000000E+00  0.32847975161E+03  0.32847975161E+03  0.00000000000E+00 0. -1.
         21   -1    0    0  502  503 -0.00000000000E+00 -0.00000000000E+00 -0.13935694844E+04  0.13935694844E+04  0.00000000000E+00 0. -1.
         25    1    1    2    0    0 -0.25547496518E+03 -0.25989159449E+03 -0.48208959928E+03  0.61712760468E+03  0.12500000000E+03 0.  0.
          1    1    1    2  501    0 -0.61093633780E+02 -0.32954517476E+02  0.19962336862E+03  0.21134786872E+03  0.00000000000E+00 0.  1.
         -1    1    1    2    0  503  0.31656859896E+03  0.29284611196E+03 -0.78262350217E+03  0.89357376265E+03  0.00000000000E+00 0. -1.
<mgrwt>
<rscale>  4 0.42003297E+03</rscale>
<asrwt>0</asrwt>
<pdfrwt beam="1">  1       21 0.50535345E-01 0.42003297E+03</pdfrwt>
<pdfrwt beam="2">  1       21 0.21439531E+00 0.42003297E+03</pdfrwt>
<totfact> 0.33554566E+02</totfact>
</mgrwt>
</event>
<event>
 5    0  0.8533808E-002  0.3247803E+03  0.7546771E-02  0.1073470E+00
         21   -1    0    0  501  502  0.00000000000E+00  0.00000000000E+00  0.12207707417E+04  0.12207707417E+04  0.00000000000E+00 0.  1.
         21   -1    0    0  502  503 -0.00000000000E+00 -0.00000000000E+00 -0.96863333747E+02  0.96863333747E+02  0.00000000000E+00 0.  1.
         25    1    1    2    0    0 -0.12918848092E+03  0.27049503852E+03  0.81805917450E+03  0.88017216637E+03  0.12500000000E+03 0.  0.
          4    1    1    2  501    0  0.10980545803E+03 -0.21227939028E+03  0.28655999817E+03  0.37314395439E+03  0.00000000000E+00 0.  1.
         -4    1    1    2    0  503  0.19383022890E+02 -0.58215648245E+02  0.19288235313E+02  0.64317954713E+02  0.00000000000E+00 0. -1.
<mgrwt>
<rscale>  4 0.32478028E+03</rscale>
<asrwt>0</asrwt>
<pdfrwt beam="1">  1       21 0.18781087E+00 0.32478028E+03</pdfrwt>
<pdfrwt beam="2">  1       21 0.14902052E-01 0.32478028E+03</pdfrwt>
<totfact> 0.58495263E+03</totfact>
</mgrwt>
</event>
<event>
 5    0  0.8533808E-002  0.2468194E+03  0.7546771E-02  0.1115332E+00
         21   -1    0    0  501  502  0.00000000000E+00  0.00000000000E+00  0.68876315432E+03  0.68876315432E+03  0.00000000000E+00 0.  1.
         21   -1    0    0  502  503 -0.00000000000E+00 -0.00000000000E+00 -0.15397078871E+03  0.15397078871E+03  0.00000000000E+00 0.  1.
         25    1    1    2    0    0  0.25649413612E+03 -0.41890030785E+02  0.35419811718E+03  0.45675521098E+03  0.12500000000E+03 0.  0.
          4    1    1    2  501    0 -0.18023888130E+03  0.34107393638E+02  0.23044652272E+03  0.29454196385E+03  0.00000000000E+00 0.  1.
         -4    1    1    2    0  503 -0.76255254821E+02  0.77826371470E+01 -0.49852274284E+02  0.91436768206E+02  0.00000000000E+00 0. -1.
<mgrwt>
<rscale>  4 0.24681938E+03</rscale>
<asrwt>0</asrwt>
<pdfrwt beam="1">  1       21 0.10596356E+00 0.24681938E+03</pdfrwt>
<pdfrwt beam="2">  1       21 0.23687814E-01 0.24681938E+03</pdfrwt>
<totfact> 0.11593594E+04</totfact>
</mgrwt>
</event>
<event>
 5    0  0.8533808E-002  0.2151250E+03  0.7546771E-02  0.1137571E+00
         21   -1    0    0  501  502  0.00000000000E+00  0.00000000000E+00  0.54144482550E+03  0.54144482550E+03  0.00000000000E+00 0.  1.
         21   -1    0    0  502  503 -0.00000000000E+00 -0.00000000000E+00 -0.44110372687E+03  0.44110372687E+03  0.00000000000E+00 0. -1.
         25    1    1    2    0    0 -0.21075339642E+03 -0.52607975290E+02 -0.26652223121E+03  0.36584654283E+03  0.12500000000E+03 0.  0.
          2    1    1    2  501    0  0.16506283708E+03 -0.56947733939E+02  0.44266738613E+03  0.47586048305E+03  0.00000000000E+00 0.  1.
         -2    1    1    2    0  503  0.45690559346E+02  0.10955570923E+03 -0.75804056285E+02  0.14084152650E+03  0.00000000000E+00 0. -1.
<mgrwt>
<rscale>  4 0.21512504E+03</rscale>
<asrwt>0</asrwt>
<pdfrwt beam="1">  1       21 0.83299204E-01 0.21512504E+03</pdfrwt>
<pdfrwt beam="2">  1       21 0.67862112E-01 0.21512504E+03</pdfrwt>
<totfact> 0.24419817E+03</totfact>
</mgrwt>
</event>
<event>
 5    0  0.8533808E-002  0.2439590E+03  0.7546771E-02  0.1117183E+00
         21   -1    0    0  501  502  0.00000000000E+00  0.00000000000E+00  0.27088732689E+02  0.27088732689E+02  0.00000000000E+00 0.  1.
         21   -1    0    0  502  503 -0.00000000000E+00 -0.00000000000E+00 -0.32175352228E+04  0.32175352228E+04  0.00000000000E+00 0.  1.
         25    1    1    2    0    0 -0.21039527875E+03 -0.12864778500E+02 -0.24502068896E+04  0.24624318219E+04  0.12500000000E+03 0.  0.
          3    1    1    2  501    0  0.76186345664E+01 -0.35644554153E+02 -0.55384816961E+02  0.66302758489E+02  0.00000000000E+00 0. -1.
         -3    1    1    2    0  503  0.20277664418E+03  0.48509332653E+02 -0.68485478357E+03  0.71588937508E+03  0.00000000000E+00 0.  1.
<mgrwt>
<rscale>  4 0.24395900E+03</rscale>
<asrwt>0</asrwt>
<pdfrwt beam="1">  1       21 0.41674983E-02 0.24395900E+03</pdfrwt>
<pdfrwt beam="2">  1       21 0.49500531E+00 0.24395900E+03</pdfrwt>
<totfact> 0.69697565E+02</totfact>
</mgrwt>
</event>
<event>
 5    0  0.8533808E-002  0.2372871E+03  0.7546771E-02  0.1121613E+00
         21   -1    0    0  503  502  0.00000000000E+00  0.00000000000E+00  0.74619484401E+03  0.74619484401E+03  0.00000000000E+00 0. -1.
         21   -1    0    0  501  503 -0.00000000000E+00 -0.00000000000E+00 -0.86885377770E+02  0.86885377770E+02  0.00000000000E+00 0.  1.
         25    1    1    2    0    0  0.69920645976E+02  0.18918580781E+03  0.15407499538E+03  0.28292096213E+03  0.12500000000E+03 0.  0.
          4    1    1    2  501    0 -0.10635755921E+02 -0.10656000116E+03  0.18053523958E+03  0.20990742217E+03  0.00000000000E+00 0. -1.
         -4    1    1    2    0  502 -0.59284890055E+02 -0.82625806652E+02  0.32469923128E+03  0.34025183748E+03  0.00000000000E+00 0.  1.
<mgrwt>
<rscale>  4 0.23728710E+03</rscale>
<asrwt>0</asrwt>
<pdfrwt beam="1">  1       21 0.11479920E+00 0.23728710E+03</pdfrwt>
<pdfrwt beam="2">  1       21 0.13366982E-01 0.23728710E+03</pdfrwt>
<totfact> 0.27764773E+04</totfact>
</mgrwt>
</event>
<event>
 5    0  0.8533808E-002  0.2500277E+03  0.7546771E-02  0.1113287E+00
         21   -1    0    0  503  502  0.00000000000E+00  0.00000000000E+00  0.11115224169E+04  0.11115224169E+04  0.00000000000E+00 0. -1.
         21   -1    0    0  501  503 -0.00000000000E+00 -0.00000000000E+00 -0.97444751011E+02  0.97444751011E+02  0.00000000000E+00 0. -1.
         25    1    1    2    0    0  0.17565232881E+02  0.21635535563E+03  0.11133479631E+03  0.27411423565E+03  0.12500000000E+03 0.  0.
          4    1    1    2  501    0 -0.25298535693E+02 -0.10975564834E+01  0.62360358845E+02  0.67305533901E+02  0.00000000000E+00 0.  1.
         -4    1    1    2    0  502  0.77333028119E+01 -0.21525779914E+03  0.84038251076E+03  0.86754739840E+03  0.00000000000E+00 0. -1.
<mgrwt>
<rscale>  4 0.25002765E+03</rscale>
<asrwt>0</asrwt>
<pdfrwt beam="1">  1       21 0.17100344E+00 0.25002765E+03</pdfrwt>
<pdfrwt beam="2">  1       21 0.14991501E-01 0.25002765E+03</pdfrwt>
<totfact> 0.79036735E+03</totfact>
</mgrwt>
</event>
<event>
 5    0  0.8533808E-002  0.2704385E+03  0.7546771E-02  0.1101029E+00
         21   -1    0    0  503  502  0.00000000000E+00  0.00000000000E+00  0.24026353167E+03  0.24026353167E+03  0.00000000000E+00 0.  1.
         21   -1    0    0  501  503 -0.00000000000E+00 -0.00000000000E+00 -0.30465017144E+03  0.30465017144E+03  0.00000000000E+00 0.  1.
         25    1    1    2    0    0 -0.14750675311E+03  0.18908661168E+03 -0.89072241144E+02  0.28472943836E+03  0.12500000000E+03 0.  0.
          1    1    1    2  501    0  0.12344127645E+03 -0.10825702863E+03  0.50853191777E+02  0.17188187832E+03  0.00000000000E+00 0.  1.
         -1    1    1    2    0  502  0.24065476660E+02 -0.80829583048E+02 -0.26167590397E+02  0.88302386433E+02  0.00000000000E+00 0. -1.
<mgrwt>
<rscale>  4 0.27043851E+03</rscale>
<asrwt>0</asrwt>
<pdfrwt beam="1">  1       21 0.36963620E-01 0.27043851E+03</pdfrwt>
<pdfrwt beam="2">  1       21 0.46869257E-01 0.27043851E+03</pdfrwt>
<totfact> 0.29630597E+04</totfact>
</mgrwt>
</event>
<event>
 5    0  0.8533808E-002  0.2629487E+03  0.7546771E-02  0.1105384E+00
         21   -1    0    0  501  502  0.00000000000E+00  0.00000000000E+00  0.16162231647E+03  0.16162231647E+03  0.00000000000E+00 0. -1.
         21   -1    0    0  502  503 -0.00000000000E+00 -0.00000000000E+00 -0.49097642815E+03  0.49097642815E+03  0.00000000000E+00 0. -1.
         25    1    1    2    0    0  0.20874975313E+03  0.10730768415E+03 -0.33128578845E+02  0.26798115838E+03  0.12500000000E+03 0.  0.
          3    1    1    2  501    0 -0.20724427173E+03 -0.87335427009E+02 -0.26560443408E+03  0.34802784425E+03  0.00000000000E+00 0. -1.
         -3    1    1    2    0  503 -0.15054814017E+01 -0.19972257139E+02 -0.30621098757E+02  0.36589741985E+02  0.00000000000E+00 0.  1.
<mgrwt>
<rscale>  4 0.26294868E+03</rscale>
<asrwt>0</asrwt>
<pdfrwt beam="1">  1       21 0.24864971E-01 0.26294868E+03</pdfrwt>
<pdfrwt beam="2">  1       21 0.75534836E-01 0.26294868E+03</pdfrwt>
<totfact> 0.23087949E+04</totfact>
</mgrwt>
</event>
<event>
 5    0  0.8533808E-002  0.2354372E+03  0.7546771E-02  0.1122870E+00
         21   -1    0    0  501  502  0.00000000000E+00  0.00000000000E+00  0.98646500552E+02  0.98646500552E+02  0.00000000000E+00 0. -1.
         21   -1    0    0  502  503 -0.00000000000E+00 -0.00000000000E+00 -0.60518721457E+03  0.60518721457E+03  0.00000000000E+00 0. -1.
         25    1    1    2    0    0 -0.19831448061E+03 -0.55350685216E+02 -0.16597506905E+03  0.29251505110E+03  0.12500000000E+03 0.  0.
          3    1    1    2  501    0  0.68612478428E+01  0.32668128558E+02 -0.84008188781E+02  0.90397229646E+02  0.00000000000E+00 0.  1.
         -3    1    1    2    0  503  0.19145323277E+03  0.22682556658E+02 -0.25655745619E+03  0.32092143437E+03  0.00000000000E+00 0. -1.
<mgrwt>
<rscale>  4 0.23543718E+03</rscale>
<asrwt>0</asrwt>
<pdfrwt beam="1">  1       21 0.15176384E-01 0.23543718E+03</pdfrwt>
<pdfrwt beam="2">  1       21 0.93105728E-01 0.23543718E+03</pdfrwt>
<totfact> 0.36478679E+04</totfact>
</mgrwt>
</event>
<event>
 5    0  0.8533808E-002  0.2504568E+03  0.7546771E-02  0.1113016E+00
         21   -1    0    0  501  502  0.00000000000E+00  0.00000000000E+00  0.84607772616E+02  0.84607772616E+02  0.00000000000E+00 0.  1.
         21   -1    0    0  502  503 -0.00000000000E+00 -0.00000000000E+00 -0.69680656122E+03  0.69680656122E+03  0.00000000000E+00 0.  1.
         25    1    1    2    0    0 -0.20736980073E+03 -0.64042104265E+02 -0.32303358059E+03  0.40875337254E+03  0.12500000000E+03 0.  0.
          2    1    1    2  501    0  0.28945942369E+02  0.42481986076E+02 -0.95471941630E+02  0.10843190656E+03  0.00000000000E+00 0. -1.
         -2    1    1    2    0  503  0.17842385836E+03  0.21560118188E+02 -0.19369326639E+03  0.26422905474E+03  0.00000000000E+00 0.  1.
<mgrwt>
<rscale>  4 0.25045683E+03</rscale>
<asrwt>0</asrwt>
<pdfrwt beam="1">  1       21 0.13016580E-01 0.25045683E+03</pdfrwt>
<pdfrwt beam="2">  1       21 0.10720101E+00 0.25045683E+03</pdfrwt>
<totfact> 0.34220753E+04</totfact>
</mgrwt>
</event>
<event>
 5    0  0.8533808E-002  0.3386053E+03  0.7546771E-02  0.1067391E+00
         21   -1    0    0  503  502  0.00000000000E+00  0.00000000000E+00  0.16035190217E+03  0.16035190217E+03  0.00000000000E+00 0.  1.
         21   -1    0    0  501  503 -0.00000000000E+00 -0.00000000000E+00 -0.15401442813E+04  0.15401442813E+04  0.00000000000E+00 0. -1.
         25    1    1    2    0    0  0.26066695952E+03  0.17629893016E+03 -0.13174009890E+04  0.13602201816E+04  0.12500000000E+03 0.  0.
          1    1    1    2  501    0 -0.10026262085E+03 -0.24601216547E+02 -0.60165733902E+02  0.11948944946E+03  0.00000000000E+00 0. -1.
         -1    1    1    2    0  502 -0.16040433867E+03 -0.15169771361E+03 -0.22256562085E+01  0.22078655241E+03  0.00000000000E+00 0.  1.
<mgrwt>
<rscale>  4 0.33860534E+03</rscale>
<asrwt>0</asrwt>
<pdfrwt beam="1">  1       21 0.24669522E-01 0.33860534E+03</pdfrwt>
<pdfrwt beam="2">  1       21 0.23694528E+00 0.33860534E+03</pdfrwt>
<totfact> 0.10846728E+03</totfact>
</mgrwt>
</event>
<event>
 5    0  0.8533808E-002  0.2525679E+03  0.7546771E-02  0.1111693E+00
         21   -1    0    0  503  502  0.00000000000E+00  0.00000000000E+00  0.93762616643E+03  0.93762616643E+03  0.00000000000E+00 0. -1.
         21   -1    0    0  501  503 -0.00000000000E+00 -0.00000000000E+00 -0.98298134367E+02  0.98298134367E+02  0.00000000000E+00 0. -1.
         25    1    1    2    0    0  0.21184336246E+03  0.57340380973E+02  0.73309887100E+03  0.77538666752E+03  0.12500000000E+03 0.  0.
          2    1    1    2  501    0 -0.14332593434E+03 -0.81322122978E+02  0.81550276146E+02  0.18386423981E+03  0.00000000000E+00 0. -1.
         -2    1    1    2    0  502 -0.68517428118E+02  0.23981742004E+02  0.24678884920E+02  0.76673393471E+02  0.00000000000E+00 0.  1.
<mgrwt>
<rscale>  4 0.25256787E+03</rscale>
<asrwt>0</asrwt>
<pdfrwt beam="1">  1       21 0.14425017E+00 0.25256787E+03</pdfrwt>
<pdfrwt beam="2">  1       21 0.15122791E-01 0.25256787E+03</pdfrwt>
<totfact> 0.12307860E+04</totfact>
</mgrwt>
</event>
<event>
 5    0  0.8533808E-002  0.2650683E+03  0.7546771E-02  0.1104136E+00
         21   -1    0    0  501  502  0.00000000000E+00  0.00000000000E+00  0.83641005008E+03  0.83641005008E+03  0.00000000000E+00 0. -1.
         21   -1    0    0  502  503 -0.00000000000E+00 -0.00000000000E+00 -0.11406038713E+03  0.11406038713E+03  0.00000000000E+00 0. -1.
         25    1    1    2    0    0 -0.63919197683E+02 -0.22483453041E+03  0.97998798417E+02  0.28260395324E+03  0.12500000000E+03 0.  0.
          4    1    1    2  501    0  0.64376279126E+02  0.17621287976E+03  0.51804624202E+03  0.55096932145E+03  0.00000000000E+00 0. -1.
         -4    1    1    2    0  503 -0.45708144300E+00  0.48621650654E+02  0.10630462251E+03  0.11689716251E+03  0.00000000000E+00 0.  1.
<mgrwt>
<rscale>  4 0.26506835E+03</rscale>
<asrwt>0</asrwt>
<pdfrwt beam="1">  1       21 0.12867847E+00 0.26506835E+03</pdfrwt>
<pdfrwt beam="2">  1       21 0.17547752E-01 0.26506835E+03</pdfrwt>
<totfact> 0.12481399E+04</totfact>
</mgrwt>
</event>
<event>
 5    0  0.8533808E-002  0.2668594E+03  0.7546771E-02  0.1103091E+00
         21   -1    0    0  501  502  0.00000000000E+00  0.00000000000E+00  0.58937156364E+03  0.58937156364E+03  0.00000000000E+00 0. -1.
         21   -1    0    0  502  503 -0.00000000000E+00 -0.00000000000E+00 -0.18438112283E+03  0.18438112283E+03  0.00000000000E+00 0.  1.
         25    1    1    2    0    0  0.74489828431E+02  0.22369666767E+03 -0.35587340873E+02  0.26922182768E+03  0.12500000000E+03 0.  0.
          3    1    1    2  501    0 -0.31864860920E+02 -0.59747807660E+02  0.19310167521E+03  0.20462997545E+03  0.00000000000E+00 0.  1.
         -3    1    1    2    0  503 -0.42624967511E+02 -0.16394886001E+03  0.24747610647E+03  0.29990088334E+03  0.00000000000E+00 0. -1.
<mgrwt>
<rscale>  4 0.26685939E+03</rscale>
<asrwt>0</asrwt>
<pdfrwt beam="1">  1       21 0.90672547E-01 0.26685939E+03</pdfrwt>
<pdfrwt beam="2">  1       21 0.28366327E-01 0.26685939E+03</pdfrwt>
<totfact> 0.11739781E+04</totfact>
</mgrwt>
</event>
