<LesHouchesEvents version="3.0">
  <!--
  <scalesfunctionalform>
    muR  H_T/2 := sum_i mT(i)/2, i=final state
    muF1 H_T/2 := sum_i mT(i)/2, i=final state
    muF2 H_T/2 := sum_i mT(i)/2, i=final state
    QES  H_T/2 := sum_i mT(i)/2, i=final state
  </scalesfunctionalform>
HERWIG6   
  -->
  <header>
       20
  </header>
  <init>
   2212   2212 0.65000000D+04 0.65000000D+04 -1 -1   244800   244800 -4   1
 0.44703471D-04 0.13061126D-05 0.25488787D-05     66
  </init>
  <event>
  7     66 0.25488787E-05 0.96600388E+02 0.75467711E-02 0.92368735E-01
       21 -1    0    0  503  501 0.00000000E+00 0.00000000E+00 0.29365822E+03 0.29365918E+03 0.75000000E+00 0.0000E+00 0.9000E+01
        2 -1    0    0  501    0 0.00000000E+00 0.00000000E+00 -.20719654E+04 0.20719654E+04 0.32000000E+00 0.0000E+00 0.9000E+01
       23  2    1    2    0    0 -.41817106E+03 -.31949103E+03 -.57209514E+03 0.78261354E+03 0.90827010E+02 0.0000E+00 0.0000E+00
       25  1    1    2    0    0 0.49914769E+03 0.20749081E+03 -.13017112E+04 0.14150187E+04 0.12500000E+03 0.0000E+00 0.9000E+01
        4  1    3    3  502    0 -.20267850E+03 -.20868600E+03 -.33339769E+03 0.44247581E+03 0.15500000E+01 0.0000E+00 0.9000E+01
        2  1    1    2  503    0 -.80976625E+02 0.11200022E+03 0.95499130E+02 0.16799241E+03 0.32000000E+00 0.0000E+00 0.9000E+01
       -4  1    3    3    0  502 -.21549256E+03 -.11080503E+03 -.23869745E+03 0.34013773E+03 0.15500000E+01 0.0000E+00 0.9000E+01
#aMCatNLO 2  0  0  1  2 0.20544747D+02 0.00000000D+00  -5  6  0 0.00000000D+00 0.00000000D+00 0.00000000D+00 0.00000000D+00 0.00000000D+00
  <mgrwgt>
 0.6711522846D-03    1    2    0
 0.569942088206341D+03 0.000000000000000D+00 0.000000000000000D+00 0.569942088206341D+03
 0.569942088206341D+03 0.000000000000000D+00 0.000000000000000D+00 -.569942088206341D+03
 0.573177265293238D+03 0.458196064467299D+03 0.264131730540240D+03 -.182203108858033D+03
 0.298912891865182D+03 -.223969608144915D+03 -.179261258756483D+03 0.839757861508941D+02
 0.000000000000000D+00 -.000000000000000D+00 0.000000000000000D+00 0.000000000000000D+00
 0.267794019254261D+03 -.234226456322384D+03 -.848704717837566D+02 0.982273227071387D+02
 0.104126437122416D+04 0.000000000000000D+00 0.000000000000000D+00 0.104126437122416D+04
 0.584338372995894D+03 0.000000000000000D+00 0.000000000000000D+00 -.584338372995894D+03
 0.583972449386805D+03 0.499147686881562D+03 0.207490808100210D+03 -.182203108858033D+03
 0.302804805829692D+03 -.202674769937402D+03 -.208714530890204D+03 0.839757861508941D+02
 0.477370538329551D+03 -.809766246659618D+02 0.112000219936650D+03 0.456925998228264D+03
 0.261454950674004D+03 -.215496292278198D+03 -.110776497146656D+03 0.982273227071387D+02
0.150691212069D-04 0.000000000000D+00 0.000000000000D+00 0.317177704617D-04 0.859096974900D-09  6 21 2 25 4 2 -4 2 0.45178260D-01 0.31876395D+00 0.37592657D+06 0.37592657D+06 0.37592657D+06 0.10773763D+01  1  2  1  5  5  1       -2 0.671152284577D-03 0.100000000000D+01
  </mgrwgt>
  </event>
  <event>
  7     66 0.25488787E-05 0.46789564E+02 0.75467711E-02 0.89415279E-01
       21 -1    0    0  503  501 0.00000000E+00 0.00000000E+00 0.59283493E+03 0.59283540E+03 0.75000000E+00 0.0000E+00 0.9000E+01
        2 -1    0    0  501    0 0.00000000E+00 0.00000000E+00 -.16449685E+04 0.16449686E+04 0.32000000E+00 0.0000E+00 0.9000E+01
       23  2    1    2    0    0 0.19734806E+03 -.77029197E+03 -.98201216E+03 0.12669484E+04 0.92273525E+02 0.0000E+00 0.0000E+00
       25  1    1    2    0    0 -.20517362E+03 0.77990141E+03 -.20013623E+03 0.84025111E+03 0.12500000E+03 0.0000E+00 0.9000E+01
        4  1    3    3  502    0 0.11840711E+03 -.58882611E+03 -.77600538E+03 0.98128650E+03 0.15500000E+01 0.0000E+00 0.9000E+01
        2  1    1    2  503    0 0.78255677E+01 -.96094350E+01 0.13001477E+03 0.13060446E+03 0.32000000E+00 0.0000E+00 0.9000E+01
       -4  1    3    3    0  502 0.78940942E+02 -.18146586E+03 -.20600677E+03 0.28566191E+03 0.15500000E+01 0.0000E+00 0.9000E+01
#aMCatNLO 2  0  0  1  2 0.20544747D+02 0.00000000D+00  -5  6  0 0.00000000D+00 0.00000000D+00 0.00000000D+00 0.00000000D+00 0.00000000D+00
  <mgrwgt>
 0.2715196299D-03    1    2    0
 0.872161311105318D+03 0.000000000000000D+00 0.000000000000000D+00 0.872161311105318D+03
 0.872161311105318D+03 0.000000000000000D+00 0.000000000000000D+00 -.872161311105318D+03
 0.874199522575160D+03 -.201240092247853D+03 0.775071214388369D+03 0.327668801031242D+03
 0.663422383403690D+03 0.121386031594971D+03 -.592585442770409D+03 -.272465012710358D+03
 0.000000000000000D+00 0.000000000000000D+00 -.000000000000000D+00 0.000000000000000D+00
 0.206700716231786D+03 0.798540606528817D+02 -.182485771617960D+03 -.552037883208832D+02
 0.111790771135185D+04 0.000000000000000D+00 0.000000000000000D+00 0.111790771135185D+04
 0.872339575405174D+03 0.000000000000000D+00 0.000000000000000D+00 -.872339575405174D+03
 0.879394260477958D+03 -.205173623120970D+03 0.779901408235514D+03 0.327668801031242D+03
 0.659630011333129D+03 0.118418259074480D+03 -.588941155479779D+03 -.272465012710358D+03
 0.245880642067100D+03 0.782556774019491D+01 -.960943497543899D+01 0.245568135946677D+03
 0.205342372878839D+03 0.789297963062954D+02 -.181350817780296D+03 -.552037883208832D+02
0.195648288661D-04 0.000000000000D+00 0.000000000000D+00 0.142286666489D-04 0.192410866416D-07  6 21 2 25 4 2 -4 2 0.91205401D-01 0.25307209D+00 0.66175963D+06 0.66175963D+06 0.66175963D+06 0.10600120D+01  1  2  1  5  5  1       -2 0.271519629913D-03 0.100000000000D+01
  </mgrwgt>
  </event>
  <event>
  7     66 0.25488787E-05 0.62755813E+02 0.75467711E-02 0.95214536E-01
       -2 -1    0    0    0  503 0.00000000E+00 0.00000000E+00 0.85210327E+03 0.85210333E+03 0.32000000E+00 0.0000E+00 0.9000E+01
        2 -1    0    0  501    0 0.00000000E+00 0.00000000E+00 -.26827232E+03 0.26827251E+03 0.32000000E+00 0.0000E+00 0.9000E+01
       23  2    1    2    0    0 0.25781413E+03 0.36882579E+03 0.29208730E+03 0.54439542E+03 0.92470485E+02 0.0000E+00 0.0000E+00
       25  1    1    2    0    0 -.24514799E+03 -.38642032E+03 0.28425508E+03 0.55303178E+03 0.12500000E+03 0.0000E+00 0.9000E+01
        4  1    3    3  502    0 0.76833920E+02 0.15867161E+03 0.15622048E+03 0.23555758E+03 0.15500000E+01 0.0000E+00 0.9000E+01
       -4  1    3    3    0  502 0.18098021E+03 0.21015419E+03 0.13586681E+03 0.30883784E+03 0.15500000E+01 0.0000E+00 0.9000E+01
       21  1    1    2  501  503 -.12666147E+02 0.17594530E+02 0.74885780E+01 0.22948640E+02 0.75000000E+00 0.0000E+00 0.9000E+01
#aMCatNLO 2  0  0  1  1 0.83632824D+01 0.00000000D+00  -5  6  0 0.00000000D+00 0.00000000D+00 0.00000000D+00 0.00000000D+00 0.00000000D+00
  <mgrwgt>
 0.1033922011D-03    1    2    0
 0.466825965514077D+03 0.000000000000000D+00 0.000000000000000D+00 0.466825965514077D+03
 0.466825965514077D+03 0.000000000000000D+00 0.000000000000000D+00 -.466825965514077D+03
 0.470614427844305D+03 -.251557560280733D+03 -.377516792583085D+03 -.726669654023989D+01
 0.182363006817982D+03 0.743445288227322D+02 0.162074460676038D+03 0.382233761773163D+02
 0.280674496365866D+03 0.177213031458000D+03 0.215442331907047D+03 -.309566796370764D+02
 0.000000000000000D+00 -.000000000000000D+00 0.000000000000000D+00 -.000000000000000D+00
 0.475436969759934D+03 0.000000000000000D+00 0.000000000000000D+00 0.475436969759934D+03
 0.480799448669181D+03 0.000000000000000D+00 0.000000000000000D+00 -.480799448669181D+03
 0.474442838268698D+03 -.245147986865783D+03 -.386420323535789D+03 -.726669654023989D+01
 0.180366469622516D+03 0.768046349902389D+02 0.158657130068943D+03 0.382233761773163D+02
 0.279094288353740D+03 0.181009498878239D+03 0.210168663442904D+03 -.309566796370764D+02
 0.223328221841621D+02 -.126661470026949D+02 0.175945300239424D+02 -.536247890924647D+01
0.134901825373D-04 0.000000000000D+00 0.000000000000D+00 0.144092824912D-04 0.195765624835D-06  6 -2 2 25 4 -4 21 2 0.13109110D+00 0.41272139D-01 0.22548659D+06 0.22548659D+06 0.22548659D+06 0.10938470D+01  1  2  1  1  6  1       -2 0.103392201124D-03 0.100000000000D+01
  </mgrwgt>
  </event>
  <event>
  7     66 0.25488787E-05 0.57692675E+02 0.75467711E-02 0.91635962E-01
       -2 -1    0    0    0  501 0.00000000E+00 0.00000000E+00 0.51198724E+03 0.51198734E+03 0.32000000E+00 0.0000E+00 0.9000E+01
        2 -1    0    0  503    0 0.00000000E+00 0.00000000E+00 -.17791822E+04 0.17791822E+04 0.32000000E+00 0.0000E+00 0.9000E+01
       23  2    1    2    0    0 -.64671255E+03 0.27075741E+01 0.88941159E+02 0.65904864E+03 0.90499339E+02 0.0000E+00 0.0000E+00
       25  1    1    2    0    0 0.63373845E+03 -.10171276E+02 -.61861671E+03 0.89444928E+03 0.12500000E+03 0.0000E+00 0.9000E+01
        4  1    3    3  502    0 -.21830056E+03 0.40478675E+02 0.13785572E+02 0.22245472E+03 0.15500000E+01 0.0000E+00 0.9000E+01
       -4  1    3    3    0  502 -.42841198E+03 -.37771101E+02 0.75155587E+02 0.43659392E+03 0.15500000E+01 0.0000E+00 0.9000E+01
       21  1    1    2  503  501 0.12974099E+02 0.74637018E+01 -.73751939E+03 0.73767164E+03 0.75000000E+00 0.0000E+00 0.9000E+01
#aMCatNLO 2  0  0  2  1 0.47504533D-01 0.00000000D+00  -5  6  0 0.00000000D+00 0.00000000D+00 0.00000000D+00 0.00000000D+00 0.00000000D+00
  <mgrwgt>
 0.1107206077D-01    1    2    0
 0.730167027874908D+03 0.000000000000000D+00 0.000000000000000D+00 0.730167027874908D+03
 0.730167027874908D+03 0.000000000000000D+00 0.000000000000000D+00 -.730167027874908D+03
 0.732712633660593D+03 0.640222992743829D+03 -.644086543248946D+01 -.333640282850346D+03
 0.239841322858710D+03 -.216100461147477D+03 0.417318282631271D+02 0.953042777228837D+02
 0.487780099230513D+03 -.424122531596351D+03 -.352909628306377D+02 0.238336005127462D+03
 0.000000000000000D+00 0.000000000000000D+00 0.000000000000000D+00 -.000000000000000D+00
 0.730313694609605D+03 0.000000000000000D+00 0.000000000000000D+00 0.730313694609605D+03
 0.124729695686424D+04 0.000000000000000D+00 0.000000000000000D+00 -.124729695686424D+04
 0.727096082059486D+03 0.633738447116012D+03 -.101712758679542D+02 -.333640282850346D+03
 0.241560540302875D+03 -.218238873059512D+03 0.405016489152087D+02 0.953042777228837D+02
 0.491754137826766D+03 -.428473673212240D+03 -.377940748483043D+02 0.238336005127462D+03
 0.517199891284716D+03 0.129740991557393D+02 0.746370180104972D+01 -.516983262254634D+03
0.587030287191D-02 0.000000000000D+00 0.000000000000D+00 0.210286780024D-04 0.658708522239D-06  6 -2 2 25 4 -4 21 2 0.78767249D-01 0.27372024D+00 0.43105717D+06 0.43105717D+06 0.43105717D+06 0.10730943D+01  1  2  1  2  6  2        2 0.110720607678D-01 0.100000000000D+01
  </mgrwgt>
  </event>
  <event>
  6     66 0.25488787E-05 0.14611762E+02 0.75467711E-02 0.95538090E-01
       -2 -1    0    0    0  501 0.00000000E+00 0.00000000E+00 0.24444618E+03 0.24444639E+03 0.32000000E+00 0.0000E+00 0.9000E+01
        2 -1    0    0  501    0 0.00000000E+00 0.00000000E+00 -.94005807E+03 0.94005813E+03 0.32000000E+00 0.0000E+00 0.9000E+01
       23  2    1    2    0    0 -.29323816E+03 -.34518809E+03 -.20538067E+03 0.50546469E+03 0.90387477E+02 0.0000E+00 0.0000E+00
       25  1    1    2    0    0 0.29323816E+03 0.34518809E+03 -.49023122E+03 0.67903983E+03 0.12500000E+03 0.0000E+00 0.9000E+01
        4  1    3    3  502    0 -.59689461E+01 -.13467406E+02 0.87308735E+01 0.17193894E+02 0.15500000E+01 0.0000E+00 0.9000E+01
       -4  1    3    3    0  502 -.28726921E+03 -.33172069E+03 -.21411154E+03 0.48827080E+03 0.15500000E+01 0.0000E+00 0.9000E+01
#aMCatNLO 1  0  0  2  1 0.51821630D+01 0.00000000D+00  -5  6  0 0.00000000D+00 0.00000000D+00 0.00000000D+00 0.00000000D+00 0.00000000D+00
  <mgrwgt>
 0.2249182969D-03    7    2    0
 0.479368088050371D+03 0.000000000000000D+00 0.000000000000000D+00 0.479368088050371D+03
 0.479368088050371D+03 0.000000000000000D+00 0.000000000000000D+00 -.479368088050371D+03
 0.483256073310573D+03 0.293238159625782D+03 0.345188094253378D+03 -.112995547330676D+03
 0.274537847139368D+02 -.588615197715527D+01 -.133737358540498D+02 0.232423471131278D+02
 0.448026318076233D+03 -.287352007648627D+03 -.331814358399328D+03 0.897532002175484D+02
 0.000000000000000D+00 0.000000000000000D+00 0.000000000000000D+00 -.000000000000000D+00
 0.495391021932625D+03 0.000000000000000D+00 0.000000000000000D+00 0.495391021932625D+03
 0.504756986802817D+03 0.000000000000000D+00 0.000000000000000D+00 -.504756986802817D+03
 0.465208097661040D+03 0.282926887633819D+03 0.328599994928005D+03 -.112995547330676D+03
 0.280731132712178D+02 -.648981521032554D+01 -.143448697431286D+02 0.232423471131278D+02
 0.466268454057130D+03 -.297291805444719D+03 -.347804854357949D+03 0.897532002175484D+02
 0.405983437460540D+02 0.208547330212253D+02 0.335497291730725D+02 -.936596487019159D+01
0.421201858004D-05 0.000000000000D+00 0.000000000000D+00 0.289501862896D-05 0.000000000000D+00  6 -2 2 25 4 -4 21 0 0.37607125D-01 0.14462434D+00 0.21317423D+06 0.21317423D+06 0.21317423D+06 0.10957039D+01  1  2  2  2  6  2        2 0.961397885332D-04 0.100000000000D+01
0.121436456932D-05 0.000000000000D+00 -.161752603973D-07 0.289501862896D-05 0.000000000000D+00  6 -2 2 25 4 -4 21 2 0.37607125D-01 0.14462434D+00 0.21317423D+06 0.21317423D+06 0.21317423D+06 0.10957039D+01  1  2  3  2  6  2        2 0.332773238100D-04 0.100000000000D+01
-.130483003798D-05 0.000000000000D+00 0.000000000000D+00 0.289501862896D-05 0.000000000000D+00  6 -2 2 25 4 -4 21 2 0.37607125D-01 0.14462434D+00 0.21317423D+06 0.21317423D+06 0.21317423D+06 0.10957039D+01  1  2 15  2  6  2        2 -.357563558653D-04 0.100000000000D+01
-.822790779992D-06 0.000000000000D+00 0.000000000000D+00 0.289501862896D-05 0.000000000000D+00  6 -2 2 25 4 -4 21 2 0.37607125D-01 0.14462434D+00 0.21317423D+06 0.21317423D+06 0.21317423D+06 0.10957039D+01  1  2  4  2  6  2        2 -.225469977512D-04 0.100000000000D+01
-.549879598403D-04 0.000000000000D+00 -.962409822650D-05 0.289501862896D-05 0.000000000000D+00  6 -2 2 25 4 -4 21 2 0.37607125D-01 0.15577529D+00 0.21317423D+06 0.21317423D+06 0.21317423D+06 0.10957039D+01  1  2  5  2  6  2        2 -.135769100479D-02 0.100000000000D+01
0.555759050328D-04 0.000000000000D+00 0.959761216568D-05 0.289501862896D-05 0.000000000000D+00  6 -2 2 25 4 -4 21 2 0.37607125D-01 0.14462434D+00 0.21317423D+06 0.21317423D+06 0.21317423D+06 0.10957039D+01  1  2  6  2  6  2        2 0.152295071392D-02 0.100000000000D+01
-.669277399292D-06 0.000000000000D+00 -.120308119606D-06 0.289501862896D-05 0.000000000000D+00  6 -2 21 25 4 -4 -2 2 0.37607125D-01 0.15577529D+00 0.21317423D+06 0.21317423D+06 0.21317423D+06 0.10957039D+01  1  2  5  6  6  2        2 -.114551709832D-04 0.100000000000D+01
  </mgrwgt>
  </event>
  <event>
  7     66 0.25488787E-05 0.10668863E+03 0.75467711E-02 0.93168379E-01
       -2 -1    0    0    0  503 0.00000000E+00 0.00000000E+00 0.20110362E+03 0.20110388E+03 0.32000000E+00 0.0000E+00 0.9000E+01
        2 -1    0    0  501    0 0.00000000E+00 0.00000000E+00 -.25142683E+04 0.25142683E+04 0.32000000E+00 0.0000E+00 0.9000E+01
       23  2    1    2    0    0 0.64841875E+02 0.41767657E+03 -.14636789E+04 0.15263328E+04 0.93152944E+02 0.0000E+00 0.0000E+00
       25  1    1    2    0    0 -.21243852E+02 -.55485412E+03 -.87404170E+03 0.10430188E+04 0.12500000E+03 0.0000E+00 0.9000E+01
        4  1    3    3  502    0 0.66517007E+02 0.25087418E+03 -.75800316E+03 0.80120756E+03 0.15500000E+01 0.0000E+00 0.9000E+01
       -4  1    3    3    0  502 -.16751317E+01 0.16680239E+03 -.70567577E+03 0.72512519E+03 0.15500000E+01 0.0000E+00 0.9000E+01
       21  1    1    2  501  503 -.43598023E+02 0.13717756E+03 0.24555934E+02 0.14602063E+03 0.75000000E+00 0.0000E+00 0.9000E+01
#aMCatNLO 2  0  0  1  1 0.83078415D+02 0.00000000D+00  -5  6  0 0.00000000D+00 0.00000000D+00 0.00000000D+00 0.00000000D+00 0.00000000D+00
  <mgrwgt>
 0.2867508895D-03    1    2    0
 0.528183528965851D+03 0.000000000000000D+00 0.000000000000000D+00 0.528183528965851D+03
 0.528183528965851D+03 0.000000000000000D+00 0.000000000000000D+00 -.528183528965851D+03
 0.531471936225716D+03 -.444263718914223D+02 -.481912252287030D+03 0.180621974221630D+03
 0.301146492967263D+03 0.548281084483298D+02 0.287735066884695D+03 -.699401174957570D+02
 0.223748628738723D+03 -.104017365569075D+02 0.194177185402335D+03 -.110681856725873D+03
 0.000000000000000D+00 -.000000000000000D+00 0.000000000000000D+00 0.000000000000000D+00
 0.925620257422236D+03 0.000000000000000D+00 0.000000000000000D+00 0.925620257422236D+03
 0.546258808563773D+03 0.000000000000000D+00 0.000000000000000D+00 -.546258808563773D+03
 0.597129548080358D+03 -.212438522051688D+02 -.554854123497716D+03 0.180621974221630D+03
 0.268827430622993D+03 0.665359006921143D+02 0.250897471767112D+03 -.699401174957570D+02
 0.200171451823891D+03 -.169402550947470D+01 0.166779096395714D+03 -.110681856725873D+03
 0.405750635458766D+03 -.435980229774708D+02 0.137177555334889D+03 0.379361448858463D+03
0.589094359389D-04 0.000000000000D+00 0.000000000000D+00 0.748688581984D-05 0.272837288474D-08  6 -2 2 25 4 -4 21 2 0.30939021D-01 0.38681029D+00 0.32458858D+06 0.32458858D+06 0.32458858D+06 0.10820298D+01  1  2  1  1  6  1       -2 0.286750889481D-03 0.100000000000D+01
  </mgrwgt>
  </event>
  <event>
  7     66 0.25488787E-05 0.32043603E+02 0.75467711E-02 0.93471420E-01
       -2 -1    0    0    0  501 0.00000000E+00 0.00000000E+00 0.14056478E+03 0.14056514E+03 0.32000000E+00 0.0000E+00 0.9000E+01
        2 -1    0    0  503    0 0.00000000E+00 0.00000000E+00 -.24232847E+04 0.24232848E+04 0.32000000E+00 0.0000E+00 0.9000E+01
       23  2    1    2    0    0 0.50203318E+02 -.48879108E+03 -.77763704E+03 0.92459542E+03 0.93382221E+02 0.0000E+00 0.0000E+00
       25  1    1    2    0    0 -.38431087E+02 0.54126371E+03 -.11237342E+04 0.12541319E+04 0.12500000E+03 0.0000E+00 0.9000E+01
        4  1    3    3  502    0 0.11474827E+02 -.40975690E+03 -.67117720E+03 0.78645637E+03 0.15500000E+01 0.0000E+00 0.9000E+01
       -4  1    3    3    0  502 0.38728491E+02 -.79034182E+02 -.10645984E+03 0.13813905E+03 0.15500000E+01 0.0000E+00 0.9000E+01
       21  1    1    2  503  501 -.11772232E+02 -.52472632E+02 -.38134876E+03 0.38512258E+03 0.75000000E+00 0.0000E+00 0.9000E+01
#aMCatNLO 2  0  0  2  1 0.51821630D+01 0.00000000D+00  -5  6  0 0.00000000D+00 0.00000000D+00 0.00000000D+00 0.00000000D+00 0.00000000D+00
  <mgrwgt>
 0.3385760559D-03    1    2    0
 0.531212843090479D+03 0.000000000000000D+00 0.000000000000000D+00 0.531212843090479D+03
 0.531212843090479D+03 0.000000000000000D+00 0.000000000000000D+00 -.531212843090479D+03
 0.534462370242813D+03 -.444911045496969D+02 0.514252258699793D+03 -.599181211627533D+02
 0.431824279598966D+03 0.679982339868086D+01 -.430652603498092D+03 0.310532760466316D+02
 0.961390363391792D+02 0.376912811510160D+02 -.835996552017016D+02 0.288648451161217D+02
 0.000000000000000D+00 -.000000000000000D+00 -.000000000000000D+00 -.000000000000000D+00
 0.539128771342720D+03 0.000000000000000D+00 0.000000000000000D+00 0.539128771342720D+03
 0.631810718813843D+03 0.000000000000000D+00 0.000000000000000D+00 -.631810718813843D+03
 0.560052261782925D+03 -.384310867047188D+02 0.541263712305924D+03 -.599181211627533D+02
 0.411182759041027D+03 0.114673148584756D+02 -.409848089015063D+03 0.310532760466316D+02
 0.925508134658510D+02 0.387360034631046D+02 -.789429909828567D+02 0.288648451161217D+02
 0.107153655866760D+03 -.117722316168615D+02 -.524726323080044D+02 -.926819474711226D+02
0.328751604794D-04 0.000000000000D+00 0.000000000000D+00 0.555625279685D-05 0.122365225241D-07  6 -2 2 25 4 -4 21 2 0.21625328D-01 0.37281217D+00 0.30722507D+06 0.30722507D+06 0.30722507D+06 0.10837880D+01  1  2  1  2  6  2        2 0.338576055898D-03 0.100000000000D+01
  </mgrwgt>
  </event>
  <event>
  7     66 0.25488787E-05 0.92220379E+02 0.75467711E-02 0.92597205E-01
       -2 -1    0    0    0  501 0.00000000E+00 0.00000000E+00 0.11471997E+03 0.11472042E+03 0.32000000E+00 0.0000E+00 0.9000E+01
        2 -1    0    0  503    0 0.00000000E+00 0.00000000E+00 -.40627446E+04 0.40627446E+04 0.32000000E+00 0.0000E+00 0.9000E+01
       23  2    1    2    0    0 -.47021697E+03 0.26891335E+03 -.15570969E+04 0.16512026E+04 0.92200518E+02 0.0000E+00 0.0000E+00
       25  1    1    2    0    0 0.49827395E+03 -.15557023E+03 -.10404255E+04 0.11707217E+04 0.12500000E+03 0.0000E+00 0.9000E+01
        4  1    3    3  502    0 -.85062411E+02 0.85195710E+02 -.28315731E+03 0.30769204E+03 0.15500000E+01 0.0000E+00 0.9000E+01
       -4  1    3    3    0  502 -.38515456E+03 0.18371764E+03 -.12739395E+04 0.13435105E+04 0.15500000E+01 0.0000E+00 0.9000E+01
       21  1    1    2  503  501 -.28056982E+02 -.11334311E+03 -.13505023E+04 0.13555408E+04 0.75000000E+00 0.0000E+00 0.9000E+01
#aMCatNLO 2  0  0  2  1 0.51821630D+01 0.00000000D+00  -5  6  0 0.00000000D+00 0.00000000D+00 0.00000000D+00 0.00000000D+00 0.00000000D+00
  <mgrwgt>
 0.4466095333D-04    1    2    0
 0.548292858832059D+03 0.000000000000000D+00 0.000000000000000D+00 0.548292858832059D+03
 0.548292858832059D+03 0.000000000000000D+00 0.000000000000000D+00 -.548292858832059D+03
 0.551541152463924D+03 0.484283925745230D+03 -.212086388079604D+03 0.951897374582421D+02
 0.114362565772093D+03 -.879712202086185D+02 0.730740836182810D+02 0.197909907595086D+00
 0.430681999428100D+03 -.396312705536612D+03 0.139012304461323D+03 -.953876473658372D+02
 0.000000000000000D+00 -.000000000000000D+00 -.000000000000000D+00 -.000000000000000D+00
 0.563772311472043D+03 0.000000000000000D+00 0.000000000000000D+00 0.563772311472043D+03
 0.826713380525380D+03 0.000000000000000D+00 0.000000000000000D+00 -.826713380525380D+03
 0.545128527282366D+03 0.498273948051852D+03 -.155570234403929D+03 0.951897374582421D+02
 0.120311182962879D+03 -.849775284523732D+02 0.851678415584301D+02 0.197909907595086D+00
 0.437344988543749D+03 -.385239437852869D+03 0.183745506767235D+03 -.953876473658372D+02
 0.287700993208430D+03 -.280569817466094D+02 -.113343113921736D+03 -.262941069053337D+03
0.411183719766D-04 0.000000000000D+00 0.000000000000D+00 0.128494788519D-04 0.633526490969D-08  6 -2 2 25 4 -4 21 2 0.17649247D-01 0.62503713D+00 0.36038667D+06 0.36038667D+06 0.36038667D+06 0.10787079D+01  1  2  1  2  6  2        2 0.446609533321D-04 0.100000000000D+01
  </mgrwgt>
  </event>
  <event>
  6     66 0.25488787E-05 0.50988527E+02 0.75467711E-02 0.92427195E-01
       -2 -1    0    0    0  501 0.00000000E+00 0.00000000E+00 0.16400987E+03 0.16401019E+03 0.32000000E+00 0.0000E+00 0.9000E+01
        2 -1    0    0  501    0 -.00000000E+00 -.00000000E+00 -.24582493E+04 0.24582494E+04 0.32000000E+00 0.0000E+00 0.9000E+01
       25  1    1    2    0    0 -.58597098E+03 0.75580838E+02 -.14707026E+04 0.15898634E+04 0.12500000E+03 0.0000E+00 0.9000E+01
        4  1    1    2  502    0 0.21511217E+03 -.43207152E+02 -.22284324E+03 0.31273250E+03 0.15500000E+01 0.0000E+00 0.9000E+01
       -4  1    1    2    0  503 0.35663210E+03 -.63365817E+02 -.54786424E+03 0.65677949E+03 0.15500000E+01 0.0000E+00 0.9000E+01
       21  1    1    2  503  502 0.14226714E+02 0.30992131E+02 -.52829407E+02 0.62884182E+02 0.75000000E+00 0.0000E+00 0.9000E+01
#aMCatNLO 2  0  0  0  0 0.00000000D+00 0.00000000D+00  -5  6  0 0.00000000D+00 0.00000000D+00 0.00000000D+00 0.00000000D+00 0.00000000D+00
  <mgrwgt>
 0.4160757527D-02    1    2    0
 0.634962678918087D+03 0.000000000000000D+00 0.000000000000000D+00 0.634962678918087D+03
 0.634962678918087D+03 -.000000000000000D+00 -.000000000000000D+00 -.634962678918087D+03
 0.637555924389245D+03 -.597714360695910D+03 0.766059620284066D+02 -.166498127086782D+03
 0.238867151396140D+03 0.210652622434733D+03 -.428321723149898D+02 0.104155622470682D+03
 0.393502282050789D+03 0.387061738261177D+03 -.337737897134167D+02 0.623425046160997D+02
 0.000000000000000D+00 0.000000000000000D+00 0.000000000000000D+00 0.000000000000000D+00
 0.634962678918087D+03 0.000000000000000D+00 0.000000000000000D+00 0.634962678918087D+03
 0.634962678918087D+03 -.000000000000000D+00 -.000000000000000D+00 -.634962678918087D+03
 0.625892214490599D+03 -.585927519695070D+03 0.755774793601474D+02 -.164599667185255D+03
 0.243223659968989D+03 0.215150098481961D+03 -.432246079273099D+02 0.104880013164773D+03
 0.366274932630090D+03 0.356489099352123D+03 -.634639443681818D+02 0.551831140977188D+02
 0.345345507464951D+02 0.142883218609852D+02 0.311110729353444D+02 0.453653992276286D+01
0.562397548498D-03 0.000000000000D+00 0.000000000000D+00 0.238557834054D-05 0.179932525314D-07  6 -2 2 25 4 -4 21 2 0.25232314D-01 0.37819223D+00 0.37188012D+06 0.37188012D+06 0.37188012D+06 0.10777172D+01  1  2  1  4  6  5       -4 0.416075752658D-02 0.100000000000D+01
  </mgrwgt>
  </event>
  <event>
  7     66 0.25488787E-05 0.79844900E+02 0.75467711E-02 0.93966062E-01
       -2 -1    0    0    0  503 0.00000000E+00 0.00000000E+00 0.67302271E+03 0.67302278E+03 0.32000000E+00 0.0000E+00 0.9000E+01
        2 -1    0    0  501    0 0.00000000E+00 0.00000000E+00 -.10103362E+04 0.10103362E+04 0.32000000E+00 0.0000E+00 0.9000E+01
       23  2    1    2    0    0 0.47441491E+03 -.19052459E+03 -.69543447E+03 0.86790939E+03 0.90931145E+02 0.0000E+00 0.0000E+00
       25  1    1    2    0    0 -.48140685E+03 0.19959390E+03 0.85636495E+02 0.54272359E+03 0.12500000E+03 0.0000E+00 0.9000E+01
        4  1    3    3  502    0 0.24319958E+03 -.12016097E+03 -.43460544E+03 0.51231727E+03 0.15500000E+01 0.0000E+00 0.9000E+01
       -4  1    3    3    0  502 0.23121532E+03 -.70363621E+02 -.26082903E+03 0.35559211E+03 0.15500000E+01 0.0000E+00 0.9000E+01
       21  1    1    2  501  503 0.69919452E+01 -.90693113E+01 0.27248449E+03 0.27272605E+03 0.75000000E+00 0.0000E+00 0.9000E+01
#aMCatNLO 2  0  0  1  2 0.37785350D+01 0.00000000D+00  -5  6  0 0.00000000D+00 0.00000000D+00 0.00000000D+00 0.00000000D+00 0.00000000D+00
  <mgrwgt>
 0.6909756329D-02    1    2    0
 0.635983622929421D+03 0.000000000000000D+00 0.000000000000000D+00 0.635983622929421D+03
 0.635983622929421D+03 0.000000000000000D+00 0.000000000000000D+00 -.635983622929421D+03
 0.638875413985883D+03 -.477883943365197D+03 0.195024303684130D+03 0.355146803789479D+03
 0.362032880159964D+03 0.245187037703968D+03 -.122748872022479D+03 -.236397625360495D+03
 0.271058951712994D+03 0.232696905661229D+03 -.722754316616513D+02 -.118749178428984D+03
 0.000000000000000D+00 0.000000000000000D+00 -.000000000000000D+00 0.000000000000000D+00
 0.106900569773982D+04 0.000000000000000D+00 0.000000000000000D+00 0.106900569773982D+04
 0.636085113796395D+03 0.000000000000000D+00 0.000000000000000D+00 -.636085113796395D+03
 0.642918763239494D+03 -.481406853692261D+03 0.199593900462001D+03 0.355146803789479D+03
 0.359824553112353D+03 0.243203069410519D+03 -.120175449970973D+03 -.236397625360495D+03
 0.269275478416289D+03 0.231211839043052D+03 -.703491391922655D+02 -.118749178428984D+03
 0.433072016768076D+03 0.699194523869054D+01 -.906931129876285D+01 0.432920583943422D+03
0.243051267927D-02 0.000000000000D+00 0.000000000000D+00 0.282841837842D-04 0.155207751683D-05  6 -2 2 25 4 -4 21 2 0.10354191D+00 0.15543627D+00 0.28107395D+06 0.28107395D+06 0.28107395D+06 0.10866519D+01  1  2  1  1  6  1       -2 0.690975632864D-02 0.100000000000D+01
  </mgrwgt>
  </event>
  <event>
  7     66 0.25488787E-05 0.28184023E+02 0.75467711E-02 0.95200286E-01
       -2 -1    0    0    0  503 0.00000000E+00 0.00000000E+00 0.15795800E+03 0.15795832E+03 0.32000000E+00 0.0000E+00 0.9000E+01
        2 -1    0    0  501    0 0.00000000E+00 0.00000000E+00 -.20477438E+04 0.20477438E+04 0.32000000E+00 0.0000E+00 0.9000E+01
       23  2    1    2    0    0 0.43914915E+03 0.99520592E+02 -.14280438E+04 0.14999861E+04 0.88840752E+02 0.0000E+00 0.0000E+00
       25  1    1    2    0    0 -.45137954E+03 -.91248979E+02 -.48356294E+03 0.67935850E+03 0.12500000E+03 0.0000E+00 0.9000E+01
        4  1    3    3  502    0 0.59657207E+02 -.16853674E+02 -.19726224E+03 0.20677965E+03 0.15500000E+01 0.0000E+00 0.9000E+01
       -4  1    3    3    0  502 0.37949194E+03 0.11637427E+03 -.12307816E+04 0.12932064E+04 0.15500000E+01 0.0000E+00 0.9000E+01
       21  1    1    2  501  503 0.12230385E+02 -.82716123E+01 0.21821000E+02 0.26357549E+02 0.75000000E+00 0.0000E+00 0.9000E+01
#aMCatNLO 2  0  0  1  2 0.20108165D+02 0.00000000D+00  -5  6  0 0.00000000D+00 0.00000000D+00 0.00000000D+00 0.00000000D+00 0.00000000D+00
  <mgrwgt>
 0.1896190840D-03    1    2    0
 0.523231377751474D+03 0.000000000000000D+00 0.000000000000000D+00 0.523231377751474D+03
 0.523231377751474D+03 0.000000000000000D+00 0.000000000000000D+00 -.523231377751474D+03
 0.526925881438906D+03 -.445195168693532D+03 -.954315699938423D+02 0.233922982519067D+03
 0.710058835915545D+02 0.603847030882404D+02 -.174521856016760D+02 -.330294467905091D+02
 0.448530990472488D+03 0.384810465605291D+03 0.112883755595518D+03 -.200893535728558D+03
 0.000000000000000D+00 0.000000000000000D+00 -.000000000000000D+00 0.000000000000000D+00
 0.617444870486236D+03 0.000000000000000D+00 0.000000000000000D+00 0.617444870486236D+03
 0.523862254143618D+03 0.000000000000000D+00 0.000000000000000D+00 -.523862254143618D+03
 0.531427157464257D+03 -.451379536185366D+03 -.912489794628328D+02 0.233922982519067D+03
 0.701692650406257D+02 0.595597619128832D+02 -.168942641726462D+02 -.330294467905091D+02
 0.444970489131161D+03 0.379589389743788D+03 0.116414855985145D+03 -.200893535728558D+03
 0.947402129938107D+02 0.122303845286948D+02 -.827161234966565D+01 0.935826163426185D+02
0.134132509082D-04 0.000000000000D+00 0.000000000000D+00 0.302090639830D-05 0.897542749994D-07  6 -2 2 25 4 -4 21 2 0.24301189D-01 0.31503664D+00 0.22604694D+06 0.22604694D+06 0.22604694D+06 0.10937651D+01  1  2  1  1  6  1       -2 0.189619083955D-03 0.100000000000D+01
  </mgrwgt>
  </event>
  <event>
  7     66 0.25488787E-05 0.35796251E+02 0.75467711E-02 0.95107782E-01
       -2 -1    0    0    0  503 0.00000000E+00 0.00000000E+00 0.13763513E+03 0.13763550E+03 0.32000000E+00 0.0000E+00 0.9000E+01
        2 -1    0    0  501    0 0.00000000E+00 0.00000000E+00 -.20954705E+04 0.20954706E+04 0.32000000E+00 0.0000E+00 0.9000E+01
       23  2    1    2    0    0 0.26204392E+03 0.39080753E+03 -.14393979E+04 0.15169995E+04 0.89575153E+02 0.0000E+00 0.0000E+00
       25  1    1    2    0    0 -.25850112E+03 -.37896483E+03 -.51880215E+03 0.70371716E+03 0.12500000E+03 0.0000E+00 0.9000E+01
        4  1    3    3  502    0 0.20937114E+03 0.32262070E+03 -.12697238E+04 0.13266957E+04 0.15500000E+01 0.0000E+00 0.9000E+01
       -4  1    3    3    0  502 0.52672784E+02 0.68186829E+02 -.16967406E+03 0.19030385E+03 0.15500000E+01 0.0000E+00 0.9000E+01
       21  1    1    2  501  503 -.35428015E+01 -.11842704E+02 0.36464847E+00 0.12389372E+02 0.75000000E+00 0.0000E+00 0.9000E+01
#aMCatNLO 2  0  0  1  2 0.20108165D+02 0.00000000D+00  -5  6  0 0.00000000D+00 0.00000000D+00 0.00000000D+00 0.00000000D+00 0.00000000D+00
  <mgrwgt>
 0.4613733718D-03    1    2    0
 0.523660761519534D+03 0.000000000000000D+00 0.000000000000000D+00 0.523660761519534D+03
 0.523660761519534D+03 0.000000000000000D+00 0.000000000000000D+00 -.523660761519534D+03
 0.527289681574231D+03 -.260275947299793D+03 -.384897631282173D+03 0.215684150982917D+03
 0.434813130104439D+03 0.207939980532833D+03 0.317755968343896D+03 -.211788968525413D+03
 0.852187113603982D+02 0.523359667669609D+02 0.671416629382768D+02 -.389518245750436D+01
 0.000000000000000D+00 -.000000000000000D+00 -.000000000000000D+00 0.000000000000000D+00
 0.549134922556072D+03 0.000000000000000D+00 0.000000000000000D+00 0.549134922556072D+03
 0.525198953821428D+03 0.000000000000000D+00 0.000000000000000D+00 -.525198953821428D+03
 0.522093692762463D+03 -.258501121035368D+03 -.378964828790986D+03 0.215684150982917D+03
 0.439139879414574D+03 0.209418100725225D+03 0.322696956279150D+03 -.211788968525413D+03
 0.861608968228079D+02 0.526258217782267D+02 0.681105761031251D+02 -.389518245750436D+01
 0.269394073776544D+02 -.354280146808393D+01 -.118427035912889D+02 0.239359687346435D+02
0.274824567821D-04 0.000000000000D+00 0.000000000000D+00 0.887191199412D-05 0.370391367286D-06  6 -2 2 25 4 -4 21 2 0.21174456D-01 0.32237692D+00 0.22972263D+06 0.22972263D+06 0.22972263D+06 0.10932336D+01  1  2  1  1  6  1       -2 0.461373371757D-03 0.100000000000D+01
  </mgrwgt>
  </event>
  <event>
  7     66 0.25488787E-05 0.32598945E+02 0.75467711E-02 0.93678134E-01
       -2 -1    0    0    0  501 0.00000000E+00 0.00000000E+00 0.15003199E+03 0.15003233E+03 0.32000000E+00 0.0000E+00 0.9000E+01
        2 -1    0    0  503    0 0.00000000E+00 0.00000000E+00 -.35019166E+04 0.35019166E+04 0.32000000E+00 0.0000E+00 0.9000E+01
       23  2    1    2    0    0 -.11470707E+03 0.52118239E+03 -.69121988E+03 0.87799716E+03 0.91133441E+02 0.0000E+00 0.0000E+00
       25  1    1    2    0    0 0.11071939E+03 -.50226980E+03 -.11813008E+04 0.12944614E+04 0.12500000E+03 0.0000E+00 0.9000E+01
        4  1    3    3  502    0 -.48434924E+02 0.81634356E+02 -.15150517E+03 0.17879130E+03 0.15500000E+01 0.0000E+00 0.9000E+01
       -4  1    3    3    0  502 -.66272151E+02 0.43954803E+03 -.53971471E+03 0.69920586E+03 0.15500000E+01 0.0000E+00 0.9000E+01
       21  1    1    2  503  501 0.39876872E+01 -.18912590E+02 -.14793639E+04 0.14794903E+04 0.75000000E+00 0.0000E+00 0.9000E+01
#aMCatNLO 2  0  0  2  2 0.32547327D+02 0.00000000D+00  -5  6  0 0.00000000D+00 0.00000000D+00 0.00000000D+00 0.00000000D+00 0.00000000D+00
  <mgrwgt>
 0.4634367433D-03    1    2    0
 0.550651642180515D+03 0.000000000000000D+00 0.000000000000000D+00 0.550651642180515D+03
 0.550651642180515D+03 0.000000000000000D+00 0.000000000000000D+00 -.550651642180515D+03
 0.553974839434908D+03 0.112708617028211D+03 -.511704208914718D+03 -.129300784813871D+03
 0.934058598530411D+02 -.480887480407350D+02 0.799134022723882D+02 0.509657767645214D+01
 0.453922585073080D+03 -.646198689874763D+02 0.431790806642330D+03 0.124204207137419D+03
 0.000000000000000D+00 0.000000000000000D+00 -.000000000000000D+00 -.000000000000000D+00
 0.550968278174193D+03 0.000000000000000D+00 0.000000000000000D+00 0.550968278174193D+03
 0.953592981836448D+03 0.000000000000000D+00 0.000000000000000D+00 -.953592981836448D+03
 0.544864591963583D+03 0.110719387232763D+03 -.502269795939354D+03 -.129300784813871D+03
 0.949667140301743D+02 -.484297590437138D+02 0.815307310689938D+02 0.509657767645214D+01
 0.461641576953740D+03 -.662773154338882D+02 0.439651655246034D+03 0.124204207137419D+03
 0.403088377063144D+03 0.398768724483919D+01 -.189125903756739D+02 -.402624703662256D+03
0.240792830342D-03 0.000000000000D+00 0.000000000000D+00 0.227326718324D-04 0.439921374727D-06  6 -2 2 25 4 -4 21 2 0.23081857D-01 0.53875608D+00 0.29597829D+06 0.29597829D+06 0.29597829D+06 0.10849858D+01  1  2  1  2  6  2        2 0.463436743339D-03 0.100000000000D+01
  </mgrwgt>
  </event>
  <event>
  7     66 0.25488787E-05 0.28277377E+02 0.75467711E-02 0.95337408E-01
       -2 -1    0    0    0  501 0.00000000E+00 0.00000000E+00 0.29909390E+03 0.29909408E+03 0.32000000E+00 0.0000E+00 0.9000E+01
        2 -1    0    0  503    0 0.00000000E+00 0.00000000E+00 -.81141298E+03 0.81141305E+03 0.32000000E+00 0.0000E+00 0.9000E+01
       23  2    1    2    0    0 -.44163737E+03 -.80345115E+02 -.23666590E+03 0.51590971E+03 0.93022454E+02 0.0000E+00 0.0000E+00
       25  1    1    2    0    0 0.44915808E+03 0.68577481E+02 -.19048201E+03 0.50828560E+03 0.12500000E+03 0.0000E+00 0.9000E+01
        4  1    3    3  502    0 -.39452525E+03 -.48428625E+02 -.18269161E+03 0.43746329E+03 0.15500000E+01 0.0000E+00 0.9000E+01
       -4  1    3    3    0  502 -.47112123E+02 -.31916489E+02 -.53974292E+02 0.78446422E+02 0.15500000E+01 0.0000E+00 0.9000E+01
       21  1    1    2  503  501 -.75207112E+01 0.11767633E+02 -.85171168E+02 0.86311810E+02 0.75000000E+00 0.0000E+00 0.9000E+01
#aMCatNLO 2  0  0  2  1 0.82527268D+00 0.00000000D+00  -5  6  0 0.00000000D+00 0.00000000D+00 0.00000000D+00 0.00000000D+00 0.00000000D+00
  <mgrwgt>
 0.1134988410D-02    1    2    0
 0.465383084288856D+03 0.000000000000000D+00 0.000000000000000D+00 0.465383084288856D+03
 0.465383084288856D+03 0.000000000000000D+00 0.000000000000000D+00 -.465383084288856D+03
 0.469128291711762D+03 0.445356735571531D+03 0.745254395567952D+02 0.236577899291560D+02
 0.400203954730146D+03 -.397844715453799D+03 -.433903082119777D+02 -.262526958609286D+00
 0.614339221358025D+02 -.475120201177319D+02 -.311351313448176D+02 -.233952629705467D+02
 0.000000000000000D+00 -.000000000000000D+00 0.000000000000000D+00 -.000000000000000D+00
 0.466322157523219D+03 0.000000000000000D+00 0.000000000000000D+00 0.466322157523219D+03
 0.520426038124807D+03 0.000000000000000D+00 0.000000000000000D+00 -.520426038124807D+03
 0.471837415293308D+03 0.449158084047835D+03 0.685774815870010D+02 0.236577899291560D+02
 0.397582946494444D+03 -.394621786075174D+03 -.484332156442149D+02 -.262526958609286D+00
 0.614505738722111D+02 -.470155867321325D+02 -.319118990973018D+02 -.233952629705467D+02
 0.558772599880627D+02 -.752071124052862D+01 0.117676331545156D+02 -.541038806015880D+02
0.500500784586D-04 0.000000000000D+00 0.000000000000D+00 0.419575060469D-05 0.138334246521D-06  6 -2 2 25 4 -4 21 2 0.46014217D-01 0.12483211D+00 0.22071921D+06 0.22071921D+06 0.22071921D+06 0.10945525D+01  1  2  1  2  6  2        2 0.113498841016D-02 0.100000000000D+01
  </mgrwgt>
  </event>
  <event>
  7     66 0.25488787E-05 0.32008495E+03 0.75467711E-02 0.91429530E-01
       21 -1    0    0  503  501 0.00000000E+00 0.00000000E+00 0.44858889E+03 0.44858952E+03 0.75000000E+00 0.0000E+00 0.9000E+01
        2 -1    0    0  501    0 0.00000000E+00 0.00000000E+00 -.11370971E+04 0.11370972E+04 0.32000000E+00 0.0000E+00 0.9000E+01
       23  2    1    2    0    0 -.35180993E+03 0.89472279E+02 0.10579877E+02 0.37401935E+03 0.89459615E+02 0.0000E+00 0.0000E+00
       25  1    1    2    0    0 0.39849142E+03 -.44304444E+03 -.30781386E+03 0.68224494E+03 0.12500000E+03 0.0000E+00 0.9000E+01
        4  1    3    3  502    0 -.22515564E+03 0.13147686E+02 0.15289394E+02 0.22606214E+03 0.15500000E+01 0.0000E+00 0.9000E+01
        2  1    1    2  503    0 -.46681485E+02 0.35357216E+03 -.39127425E+03 0.52942239E+03 0.32000000E+00 0.0000E+00 0.9000E+01
       -4  1    3    3    0  502 -.12665429E+03 0.76324594E+02 -.47095172E+01 0.14795721E+03 0.15500000E+01 0.0000E+00 0.9000E+01
#aMCatNLO 2  0  0  1  2 0.64264832D+01 0.00000000D+00  -5  6  0 0.00000000D+00 0.00000000D+00 0.00000000D+00 0.00000000D+00 0.00000000D+00
  <mgrwgt>
 0.2432793002D-04    1    2    0
 0.474382167987448D+03 0.000000000000000D+00 0.000000000000000D+00 0.474382167987448D+03
 0.474382167987448D+03 0.000000000000000D+00 0.000000000000000D+00 -.474382167987448D+03
 0.478398959794852D+03 0.372345166171084D+03 -.245009058378465D+03 -.120707097033779D+03
 0.272466384572447D+03 -.237378283820411D+03 0.105480602387468D+03 0.822394285755577D+02
 0.000000000000000D+00 -.000000000000000D+00 0.000000000000000D+00 -.000000000000000D+00
 0.197898991607597D+03 -.134966882350673D+03 0.139528455990997D+03 0.384676684582210D+02
 0.599029339229227D+03 0.000000000000000D+00 0.000000000000000D+00 0.599029339229227D+03
 0.851526864001539D+03 0.000000000000000D+00 0.000000000000000D+00 -.851526864001539D+03
 0.620708455710220D+03 0.398491415171431D+03 -.443044439927323D+03 -.120707097033779D+03
 0.240091805407753D+03 -.225185231646132D+03 0.131287036678360D+02 0.822394285755577D+02
 0.436975323915745D+03 -.466814852668714D+02 0.353572160426135D+03 -.252497524772312D+03
 0.152780618197047D+03 -.126624698258427D+03 0.763435758333519D+02 0.384676684582210D+02
0.433916850121D-06 0.000000000000D+00 0.000000000000D+00 0.107595662377D-04 0.361651231398D-10  6 21 2 25 4 2 -4 2 0.69013721D-01 0.17493805D+00 0.44818021D+06 0.44818021D+06 0.44818021D+06 0.10718850D+01  1  2  1  5  5  1       -2 0.243279300171D-04 0.100000000000D+01
  </mgrwgt>
  </event>
  <event>
  7     66 0.25488787E-05 0.35044893E+02 0.75467711E-02 0.84398209E-01
       -2 -1    0    0    0  503 0.00000000E+00 0.00000000E+00 0.60090470E+03 0.60090478E+03 0.32000000E+00 0.0000E+00 0.9000E+01
        2 -1    0    0  501    0 0.00000000E+00 0.00000000E+00 -.34625455E+04 0.34625455E+04 0.32000000E+00 0.0000E+00 0.9000E+01
       23  2    1    2    0    0 0.13350757E+04 0.26438284E+03 -.11753808E+04 0.18005961E+04 0.91110648E+02 0.0000E+00 0.0000E+00
       25  1    1    2    0    0 -.13297073E+04 -.28913611E+03 -.17346401E+04 0.22082397E+04 0.12500000E+03 0.0000E+00 0.9000E+01
        4  1    3    3  502    0 0.28130184E+03 0.83448168E+02 -.21990654E+03 0.36668189E+03 0.15500000E+01 0.0000E+00 0.9000E+01
       -4  1    3    3    0  502 0.10537738E+04 0.18093467E+03 -.95547425E+03 0.14339142E+04 0.15500000E+01 0.0000E+00 0.9000E+01
       21  1    1    2  501  503 -.53683882E+01 0.24753275E+02 0.48380102E+02 0.54614476E+02 0.75000000E+00 0.0000E+00 0.9000E+01
#aMCatNLO 2  0  0  1  2 0.64264832D+01 0.00000000D+00  -5  6  0 0.00000000D+00 0.00000000D+00 0.00000000D+00 0.00000000D+00 0.00000000D+00
  <mgrwgt>
 0.3680458362D-04    1    2    0
 0.137857729524659D+04 0.000000000000000D+00 0.000000000000000D+00 0.137857729524659D+04
 0.137857729524659D+04 0.000000000000000D+00 0.000000000000000D+00 -.137857729524659D+04
 0.137990544887486D+04 -.133239395316681D+04 -.276748041093447D+03 -.191444308220421D+03
 0.301024687525313D+03 0.280492183498854D+03 0.861214590400913D+02 0.672539351158283D+02
 0.107622445409300D+04 0.105190176966795D+04 0.190626582053355D+03 0.124190373104592D+03
 0.000000000000000D+00 -.000000000000000D+00 0.000000000000000D+00 0.000000000000000D+00
 0.150785712269317D+04 0.000000000000000D+00 0.000000000000000D+00 0.150785712269317D+04
 0.137987663489675D+04 0.000000000000000D+00 0.000000000000000D+00 -.137987663489675D+04
 0.137985400070494D+04 -.132970727982424D+04 -.289136109979136D+03 -.191444308220421D+03
 0.300810344737950D+03 0.281078080265346D+03 0.834199287169925D+02 0.672539351158283D+02
 0.107660658431135D+04 0.105399758775196D+04 0.180962906761995D+03 0.124190373104592D+03
 0.130462827835670D+03 -.536838819306768D+01 0.247532745001481D+02 0.127980487796416D+03
0.365703685270D-03 0.000000000000D+00 0.000000000000D+00 0.230699205586D-04 0.204213185991D-06  6 -2 2 25 4 -4 21 2 0.92446812D-01 0.53269890D+00 0.18967528D+07 0.18967528D+07 0.18967528D+07 0.10298442D+01  1  2  1  1  6  1       -2 0.368045836150D-04 0.100000000000D+01
  </mgrwgt>
  </event>
  <event>
  7     66 0.25488787E-05 0.46710046E+02 0.75467711E-02 0.95152665E-01
       -2 -1    0    0    0  503 0.00000000E+00 0.00000000E+00 0.58100390E+03 0.58100399E+03 0.32000000E+00 0.0000E+00 0.9000E+01
        2 -1    0    0  501    0 0.00000000E+00 0.00000000E+00 -.56888544E+03 0.56888553E+03 0.32000000E+00 0.0000E+00 0.9000E+01
       23  2    1    2    0    0 0.15996161E+03 0.38181412E+03 0.73262917E+02 0.43019409E+03 0.91267511E+02 0.0000E+00 0.0000E+00
       25  1    1    2    0    0 -.11822648E+03 -.43495240E+03 -.24199159E+03 0.52663651E+03 0.12500000E+03 0.0000E+00 0.9000E+01
        4  1    3    3  502    0 0.27239528E+01 0.72315666E+02 0.36598751E+02 0.81110089E+02 0.15500000E+01 0.0000E+00 0.9000E+01
       -4  1    3    3    0  502 0.15723766E+03 0.30949846E+03 0.36664166E+02 0.34908400E+03 0.15500000E+01 0.0000E+00 0.9000E+01
       21  1    1    2  501  503 -.41735131E+02 0.53138275E+02 0.18084713E+03 0.19305892E+03 0.75000000E+00 0.0000E+00 0.9000E+01
#aMCatNLO 2  0  0  1  2 0.64264832D+01 0.00000000D+00  -5  6  0 0.00000000D+00 0.00000000D+00 0.00000000D+00 0.00000000D+00 0.00000000D+00
  <mgrwgt>
 0.2195859814D-03    1    2    0
 0.469704679116994D+03 0.000000000000000D+00 0.000000000000000D+00 0.469704679116994D+03
 0.469704679116994D+03 0.000000000000000D+00 0.000000000000000D+00 -.469704679116994D+03
 0.473587566647694D+03 -.139640528870560D+03 -.407687465769674D+03 -.151497974357201D+03
 0.930766987746559D+02 -.135731795778236D+01 0.773867897451248D+02 0.516983008975476D+02
 0.372745092811638D+03 0.140997846828342D+03 0.330300676024549D+03 0.997996734596537D+02
 0.000000000000000D+00 -.000000000000000D+00 0.000000000000000D+00 0.000000000000000D+00
 0.694338985180600D+03 0.000000000000000D+00 0.000000000000000D+00 0.694338985180600D+03
 0.476026732036799D+03 0.000000000000000D+00 0.000000000000000D+00 -.476026732036799D+03
 0.491668308380860D+03 -.118226482128192D+03 -.434952397573980D+03 -.151497974357201D+03
 0.888794174772892D+02 0.267934929209432D+01 0.722471980271889D+02 0.516983008975476D+02
 0.361288480581737D+03 0.157282263901326D+03 0.309566924655204D+03 0.997996734596537D+02
 0.228529510777512D+03 -.417351310652280D+02 0.531382748915878D+02 0.218312253143801D+03
0.257198602642D-04 0.000000000000D+00 0.000000000000D+00 0.166898595944D-04 0.246213790293D-07  6 -2 2 25 4 -4 21 2 0.89385115D-01 0.87520739D-01 0.22793087D+06 0.22793087D+06 0.22793087D+06 0.10934915D+01  1  2  1  1  6  1       -2 0.219585981396D-03 0.100000000000D+01
  </mgrwgt>
  </event>
  <event>
  7     66 0.25488787E-05 0.95793397E+02 0.75467711E-02 0.92137426E-01
       21 -1    0    0  503  501 0.00000000E+00 0.00000000E+00 0.27215895E+03 0.27215999E+03 0.75000000E+00 0.0000E+00 0.9000E+01
        2 -1    0    0  501    0 0.00000000E+00 0.00000000E+00 -.21083898E+04 0.21083898E+04 0.32000000E+00 0.0000E+00 0.9000E+01
       23  2    1    2    0    0 -.15121072E+03 -.48954437E+03 -.10403172E+04 0.11635415E+04 0.95134130E+02 0.0000E+00 0.0000E+00
       25  1    1    2    0    0 0.26520842E+03 0.53731876E+03 -.87677663E+03 0.10693031E+04 0.12500000E+03 0.0000E+00 0.9000E+01
        4  1    3    3  502    0 -.86241123E+01 -.13138074E+03 -.33110975E+03 0.35633039E+03 0.15500000E+01 0.0000E+00 0.9000E+01
        2  1    1    2  503    0 -.11399770E+03 -.47774393E+02 0.80863059E+02 0.14770513E+03 0.32000000E+00 0.0000E+00 0.9000E+01
       -4  1    3    3    0  502 -.14258661E+03 -.35816363E+03 -.70920749E+03 0.80721112E+03 0.15500000E+01 0.0000E+00 0.9000E+01
#aMCatNLO 2  0  0  1  1 0.40441490D+02 0.00000000D+00  -5  6  0 0.00000000D+00 0.00000000D+00 0.00000000D+00 0.00000000D+00 0.00000000D+00
  <mgrwgt>
 0.3881949531D-03    1    2    0
 0.569005371561951D+03 0.000000000000000D+00 0.000000000000000D+00 0.569005371561951D+03
 0.569005371561951D+03 0.000000000000000D+00 0.000000000000000D+00 -.569005371561951D+03
 0.571893964899695D+03 0.205816299228848D+03 0.512428585716262D+03 0.805872359698855D+02
 0.147661047031579D+03 -.229772465557790D+02 -.137350544784837D+03 -.490984602455682D+02
 0.000000000000000D+00 -.000000000000000D+00 -.000000000000000D+00 0.000000000000000D+00
 0.418455731192629D+03 -.182839052673069D+03 -.375078040931425D+03 -.314887757243172D+02
 0.986670276580392D+03 0.000000000000000D+00 0.000000000000000D+00 0.986670276580392D+03
 0.581570471825457D+03 0.000000000000000D+00 0.000000000000000D+00 -.581570471825457D+03
 0.617386638440690D+03 0.265208424309604D+03 0.537318760512832D+03 0.805872359698855D+02
 0.140461713674220D+03 -.858852870871439D+01 -.131320491106424D+03 -.490984602455682D+02
 0.423537153545453D+03 -.113997701723549D+03 -.477743929594755D+02 0.405099804754935D+03
 0.386855242745487D+03 -.142622193877341D+03 -.358223876446932D+03 -.314887757243172D+02
0.781919446214D-05 0.000000000000D+00 0.000000000000D+00 0.262904310276D-05 0.780612421860D-10  6 21 2 25 4 2 -4 2 0.41870685D-01 0.32436771D+00 0.39242759D+06 0.39242759D+06 0.39242759D+06 0.10760265D+01  1  2  1  5  5  1       -2 0.388194953125D-03 0.100000000000D+01
  </mgrwgt>
  </event>
  <event>
  6     66 -.25488787E-05 0.18821266E+02 0.75467711E-02 0.94064824E-01
       -2 -1    0    0    0  501 0.00000000E+00 0.00000000E+00 0.21397522E+03 0.21397546E+03 0.32000000E+00 0.0000E+00 0.9000E+01
        2 -1    0    0  501    0 -.00000000E+00 -.00000000E+00 -.22339258E+04 0.22339258E+04 0.32000000E+00 0.0000E+00 0.9000E+01
       23  2    1    2    0    0 0.41950432E+02 -.51481308E+03 -.17961533E+04 0.18712709E+04 0.93251275E+02 0.0000E+00 0.0000E+00
       25  1    1    2    0    0 -.41950432E+02 0.51481308E+03 -.22379724E+03 0.57663034E+03 0.12500000E+03 0.0000E+00 0.9000E+01
        4  1    3    3  502    0 -.87159031E+01 -.18946801E+02 -.14565530E+03 0.14714896E+03 0.15500000E+01 0.0000E+00 0.9000E+01
       -4  1    3    3    0  502 0.50666335E+02 -.49586628E+03 -.16504980E+04 0.17241220E+04 0.15500000E+01 0.0000E+00 0.9000E+01
#aMCatNLO 1  0  0  4  5 0.29259618D+01 0.00000000D+00  -5  6  0 0.00000000D+00 0.00000000D+00 0.00000000D+00 0.00000000D+00 0.00000000D+00
  <mgrwgt>
 -.9978360023D-02    8    2    0
 0.691379120497249D+03 0.000000000000000D+00 0.000000000000000D+00 0.691379120497249D+03
 0.691379120497249D+03 -.000000000000000D+00 -.000000000000000D+00 -.691379120497249D+03
 0.693884692340114D+03 -.419504322375221D+02 0.514813078337571D+03 0.446159861340768D+03
 0.475590944661701D+02 -.873232269916446D+01 -.188149273118871D+02 -.427973424054363D+02
 0.641314454188213D+03 0.506827549366866D+02 -.495998151025684D+03 -.403362518935332D+03
 0.000000000000000D+00 0.000000000000000D+00 -.000000000000000D+00 0.000000000000000D+00
 0.691379120497249D+03 0.000000000000000D+00 0.000000000000000D+00 0.691379120497249D+03
 0.691379120497249D+03 -.000000000000000D+00 -.000000000000000D+00 -.691379120497249D+03
 0.693652402783759D+03 -.419999698580628D+02 0.514706343078032D+03 0.445917076164216D+03
 0.372343648098613D+02 -.792582913315582D+01 -.121304294874243D+02 -.342991521148334D+02
 0.641528349555117D+03 0.506369550944708D+02 -.496096832754690D+03 -.403586985162354D+03
 0.103431238457605D+02 -.711156103252253D+00 -.647908083591821D+01 -.803093888702832D+01
0.251986952828D-05 0.000000000000D+00 0.000000000000D+00 0.136742090987D-05 0.000000000000D+00  6 -2 2 25 4 -4 21 0 0.32919285D-01 0.34368091D+00 0.27602047D+06 0.27602047D+06 0.27602047D+06 0.10872388D+01  1  2  2  3  6  4        4 0.136497942346D-04 0.100000000000D+01
0.606292559815D-06 0.000000000000D+00 -.967696248546D-08 0.136742090987D-05 0.000000000000D+00  6 -2 2 25 4 -4 21 2 0.32919285D-01 0.34368091D+00 0.27602047D+06 0.27602047D+06 0.27602047D+06 0.10872388D+01  1  2  3  3  6  4        4 0.388222034276D-05 0.100000000000D+01
-.705871257901D-06 0.000000000000D+00 0.000000000000D+00 0.136742090987D-05 0.000000000000D+00  6 -2 2 25 4 -4 21 2 0.32919285D-01 0.34368091D+00 0.27602047D+06 0.27602047D+06 0.27602047D+06 0.10872388D+01  1  2 15  3  6  4        4 -.451984394733D-05 0.100000000000D+01
0.538008737442D-07 0.000000000000D+00 0.000000000000D+00 0.136742090987D-05 0.000000000000D+00  6 -2 2 25 4 -4 21 2 0.32919285D-01 0.34368091D+00 0.27615690D+06 0.27615690D+06 0.27615690D+06 0.10872228D+01  1  2 12  3  6  4        4 0.344479670869D-06 0.100000000000D+01
-.178450084245D-02 0.000000000000D+00 0.000000000000D+00 0.136742090987D-05 0.000000000000D+00  6 -2 2 25 4 -4 21 2 0.32919285D-01 0.34368091D+00 0.27602047D+06 0.27602047D+06 0.27602047D+06 0.10872388D+01  1  2  4  3  6  4        4 -.114265388221D-01 0.100000000000D+01
-.129091609639D-03 0.000000000000D+00 0.000000000000D+00 0.136742090987D-05 0.000000000000D+00  6 -2 2 25 4 -4 21 2 0.32919285D-01 0.34368091D+00 0.27602047D+06 0.27602047D+06 0.27602047D+06 0.10872388D+01  1  2  5  3  6  4        4 -.826601060671D-03 0.100000000000D+01
0.229398889555D-03 0.000000000000D+00 -.000000000000D+00 0.136742090987D-05 0.000000000000D+00  6 -2 2 25 4 -4 21 2 0.32919285D-01 0.34368091D+00 0.27602047D+06 0.27602047D+06 0.27602047D+06 0.10872388D+01  1  2  6  3  6  4        4 0.146888992982D-02 0.100000000000D+01
0.123777936689D-03 0.000000000000D+00 0.000000000000D+00 0.136742090987D-05 0.634544136311D-06  6 -2 2 25 4 -4 21 2 0.32919285D-01 0.34368091D+00 0.27615690D+06 0.27615690D+06 0.27615690D+06 0.10872228D+01  1  2 11  3  6  4        4 0.792533279182D-03 0.100000000000D+01
  </mgrwgt>
  </event>
  <event>
  7     66 0.25488787E-05 0.65293927E+02 0.75467711E-02 0.94461852E-01
       -2 -1    0    0    0  501 0.00000000E+00 0.00000000E+00 0.13594305E+03 0.13594343E+03 0.32000000E+00 0.0000E+00 0.9000E+01
        2 -1    0    0  503    0 0.00000000E+00 0.00000000E+00 -.26294364E+04 0.26294364E+04 0.32000000E+00 0.0000E+00 0.9000E+01
       23  2    1    2    0    0 0.19986364E+02 -.47999492E+03 -.52308981E+03 0.71607473E+03 0.91353657E+02 0.0000E+00 0.0000E+00
       25  1    1    2    0    0 -.30967404E+02 0.49407297E+03 -.16224439E+04 0.17008869E+04 0.12500000E+03 0.0000E+00 0.9000E+01
        4  1    3    3  502    0 -.24225786E+02 -.29228276E+03 -.27700059E+03 0.40342017E+03 0.15500000E+01 0.0000E+00 0.9000E+01
       -4  1    3    3    0  502 0.44212151E+02 -.18771216E+03 -.24608922E+03 0.31265456E+03 0.15500000E+01 0.0000E+00 0.9000E+01
       21  1    1    2  503  501 0.10981040E+02 -.14078055E+02 -.34795966E+03 0.34841823E+03 0.75000000E+00 0.0000E+00 0.9000E+01
#aMCatNLO 2  0  0  2  1 0.32926450D+02 0.00000000D+00  -5  6  0 0.00000000D+00 0.00000000D+00 0.00000000D+00 0.00000000D+00 0.00000000D+00
  <mgrwgt>
 0.4259350515D-02    1    2    0
 0.556342945809092D+03 0.000000000000000D+00 0.000000000000000D+00 0.556342945809092D+03
 0.556342945809092D+03 0.000000000000000D+00 0.000000000000000D+00 -.556342945809092D+03
 0.559614088921823D+03 -.254129644472362D+02 0.486951999410390D+03 -.244488977313966D+03
 0.345677088481951D+03 -.208515404845031D+02 -.296664067168763D+03 0.176205261021540D+03
 0.207394714214411D+03 0.462645049317392D+02 -.190287932241627D+03 0.682837162924263D+02
 0.000000000000000D+00 0.000000000000000D+00 -.000000000000000D+00 -.000000000000000D+00
 0.557352974105577D+03 0.000000000000000D+00 0.000000000000000D+00 0.557352974105577D+03
 0.641338752790620D+03 0.000000000000000D+00 0.000000000000000D+00 -.641338752790620D+03
 0.566097998512700D+03 -.309674043071046D+02 0.494072974126835D+03 -.244488977313966D+03
 0.342173882592117D+03 -.242455049750951D+02 -.292312892984551D+03 0.176205261021540D+03
 0.204557246957247D+03 0.442318693946211D+02 -.187682026581878D+03 0.682837162924263D+02
 0.858625988341336D+02 0.109810398875786D+02 -.140780545604063D+02 -.839857786850428D+02
0.505270365950D-03 0.000000000000D+00 0.000000000000D+00 0.252349989497D-04 0.507008849829D-06  6 -2 2 25 4 -4 21 2 0.20914285D-01 0.40452752D+00 0.25734053D+06 0.25734053D+06 0.25734053D+06 0.10895149D+01  1  2  1  2  6  2        2 0.425935051543D-02 0.100000000000D+01
  </mgrwgt>
  </event>
</LesHouchesEvents>
