<event>
 5    0  0.3120399E-003  0.1985021E+03  0.7546771E-02  0.1151009E+00
         21   -1    0    0  503  501  0.00000000000E+00  0.00000000000E+00  0.84984828775E+03  0.84984828775E+03  0.00000000000E+00 0. -1.
         21   -1    0    0  501  502 -0.00000000000E+00 -0.00000000000E+00 -0.75174139990E+02  0.75174139990E+02  0.00000000000E+00 0. -1.
         25    1    1    2    0    0 -0.16430721842E+03  0.11576018819E+03  0.46119592493E+03  0.51838592223E+03  0.12500000000E+03 0.  0.
         21    1    1    2  503  504  0.81739730152E+02 -0.62427162067E+02  0.28694890766E+03  0.30482488359E+03  0.00000000000E+00 0. -1.
         21    1    1    2  504  502  0.82567488265E+02 -0.53333026128E+02  0.26529315171E+02  0.10181162192E+03  0.00000000000E+00 0. -1.
<mgrwt>
<rscale>  4 0.19850206E+03</rscale>
<asrwt>0</asrwt>
<pdfrwt beam="1">  1       21 0.13074588E+00 0.19850206E+03</pdfrwt>
<pdfrwt beam="2">  1       21 0.11565253E-01 0.19850206E+03</pdfrwt>
<totfact> 0.26609332E+04</totfact>
</mgrwt>
</event>
<event>
 5    0  0.3120399E-003  0.5266299E+03  0.7546771E-02  0.1007053E+00
         21   -1    0    0  504  501  0.00000000000E+00  0.00000000000E+00  0.21915923558E+03  0.21915923558E+03  0.00000000000E+00 0.  1.
         21   -1    0    0  501  502 -0.00000000000E+00 -0.00000000000E+00 -0.13984449220E+04  0.13984449220E+04  0.00000000000E+00 0.  1.
         25    1    1    2    0    0  0.83083368006E+02 -0.36569101568E+03 -0.62205817375E+03  0.73703062116E+03  0.12500000000E+03 0.  0.
         21    1    1    2  503  502 -0.16252048171E+03 -0.10001153843E+03 -0.25966308671E+03  0.32224235196E+03  0.00000000000E+00 0. -1.
         21    1    1    2  504  503  0.79437113706E+02  0.46570255411E+03 -0.29756442594E+03  0.55833118445E+03  0.00000000000E+00 0.  1.
<mgrwt>
<rscale>  4 0.52662993E+03</rscale>
<asrwt>0</asrwt>
<pdfrwt beam="1">  1       21 0.33716805E-01 0.52662993E+03</pdfrwt>
<pdfrwt beam="2">  1       21 0.21514537E+00 0.52662993E+03</pdfrwt>
<totfact> 0.72935505E+02</totfact>
</mgrwt>
</event>
<event>
 5    0  0.3120399E-003  0.2851527E+03  0.7546771E-02  0.1092907E+00
         21   -1    0    0  504  501  0.00000000000E+00  0.00000000000E+00  0.26016806039E+03  0.26016806039E+03  0.00000000000E+00 0. -1.
         21   -1    0    0  501  502 -0.00000000000E+00 -0.00000000000E+00 -0.38821214878E+03  0.38821214878E+03  0.00000000000E+00 0. -1.
         25    1    1    2    0    0  0.62134638255E+02  0.27026114862E+03 -0.12445168569E+03  0.32865639169E+03  0.12500000000E+03 0.  0.
         21    1    1    2  503  502 -0.78783953855E+02 -0.73623205280E+02 -0.47060052346E+02  0.11765175845E+03  0.00000000000E+00 0.  1.
         21    1    1    2  504  503  0.16649315599E+02 -0.19663794334E+03  0.43467649644E+02  0.20207205902E+03  0.00000000000E+00 0. -1.
<mgrwt>
<rscale>  4 0.28515270E+03</rscale>
<asrwt>0</asrwt>
<pdfrwt beam="1">  1       21 0.40025856E-01 0.28515270E+03</pdfrwt>
<pdfrwt beam="2">  1       21 0.59724945E-01 0.28515270E+03</pdfrwt>
<totfact> 0.14978625E+04</totfact>
</mgrwt>
</event>
<event>
 5    0  0.3120399E-003  0.7518052E+03  0.7546771E-02  0.9632523E-01
         21   -1    0    0  502  501  0.00000000000E+00  0.00000000000E+00  0.46505249838E+03  0.46505249838E+03  0.00000000000E+00 0. -1.
         21   -1    0    0  504  502 -0.00000000000E+00 -0.00000000000E+00 -0.12271689910E+04  0.12271689910E+04  0.00000000000E+00 0. -1.
         25    1    1    2    0    0 -0.32430064172E+03 -0.40324420686E+03 -0.16118770381E+03  0.55622232285E+03  0.12500000000E+03 0.  0.
         21    1    1    2  503  501 -0.26483783093E+03  0.34542297474E+02 -0.19981946626E+03  0.33355669099E+03  0.00000000000E+00 0. -1.
         21    1    1    2  504  503  0.58913847264E+03  0.36870190938E+03 -0.40110932258E+03  0.80244247557E+03  0.00000000000E+00 0. -1.
<mgrwt>
<rscale>  4 0.75180516E+03</rscale>
<asrwt>0</asrwt>
<pdfrwt beam="1">  1       21 0.71546539E-01 0.75180516E+03</pdfrwt>
<pdfrwt beam="2">  1       21 0.18879523E+00 0.75180516E+03</pdfrwt>
<totfact> 0.20243926E+02</totfact>
</mgrwt>
</event>
<event>
 5    0  0.3120399E-003  0.7602301E+03  0.7546771E-02  0.9619436E-01
         21   -1    0    0  503  501  0.00000000000E+00  0.00000000000E+00  0.62164496629E+03  0.62164496629E+03  0.00000000000E+00 0.  1.
         21   -1    0    0  501  502 -0.00000000000E+00 -0.00000000000E+00 -0.94317165783E+03  0.94317165783E+03  0.00000000000E+00 0.  1.
         25    1    1    2    0    0  0.19678932136E+03  0.50089572008E+03 -0.13110932638E+03  0.56783555265E+03  0.12500000000E+03 0.  0.
         21    1    1    2  503  504  0.24310020799E+03  0.56053130879E+02  0.35915163429E+02  0.25205071627E+03  0.00000000000E+00 0.  1.
         21    1    1    2  504  502 -0.43988952935E+03 -0.55694885095E+03 -0.22633252859E+03  0.74493035520E+03  0.00000000000E+00 0.  1.
<mgrwt>
<rscale>  4 0.76023012E+03</rscale>
<asrwt>0</asrwt>
<pdfrwt beam="1">  1       21 0.95637687E-01 0.76023012E+03</pdfrwt>
<pdfrwt beam="2">  1       21 0.14510333E+00 0.76023012E+03</pdfrwt>
<totfact> 0.21730332E+02</totfact>
</mgrwt>
</event>
<event>
 5    0  0.3120399E-003  0.2110154E+03  0.7546771E-02  0.1140764E+00
         21   -1    0    0  502  501  0.00000000000E+00  0.00000000000E+00  0.82197265085E+03  0.82197265085E+03  0.00000000000E+00 0. -1.
         21   -1    0    0  504  502 -0.00000000000E+00 -0.00000000000E+00 -0.95726405655E+02  0.95726405655E+02  0.00000000000E+00 0. -1.
         25    1    1    2    0    0 -0.18280121780E+03 -0.13348357090E+03  0.36215331376E+03  0.44498783309E+03  0.12500000000E+03 0.  0.
         21    1    1    2  503  501  0.84250385082E+02  0.75752668506E+02  0.33670796969E+03  0.35525885073E+03  0.00000000000E+00 0. -1.
         21    1    1    2  504  503  0.98550832713E+02  0.57730902396E+02  0.27384961748E+02  0.11745237269E+03  0.00000000000E+00 0. -1.
<mgrwt>
<rscale>  4 0.21101539E+03</rscale>
<asrwt>0</asrwt>
<pdfrwt beam="1">  1       21 0.12645733E+00 0.21101539E+03</pdfrwt>
<pdfrwt beam="2">  1       21 0.14727140E-01 0.21101539E+03</pdfrwt>
<totfact> 0.18573382E+04</totfact>
</mgrwt>
</event>
<event>
 5    0  0.3120399E-003  0.5450805E+03  0.7546771E-02  0.1002639E+00
         21   -1    0    0  503  501  0.00000000000E+00  0.00000000000E+00  0.12773489843E+04  0.12773489843E+04  0.00000000000E+00 0. -1.
         21   -1    0    0  501  502 -0.00000000000E+00 -0.00000000000E+00 -0.34913669951E+03  0.34913669951E+03  0.00000000000E+00 0. -1.
         25    1    1    2    0    0 -0.35997361065E+03 -0.36854698587E+03  0.56045459703E+02  0.53307970765E+03  0.12500000000E+03 0.  0.
         21    1    1    2  503  504  0.38561459927E+03  0.30340685295E+03  0.89423485489E+03  0.10200050555E+04  0.00000000000E+00 0. -1.
         21    1    1    2  504  502 -0.25640988621E+02  0.65140132922E+02 -0.22068029786E+02  0.73400920656E+02  0.00000000000E+00 0. -1.
<mgrwt>
<rscale>  4 0.54508055E+03</rscale>
<asrwt>0</asrwt>
<pdfrwt beam="1">  1       21 0.19651523E+00 0.54508055E+03</pdfrwt>
<pdfrwt beam="2">  1       21 0.53713339E-01 0.54508055E+03</pdfrwt>
<totfact> 0.36401389E+02</totfact>
</mgrwt>
</event>
<event>
 5    0  0.3120399E-003  0.2065962E+03  0.7546771E-02  0.1144290E+00
         21   -1    0    0  502  501  0.00000000000E+00  0.00000000000E+00  0.10121398358E+04  0.10121398358E+04  0.00000000000E+00 0. -1.
         21   -1    0    0  504  502 -0.00000000000E+00 -0.00000000000E+00 -0.10345550484E+03  0.10345550484E+03  0.00000000000E+00 0. -1.
         25    1    1    2    0    0  0.36032219367E+02 -0.22965784926E+03  0.44741273408E+03  0.51946530508E+03  0.12500000000E+03 0.  0.
         21    1    1    2  503  501 -0.85815528460E+02  0.28817432553E+01  0.72275998242E+01  0.86167555195E+02  0.00000000000E+00 0. -1.
         21    1    1    2  504  503  0.49783309093E+02  0.22677610601E+03  0.45404399704E+03  0.50996248035E+03  0.00000000000E+00 0. -1.
<mgrwt>
<rscale>  4 0.20659619E+03</rscale>
<asrwt>0</asrwt>
<pdfrwt beam="1">  1       21 0.15571381E+00 0.20659619E+03</pdfrwt>
<pdfrwt beam="2">  1       21 0.15916232E-01 0.20659619E+03</pdfrwt>
<totfact> 0.94299841E+03</totfact>
</mgrwt>
</event>
<event>
 5    0  0.3120399E-003  0.3559083E+03  0.7546771E-02  0.1060216E+00
         21   -1    0    0  504  501  0.00000000000E+00  0.00000000000E+00  0.31397039431E+03  0.31397039431E+03  0.00000000000E+00 0.  1.
         21   -1    0    0  501  502 -0.00000000000E+00 -0.00000000000E+00 -0.51825493983E+03  0.51825493983E+03  0.00000000000E+00 0.  1.
         25    1    1    2    0    0 -0.13755974986E+03 -0.18672263625E+03  0.14294774660E+03  0.29974503487E+03  0.12500000000E+03 0.  0.
         21    1    1    2  503  502 -0.53762759570E+02 -0.66733223774E+02 -0.63903702968E+02  0.10689920825E+03  0.00000000000E+00 0. -1.
         21    1    1    2  504  503  0.19132250943E+03  0.25345586003E+03 -0.28332858915E+03  0.42558109101E+03  0.00000000000E+00 0.  1.
<mgrwt>
<rscale>  4 0.35590833E+03</rscale>
<asrwt>0</asrwt>
<pdfrwt beam="1">  1       21 0.48303138E-01 0.35590833E+03</pdfrwt>
<pdfrwt beam="2">  1       21 0.79731528E-01 0.35590833E+03</pdfrwt>
<totfact> 0.51684695E+03</totfact>
</mgrwt>
</event>
<event>
 5    0  0.3120399E-003  0.2377116E+03  0.7546771E-02  0.1121327E+00
         21   -1    0    0  503  501  0.00000000000E+00  0.00000000000E+00  0.27913541201E+03  0.27913541201E+03  0.00000000000E+00 0. -1.
         21   -1    0    0  501  502 -0.00000000000E+00 -0.00000000000E+00 -0.36424563104E+03  0.36424563104E+03  0.00000000000E+00 0. -1.
         25    1    1    2    0    0 -0.67202718356E+02  0.27785429722E+03 -0.51976188859E+01  0.31204363650E+03  0.12500000000E+03 0.  0.
         21    1    1    2  503  504 -0.42955243016E+01 -0.19133819550E+03  0.36314402121E+01  0.19142085556E+03  0.00000000000E+00 0. -1.
         21    1    1    2  504  502  0.71498242658E+02 -0.86516101720E+02 -0.83544040358E+02  0.13991655098E+03  0.00000000000E+00 0. -1.
<mgrwt>
<rscale>  4 0.23771164E+03</rscale>
<asrwt>0</asrwt>
<pdfrwt beam="1">  1       21 0.42943910E-01 0.23771164E+03</pdfrwt>
<pdfrwt beam="2">  1       21 0.56037789E-01 0.23771164E+03</pdfrwt>
<totfact> 0.15222495E+04</totfact>
</mgrwt>
</event>
<event>
 5    0  0.3120399E-003  0.4492143E+03  0.7546771E-02  0.1027957E+00
         21   -1    0    0  504  501  0.00000000000E+00  0.00000000000E+00  0.16919096197E+03  0.16919096197E+03  0.00000000000E+00 0. -1.
         21   -1    0    0  501  502 -0.00000000000E+00 -0.00000000000E+00 -0.15098436002E+04  0.15098436002E+04  0.00000000000E+00 0. -1.
         25    1    1    2    0    0 -0.70791532900E+02 -0.36810938280E+03 -0.23556849169E+03  0.46003638238E+03  0.12500000000E+03 0.  0.
         21    1    1    2  503  502  0.12757431809E+03 -0.22983296348E+01 -0.17769789483E+03  0.21876249858E+03  0.00000000000E+00 0.  1.
         21    1    1    2  504  503 -0.56782785194E+02  0.37040771243E+03 -0.92738625169E+03  0.10002356812E+04  0.00000000000E+00 0. -1.
<mgrwt>
<rscale>  4 0.44921430E+03</rscale>
<asrwt>0</asrwt>
<pdfrwt beam="1">  1       21 0.26029379E-01 0.44921430E+03</pdfrwt>
<pdfrwt beam="2">  1       21 0.23228363E+00 0.44921430E+03</pdfrwt>
<totfact> 0.98160122E+02</totfact>
</mgrwt>
</event>
<event>
 5    0  0.3120399E-003  0.6468661E+03  0.7546771E-02  0.9812677E-01
         21   -1    0    0  503  501  0.00000000000E+00  0.00000000000E+00  0.97423984166E+03  0.97423984166E+03  0.00000000000E+00 0.  1.
         21   -1    0    0  501  502 -0.00000000000E+00 -0.00000000000E+00 -0.49009715534E+03  0.49009715534E+03  0.00000000000E+00 0.  1.
         25    1    1    2    0    0  0.35877223321E+03 -0.65894390832E+02  0.43575733740E+03  0.58186686034E+03  0.12500000000E+03 0.  0.
         21    1    1    2  503  504 -0.59530430967E+03 -0.69784246603E+02 -0.25603884219E+02  0.59992717980E+03  0.00000000000E+00 0.  1.
         21    1    1    2  504  502  0.23653207646E+03  0.13567863744E+03  0.73989233143E+02  0.28254295686E+03  0.00000000000E+00 0.  1.
<mgrwt>
<rscale>  4 0.64686613E+03</rscale>
<asrwt>0</asrwt>
<pdfrwt beam="1">  1       21 0.14988305E+00 0.64686613E+03</pdfrwt>
<pdfrwt beam="2">  1       21 0.75399563E-01 0.64686613E+03</pdfrwt>
<totfact> 0.36109772E+02</totfact>
</mgrwt>
</event>
<event>
 5    0  0.3120399E-003  0.3232041E+03  0.7546771E-02  0.1074184E+00
         21   -1    0    0  504  501  0.00000000000E+00  0.00000000000E+00  0.43213966919E+03  0.43213966919E+03  0.00000000000E+00 0.  1.
         21   -1    0    0  501  502 -0.00000000000E+00 -0.00000000000E+00 -0.25254164281E+03  0.25254164281E+03  0.00000000000E+00 0.  1.
         25    1    1    2    0    0 -0.11174052592E+03 -0.24945923951E+03  0.15224764032E+03  0.33692759058E+03  0.12500000000E+03 0.  0.
         21    1    1    2  503  502  0.16229254667E+03  0.24725651417E+03  0.18094416061E+02  0.29631412790E+03  0.00000000000E+00 0.  1.
         21    1    1    2  504  503 -0.50552020746E+02  0.22027253463E+01  0.92559699987E+01  0.51439593516E+02  0.00000000000E+00 0. -1.
<mgrwt>
<rscale>  4 0.32320414E+03</rscale>
<asrwt>0</asrwt>
<pdfrwt beam="1">  1       21 0.66483026E-01 0.32320414E+03</pdfrwt>
<pdfrwt beam="2">  1       21 0.38852561E-01 0.32320414E+03</pdfrwt>
<totfact> 0.12384497E+04</totfact>
</mgrwt>
</event>
<event>
 5    0  0.3120399E-003  0.2275643E+03  0.7546771E-02  0.1128366E+00
         21   -1    0    0  503  501  0.00000000000E+00  0.00000000000E+00  0.75446859327E+03  0.75446859327E+03  0.00000000000E+00 0. -1.
         21   -1    0    0  501  502 -0.00000000000E+00 -0.00000000000E+00 -0.10182259887E+03  0.10182259887E+03  0.00000000000E+00 0. -1.
         25    1    1    2    0    0 -0.12251860994E+03  0.19512181292E+03  0.21765470359E+03  0.34070794187E+03  0.12500000000E+03 0.  0.
         21    1    1    2  503  504  0.13454620574E+03 -0.73276444909E+02  0.21835576736E+03  0.26674212265E+03  0.00000000000E+00 0. -1.
         21    1    1    2  504  502 -0.12027595801E+02 -0.12184536801E+03  0.21663552346E+03  0.24884112761E+03  0.00000000000E+00 0.  1.
<mgrwt>
<rscale>  4 0.22756430E+03</rscale>
<asrwt>0</asrwt>
<pdfrwt beam="1">  1       21 0.11607209E+00 0.22756430E+03</pdfrwt>
<pdfrwt beam="2">  1       21 0.15665016E-01 0.22756430E+03</pdfrwt>
<totfact> 0.20339284E+04</totfact>
</mgrwt>
</event>
<event>
 5    0  0.3120399E-003  0.3205068E+03  0.7546771E-02  0.1075416E+00
         21   -1    0    0  502  501  0.00000000000E+00  0.00000000000E+00  0.35325055187E+03  0.35325055187E+03  0.00000000000E+00 0.  1.
         21   -1    0    0  504  502 -0.00000000000E+00 -0.00000000000E+00 -0.47529651471E+03  0.47529651471E+03  0.00000000000E+00 0.  1.
         25    1    1    2    0    0 -0.90306596075E+02  0.23557118957E+03 -0.34864290527E+03  0.44813607536E+03  0.12500000000E+03 0.  0.
         21    1    1    2  503  501  0.44497407436E+02 -0.25274131472E+03  0.19139761643E+03  0.32014252921E+03  0.00000000000E+00 0.  1.
         21    1    1    2  504  503  0.45809188639E+02  0.17170125150E+02  0.35199326000E+02  0.60268462004E+02  0.00000000000E+00 0. -1.
<mgrwt>
<rscale>  4 0.32050680E+03</rscale>
<asrwt>0</asrwt>
<pdfrwt beam="1">  1       21 0.54346239E-01 0.32050680E+03</pdfrwt>
<pdfrwt beam="2">  1       21 0.73122540E-01 0.32050680E+03</pdfrwt>
<totfact> 0.49778819E+03</totfact>
</mgrwt>
</event>
<event>
 5    0  0.3120399E-003  0.5784004E+03  0.7546771E-02  0.9951260E-01
         21   -1    0    0  503  501  0.00000000000E+00  0.00000000000E+00  0.79200275784E+03  0.79200275784E+03  0.00000000000E+00 0.  1.
         21   -1    0    0  501  502 -0.00000000000E+00 -0.00000000000E+00 -0.49319233499E+03  0.49319233499E+03  0.00000000000E+00 0.  1.
         25    1    1    2    0    0  0.14018364084E+02 -0.45021917686E+03 -0.18566237451E+03  0.50298045593E+03  0.12500000000E+03 0.  0.
         21    1    1    2  503  504  0.13185546917E+03 -0.38944478382E+01  0.14947208699E+03  0.19935630480E+03  0.00000000000E+00 0.  1.
         21    1    1    2  504  502 -0.14587383325E+03  0.45411362470E+03  0.33500071037E+03  0.58285833211E+03  0.00000000000E+00 0.  1.
<mgrwt>
<rscale>  4 0.57840042E+03</rscale>
<asrwt>0</asrwt>
<pdfrwt beam="1">  1       21 0.12184658E+00 0.57840042E+03</pdfrwt>
<pdfrwt beam="2">  1       21 0.75875744E-01 0.57840042E+03</pdfrwt>
<totfact> 0.63077732E+02</totfact>
</mgrwt>
</event>
<event>
 5    0  0.3120399E-003  0.3049412E+03  0.7546771E-02  0.1082796E+00
         21   -1    0    0  502  501  0.00000000000E+00  0.00000000000E+00  0.62478184188E+03  0.62478184188E+03  0.00000000000E+00 0.  1.
         21   -1    0    0  503  502 -0.00000000000E+00 -0.00000000000E+00 -0.22016859645E+03  0.22016859645E+03  0.00000000000E+00 0.  1.
         25    1    1    2    0    0  0.17137236449E+03  0.21015797312E+03  0.35125153854E+03  0.46101790020E+03  0.12500000000E+03 0.  0.
         21    1    1    2  503  504 -0.28832543921E+02 -0.20562982321E+03 -0.42698169570E+02  0.21198602187E+03  0.00000000000E+00 0.  1.
         21    1    1    2  504  501 -0.14253982057E+03 -0.45281499099E+01  0.96059876460E+02  0.17194651626E+03  0.00000000000E+00 0.  1.
<mgrwt>
<rscale>  4 0.30494120E+03</rscale>
<asrwt>0</asrwt>
<pdfrwt beam="1">  1       21 0.96120283E-01 0.30494120E+03</pdfrwt>
<pdfrwt beam="2">  1       21 0.33872092E-01 0.30494120E+03</pdfrwt>
<totfact> 0.70732637E+03</totfact>
</mgrwt>
</event>
<event>
 5    0  0.3120399E-003  0.3504185E+03  0.7546771E-02  0.1062443E+00
         21   -1    0    0  503  501  0.00000000000E+00  0.00000000000E+00  0.63323526937E+03  0.63323526937E+03  0.00000000000E+00 0. -1.
         21   -1    0    0  501  502 -0.00000000000E+00 -0.00000000000E+00 -0.19579249789E+03  0.19579249789E+03  0.00000000000E+00 0. -1.
         25    1    1    2    0    0  0.25534607809E+03 -0.66943871335E+02  0.20391414609E+03  0.35621493580E+03  0.12500000000E+03 0.  0.
         21    1    1    2  503  504  0.62873497264E+02 -0.20209808931E+02 -0.41617063082E+01  0.66172749940E+02  0.00000000000E+00 0.  1.
         21    1    1    2  504  502 -0.31821957536E+03  0.87153680267E+02  0.23769033169E+03  0.40664008153E+03  0.00000000000E+00 0. -1.
<mgrwt>
<rscale>  4 0.35041854E+03</rscale>
<asrwt>0</asrwt>
<pdfrwt beam="1">  1       21 0.97420810E-01 0.35041854E+03</pdfrwt>
<pdfrwt beam="2">  1       21 0.30121923E-01 0.35041854E+03</pdfrwt>
<totfact> 0.84783672E+03</totfact>
</mgrwt>
</event>
<event>
 5    0  0.3120399E-003  0.3949077E+03  0.7546771E-02  0.1045557E+00
         21   -1    0    0  503  501  0.00000000000E+00  0.00000000000E+00  0.38658361063E+03  0.38658361063E+03  0.00000000000E+00 0.  1.
         21   -1    0    0  501  502 -0.00000000000E+00 -0.00000000000E+00 -0.65953751173E+03  0.65953751173E+03  0.00000000000E+00 0.  1.
         25    1    1    2    0    0 -0.19972696639E+03 -0.21850232663E+03 -0.21206414230E+03  0.38500691980E+03  0.12500000000E+03 0.  0.
         21    1    1    2  503  504  0.29742088128E+03  0.10912001322E+03  0.19079092619E+03  0.36982095049E+03  0.00000000000E+00 0.  1.
         21    1    1    2  504  502 -0.97693914893E+02  0.10938231342E+03 -0.25168068500E+03  0.29129325206E+03  0.00000000000E+00 0.  1.
<mgrwt>
<rscale>  4 0.39490765E+03</rscale>
<asrwt>0</asrwt>
<pdfrwt beam="1">  1       21 0.59474402E-01 0.39490765E+03</pdfrwt>
<pdfrwt beam="2">  1       21 0.10146731E+00 0.39490765E+03</pdfrwt>
<totfact> 0.18430954E+03</totfact>
</mgrwt>
</event>
<event>
 5    0  0.3120399E-003  0.3856758E+03  0.7546771E-02  0.1048856E+00
         21   -1    0    0  502  501  0.00000000000E+00  0.00000000000E+00  0.87490759084E+03  0.87490759084E+03  0.00000000000E+00 0. -1.
         21   -1    0    0  504  502 -0.00000000000E+00 -0.00000000000E+00 -0.19366791260E+03  0.19366791260E+03  0.00000000000E+00 0. -1.
         25    1    1    2    0    0 -0.12195243787E+03  0.29720780690E+03  0.25179804235E+03  0.42688655603E+03  0.12500000000E+03 0.  0.
         21    1    1    2  503  501  0.11514994657E+03 -0.32074662727E+03  0.47814873934E+03  0.58716618264E+03  0.00000000000E+00 0. -1.
         21    1    1    2  504  503  0.68024912990E+01  0.23538820369E+02 -0.48707103451E+02  0.54522764777E+02  0.00000000000E+00 0.  1.
<mgrwt>
<rscale>  4 0.38567579E+03</rscale>
<asrwt>0</asrwt>
<pdfrwt beam="1">  1       21 0.13460117E+00 0.38567579E+03</pdfrwt>
<pdfrwt beam="2">  1       21 0.29795064E-01 0.38567579E+03</pdfrwt>
<totfact> 0.38086239E+03</totfact>
</mgrwt>
</event>
<event>
 5    0  0.3120399E-003  0.3272883E+03  0.7546771E-02  0.1072343E+00
         21   -1    0    0  503  501  0.00000000000E+00  0.00000000000E+00  0.46915838297E+03  0.46915838297E+03  0.00000000000E+00 0.  1.
         21   -1    0    0  501  502 -0.00000000000E+00 -0.00000000000E+00 -0.31796094213E+03  0.31796094213E+03  0.00000000000E+00 0.  1.
         25    1    1    2    0    0 -0.30166912962E+03  0.11064511885E+03 -0.39535170329E+02  0.34703693721E+03  0.12500000000E+03 0.  0.
         21    1    1    2  503  504  0.15906887162E+03  0.63337091979E+01  0.19974127808E+03  0.25542043763E+03  0.00000000000E+00 0.  1.
         21    1    1    2  504  502  0.14260025801E+03 -0.11697882805E+03 -0.90086669100E+01  0.18466195026E+03  0.00000000000E+00 0.  1.
<mgrwt>
<rscale>  4 0.32728832E+03</rscale>
<asrwt>0</asrwt>
<pdfrwt beam="1">  1       21 0.72178213E-01 0.32728832E+03</pdfrwt>
<pdfrwt beam="2">  1       21 0.48917068E-01 0.32728832E+03</pdfrwt>
<totfact> 0.63878479E+03</totfact>
</mgrwt>
</event>
<event>
 5    0  0.3120399E-003  0.4320403E+03  0.7546771E-02  0.1033217E+00
         21   -1    0    0  504  501  0.00000000000E+00  0.00000000000E+00  0.74421467541E+03  0.74421467541E+03  0.00000000000E+00 0.  1.
         21   -1    0    0  501  502 -0.00000000000E+00 -0.00000000000E+00 -0.25225112905E+03  0.25225112905E+03  0.00000000000E+00 0.  1.
         25    1    1    2    0    0 -0.20262755862E+03  0.76538636667E+02  0.18430148582E+03  0.31065757369E+03  0.12500000000E+03 0.  0.
         21    1    1    2  503  502  0.31830958357E+03 -0.24964337371E+03  0.21130857670E+03  0.45639250609E+03  0.00000000000E+00 0.  1.
         21    1    1    2  504  503 -0.11568202494E+03  0.17310473704E+03  0.96353483838E+02  0.22941572467E+03  0.00000000000E+00 0.  1.
<mgrwt>
<rscale>  4 0.43204028E+03</rscale>
<asrwt>0</asrwt>
<pdfrwt beam="1">  1       21 0.11449456E+00 0.43204028E+03</pdfrwt>
<pdfrwt beam="2">  1       21 0.38807866E-01 0.43204028E+03</pdfrwt>
<totfact> 0.33210928E+03</totfact>
</mgrwt>
</event>
<event>
 5    0  0.3120399E-003  0.3207103E+03  0.7546771E-02  0.1075323E+00
         21   -1    0    0  503  501  0.00000000000E+00  0.00000000000E+00  0.10708856172E+04  0.10708856172E+04  0.00000000000E+00 0.  1.
         21   -1    0    0  501  502 -0.00000000000E+00 -0.00000000000E+00 -0.11125376563E+03  0.11125376563E+03  0.00000000000E+00 0.  1.
         25    1    1    2    0    0  0.19612221902E+03 -0.11602870440E+03  0.20161931644E+03  0.32894062352E+03  0.12500000000E+03 0.  0.
         21    1    1    2  503  504 -0.13165622504E+03 -0.92242649789E+02  0.43259509705E+03  0.46149819721E+03  0.00000000000E+00 0. -1.
         21    1    1    2  504  502 -0.64465993979E+02  0.20827135419E+03  0.32541743811E+03  0.39170056214E+03  0.00000000000E+00 0.  1.
<mgrwt>
<rscale>  4 0.32071030E+03</rscale>
<asrwt>0</asrwt>
<pdfrwt beam="1">  1       21 0.16475163E+00 0.32071030E+03</pdfrwt>
<pdfrwt beam="2">  1       21 0.17115965E-01 0.32071030E+03</pdfrwt>
<totfact> 0.65929698E+03</totfact>
</mgrwt>
</event>
<event>
 5    0  0.3120399E-003  0.4282501E+03  0.7546771E-02  0.1034414E+00
         21   -1    0    0  502  501  0.00000000000E+00  0.00000000000E+00  0.26089493048E+03  0.26089493048E+03  0.00000000000E+00 0. -1.
         21   -1    0    0  503  502 -0.00000000000E+00 -0.00000000000E+00 -0.75180387987E+03  0.75180387987E+03  0.00000000000E+00 0. -1.
         25    1    1    2    0    0 -0.24851205065E+02  0.26499984254E+03 -0.25831833062E+03  0.39140242574E+03  0.12500000000E+03 0.  0.
         21    1    1    2  503  504 -0.21475563964E+03 -0.25061515586E+03 -0.17857409664E+03  0.37525544512E+03  0.00000000000E+00 0. -1.
         21    1    1    2  504  501  0.23960684470E+03 -0.14384686683E+02 -0.54016522126E+02  0.24604093949E+03  0.00000000000E+00 0. -1.
<mgrwt>
<rscale>  4 0.42825009E+03</rscale>
<asrwt>0</asrwt>
<pdfrwt beam="1">  1       21 0.40137682E-01 0.42825009E+03</pdfrwt>
<pdfrwt beam="2">  1       21 0.11566213E+00 0.42825009E+03</pdfrwt>
<totfact> 0.30257557E+03</totfact>
</mgrwt>
</event>
<event>
 5    0  0.3120399E-003  0.8070899E+03  0.7546771E-02  0.9549811E-01
         21   -1    0    0  504  501  0.00000000000E+00  0.00000000000E+00  0.70339330091E+03  0.70339330091E+03  0.00000000000E+00 0.  1.
         21   -1    0    0  501  502 -0.00000000000E+00 -0.00000000000E+00 -0.11110512057E+04  0.11110512057E+04  0.00000000000E+00 0.  1.
         25    1    1    2    0    0  0.74488363018E+02 -0.45761739233E+03  0.16673872325E+03  0.50831977713E+03  0.12500000000E+03 0.  0.
         21    1    1    2  503  502  0.13341477874E+03  0.75072006849E+03 -0.56081671307E+03  0.94651756987E+03  0.00000000000E+00 0.  1.
         21    1    1    2  504  503 -0.20790314176E+03 -0.29310267617E+03 -0.13579914954E+02  0.35960715958E+03  0.00000000000E+00 0.  1.
<mgrwt>
<rscale>  4 0.80708986E+03</rscale>
<asrwt>0</asrwt>
<pdfrwt beam="1">  1       21 0.10821435E+00 0.80708986E+03</pdfrwt>
<pdfrwt beam="2">  1       21 0.17093095E+00 0.80708986E+03</pdfrwt>
<totfact> 0.99478476E+01</totfact>
</mgrwt>
</event>
<event>
 5    0  0.3120399E-003  0.4465242E+03  0.7546771E-02  0.1028764E+00
         21   -1    0    0  503  501  0.00000000000E+00  0.00000000000E+00  0.18043636491E+03  0.18043636491E+03  0.00000000000E+00 0.  1.
         21   -1    0    0  501  502 -0.00000000000E+00 -0.00000000000E+00 -0.11193883274E+04  0.11193883274E+04  0.00000000000E+00 0.  1.
         25    1    1    2    0    0  0.78121167554E+02 -0.30644552078E+03 -0.51779647118E+03  0.61947555205E+03  0.12500000000E+03 0.  0.
         21    1    1    2  503  504  0.65001310220E+02 -0.86416442521E+02 -0.42282082529E+02  0.11610661640E+03  0.00000000000E+00 0. -1.
         21    1    1    2  504  502 -0.14312247777E+03  0.39286196330E+03 -0.37887340878E+03  0.56424252386E+03  0.00000000000E+00 0.  1.
<mgrwt>
<rscale>  4 0.44652415E+03</rscale>
<asrwt>0</asrwt>
<pdfrwt beam="1">  1       21 0.27759441E-01 0.44652415E+03</pdfrwt>
<pdfrwt beam="2">  1       21 0.17221359E+00 0.44652415E+03</pdfrwt>
<totfact> 0.21795473E+03</totfact>
</mgrwt>
</event>
<event>
 5    0  0.3120399E-003  0.4705299E+03  0.7546771E-02  0.1021771E+00
         21   -1    0    0  502  501  0.00000000000E+00  0.00000000000E+00  0.36189411425E+03  0.36189411425E+03  0.00000000000E+00 0. -1.
         21   -1    0    0  503  502 -0.00000000000E+00 -0.00000000000E+00 -0.12390967067E+04  0.12390967067E+04  0.00000000000E+00 0. -1.
         25    1    1    2    0    0 -0.21944254750E+03 -0.16545776500E+03  0.33955491508E+02  0.30382442143E+03  0.12500000000E+03 0.  0.
         21    1    1    2  503  504  0.36841664842E+03  0.26440012343E+03 -0.99960263366E+03  0.10976537147E+04  0.00000000000E+00 0. -1.
         21    1    1    2  504  501 -0.14897410092E+03 -0.98942358424E+02  0.88444549724E+02  0.19951268484E+03  0.00000000000E+00 0. -1.
<mgrwt>
<rscale>  4 0.47052995E+03</rscale>
<asrwt>0</asrwt>
<pdfrwt beam="1">  1       21 0.55676017E-01 0.47052995E+03</pdfrwt>
<pdfrwt beam="2">  1       21 0.19063026E+00 0.47052995E+03</pdfrwt>
<totfact> 0.38174601E+02</totfact>
</mgrwt>
</event>
<event>
 5    0  0.3120399E-003  0.5142755E+03  0.7546771E-02  0.1010119E+00
         21   -1    0    0  503  501  0.00000000000E+00  0.00000000000E+00  0.20285111062E+04  0.20285111062E+04  0.00000000000E+00 0. -1.
         21   -1    0    0  501  502 -0.00000000000E+00 -0.00000000000E+00 -0.29810390821E+03  0.29810390821E+03  0.00000000000E+00 0. -1.
         25    1    1    2    0    0  0.21589670533E+03 -0.62814649594E+02  0.20469792724E+03  0.32876026066E+03  0.12500000000E+03 0.  0.
         21    1    1    2  503  504 -0.21147967905E+03  0.35862674069E+03  0.16314077873E+04  0.16836947948E+04  0.00000000000E+00 0. -1.
         21    1    1    2  504  502 -0.44170262777E+01 -0.29581209110E+03 -0.10569851655E+03  0.31415995888E+03  0.00000000000E+00 0. -1.
<mgrwt>
<rscale>  4 0.51427549E+03</rscale>
<asrwt>0</asrwt>
<pdfrwt beam="1">  1       21 0.31207862E+00 0.51427549E+03</pdfrwt>
<pdfrwt beam="2">  1       21 0.45862141E-01 0.51427549E+03</pdfrwt>
<totfact> 0.98165734E+01</totfact>
</mgrwt>
</event>
<event>
 5    0  0.3120399E-003  0.7129346E+03  0.7546771E-02  0.9695364E-01
         21   -1    0    0  504  501  0.00000000000E+00  0.00000000000E+00  0.94606203374E+03  0.94606203374E+03  0.00000000000E+00 0.  1.
         21   -1    0    0  501  502 -0.00000000000E+00 -0.00000000000E+00 -0.57695606999E+03  0.57695606999E+03  0.00000000000E+00 0.  1.
         25    1    1    2    0    0  0.25276360748E+03  0.40385309979E+03  0.37140265618E+03  0.61688872619E+03  0.12500000000E+03 0.  0.
         21    1    1    2  503  502  0.43654522940E+02  0.21478301199E+03  0.17384681155E+02  0.21986288171E+03  0.00000000000E+00 0. -1.
         21    1    1    2  504  503 -0.29641813042E+03 -0.61863611179E+03 -0.19681373577E+02  0.68626649584E+03  0.00000000000E+00 0.  1.
<mgrwt>
<rscale>  4 0.71293459E+03</rscale>
<asrwt>0</asrwt>
<pdfrwt beam="1">  1       21 0.14554801E+00 0.71293459E+03</pdfrwt>
<pdfrwt beam="2">  1       21 0.88762472E-01 0.71293459E+03</pdfrwt>
<totfact> 0.26149141E+02</totfact>
</mgrwt>
</event>
<event>
 5    0  0.3120399E-003  0.4382564E+03  0.7546771E-02  0.1031283E+00
         21   -1    0    0  502  501  0.00000000000E+00  0.00000000000E+00  0.97112937943E+03  0.97112937943E+03  0.00000000000E+00 0.  1.
         21   -1    0    0  503  502 -0.00000000000E+00 -0.00000000000E+00 -0.20940013519E+03  0.20940013519E+03  0.00000000000E+00 0.  1.
         25    1    1    2    0    0 -0.36442268698E+03 -0.38175072251E+02  0.47230857874E+03  0.61070584120E+03  0.12500000000E+03 0.  0.
         21    1    1    2  503  504  0.45379171445E+02 -0.94095043707E+02 -0.19709769305E+02  0.10630908455E+03  0.00000000000E+00 0.  1.
         21    1    1    2  504  501  0.31904351553E+03  0.13227011596E+03  0.30913043480E+03  0.46351458887E+03  0.00000000000E+00 0.  1.
<mgrwt>
<rscale>  4 0.43825641E+03</rscale>
<asrwt>0</asrwt>
<pdfrwt beam="1">  1       21 0.14940452E+00 0.43825641E+03</pdfrwt>
<pdfrwt beam="2">  1       21 0.32215406E-01 0.43825641E+03</pdfrwt>
<totfact> 0.24169225E+03</totfact>
</mgrwt>
</event>
<event>
 5    0  0.3120399E-003  0.2937320E+03  0.7546771E-02  0.1088417E+00
         21   -1    0    0  503  501  0.00000000000E+00  0.00000000000E+00  0.98567524008E+03  0.98567524008E+03  0.00000000000E+00 0. -1.
         21   -1    0    0  501  502 -0.00000000000E+00 -0.00000000000E+00 -0.10278086360E+03  0.10278086360E+03  0.00000000000E+00 0. -1.
         25    1    1    2    0    0  0.15620587841E+03  0.13081138482E+03  0.45345182187E+03  0.51259677096E+03  0.12500000000E+03 0.  0.
         21    1    1    2  503  504  0.28010469827E+01 -0.19675455814E+03  0.30687119460E+03  0.36454098822E+03  0.00000000000E+00 0. -1.
         21    1    1    2  504  502 -0.15900692539E+03  0.65943173318E+02  0.12257136001E+03  0.21131834450E+03  0.00000000000E+00 0. -1.
<mgrwt>
<rscale>  4 0.29373196E+03</rscale>
<asrwt>0</asrwt>
<pdfrwt beam="1">  1       21 0.15164234E+00 0.29373196E+03</pdfrwt>
<pdfrwt beam="2">  1       21 0.15812441E-01 0.29373196E+03</pdfrwt>
<totfact> 0.97101556E+03</totfact>
</mgrwt>
</event>
<event>
 5    0  0.3120399E-003  0.4940332E+03  0.7546771E-02  0.1015348E+00
         21   -1    0    0  504  501  0.00000000000E+00  0.00000000000E+00  0.19739964087E+03  0.19739964087E+03  0.00000000000E+00 0. -1.
         21   -1    0    0  501  502 -0.00000000000E+00 -0.00000000000E+00 -0.14703059270E+04  0.14703059270E+04  0.00000000000E+00 0. -1.
         25    1    1    2    0    0  0.14357444291E+03  0.43349673161E+03 -0.86346992919E+03  0.98475294140E+03  0.12500000000E+03 0.  0.
         21    1    1    2  503  502 -0.86016451565E+02 -0.10654836299E+01 -0.15676770380E+03  0.17881856210E+03  0.00000000000E+00 0. -1.
         21    1    1    2  504  503 -0.57557991344E+02 -0.43243124798E+03 -0.25266865316E+03  0.50413406440E+03  0.00000000000E+00 0. -1.
<mgrwt>
<rscale>  4 0.49403317E+03</rscale>
<asrwt>0</asrwt>
<pdfrwt beam="1">  1       21 0.30369175E-01 0.49403317E+03</pdfrwt>
<pdfrwt beam="2">  1       21 0.22620091E+00 0.49403317E+03</pdfrwt>
<totfact> 0.77449618E+02</totfact>
</mgrwt>
</event>
<event>
 5    0  0.3120399E-003  0.6335909E+03  0.7546771E-02  0.9838066E-01
         21   -1    0    0  502  501  0.00000000000E+00  0.00000000000E+00  0.13186372439E+04  0.13186372439E+04  0.00000000000E+00 0.  1.
         21   -1    0    0  504  502 -0.00000000000E+00 -0.00000000000E+00 -0.30718234853E+03  0.30718234853E+03  0.00000000000E+00 0.  1.
         25    1    1    2    0    0 -0.46620922552E+03 -0.29938189996E+03  0.35936754288E+03  0.67212394308E+03  0.12500000000E+03 0.  0.
         21    1    1    2  503  501  0.44537695619E+02 -0.96674803011E+02  0.17037498041E+03  0.20089115913E+03  0.00000000000E+00 0.  1.
         21    1    1    2  504  503  0.42167152990E+03  0.39605670297E+03  0.48171237212E+03  0.75280449026E+03  0.00000000000E+00 0.  1.
<mgrwt>
<rscale>  4 0.63359088E+03</rscale>
<asrwt>0</asrwt>
<pdfrwt beam="1">  1       21 0.20286726E+00 0.63359088E+03</pdfrwt>
<pdfrwt beam="2">  1       21 0.47258824E-01 0.63359088E+03</pdfrwt>
<totfact> 0.41965854E+02</totfact>
</mgrwt>
</event>
<event>
 5    0  0.3120399E-003  0.3927169E+03  0.7546771E-02  0.1046331E+00
         21   -1    0    0  502  501  0.00000000000E+00  0.00000000000E+00  0.51666839009E+03  0.51666839009E+03  0.00000000000E+00 0. -1.
         21   -1    0    0  504  502 -0.00000000000E+00 -0.00000000000E+00 -0.37509357603E+03  0.37509357603E+03  0.00000000000E+00 0. -1.
         25    1    1    2    0    0 -0.22511843509E+03 -0.59552970037E+02  0.25071783411E+03  0.36429287448E+03  0.12500000000E+03 0.  0.
         21    1    1    2  503  501 -0.54676227778E+02  0.18993314064E+03  0.67177268048E+01  0.19776050074E+03  0.00000000000E+00 0.  1.
         21    1    1    2  504  503  0.27979466286E+03 -0.13038017061E+03 -0.11586074684E+03  0.32970859090E+03  0.00000000000E+00 0. -1.
<mgrwt>
<rscale>  4 0.39271695E+03</rscale>
<asrwt>0</asrwt>
<pdfrwt beam="1">  1       21 0.79487445E-01 0.39271695E+03</pdfrwt>
<pdfrwt beam="2">  1       21 0.57706704E-01 0.39271695E+03</pdfrwt>
<totfact> 0.35059107E+03</totfact>
</mgrwt>
</event>
<event>
 5    0  0.3120399E-003  0.1696293E+03  0.7546771E-02  0.1178235E+00
         21   -1    0    0  502  501  0.00000000000E+00  0.00000000000E+00  0.34109170785E+02  0.34109170785E+02  0.00000000000E+00 0. -1.
         21   -1    0    0  504  502 -0.00000000000E+00 -0.00000000000E+00 -0.18947146434E+04  0.18947146434E+04  0.00000000000E+00 0. -1.
         25    1    1    2    0    0 -0.20243782648E+03 -0.51401476705E+02 -0.83096385460E+03  0.86588054202E+03  0.12500000000E+03 0.  0.
         21    1    1    2  503  501  0.37409772425E+02 -0.53359578898E+02 -0.19058639011E+03  0.20141973049E+03  0.00000000000E+00 0.  1.
         21    1    1    2  504  503  0.16502805405E+03  0.10476105560E+03 -0.83905522787E+03  0.86152354164E+03  0.00000000000E+00 0. -1.
<mgrwt>
<rscale>  4 0.16962928E+03</rscale>
<asrwt>0</asrwt>
<pdfrwt beam="1">  1       21 0.52475639E-02 0.16962928E+03</pdfrwt>
<pdfrwt beam="2">  1       21 0.29149461E+00 0.16962928E+03</pdfrwt>
<totfact> 0.97151454E+03</totfact>
</mgrwt>
</event>
<event>
 5    0  0.3120399E-003  0.3284146E+03  0.7546771E-02  0.1071841E+00
         21   -1    0    0  502  501  0.00000000000E+00  0.00000000000E+00  0.13290106111E+03  0.13290106111E+03  0.00000000000E+00 0. -1.
         21   -1    0    0  504  502 -0.00000000000E+00 -0.00000000000E+00 -0.10601665889E+04  0.10601665889E+04  0.00000000000E+00 0. -1.
         25    1    1    2    0    0 -0.25417062600E+03  0.15085131628E+02 -0.11175913347E+03  0.30486943473E+03  0.12500000000E+03 0.  0.
         21    1    1    2  503  501  0.17587104665E+03  0.98855440470E+02 -0.36613038262E+03  0.41803645802E+03  0.00000000000E+00 0. -1.
         21    1    1    2  504  503  0.78299579351E+02 -0.11394057210E+03 -0.44937601172E+03  0.47016175727E+03  0.00000000000E+00 0.  1.
<mgrwt>
<rscale>  4 0.32841462E+03</rscale>
<asrwt>0</asrwt>
<pdfrwt beam="1">  1       21 0.20446317E-01 0.32841462E+03</pdfrwt>
<pdfrwt beam="2">  1       21 0.16310255E+00 0.32841462E+03</pdfrwt>
<totfact> 0.48358756E+03</totfact>
</mgrwt>
</event>
<event>
 5    0  0.3120399E-003  0.3776603E+03  0.7546771E-02  0.1051802E+00
         21   -1    0    0  502  501  0.00000000000E+00  0.00000000000E+00  0.11856616656E+03  0.11856616656E+03  0.00000000000E+00 0. -1.
         21   -1    0    0  504  502 -0.00000000000E+00 -0.00000000000E+00 -0.12939522754E+04  0.12939522754E+04  0.00000000000E+00 0. -1.
         25    1    1    2    0    0 -0.16046735229E+03  0.17618840683E+03 -0.25085319026E+03  0.36789189841E+03  0.12500000000E+03 0.  0.
         21    1    1    2  503  501  0.47936532888E+02 -0.28712753596E+03 -0.38646207053E+03  0.48383164949E+03  0.00000000000E+00 0. -1.
         21    1    1    2  504  503  0.11253081940E+03  0.11093912913E+03 -0.53807084809E+03  0.56079489410E+03  0.00000000000E+00 0. -1.
<mgrwt>
<rscale>  4 0.37766031E+03</rscale>
<asrwt>0</asrwt>
<pdfrwt beam="1">  1       21 0.18240948E-01 0.37766031E+03</pdfrwt>
<pdfrwt beam="2">  1       21 0.19906958E+00 0.37766031E+03</pdfrwt>
<totfact> 0.32855533E+03</totfact>
</mgrwt>
</event>
<event>
 5    0  0.3120399E-003  0.3029430E+03  0.7546771E-02  0.1083779E+00
         21   -1    0    0  502  501  0.00000000000E+00  0.00000000000E+00  0.10080313738E+03  0.10080313738E+03  0.00000000000E+00 0. -1.
         21   -1    0    0  503  502 -0.00000000000E+00 -0.00000000000E+00 -0.91814566019E+03  0.91814566019E+03  0.00000000000E+00 0. -1.
         25    1    1    2    0    0 -0.84264123357E+02 -0.22608244710E+03 -0.41908012100E+03  0.49946657865E+03  0.12500000000E+03 0.  0.
         21    1    1    2  503  504  0.66834569270E+02  0.26854346937E+03 -0.37999017910E+03  0.47007977069E+03  0.00000000000E+00 0. -1.
         21    1    1    2  504  501  0.17429554086E+02 -0.42461022276E+02 -0.18272222713E+02  0.49402448231E+02  0.00000000000E+00 0.  1.
<mgrwt>
<rscale>  4 0.30294297E+03</rscale>
<asrwt>0</asrwt>
<pdfrwt beam="1">  1       21 0.15508175E-01 0.30294297E+03</pdfrwt>
<pdfrwt beam="2">  1       21 0.14125318E+00 0.30294297E+03</pdfrwt>
<totfact> 0.12099636E+04</totfact>
</mgrwt>
</event>
<event>
 5    0  0.3120399E-003  0.3087330E+03  0.7546771E-02  0.1080955E+00
         21   -1    0    0  503  501  0.00000000000E+00  0.00000000000E+00  0.29893247752E+03  0.29893247752E+03  0.00000000000E+00 0.  1.
         21   -1    0    0  501  502 -0.00000000000E+00 -0.00000000000E+00 -0.37639972123E+03  0.37639972123E+03  0.00000000000E+00 0.  1.
         25    1    1    2    0    0 -0.23336912092E+03 -0.15274465847E+02  0.65085884182E+02  0.27304876529E+03  0.12500000000E+03 0.  0.
         21    1    1    2  503  504  0.19549734928E+03 -0.76832874368E+02  0.20679540128E+02  0.21106905870E+03  0.00000000000E+00 0.  1.
         21    1    1    2  504  502  0.37871771635E+02  0.92107340215E+02 -0.16323266802E+03  0.19121437477E+03  0.00000000000E+00 0.  1.
<mgrwt>
<rscale>  4 0.30873301E+03</rscale>
<asrwt>0</asrwt>
<pdfrwt beam="1">  1       21 0.45989612E-01 0.30873301E+03</pdfrwt>
<pdfrwt beam="2">  1       21 0.57907650E-01 0.30873301E+03</pdfrwt>
<totfact> 0.11904915E+04</totfact>
</mgrwt>
</event>
<event>
 5    0  0.3120399E-003  0.4437888E+03  0.7546771E-02  0.1029591E+00
         21   -1    0    0  503  501  0.00000000000E+00  0.00000000000E+00  0.58374724382E+03  0.58374724382E+03  0.00000000000E+00 0.  1.
         21   -1    0    0  501  502 -0.00000000000E+00 -0.00000000000E+00 -0.56963877273E+03  0.56963877273E+03  0.00000000000E+00 0.  1.
         25    1    1    2    0    0  0.10665485652E+03 -0.41270418086E+03 -0.36278546435E+03  0.57353142239E+03  0.12500000000E+03 0.  0.
         21    1    1    2  503  504 -0.10757613891E+03  0.33589445590E+03  0.35396839878E+03  0.49969124318E+03  0.00000000000E+00 0.  1.
         21    1    1    2  504  502  0.92128238695E+00  0.76809724961E+02  0.22925536660E+02  0.80163350984E+02  0.00000000000E+00 0.  1.
<mgrwt>
<rscale>  4 0.44378880E+03</rscale>
<asrwt>0</asrwt>
<pdfrwt beam="1">  1       21 0.89807269E-01 0.44378880E+03</pdfrwt>
<pdfrwt beam="2">  1       21 0.87636734E-01 0.44378880E+03</pdfrwt>
<totfact> 0.10057057E+03</totfact>
</mgrwt>
</event>
<event>
 5    0  0.3120399E-003  0.6077037E+03  0.7546771E-02  0.9889551E-01
         21   -1    0    0  502  501  0.00000000000E+00  0.00000000000E+00  0.58838694006E+03  0.58838694006E+03  0.00000000000E+00 0.  1.
         21   -1    0    0  503  502 -0.00000000000E+00 -0.00000000000E+00 -0.69578362754E+03  0.69578362754E+03  0.00000000000E+00 0.  1.
         25    1    1    2    0    0  0.32887324722E+03 -0.38594953377E+02 -0.22305831979E+03  0.41836251887E+03  0.12500000000E+03 0.  0.
         21    1    1    2  503  504 -0.26435125683E+03  0.40494348330E+03  0.97870523396E+02  0.49339583602E+03  0.00000000000E+00 0.  1.
         21    1    1    2  504  501 -0.64521990396E+02 -0.36634852992E+03  0.17791108914E+02  0.37241221271E+03  0.00000000000E+00 0.  1.
<mgrwt>
<rscale>  4 0.60770371E+03</rscale>
<asrwt>0</asrwt>
<pdfrwt beam="1">  1       21 0.90521067E-01 0.60770371E+03</pdfrwt>
<pdfrwt beam="2">  1       21 0.10704364E+00 0.60770371E+03</pdfrwt>
<totfact> 0.57284556E+02</totfact>
</mgrwt>
</event>
<event>
 5    0  0.3120399E-003  0.3368568E+03  0.7546771E-02  0.1068143E+00
         21   -1    0    0  502  501  0.00000000000E+00  0.00000000000E+00  0.96604059694E+03  0.96604059694E+03  0.00000000000E+00 0.  1.
         21   -1    0    0  504  502 -0.00000000000E+00 -0.00000000000E+00 -0.15013074669E+03  0.15013074669E+03  0.00000000000E+00 0.  1.
         25    1    1    2    0    0  0.30732053916E+03 -0.30976105052E+01  0.13603545837E+03  0.35858911712E+03  0.12500000000E+03 0.  0.
         21    1    1    2  503  501 -0.34466943370E+02  0.45868363383E+02  0.99867655459E+02  0.11517562916E+03  0.00000000000E+00 0.  1.
         21    1    1    2  504  503 -0.27285359579E+03 -0.42770752878E+02  0.58000673642E+03  0.64240659736E+03  0.00000000000E+00 0.  1.
<mgrwt>
<rscale>  4 0.33685679E+03</rscale>
<asrwt>0</asrwt>
<pdfrwt beam="1">  1       21 0.14862163E+00 0.33685679E+03</pdfrwt>
<pdfrwt beam="2">  1       21 0.23097038E-01 0.33685679E+03</pdfrwt>
<totfact> 0.49176837E+03</totfact>
</mgrwt>
</event>
<event>
 5    0  0.3120399E-003  0.3989075E+03  0.7546771E-02  0.1044159E+00
         21   -1    0    0  504  501  0.00000000000E+00  0.00000000000E+00  0.61719859776E+03  0.61719859776E+03  0.00000000000E+00 0. -1.
         21   -1    0    0  501  502 -0.00000000000E+00 -0.00000000000E+00 -0.26565921184E+03  0.26565921184E+03  0.00000000000E+00 0. -1.
         25    1    1    2    0    0 -0.25720375627E+02 -0.20953536053E+03  0.16802389322E+03  0.29736111670E+03  0.12500000000E+03 0.  0.
         21    1    1    2  503  502 -0.12290944440E+03 -0.11409303363E+03 -0.29860295635E+02  0.17033962869E+03  0.00000000000E+00 0. -1.
         21    1    1    2  504  503  0.14862982002E+03  0.32362839417E+03  0.21337578833E+03  0.41515706420E+03  0.00000000000E+00 0. -1.
<mgrwt>
<rscale>  4 0.39890746E+03</rscale>
<asrwt>0</asrwt>
<pdfrwt beam="1">  1       21 0.94953630E-01 0.39890746E+03</pdfrwt>
<pdfrwt beam="2">  1       21 0.40870648E-01 0.39890746E+03</pdfrwt>
<totfact> 0.47794634E+03</totfact>
</mgrwt>
</event>
<event>
 5    0  0.3120399E-003  0.3435515E+03  0.7546771E-02  0.1065293E+00
         21   -1    0    0  503  501  0.00000000000E+00  0.00000000000E+00  0.17554860829E+03  0.17554860829E+03  0.00000000000E+00 0.  1.
         21   -1    0    0  501  502 -0.00000000000E+00 -0.00000000000E+00 -0.83070977395E+03  0.83070977395E+03  0.00000000000E+00 0.  1.
         25    1    1    2    0    0  0.91842311767E+02  0.19787684875E+03 -0.48896597432E+03  0.54982086314E+03  0.12500000000E+03 0.  0.
         21    1    1    2  503  504 -0.16337042655E+03  0.45548915067E+02 -0.87212910239E+02  0.19071101606E+03  0.00000000000E+00 0.  1.
         21    1    1    2  504  502  0.71528114780E+02 -0.24342576382E+03 -0.78982281105E+02  0.26572650305E+03  0.00000000000E+00 0. -1.
<mgrwt>
<rscale>  4 0.34355153E+03</rscale>
<asrwt>0</asrwt>
<pdfrwt beam="1">  1       21 0.27007478E-01 0.34355153E+03</pdfrwt>
<pdfrwt beam="2">  1       21 0.12780151E+00 0.34355153E+03</pdfrwt>
<totfact> 0.53795638E+03</totfact>
</mgrwt>
</event>
<event>
 5    0  0.3120399E-003  0.4433072E+03  0.7546771E-02  0.1029737E+00
         21   -1    0    0  503  501  0.00000000000E+00  0.00000000000E+00  0.30880018928E+03  0.30880018928E+03  0.00000000000E+00 0. -1.
         21   -1    0    0  501  502 -0.00000000000E+00 -0.00000000000E+00 -0.64604321735E+03  0.64604321735E+03  0.00000000000E+00 0. -1.
         25    1    1    2    0    0 -0.25405356251E+03  0.56853974921E+02 -0.79258223766E+02  0.29947028754E+03  0.12500000000E+03 0.  0.
         21    1    1    2  503  504  0.37420240983E+03 -0.17827016719E+03 -0.10868950192E+03  0.42851033110E+03  0.00000000000E+00 0. -1.
         21    1    1    2  504  502 -0.12014884732E+03  0.12141619227E+03 -0.14929530238E+03  0.22686278798E+03  0.00000000000E+00 0. -1.
<mgrwt>
<rscale>  4 0.44330722E+03</rscale>
<asrwt>0</asrwt>
<pdfrwt beam="1">  1       21 0.47507722E-01 0.44330722E+03</pdfrwt>
<pdfrwt beam="2">  1       21 0.99391264E-01 0.44330722E+03</pdfrwt>
<totfact> 0.30777309E+03</totfact>
</mgrwt>
</event>
<event>
 5    0  0.3120399E-003  0.2487565E+03  0.7546771E-02  0.1114093E+00
         21   -1    0    0  502  501  0.00000000000E+00  0.00000000000E+00  0.28591185237E+03  0.28591185237E+03  0.00000000000E+00 0.  1.
         21   -1    0    0  504  502 -0.00000000000E+00 -0.00000000000E+00 -0.35780969238E+03  0.35780969238E+03  0.00000000000E+00 0.  1.
         25    1    1    2    0    0 -0.48270260295E+02  0.24499651210E+03  0.72629251327E+02  0.28853650916E+03  0.12500000000E+03 0.  0.
         21    1    1    2  503  501 -0.97882754914E+00 -0.83006720302E+02  0.50305158230E+02  0.97065352537E+02  0.00000000000E+00 0.  1.
         21    1    1    2  504  503  0.49249087845E+02 -0.16198979180E+03 -0.19483224957E+03  0.25811968304E+03  0.00000000000E+00 0.  1.
<mgrwt>
<rscale>  4 0.24875651E+03</rscale>
<asrwt>0</asrwt>
<pdfrwt beam="1">  1       21 0.43986439E-01 0.24875651E+03</pdfrwt>
<pdfrwt beam="2">  1       21 0.55047645E-01 0.24875651E+03</pdfrwt>
<totfact> 0.14965060E+04</totfact>
</mgrwt>
</event>
<event>
 5    0  0.3120399E-003  0.2724312E+03  0.7546771E-02  0.1099896E+00
         21   -1    0    0  503  501  0.00000000000E+00  0.00000000000E+00  0.33577979659E+03  0.33577979659E+03  0.00000000000E+00 0. -1.
         21   -1    0    0  501  502 -0.00000000000E+00 -0.00000000000E+00 -0.34658253699E+03  0.34658253699E+03  0.00000000000E+00 0. -1.
         25    1    1    2    0    0 -0.24453221754E+03 -0.64506613653E+02  0.65835673109E+02  0.28968335208E+03  0.12500000000E+03 0.  0.
         21    1    1    2  503  504  0.17244048838E+03 -0.75810639889E+02  0.44769227247E+02  0.19361626704E+03  0.00000000000E+00 0. -1.
         21    1    1    2  504  502  0.72091729162E+02  0.14031725354E+03 -0.12140764076E+03  0.19906271446E+03  0.00000000000E+00 0. -1.
<mgrwt>
<rscale>  4 0.27243123E+03</rscale>
<asrwt>0</asrwt>
<pdfrwt beam="1">  1       21 0.51658430E-01 0.27243123E+03</pdfrwt>
<pdfrwt beam="2">  1       21 0.53320390E-01 0.27243123E+03</pdfrwt>
<totfact> 0.11316355E+04</totfact>
</mgrwt>
</event>
<event>
 5    0  0.3120399E-003  0.4183875E+03  0.7546771E-02  0.1037592E+00
         21   -1    0    0  502  501  0.00000000000E+00  0.00000000000E+00  0.16770196960E+03  0.16770196960E+03  0.00000000000E+00 0.  1.
         21   -1    0    0  503  502 -0.00000000000E+00 -0.00000000000E+00 -0.11028513839E+04  0.11028513839E+04  0.00000000000E+00 0.  1.
         25    1    1    2    0    0 -0.11937236250E+03  0.37893502424E+03 -0.36362491734E+03  0.55289202746E+03  0.12500000000E+03 0.  0.
         21    1    1    2  503  504  0.70743580293E+02 -0.36688343756E+03 -0.54552947039E+03  0.66121896069E+03  0.00000000000E+00 0.  1.
         21    1    1    2  504  501  0.48628782204E+02 -0.12051586672E+02 -0.25995026581E+02  0.56442365355E+02  0.00000000000E+00 0. -1.
<mgrwt>
<rscale>  4 0.41838752E+03</rscale>
<asrwt>0</asrwt>
<pdfrwt beam="1">  1       21 0.25800303E-01 0.41838752E+03</pdfrwt>
<pdfrwt beam="2">  1       21 0.16966944E+00 0.41838752E+03</pdfrwt>
<totfact> 0.26552327E+03</totfact>
</mgrwt>
</event>
