<LesHouchesEvents version="3.0">
  <!--
  <scalesfunctionalform>
    muR  H_T/2 := sum_i mT(i)/2, i=final state
    muF1 H_T/2 := sum_i mT(i)/2, i=final state
    muF2 H_T/2 := sum_i mT(i)/2, i=final state
    QES  H_T/2 := sum_i mT(i)/2, i=final state
  </scalesfunctionalform>
HERWIG6   
  -->
  <header>
       75
  </header>
  <init>
   2212   2212 0.65000000D+04 0.65000000D+04 -1 -1   244800   244800 -4   1
 0.10547128D-03 0.69470637D-05 0.22518659D-05     66
  </init>
  <event>
  6     66 -.22518659E-05 0.78774748E+02 0.75467711E-02 0.93867888E-01
       -1 -1    0    0    0  501 0.00000000E+00 0.00000000E+00 0.34267233E+03 0.34267248E+03 0.32000000E+00 0.0000E+00 0.9000E+01
        2 -1    0    0  502    0 -.00000000E+00 -.00000000E+00 -.17953859E+04 0.17953859E+04 0.32000000E+00 0.0000E+00 0.9000E+01
       25  1    1    2    0    0 -.50435113E+03 0.14787902E+03 -.59770203E+03 0.80567425E+03 0.12500000E+03 0.0000E+00 0.9000E+01
       -1  1    1    2    0  503 0.57140273E+02 -.49626799E+00 0.14301683E+03 0.15401031E+03 0.32000000E+00 0.0000E+00 0.9000E+01
        2  1    1    2  502    0 0.41715800E+03 -.14505570E+03 -.10381459E+04 0.11281884E+04 0.32000000E+00 0.0000E+00 0.9000E+01
       21  1    1    2  503  501 0.30052864E+02 -.23270538E+01 0.40117618E+02 0.50185412E+02 0.75000000E+00 0.0000E+00 0.9000E+01
#aMCatNLO 2  0  0  4  1 0.99047040D+01 0.00000000D+00  -5  6  0 0.00000000D+00 0.00000000D+00 0.00000000D+00 0.00000000D+00 0.00000000D+00
  <mgrwgt>
 -.2393045166D-02    3    2    0
 0.784365501849704D+03 0.000000000000000D+00 0.000000000000000D+00 0.784365501849704D+03
 0.784365501849704D+03 -.000000000000000D+00 -.000000000000000D+00 -.784365501849704D+03
 0.544833749440478D+03 -.504631242736848D+03 0.147976852834289D+03 -.683298939593233D+02
 0.447277900853444D+03 0.871922822294566D+02 -.282329413971743D+01 0.438687879387707D+03
 0.576619353405486D+03 0.417438960507392D+03 -.145153558694571D+03 -.370357985428383D+03
 0.000000000000000D+00 0.000000000000000D+00 -.000000000000000D+00 0.000000000000000D+00
 0.784365501849704D+03 0.000000000000000D+00 0.000000000000000D+00 0.784365501849704D+03
 0.784365501849704D+03 -.000000000000000D+00 -.000000000000000D+00 -.784365501849704D+03
 0.544769149740512D+03 -.504589967467546D+03 0.147975516337262D+03 -.681222269514344D+02
 0.341978818113118D+03 0.570629215531715D+02 -.492893958958448D+00 0.337184062608847D+03
 0.576510206284967D+03 0.417482642231397D+03 -.145154973112823D+03 -.370138210898094D+03
 0.105472829560811D+03 0.300444036829772D+02 -.232764926548069D+01 0.101076375240682D+03
-.465656682724D-07 0.000000000000D+00 0.000000000000D+00 0.144857797357D-05 0.000000000000D+00  6 -1 2 25 -1 2 21 2 0.52718833D-01 0.27621322D+00 0.28605918D+06 0.28605918D+06 0.28605918D+06 0.10860841D+01  1  2 13  3  6  4       -1 -.247434595765D-06 0.100000000000D+01
-.826801147840D-03 0.000000000000D+00 0.000000000000D+00 0.144857797357D-05 0.000000000000D+00  6 -1 2 25 -1 2 21 2 0.52718833D-01 0.27621322D+00 0.28605918D+06 0.28605918D+06 0.28605918D+06 0.10860841D+01  1  2 13  3  6  4       -1 -.439334847719D-02 0.100000000000D+01
0.376491339471D-03 0.000000000000D+00 0.000000000000D+00 0.144857797357D-05 0.237765893108D-07  6 -1 2 25 -1 2 21 2 0.52718833D-01 0.27621322D+00 0.28605918D+06 0.28605918D+06 0.28605918D+06 0.10860841D+01  1  2  1  3  6  4       -1 0.200055074580D-02 0.100000000000D+01
  </mgrwgt>
  </event>
  <event>
  5     66 -.22518659E-05 0.12456174E+03 0.75467711E-02 0.94745295E-01
       -1 -1    0    0    0  501 0.00000000E+00 0.00000000E+00 0.42139808E+03 0.42139820E+03 0.32000000E+00 0.0000E+00 0.9000E+01
        2 -1    0    0  502    0 0.00000000E+00 0.00000000E+00 -.12609755E+04 0.12609756E+04 0.32000000E+00 0.0000E+00 0.9000E+01
       25  1    1    2    0    0 0.12057792E+03 0.44554409E+03 -.92618593E+03 0.10423502E+04 0.12500000E+03 0.0000E+00 0.9000E+01
       -1  1    1    2    0  501 0.47861073E+02 -.11504047E+03 0.21414888E+03 0.24775964E+03 0.32000000E+00 0.0000E+00 0.9000E+01
        2  1    1    2  502    0 -.16843899E+03 -.33050362E+03 -.12754041E+03 0.39226394E+03 0.32000000E+00 0.0000E+00 0.9000E+01
#aMCatNLO 1  0  0  2  5 0.14289458D+02 0.00000000D+00  -5  6  0 0.00000000D+00 0.00000000D+00 0.00000000D+00 0.00000000D+00 0.00000000D+00
  <mgrwgt>
 -.4744820089D-04   11    2    0
 0.728953226499301D+03 0.000000000000000D+00 0.000000000000000D+00 0.728953226499301D+03
 0.728953226499301D+03 0.000000000000000D+00 0.000000000000000D+00 -.728953226499301D+03
 0.669477115533124D+03 0.120609554380814D+03 0.445615023382845D+03 -.468460451425860D+03
 0.409106320534254D+03 0.478466356920087D+02 -.115005770747994D+03 0.389682375337520D+03
 0.379323016931224D+03 -.168456190072823D+03 -.330609252634851D+03 0.787780760883397D+02
 0.000000000000000D+00 -.000000000000000D+00 -.000000000000000D+00 -.000000000000000D+00
 0.729152966393066D+03 0.000000000000000D+00 0.000000000000000D+00 0.729152966393066D+03
 0.103887816086585D+04 0.000000000000000D+00 0.000000000000000D+00 -.103887816086585D+04
 0.671783437863529D+03 0.126957694865363D+03 0.447319278091271D+03 -.468460451425860D+03
 0.409286626552573D+03 0.517200616169829D+02 -.113965890741173D+03 0.389682375337520D+03
 0.376906414921416D+03 -.164876981946710D+03 -.329648359863778D+03 0.787780760883397D+02
 0.310054647921401D+03 -.138007745356364D+02 -.370502748632018D+01 -.309725194472787D+03
0.363075295545D-06 0.000000000000D+00 0.000000000000D+00 0.281927193758D-07 0.000000000000D+00  6 -1 2 25 -1 2 21 0 0.64830486D-01 0.19399625D+00 0.23711377D+06 0.23711377D+06 0.23711377D+06 0.10921924D+01  1  2  2  2  6  2        2 0.220381296289D-05 0.100000000000D+01
0.305427615838D-07 0.000000000000D+00 -.139430473482D-08 0.281927193758D-07 0.000000000000D+00  6 -1 2 25 -1 2 21 2 0.64830486D-01 0.19399625D+00 0.23711377D+06 0.23711377D+06 0.23711377D+06 0.10921924D+01  1  2  3  2  6  2        2 0.221148805397D-06 0.100000000000D+01
-.254358735577D-06 0.000000000000D+00 0.000000000000D+00 0.281927193758D-07 0.000000000000D+00  6 -1 2 25 -1 2 21 2 0.64830486D-01 0.19399625D+00 0.23711377D+06 0.23711377D+06 0.23711377D+06 0.10921924D+01  1  2 15  2  6  2        2 -.184171723833D-05 0.100000000000D+01
0.310685112542D-05 0.000000000000D+00 0.000000000000D+00 0.281927193758D-07 0.000000000000D+00  6 -1 2 25 -1 2 21 2 0.64830486D-01 0.27649450D+00 0.24478705D+06 0.24478705D+06 0.24478705D+06 0.10911482D+01  1  2 12  2  6  2        2 0.113689503427D-04 0.100000000000D+01
0.217239444557D-03 0.000000000000D+00 0.000000000000D+00 0.281927193758D-07 0.000000000000D+00  6 -1 2 25 -1 2 21 2 0.64830486D-01 0.27656264D+00 0.24478705D+06 0.24478705D+06 0.24478705D+06 0.10911482D+01  1  2 12  2  6  2        2 0.794508048763D-03 0.100000000000D+01
-.213630380487D-03 0.000000000000D+00 0.000000000000D+00 0.281927193758D-07 0.000000000000D+00  6 -1 2 25 -1 2 21 2 0.64830486D-01 0.19399625D+00 0.23711377D+06 0.23711377D+06 0.23711377D+06 0.10921924D+01  1  2  4  2  6  2        2 -.154681832917D-02 0.100000000000D+01
-.220672222825D-03 0.000000000000D+00 -.333748911133D-06 0.281927193758D-07 0.000000000000D+00  6 -1 2 25 -1 2 21 2 0.64830486D-01 0.27649917D+00 0.23711377D+06 0.23711377D+06 0.23711377D+06 0.10921924D+01  1  2  5  2  6  2        2 -.810451511773D-03 0.100000000000D+01
0.207636196360D-03 0.000000000000D+00 0.313836452927D-06 0.281927193758D-07 0.000000000000D+00  6 -1 2 25 -1 2 21 2 0.64830486D-01 0.19399625D+00 0.23711377D+06 0.23711377D+06 0.23711377D+06 0.10921924D+01  1  2  6  2  6  2        2 0.150341666572D-02 0.100000000000D+01
0.135414490589D-06 0.000000000000D+00 0.000000000000D+00 0.281927193758D-07 0.000000000000D+00  6 -1 21 25 -1 2 -2 2 0.64830486D-01 0.27649450D+00 0.24478705D+06 0.24478705D+06 0.24478705D+06 0.10911482D+01  1  2 12  6  6  2        2 0.123989883043D-06 0.100000000000D+01
0.947330262504D-05 0.000000000000D+00 0.000000000000D+00 0.281927193758D-07 0.000000000000D+00  6 -1 21 25 -1 2 -2 2 0.64830486D-01 0.27656264D+00 0.24478705D+06 0.24478705D+06 0.24478705D+06 0.10911482D+01  1  2 12  6  6  2        2 0.866498860416D-05 0.100000000000D+01
-.960888922514D-05 0.000000000000D+00 -.145472034670D-07 0.281927193758D-07 0.000000000000D+00  6 -1 21 25 -1 2 -2 2 0.64830486D-01 0.27649917D+00 0.23711377D+06 0.23711377D+06 0.23711377D+06 0.10921924D+01  1  2  5  6  6  2        2 -.884424779270D-05 0.100000000000D+01
  </mgrwgt>
  </event>
  <event>
  6     66 0.22518659E-05 0.41200851E+02 0.75467711E-02 0.94343639E-01
       -1 -1    0    0    0  501 0.00000000E+00 0.00000000E+00 0.18911507E+03 0.18911534E+03 0.32000000E+00 0.0000E+00 0.9000E+01
        2 -1    0    0  503    0 0.00000000E+00 0.00000000E+00 -.30921494E+04 0.30921494E+04 0.32000000E+00 0.0000E+00 0.9000E+01
       25  1    1    2    0    0 0.20667305E+03 0.45319670E+03 -.80777462E+03 0.95719686E+03 0.12500000E+03 0.0000E+00 0.9000E+01
       -1  1    1    2    0  501 -.65054952E+01 -.71072457E+02 0.73590416E+02 0.10251472E+03 0.32000000E+00 0.0000E+00 0.9000E+01
        2  1    1    2  502    0 -.20186219E+03 -.32187802E+03 -.14093413E+04 0.14596564E+04 0.32000000E+00 0.0000E+00 0.9000E+01
       21  1    1    2  503  502 0.16946371E+01 -.60246227E+02 -.75950886E+03 0.76189681E+03 0.75000000E+00 0.0000E+00 0.9000E+01
#aMCatNLO 2  0  0  2  5 0.60270056D+02 0.00000000D+00  -5  6  0 0.00000000D+00 0.00000000D+00 0.00000000D+00 0.00000000D+00 0.00000000D+00
  <mgrwgt>
 0.1947408414D-02    3    2    0
 0.661226315055571D+03 0.000000000000000D+00 0.000000000000000D+00 0.661226315055571D+03
 0.661226315055571D+03 0.000000000000000D+00 0.000000000000000D+00 -.661226315055571D+03
 0.493918520637845D+03 0.207362102474647D+03 0.430312447217431D+03 0.127538722008794D+02
 0.317657797037355D+03 -.609785252079660D+01 -.854218445651979D+02 0.305896061897402D+03
 0.510876312435942D+03 -.201264249953851D+03 -.344890602652233D+03 -.318649934098281D+03
 0.000000000000000D+00 0.000000000000000D+00 -.000000000000000D+00 -.000000000000000D+00
 0.666117542841853D+03 0.000000000000000D+00 0.000000000000000D+00 0.666117542841853D+03
 0.877880221094936D+03 0.000000000000000D+00 0.000000000000000D+00 -.877880221094936D+03
 0.513768976545961D+03 0.206716794346165D+03 0.453253865885569D+03 0.127538722008794D+02
 0.314103817727537D+03 -.650242328942326D+01 -.710389056647103D+02 0.305896061897402D+03
 0.495952510889354D+03 -.201909008200329D+03 -.321968732898360D+03 -.318649934098281D+03
 0.220172458773937D+03 0.169463714358778D+01 -.602462273224983D+02 -.211762678253083D+03
-.113084120416D-06 0.000000000000D+00 0.000000000000D+00 0.837364708907D-06 0.000000000000D+00  6 -1 2 25 -1 2 21 2 0.28880982D-01 0.47672940D+00 0.26278825D+06 0.26278825D+06 0.26278825D+06 0.10888329D+01  1  2 13  2  6  2        2 -.304766553376D-06 0.100000000000D+01
-.479117449115D-03 0.000000000000D+00 0.000000000000D+00 0.837364708907D-06 0.000000000000D+00  6 -1 2 25 -1 2 21 2 0.28880982D-01 0.48540930D+00 0.26278825D+06 0.26278825D+06 0.26278825D+06 0.10888329D+01  1  2 13  2  6  2        2 -.118688074200D-02 0.100000000000D+01
0.116612549729D-02 0.000000000000D+00 0.000000000000D+00 0.837364708907D-06 0.402201377269D-08  6 -1 2 25 -1 2 21 2 0.29094621D-01 0.47571486D+00 0.26278825D+06 0.26278825D+06 0.26278825D+06 0.10888329D+01  1  2  1  2  6  2        2 0.313459392225D-02 0.100000000000D+01
  </mgrwgt>
  </event>
  <event>
  6     66 0.22518659E-05 0.40758547E+02 0.75467711E-02 0.90309182E-01
       -1 -1    0    0    0  503 0.00000000E+00 0.00000000E+00 0.48512592E+03 0.48512603E+03 0.32000000E+00 0.0000E+00 0.9000E+01
        2 -1    0    0  502    0 0.00000000E+00 0.00000000E+00 -.20167611E+04 0.20167612E+04 0.32000000E+00 0.0000E+00 0.9000E+01
       25  1    1    2    0    0 0.48201372E+03 0.47128453E+03 -.78896258E+03 0.10452432E+04 0.12500000E+03 0.0000E+00 0.9000E+01
       -1  1    1    2    0  501 -.47196613E+03 -.46311401E+03 -.12404024E+03 0.67276496E+03 0.32000000E+00 0.0000E+00 0.9000E+01
        2  1    1    2  502    0 0.32268035E+02 0.57306191E+02 -.68091996E+03 0.68408868E+03 0.32000000E+00 0.0000E+00 0.9000E+01
       21  1    1    2  501  503 -.42315630E+02 -.65476711E+02 0.62287580E+02 0.99790367E+02 0.75000000E+00 0.0000E+00 0.9000E+01
#aMCatNLO 2  0  0  1  1 0.20445722D+03 0.00000000D+00  -5  6  0 0.00000000D+00 0.00000000D+00 0.00000000D+00 0.00000000D+00 0.00000000D+00
  <mgrwgt>
 0.4635113698D-02    1    2    0
 0.897691685976311D+03 0.000000000000000D+00 0.000000000000000D+00 0.897691685976311D+03
 0.897691685976311D+03 0.000000000000000D+00 0.000000000000000D+00 -.897691685976311D+03
 0.669469872473682D+03 0.465908847177444D+03 0.446366377978840D+03 -.127479068406402D+03
 0.817997384959711D+03 -.490894044442150D+03 -.492404085908764D+03 0.430907153703102D+03
 0.307916114519228D+03 0.249851972647061D+02 0.460377079299240D+02 -.303428085296700D+03
 0.000000000000000D+00 -.000000000000000D+00 -.000000000000000D+00 0.000000000000000D+00
 0.107873692813154D+04 0.000000000000000D+00 0.000000000000000D+00 0.107873692813154D+04
 0.906969666999376D+03 0.000000000000000D+00 0.000000000000000D+00 -.906969666999376D+03
 0.697360547949573D+03 0.482008765811787D+03 0.471278442786600D+03 -.127479068406402D+03
 0.789240528271050D+03 -.471962361884899D+03 -.463110316573799D+03 0.430907153703102D+03
 0.310474121024972D+03 0.322692263057417D+02 0.573085849854642D+02 -.303428085296700D+03
 0.188631397885322D+03 -.423156302326291D+02 -.654767111982654D+02 0.171767261132164D+03
0.242724969157D-02 0.000000000000D+00 0.000000000000D+00 0.702018485669D-06 0.113209347916D-08  6 -1 2 25 -1 2 21 2 0.74634707D-01 0.31027070D+00 0.55544609D+06 0.55544609D+06 0.55544609D+06 0.10652974D+01  1  2  1  1  6  1       -1 0.463511369820D-02 0.100000000000D+01
  </mgrwgt>
  </event>
  <event>
  5     66 0.22518659E-05 0.14225208E+02 0.75467711E-02 0.78372624E-01
       -1 -1    0    0    0  501 0.00000000E+00 0.00000000E+00 0.11138398E+04 0.11138399E+04 0.32000000E+00 0.0000E+00 0.9000E+01
        2 -1    0    0  502    0 0.00000000E+00 0.00000000E+00 -.14921222E+04 0.14921222E+04 0.32000000E+00 0.0000E+00 0.9000E+01
       25  1    1    2    0    0 0.49127016E+03 0.32820223E+03 0.51614008E+02 0.60609577E+03 0.12500000E+03 0.0000E+00 0.9000E+01
       -1  1    1    2    0  501 0.13904964E+02 0.30100715E+01 0.70981889E+03 0.70996152E+03 0.32000000E+00 0.0000E+00 0.9000E+01
        2  1    1    2  502    0 -.50517512E+03 -.33121231E+03 -.11397152E+04 0.12899048E+04 0.32000000E+00 0.0000E+00 0.9000E+01
#aMCatNLO 1  0  0  2  5 0.63454988D+02 0.00000000D+00  -5  6  0 0.00000000D+00 0.00000000D+00 0.00000000D+00 0.00000000D+00 0.00000000D+00
  <mgrwgt>
 0.2165158197D-01    5    2    0
 0.128918006881680D+04 0.000000000000000D+00 0.000000000000000D+00 0.128918006881680D+04
 0.128918006881680D+04 0.000000000000000D+00 0.000000000000000D+00 -.128918006881680D+04
 0.620243069443890D+03 0.491329170323234D+03 0.328240414813276D+03 0.141174862018242D+03
 0.821596758003818D+03 0.139031770253258D+02 0.300968461795501D+01 0.821473600445862D+03
 0.113652031018589D+04 -.505232347348559D+03 -.331250099431231D+03 -.962648462464104D+03
 0.000000000000000D+00 -.000000000000000D+00 0.000000000000000D+00 -.000000000000000D+00
 0.255789678371390D+04 0.000000000000000D+00 0.000000000000000D+00 0.255789678371390D+04
 0.422259542259963D+04 0.000000000000000D+00 0.000000000000000D+00 -.422259542259963D+04
 0.645330475841833D+03 0.586071453931818D+03 -.193433017529638D+03 0.141174862018242D+03
 0.117091398350179D+04 0.163064810869573D+03 -.818309567331710D+03 0.821473600445862D+03
 0.185987465443472D+04 -.280918791965787D+03 -.156637361451368D+04 -.962648462464104D+03
 0.310437309253519D+04 -.468217472835603D+03 0.257811619937503D+04 -.166469863888573D+04
0.362092065273D-01 0.000000000000D+00 0.000000000000D+00 0.551936176540D-04 0.000000000000D+00  6 -1 2 25 -1 2 21 0 0.17135998D+00 0.22955727D+00 0.37352208D+06 0.37352208D+06 0.37352208D+06 0.10775784D+01  1  2  2  2  6  2        2 0.156248131611D-01 0.100000000000D+01
0.377622960043D-01 0.000000000000D+00 -.139052887168D-03 0.551936176540D-04 0.000000000000D+00  6 -1 2 25 -1 2 21 2 0.17135998D+00 0.22955727D+00 0.37352208D+06 0.37352208D+06 0.37352208D+06 0.10775784D+01  1  2  3  2  6  2        2 0.189213437098D-01 0.100000000000D+01
-.257719977875D-01 0.000000000000D+00 0.000000000000D+00 0.551936176540D-04 0.000000000000D+00  6 -1 2 25 -1 2 21 2 0.17135998D+00 0.22955727D+00 0.37352208D+06 0.37352208D+06 0.37352208D+06 0.10775784D+01  1  2 15  2  6  2        2 -.129134316454D-01 0.100000000000D+01
0.421991624013D-01 0.000000000000D+00 -.238330099890D-01 0.551936176540D-04 0.000000000000D+00  6 -1 2 25 -1 2 21 2 0.17135998D+00 0.81666094D+00 0.37352208D+06 0.37352208D+06 0.37352208D+06 0.10775784D+01  1  2  5  2  6  2        2 0.188419694502D-04 0.100000000000D+01
0.698938615615D-02 0.000000000000D+00 -.354802667164D-02 0.551936176540D-04 0.000000000000D+00  6 -1 21 25 -1 2 -2 2 0.17135998D+00 0.81666094D+00 0.37352208D+06 0.37352208D+06 0.37352208D+06 0.10775784D+01  1  2  5  6  6  2        2 0.147711305863D-07 0.100000000000D+01
  </mgrwgt>
  </event>
  <event>
  5     66 0.22518659E-05 0.19340433E+03 0.75467711E-02 0.84031286E-01
       -1 -1    0    0    0  501 0.00000000E+00 0.00000000E+00 0.99214659E+03 0.99214665E+03 0.32000000E+00 0.0000E+00 0.9000E+01
        2 -1    0    0  502    0 0.00000000E+00 0.00000000E+00 -.21471812E+04 0.21471812E+04 0.32000000E+00 0.0000E+00 0.9000E+01
       25  1    1    2    0    0 0.10511669E+04 0.12057052E+01 -.73995477E+03 0.12915538E+04 0.12500000E+03 0.0000E+00 0.9000E+01
       -1  1    1    2    0  501 -.10539706E+02 -.19316150E+03 0.44429804E+03 0.48458570E+03 0.32000000E+00 0.0000E+00 0.9000E+01
        2  1    1    2  502    0 -.10406272E+04 0.19195580E+03 -.85937784E+03 0.13631883E+04 0.32000000E+00 0.0000E+00 0.9000E+01
#aMCatNLO 1  0  0  2  1 0.54394434D+03 0.00000000D+00  -5  6  0 0.00000000D+00 0.00000000D+00 0.00000000D+00 0.00000000D+00 0.00000000D+00
  <mgrwgt>
 0.3342715901D-04    7    2    0
 0.145956109933679D+04 0.000000000000000D+00 0.000000000000000D+00 0.145956109933679D+04
 0.145956109933679D+04 0.000000000000000D+00 0.000000000000000D+00 -.145956109933679D+04
 0.109628286776808D+04 0.105127635512534D+04 0.117185090241203D+01 -.284653786346950D+03
 0.696779586490690D+03 -.105372810467029D+02 -.193117066711440D+03 0.669400146700797D+03
 0.112605974441482D+04 -.104073907407864D+04 0.191945215809028D+03 -.384746360353847D+03
 0.000000000000000D+00 -.000000000000000D+00 -.000000000000000D+00 -.000000000000000D+00
 0.166461653202344D+04 0.000000000000000D+00 0.000000000000000D+00 0.166461653202344D+04
 0.189577717802883D+04 0.000000000000000D+00 0.000000000000000D+00 -.189577717802883D+04
 0.127469994993286D+04 0.122951533953653D+04 0.128449266722494D+03 -.284653786346950D+03
 0.686263238681400D+03 0.934331681339012D+02 -.118873543965417D+03 0.669400146700797D+03
 0.100840540641068D+04 -.880280340297880D+03 0.306526058203540D+03 -.384746360353847D+03
 0.591025115027336D+03 -.442668167372554D+03 -.316101780960617D+03 -.231160646005384D+03
0.744496976374D-04 0.000000000000D+00 0.000000000000D+00 0.178101385174D-07 0.000000000000D+00  6 -1 2 25 -1 2 21 0 0.15263794D+00 0.33033557D+00 0.13344618D+07 0.13344618D+07 0.13344618D+07 0.10396232D+01  1  2  2  2  6  2        2 0.179527128714D-04 0.100000000000D+01
0.127603671789D-04 0.000000000000D+00 -.285906441983D-06 0.178101385174D-07 0.000000000000D+00  6 -1 2 25 -1 2 21 2 0.15263794D+00 0.33033557D+00 0.13344618D+07 0.13344618D+07 0.13344618D+07 0.10396232D+01  1  2  3  2  6  2        2 0.332569378376D-05 0.100000000000D+01
-.500254258161D-04 0.000000000000D+00 0.000000000000D+00 0.178101385174D-07 0.000000000000D+00  6 -1 2 25 -1 2 21 2 0.15263794D+00 0.33033557D+00 0.13344618D+07 0.13344618D+07 0.13344618D+07 0.10396232D+01  1  2 15  2  6  2        2 -.130379671160D-04 0.100000000000D+01
-.265846020076D-04 0.000000000000D+00 0.000000000000D+00 0.178101385174D-07 0.000000000000D+00  6 -1 2 25 -1 2 21 2 0.15263794D+00 0.33033557D+00 0.13344618D+07 0.13344618D+07 0.13344618D+07 0.10396232D+01  1  2  4  2  6  2        2 -.692865999863D-05 0.100000000000D+01
-.167897338500D-03 0.000000000000D+00 -.632769318929D-04 0.178101385174D-07 0.000000000000D+00  6 -1 2 25 -1 2 21 2 0.15263794D+00 0.44886987D+00 0.13344618D+07 0.13344618D+07 0.13344618D+07 0.10396232D+01  1  2  5  2  6  2        2 -.151723732570D-04 0.100000000000D+01
0.181559869305D-03 0.000000000000D+00 0.604145737448D-04 0.178101385174D-07 0.000000000000D+00  6 -1 2 25 -1 2 21 2 0.15263794D+00 0.33033557D+00 0.13344618D+07 0.13344618D+07 0.13344618D+07 0.10396232D+01  1  2  6  2  6  2        2 0.473193694400D-04 0.100000000000D+01
-.512581115134D-05 0.000000000000D+00 -.248486414379D-05 0.178101385174D-07 0.000000000000D+00  6 -1 21 25 -1 2 -2 2 0.15263794D+00 0.44886987D+00 0.13344618D+07 0.13344618D+07 0.13344618D+07 0.10396232D+01  1  2  5  6  6  2        2 -.316167183943D-07 0.100000000000D+01
  </mgrwgt>
  </event>
  <event>
  6     66 0.22518659E-05 0.10978124E+03 0.75467711E-02 0.94786022E-01
       -1 -1    0    0    0  501 0.00000000E+00 0.00000000E+00 0.67637792E+03 0.67637799E+03 0.32000000E+00 0.0000E+00 0.9000E+01
        2 -1    0    0  502    0 -.00000000E+00 -.00000000E+00 -.22036857E+04 0.22036857E+04 0.32000000E+00 0.0000E+00 0.9000E+01
       25  1    1    2    0    0 0.45155015E+03 0.74354678E+02 0.98473117E+02 0.48450812E+03 0.12500000E+03 0.0000E+00 0.9000E+01
       -1  1    1    2    0  501 -.87608719E+02 0.49928709E+02 0.35439537E+03 0.36846213E+03 0.32000000E+00 0.0000E+00 0.9000E+01
        2  1    1    2  503    0 -.15915979E+03 0.19739944E+02 -.47775599E+03 0.50395674E+03 0.32000000E+00 0.0000E+00 0.9000E+01
       21  1    1    2  502  503 -.20478165E+03 -.14402333E+03 -.15024203E+04 0.15231367E+04 0.75000000E+00 0.0000E+00 0.9000E+01
#aMCatNLO 2  0  0  5  2 0.15176604D+02 0.00000000D+00  -5  6  0 0.00000000D+00 0.00000000D+00 0.00000000D+00 0.00000000D+00 0.00000000D+00
  <mgrwgt>
 0.1750764905D-02    1    2    0
 0.122087037496182D+04 0.000000000000000D+00 0.000000000000000D+00 0.122087037496182D+04
 0.122087037496182D+04 -.000000000000000D+00 -.000000000000000D+00 -.122087037496182D+04
 0.637139317438002D+03 0.453043144875122D+03 0.748772340590248D+02 0.423635242309575D+03
 0.660414731242711D+03 -.860716405068633D+02 0.504395218873774D+02 0.652836231052331D+03
 0.114418670124293D+04 -.366971504368260D+03 -.125316755946402D+03 -.107647147336191D+04
 0.000000000000000D+00 0.000000000000000D+00 0.000000000000000D+00 -.000000000000000D+00
 0.122087037496182D+04 0.000000000000000D+00 0.000000000000000D+00 0.122087037496182D+04
 0.122087037496182D+04 -.000000000000000D+00 -.000000000000000D+00 -.122087037496182D+04
 0.633180795402477D+03 0.451576375303766D+03 0.743763482893796D+02 0.419332631390836D+03
 0.656168432655893D+03 -.875918275081139D+02 0.499203946495376D+02 0.648376925843227D+03
 0.295175317058861D+03 -.158970539991131D+03 0.197322876568703D+02 -.247926343980534D+03
 0.857216204806416D+03 -.205014007804521D+03 -.144029030595788D+03 -.819783213253529D+03
0.212974858891D-02 0.000000000000D+00 0.000000000000D+00 0.298824743554D-04 0.422012210350D-08  6 -1 2 25 -1 2 21 2 0.10405815D+00 0.33902857D+00 0.24304040D+06 0.24304040D+06 0.24304040D+06 0.10913827D+01  1  2  1  4  6  5        2 0.175076490509D-02 0.100000000000D+01
  </mgrwgt>
  </event>
  <event>
  5     66 0.22518659E-05 0.48077308E+02 0.75467711E-02 0.87680741E-01
       -1 -1    0    0    0  501 0.00000000E+00 0.00000000E+00 0.11889509E+04 0.11889510E+04 0.32000000E+00 0.0000E+00 0.9000E+01
        2 -1    0    0  502    0 0.00000000E+00 0.00000000E+00 -.24066070E+04 0.24066070E+04 0.32000000E+00 0.0000E+00 0.9000E+01
       25  1    1    2    0    0 0.37045788E+03 0.67810207E+03 -.10371681E+03 0.78958447E+03 0.12500000E+03 0.0000E+00 0.9000E+01
       -1  1    1    2    0  501 -.32482549E+03 -.69322590E+03 0.67244136E+03 0.10189461E+04 0.32000000E+00 0.0000E+00 0.9000E+01
        2  1    1    2  502    0 -.45632384E+02 0.15123829E+02 -.17863806E+04 0.17870274E+04 0.32000000E+00 0.0000E+00 0.9000E+01
#aMCatNLO 1  0  0  2  5 0.26331528D+02 0.00000000D+00  -5  6  0 0.00000000D+00 0.00000000D+00 0.00000000D+00 0.00000000D+00 0.00000000D+00
  <mgrwgt>
 0.3404047890D-02    7    2    0
 0.169154891410968D+04 0.000000000000000D+00 0.000000000000000D+00 0.169154891410968D+04
 0.169154891410968D+04 0.000000000000000D+00 0.000000000000000D+00 -.169154891410968D+04
 0.801833371714073D+03 0.370447056857069D+03 0.678069695093676D+03 0.174075336150366D+03
 0.132490407292595D+04 -.324810854201829D+03 -.693194660509429D+03 0.108136482007215D+04
 0.125636038357934D+04 -.456362026552396D+02 0.151249654157531D+02 -.125544015622252D+04
 0.000000000000000D+00 -.000000000000000D+00 0.000000000000000D+00 -.000000000000000D+00
 0.182643296279787D+04 0.000000000000000D+00 0.000000000000000D+00 0.182643296279787D+04
 0.187869968084246D+04 0.000000000000000D+00 0.000000000000000D+00 -.187869968084246D+04
 0.804603625171689D+03 0.433418710259483D+03 0.643123621538322D+03 0.174075336150366D+03
 0.133494423404967D+04 -.220545921300899D+03 -.751056409685931D+03 0.108136482007215D+04
 0.125717628446898D+04 0.528933756484488D+02 -.395539528711025D+02 -.125544015622252D+04
 0.308408499949993D+03 -.265766164607033D+03 0.147486741018712D+03 -.522667180445826D+02
0.105800672464D-01 0.000000000000D+00 0.000000000000D+00 0.285820368495D-04 0.000000000000D+00  6 -1 2 25 -1 2 21 0 0.18291553D+00 0.37024723D+00 0.63704908D+06 0.63704908D+06 0.63704908D+06 0.10611537D+01  1  2  2  2  6  2        2 0.108653535552D-02 0.100000000000D+01
0.682122470643D-02 0.000000000000D+00 -.406302440217D-04 0.285820368495D-04 0.000000000000D+00  6 -1 2 25 -1 2 21 2 0.18291553D+00 0.37024723D+00 0.63704908D+06 0.63704908D+06 0.63704908D+06 0.10611537D+01  1  2  3  2  6  2        2 0.788813591012D-03 0.100000000000D+01
-.738450871887D-02 0.000000000000D+00 0.000000000000D+00 0.285820368495D-04 0.000000000000D+00  6 -1 2 25 -1 2 21 2 0.18291553D+00 0.37024723D+00 0.63704908D+06 0.63704908D+06 0.63704908D+06 0.10611537D+01  1  2 15  2  6  2        2 -.853952345962D-03 0.100000000000D+01
-.555082321574D-03 0.000000000000D+00 0.000000000000D+00 0.285820368495D-04 0.000000000000D+00  6 -1 2 25 -1 2 21 2 0.18291553D+00 0.37024723D+00 0.63704908D+06 0.63704908D+06 0.63704908D+06 0.10611537D+01  1  2  4  2  6  2        2 -.641903028023D-04 0.100000000000D+01
-.508922553914D-01 0.000000000000D+00 -.170490721637D-01 0.285820368495D-04 0.000000000000D+00  6 -1 2 25 -1 2 21 2 0.18291553D+00 0.42371842D+00 0.63704908D+06 0.63704908D+06 0.63704908D+06 0.10611537D+01  1  2  5  2  6  2        2 -.366052991291D-02 0.100000000000D+01
0.528643716716D-01 0.000000000000D+00 0.168951143798D-01 0.285820368495D-04 0.000000000000D+00  6 -1 2 25 -1 2 21 2 0.18291553D+00 0.37024723D+00 0.63704908D+06 0.63704908D+06 0.63704908D+06 0.10611537D+01  1  2  6  2  6  2        2 0.611329147617D-02 0.100000000000D+01
-.966798067119D-03 0.000000000000D+00 -.356602492078D-03 0.285820368495D-04 0.000000000000D+00  6 -1 21 25 -1 2 -2 2 0.18291553D+00 0.42371842D+00 0.63704908D+06 0.63704908D+06 0.63704908D+06 0.10611537D+01  1  2  5  6  6  2        2 -.591997082922D-05 0.100000000000D+01
  </mgrwgt>
  </event>
  <event>
  5     66 0.22518659E-05 0.32749422E+02 0.75467711E-02 0.91977465E-01
       -1 -1    0    0    0  501 0.00000000E+00 0.00000000E+00 0.50325678E+03 0.50325688E+03 0.32000000E+00 0.0000E+00 0.9000E+01
        2 -1    0    0  502    0 0.00000000E+00 0.00000000E+00 -.23055129E+04 0.23055129E+04 0.32000000E+00 0.0000E+00 0.9000E+01
       25  1    1    2    0    0 0.19060458E+03 -.55669785E+03 0.21785083E+03 0.63978636E+03 0.12500000E+03 0.0000E+00 0.9000E+01
       -1  1    1    2    0  501 -.63097088E+01 0.32253443E+02 0.30213357E+02 0.44643548E+02 0.32000000E+00 0.0000E+00 0.9000E+01
        2  1    1    2  502    0 -.18429487E+03 0.52444440E+03 -.20503203E+04 0.21243399E+04 0.32000000E+00 0.0000E+00 0.9000E+01
#aMCatNLO 1  0  0  1  4 0.84081057D+02 0.00000000D+00  -5  6  0 0.00000000D+00 0.00000000D+00 0.00000000D+00 0.00000000D+00 0.00000000D+00
  <mgrwgt>
 0.2437954778D-03    7    2    0
 0.107715604890827D+04 0.000000000000000D+00 0.000000000000000D+00 0.107715604890827D+04
 0.107715604890827D+04 0.000000000000000D+00 0.000000000000000D+00 -.107715604890827D+04
 0.101662090961697D+04 0.190611696858983D+03 -.556672053611729D+03 0.819558710293940D+03
 0.831879439615811D+02 -.628755168740390D+01 0.321401824795832D+02 0.764703170159016D+02
 0.105450324423799D+04 -.184324145171579D+03 0.524531871132146D+03 -.896029027309841D+03
 0.000000000000000D+00 0.000000000000000D+00 0.000000000000000D+00 0.000000000000000D+00
 0.128027003705787D+04 0.000000000000000D+00 0.000000000000000D+00 0.128027003705787D+04
 0.108671296401709D+04 0.000000000000000D+00 0.000000000000000D+00 -.108671296401709D+04
 0.103522651988472D+04 0.176817596487663D+03 -.594245744979546D+03 0.819558710293940D+03
 0.821582924210586D+02 -.739913656836943D+01 0.291123411472575D+02 0.764703170159016D+02
 0.103856746893521D+04 -.198395380238405D+03 0.486203293745237D+03 -.896029027309841D+03
 0.211030719833977D+03 0.289769203191108D+02 0.789301100870512D+02 0.193557073040777D+03
0.453070483486D-04 0.000000000000D+00 0.000000000000D+00 0.828960063646D-06 0.000000000000D+00  6 -1 2 25 -1 2 21 0 0.77424129D-01 0.35469430D+00 0.35417847D+06 0.35417847D+06 0.35417847D+06 0.10792575D+01  1  2  2  1  6  1       -1 0.502628040346D-04 0.100000000000D+01
0.105586474873D-04 0.000000000000D+00 -.173990995279D-06 0.828960063646D-06 0.000000000000D+00  6 -1 2 25 -1 2 21 2 0.77424129D-01 0.35469430D+00 0.35417847D+06 0.35417847D+06 0.35417847D+06 0.10792575D+01  1  2  3  1  6  1       -1 0.136439267382D-04 0.100000000000D+01
-.329031829651D-04 0.000000000000D+00 0.000000000000D+00 0.828960063646D-06 0.000000000000D+00  6 -1 2 25 -1 2 21 2 0.77424129D-01 0.35469430D+00 0.35417847D+06 0.35417847D+06 0.35417847D+06 0.10792575D+01  1  2 15  1  6  1       -1 -.425176253273D-04 0.100000000000D+01
-.752069380753D-05 0.000000000000D+00 0.000000000000D+00 0.828960063646D-06 0.000000000000D+00  6 -1 2 25 -1 2 21 2 0.77424129D-01 0.35469430D+00 0.35417847D+06 0.35417847D+06 0.35417847D+06 0.10792575D+01  1  2  4  1  6  1       -1 -.971827077790D-05 0.100000000000D+01
-.963342796715D-03 0.000000000000D+00 -.810144724314D-04 0.828960063646D-06 0.000000000000D+00  6 -1 2 25 -1 2 21 2 0.92425498D-01 0.35469430D+00 0.35417847D+06 0.35417847D+06 0.35417847D+06 0.10792575D+01  1  2  5  1  6  1       -1 -.858796537871D-03 0.100000000000D+01
0.963790310427D-03 0.000000000000D+00 0.797603194518D-04 0.828960063646D-06 0.000000000000D+00  6 -1 2 25 -1 2 21 2 0.77424129D-01 0.35469430D+00 0.35417847D+06 0.35417847D+06 0.35417847D+06 0.10792575D+01  1  2  6  1  6  1       -1 0.124541371442D-02 0.100000000000D+01
-.243309433913D-04 0.000000000000D+00 -.210968275545D-05 0.828960063646D-06 0.000000000000D+00  6 21 2 25 -1 2 1 2 0.92425498D-01 0.35469430D+00 0.35417847D+06 0.35417847D+06 0.35417847D+06 0.10792575D+01  1  2  5  5  6  1       -1 -.154492533440D-03 0.100000000000D+01
  </mgrwgt>
  </event>
  <event>
  5     66 -.22518659E-05 0.43880699E+02 0.75467711E-02 0.93296678E-01
       -1 -1    0    0    0  501 0.00000000E+00 0.00000000E+00 0.39576832E+03 0.39576845E+03 0.32000000E+00 0.0000E+00 0.9000E+01
        2 -1    0    0  502    0 -.00000000E+00 -.00000000E+00 -.17613162E+04 0.17613162E+04 0.32000000E+00 0.0000E+00 0.9000E+01
       25  1    1    2    0    0 0.54704622E+03 0.46833144E+02 -.44137266E+03 0.71546330E+03 0.12500000E+03 0.0000E+00 0.9000E+01
       -1  1    1    2    0  501 -.33446871E+02 0.28427386E+02 0.19927236E+03 0.20404996E+03 0.32000000E+00 0.0000E+00 0.9000E+01
        2  1    1    2  502    0 -.51359935E+03 -.75260531E+02 -.11234476E+04 0.12375714E+04 0.32000000E+00 0.0000E+00 0.9000E+01
#aMCatNLO 1  0  0  4  1 0.96925285D+01 0.00000000D+00  -5  6  0 0.00000000D+00 0.00000000D+00 0.00000000D+00 0.00000000D+00 0.00000000D+00
  <mgrwgt>
 -.5494494866D-04    1    2    0
 0.834909171560902D+03 0.000000000000000D+00 0.000000000000000D+00 0.834909171560902D+03
 0.834909171560902D+03 -.000000000000000D+00 -.000000000000000D+00 -.834909171560902D+03
 0.563382587684336D+03 0.547132267752672D+03 0.468519319012554D+02 0.150372260353461D+02
 0.426411431334120D+03 -.334356407851551D+02 0.284178413216412D+02 0.424147607552273D+03
 0.680024324103348D+03 -.513696626967517D+03 -.752697732228965D+02 -.439184833587619D+03
 0.000000000000000D+00 0.000000000000000D+00 0.000000000000000D+00 0.000000000000000D+00
 0.834909171560902D+03 0.000000000000000D+00 0.000000000000000D+00 0.834909171560902D+03
 0.834909171560902D+03 -.000000000000000D+00 -.000000000000000D+00 -.834909171560902D+03
 0.563002716139852D+03 0.546261759207424D+03 0.475918002910060D+02 0.260800566242157D+02
 0.110666115126842D+03 -.708160468882651D+02 -.222205299798636D+02 0.820872985777979D+02
 0.672239468176585D+03 -.514741702025414D+03 -.743815361062408D+02 -.425927540617876D+03
 0.323910043678525D+03 0.392959897062558D+02 0.490102657950985D+02 0.317760185415863D+03
-.131157226775D-04 0.000000000000D+00 0.000000000000D+00 0.399649249334D-05 0.000000000000D+00  6 -1 2 25 -1 2 21 2 0.60887446D-01 0.27097174D+00 0.31710661D+06 0.31710661D+06 0.31710661D+06 0.10827745D+01  1  2 14  3  6  4       -1 -.549449486603D-04 0.100000000000D+01
  </mgrwgt>
  </event>
  <event>
  5     66 -.22518659E-05 0.11582961E+02 0.75467711E-02 0.94962585E-01
       -1 -1    0    0    0  501 0.00000000E+00 0.00000000E+00 0.96869067E+02 0.96869595E+02 0.32000000E+00 0.0000E+00 0.9000E+01
        2 -1    0    0  502    0 -.00000000E+00 -.00000000E+00 -.42276657E+04 0.42276657E+04 0.32000000E+00 0.0000E+00 0.9000E+01
       25  1    1    2    0    0 -.25111733E+03 0.39283968E+03 -.14430185E+04 0.15216144E+04 0.12500000E+03 0.0000E+00 0.9000E+01
       -1  1    1    2    0  501 -.10294309E+02 0.53287523E+01 0.35993738E+02 0.37815605E+02 0.32000000E+00 0.0000E+00 0.9000E+01
        2  1    1    2  502    0 0.26141164E+03 -.39816843E+03 -.27237719E+04 0.27651053E+04 0.32000000E+00 0.0000E+00 0.9000E+01
#aMCatNLO 1  0  0  5  2 0.51678166D+01 0.00000000D+00  -5  6  0 0.00000000D+00 0.00000000D+00 0.00000000D+00 0.00000000D+00 0.00000000D+00
  <mgrwgt>
 -.7953418297D-03    1    2    0
 0.639946246316058D+03 0.000000000000000D+00 0.000000000000000D+00 0.639946246316058D+03
 0.639946246316058D+03 -.000000000000000D+00 -.000000000000000D+00 -.639946246316058D+03
 0.484116149509431D+03 -.251184560108729D+03 0.392937777576809D+03 0.353506143061267D+02
 0.243755670855040D+03 -.102865137612605D+02 0.532471745507697D+01 0.243480311509275D+03
 0.552020672267645D+03 0.261471073869989D+03 -.398262495031886D+03 -.278830925815402D+03
 0.000000000000000D+00 0.000000000000000D+00 0.000000000000000D+00 0.000000000000000D+00
 0.639946246316058D+03 0.000000000000000D+00 0.000000000000000D+00 0.639946246316058D+03
 0.639946246316058D+03 -.000000000000000D+00 -.000000000000000D+00 -.639946246316058D+03
 0.448858479096073D+03 -.231696320629162D+03 0.363254054769405D+03 0.145684919238179D+02
 0.233067316765740D+03 -.326499536644906D+00 -.984598596896917D+01 0.232859021948331D+03
 0.468965008978047D+03 0.105967568342183D+03 -.380187115558128D+03 -.253291948685731D+03
 0.129001687792256D+03 0.126055251823624D+03 0.267790467576928D+02 0.586443481358170D+01
-.694802055047D-03 0.000000000000D+00 0.000000000000D+00 0.257234415969D-05 0.000000000000D+00  6 -1 2 25 -1 2 21 2 0.14902975D-01 0.65041015D+00 0.23562823D+06 0.23562823D+06 0.23562823D+06 0.10923988D+01  1  2 14  4  6  5        2 -.795341829717D-03 0.100000000000D+01
  </mgrwgt>
  </event>
  <event>
  5     66 0.22518659E-05 0.55538029E+02 0.75467711E-02 0.91779702E-01
       -1 -1    0    0    0  501 0.00000000E+00 0.00000000E+00 0.47322625E+03 0.47322636E+03 0.32000000E+00 0.0000E+00 0.9000E+01
        2 -1    0    0  502    0 0.00000000E+00 0.00000000E+00 -.20250598E+04 0.20250599E+04 0.32000000E+00 0.0000E+00 0.9000E+01
       25  1    1    2    0    0 0.57010602E+03 -.14397498E+03 -.19900058E+03 0.63322658E+03 0.12500000E+03 0.0000E+00 0.9000E+01
       -1  1    1    2    0  501 -.52840449E+02 -.17167505E+02 0.20673202E+03 0.21406790E+03 0.32000000E+00 0.0000E+00 0.9000E+01
        2  1    1    2  502    0 -.51726557E+03 0.16114248E+03 -.15595650E+04 0.16509917E+04 0.32000000E+00 0.0000E+00 0.9000E+01
#aMCatNLO 1  0  0  1  2 0.61003628D+03 0.00000000D+00  -5  6  0 0.00000000D+00 0.00000000D+00 0.00000000D+00 0.00000000D+00 0.00000000D+00
  <mgrwgt>
 0.3039879969D-02    7    2    0
 0.978933926494826D+03 0.000000000000000D+00 0.000000000000000D+00 0.978933926494826D+03
 0.978933926494826D+03 0.000000000000000D+00 0.000000000000000D+00 -.978933926494826D+03
 0.650404167451429D+03 0.570171843138451D+03 -.144005217380874D+03 0.248127281243668D+03
 0.436846996760824D+03 -.528202148293643D+02 -.171609307223260D+02 0.433302233944247D+03
 0.870616688777399D+03 -.517351628309087D+03 0.161166148103200D+03 -.681429515187915D+03
 0.000000000000000D+00 0.000000000000000D+00 -.000000000000000D+00 0.000000000000000D+00
 0.105092333047647D+04 0.000000000000000D+00 0.000000000000000D+00 0.105092333047647D+04
 0.100598109337227D+04 0.000000000000000D+00 0.000000000000000D+00 -.100598109337227D+04
 0.638527832390033D+03 0.562964989296031D+03 -.116602169217639D+03 0.248127281243668D+03
 0.437130336182140D+03 -.577069170765603D+02 0.142006730639685D+01 0.433302233944247D+03
 0.884102926903930D+03 -.527162857921044D+03 0.198471968850457D+03 -.681429515187915D+03
 0.971433283726367D+02 0.219047857015730D+02 -.832898669392154D+02 0.449422371041971D+02
0.737489147131D-03 0.000000000000D+00 0.000000000000D+00 0.575688339079D-05 0.000000000000D+00  6 -1 2 25 -1 2 21 0 0.72804049D-01 0.31154768D+00 0.35917606D+06 0.35917606D+06 0.35917606D+06 0.10788143D+01  1  2  2  1  6  1       -1 0.132615500094D-02 0.100000000000D+01
0.246273942141D-03 0.000000000000D+00 -.283215251034D-05 0.575688339079D-05 0.000000000000D+00  6 -1 2 25 -1 2 21 2 0.72804049D-01 0.31154768D+00 0.35917606D+06 0.35917606D+06 0.35917606D+06 0.10788143D+01  1  2  3  1  6  1       -1 0.515407208212D-03 0.100000000000D+01
-.484718428544D-03 0.000000000000D+00 0.000000000000D+00 0.575688339079D-05 0.000000000000D+00  6 -1 2 25 -1 2 21 2 0.72804049D-01 0.31154768D+00 0.35917606D+06 0.35917606D+06 0.35917606D+06 0.10788143D+01  1  2 15  1  6  1       -1 -.101442876925D-02 0.100000000000D+01
-.567328753809D-04 0.000000000000D+00 0.000000000000D+00 0.575688339079D-05 0.000000000000D+00  6 -1 2 25 -1 2 21 2 0.72804049D-01 0.31154768D+00 0.35917606D+06 0.35917606D+06 0.35917606D+06 0.10788143D+01  1  2  4  1  6  1       -1 -.118731736942D-03 0.100000000000D+01
-.113799680921D-01 0.000000000000D+00 -.235317987428D-02 0.575688339079D-05 0.000000000000D+00  6 -1 2 25 -1 2 21 2 0.80039784D-01 0.31154768D+00 0.35917606D+06 0.35917606D+06 0.35917606D+06 0.10788143D+01  1  2  5  1  6  1       -1 -.196654634280D-01 0.100000000000D+01
0.115615227597D-01 0.000000000000D+00 0.234265583609D-02 0.575688339079D-05 0.000000000000D+00  6 -1 2 25 -1 2 21 2 0.72804049D-01 0.31154768D+00 0.35917606D+06 0.35917606D+06 0.35917606D+06 0.10788143D+01  1  2  6  1  6  1       -1 0.241961943535D-01 0.100000000000D+01
-.169380501376D-03 0.000000000000D+00 -.364758082573D-04 0.575688339079D-05 0.000000000000D+00  6 21 2 25 -1 2 1 2 0.80039784D-01 0.31154768D+00 0.35917606D+06 0.35917606D+06 0.35917606D+06 0.10788143D+01  1  2  5  5  6  1       -1 -.219925265913D-02 0.100000000000D+01
  </mgrwgt>
  </event>
  <event>
  5     66 0.22518659E-05 0.19647139E+03 0.75467711E-02 0.91950256E-01
       -1 -1    0    0    0  501 0.00000000E+00 0.00000000E+00 0.58754408E+03 0.58754417E+03 0.32000000E+00 0.0000E+00 0.9000E+01
        2 -1    0    0  502    0 0.00000000E+00 0.00000000E+00 -.15435793E+04 0.15435793E+04 0.32000000E+00 0.0000E+00 0.9000E+01
       25  1    1    2    0    0 -.43763783E+03 -.41801522E+03 -.39221448E+03 0.73192950E+03 0.12500000E+03 0.0000E+00 0.9000E+01
       -1  1    1    2    0  501 0.32569733E+03 0.25659079E+03 0.30098584E+03 0.51235746E+03 0.32000000E+00 0.0000E+00 0.9000E+01
        2  1    1    2  502    0 0.11194050E+03 0.16142443E+03 -.86480660E+03 0.88683656E+03 0.32000000E+00 0.0000E+00 0.9000E+01
#aMCatNLO 1  0  0  2  1 0.54362994D+02 0.00000000D+00  -5  6  0 0.00000000D+00 0.00000000D+00 0.00000000D+00 0.00000000D+00 0.00000000D+00
  <mgrwgt>
 0.6904371945D-03    9    2    0
 0.952324008910152D+03 0.000000000000000D+00 0.000000000000000D+00 0.952324008910152D+03
 0.952324008910152D+03 0.000000000000000D+00 0.000000000000000D+00 -.952324008910152D+03
 0.622073542555153D+03 -.437630507660052D+03 -.418019372343241D+03 -.713430827627039D+02
 0.724300086055770D+03 0.325670596912956D+03 0.256569732536170D+03 0.593903400657946D+03
 0.558274389209380D+03 0.111959910747096D+03 0.161449639807071D+03 -.522560317895242D+03
 0.000000000000000D+00 -.000000000000000D+00 0.000000000000000D+00 -.000000000000000D+00
 0.972312287574617D+03 0.000000000000000D+00 0.000000000000000D+00 0.972312287574617D+03
 0.990406582796361D+03 0.000000000000000D+00 0.000000000000000D+00 -.990406582796361D+03
 0.630158843562687D+03 -.432488835805154D+03 -.435130715493724D+03 -.713430827627039D+02
 0.720256700634595D+03 0.331601953628585D+03 0.236830339791307D+03 0.593903400657946D+03
 0.555008137535555D+03 0.116531053849425D+03 0.146237000723660D+03 -.522560317895242D+03
 0.572951886381410D+02 -.156441716728562D+02 0.520633749787577D+02 -.180942952217441D+02
0.934096554856D-04 0.000000000000D+00 0.000000000000D+00 0.492067887003D-06 0.000000000000D+00  6 -1 2 25 -1 2 21 0 0.90391406D-01 0.23747375D+00 0.37763225D+06 0.37763225D+06 0.37763225D+06 0.10772338D+01  1  2  2  2  6  2        2 0.196587011546D-03 0.100000000000D+01
0.973916374746D-05 0.000000000000D+00 -.358717672392D-06 0.492067887003D-06 0.000000000000D+00  6 -1 2 25 -1 2 21 2 0.90391406D-01 0.23747375D+00 0.37763225D+06 0.37763225D+06 0.37763225D+06 0.10772338D+01  1  2  3  2  6  2        2 0.237850842564D-04 0.100000000000D+01
-.658858163180D-04 0.000000000000D+00 0.000000000000D+00 0.492067887003D-06 0.000000000000D+00  6 -1 2 25 -1 2 21 2 0.90391406D-01 0.23747375D+00 0.37763225D+06 0.37763225D+06 0.37763225D+06 0.10772338D+01  1  2 15  2  6  2        2 -.160907007322D-03 0.100000000000D+01
0.330359689913D-07 0.000000000000D+00 0.000000000000D+00 0.492067887003D-06 0.000000000000D+00  6 -1 2 25 -1 2 21 2 0.90391406D-01 0.24938547D+00 0.40637396D+06 0.40637396D+06 0.40637396D+06 0.10749330D+01  1  2 12  2  6  2        2 0.725241062353D-07 0.100000000000D+01
-.167514161226D-04 0.000000000000D+00 0.000000000000D+00 0.492067887003D-06 0.000000000000D+00  6 -1 2 25 -1 2 21 2 0.90391406D-01 0.23747375D+00 0.37763225D+06 0.37763225D+06 0.37763225D+06 0.10772338D+01  1  2  4  2  6  2        2 -.409104779653D-04 0.100000000000D+01
-.272362162401D-02 0.000000000000D+00 -.465319020123D-03 0.492067887003D-06 0.000000000000D+00  6 -1 2 25 -1 2 21 2 0.90391406D-01 0.24972119D+00 0.37763225D+06 0.37763225D+06 0.37763225D+06 0.10772338D+01  1  2  5  2  6  2        2 -.601449526407D-02 0.100000000000D+01
0.274413878399D-02 0.000000000000D+00 0.464731271988D-03 0.492067887003D-06 0.000000000000D+00  6 -1 2 25 -1 2 21 2 0.90391406D-01 0.23747375D+00 0.37763225D+06 0.37763225D+06 0.37763225D+06 0.10772338D+01  1  2  6  2  6  2        2 0.670176350669D-02 0.100000000000D+01
0.427399173693D-09 0.000000000000D+00 0.000000000000D+00 0.492067887003D-06 0.000000000000D+00  6 -1 21 25 -1 2 -2 2 0.90391406D-01 0.24938547D+00 0.40637396D+06 0.40637396D+06 0.40637396D+06 0.10749330D+01  1  2 12  6  6  2        2 0.279966494190D-09 0.100000000000D+01
-.234367457438D-04 0.000000000000D+00 -.407480481506D-05 0.492067887003D-06 0.000000000000D+00  6 -1 21 25 -1 2 -2 2 0.90391406D-01 0.24972119D+00 0.37763225D+06 0.37763225D+06 0.37763225D+06 0.10772338D+01  1  2  5  6  6  2        2 -.154584627200D-04 0.100000000000D+01
  </mgrwgt>
  </event>
  <event>
  5     66 0.22518659E-05 0.33619362E+03 0.75467711E-02 0.90124064E-01
       -1 -1    0    0    0  501 0.00000000E+00 0.00000000E+00 0.32476511E+03 0.32476527E+03 0.32000000E+00 0.0000E+00 0.9000E+01
        2 -1    0    0  502    0 0.00000000E+00 0.00000000E+00 -.28687633E+04 0.28687633E+04 0.32000000E+00 0.0000E+00 0.9000E+01
       25  1    1    2    0    0 0.22564877E+03 0.62330552E+03 -.75064275E+03 0.10092159E+04 0.12500000E+03 0.0000E+00 0.9000E+01
       -1  1    1    2    0  501 0.15150885E+02 -.33591911E+03 0.15880692E+02 0.33663556E+03 0.32000000E+00 0.0000E+00 0.9000E+01
        2  1    1    2  502    0 -.24079966E+03 -.28738640E+03 -.18092361E+04 0.18476771E+04 0.32000000E+00 0.0000E+00 0.9000E+01
#aMCatNLO 1  0  0  2  1 0.15939295D+03 0.00000000D+00  -5  6  0 0.00000000D+00 0.00000000D+00 0.00000000D+00 0.00000000D+00 0.00000000D+00
  <mgrwgt>
 0.1074752623D-03    9    2    0
 0.965232877885345D+03 0.000000000000000D+00 0.000000000000000D+00 0.965232877885345D+03
 0.965232877885345D+03 0.000000000000000D+00 0.000000000000000D+00 -.965232877885345D+03
 0.680341247633516D+03 0.225687674230849D+03 0.623297378719267D+03 0.883440128898953D+02
 0.577701673550346D+03 0.151478662864289D+02 -.335852183514458D+03 0.469801103232431D+03
 0.672422834586829D+03 -.240835540517278D+03 -.287445195204809D+03 -.558145116122327D+03
 0.000000000000000D+00 0.000000000000000D+00 -.000000000000000D+00 -.000000000000000D+00
 0.985805570084632D+03 0.000000000000000D+00 0.000000000000000D+00 0.985805570084632D+03
 0.133590991280186D+04 0.000000000000000D+00 0.000000000000000D+00 -.133590991280186D+04
 0.728961388498756D+03 0.213299202069526D+03 0.680043007246636D+03 0.883440128898953D+02
 0.552308529794538D+03 0.521451372805413D+01 -.290352276264496D+03 0.469801103232431D+03
 0.655764966727636D+03 -.252510972876328D+03 -.233965658832964D+03 -.558145116122327D+03
 0.384680597865563D+03 0.339972570787472D+02 -.155725072149176D+03 -.350104342717229D+03
0.314193561926D-04 0.000000000000D+00 0.000000000000D+00 0.704524994570D-07 0.000000000000D+00  6 -1 2 25 -1 2 21 0 0.49963877D-01 0.44134821D+00 0.48009422D+06 0.48009422D+06 0.48009422D+06 0.10697596D+01  1  2  2  2  6  2        2 0.367451776767D-04 0.100000000000D+01
0.187886519407D-05 0.000000000000D+00 -.120658600686D-06 0.704524994570D-07 0.000000000000D+00  6 -1 2 25 -1 2 21 2 0.49963877D-01 0.44134821D+00 0.48009422D+06 0.48009422D+06 0.48009422D+06 0.10697596D+01  1  2  3  2  6  2        2 0.251461245703D-05 0.100000000000D+01
-.227135037812D-04 0.000000000000D+00 0.000000000000D+00 0.704524994570D-07 0.000000000000D+00  6 -1 2 25 -1 2 21 2 0.49963877D-01 0.44134821D+00 0.48009422D+06 0.48009422D+06 0.48009422D+06 0.10697596D+01  1  2 15  2  6  2        2 -.303990194353D-04 0.100000000000D+01
0.869818335979D-07 0.000000000000D+00 0.000000000000D+00 0.704524994570D-07 0.000000000000D+00  6 -1 2 25 -1 2 21 2 0.49963877D-01 0.61418901D+00 0.57579348D+06 0.57579348D+06 0.57579348D+06 0.10642051D+01  1  2 12  2  6  2        2 0.180969087508D-07 0.100000000000D+01
-.860816473584D-04 0.000000000000D+00 0.000000000000D+00 0.704524994570D-07 0.000000000000D+00  6 -1 2 25 -1 2 21 2 0.49963877D-01 0.44134821D+00 0.48009422D+06 0.48009422D+06 0.48009422D+06 0.10697596D+01  1  2  4  2  6  2        2 -.115208894950D-03 0.100000000000D+01
-.193508765624D-03 0.000000000000D+00 -.211483310222D-04 0.704524994570D-07 0.000000000000D+00  6 -1 2 25 -1 2 21 2 0.49963877D-01 0.61302944D+00 0.48009422D+06 0.48009422D+06 0.48009422D+06 0.10697596D+01  1  2  5  2  6  2        2 -.419779830786D-04 0.100000000000D+01
0.191138864608D-03 0.000000000000D+00 0.200558973861D-04 0.704524994570D-07 0.000000000000D+00  6 -1 2 25 -1 2 21 2 0.49963877D-01 0.44134821D+00 0.48009422D+06 0.48009422D+06 0.48009422D+06 0.10697596D+01  1  2  6  2  6  2        2 0.255814079415D-03 0.100000000000D+01
0.360516850667D-08 0.000000000000D+00 0.000000000000D+00 0.704524994570D-07 0.000000000000D+00  6 -1 21 25 -1 2 -2 2 0.49963877D-01 0.61418901D+00 0.57579348D+06 0.57579348D+06 0.57579348D+06 0.10642051D+01  1  2 12  6  6  2        2 0.141157461594D-10 0.100000000000D+01
-.744259047650D-05 0.000000000000D+00 -.872929535879D-06 0.704524994570D-07 0.000000000000D+00  6 -1 21 25 -1 2 -2 2 0.49963877D-01 0.61302944D+00 0.48009422D+06 0.48009422D+06 0.48009422D+06 0.10697596D+01  1  2  5  6  6  2        2 -.308208432906D-07 0.100000000000D+01
  </mgrwgt>
  </event>
  <event>
  5     66 0.22518659E-05 0.12688407E+03 0.75467711E-02 0.95382605E-01
       -1 -1    0    0    0  501 0.00000000E+00 0.00000000E+00 0.11428229E+04 0.11428230E+04 0.32000000E+00 0.0000E+00 0.9000E+01
        2 -1    0    0  502    0 -.00000000E+00 -.00000000E+00 -.32880786E+04 0.32880786E+04 0.32000000E+00 0.0000E+00 0.9000E+01
       25  1    1    2    0    0 0.32860825E+03 -.31231455E+03 -.54241447E+03 0.71788733E+03 0.12500000E+03 0.0000E+00 0.9000E+01
       -1  1    1    2    0  501 -.11779951E+03 0.47150403E+02 0.10404231E+04 0.10481318E+04 0.32000000E+00 0.0000E+00 0.9000E+01
        2  1    1    2  502    0 -.21080874E+03 0.26516415E+03 -.26432643E+04 0.26648825E+04 0.32000000E+00 0.0000E+00 0.9000E+01
#aMCatNLO 1  0  0  5  4 0.90467385D+02 0.00000000D+00  -5  6  0 0.00000000D+00 0.00000000D+00 0.00000000D+00 0.00000000D+00 0.00000000D+00
  <mgrwgt>
 0.3237631655D-02    6    2    0
 0.193847665954592D+04 0.000000000000000D+00 0.000000000000000D+00 0.193847665954592D+04
 0.193847665954592D+04 -.000000000000000D+00 -.000000000000000D+00 -.193847665954592D+04
 0.520327664516820D+03 0.328619363294370D+03 -.312328820113495D+03 -.222656463315224D+03
 0.177357684249399D+04 -.117798347831014D+03 0.471499396998832D+02 0.176903229158361D+04
 0.158304881208102D+04 -.210821015463356D+03 0.265178880413611D+03 -.154637582826838D+04
 0.000000000000000D+00 0.000000000000000D+00 0.000000000000000D+00 -.000000000000000D+00
 0.193847665954592D+04 0.000000000000000D+00 0.000000000000000D+00 0.193847665954592D+04
 0.193847665954592D+04 -.000000000000000D+00 -.000000000000000D+00 -.193847665954592D+04
 0.526264759617609D+03 0.325510502812598D+03 -.308418374373033D+03 -.245460009213649D+03
 0.169926814124200D+04 -.128114293446794D+03 0.601257376903618D+02 0.169336465042880D+04
 0.934596226014277D+03 -.468687015440650D+03 0.182845013833502D+03 -.787635885516710D+03
 0.716824192217951D+03 0.271290806074846D+03 0.654476228491695D+02 -.660268755698444D+03
0.969956419813D-01 0.000000000000D+00 0.000000000000D+00 0.408667292791D-03 0.000000000000D+00  6 -1 2 25 -1 2 21 0 0.17581892D+00 0.50585825D+00 0.21899415D+06 0.21899415D+06 0.21899415D+06 0.10948119D+01  1  2  2  4  6  5        2 0.363472432000D-02 0.100000000000D+01
0.213959633076D-01 0.000000000000D+00 -.372488804747D-03 0.408667292791D-03 0.000000000000D+00  6 -1 2 25 -1 2 21 2 0.17581892D+00 0.50585825D+00 0.21899415D+06 0.21899415D+06 0.21899415D+06 0.10948119D+01  1  2  3  4  6  5        2 0.961014945562D-03 0.100000000000D+01
-.727202338091D-01 0.000000000000D+00 0.000000000000D+00 0.408667292791D-03 0.000000000000D+00  6 -1 2 25 -1 2 21 2 0.17581892D+00 0.50585825D+00 0.21899415D+06 0.21899415D+06 0.21899415D+06 0.10948119D+01  1  2 15  4  6  5        2 -.326628114521D-02 0.100000000000D+01
-.459760580252D-02 0.000000000000D+00 0.000000000000D+00 0.408667292791D-03 0.000000000000D+00  6 -1 2 25 -1 2 21 2 0.17581892D+00 0.50585825D+00 0.21899415D+06 0.21899415D+06 0.21899415D+06 0.10948119D+01  1  2  4  4  6  5        2 -.206504742343D-03 0.100000000000D+01
-.873237366392D-01 0.000000000000D+00 0.000000000000D+00 0.408667292791D-03 0.000000000000D+00  6 -1 2 25 -1 2 21 2 0.17581892D+00 0.50585825D+00 0.21899415D+06 0.21899415D+06 0.21899415D+06 0.10948119D+01  1  2  5  4  6  5        2 -.392220788595D-02 0.100000000000D+01
0.134404772187D+00 0.000000000000D+00 -.000000000000D+00 0.408667292791D-03 0.000000000000D+00  6 -1 2 25 -1 2 21 2 0.17581892D+00 0.50585825D+00 0.21899415D+06 0.21899415D+06 0.21899415D+06 0.10948119D+01  1  2  6  4  6  5        2 0.603688616258D-02 0.100000000000D+01
  </mgrwgt>
  </event>
  <event>
  5     66 0.22518659E-05 0.57545073E+02 0.75467711E-02 0.89399241E-01
       -1 -1    0    0    0  501 0.00000000E+00 0.00000000E+00 0.24302999E+03 0.24303020E+03 0.32000000E+00 0.0000E+00 0.9000E+01
        2 -1    0    0  502    0 0.00000000E+00 0.00000000E+00 -.29030117E+04 0.29030117E+04 0.32000000E+00 0.0000E+00 0.9000E+01
       25  1    1    2    0    0 0.41277295E+03 -.17924633E+03 -.76254203E+03 0.89420697E+03 0.12500000E+03 0.0000E+00 0.9000E+01
       -1  1    1    2    0  501 -.19987823E+02 0.53973134E+02 0.15137661E+03 0.16194935E+03 0.32000000E+00 0.0000E+00 0.9000E+01
        2  1    1    2  502    0 -.39278513E+03 0.12527320E+03 -.20488163E+04 0.20898856E+04 0.32000000E+00 0.0000E+00 0.9000E+01
#aMCatNLO 1  0  0  1  1 0.18177732D+03 0.00000000D+00  -5  6  0 0.00000000D+00 0.00000000D+00 0.00000000D+00 0.00000000D+00 0.00000000D+00
  <mgrwgt>
 0.6245485161D-03    5    2    0
 0.839951947893667D+03 0.000000000000000D+00 0.000000000000000D+00 0.839951947893667D+03
 0.839951947893667D+03 0.000000000000000D+00 0.000000000000000D+00 -.839951947893667D+03
 0.467268488416103D+03 0.412836916195016D+03 -.179262133777044D+03 -.120668258858959D+02
 0.542885983672806D+03 -.199842722451092D+02 0.539635461390285D+02 0.539827524140188D+03
 0.669749423698424D+03 -.392852643949906D+03 0.125298587638016D+03 -.527760698254292D+03
 0.000000000000000D+00 -.000000000000000D+00 0.000000000000000D+00 0.000000000000000D+00
 0.139358100849551D+04 0.000000000000000D+00 0.000000000000000D+00 0.139358100849551D+04
 0.105618348622899D+04 0.000000000000000D+00 0.000000000000000D+00 -.105618348622899D+04
 0.610754405199185D+03 0.488970535346010D+03 -.343741400978536D+03 -.120668258858959D+02
 0.554619229822947D+03 0.575252541623471D+02 -.113488234648494D+03 0.539827524140188D+03
 0.612263788782993D+03 -.302312539241856D+03 -.703044881226596D+02 -.527760698254292D+03
 0.672127070919372D+03 -.244183250266501D+03 0.527534123749689D+03 0.337397522266523D+03
0.472928828503D-03 0.000000000000D+00 0.000000000000D+00 0.123476208680D-04 0.000000000000D+00  6 -1 2 25 -1 2 21 0 0.37389247D-01 0.44661721D+00 0.21949611D+06 0.21949611D+06 0.21949611D+06 0.10947362D+01  1  2  2  1  6  1       -1 0.931125974636D-03 0.100000000000D+01
0.159989741270D-03 0.000000000000D+00 -.181617122647D-05 0.123476208680D-04 0.000000000000D+00  6 -1 2 25 -1 2 21 2 0.37389247D-01 0.44661721D+00 0.21949611D+06 0.21949611D+06 0.21949611D+06 0.10947362D+01  1  2  3  1  6  1       -1 0.377505914428D-03 0.100000000000D+01
-.341152525019D-03 0.000000000000D+00 0.000000000000D+00 0.123476208680D-04 0.000000000000D+00  6 -1 2 25 -1 2 21 2 0.37389247D-01 0.44661721D+00 0.21949611D+06 0.21949611D+06 0.21949611D+06 0.10947362D+01  1  2 15  1  6  1       -1 -.804970961855D-03 0.100000000000D+01
0.457945656560D-04 0.000000000000D+00 -.341600298746D-03 0.123476208680D-04 0.000000000000D+00  6 -1 2 25 -1 2 21 2 0.84757733D-01 0.44661721D+00 0.21949611D+06 0.21949611D+06 0.21949611D+06 0.10947362D+01  1  2  5  1  6  1       -1 0.233268019453D-04 0.100000000000D+01
0.256788905785D-04 0.000000000000D+00 -.303799793622D-04 0.123476208680D-04 0.000000000000D+00  6 21 2 25 -1 2 1 2 0.84757733D-01 0.44661721D+00 0.21949611D+06 0.21949611D+06 0.21949611D+06 0.10947362D+01  1  2  5  5  6  1       -1 0.975607869589D-04 0.100000000000D+01
  </mgrwgt>
  </event>
  <event>
  6     66 0.22518659E-05 0.11954640E+03 0.75467711E-02 0.91842352E-01
       -1 -1    0    0    0  501 0.00000000E+00 0.00000000E+00 0.25615685E+03 0.25615705E+03 0.32000000E+00 0.0000E+00 0.9000E+01
        2 -1    0    0  502    0 -.00000000E+00 -.00000000E+00 -.20391820E+04 0.20391820E+04 0.32000000E+00 0.0000E+00 0.9000E+01
       25  1    1    2    0    0 0.20666393E+03 0.54979240E+03 -.13453382E+04 0.14732758E+04 0.12500000E+03 0.0000E+00 0.9000E+01
       -1  1    1    2    0  503 -.18595914E+02 -.19030355E+03 -.66838616E+02 0.20255555E+03 0.32000000E+00 0.0000E+00 0.9000E+01
        2  1    1    2  502    0 -.38722151E+02 -.34346010E+03 -.24687710E+03 0.42475011E+03 0.32000000E+00 0.0000E+00 0.9000E+01
       21  1    1    2  503  501 -.14934586E+03 -.16028756E+02 -.12397124E+03 0.19475764E+03 0.75000000E+00 0.0000E+00 0.9000E+01
#aMCatNLO 2  0  0  4  1 0.93832756D+00 0.00000000D+00  -5  6  0 0.00000000D+00 0.00000000D+00 0.00000000D+00 0.00000000D+00 0.00000000D+00
  <mgrwgt>
 0.2955814429D-01    1    2    0
 0.722738328424553D+03 0.000000000000000D+00 0.000000000000000D+00 0.722738328424553D+03
 0.722738328424553D+03 -.000000000000000D+00 -.000000000000000D+00 -.722738328424553D+03
 0.712702603360536D+03 0.224574830096684D+03 0.572015506434629D+03 -.338650862869513D+03
 0.377524215617867D+03 -.194937419107111D+03 -.239498993329618D+03 0.217173129562209D+03
 0.355249837870702D+03 -.296374109895729D+02 -.332516513105011D+03 0.121477733307305D+03
 0.000000000000000D+00 -.000000000000000D+00 0.000000000000000D+00 0.000000000000000D+00
 0.722738328424553D+03 0.000000000000000D+00 0.000000000000000D+00 0.722738328424553D+03
 0.722738328424553D+03 -.000000000000000D+00 -.000000000000000D+00 -.722738328424553D+03
 0.680005893663881D+03 0.206661501850750D+03 0.550007294251791D+03 -.318694234871340D+03
 0.238552110208270D+03 -.182706894207193D+02 -.189833264140603D+03 0.143306046692505D+03
 0.370453083106686D+03 -.389715643032602D+02 -.343984400247725D+03 0.131876595138101D+03
 0.156465569870268D+03 -.149419248126771D+03 -.161896298634622D+02 0.435115930407344D+02
0.467115773392D-02 0.000000000000D+00 0.000000000000D+00 0.520960234577D-08 0.879937663099D-08  6 -1 2 25 -1 2 21 2 0.39408763D-01 0.31372032D+00 0.41466548D+06 0.41466548D+06 0.41466548D+06 0.10743021D+01  1  2  1  3  6  4       -1 0.295581442861D-01 0.100000000000D+01
  </mgrwgt>
  </event>
  <event>
  5     66 -.22518659E-05 0.43052568E+02 0.75467711E-02 0.93733834E-01
       -1 -1    0    0    0  501 0.00000000E+00 0.00000000E+00 0.15702602E+03 0.15702634E+03 0.32000000E+00 0.0000E+00 0.9000E+01
        2 -1    0    0  502    0 -.00000000E+00 -.00000000E+00 -.26171401E+04 0.26171402E+04 0.32000000E+00 0.0000E+00 0.9000E+01
       25  1    1    2    0    0 -.42205731E+03 0.26980446E+03 -.88666720E+03 0.10260266E+04 0.12500000E+03 0.0000E+00 0.9000E+01
       -1  1    1    2    0  501 0.45974854E+03 -.24900691E+03 -.70040295E+03 0.87403521E+03 0.32000000E+00 0.0000E+00 0.9000E+01
        2  1    1    2  502    0 -.37691223E+02 -.20797552E+02 -.87304397E+03 0.87410471E+03 0.32000000E+00 0.0000E+00 0.9000E+01
#aMCatNLO 1  0  0  5  2 0.61234356D+01 0.00000000D+00  -5  6  0 0.00000000D+00 0.00000000D+00 0.00000000D+00 0.00000000D+00 0.00000000D+00
  <mgrwgt>
 -.1669590535D-01    9    2    0
 0.641061289341489D+03 0.000000000000000D+00 0.000000000000000D+00 0.641061289341489D+03
 0.641061289341489D+03 -.000000000000000D+00 -.000000000000000D+00 -.641061289341489D+03
 0.518708947822461D+03 -.422039500886052D+03 0.269799160785913D+03 0.502498266877907D+02
 0.547237699350213D+03 0.459734059955471D+03 -.248999069698067D+03 0.161595658965426D+03
 0.216175931510305D+03 -.376945590694184D+02 -.208000910878459D+02 -.211845485653217D+03
 0.000000000000000D+00 0.000000000000000D+00 0.000000000000000D+00 -.000000000000000D+00
 0.641061289341489D+03 0.000000000000000D+00 0.000000000000000D+00 0.641061289341489D+03
 0.641061289341489D+03 -.000000000000000D+00 -.000000000000000D+00 -.641061289341489D+03
 0.518708530190053D+03 -.422064003198636D+03 0.269785640258118D+03 0.501121223496285D+02
 0.547179593607003D+03 0.459708211389028D+03 -.249013333097077D+03 0.161450388606873D+03
 0.105587407427851D+03 -.211535668971557D+02 -.155056265760796D+02 -.102278065876050D+03
 0.110647047458070D+03 -.164906412932361D+02 -.526668058496192D+01 -.109284445080452D+03
0.205252827834D-04 0.000000000000D+00 0.000000000000D+00 0.383928685142D-06 0.000000000000D+00  6 -1 2 25 -1 2 21 0 0.24157876D-01 0.40263697D+00 0.29276558D+06 0.29276558D+06 0.29276558D+06 0.10853371D+01  1  2  2  4  6  5        2 0.123480140923D-03 0.100000000000D+01
0.628541122081D-05 0.000000000000D+00 -.788224903192D-07 0.383928685142D-06 0.000000000000D+00  6 -1 2 25 -1 2 21 2 0.24157876D-01 0.40263697D+00 0.29276558D+06 0.29276558D+06 0.29276558D+06 0.10853371D+01  1  2  3  4  6  5        2 0.445421249915D-04 0.100000000000D+01
-.137472233177D-04 0.000000000000D+00 0.000000000000D+00 0.383928685142D-06 0.000000000000D+00  6 -1 2 25 -1 2 21 2 0.24157876D-01 0.40263697D+00 0.29276558D+06 0.29276558D+06 0.29276558D+06 0.10853371D+01  1  2 15  4  6  5        2 -.974209192990D-04 0.100000000000D+01
0.451285795738D-06 0.000000000000D+00 0.000000000000D+00 0.383928685142D-06 0.000000000000D+00  6 -1 2 25 -1 2 21 2 0.24157876D-01 0.40263697D+00 0.29302726D+06 0.29302726D+06 0.29302726D+06 0.10853083D+01  1  2 12  4  6  5        2 0.319775553526D-05 0.100000000000D+01
0.763405985393D-03 0.000000000000D+00 0.000000000000D+00 0.383928685142D-06 0.000000000000D+00  6 -1 2 25 -1 2 21 2 0.24157876D-01 0.40263697D+00 0.29302726D+06 0.29302726D+06 0.29302726D+06 0.10853083D+01  1  2 12  4  6  5        2 0.540940073563D-02 0.100000000000D+01
-.431727453955D-02 0.000000000000D+00 0.000000000000D+00 0.383928685142D-06 0.000000000000D+00  6 -1 2 25 -1 2 21 2 0.24157876D-01 0.40263697D+00 0.29276558D+06 0.29276558D+06 0.29276558D+06 0.10853371D+01  1  2  4  4  6  5        2 -.305947495569D-01 0.100000000000D+01
-.959747151380D-03 0.000000000000D+00 0.000000000000D+00 0.383928685142D-06 0.000000000000D+00  6 -1 2 25 -1 2 21 2 0.24157876D-01 0.40263697D+00 0.29276558D+06 0.29276558D+06 0.29276558D+06 0.10853371D+01  1  2  5  4  6  5        2 -.680133344902D-02 0.100000000000D+01
0.186261064841D-02 0.000000000000D+00 -.000000000000D+00 0.383928685142D-06 0.000000000000D+00  6 -1 2 25 -1 2 21 2 0.24157876D-01 0.40263697D+00 0.29276558D+06 0.29276558D+06 0.29276558D+06 0.10853371D+01  1  2  6  4  6  5        2 0.131995558282D-01 0.100000000000D+01
0.284710284694D-03 0.000000000000D+00 0.000000000000D+00 0.383928685142D-06 0.320774750409D-07  6 -1 2 25 -1 2 21 2 0.24157876D-01 0.40263697D+00 0.29302726D+06 0.29302726D+06 0.29302726D+06 0.10853083D+01  1  2 11  4  6  5        2 0.201742199162D-02 0.100000000000D+01
  </mgrwgt>
  </event>
  <event>
  5     66 0.22518659E-05 0.12641291E+03 0.75467711E-02 0.92991546E-01
       -1 -1    0    0    0  501 0.00000000E+00 0.00000000E+00 0.22743659E+03 0.22743682E+03 0.32000000E+00 0.0000E+00 0.9000E+01
        2 -1    0    0  502    0 -.00000000E+00 -.00000000E+00 -.30317892E+04 0.30317892E+04 0.32000000E+00 0.0000E+00 0.9000E+01
       25  1    1    2    0    0 0.20798349E+02 -.56980873E+03 -.83259831E+03 0.10168380E+04 0.12500000E+03 0.0000E+00 0.9000E+01
       -1  1    1    2    0  501 0.33307579E+02 0.45558541E+03 -.25927983E+03 0.52525574E+03 0.32000000E+00 0.0000E+00 0.9000E+01
        2  1    1    2  502    0 -.54105927E+02 0.11422332E+03 -.17124745E+04 0.17171323E+04 0.32000000E+00 0.0000E+00 0.9000E+01
#aMCatNLO 1  0  0  4  1 0.32561436D+02 0.00000000D+00  -5  6  0 0.00000000D+00 0.00000000D+00 0.00000000D+00 0.00000000D+00 0.00000000D+00
  <mgrwgt>
 0.1178373721D-03    6    2    0
 0.830385573727205D+03 0.000000000000000D+00 0.000000000000000D+00 0.830385573727205D+03
 0.830385573727205D+03 -.000000000000000D+00 -.000000000000000D+00 -.830385573727205D+03
 0.589594529448107D+03 0.208108562845829D+02 -.569774201558597D+03 0.831924074306077D+02
 0.592913738198216D+03 0.333034877793408D+02 0.455529458721053D+03 0.378061490875781D+03
 0.478262879808088D+03 -.541143440639237D+02 0.114244742837544D+03 -.461253898306388D+03
 0.000000000000000D+00 0.000000000000000D+00 0.000000000000000D+00 0.000000000000000D+00
 0.830385573727205D+03 0.000000000000000D+00 0.000000000000000D+00 0.830385573727205D+03
 0.830385573727205D+03 -.000000000000000D+00 -.000000000000000D+00 -.830385573727205D+03
 0.585651510554047D+03 0.211528992908445D+02 -.565095692612807D+03 0.870752826942342D+02
 0.408676181789476D+02 0.106578190284086D+02 0.385043540611706D+02 -.860161772633367D+01
 0.476118734594505D+03 -.538365813271010D+02 0.118044017856307D+03 -.458100733235850D+03
 0.558133284126911D+03 0.220258630078480D+02 0.408547320695329D+03 0.379627068267949D+03
0.147870154259D-03 0.000000000000D+00 0.000000000000D+00 0.514981897656D-06 0.000000000000D+00  6 -1 2 25 -1 2 21 0 0.34990264D-01 0.46642913D+00 0.34038700D+06 0.34038700D+06 0.34038700D+06 0.10805169D+01  1  2  2  3  6  4       -1 0.263133645657D-03 0.100000000000D+01
0.235235774357D-04 0.000000000000D+00 -.567860327460D-06 0.514981897656D-06 0.000000000000D+00  6 -1 2 25 -1 2 21 2 0.34990264D-01 0.46642913D+00 0.34038700D+06 0.34038700D+06 0.34038700D+06 0.10805169D+01  1  2  3  3  6  4       -1 0.488722500011D-04 0.100000000000D+01
-.999451628246D-04 0.000000000000D+00 0.000000000000D+00 0.514981897656D-06 0.000000000000D+00  6 -1 2 25 -1 2 21 2 0.34990264D-01 0.46642913D+00 0.34038700D+06 0.34038700D+06 0.34038700D+06 0.10805169D+01  1  2 15  3  6  4       -1 -.207644649175D-03 0.100000000000D+01
0.582946245966D-08 0.000000000000D+00 0.000000000000D+00 0.514981897656D-06 0.000000000000D+00  6 -1 2 25 -1 2 21 2 0.34990264D-01 0.46642913D+00 0.33522713D+06 0.33522713D+06 0.33522713D+06 0.10810024D+01  1  2 12  3  6  4       -1 0.121345421953D-07 0.100000000000D+01
0.465989696175D-04 0.000000000000D+00 0.000000000000D+00 0.514981897656D-06 0.000000000000D+00  6 -1 2 25 -1 2 21 2 0.34990264D-01 0.46642913D+00 0.33522713D+06 0.33522713D+06 0.33522713D+06 0.10810024D+01  1  2 12  3  6  4       -1 0.969998806910D-04 0.100000000000D+01
-.402081542609D-04 0.000000000000D+00 0.000000000000D+00 0.514981897656D-06 0.000000000000D+00  6 -1 2 25 -1 2 21 2 0.34990264D-01 0.46642913D+00 0.34038700D+06 0.34038700D+06 0.34038700D+06 0.10805169D+01  1  2  5  3  6  4       -1 -.835358895769D-04 0.100000000000D+01
  </mgrwgt>
  </event>
  <event>
  5     66 0.22518659E-05 0.42644326E+02 0.75467711E-02 0.91822469E-01
       -1 -1    0    0    0  501 0.00000000E+00 0.00000000E+00 0.11579976E+04 0.11579976E+04 0.32000000E+00 0.0000E+00 0.9000E+01
        2 -1    0    0  502    0 0.00000000E+00 0.00000000E+00 -.69529516E+03 0.69529523E+03 0.32000000E+00 0.0000E+00 0.9000E+01
       25  1    1    2    0    0 -.57396729E+03 -.20065985E+03 0.41429774E+03 0.74630452E+03 0.12500000E+03 0.0000E+00 0.9000E+01
       -1  1    1    2    0  501 0.53427282E+03 0.18509381E+03 0.43789954E+03 0.71516661E+03 0.32000000E+00 0.0000E+00 0.9000E+01
        2  1    1    2  502    0 0.39694472E+02 0.15566031E+02 -.38949484E+03 0.39182175E+03 0.32000000E+00 0.0000E+00 0.9000E+01
#aMCatNLO 1  0  0  2  2 0.74261556D+02 0.00000000D+00  -5  6  0 0.00000000D+00 0.00000000D+00 0.00000000D+00 0.00000000D+00 0.00000000D+00
  <mgrwgt>
 0.5267559895D-03    7    2    0
 0.897301642934946D+03 0.000000000000000D+00 0.000000000000000D+00 0.897301642934946D+03
 0.897301642934946D+03 0.000000000000000D+00 0.000000000000000D+00 -.897301642934946D+03
 0.663878482365397D+03 -.573905272681976D+03 -.200638637960700D+03 0.235555756229571D+03
 0.625571159946175D+03 0.534204396836835D+03 0.185070111362406D+03 0.267794683361905D+03
 0.505153643558319D+03 0.397008758451407D+02 0.155685265982939D+02 -.503350439591476D+03
 0.000000000000000D+00 0.000000000000000D+00 -.000000000000000D+00 -.000000000000000D+00
 0.908035882411271D+03 0.000000000000000D+00 0.000000000000000D+00 0.908035882411271D+03
 0.103640489425718D+04 0.000000000000000D+00 0.000000000000000D+00 -.103640489425718D+04
 0.685664592025722D+03 -.601074893184422D+03 -.194250846197002D+03 0.235555756229571D+03
 0.606340361617845D+03 0.509402988739072D+03 0.190901117738102D+03 0.267794683361905D+03
 0.504134164666732D+03 0.193814305102137D+02 0.203457882292275D+02 -.503350439591476D+03
 0.148301658358152D+03 0.722904739351362D+02 -.169960597703281D+02 -.128369011845908D+03
0.111730916602D-03 0.000000000000D+00 0.000000000000D+00 0.189910194122D-05 0.000000000000D+00  6 -1 2 25 -1 2 21 0 0.17815349D+00 0.10696850D+00 0.37741489D+06 0.37741489D+06 0.37741489D+06 0.10772520D+01  1  2  2  2  6  2        2 0.132133469341D-03 0.100000000000D+01
0.535643303067D-04 0.000000000000D+00 -.429076139179D-06 0.189910194122D-05 0.000000000000D+00  6 -1 2 25 -1 2 21 2 0.17815349D+00 0.10696850D+00 0.37741489D+06 0.37741489D+06 0.37741489D+06 0.10772520D+01  1  2  3  2  6  2        2 0.735105616950D-04 0.100000000000D+01
-.733215480535D-04 0.000000000000D+00 0.000000000000D+00 0.189910194122D-05 0.000000000000D+00  6 -1 2 25 -1 2 21 2 0.17815349D+00 0.10696850D+00 0.37741489D+06 0.37741489D+06 0.37741489D+06 0.10772520D+01  1  2 15  2  6  2        2 -.100624952294D-03 0.100000000000D+01
-.260992669477D-04 0.000000000000D+00 0.000000000000D+00 0.189910194122D-05 0.000000000000D+00  6 -1 2 25 -1 2 21 2 0.17815349D+00 0.10696850D+00 0.37741489D+06 0.37741489D+06 0.37741489D+06 0.10772520D+01  1  2  4  2  6  2        2 -.358180856956D-04 0.100000000000D+01
-.206589279673D-02 0.000000000000D+00 -.231831984772D-03 0.189910194122D-05 0.000000000000D+00  6 -1 2 25 -1 2 21 2 0.17815349D+00 0.12427744D+00 0.37741489D+06 0.37741489D+06 0.37741489D+06 0.10772520D+01  1  2  5  2  6  2        2 -.234720995765D-02 0.100000000000D+01
0.207981054408D-02 0.000000000000D+00 0.229248713354D-03 0.189910194122D-05 0.000000000000D+00  6 -1 2 25 -1 2 21 2 0.17815349D+00 0.10696850D+00 0.37741489D+06 0.37741489D+06 0.37741489D+06 0.10772520D+01  1  2  6  2  6  2        2 0.285428830042D-02 0.100000000000D+01
-.455117796409D-04 0.000000000000D+00 -.528780199885D-05 0.189910194122D-05 0.000000000000D+00  6 -1 21 25 -1 2 -2 2 0.17815349D+00 0.12427744D+00 0.37741489D+06 0.37741489D+06 0.37741489D+06 0.10772520D+01  1  2  5  6  6  2        2 -.495233463510D-04 0.100000000000D+01
  </mgrwgt>
  </event>
  <event>
  6     66 0.22518659E-05 0.68802371E+02 0.75467711E-02 0.92380732E-01
       -1 -1    0    0    0  503 0.00000000E+00 0.00000000E+00 0.12432423E+04 0.12432424E+04 0.32000000E+00 0.0000E+00 0.9000E+01
        2 -1    0    0  502    0 0.00000000E+00 0.00000000E+00 -.22188127E+04 0.22188127E+04 0.32000000E+00 0.0000E+00 0.9000E+01
       25  1    1    2    0    0 -.39568358E+03 -.44897623E+03 -.47604795E+03 0.77484953E+03 0.12500000E+03 0.0000E+00 0.9000E+01
       -1  1    1    2    0  501 0.84292086E+02 0.44117946E+02 0.67505651E+03 0.68172791E+03 0.32000000E+00 0.0000E+00 0.9000E+01
        2  1    1    2  502    0 0.96371498E+02 0.65191975E+02 -.14899779E+04 0.14945139E+04 0.32000000E+00 0.0000E+00 0.9000E+01
       21  1    1    2  501  503 0.21501999E+03 0.33966631E+03 0.31539903E+03 0.51096370E+03 0.75000000E+00 0.0000E+00 0.9000E+01
#aMCatNLO 2  0  0  1  4 0.40200348D+03 0.00000000D+00  -5  6  0 0.00000000D+00 0.00000000D+00 0.00000000D+00 0.00000000D+00 0.00000000D+00
  <mgrwgt>
 0.2243548164D-03    1    2    0
 0.131155740885131D+04 0.000000000000000D+00 0.000000000000000D+00 0.131155740885131D+04
 0.131155740885131D+04 0.000000000000000D+00 0.000000000000000D+00 -.131155740885131D+04
 0.546869588961801D+03 -.347737125511916D+03 -.373229440182940D+03 -.152381179456943D+03
 0.111178366357077D+04 0.173863600189892D+03 0.185616557525904D+03 0.108230349564440D+04
 0.964461565170038D+03 0.173873525322024D+03 0.187612882657037D+03 -.929922316187458D+03
 0.000000000000000D+00 0.000000000000000D+00 0.000000000000000D+00 0.000000000000000D+00
 0.198734916525875D+04 0.000000000000000D+00 0.000000000000000D+00 0.198734916525875D+04
 0.138804050749454D+04 0.000000000000000D+00 0.000000000000000D+00 -.138804050749454D+04
 0.630088249758943D+03 -.395695512390240D+03 -.448989131389418D+03 -.152381179456943D+03
 0.108647679901526D+04 0.842894266250901D+02 0.441165578165327D+02 0.108230349564440D+04
 0.937175357425529D+03 0.963860943915580D+02 0.652062668013095D+02 -.929922316187458D+03
 0.721649266553557D+03 0.215019991373592D+03 0.339666306771576D+03 0.599308657764215D+03
0.163464824210D-02 0.000000000000D+00 0.000000000000D+00 0.148213709298D-04 0.388989655481D-09  6 -1 2 25 -1 2 21 2 0.19126803D+00 0.34135575D+00 0.37509221D+06 0.37509221D+06 0.37509221D+06 0.10774463D+01  1  2  1  1  6  1       -1 0.224354816389D-03 0.100000000000D+01
  </mgrwgt>
  </event>
  <event>
  5     66 0.22518659E-05 0.25224397E+03 0.75467711E-02 0.94307743E-01
       -1 -1    0    0    0  501 0.00000000E+00 0.00000000E+00 0.91724742E+03 0.91724747E+03 0.32000000E+00 0.0000E+00 0.9000E+01
        2 -1    0    0  502    0 -.00000000E+00 -.00000000E+00 -.11029833E+04 0.11029834E+04 0.32000000E+00 0.0000E+00 0.9000E+01
       25  1    1    2    0    0 -.45279667E+03 0.12854989E+03 0.27010894E+02 0.48775454E+03 0.12500000E+03 0.0000E+00 0.9000E+01
       -1  1    1    2    0  501 0.28336673E+03 0.58271451E+02 0.60828806E+03 0.67357756E+03 0.32000000E+00 0.0000E+00 0.9000E+01
        2  1    1    2  502    0 0.16942994E+03 -.18682134E+03 -.82103487E+03 0.85889876E+03 0.32000000E+00 0.0000E+00 0.9000E+01
#aMCatNLO 1  0  0  4  1 0.11929665D+01 0.00000000D+00  -5  6  0 0.00000000D+00 0.00000000D+00 0.00000000D+00 0.00000000D+00 0.00000000D+00
  <mgrwgt>
 0.3477915248D-03    9    2    0
 0.100583732447835D+04 0.000000000000000D+00 0.000000000000000D+00 0.100583732447835D+04
 0.100583732447835D+04 -.000000000000000D+00 -.000000000000000D+00 -.100583732447835D+04
 0.492345839425264D+03 -.452796316525327D+03 0.128579818069958D+03 0.722644568620066D+02
 0.732533594541845D+03 0.283339099731029D+03 0.582657691767516D+02 0.673000387695466D+03
 0.786795214989587D+03 0.169457216794297D+03 -.186845587246709D+03 -.745264844557472D+03
 0.000000000000000D+00 0.000000000000000D+00 0.000000000000000D+00 0.000000000000000D+00
 0.100583732447835D+04 0.000000000000000D+00 0.000000000000000D+00 0.100583732447835D+04
 0.100583732447835D+04 -.000000000000000D+00 -.000000000000000D+00 -.100583732447835D+04
 0.492345390785091D+03 -.452795449306995D+03 0.128579996404481D+03 0.722665167198722D+02
 0.644206053886064D+03 0.248126616142115D+03 0.516409792558485D+02 0.592256558838157D+03
 0.786792327789609D+03 0.169458602654069D+03 -.186845302258914D+03 -.745261552798007D+03
 0.883308764959321D+02 0.352102305108118D+02 0.662432659858444D+01 0.807384772399777D+02
0.111340104486D-05 0.000000000000D+00 0.000000000000D+00 0.233776418850D-05 0.000000000000D+00  6 -1 2 25 -1 2 21 0 0.14111500D+00 0.16968975D+00 0.26446620D+06 0.26446620D+06 0.26446620D+06 0.10886260D+01  1  2  2  3  6  4       -1 0.145885522018D-05 0.100000000000D+01
0.997094834180D-07 0.000000000000D+00 -.427575317751D-08 0.233776418850D-05 0.000000000000D+00  6 -1 2 25 -1 2 21 2 0.14111500D+00 0.16968975D+00 0.26446620D+06 0.26446620D+06 0.26446620D+06 0.10886260D+01  1  2  3  3  6  4       -1 0.154829754715D-06 0.100000000000D+01
-.765233961860D-06 0.000000000000D+00 0.000000000000D+00 0.233776418850D-05 0.000000000000D+00  6 -1 2 25 -1 2 21 2 0.14111500D+00 0.16968975D+00 0.26446620D+06 0.26446620D+06 0.26446620D+06 0.10886260D+01  1  2 15  3  6  4       -1 -.118826196419D-05 0.100000000000D+01
0.392626817034D-11 0.000000000000D+00 0.000000000000D+00 0.233776418850D-05 0.000000000000D+00  6 -1 2 25 -1 2 21 2 0.14111500D+00 0.16968975D+00 0.26446798D+06 0.26446798D+06 0.26446798D+06 0.10886258D+01  1  2 12  3  6  4       -1 0.609673843403D-11 0.100000000000D+01
0.590035015903D-06 0.000000000000D+00 0.000000000000D+00 0.233776418850D-05 0.000000000000D+00  6 -1 2 25 -1 2 21 2 0.14111500D+00 0.16968975D+00 0.26446798D+06 0.26446798D+06 0.26446798D+06 0.10886258D+01  1  2 12  3  6  4       -1 0.916210763710D-06 0.100000000000D+01
-.166118917947D-01 0.000000000000D+00 0.000000000000D+00 0.233776418850D-05 0.000000000000D+00  6 -1 2 25 -1 2 21 2 0.14111500D+00 0.16968975D+00 0.26446620D+06 0.26446620D+06 0.26446620D+06 0.10886260D+01  1  2  4  3  6  4       -1 -.257950903339D-01 0.100000000000D+01
-.156977329192D-01 0.000000000000D+00 0.000000000000D+00 0.233776418850D-05 0.000000000000D+00  6 -1 2 25 -1 2 21 2 0.14111500D+00 0.16968975D+00 0.26446620D+06 0.26446620D+06 0.26446620D+06 0.10886260D+01  1  2  5  3  6  4       -1 -.243755764662D-01 0.100000000000D+01
0.177037961555D-01 0.000000000000D+00 -.000000000000D+00 0.233776418850D-05 0.000000000000D+00  6 -1 2 25 -1 2 21 2 0.14111500D+00 0.16968975D+00 0.26446620D+06 0.26446620D+06 0.26446620D+06 0.10886260D+01  1  2  6  3  6  4       -1 0.274906089403D-01 0.100000000000D+01
0.148289524654D-01 0.000000000000D+00 0.000000000000D+00 0.233776418850D-05 0.764800966030D-05  6 -1 2 25 -1 2 21 2 0.14111500D+00 0.16968975D+00 0.26446798D+06 0.26446798D+06 0.26446798D+06 0.10886258D+01  1  2 11  3  6  4       -1 0.230265077447D-01 0.100000000000D+01
  </mgrwgt>
  </event>
  <event>
  5     66 -.22518659E-05 0.19081274E+03 0.75467711E-02 0.91692482E-01
       -1 -1    0    0    0  501 0.00000000E+00 0.00000000E+00 0.13667346E+04 0.13667347E+04 0.32000000E+00 0.0000E+00 0.9000E+01
        2 -1    0    0  502    0 0.00000000E+00 0.00000000E+00 -.70314065E+03 0.70314072E+03 0.32000000E+00 0.0000E+00 0.9000E+01
       25  1    1    2    0    0 -.24331217E+03 0.42399820E+03 0.33306762E+02 0.50567740E+03 0.12500000E+03 0.0000E+00 0.9000E+01
       -1  1    1    2    0  501 0.43408537E+03 -.42059400E+03 0.98832215E+03 0.11584948E+04 0.32000000E+00 0.0000E+00 0.9000E+01
        2  1    1    2  502    0 -.19077321E+03 -.34042056E+01 -.35803490E+03 0.40570322E+03 0.32000000E+00 0.0000E+00 0.9000E+01
#aMCatNLO 1  0  0  5  2 0.28636061D+02 0.00000000D+00  -5  6  0 0.00000000D+00 0.00000000D+00 0.00000000D+00 0.00000000D+00 0.00000000D+00
  <mgrwgt>
 -.4071221939D-03    8    2    0
 0.980309541599383D+03 0.000000000000000D+00 0.000000000000000D+00 0.980309541599383D+03
 0.980309541599383D+03 -.000000000000000D+00 -.000000000000000D+00 -.980309541599383D+03
 0.522566487519859D+03 -.243298092144988D+03 0.423996017905735D+03 -.135956423303688D+03
 0.888533235876349D+03 0.434080414107882D+03 -.420589193940921D+03 0.651283529106142D+03
 0.549519359802559D+03 -.190782321962893D+03 -.340682396481375D+01 -.515327105802454D+03
 0.000000000000000D+00 0.000000000000000D+00 0.000000000000000D+00 -.000000000000000D+00
 0.980309541599383D+03 0.000000000000000D+00 0.000000000000000D+00 0.980309541599383D+03
 0.980309541599383D+03 -.000000000000000D+00 -.000000000000000D+00 -.980309541599383D+03
 0.522981060812021D+03 -.243656646550044D+03 0.423989615154540D+03 -.136924923958932D+03
 0.887035816871694D+03 0.433471510087822D+03 -.420600067216738D+03 0.649638802576240D+03
 0.405689432473776D+03 -.159585330918463D+03 0.176789756173875D+02 -.372563942965042D+03
 0.144912773041276D+03 -.302295326193151D+02 -.210685235551893D+02 -.140149935652267D+03
0.557713151329D-04 0.000000000000D+00 0.000000000000D+00 0.187478875590D-06 0.000000000000D+00  6 -1 2 25 -1 2 21 0 0.21026688D+00 0.10817549D+00 0.42237092D+06 0.42237092D+06 0.42237092D+06 0.10737280D+01  1  2  2  4  6  5        2 0.354046992552D-04 0.100000000000D+01
0.521613812416D-05 0.000000000000D+00 -.214176535035D-06 0.187478875590D-06 0.000000000000D+00  6 -1 2 25 -1 2 21 2 0.21026688D+00 0.10817549D+00 0.42237092D+06 0.42237092D+06 0.42237092D+06 0.10737280D+01  1  2  3  4  6  5        2 0.381757578545D-05 0.100000000000D+01
-.420670829636D-04 0.000000000000D+00 0.000000000000D+00 0.187478875590D-06 0.000000000000D+00  6 -1 2 25 -1 2 21 2 0.21026688D+00 0.10817549D+00 0.42237092D+06 0.42237092D+06 0.42237092D+06 0.10737280D+01  1  2 15  4  6  5        2 -.307879648628D-04 0.100000000000D+01
0.995276728936D-07 0.000000000000D+00 0.000000000000D+00 0.187478875590D-06 0.000000000000D+00  6 -1 2 25 -1 2 21 2 0.21026688D+00 0.10817549D+00 0.42649739D+06 0.42649739D+06 0.42649739D+06 0.10734252D+01  1  2 12  4  6  5        2 0.727543367265D-07 0.100000000000D+01
0.991824351649D-03 0.000000000000D+00 0.000000000000D+00 0.187478875590D-06 0.000000000000D+00  6 -1 2 25 -1 2 21 2 0.21026688D+00 0.10817549D+00 0.42649739D+06 0.42649739D+06 0.42649739D+06 0.10734252D+01  1  2 12  4  6  5        2 0.725019693071D-03 0.100000000000D+01
-.189137840172D-02 0.000000000000D+00 0.000000000000D+00 0.187478875590D-06 0.000000000000D+00  6 -1 2 25 -1 2 21 2 0.21026688D+00 0.10817549D+00 0.42237092D+06 0.42237092D+06 0.42237092D+06 0.10737280D+01  1  2  4  4  6  5        2 -.138425789648D-02 0.100000000000D+01
-.112105781370D-02 0.000000000000D+00 0.000000000000D+00 0.187478875590D-06 0.000000000000D+00  6 -1 2 25 -1 2 21 2 0.21026688D+00 0.10817549D+00 0.42237092D+06 0.42237092D+06 0.42237092D+06 0.10737280D+01  1  2  5  4  6  5        2 -.820477345845D-03 0.100000000000D+01
0.145391247765D-02 0.000000000000D+00 -.000000000000D+00 0.187478875590D-06 0.000000000000D+00  6 -1 2 25 -1 2 21 2 0.21026688D+00 0.10817549D+00 0.42237092D+06 0.42237092D+06 0.42237092D+06 0.10737280D+01  1  2  6  4  6  5        2 0.106408629080D-02 0.100000000000D+01
  </mgrwgt>
  </event>
  <event>
  5     66 0.22518659E-05 0.75697543E+02 0.75467711E-02 0.86627574E-01
       -1 -1    0    0    0  501 0.00000000E+00 0.00000000E+00 0.35513960E+03 0.35513974E+03 0.32000000E+00 0.0000E+00 0.9000E+01
        2 -1    0    0  502    0 0.00000000E+00 0.00000000E+00 -.11929552E+04 0.11929552E+04 0.32000000E+00 0.0000E+00 0.9000E+01
       25  1    1    2    0    0 0.42068634E+03 0.24453530E+03 -.28378272E+03 0.57700272E+03 0.12500000E+03 0.0000E+00 0.9000E+01
       -1  1    1    2    0  501 -.70830190E+02 0.26844775E+02 0.13340044E+03 0.15340580E+03 0.32000000E+00 0.0000E+00 0.9000E+01
        2  1    1    2  502    0 -.34985615E+03 -.27138008E+03 -.68743332E+03 0.81768646E+03 0.32000000E+00 0.0000E+00 0.9000E+01
#aMCatNLO 1  0  0  2  1 0.21757974D+03 0.00000000D+00  -5  6  0 0.00000000D+00 0.00000000D+00 0.00000000D+00 0.00000000D+00 0.00000000D+00
  <mgrwgt>
 0.1179389092D-02    3    2    0
 0.650896129022775D+03 0.000000000000000D+00 0.000000000000000D+00 0.650896129022775D+03
 0.650896129022775D+03 0.000000000000000D+00 0.000000000000000D+00 -.650896129022775D+03
 0.503626347957265D+03 0.420741680017433D+03 0.244609227283570D+03 0.340185681740841D+02
 0.268111104173165D+03 -.707842533289508D+02 0.268273652376889D+02 0.257203122329454D+03
 0.530054805915119D+03 -.349957426688482D+03 -.271436592521259D+03 -.291221690503538D+03
 0.000000000000000D+00 -.000000000000000D+00 -.000000000000000D+00 0.000000000000000D+00
 0.419852050691374D+04 0.000000000000000D+00 0.000000000000000D+00 0.419852050691374D+04
 0.835997344394190D+03 0.000000000000000D+00 0.000000000000000D+00 -.835997344394190D+03
 0.858640134719333D+03 0.572501838395659D+03 0.626675564390228D+03 0.340185681740841D+02
 0.321042707479651D+03 -.515093055212326D+01 0.192063639985010D+03 0.257203122329454D+03
 0.382976336343542D+03 -.248243296218812D+03 -.153644740164616D+02 -.291221690503538D+03
 0.347185867276540D+04 -.319107611624724D+03 -.803374730358777D+03 0.336252316251955D+04
0.319919721585D-03 0.000000000000D+00 0.000000000000D+00 0.516385098064D-06 0.000000000000D+00  6 -1 2 25 -1 2 21 0 0.54636876D-01 0.18353158D+00 0.26064071D+06 0.26064071D+06 0.26064071D+06 0.10890999D+01  1  2  2  2  6  2        2 0.292095572702D-02 0.100000000000D+01
0.604688377024D-04 0.000000000000D+00 -.122857596768D-05 0.516385098064D-06 0.000000000000D+00  6 -1 2 25 -1 2 21 2 0.54636876D-01 0.18353158D+00 0.26064071D+06 0.26064071D+06 0.26064071D+06 0.10890999D+01  1  2  3  2  6  2        2 0.654863841174D-03 0.100000000000D+01
-.221281671747D-03 0.000000000000D+00 0.000000000000D+00 0.516385098064D-06 0.000000000000D+00  6 -1 2 25 -1 2 21 2 0.54636876D-01 0.18353158D+00 0.26064071D+06 0.26064071D+06 0.26064071D+06 0.10890999D+01  1  2 15  2  6  2        2 -.239643047639D-02 0.100000000000D+01
  </mgrwgt>
  </event>
  <event>
  5     66 0.22518659E-05 0.76186591E+02 0.75467711E-02 0.88267300E-01
       -1 -1    0    0    0  501 0.00000000E+00 0.00000000E+00 0.74255607E+03 0.74255614E+03 0.32000000E+00 0.0000E+00 0.9000E+01
        2 -1    0    0  502    0 0.00000000E+00 0.00000000E+00 -.15957374E+04 0.15957374E+04 0.32000000E+00 0.0000E+00 0.9000E+01
       25  1    1    2    0    0 0.34379116E+03 0.29406694E+03 -.19132490E+03 0.50685101E+03 0.12500000E+03 0.0000E+00 0.9000E+01
       -1  1    1    2    0  501 -.40747906E+03 -.33586674E+03 0.46403592E+03 0.70297588E+03 0.32000000E+00 0.0000E+00 0.9000E+01
        2  1    1    2  502    0 0.63687892E+02 0.41799800E+02 -.11258923E+04 0.11284667E+04 0.32000000E+00 0.0000E+00 0.9000E+01
#aMCatNLO 1  0  0  2  5 0.14731556D+02 0.00000000D+00  -5  6  0 0.00000000D+00 0.00000000D+00 0.00000000D+00 0.00000000D+00 0.00000000D+00
  <mgrwgt>
 0.3934911807D-02    7    2    0
 0.108854242232711D+04 0.000000000000000D+00 0.000000000000000D+00 0.108854242232711D+04
 0.108854242232711D+04 0.000000000000000D+00 0.000000000000000D+00 -.108854242232711D+04
 0.469381105787784D+03 0.343773425539597D+03 0.294053346770799D+03 -.678849145436305D+01
 0.936853791046318D+03 -.407466981852626D+03 -.335856786132974D+03 0.773864266978518D+03
 0.770849947820127D+03 0.636935563130290D+02 0.418034393621744D+02 -.767075775524155D+03
 0.000000000000000D+00 -.000000000000000D+00 -.000000000000000D+00 -.000000000000000D+00
 0.139641650209937D+04 0.000000000000000D+00 0.000000000000000D+00 0.139641650209937D+04
 0.145512252194076D+04 0.000000000000000D+00 0.000000000000000D+00 -.145512252194076D+04
 0.580867062837938D+03 0.484102266829415D+03 0.295601854399409D+03 -.678849145436305D+01
 0.859041997284409D+03 -.167508481964468D+03 -.333208880227022D+03 0.773864266978518D+03
 0.816333397231475D+03 0.275764956558394D+03 0.441436153236629D+02 -.767075775524155D+03
 0.595296566686306D+03 -.592358741423341D+03 -.653658949605020D+01 -.587060198413927D+02
0.302826063186D-02 0.000000000000D+00 0.000000000000D+00 0.129996088760D-04 0.000000000000D+00  6 -1 2 25 -1 2 21 0 0.11423940D+00 0.24549807D+00 0.28813348D+06 0.28813348D+06 0.28813348D+06 0.10858510D+01  1  2  2  2  6  2        2 0.356964038555D-02 0.100000000000D+01
0.954597506490D-03 0.000000000000D+00 -.116293181857D-04 0.129996088760D-04 0.000000000000D+00  6 -1 2 25 -1 2 21 2 0.11423940D+00 0.24549807D+00 0.28813348D+06 0.28813348D+06 0.28813348D+06 0.10858510D+01  1  2  3  2  6  2        2 0.132675885523D-02 0.100000000000D+01
-.252476000296D-02 0.000000000000D+00 0.000000000000D+00 0.129996088760D-04 0.000000000000D+00  6 -1 2 25 -1 2 21 2 0.11423940D+00 0.24549807D+00 0.28813348D+06 0.28813348D+06 0.28813348D+06 0.10858510D+01  1  2 15  2  6  2        2 -.350906813446D-02 0.100000000000D+01
-.103393868105D-03 0.000000000000D+00 0.000000000000D+00 0.129996088760D-04 0.000000000000D+00  6 -1 2 25 -1 2 21 2 0.11423940D+00 0.24549807D+00 0.28813348D+06 0.28813348D+06 0.28813348D+06 0.10858510D+01  1  2  4  2  6  2        2 -.143703214341D-03 0.100000000000D+01
-.154270103533D-02 0.000000000000D+00 -.235057932662D-02 0.129996088760D-04 0.000000000000D+00  6 -1 2 25 -1 2 21 2 0.11423940D+00 0.37076229D+00 0.28813348D+06 0.28813348D+06 0.28813348D+06 0.10858510D+01  1  2  5  2  6  2        2 -.761929349377D-03 0.100000000000D+01
0.248418520758D-02 0.000000000000D+00 0.216404975793D-02 0.129996088760D-04 0.000000000000D+00  6 -1 2 25 -1 2 21 2 0.11423940D+00 0.24549807D+00 0.28813348D+06 0.28813348D+06 0.28813348D+06 0.10858510D+01  1  2  6  2  6  2        2 0.345267476584D-02 0.100000000000D+01
0.846898597201D-05 0.000000000000D+00 -.114404671254D-03 0.129996088760D-04 0.000000000000D+00  6 -1 21 25 -1 2 -2 2 0.11423940D+00 0.37076229D+00 0.28813348D+06 0.28813348D+06 0.28813348D+06 0.10858510D+01  1  2  5  6  6  2        2 0.538498227256D-06 0.100000000000D+01
  </mgrwgt>
  </event>
  <event>
  5     66 0.22518659E-05 0.72887716E+02 0.75467711E-02 0.93404007E-01
       -1 -1    0    0    0  501 0.00000000E+00 0.00000000E+00 0.33539747E+03 0.33539763E+03 0.32000000E+00 0.0000E+00 0.9000E+01
        2 -1    0    0  502    0 -.00000000E+00 -.00000000E+00 -.25740321E+04 0.25740322E+04 0.32000000E+00 0.0000E+00 0.9000E+01
       25  1    1    2    0    0 0.38523437E+03 0.35842629E+03 -.81561362E+03 0.97863451E+03 0.12500000E+03 0.0000E+00 0.9000E+01
       -1  1    1    2    0  501 -.31845280E+03 -.38760952E+03 0.42460375E+01 0.50166867E+03 0.32000000E+00 0.0000E+00 0.9000E+01
        2  1    1    2  502    0 -.66781567E+02 0.29183229E+02 -.14272671E+04 0.14291266E+04 0.32000000E+00 0.0000E+00 0.9000E+01
#aMCatNLO 1  0  0  4  1 0.12230461D+02 0.00000000D+00  -5  6  0 0.00000000D+00 0.00000000D+00 0.00000000D+00 0.00000000D+00 0.00000000D+00
  <mgrwgt>
 0.4361309428D-03    1    2    0
 0.929152373549606D+03 0.000000000000000D+00 0.000000000000000D+00 0.929152373549606D+03
 0.929152373549606D+03 -.000000000000000D+00 -.000000000000000D+00 -.929152373549606D+03
 0.549618173073060D+03 0.385230827785325D+03 0.358410066529708D+03 -.979518744392966D+02
 0.790517737202161D+03 -.318441501535191D+03 -.387595766130771D+03 0.610968759437615D+03
 0.518168836823991D+03 -.667893262501348D+02 0.291856996010637D+02 -.513016884998318D+03
 0.000000000000000D+00 0.000000000000000D+00 0.000000000000000D+00 -.000000000000000D+00
 0.929152373549606D+03 0.000000000000000D+00 0.000000000000000D+00 0.929152373549606D+03
 0.929152373549606D+03 -.000000000000000D+00 -.000000000000000D+00 -.929152373549606D+03
 0.519456513985568D+03 0.368393121367304D+03 0.337915804043457D+03 -.656466863516925D+02
 0.124020861208374D+03 -.908188470798362D+02 0.844566476658238D+02 -.430923434878434D+00
 0.489689788821696D+03 -.826628922927308D+02 0.986495478028380D+01 -.482561517509655D+03
 0.725137583083574D+03 -.194911381994737D+03 -.432237406489564D+03 0.548639127296226D+03
0.217337830767D-03 0.000000000000D+00 0.000000000000D+00 0.496921637475D-05 0.000000000000D+00  6 -1 2 25 -1 2 21 2 0.51599625D-01 0.39600496D+00 0.31099575D+06 0.31099575D+06 0.31099575D+06 0.10833971D+01  1  2 14  3  6  4       -1 0.436130942822D-03 0.100000000000D+01
  </mgrwgt>
  </event>
  <event>
  6     66 0.22518659E-05 0.81682746E+02 0.75467711E-02 0.89975734E-01
       -1 -1    0    0    0  501 0.00000000E+00 0.00000000E+00 0.31063639E+03 0.31063655E+03 0.32000000E+00 0.0000E+00 0.9000E+01
        2 -1    0    0  503    0 0.00000000E+00 0.00000000E+00 -.25527679E+04 0.25527679E+04 0.32000000E+00 0.0000E+00 0.9000E+01
       25  1    1    2    0    0 -.25202066E+03 0.65362989E+03 -.71321024E+03 0.10074921E+04 0.12500000E+03 0.0000E+00 0.9000E+01
       -1  1    1    2    0  501 -.47338043E+02 0.45077834E+02 0.41439568E+02 0.77396652E+02 0.32000000E+00 0.0000E+00 0.9000E+01
        2  1    1    2  502    0 0.27513090E+03 -.58699152E+03 -.96550099E+03 0.11629481E+04 0.32000000E+00 0.0000E+00 0.9000E+01
       21  1    1    2  503  502 0.24227798E+02 -.11171621E+03 -.60485982E+03 0.61556759E+03 0.75000000E+00 0.0000E+00 0.9000E+01
#aMCatNLO 2  0  0  2  5 0.14731556D+02 0.00000000D+00  -5  6  0 0.00000000D+00 0.00000000D+00 0.00000000D+00 0.00000000D+00 0.00000000D+00
  <mgrwgt>
 0.5526749085D-03    1    2    0
 0.767959063949092D+03 0.000000000000000D+00 0.000000000000000D+00 0.767959063949092D+03
 0.767959063949092D+03 0.000000000000000D+00 0.000000000000000D+00 -.767959063949092D+03
 0.662870786216830D+03 -.241287693023246D+03 0.603855865711448D+03 0.301831386889405D+02
 0.153169149188695D+03 -.448198269032739D+02 0.337485952100901D+02 0.142523695226073D+03
 0.719878192492659D+03 0.286107519926520D+03 -.637604460921539D+03 -.172706833915014D+03
 0.000000000000000D+00 0.000000000000000D+00 -.000000000000000D+00 -.000000000000000D+00
 0.783587884020183D+03 0.000000000000000D+00 0.000000000000000D+00 0.783587884020183D+03
 0.101198827771393D+04 0.000000000000000D+00 0.000000000000000D+00 -.101198827771393D+04
 0.712432213417090D+03 -.252119828593543D+03 0.653803662335430D+03 0.301831386889405D+02
 0.156754514643610D+03 -.472608418243264D+02 0.450042996869767D+02 0.142523695226073D+03
 0.670979494410467D+03 0.275152872821457D+03 -.587091754342094D+03 -.172706833915014D+03
 0.255409939262949D+03 0.242277975964125D+02 -.111716207680312D+03 -.228400393693750D+03
0.251759596403D-03 0.000000000000D+00 0.000000000000D+00 0.542530858168D-07 0.346213746384D-10  6 -1 2 25 -1 2 21 2 0.47790194D-01 0.39273326D+00 0.59269843D+06 0.59269843D+06 0.59269843D+06 0.10633289D+01  1  2  1  2  6  2        2 0.552674908514D-03 0.100000000000D+01
  </mgrwgt>
  </event>
  <event>
  5     66 0.22518659E-05 0.26369310E+02 0.75467711E-02 0.88413238E-01
       -1 -1    0    0    0  501 0.00000000E+00 0.00000000E+00 0.26274543E+03 0.26274563E+03 0.32000000E+00 0.0000E+00 0.9000E+01
        2 -1    0    0  502    0 0.00000000E+00 0.00000000E+00 -.11348541E+04 0.11348542E+04 0.32000000E+00 0.0000E+00 0.9000E+01
       25  1    1    2    0    0 -.32653772E+03 -.33701119E+03 -.36449169E+03 0.60719241E+03 0.12500000E+03 0.0000E+00 0.9000E+01
       -1  1    1    2    0  501 0.30676429E+03 0.31957054E+03 -.20756016E+03 0.48919422E+03 0.32000000E+00 0.0000E+00 0.9000E+01
        2  1    1    2  502    0 0.19773434E+02 0.17440648E+02 -.30005685E+03 0.30121318E+03 0.32000000E+00 0.0000E+00 0.9000E+01
#aMCatNLO 1  0  0  2  2 0.71239194D+03 0.00000000D+00  -5  6  0 0.00000000D+00 0.00000000D+00 0.00000000D+00 0.00000000D+00 0.00000000D+00
  <mgrwgt>
 0.1318250532D-02    3    2    0
 0.546056688209198D+03 0.000000000000000D+00 0.000000000000000D+00 0.546056688209198D+03
 0.546056688209198D+03 0.000000000000000D+00 0.000000000000000D+00 -.546056688209198D+03
 0.485961282673329D+03 -.326529996478582D+03 -.337002798826003D+03 0.184565229836296D+02
 0.460268960665843D+03 0.306754093540181D+03 0.319559915626507D+03 0.125023608064786D+03
 0.145883133079225D+03 0.197759029384007D+02 0.174428831994957D+02 -.143480131048416D+03
 0.000000000000000D+00 -.000000000000000D+00 0.000000000000000D+00 0.000000000000000D+00
 0.153131638000497D+04 0.000000000000000D+00 0.000000000000000D+00 0.153131638000497D+04
 0.741433206915726D+03 0.000000000000000D+00 0.000000000000000D+00 -.741433206915726D+03
 0.561098003962097D+03 -.124620331362395D+03 -.532292306745768D+03 0.184565229836296D+02
 0.530692741136489D+03 0.497846181550612D+03 0.134733301143029D+03 0.125023608064786D+03
 0.169717983727055D+03 0.806348405534952D+02 -.414206287207105D+02 -.143480131048416D+03
 0.101124085809506D+04 -.453860690741712D+03 0.438979634323449D+03 0.789883173089244D+03
0.118240975463D-03 0.000000000000D+00 0.000000000000D+00 0.428541536596D-06 0.000000000000D+00  6 -1 2 25 -1 2 21 0 0.40422392D-01 0.17459296D+00 0.22797924D+06 0.22797924D+06 0.22797924D+06 0.10934845D+01  1  2  2  2  6  2        2 0.201595132764D-02 0.100000000000D+01
0.440204280027D-04 0.000000000000D+00 -.454076479342D-06 0.428541536596D-06 0.000000000000D+00  6 -1 2 25 -1 2 21 2 0.40422392D-01 0.17459296D+00 0.22797924D+06 0.22797924D+06 0.22797924D+06 0.10934845D+01  1  2  3  2  6  2        2 0.897411366678D-03 0.100000000000D+01
-.782445182976D-04 0.000000000000D+00 0.000000000000D+00 0.428541536596D-06 0.000000000000D+00  6 -1 2 25 -1 2 21 2 0.40422392D-01 0.17459296D+00 0.22797924D+06 0.22797924D+06 0.22797924D+06 0.10934845D+01  1  2 15  2  6  2        2 -.159511216239D-02 0.100000000000D+01
  </mgrwgt>
  </event>
  <event>
  5     66 0.22518659E-05 0.30124077E+02 0.75467711E-02 0.89891384E-01
       -1 -1    0    0    0  501 0.00000000E+00 0.00000000E+00 0.12996472E+04 0.12996472E+04 0.32000000E+00 0.0000E+00 0.9000E+01
        2 -1    0    0  502    0 0.00000000E+00 0.00000000E+00 -.10688150E+04 0.10688150E+04 0.32000000E+00 0.0000E+00 0.9000E+01
       25  1    1    2    0    0 -.45240140E+03 0.59677109E+03 0.53544568E+03 0.92904781E+03 0.12500000E+03 0.0000E+00 0.9000E+01
       -1  1    1    2    0  501 0.19514559E+01 -.30077650E+02 0.41652162E+03 0.41761087E+03 0.32000000E+00 0.0000E+00 0.9000E+01
        2  1    1    2  502    0 0.45044995E+03 -.56669344E+03 -.72113509E+03 0.10218036E+04 0.32000000E+00 0.0000E+00 0.9000E+01
#aMCatNLO 1  0  0  1  4 0.14109736D+01 0.00000000D+00  -5  6  0 0.00000000D+00 0.00000000D+00 0.00000000D+00 0.00000000D+00 0.00000000D+00
  <mgrwgt>
 0.1705175369D-02    7    2    0
 0.117859343282619D+04 0.000000000000000D+00 0.000000000000000D+00 0.117859343282619D+04
 0.117859343282619D+04 0.000000000000000D+00 0.000000000000000D+00 -.117859343282619D+04
 0.881223188008056D+03 -.452460586961426D+03 0.596833384975177D+03 0.447212069278856D+03
 0.378608314851331D+03 0.195036729929102D+01 -.300608726024986D+02 0.377407996842063D+03
 0.109735536279299D+04 0.450510219662135D+03 -.566772512372678D+03 -.824620066120919D+03
 0.000000000000000D+00 -.000000000000000D+00 0.000000000000000D+00 0.000000000000000D+00
 0.168995389964145D+04 0.000000000000000D+00 0.000000000000000D+00 0.168995389964145D+04
 0.117933104026539D+04 0.000000000000000D+00 0.000000000000000D+00 -.117933104026539D+04
 0.874166699548118D+03 -.439365513910791D+03 0.596239657248727D+03 0.447212069278856D+03
 0.378699980266136D+03 0.759982871906787D+01 -.303170179383405D+02 0.377407996842063D+03
 0.110458309683674D+04 0.466936510588305D+03 -.567517276783528D+03 -.824620066120919D+03
 0.511835163255838D+03 -.351708253965813D+02 0.159463747314222D+01 0.510622859376059D+03
0.253638895830D-04 0.000000000000D+00 0.000000000000D+00 0.570161158121D-05 0.000000000000D+00  6 -1 2 25 -1 2 21 0 0.19994573D+00 0.16443308D+00 0.57263027D+06 0.57263027D+06 0.57263027D+06 0.10643721D+01  1  2  2  1  6  1       -1 0.108680162954D-04 0.100000000000D+01
0.134855900358D-04 0.000000000000D+00 -.974040144641D-07 0.570161158121D-05 0.000000000000D+00  6 -1 2 25 -1 2 21 2 0.19994573D+00 0.16443308D+00 0.57263027D+06 0.57263027D+06 0.57263027D+06 0.10643721D+01  1  2  3  1  6  1       -1 0.654623119219D-05 0.100000000000D+01
-.152991248670D-04 0.000000000000D+00 0.000000000000D+00 0.570161158121D-05 0.000000000000D+00  6 -1 2 25 -1 2 21 2 0.19994573D+00 0.16443308D+00 0.57263027D+06 0.57263027D+06 0.57263027D+06 0.10643721D+01  1  2 15  1  6  1       -1 -.742656481118D-05 0.100000000000D+01
-.970735459910D-03 0.000000000000D+00 0.000000000000D+00 0.570161158121D-05 0.000000000000D+00  6 -1 2 25 -1 2 21 2 0.19994573D+00 0.16443308D+00 0.57263027D+06 0.57263027D+06 0.57263027D+06 0.10643721D+01  1  2  4  1  6  1       -1 -.471218443551D-03 0.100000000000D+01
-.653085742493D-02 0.000000000000D+00 -.221256608214D-04 0.570161158121D-05 0.000000000000D+00  6 -1 2 25 -1 2 21 2 0.28674961D+00 0.16443308D+00 0.57263027D+06 0.57263027D+06 0.57263027D+06 0.10643721D+01  1  2  5  1  6  1       -1 -.595961778261D-03 0.100000000000D+01
0.613693935442D-02 0.000000000000D+00 0.207614219385D-04 0.570161158121D-05 0.000000000000D+00  6 -1 2 25 -1 2 21 2 0.19994573D+00 0.16443308D+00 0.57263027D+06 0.57263027D+06 0.57263027D+06 0.10643721D+01  1  2  6  1  6  1       -1 0.297901862061D-02 0.100000000000D+01
-.287595905420D-03 0.000000000000D+00 -.976549058635D-06 0.570161158121D-05 0.000000000000D+00  6 21 2 25 -1 2 1 2 0.28674961D+00 0.16443308D+00 0.57263027D+06 0.57263027D+06 0.57263027D+06 0.10643721D+01  1  2  5  5  6  1       -1 -.216650712173D-03 0.100000000000D+01
  </mgrwgt>
  </event>
  <event>
  6     66 0.22518659E-05 0.19249470E+03 0.75467711E-02 0.94499988E-01
       -1 -1    0    0    0  501 0.00000000E+00 0.00000000E+00 0.91267477E+03 0.91267482E+03 0.32000000E+00 0.0000E+00 0.9000E+01
        2 -1    0    0  502    0 -.00000000E+00 -.00000000E+00 -.97063696E+03 0.97063701E+03 0.32000000E+00 0.0000E+00 0.9000E+01
       25  1    1    2    0    0 -.44419176E+03 -.10822704E+03 -.21125496E+03 0.51891528E+03 0.12500000E+03 0.0000E+00 0.9000E+01
       -1  1    1    2    0  501 0.18572922E+03 -.94097185E+02 0.69680322E+03 0.72724443E+03 0.32000000E+00 0.0000E+00 0.9000E+01
        2  1    1    2  503    0 0.19743039E+03 0.14226828E+03 -.35855653E+03 0.43333810E+03 0.32000000E+00 0.0000E+00 0.9000E+01
       21  1    1    2  502  503 0.61032145E+02 0.60055942E+02 -.18495392E+03 0.20381402E+03 0.75000000E+00 0.0000E+00 0.9000E+01
#aMCatNLO 2  0  0  5  2 0.24757355D+02 0.00000000D+00  -5  6  0 0.00000000D+00 0.00000000D+00 0.00000000D+00 0.00000000D+00 0.00000000D+00
  <mgrwgt>
 0.1147982038D-02    3    2    0
 0.941209839552090D+03 0.000000000000000D+00 0.000000000000000D+00 0.941209839552090D+03
 0.941209839552090D+03 -.000000000000000D+00 -.000000000000000D+00 -.941209839552090D+03
 0.512725758870081D+03 -.444456019838140D+03 -.108434210551211D+03 -.194842429210569D+03
 0.749719286292887D+03 0.185348667282610D+03 -.943929006471490D+02 0.720288039664337D+03
 0.619974633941212D+03 0.259107352555530D+03 0.202827111198360D+03 -.525445610453767D+03
 0.000000000000000D+00 0.000000000000000D+00 0.000000000000000D+00 -.000000000000000D+00
 0.941209839552090D+03 0.000000000000000D+00 0.000000000000000D+00 0.941209839552090D+03
 0.941209839552090D+03 -.000000000000000D+00 -.000000000000000D+00 -.941209839552090D+03
 0.512658248511693D+03 -.444196700899585D+03 -.108231217812226D+03 -.195368303897751D+03
 0.749037402173535D+03 0.185727701859713D+03 -.940961954878402D+02 0.719519392797374D+03
 0.422289209779583D+03 0.197357176798720D+03 0.142201572145406D+03 -.345191301080543D+03
 0.198434818639370D+03 0.611118222411520D+02 0.601258411546601D+02 -.178959787819080D+03
-.164455705343D-07 0.000000000000D+00 0.000000000000D+00 0.157206413214D-05 0.000000000000D+00  6 -1 2 25 -1 2 21 2 0.14041151D+00 0.14932877D+00 0.25561022D+06 0.25561022D+06 0.25561022D+06 0.10897348D+01  1  2 13  4  6  5        2 -.313122378450D-07 0.100000000000D+01
-.111048597862D-02 0.000000000000D+00 0.000000000000D+00 0.157206413214D-05 0.000000000000D+00  6 -1 2 25 -1 2 21 2 0.14041151D+00 0.14932877D+00 0.25561022D+06 0.25561022D+06 0.25561022D+06 0.10897348D+01  1  2 13  4  6  5        2 -.211435662956D-02 0.100000000000D+01
0.171343664025D-02 0.000000000000D+00 0.000000000000D+00 0.157206413214D-05 0.124464058848D-07  6 -1 2 25 -1 2 21 2 0.14041151D+00 0.14932877D+00 0.25561022D+06 0.25561022D+06 0.25561022D+06 0.10897348D+01  1  2  1  4  6  5        2 0.326236997980D-02 0.100000000000D+01
  </mgrwgt>
  </event>
  <event>
  5     66 0.22518659E-05 0.10221469E+03 0.75467711E-02 0.91928162E-01
       -1 -1    0    0    0  501 0.00000000E+00 0.00000000E+00 0.40672197E+03 0.40672210E+03 0.32000000E+00 0.0000E+00 0.9000E+01
        2 -1    0    0  502    0 0.00000000E+00 0.00000000E+00 -.15935602E+04 0.15935603E+04 0.32000000E+00 0.0000E+00 0.9000E+01
       25  1    1    2    0    0 -.12449120E+03 0.57229784E+03 -.50383068E+03 0.78261947E+03 0.12500000E+03 0.0000E+00 0.9000E+01
       -1  1    1    2    0  501 -.87144226E+02 -.53504918E+02 0.16923739E+03 0.19773287E+03 0.32000000E+00 0.0000E+00 0.9000E+01
        2  1    1    2  502    0 0.21163543E+03 -.51879292E+03 -.85224498E+03 0.10199300E+04 0.32000000E+00 0.0000E+00 0.9000E+01
#aMCatNLO 1  0  0  1  4 0.15853376D+02 0.00000000D+00  -5  6  0 0.00000000D+00 0.00000000D+00 0.00000000D+00 0.00000000D+00 0.00000000D+00
  <mgrwgt>
 0.7252352746D-03   11    2    0
 0.805069016578465D+03 0.000000000000000D+00 0.000000000000000D+00 0.805069016578465D+03
 0.805069016578465D+03 0.000000000000000D+00 0.000000000000000D+00 -.805069016578465D+03
 0.600962727752854D+03 -.124548653480628D+03 0.572385017927277D+03 -.489308115271305D+02
 0.370229525858199D+03 -.871065068781807D+02 -.534817592121500D+02 0.355839935516296D+03
 0.638945779545877D+03 0.211655160358808D+03 -.518903258715127D+03 -.306909123989166D+03
 0.000000000000000D+00 0.000000000000000D+00 -.000000000000000D+00 0.000000000000000D+00
 0.991743800377535D+03 0.000000000000000D+00 0.000000000000000D+00 0.991743800377535D+03
 0.805444696381299D+03 0.000000000000000D+00 0.000000000000000D+00 -.805444696381299D+03
 0.605724819630896D+03 -.128902293032585D+03 0.576426518865259D+03 -.489308115271305D+02
 0.370517777475203D+03 -.897790684412714D+02 -.510008096674897D+02 0.355839935516296D+03
 0.633973480113652D+03 0.207062561680453D+03 -.514639931068263D+03 -.306909123989166D+03
 0.186972419539082D+03 0.116187997934028D+02 -.107857781295062D+02 0.186299103996237D+03
0.271063883148D-05 0.000000000000D+00 0.000000000000D+00 0.224681730365D-06 0.000000000000D+00  6 -1 2 25 -1 2 21 0 0.62572623D-01 0.24516313D+00 0.39790317D+06 0.39790317D+06 0.39790317D+06 0.10755922D+01  1  2  2  1  6  1       -1 0.112255327841D-04 0.100000000000D+01
0.489769010655D-06 0.000000000000D+00 -.104095668405D-07 0.224681730365D-06 0.000000000000D+00  6 -1 2 25 -1 2 21 2 0.62572623D-01 0.24516313D+00 0.39790317D+06 0.39790317D+06 0.39790317D+06 0.10755922D+01  1  2  3  1  6  1       -1 0.234650728128D-05 0.100000000000D+01
-.199684914195D-05 0.000000000000D+00 0.000000000000D+00 0.224681730365D-06 0.000000000000D+00  6 -1 2 25 -1 2 21 2 0.62572623D-01 0.24516313D+00 0.39790317D+06 0.39790317D+06 0.39790317D+06 0.10755922D+01  1  2 15  1  6  1       -1 -.956700189124D-05 0.100000000000D+01
0.319506075917D-06 0.000000000000D+00 0.000000000000D+00 0.224681730365D-06 0.000000000000D+00  6 -1 2 25 -1 2 21 2 0.77093981D-01 0.24516313D+00 0.40805645D+06 0.40805645D+06 0.40805645D+06 0.10748039D+01  1  2 12  1  6  1       -1 0.101208443018D-05 0.100000000000D+01
0.845639556852D-03 0.000000000000D+00 0.000000000000D+00 0.224681730365D-06 0.000000000000D+00  6 -1 2 25 -1 2 21 2 0.78840935D-01 0.24516313D+00 0.40805645D+06 0.40805645D+06 0.40805645D+06 0.10748039D+01  1  2 12  1  6  1       -1 0.255913632839D-02 0.100000000000D+01
-.675360646882D-03 0.000000000000D+00 0.000000000000D+00 0.224681730365D-06 0.000000000000D+00  6 -1 2 25 -1 2 21 2 0.62572623D-01 0.24516313D+00 0.39790317D+06 0.39790317D+06 0.39790317D+06 0.10755922D+01  1  2  4  1  6  1       -1 -.323568588645D-02 0.100000000000D+01
-.971357917492D-03 0.000000000000D+00 -.426883253641D-05 0.224681730365D-06 0.000000000000D+00  6 -1 2 25 -1 2 21 2 0.77096638D-01 0.24516313D+00 0.39790317D+06 0.39790317D+06 0.39790317D+06 0.10755922D+01  1  2  5  1  6  1       -1 -.308548215861D-02 0.100000000000D+01
0.951536196773D-03 0.000000000000D+00 0.417749701477D-05 0.224681730365D-06 0.000000000000D+00  6 -1 2 25 -1 2 21 2 0.62572623D-01 0.24516313D+00 0.39790317D+06 0.39790317D+06 0.39790317D+06 0.10755922D+01  1  2  6  1  6  1       -1 0.455885645182D-02 0.100000000000D+01
0.944545798483D-08 0.000000000000D+00 0.000000000000D+00 0.224681730365D-06 0.000000000000D+00  6 21 2 25 -1 2 1 2 0.77093981D-01 0.24516313D+00 0.40805645D+06 0.40805645D+06 0.40805645D+06 0.10748039D+01  1  2 12  5  6  1       -1 0.227212840732D-06 0.100000000000D+01
0.269973187050D-04 0.000000000000D+00 0.000000000000D+00 0.224681730365D-06 0.000000000000D+00  6 21 2 25 -1 2 1 2 0.78840935D-01 0.24516313D+00 0.40805645D+06 0.40805645D+06 0.40805645D+06 0.10748039D+01  1  2 12  5  6  1       -1 0.615158987512D-03 0.100000000000D+01
-.286666608939D-04 0.000000000000D+00 -.126214012559D-06 0.224681730365D-06 0.000000000000D+00  6 21 2 25 -1 2 1 2 0.77096638D-01 0.24516313D+00 0.39790317D+06 0.39790317D+06 0.39790317D+06 0.10755922D+01  1  2  5  5  6  1       -1 -.691992783514D-03 0.100000000000D+01
  </mgrwgt>
  </event>
  <event>
  5     66 0.22518659E-05 0.14722556E+03 0.75467711E-02 0.91611890E-01
       -1 -1    0    0    0  501 0.00000000E+00 0.00000000E+00 0.51439229E+03 0.51439239E+03 0.32000000E+00 0.0000E+00 0.9000E+01
        2 -1    0    0  502    0 0.00000000E+00 0.00000000E+00 -.29107401E+04 0.29107401E+04 0.32000000E+00 0.0000E+00 0.9000E+01
       25  1    1    2    0    0 -.40018404E+03 0.30525397E+03 -.69724864E+03 0.86896946E+03 0.12500000E+03 0.0000E+00 0.9000E+01
       -1  1    1    2    0  501 -.10875697E+03 0.99250399E+02 0.36421644E+03 0.39285167E+03 0.32000000E+00 0.0000E+00 0.9000E+01
        2  1    1    2  502    0 0.50894100E+03 -.40450436E+03 -.20633156E+04 0.21633114E+04 0.32000000E+00 0.0000E+00 0.9000E+01
#aMCatNLO 1  0  0  1  4 0.15853376D+02 0.00000000D+00  -5  6  0 0.00000000D+00 0.00000000D+00 0.00000000D+00 0.00000000D+00 0.00000000D+00
  <mgrwgt>
 0.6088892848D-03    1    2    0
 0.122362677013281D+04 0.000000000000000D+00 0.000000000000000D+00 0.122362677013281D+04
 0.122362677013281D+04 0.000000000000000D+00 0.000000000000000D+00 -.122362677013281D+04
 0.533514265854264D+03 -.400242407689644D+03 0.305300461204208D+03 -.124940447195088D+03
 0.906398323779264D+03 -.108748549144235D+03 0.992427191319947D+02 0.894361536017830D+03
 0.100734095063209D+04 0.508990956833879D+03 -.404543180336203D+03 -.769421088822742D+03
 0.000000000000000D+00 -.000000000000000D+00 0.000000000000000D+00 -.000000000000000D+00
 0.244356492077037D+04 0.000000000000000D+00 0.000000000000000D+00 0.244356492077037D+04
 0.267945968463748D+04 0.000000000000000D+00 0.000000000000000D+00 -.267945968463748D+04
 0.289100674919153D+03 -.137675208916139D+03 0.182728272971916D+03 -.124940447195088D+03
 0.105017635641192D+04 0.515762759252324D+03 -.192293002022611D+03 0.894361536017830D+03
 0.180132711727765D+04 0.140547857251260D+04 -.823043470129369D+03 -.769421088822742D+03
 0.198242045679912D+04 -.178356612284879D+04 0.832608199180064D+03 -.235894763867109D+03
0.115613458530D-02 0.000000000000D+00 0.000000000000D+00 0.145357251481D-05 0.000000000000D+00  6 -1 2 25 -1 2 21 2 0.79137284D-01 0.44780618D+00 0.43301572D+06 0.43301572D+06 0.43301572D+06 0.10729534D+01  1  2 14  1  6  1       -1 0.608889284811D-03 0.100000000000D+01
  </mgrwgt>
  </event>
  <event>
  5     66 -.22518659E-05 0.19479046E+03 0.75467711E-02 0.91429639E-01
       -1 -1    0    0    0  501 0.00000000E+00 0.00000000E+00 0.10990192E+04 0.10990192E+04 0.32000000E+00 0.0000E+00 0.9000E+01
        2 -1    0    0  502    0 0.00000000E+00 0.00000000E+00 -.13273815E+04 0.13273815E+04 0.32000000E+00 0.0000E+00 0.9000E+01
       25  1    1    2    0    0 0.25492515E+03 -.44642272E+03 0.25025653E+02 0.52965211E+03 0.12500000E+03 0.0000E+00 0.9000E+01
       -1  1    1    2    0  501 0.19252657E+03 0.29754323E+02 0.72075941E+03 0.74662308E+03 0.32000000E+00 0.0000E+00 0.9000E+01
        2  1    1    2  502    0 -.44745172E+03 0.41666840E+03 -.97414737E+03 0.11501256E+04 0.32000000E+00 0.0000E+00 0.9000E+01
#aMCatNLO 1  0  0  1  4 0.43720762D+01 0.00000000D+00  -5  6  0 0.00000000D+00 0.00000000D+00 0.00000000D+00 0.00000000D+00 0.00000000D+00
  <mgrwgt>
 -.9712146820D-03   13    2    0
 0.120781530694894D+04 0.000000000000000D+00 0.000000000000000D+00 0.120781530694894D+04
 0.120781530694894D+04 0.000000000000000D+00 0.000000000000000D+00 -.120781530694894D+04
 0.534458275820571D+03 0.254989413434997D+03 -.446470755410682D+03 0.752656109534057D+02
 0.817997653233571D+03 0.192505065875502D+03 0.297509993335477D+02 0.794466385913560D+03
 0.106317468484373D+04 -.447494479310499D+03 0.416719756077134D+03 -.869731996866965D+03
 0.000000000000000D+00 0.000000000000000D+00 0.000000000000000D+00 0.000000000000000D+00
 0.126111465056030D+04 0.000000000000000D+00 0.000000000000000D+00 0.126111465056030D+04
 0.120790694747952D+04 0.000000000000000D+00 0.000000000000000D+00 -.120790694747952D+04
 0.535013096470957D+03 0.254599837087412D+03 -.447356707961684D+03 0.752656109534057D+02
 0.817809453628896D+03 0.191909190404165D+03 0.283958929540598D+02 0.794466385913560D+03
 0.106281202032892D+04 -.448268912509062D+03 0.414958583788054D+03 -.869731996866965D+03
 0.533870276110443D+02 0.175988501748465D+01 0.400223121956954D+01 0.532077030807827D+02
0.217584601866D-04 0.000000000000D+00 0.000000000000D+00 0.713024912222D-06 0.000000000000D+00  6 -1 2 25 -1 2 21 0 0.16907988D+00 0.20421254D+00 0.44582436D+06 0.44582436D+06 0.44582436D+06 0.10720483D+01  1  2  2  1  6  1       -1 0.119595970633D-04 0.100000000000D+01
0.273714286720D-05 0.000000000000D+00 -.835582162506D-07 0.713024912222D-06 0.000000000000D+00  6 -1 2 25 -1 2 21 2 0.16907988D+00 0.20421254D+00 0.44582436D+06 0.44582436D+06 0.44582436D+06 0.10720483D+01  1  2  3  1  6  1       -1 0.172907801173D-05 0.100000000000D+01
-.142060204808D-04 0.000000000000D+00 0.000000000000D+00 0.713024912222D-06 0.000000000000D+00  6 -1 2 25 -1 2 21 2 0.16907988D+00 0.20421254D+00 0.44582436D+06 0.44582436D+06 0.44582436D+06 0.10720483D+01  1  2 15  1  6  1       -1 -.897407217644D-05 0.100000000000D+01
0.214503253947D-07 0.000000000000D+00 0.000000000000D+00 0.713024912222D-06 0.000000000000D+00  6 -1 2 25 -1 2 21 2 0.17654742D+00 0.20421254D+00 0.44817097D+06 0.44817097D+06 0.44817097D+06 0.10718856D+01  1  2 12  1  6  1       -1 0.117637790949D-07 0.100000000000D+01
0.221909501326D-02 0.000000000000D+00 0.000000000000D+00 0.713024912222D-06 0.000000000000D+00  6 -1 2 25 -1 2 21 2 0.17721101D+00 0.20421254D+00 0.44817097D+06 0.44817097D+06 0.44817097D+06 0.10718856D+01  1  2 12  1  6  1       -1 0.120188805712D-02 0.100000000000D+01
-.398646340214D-01 0.000000000000D+00 0.000000000000D+00 0.713024912222D-06 0.000000000000D+00  6 -1 2 25 -1 2 21 2 0.16907988D+00 0.20421254D+00 0.44582436D+06 0.44582436D+06 0.44582436D+06 0.10720483D+01  1  2  4  1  6  1       -1 -.251828514170D-01 0.100000000000D+01
-.338797740254D-01 0.000000000000D+00 -.132520218637D-03 0.713024912222D-06 0.000000000000D+00  6 -1 2 25 -1 2 21 2 0.17654657D+00 0.20421254D+00 0.44582436D+06 0.44582436D+06 0.44582436D+06 0.10720483D+01  1  2  5  1  6  1       -1 -.185934072300D-01 0.100000000000D+01
0.338540099110D-01 0.000000000000D+00 0.132396580727D-03 0.713024912222D-06 0.000000000000D+00  6 -1 2 25 -1 2 21 2 0.16907988D+00 0.20421254D+00 0.44582436D+06 0.44582436D+06 0.44582436D+06 0.10720483D+01  1  2  6  1  6  1       -1 0.213858855697D-01 0.100000000000D+01
0.368898551438D-01 0.000000000000D+00 0.000000000000D+00 0.713024912222D-06 0.305283138669D-06  6 -1 2 25 -1 2 21 2 0.17654116D+00 0.20422804D+00 0.44817097D+06 0.44817097D+06 0.44817097D+06 0.10718856D+01  1  2 11  1  6  1       -1 0.202308418032D-01 0.100000000000D+01
0.465640775961D-09 0.000000000000D+00 0.000000000000D+00 0.713024912222D-06 0.000000000000D+00  6 21 2 25 -1 2 1 2 0.17654742D+00 0.20421254D+00 0.44817097D+06 0.44817097D+06 0.44817097D+06 0.10718856D+01  1  2 12  5  6  1       -1 0.157816895346D-08 0.100000000000D+01
0.520704133732D-04 0.000000000000D+00 0.000000000000D+00 0.713024912222D-06 0.000000000000D+00  6 21 2 25 -1 2 1 2 0.17721101D+00 0.20421254D+00 0.44817097D+06 0.44817097D+06 0.44817097D+06 0.10718856D+01  1  2 12  5  6  1       -1 0.174351177935D-03 0.100000000000D+01
-.291646511240D-03 0.000000000000D+00 -.100745482019D-05 0.713024912222D-06 0.000000000000D+00  6 21 2 25 -1 2 1 2 0.17654657D+00 0.20421254D+00 0.44582436D+06 0.44582436D+06 0.44582436D+06 0.10720483D+01  1  2  5  5  6  1       -1 -.989290203589D-03 0.100000000000D+01
0.235053547838D-03 0.000000000000D+00 0.000000000000D+00 0.713024912222D-06 0.173998089710D-08  6 21 2 25 -1 2 1 2 0.17654116D+00 0.20422804D+00 0.44817097D+06 0.44817097D+06 0.44817097D+06 0.10718856D+01  1  2 11  5  6  1       -1 0.796639615887D-03 0.100000000000D+01
  </mgrwgt>
  </event>
  <event>
  5     66 0.22518659E-05 0.20869460E+02 0.75467711E-02 0.95428142E-01
       -1 -1    0    0    0  501 0.00000000E+00 0.00000000E+00 0.69035257E+03 0.69035265E+03 0.32000000E+00 0.0000E+00 0.9000E+01
        2 -1    0    0  502    0 0.00000000E+00 0.00000000E+00 -.20151871E+04 0.20151871E+04 0.32000000E+00 0.0000E+00 0.9000E+01
       25  1    1    2    0    0 -.85304082E+01 -.45066495E+03 -.75806822E+03 0.89076601E+03 0.12500000E+03 0.0000E+00 0.9000E+01
       -1  1    1    2    0  501 -.11064344E+02 0.44348387E+03 0.54504754E+03 0.70276403E+03 0.32000000E+00 0.0000E+00 0.9000E+01
        2  1    1    2  502    0 0.19594752E+02 0.71810721E+01 -.11118138E+04 0.11120097E+04 0.32000000E+00 0.0000E+00 0.9000E+01
#aMCatNLO 1  0  0  2  1 0.49937133D+01 0.00000000D+00  -5  6  0 0.00000000D+00 0.00000000D+00 0.00000000D+00 0.00000000D+00 0.00000000D+00
  <mgrwgt>
 0.5094095822D-02    5    2    0
 0.117948705835613D+04 0.000000000000000D+00 0.000000000000000D+00 0.117948705835613D+04
 0.117948705835613D+04 0.000000000000000D+00 0.000000000000000D+00 -.117948705835613D+04
 0.595884517347509D+03 -.853064551372596D+01 -.450664648044856D+03 -.369163867549627D+03
 0.111211500451084D+04 -.110643305954478D+02 0.443483334733063D+03 0.101980385156199D+04
 0.650974594853909D+03 0.195949761091738D+02 0.718131331179319D+01 -.650639984012364D+03
 0.000000000000000D+00 -.000000000000000D+00 -.000000000000000D+00 -.000000000000000D+00
 0.150466313520867D+04 0.000000000000000D+00 0.000000000000000D+00 0.150466313520867D+04
 0.309183835118809D+04 0.000000000000000D+00 0.000000000000000D+00 -.309183835118809D+04
 0.442248257455798D+03 -.189453330930862D+01 -.208980790653186D+03 -.369163867549627D+03
 0.145785947210956D+04 0.536385605203866D+01 0.104178960150654D+04 0.101980385156199D+04
 0.729442125154306D+03 0.284190884627828D+02 0.328551031903669D+03 -.650639984012364D+03
 0.196695163167709D+04 -.318884112055128D+02 -.116135984275702D+04 -.158717521597942D+04
0.697337324751D-02 0.000000000000D+00 0.000000000000D+00 0.136184186863D-03 0.000000000000D+00  6 -1 2 25 -1 2 21 0 0.10620810D+00 0.31002879D+00 0.21727138D+06 0.21727138D+06 0.21727138D+06 0.10950732D+01  1  2  2  2  6  2        2 0.588191519216D-02 0.100000000000D+01
0.461165640430D-02 0.000000000000D+00 -.267795894018D-04 0.136184186863D-03 0.000000000000D+00  6 -1 2 25 -1 2 21 2 0.10620810D+00 0.31002879D+00 0.21727138D+06 0.21727138D+06 0.21727138D+06 0.10950732D+01  1  2  3  2  6  2        2 0.466465064276D-02 0.100000000000D+01
-.539134726512D-02 0.000000000000D+00 0.000000000000D+00 0.136184186863D-03 0.000000000000D+00  6 -1 2 25 -1 2 21 2 0.10620810D+00 0.31002879D+00 0.21727138D+06 0.21727138D+06 0.21727138D+06 0.10950732D+01  1  2 15  2  6  2        2 -.545330121779D-02 0.100000000000D+01
0.587092127508D-03 0.000000000000D+00 -.374660050013D-02 0.136184186863D-03 0.000000000000D+00  6 -1 2 25 -1 2 21 2 0.10620810D+00 0.82695145D+00 0.21727138D+06 0.21727138D+06 0.21727138D+06 0.10950732D+01  1  2  5  2  6  2        2 0.829417765865D-06 0.100000000000D+01
0.284858556726D-03 0.000000000000D+00 -.409105928419D-03 0.136184186863D-03 0.000000000000D+00  6 -1 21 25 -1 2 -2 2 0.10620810D+00 0.82695145D+00 0.21727138D+06 0.21727138D+06 0.21727138D+06 0.10950732D+01  1  2  5  6  6  2        2 0.178707520017D-08 0.100000000000D+01
  </mgrwgt>
  </event>
  <event>
  6     66 -.22518659E-05 0.20555357E+03 0.75467711E-02 0.94744057E-01
       -1 -1    0    0    0  501 0.00000000E+00 0.00000000E+00 0.15528738E+04 0.15528738E+04 0.32000000E+00 0.0000E+00 0.9000E+01
        2 -1    0    0  502    0 0.00000000E+00 0.00000000E+00 -.11537869E+04 0.11537869E+04 0.32000000E+00 0.0000E+00 0.9000E+01
       25  1    1    2    0    0 -.46615373E+03 -.78576465E+02 0.93630587E+03 0.10562988E+04 0.12500000E+03 0.0000E+00 0.9000E+01
       -1  1    1    2    0  501 0.25995164E+03 0.12582250E+03 0.50755173E+03 0.58396491E+03 0.32000000E+00 0.0000E+00 0.9000E+01
        2  1    1    2  503    0 0.17885569E+03 -.36103183E+02 -.93982028E+03 0.95736882E+03 0.32000000E+00 0.0000E+00 0.9000E+01
       21  1    1    2  502  503 0.27346398E+02 -.11142851E+02 -.10495039E+03 0.10902814E+03 0.75000000E+00 0.0000E+00 0.9000E+01
#aMCatNLO 2  0  0  5  2 0.90819321D+01 0.00000000D+00  -5  6  0 0.00000000D+00 0.00000000D+00 0.00000000D+00 0.00000000D+00 0.00000000D+00
  <mgrwgt>
 -.1355626294D-02    6    2    0
 0.133853855479107D+04 0.000000000000000D+00 0.000000000000000D+00 0.133853855479107D+04
 0.133853855479107D+04 -.000000000000000D+00 -.000000000000000D+00 -.133853855479107D+04
 0.928635526587211D+03 -.466109174338504D+03 -.785237653260194D+02 0.789503133063073D+03
 0.514629351005081D+03 0.259850347972124D+03 0.125781869507428D+03 0.426028270045420D+03
 0.123381223198984D+04 0.206258826366381D+03 -.472581041814092D+02 -.121553140310849D+04
 0.000000000000000D+00 0.000000000000000D+00 -.000000000000000D+00 0.000000000000000D+00
 0.133853855479107D+04 0.000000000000000D+00 0.000000000000000D+00 0.133853855479107D+04
 0.133853855479107D+04 -.000000000000000D+00 -.000000000000000D+00 -.133853855479107D+04
 0.928518782654245D+03 -.466087920241898D+03 -.785286350730718D+02 0.789377877711216D+03
 0.514577177113989D+03 0.259862126667555D+03 0.125779170768055D+03 0.425958855444182D+03
 0.110858405015726D+04 0.178952222499114D+03 -.361198780918560D+02 -.109344869689087D+04
 0.125397099656640D+03 0.272735710752290D+02 -.111306576031276D+02 -.121888036264532D+03
-.391543317697D-07 0.000000000000D+00 0.000000000000D+00 0.310113533568D-05 0.000000000000D+00  6 -1 2 25 -1 2 21 2 0.23890367D+00 0.17750568D+00 0.24484035D+06 0.24484035D+06 0.24484035D+06 0.10911411D+01  1  2 13  4  6  5        2 -.913087521771D-08 0.100000000000D+01
-.132722996651D-01 0.000000000000D+00 0.000000000000D+00 0.310113533568D-05 0.000000000000D+00  6 -1 2 25 -1 2 21 2 0.23890367D+00 0.17750568D+00 0.24484035D+06 0.24484035D+06 0.24484035D+06 0.10911411D+01  1  2 13  4  6  5        2 -.309512911132D-02 0.100000000000D+01
-.354091056229D-04 0.000000000000D+00 0.000000000000D+00 0.310113533568D-05 0.000000000000D+00  6 -1 2 25 -1 2 21 2 0.23890367D+00 0.17750568D+00 0.24464002D+06 0.24464002D+06 0.24464002D+06 0.10911679D+01  1  2  8  4  6  5        2 -.825845484273D-05 0.100000000000D+01
-.663901807849D-04 0.000000000000D+00 0.000000000000D+00 0.310113533568D-05 0.000000000000D+00  6 -1 2 25 -1 2 21 2 0.23890367D+00 0.17750568D+00 0.24464002D+06 0.24464002D+06 0.24464002D+06 0.10911679D+01  1  2  9  4  6  5        2 -.154841614993D-04 0.100000000000D+01
0.734785978755D-04 0.000000000000D+00 0.000000000000D+00 0.310113533568D-05 0.000000000000D+00  6 -1 2 25 -1 2 21 2 0.23890367D+00 0.17750568D+00 0.24464002D+06 0.24464002D+06 0.24464002D+06 0.10911679D+01  1  2 10  4  6  5        2 0.171373908430D-04 0.100000000000D+01
0.748756822312D-02 0.000000000000D+00 0.000000000000D+00 0.310113533568D-05 0.101804473398D-06  6 -1 2 25 -1 2 21 2 0.23890367D+00 0.17750568D+00 0.24484035D+06 0.24484035D+06 0.24484035D+06 0.10911411D+01  1  2  1  4  6  5        2 0.174611717374D-02 0.100000000000D+01
  </mgrwgt>
  </event>
  <event>
  5     66 0.22518659E-05 0.13374086E+03 0.75467711E-02 0.93604727E-01
       -1 -1    0    0    0  501 0.00000000E+00 0.00000000E+00 0.57544751E+03 0.57544760E+03 0.32000000E+00 0.0000E+00 0.9000E+01
        2 -1    0    0  502    0 0.00000000E+00 0.00000000E+00 -.13447039E+04 0.13447039E+04 0.32000000E+00 0.0000E+00 0.9000E+01
       25  1    1    2    0    0 0.14829783E+03 -.50916015E+03 -.26907661E+03 0.60767058E+03 0.12500000E+03 0.0000E+00 0.9000E+01
       -1  1    1    2    0  501 -.75487560E+02 0.39700160E+03 0.29867669E+03 0.50251020E+03 0.32000000E+00 0.0000E+00 0.9000E+01
        2  1    1    2  502    0 -.72810273E+02 0.11215856E+03 -.79885647E+03 0.80997076E+03 0.32000000E+00 0.0000E+00 0.9000E+01
#aMCatNLO 1  0  0  2  1 0.17331885D+02 0.00000000D+00  -5  6  0 0.00000000D+00 0.00000000D+00 0.00000000D+00 0.00000000D+00 0.00000000D+00
  <mgrwgt>
 0.9701899263D-03    9    2    0
 0.879662799811980D+03 0.000000000000000D+00 0.000000000000000D+00 0.879662799811980D+03
 0.879662799811980D+03 0.000000000000000D+00 0.000000000000000D+00 -.879662799811980D+03
 0.545550883925635D+03 0.148302620756999D+03 -.509147141056895D+03 -.278619522330693D+02
 0.678987166264116D+03 -.754815535011995D+02 0.396970004303553D+03 0.545656414528095D+03
 0.534787549434209D+03 -.728210672557993D+02 0.112177136753342D+03 -.517794462295026D+03
 0.000000000000000D+00 -.000000000000000D+00 0.000000000000000D+00 -.000000000000000D+00
 0.885870239356748D+03 0.000000000000000D+00 0.000000000000000D+00 0.885870239356748D+03
 0.891887406455663D+03 0.000000000000000D+00 0.000000000000000D+00 -.891887406455663D+03
 0.548909401418700D+03 0.153250552600385D+03 -.511287111818081D+03 -.278619522330693D+02
 0.676785201144587D+03 -.693522591276039D+02 0.394319096578596D+03 0.545656414528095D+03
 0.533716366972458D+03 -.679904812367659D+02 0.110087917829694D+03 -.517794462295026D+03
 0.183466762766663D+02 -.159078122360155D+02 0.688009740979008D+01 -.601716709891497D+01
0.750114237210D-04 0.000000000000D+00 0.000000000000D+00 0.170518473349D-05 0.000000000000D+00  6 -1 2 25 -1 2 21 0 0.88530397D-01 0.20687753D+00 0.29303941D+06 0.29303941D+06 0.29303941D+06 0.10853070D+01  1  2  2  2  6  2        2 0.215845702857D-03 0.100000000000D+01
0.113419957611D-04 0.000000000000D+00 -.288063618050D-06 0.170518473349D-05 0.000000000000D+00  6 -1 2 25 -1 2 21 2 0.88530397D-01 0.20687753D+00 0.29303941D+06 0.29303941D+06 0.29303941D+06 0.10853070D+01  1  2  3  2  6  2        2 0.384424143609D-04 0.100000000000D+01
-.534387400936D-04 0.000000000000D+00 0.000000000000D+00 0.170518473349D-05 0.000000000000D+00  6 -1 2 25 -1 2 21 2 0.88530397D-01 0.20687753D+00 0.29303941D+06 0.29303941D+06 0.29303941D+06 0.10853070D+01  1  2 15  2  6  2        2 -.181124577445D-03 0.100000000000D+01
0.264093528602D-08 0.000000000000D+00 0.000000000000D+00 0.170518473349D-05 0.000000000000D+00  6 -1 2 25 -1 2 21 2 0.88530397D-01 0.21047474D+00 0.29991846D+06 0.29991846D+06 0.29991846D+06 0.10845606D+01  1  2 12  2  6  2        2 0.866220712824D-08 0.100000000000D+01
-.303373215618D-05 0.000000000000D+00 0.000000000000D+00 0.170518473349D-05 0.000000000000D+00  6 -1 2 25 -1 2 21 2 0.88530397D-01 0.20687753D+00 0.29303941D+06 0.29303941D+06 0.29303941D+06 0.10853070D+01  1  2  4  2  6  2        2 -.102824926992D-04 0.100000000000D+01
-.846589353683D-02 0.000000000000D+00 -.107598742477D-02 0.170518473349D-05 0.000000000000D+00  6 -1 2 25 -1 2 21 2 0.88530397D-01 0.21060439D+00 0.29303941D+06 0.29303941D+06 0.29303941D+06 0.10853070D+01  1  2  5  2  6  2        2 -.278107512835D-01 0.100000000000D+01
0.848392387007D-02 0.000000000000D+00 0.107581594548D-02 0.170518473349D-05 0.000000000000D+00  6 -1 2 25 -1 2 21 2 0.88530397D-01 0.20687753D+00 0.29303941D+06 0.29303941D+06 0.29303941D+06 0.10853070D+01  1  2  6  2  6  2        2 0.287553023022D-01 0.100000000000D+01
0.131652449606D-09 0.000000000000D+00 0.000000000000D+00 0.170518473349D-05 0.000000000000D+00  6 -1 21 25 -1 2 -2 2 0.88530397D-01 0.21047474D+00 0.29991846D+06 0.29991846D+06 0.29991846D+06 0.10845606D+01  1  2 12  6  6  2        2 0.178238843838D-09 0.100000000000D+01
-.274715190859D-04 0.000000000000D+00 -.350752591393D-05 0.170518473349D-05 0.000000000000D+00  6 -1 21 25 -1 2 -2 2 0.88530397D-01 0.21060439D+00 0.29303941D+06 0.29303941D+06 0.29303941D+06 0.10853070D+01  1  2  5  6  6  2        2 -.372509798827D-04 0.100000000000D+01
  </mgrwgt>
  </event>
  <event>
  5     66 0.22518659E-05 0.12816554E+02 0.75467711E-02 0.95203604E-01
       -1 -1    0    0    0  501 0.00000000E+00 0.00000000E+00 0.36537723E+03 0.36537737E+03 0.32000000E+00 0.0000E+00 0.9000E+01
        2 -1    0    0  502    0 0.00000000E+00 0.00000000E+00 -.34717356E+04 0.34717357E+04 0.32000000E+00 0.0000E+00 0.9000E+01
       25  1    1    2    0    0 -.39506137E+03 -.21791966E+03 -.11801888E+04 0.12696586E+04 0.12500000E+03 0.0000E+00 0.9000E+01
       -1  1    1    2    0  501 0.38598552E+03 0.22696824E+03 0.16428672E+03 0.47695874E+03 0.32000000E+00 0.0000E+00 0.9000E+01
        2  1    1    2  502    0 0.90758489E+01 -.90485878E+01 -.20904564E+04 0.20904957E+04 0.32000000E+00 0.0000E+00 0.9000E+01
#aMCatNLO 1  0  0  2  1 0.31235852D+02 0.00000000D+00  -5  6  0 0.00000000D+00 0.00000000D+00 0.00000000D+00 0.00000000D+00 0.00000000D+00
  <mgrwgt>
 0.4596250983D-01    7    2    0
 0.112627414612698D+04 0.000000000000000D+00 0.000000000000000D+00 0.112627414612698D+04
 0.112627414612698D+04 0.000000000000000D+00 0.000000000000000D+00 -.112627414612698D+04
 0.535257598489802D+03 -.395059157333215D+03 -.217917688582620D+03 -.259452962887396D+03
 0.103902823171445D+04 0.385982774583210D+03 0.226966629209637D+03 0.937594322321717D+03
 0.678262462049703D+03 0.907638275000511D+01 -.904894062701709D+01 -.678141359434321D+03
 0.000000000000000D+00 0.000000000000000D+00 0.000000000000000D+00 -.000000000000000D+00
 0.112697780788242D+04 0.000000000000000D+00 0.000000000000000D+00 0.112697780788242D+04
 0.153606910163032D+04 0.000000000000000D+00 0.000000000000000D+00 -.153606910163032D+04
 0.540988222908932D+03 -.402502022498993D+03 -.218448024159834D+03 -.259452962887396D+03
 0.103356558489248D+04 0.371649584141289D+03 0.225945328855940D+03 0.937594322321717D+03
 0.678211046193708D+03 -.304419685709895D+00 -.971736241938682D+01 -.678141359434321D+03
 0.410282055517615D+03 0.311568580434143D+02 0.222005772328162D+01 -.409091293747896D+03
0.710284294926D-03 0.000000000000D+00 0.000000000000D+00 0.122913655208D-03 0.000000000000D+00  6 -1 2 25 -1 2 21 0 0.56211893D-01 0.53411319D+00 0.21564729D+06 0.21564729D+06 0.21564729D+06 0.10953217D+01  1  2  2  2  6  2        2 0.285527096531D-03 0.100000000000D+01
0.658925298987D-03 0.000000000000D+00 -.272767871466D-05 0.122913655208D-03 0.000000000000D+00  6 -1 2 25 -1 2 21 2 0.56211893D-01 0.53411319D+00 0.21564729D+06 0.21564729D+06 0.21564729D+06 0.10953217D+01  1  2  3  2  6  2        2 0.317785923455D-03 0.100000000000D+01
-.535691143544D-03 0.000000000000D+00 0.000000000000D+00 0.122913655208D-03 0.000000000000D+00  6 -1 2 25 -1 2 21 2 0.56211893D-01 0.53411319D+00 0.21564729D+06 0.21564729D+06 0.21564729D+06 0.10953217D+01  1  2 15  2  6  2        2 -.258352661522D-03 0.100000000000D+01
-.147017488093D-02 0.000000000000D+00 0.000000000000D+00 0.122913655208D-03 0.000000000000D+00  6 -1 2 25 -1 2 21 2 0.56211893D-01 0.53411319D+00 0.21564729D+06 0.21564729D+06 0.21564729D+06 0.10953217D+01  1  2  4  2  6  2        2 -.709034670386D-03 0.100000000000D+01
-.105169735150D+00 0.000000000000D+00 -.416110033906D-03 0.122913655208D-03 0.000000000000D+00  6 -1 2 25 -1 2 21 2 0.56211893D-01 0.72850264D+00 0.21564729D+06 0.21564729D+06 0.21564729D+06 0.10953217D+01  1  2  5  2  6  2        2 -.406397136501D-02 0.100000000000D+01
0.104487188596D+00 0.000000000000D+00 0.412902105879D-03 0.122913655208D-03 0.000000000000D+00  6 -1 2 25 -1 2 21 2 0.56211893D-01 0.53411319D+00 0.21564729D+06 0.21564729D+06 0.21564729D+06 0.10953217D+01  1  2  6  2  6  2        2 0.503919909710D-01 0.100000000000D+01
-.415661556107D-02 0.000000000000D+00 -.164847878985D-04 0.122913655208D-03 0.000000000000D+00  6 -1 21 25 -1 2 -2 2 0.56211893D-01 0.72850264D+00 0.21564729D+06 0.21564729D+06 0.21564729D+06 0.10953217D+01  1  2  5  6  6  2        2 -.143546422729D-05 0.100000000000D+01
  </mgrwgt>
  </event>
  <event>
  5     66 0.22518659E-05 0.93133001E+02 0.75467711E-02 0.91696965E-01
       -1 -1    0    0    0  501 0.00000000E+00 0.00000000E+00 0.52034855E+03 0.52034865E+03 0.32000000E+00 0.0000E+00 0.9000E+01
        2 -1    0    0  502    0 -.00000000E+00 -.00000000E+00 -.21121797E+04 0.21121797E+04 0.32000000E+00 0.0000E+00 0.9000E+01
       25  1    1    2    0    0 -.16707867E+03 -.55314765E+03 -.15301812E+04 0.16404167E+04 0.12500000E+03 0.0000E+00 0.9000E+01
       -1  1    1    2    0  501 0.25954561E+03 0.56453974E+03 0.24780450E+03 0.66893663E+03 0.32000000E+00 0.0000E+00 0.9000E+01
        2  1    1    2  502    0 -.92466939E+02 -.11392097E+02 -.30945452E+03 0.32317505E+03 0.32000000E+00 0.0000E+00 0.9000E+01
#aMCatNLO 1  0  0  5  2 0.54145488D+02 0.00000000D+00  -5  6  0 0.00000000D+00 0.00000000D+00 0.00000000D+00 0.00000000D+00 0.00000000D+00
  <mgrwgt>
 0.8139819202D-04    8    2    0
 0.104836530798373D+04 0.000000000000000D+00 0.000000000000000D+00 0.104836530798373D+04
 0.104836530798373D+04 -.000000000000000D+00 -.000000000000000D+00 -.104836530798373D+04
 0.897961819831166D+03 -.167117360879381D+03 -.553139675159799D+03 -.675883656653511D+03
 0.102802252754476D+04 0.259549077900901D+03 0.564547286782494D+03 0.818993867063018D+03
 0.170746268591539D+03 -.924317170215205D+02 -.114076116226944D+02 -.143110210409507D+03
 0.000000000000000D+00 -.000000000000000D+00 0.000000000000000D+00 0.000000000000000D+00
 0.104836530798373D+04 0.000000000000000D+00 0.000000000000000D+00 0.104836530798373D+04
 0.104836530798373D+04 -.000000000000000D+00 -.000000000000000D+00 -.104836530798373D+04
 0.910949084420810D+03 -.176171928149888D+03 -.554257159397482D+03 -.689902665160598D+03
 0.101220672580093D+04 0.249336638483209D+03 0.563286901858884D+03 0.803182147872299D+03
 0.939814853259049D+02 0.311148156202325D+01 -.176806776241339D+02 -.922509181813597D+02
 0.795933204198178D+02 -.762761918953436D+02 0.865093516273257D+01 -.210285645303405D+02
0.626691488558D-04 0.000000000000D+00 0.000000000000D+00 0.109774190264D-06 0.000000000000D+00  6 -1 2 25 -1 2 21 0 0.80053633D-01 0.32495074D+00 0.42620348D+06 0.42620348D+06 0.42620348D+06 0.10734467D+01  1  2  2  4  6  5        2 0.823043866019D-04 0.100000000000D+01
0.695768234090D-05 0.000000000000D+00 -.240666032772D-06 0.109774190264D-06 0.000000000000D+00  6 -1 2 25 -1 2 21 2 0.80053633D-01 0.32495074D+00 0.42620348D+06 0.42620348D+06 0.42620348D+06 0.10734467D+01  1  2  3  4  6  5        2 0.105291846016D-04 0.100000000000D+01
-.489389839522D-04 0.000000000000D+00 0.000000000000D+00 0.109774190264D-06 0.000000000000D+00  6 -1 2 25 -1 2 21 2 0.80053633D-01 0.32495074D+00 0.42620348D+06 0.42620348D+06 0.42620348D+06 0.10734467D+01  1  2 15  4  6  5        2 -.740602360098D-04 0.100000000000D+01
0.121374761617D-07 0.000000000000D+00 0.000000000000D+00 0.109774190264D-06 0.000000000000D+00  6 -1 2 25 -1 2 21 2 0.80053633D-01 0.32495074D+00 0.42613806D+06 0.42613806D+06 0.42613806D+06 0.10734515D+01  1  2 12  4  6  5        2 0.183682116321D-07 0.100000000000D+01
0.251165849384D-04 0.000000000000D+00 0.000000000000D+00 0.109774190264D-06 0.000000000000D+00  6 -1 2 25 -1 2 21 2 0.80053633D-01 0.32495074D+00 0.42613806D+06 0.42613806D+06 0.42613806D+06 0.10734515D+01  1  2 12  4  6  5        2 0.380101053528D-04 0.100000000000D+01
-.208075874494D-04 0.000000000000D+00 0.000000000000D+00 0.109774190264D-06 0.000000000000D+00  6 -1 2 25 -1 2 21 2 0.80053633D-01 0.32495074D+00 0.42620348D+06 0.42620348D+06 0.42620348D+06 0.10734467D+01  1  2  4  4  6  5        2 -.314884926668D-04 0.100000000000D+01
-.270473749545D-04 0.000000000000D+00 0.000000000000D+00 0.109774190264D-06 0.000000000000D+00  6 -1 2 25 -1 2 21 2 0.80053633D-01 0.32495074D+00 0.42620348D+06 0.42620348D+06 0.42620348D+06 0.10734467D+01  1  2  5  4  6  5        2 -.409312742278D-04 0.100000000000D+01
0.641082458204D-04 0.000000000000D+00 -.000000000000D+00 0.109774190264D-06 0.000000000000D+00  6 -1 2 25 -1 2 21 2 0.80053633D-01 0.32495074D+00 0.42620348D+06 0.42620348D+06 0.42620348D+06 0.10734467D+01  1  2  6  4  6  5        2 0.970161501569D-04 0.100000000000D+01
  </mgrwgt>
  </event>
  <event>
  6     66 0.22518659E-05 0.10193026E+03 0.75467711E-02 0.90127423E-01
       -1 -1    0    0    0  501 0.00000000E+00 0.00000000E+00 0.34552527E+03 0.34552542E+03 0.32000000E+00 0.0000E+00 0.9000E+01
        2 -1    0    0  502    0 -.00000000E+00 -.00000000E+00 -.26725977E+04 0.26725977E+04 0.32000000E+00 0.0000E+00 0.9000E+01
       25  1    1    2    0    0 -.51780507E+03 0.54710671E+03 -.18231846E+04 0.19766322E+04 0.12500000E+03 0.0000E+00 0.9000E+01
       -1  1    1    2    0  501 0.42559355E+03 -.45403978E+03 -.12199458E+03 0.63416462E+03 0.32000000E+00 0.0000E+00 0.9000E+01
        2  1    1    2  503    0 0.15904410E+02 -.16184061E+02 -.22476041E+02 0.31939770E+02 0.32000000E+00 0.0000E+00 0.9000E+01
       21  1    1    2  502  503 0.76307111E+02 -.76882867E+02 -.35941719E+03 0.37538651E+03 0.75000000E+00 0.0000E+00 0.9000E+01
#aMCatNLO 2  0  0  5  2 0.16357812D+02 0.00000000D+00  -5  6  0 0.00000000D+00 0.00000000D+00 0.00000000D+00 0.00000000D+00 0.00000000D+00
  <mgrwgt>
 0.8842277333D-02    3    2    0
 0.960963215172524D+03 0.000000000000000D+00 0.000000000000000D+00 0.960963215172524D+03
 0.960963215172524D+03 -.000000000000000D+00 -.000000000000000D+00 -.960963215172524D+03
 0.897810765272533D+03 -.519945328659899D+03 0.549267164257892D+03 -.467334577911902D+03
 0.847669460035953D+03 0.423578412611961D+03 -.452006682637280D+03 0.578631835192306D+03
 0.176446205036561D+03 0.963669160479375D+02 -.972604816206120D+02 -.111297257280404D+03
 0.000000000000000D+00 0.000000000000000D+00 0.000000000000000D+00 -.000000000000000D+00
 0.960963215172524D+03 0.000000000000000D+00 0.000000000000000D+00 0.960963215172524D+03
 0.960963215172524D+03 -.000000000000000D+00 -.000000000000000D+00 -.960963215172524D+03
 0.896585625992041D+03 -.517875662123152D+03 0.547178306666372D+03 -.469724902501208D+03
 0.848164904196794D+03 0.425534397171786D+03 -.453980804131802D+03 0.576372805582155D+03
 0.221085922020599D+02 0.153213623851768D+02 -.155910402521759D+02 0.331136945599631D+01
 0.155067307954152D+03 0.770199025661894D+02 -.776064622823947D+02 -.109959272536943D+03
-.664962068816D-07 0.000000000000D+00 0.000000000000D+00 0.100469747671D-07 0.000000000000D+00  6 -1 2 25 -1 2 21 2 0.53157747D-01 0.41116889D+00 0.57541702D+06 0.57541702D+06 0.57541702D+06 0.10642249D+01  1  2 13  4  6  5        2 -.102222835686D-06 0.100000000000D+01
-.323261261097D-05 0.000000000000D+00 0.000000000000D+00 0.100469747671D-07 0.000000000000D+00  6 -1 2 25 -1 2 21 2 0.53157747D-01 0.41116889D+00 0.57541702D+06 0.57541702D+06 0.57541702D+06 0.10642249D+01  1  2 13  4  6  5        2 -.496940868156D-05 0.100000000000D+01
0.575522233511D-02 0.000000000000D+00 0.000000000000D+00 0.100469747671D-07 0.222248451992D-07  6 -1 2 25 -1 2 21 2 0.53157747D-01 0.41116889D+00 0.57541702D+06 0.57541702D+06 0.57541702D+06 0.10642249D+01  1  2  1  4  6  5        2 0.884734896452D-02 0.100000000000D+01
  </mgrwgt>
  </event>
  <event>
  6     66 0.22518659E-05 0.22919760E+02 0.75467711E-02 0.95159304E-01
       -1 -1    0    0    0  501 0.00000000E+00 0.00000000E+00 0.21875134E+03 0.21875157E+03 0.32000000E+00 0.0000E+00 0.9000E+01
        2 -1    0    0  502    0 -.00000000E+00 -.00000000E+00 -.30394553E+04 0.30394553E+04 0.32000000E+00 0.0000E+00 0.9000E+01
       25  1    1    2    0    0 -.38747826E+03 0.26043201E+03 -.10691432E+04 0.11733100E+04 0.12500000E+03 0.0000E+00 0.9000E+01
       -1  1    1    2    0  501 0.36283252E+03 -.23984893E+03 -.12162705E+03 0.45162838E+03 0.32000000E+00 0.0000E+00 0.9000E+01
        2  1    1    2  503    0 0.15041097E+00 -.97555289E+01 -.13751082E+02 0.16863796E+02 0.32000000E+00 0.0000E+00 0.9000E+01
       21  1    1    2  502  503 0.24495327E+02 -.10827545E+02 -.16161827E+04 0.16164047E+04 0.75000000E+00 0.0000E+00 0.9000E+01
#aMCatNLO 2  0  0  5  4 0.87958529D+01 0.00000000D+00  -5  6  0 0.00000000D+00 0.00000000D+00 0.00000000D+00 0.00000000D+00 0.00000000D+00
  <mgrwgt>
 0.2769056096D-02    2    2    0
 0.815405010096213D+03 0.000000000000000D+00 0.000000000000000D+00 0.815405010096213D+03
 0.815405010096213D+03 -.000000000000000D+00 -.000000000000000D+00 -.815405010096213D+03
 0.494480446187375D+03 -.387684409771286D+03 0.260601714590517D+03 -.103312421491498D+03
 0.695471663788564D+03 0.362572516994467D+03 -.239629493634338D+03 0.542954612130408D+03
 0.440857910216488D+03 0.251118927768195D+02 -.209722209561786D+02 -.439642190638910D+03
 0.000000000000000D+00 0.000000000000000D+00 0.000000000000000D+00 0.000000000000000D+00
 0.815405010096213D+03 0.000000000000000D+00 0.000000000000000D+00 0.815405010096213D+03
 0.815405010096213D+03 -.000000000000000D+00 -.000000000000000D+00 -.815405010096213D+03
 0.494912327156550D+03 -.387510733541486D+03 0.260456668723263D+03 -.106353028538130D+03
 0.692345172285522D+03 0.362816131868394D+03 -.239832948826252D+03 0.538689566170007D+03
 0.886077868121809D+01 0.135730908806720D+00 -.873218856984004D+01 0.149795151413185D+01
 0.434691742069136D+03 0.245588707642844D+02 -.118915313271705D+02 -.433834489146009D+03
-.113671292611D-08 0.000000000000D+00 0.000000000000D+00 0.153908874919D-04 0.000000000000D+00  6 -1 2 25 -1 2 21 2 0.33654072D-01 0.46760853D+00 0.22766717D+06 0.22766717D+06 0.22766717D+06 0.10935296D+01  1  2 13  4  6  5        2 -.262767443086D-08 0.100000000000D+01
0.119787474698D-02 0.000000000000D+00 0.000000000000D+00 0.153908874919D-04 0.303741007362D-06  6 -1 2 25 -1 2 21 2 0.33654072D-01 0.46760853D+00 0.22766717D+06 0.22766717D+06 0.22766717D+06 0.10935296D+01  1  2  1  4  6  5        2 0.276905872337D-02 0.100000000000D+01
  </mgrwgt>
  </event>
  <event>
  5     66 0.22518659E-05 0.21465822E+02 0.75467711E-02 0.86288865E-01
       -1 -1    0    0    0  501 0.00000000E+00 0.00000000E+00 0.13883909E+04 0.13883910E+04 0.32000000E+00 0.0000E+00 0.9000E+01
        2 -1    0    0  502    0 -.00000000E+00 -.00000000E+00 -.20459794E+04 0.20459794E+04 0.32000000E+00 0.0000E+00 0.9000E+01
       25  1    1    2    0    0 -.37559722E+02 0.90053808E+03 0.51343923E+03 0.10448083E+04 0.12500000E+03 0.0000E+00 0.9000E+01
       -1  1    1    2    0  501 0.13639649E+02 -.16584514E+02 0.49921640E+03 0.49967810E+03 0.32000000E+00 0.0000E+00 0.9000E+01
        2  1    1    2  502    0 0.23920074E+02 -.88395356E+03 -.16702441E+04 0.18898840E+04 0.32000000E+00 0.0000E+00 0.9000E+01
#aMCatNLO 1  0  0  4  1 0.12051903D+02 0.00000000D+00  -5  6  0 0.00000000D+00 0.00000000D+00 0.00000000D+00 0.00000000D+00 0.00000000D+00
  <mgrwgt>
 0.1196050558D-02    4    2    0
 0.168541371394649D+04 0.000000000000000D+00 0.000000000000000D+00 0.168541371394649D+04
 0.168541371394649D+04 -.000000000000000D+00 -.000000000000000D+00 -.168541371394649D+04
 0.116483867489115D+04 -.375581608709277D+02 0.900615934627269D+03 0.727120664930947D+03
 0.606285247509810D+03 0.136351422430538D+02 -.165790352233142D+02 0.605905124450279D+03
 0.159970350549202D+04 0.239230186278742D+02 -.884036899403955D+03 -.133302578938123D+04
 0.000000000000000D+00 -.000000000000000D+00 0.000000000000000D+00 0.000000000000000D+00
 0.168541371394649D+04 0.000000000000000D+00 0.000000000000000D+00 0.168541371394649D+04
 0.168541371394649D+04 -.000000000000000D+00 -.000000000000000D+00 -.168541371394649D+04
 0.120780988339005D+04 -.360000981275595D+02 0.898721478622192D+03 0.796356334320663D+03
 0.278417982013456D+03 0.196791689631416D+03 0.108703174652892D+03 0.164235268504791D+03
 0.152601420438400D+04 0.259756042470321D+02 -.886532648159068D+03 -.124181499576781D+04
 0.358585358105477D+03 -.186767195750888D+03 -.120892005116016D+03 0.281223392942357D+03
0.130296352405D-01 0.000000000000D+00 0.000000000000D+00 0.198888838139D-04 0.000000000000D+00  6 -1 2 25 -1 2 21 0 0.21359861D+00 0.31476607D+00 0.82432862D+06 0.82432862D+06 0.82432862D+06 0.10534950D+01  1  2  2  3  6  4       -1 0.117356400498D-02 0.100000000000D+01
0.101774765037D-01 0.000000000000D+00 -.500372301053D-04 0.198888838139D-04 0.000000000000D+00  6 -1 2 25 -1 2 21 2 0.21359861D+00 0.31476607D+00 0.82432862D+06 0.82432862D+06 0.82432862D+06 0.10534950D+01  1  2  3  3  6  4       -1 0.101737145942D-02 0.100000000000D+01
-.917683759087D-02 0.000000000000D+00 0.000000000000D+00 0.198888838139D-04 0.000000000000D+00  6 -1 2 25 -1 2 21 2 0.21359861D+00 0.31476607D+00 0.82432862D+06 0.82432862D+06 0.82432862D+06 0.10534950D+01  1  2 15  3  6  4       -1 -.917344554841D-03 0.100000000000D+01
-.775690236349D-03 0.000000000000D+00 0.000000000000D+00 0.198888838139D-04 0.000000000000D+00  6 -1 2 25 -1 2 21 2 0.21359861D+00 0.31476607D+00 0.82432862D+06 0.82432862D+06 0.82432862D+06 0.10534950D+01  1  2  4  3  6  4       -1 -.775403517292D-04 0.100000000000D+01
  </mgrwgt>
  </event>
  <event>
  5     66 0.22518659E-05 0.14643419E+02 0.75467711E-02 0.94032543E-01
       -1 -1    0    0    0  501 0.00000000E+00 0.00000000E+00 0.44782647E+03 0.44782659E+03 0.32000000E+00 0.0000E+00 0.9000E+01
        2 -1    0    0  502    0 -.00000000E+00 -.00000000E+00 -.31896271E+04 0.31896271E+04 0.32000000E+00 0.0000E+00 0.9000E+01
       25  1    1    2    0    0 0.49600891E+03 -.24847845E+02 -.44879972E+03 0.68094672E+03 0.12500000E+03 0.0000E+00 0.9000E+01
       -1  1    1    2    0  501 -.30679586E+01 0.14320014E+02 0.30842296E+03 0.30877062E+03 0.32000000E+00 0.0000E+00 0.9000E+01
        2  1    1    2  502    0 -.49294095E+03 0.10527831E+02 -.26014238E+04 0.26477363E+04 0.32000000E+00 0.0000E+00 0.9000E+01
#aMCatNLO 1  0  0  4  1 0.39056037D+02 0.00000000D+00  -5  6  0 0.00000000D+00 0.00000000D+00 0.00000000D+00 0.00000000D+00 0.00000000D+00
  <mgrwgt>
 0.2117281665D-02    6    2    0
 0.119515675629750D+04 0.000000000000000D+00 0.000000000000000D+00 0.119515675629750D+04
 0.119515675629750D+04 -.000000000000000D+00 -.000000000000000D+00 -.119515675629750D+04
 0.521504942288211D+03 0.496067669036008D+03 -.248481207687414D+02 0.981928890626709D+02
 0.823559053251065D+03 -.306763357979378D+01 0.143184969083234D+02 0.823428858167053D+03
 0.104524951705573D+04 -.493000035456214D+03 0.105296238604172D+02 -.921621747229724D+03
 0.000000000000000D+00 0.000000000000000D+00 0.000000000000000D+00 0.000000000000000D+00
 0.119515675629750D+04 0.000000000000000D+00 0.000000000000000D+00 0.119515675629750D+04
 0.119515675629750D+04 -.000000000000000D+00 -.000000000000000D+00 -.119515675629750D+04
 0.521588166886322D+03 0.496065987041403D+03 -.248402698850133D+02 0.986443780887316D+02
 0.627874029051009D+03 -.216753757467952D+02 -.468022600290949D+01 0.627482326386604D+03
 0.104445383360125D+04 -.493003405116824D+03 0.105453520997161D+02 -.920717246833503D+03
 0.196397483056421D+03 0.186127938222165D+02 0.189751437882059D+02 0.194590542358168D+03
0.284500101471D-03 0.000000000000D+00 0.000000000000D+00 0.100685591255D-03 0.000000000000D+00  6 -1 2 25 -1 2 21 0 0.68896391D-01 0.49071186D+00 0.26006592D+06 0.26006592D+06 0.26006592D+06 0.10891718D+01  1  2  2  3  6  4       -1 0.118794625176D-03 0.100000000000D+01
0.276332413958D-03 0.000000000000D+00 -.109255530025D-05 0.100685591255D-03 0.000000000000D+00  6 -1 2 25 -1 2 21 2 0.68896391D-01 0.49071186D+00 0.26006592D+06 0.26006592D+06 0.26006592D+06 0.10891718D+01  1  2  3  3  6  4       -1 0.136879665876D-03 0.100000000000D+01
-.203438746973D-03 0.000000000000D+00 0.000000000000D+00 0.100685591255D-03 0.000000000000D+00  6 -1 2 25 -1 2 21 2 0.68896391D-01 0.49071186D+00 0.26006592D+06 0.26006592D+06 0.26006592D+06 0.10891718D+01  1  2 15  3  6  4       -1 -.100772208780D-03 0.100000000000D+01
-.140968685466D-03 0.000000000000D+00 0.000000000000D+00 0.100685591255D-03 0.000000000000D+00  6 -1 2 25 -1 2 21 2 0.68896391D-01 0.49071186D+00 0.26006592D+06 0.26006592D+06 0.26006592D+06 0.10891718D+01  1  2  4  3  6  4       -1 -.698280244771D-04 0.100000000000D+01
-.154300143356D-01 0.000000000000D+00 0.000000000000D+00 0.100685591255D-03 0.000000000000D+00  6 -1 2 25 -1 2 21 2 0.68896391D-01 0.49071186D+00 0.26006592D+06 0.26006592D+06 0.26006592D+06 0.10891718D+01  1  2  5  3  6  4       -1 -.764316851749D-02 0.100000000000D+01
0.195326312594D-01 0.000000000000D+00 -.000000000000D+00 0.100685591255D-03 0.000000000000D+00  6 -1 2 25 -1 2 21 2 0.68896391D-01 0.49071186D+00 0.26006592D+06 0.26006592D+06 0.26006592D+06 0.10891718D+01  1  2  6  3  6  4       -1 0.967537612463D-02 0.100000000000D+01
  </mgrwgt>
  </event>
  <event>
  5     66 0.22518659E-05 0.62228236E+02 0.75467711E-02 0.94720214E-01
       -1 -1    0    0    0  501 0.00000000E+00 0.00000000E+00 0.10554815E+04 0.10554816E+04 0.32000000E+00 0.0000E+00 0.9000E+01
        2 -1    0    0  502    0 -.00000000E+00 -.00000000E+00 -.29036494E+04 0.29036494E+04 0.32000000E+00 0.0000E+00 0.9000E+01
       25  1    1    2    0    0 0.45548232E+03 0.51425617E+02 -.97114641E+03 0.10811379E+04 0.12500000E+03 0.0000E+00 0.9000E+01
       -1  1    1    2    0  501 -.45423391E+03 0.10790246E+02 0.94834209E+03 0.10515692E+04 0.32000000E+00 0.0000E+00 0.9000E+01
        2  1    1    2  502    0 -.12484078E+01 -.62215863E+02 -.18253636E+04 0.18264240E+04 0.32000000E+00 0.0000E+00 0.9000E+01
#aMCatNLO 1  0  0  4  4 0.80240744D+02 0.00000000D+00  -5  6  0 0.00000000D+00 0.00000000D+00 0.00000000D+00 0.00000000D+00 0.00000000D+00
  <mgrwgt>
 0.1041128909D-01    6    2    0
 0.175064230301042D+04 0.000000000000000D+00 0.000000000000000D+00 0.175064230301042D+04
 0.175064230301042D+04 -.000000000000000D+00 -.000000000000000D+00 -.175064230301042D+04
 0.709891398669008D+03 0.455482504131747D+03 0.514254627039673D+02 -.527457968107220D+03
 0.168966454712017D+04 -.454233997881274D+03 0.107902477643529D+02 0.162742782559375D+04
 0.110172866023167D+04 -.124850625047176D+01 -.622157104683202D+02 -.109996985748653D+04
 0.000000000000000D+00 0.000000000000000D+00 0.000000000000000D+00 0.000000000000000D+00
 0.175064230301042D+04 0.000000000000000D+00 0.000000000000000D+00 0.175064230301042D+04
 0.175064230301042D+04 -.000000000000000D+00 -.000000000000000D+00 -.175064230301042D+04
 0.679862492704120D+03 0.446333538934009D+03 0.516427947436902D+02 -.494679090683611D+03
 0.143061265140361D+04 -.528404821653046D+03 0.234939504175501D+03 0.130852754353421D+04
 0.105112863315845D+04 -.154210993802237D+02 -.618790430412965D+02 -.104919234517402D+04
 0.339680828754662D+03 0.974923820992604D+02 -.224703255877895D+03 0.235343892323423D+03
0.157590735487D+00 0.000000000000D+00 0.000000000000D+00 0.312302464100D-03 0.000000000000D+00  6 -1 2 25 -1 2 21 0 0.16238178D+00 0.44671530D+00 0.24586969D+06 0.24586969D+06 0.24586969D+06 0.10910038D+01  1  2  2  3  6  4       -1 0.132583437231D-01 0.100000000000D+01
0.509061391676D-01 0.000000000000D+00 -.605189918865D-03 0.312302464100D-03 0.000000000000D+00  6 -1 2 25 -1 2 21 2 0.16238178D+00 0.44671530D+00 0.24586969D+06 0.24586969D+06 0.24586969D+06 0.10910038D+01  1  2  3  3  6  4       -1 0.509778233598D-02 0.100000000000D+01
-.126333310508D+00 0.000000000000D+00 0.000000000000D+00 0.312302464100D-03 0.000000000000D+00  6 -1 2 25 -1 2 21 2 0.16238178D+00 0.44671530D+00 0.24586969D+06 0.24586969D+06 0.24586969D+06 0.10910038D+01  1  2 15  3  6  4       -1 -.126511208527D-01 0.100000000000D+01
-.817601174441D-02 0.000000000000D+00 0.000000000000D+00 0.312302464100D-03 0.000000000000D+00  6 -1 2 25 -1 2 21 2 0.16238178D+00 0.44671530D+00 0.24586969D+06 0.24586969D+06 0.24586969D+06 0.10910038D+01  1  2  4  3  6  4       -1 -.818752490975D-03 0.100000000000D+01
-.249940267134D+00 0.000000000000D+00 0.000000000000D+00 0.312302464100D-03 0.000000000000D+00  6 -1 2 25 -1 2 21 2 0.16238178D+00 0.44671530D+00 0.24586969D+06 0.24586969D+06 0.24586969D+06 0.10910038D+01  1  2  5  3  6  4       -1 -.250292224018D-01 0.100000000000D+01
0.305112938734D+00 0.000000000000D+00 -.000000000000D+00 0.312302464100D-03 0.000000000000D+00  6 -1 2 25 -1 2 21 2 0.16238178D+00 0.44671530D+00 0.24586969D+06 0.24586969D+06 0.24586969D+06 0.10910038D+01  1  2  6  3  6  4       -1 0.305542587788D-01 0.100000000000D+01
  </mgrwgt>
  </event>
  <event>
  5     66 0.22518659E-05 0.37668933E+02 0.75467711E-02 0.92090922E-01
       -1 -1    0    0    0  501 0.00000000E+00 0.00000000E+00 0.64250995E+03 0.64251003E+03 0.32000000E+00 0.0000E+00 0.9000E+01
        2 -1    0    0  502    0 -.00000000E+00 -.00000000E+00 -.16601757E+04 0.16601758E+04 0.32000000E+00 0.0000E+00 0.9000E+01
       25  1    1    2    0    0 -.51527622E+03 0.11589922E+03 -.61729568E+03 0.82196178E+03 0.12500000E+03 0.0000E+00 0.9000E+01
       -1  1    1    2    0  501 0.36975876E+02 -.72099051E+01 0.47543303E+03 0.47692333E+03 0.32000000E+00 0.0000E+00 0.9000E+01
        2  1    1    2  502    0 0.47830034E+03 -.10868931E+03 -.87580312E+03 0.10038007E+04 0.32000000E+00 0.0000E+00 0.9000E+01
#aMCatNLO 1  0  0  4  5 0.22011847D+03 0.00000000D+00  -5  6  0 0.00000000D+00 0.00000000D+00 0.00000000D+00 0.00000000D+00 0.00000000D+00
  <mgrwgt>
 0.6372836567D-03    6    2    0
 0.103280179922537D+04 0.000000000000000D+00 0.000000000000000D+00 0.103280179922537D+04
 0.103280179922537D+04 -.000000000000000D+00 -.000000000000000D+00 -.103280179922537D+04
 0.612210256732455D+03 -.515338197022353D+03 0.115913308068212D+03 -.283137857148868D+03
 0.765828068637859D+03 0.369726239051550D+02 -.720927088868406D+01 0.764901093088783D+03
 0.687565273080434D+03 0.478365573117198D+03 -.108704037179528D+03 -.481763235939915D+03
 0.000000000000000D+00 0.000000000000000D+00 0.000000000000000D+00 0.000000000000000D+00
 0.103280179922537D+04 0.000000000000000D+00 0.000000000000000D+00 0.103280179922537D+04
 0.103280179922537D+04 -.000000000000000D+00 -.000000000000000D+00 -.103280179922537D+04
 0.607179577534291D+03 -.514850646107602D+03 0.115818240792882D+03 -.273051252838997D+03
 0.521930418171943D+03 0.125890690194547D+03 0.269334560589509D+02 0.505803800381335D+03
 0.680088418864143D+03 0.478912404647059D+03 -.108810663548253D+03 -.470450215906520D+03
 0.256405183880371D+03 -.899524487340033D+02 -.339410333035800D+02 0.237697668364182D+03
0.219808201028D-03 0.000000000000D+00 0.000000000000D+00 0.144633965891D-04 0.000000000000D+00  6 -1 2 25 -1 2 21 0 0.98847694D-01 0.25541166D+00 0.28677757D+06 0.28677757D+06 0.28677757D+06 0.10860032D+01  1  2  2  3  6  4       -1 0.333902552070D-03 0.100000000000D+01
0.125564790353D-03 0.000000000000D+00 -.844121368777D-06 0.144633965891D-04 0.000000000000D+00  6 -1 2 25 -1 2 21 2 0.98847694D-01 0.25541166D+00 0.28677757D+06 0.28677757D+06 0.28677757D+06 0.10860032D+01  1  2  3  3  6  4       -1 0.224960312205D-03 0.100000000000D+01
-.160718734022D-03 0.000000000000D+00 0.000000000000D+00 0.144633965891D-04 0.000000000000D+00  6 -1 2 25 -1 2 21 2 0.98847694D-01 0.25541166D+00 0.28677757D+06 0.28677757D+06 0.28677757D+06 0.10860032D+01  1  2 15  3  6  4       -1 -.287941679201D-03 0.100000000000D+01
-.986020903306D-05 0.000000000000D+00 0.000000000000D+00 0.144633965891D-04 0.000000000000D+00  6 -1 2 25 -1 2 21 2 0.98847694D-01 0.25541166D+00 0.28677757D+06 0.28677757D+06 0.28677757D+06 0.10860032D+01  1  2  4  3  6  4       -1 -.176654275155D-04 0.100000000000D+01
-.554593610429D-03 0.000000000000D+00 0.000000000000D+00 0.144633965891D-04 0.000000000000D+00  6 -1 2 25 -1 2 21 2 0.98847694D-01 0.25541166D+00 0.28677757D+06 0.28677757D+06 0.28677757D+06 0.10860032D+01  1  2  5  3  6  4       -1 -.993602994901D-03 0.100000000000D+01
0.768944231520D-03 0.000000000000D+00 -.000000000000D+00 0.144633965891D-04 0.000000000000D+00  6 -1 2 25 -1 2 21 2 0.98847694D-01 0.25541166D+00 0.28677757D+06 0.28677757D+06 0.28677757D+06 0.10860032D+01  1  2  6  3  6  4       -1 0.137763089401D-02 0.100000000000D+01
  </mgrwgt>
  </event>
  <event>
  5     66 0.22518659E-05 0.77499679E+02 0.75467711E-02 0.92848567E-01
       -1 -1    0    0    0  501 0.00000000E+00 0.00000000E+00 0.25360344E+03 0.25360364E+03 0.32000000E+00 0.0000E+00 0.9000E+01
        2 -1    0    0  502    0 -.00000000E+00 -.00000000E+00 -.30825326E+04 0.30825326E+04 0.32000000E+00 0.0000E+00 0.9000E+01
       25  1    1    2    0    0 -.78743086E+01 0.47377850E+03 -.13536614E+04 0.14396361E+04 0.12500000E+03 0.0000E+00 0.9000E+01
       -1  1    1    2    0  501 0.49160832E+02 -.40819937E+03 0.79827222E+01 0.41122663E+03 0.32000000E+00 0.0000E+00 0.9000E+01
        2  1    1    2  502    0 -.41286523E+02 -.65579131E+02 -.14832505E+04 0.14852735E+04 0.32000000E+00 0.0000E+00 0.9000E+01
#aMCatNLO 1  0  0  5  2 0.30090359D+02 0.00000000D+00  -5  6  0 0.00000000D+00 0.00000000D+00 0.00000000D+00 0.00000000D+00 0.00000000D+00
  <mgrwgt>
 0.1943719228D-02    6    2    0
 0.884161318966636D+03 0.000000000000000D+00 0.000000000000000D+00 0.884161318966636D+03
 0.884161318966636D+03 -.000000000000000D+00 -.000000000000000D+00 -.884161318966636D+03
 0.550449942422374D+03 -.787055949621556D+01 0.473777641590411D+03 -.250684941181235D+03
 0.788582248957084D+03 0.491600328378574D+02 -.408192737268018D+03 0.672921944792437D+03
 0.429290446553815D+03 -.412894733416418D+02 -.655849043223934D+02 -.422237003611202D+03
 0.000000000000000D+00 0.000000000000000D+00 -.000000000000000D+00 0.000000000000000D+00
 0.884161318966636D+03 0.000000000000000D+00 0.000000000000000D+00 0.884161318966636D+03
 0.884161318966636D+03 -.000000000000000D+00 -.000000000000000D+00 -.884161318966636D+03
 0.562005698934442D+03 -.110953660089608D+02 0.468655303873807D+03 -.283662659930536D+03
 0.753560858438563D+03 0.446896405350693D+02 -.415293584717342D+03 0.627206538464110D+03
 0.286194824802482D+03 -.111739297928273D+03 0.644516461828044D+02 -.255475619867233D+03
 0.166561255757786D+03 0.781450234021640D+02 -.117813365339270D+03 -.880682586663404D+02
0.258282641652D-02 0.000000000000D+00 0.000000000000D+00 0.737533075629D-05 0.000000000000D+00  6 -1 2 25 -1 2 21 0 0.39015931D-01 0.47423580D+00 0.23946111D+06 0.23946111D+06 0.23946111D+06 0.10918691D+01  1  2  2  4  6  5        2 0.361895500468D-02 0.100000000000D+01
0.542033839766D-03 0.000000000000D+00 -.991873351327D-05 0.737533075629D-05 0.000000000000D+00  6 -1 2 25 -1 2 21 2 0.39015931D-01 0.47423580D+00 0.23946111D+06 0.23946111D+06 0.23946111D+06 0.10918691D+01  1  2  3  4  6  5        2 0.905431283839D-03 0.100000000000D+01
-.197939415365D-02 0.000000000000D+00 0.000000000000D+00 0.737533075629D-05 0.000000000000D+00  6 -1 2 25 -1 2 21 2 0.39015931D-01 0.47423580D+00 0.23946111D+06 0.23946111D+06 0.23946111D+06 0.10918691D+01  1  2 15  4  6  5        2 -.330644557274D-02 0.100000000000D+01
-.180865507581D-03 0.000000000000D+00 0.000000000000D+00 0.737533075629D-05 0.000000000000D+00  6 -1 2 25 -1 2 21 2 0.39015931D-01 0.47423580D+00 0.23946111D+06 0.23946111D+06 0.23946111D+06 0.10918691D+01  1  2  4  4  6  5        2 -.302123736042D-03 0.100000000000D+01
-.130483819211D-02 0.000000000000D+00 0.000000000000D+00 0.737533075629D-05 0.000000000000D+00  6 -1 2 25 -1 2 21 2 0.39015931D-01 0.47423580D+00 0.23946111D+06 0.23946111D+06 0.23946111D+06 0.10918691D+01  1  2  5  4  6  5        2 -.217964494614D-02 0.100000000000D+01
0.192018892323D-02 0.000000000000D+00 -.000000000000D+00 0.737533075629D-05 0.000000000000D+00  6 -1 2 25 -1 2 21 2 0.39015931D-01 0.47423580D+00 0.23946111D+06 0.23946111D+06 0.23946111D+06 0.10918691D+01  1  2  6  4  6  5        2 0.320754719433D-02 0.100000000000D+01
  </mgrwgt>
  </event>
  <event>
  5     66 0.22518659E-05 0.67493224E+02 0.75467711E-02 0.90427205E-01
       -1 -1    0    0    0  501 0.00000000E+00 0.00000000E+00 0.15348629E+04 0.15348630E+04 0.32000000E+00 0.0000E+00 0.9000E+01
        2 -1    0    0  502    0 0.00000000E+00 0.00000000E+00 -.11173300E+04 0.11173300E+04 0.32000000E+00 0.0000E+00 0.9000E+01
       25  1    1    2    0    0 0.31166904E+03 0.49157993E+03 0.10531471E+02 0.59541946E+03 0.12500000E+03 0.0000E+00 0.9000E+01
       -1  1    1    2    0  501 -.33436947E+03 -.42802531E+03 0.11704573E+04 0.12903406E+04 0.32000000E+00 0.0000E+00 0.9000E+01
        2  1    1    2  502    0 0.22700434E+02 -.63554625E+02 -.76345582E+03 0.76643290E+03 0.32000000E+00 0.0000E+00 0.9000E+01
#aMCatNLO 1  0  0  5  2 0.38655406D+02 0.00000000D+00  -5  6  0 0.00000000D+00 0.00000000D+00 0.00000000D+00 0.00000000D+00 0.00000000D+00
  <mgrwgt>
 0.7375614817D-03    6    2    0
 0.130956041537537D+04 0.000000000000000D+00 0.000000000000000D+00 0.130956041537537D+04
 0.130956041537537D+04 -.000000000000000D+00 -.000000000000000D+00 -.130956041537537D+04
 0.601236005142947D+03 0.311657523283880D+03 0.491573423199309D+03 -.841717985130440D+02
 0.112001039171188D+04 -.334359750514067D+03 -.428012868027139D+03 0.979505905843322D+03
 0.897874433895915D+03 0.227022272301863D+02 -.635605551721695D+02 -.895334107330278D+03
 0.000000000000000D+00 0.000000000000000D+00 0.000000000000000D+00 -.000000000000000D+00
 0.130956041537537D+04 0.000000000000000D+00 0.000000000000000D+00 0.130956041537537D+04
 0.130956041537537D+04 -.000000000000000D+00 -.000000000000000D+00 -.130956041537537D+04
 0.602847935816846D+03 0.312037744688940D+03 0.490508898412866D+03 -.991670317488007D+02
 0.109650491761846D+04 -.333659827081336D+03 -.429972478487877D+03 0.951902212360341D+03
 0.375293342939847D+03 0.173748394330724D+03 -.847776453433372D+01 -.332542803607237D+03
 0.544474634375586D+03 -.152126311938329D+03 -.520586553906540D+02 -.520192377004303D+03
0.277211428461D-02 0.000000000000D+00 0.000000000000D+00 0.303780181877D-04 0.000000000000D+00  6 -1 2 25 -1 2 21 0 0.23613276D+00 0.17189693D+00 0.36357240D+06 0.36357240D+06 0.36357240D+06 0.10784299D+01  1  2  2  4  6  5        2 0.581872465767D-03 0.100000000000D+01
0.107763797685D-02 0.000000000000D+00 -.106456487674D-04 0.303780181877D-04 0.000000000000D+00  6 -1 2 25 -1 2 21 2 0.23613276D+00 0.17189693D+00 0.36357240D+06 0.36357240D+06 0.36357240D+06 0.10784299D+01  1  2  3  4  6  5        2 0.263071264633D-03 0.100000000000D+01
-.208919229849D-02 0.000000000000D+00 0.000000000000D+00 0.303780181877D-04 0.000000000000D+00  6 -1 2 25 -1 2 21 2 0.23613276D+00 0.17189693D+00 0.36357240D+06 0.36357240D+06 0.36357240D+06 0.10784299D+01  1  2 15  4  6  5        2 -.510010292727D-03 0.100000000000D+01
-.595413349615D-04 0.000000000000D+00 0.000000000000D+00 0.303780181877D-04 0.000000000000D+00  6 -1 2 25 -1 2 21 2 0.23613276D+00 0.17189693D+00 0.36357240D+06 0.36357240D+06 0.36357240D+06 0.10784299D+01  1  2  4  4  6  5        2 -.145351357532D-04 0.100000000000D+01
-.233538015765D-02 0.000000000000D+00 0.000000000000D+00 0.303780181877D-04 0.000000000000D+00  6 -1 2 25 -1 2 21 2 0.23613276D+00 0.17189693D+00 0.36357240D+06 0.36357240D+06 0.36357240D+06 0.10784299D+01  1  2  5  4  6  5        2 -.570109280361D-03 0.100000000000D+01
0.404423606673D-02 0.000000000000D+00 -.000000000000D+00 0.303780181877D-04 0.000000000000D+00  6 -1 2 25 -1 2 21 2 0.23613276D+00 0.17189693D+00 0.36357240D+06 0.36357240D+06 0.36357240D+06 0.10784299D+01  1  2  6  4  6  5        2 0.987272460146D-03 0.100000000000D+01
  </mgrwgt>
  </event>
  <event>
  5     66 0.22518659E-05 0.53659861E+02 0.75467711E-02 0.93795024E-01
       -1 -1    0    0    0  501 0.00000000E+00 0.00000000E+00 0.37178228E+03 0.37178242E+03 0.32000000E+00 0.0000E+00 0.9000E+01
        2 -1    0    0  502    0 -.00000000E+00 -.00000000E+00 -.24522693E+04 0.24522693E+04 0.32000000E+00 0.0000E+00 0.9000E+01
       25  1    1    2    0    0 -.38595808E+03 -.37665884E+03 -.61394526E+03 0.82667364E+03 0.12500000E+03 0.0000E+00 0.9000E+01
       -1  1    1    2    0  501 0.48229106E+02 0.23545062E+02 0.22777467E+03 0.23401243E+03 0.32000000E+00 0.0000E+00 0.9000E+01
        2  1    1    2  502    0 0.33772897E+03 0.35311378E+03 -.16943164E+04 0.17633657E+04 0.32000000E+00 0.0000E+00 0.9000E+01
#aMCatNLO 1  0  0  5  1 0.12107519D+03 0.00000000D+00  -5  6  0 0.00000000D+00 0.00000000D+00 0.00000000D+00 0.00000000D+00 0.00000000D+00
  <mgrwgt>
 0.2347997858D-03    6    2    0
 0.954835325027069D+03 0.000000000000000D+00 0.000000000000000D+00 0.954835325027069D+03
 0.954835325027069D+03 -.000000000000000D+00 -.000000000000000D+00 -.954835325027069D+03
 0.553702816223202D+03 -.386004525583431D+03 -.376710074911698D+03 -.719960989487876D+01
 0.594103089021036D+03 0.482204323064562D+02 0.235408273087725D+02 0.591674826016905D+03
 0.761864744809900D+03 0.337784093276974D+03 0.353169247602926D+03 -.584475216122026D+03
 0.000000000000000D+00 0.000000000000000D+00 0.000000000000000D+00 -.000000000000000D+00
 0.954835325027069D+03 0.000000000000000D+00 0.000000000000000D+00 0.954835325027069D+03
 0.954835325027069D+03 -.000000000000000D+00 -.000000000000000D+00 -.954835325027069D+03
 0.544346888854011D+03 -.379155624478558D+03 -.369549224835399D+03 -.190504135092063D+02
 0.582473111238226D+03 0.555591292713231D+02 0.312137821253354D+02 0.578976517896523D+03
 0.580498704563801D+03 0.312820608037056D+03 0.333182030791568D+03 -.357927014271324D+03
 0.202351945398099D+03 0.107758871701781D+02 0.515341191849573D+01 -.201999090115994D+03
0.167927679331D-03 0.000000000000D+00 0.000000000000D+00 0.107072752301D-04 0.000000000000D+00  6 -1 2 25 -1 2 21 0 0.57197286D-01 0.37727221D+00 0.30031209D+06 0.30031209D+06 0.30031209D+06 0.10845185D+01  1  2  2  4  6  5        2 0.279823671983D-03 0.100000000000D+01
0.673423585893D-04 0.000000000000D+00 -.644886505004D-06 0.107072752301D-04 0.000000000000D+00  6 -1 2 25 -1 2 21 2 0.57197286D-01 0.37727221D+00 0.30031209D+06 0.30031209D+06 0.30031209D+06 0.10845185D+01  1  2  3  4  6  5        2 0.131984941612D-03 0.100000000000D+01
-.113533764865D-03 0.000000000000D+00 0.000000000000D+00 0.107072752301D-04 0.000000000000D+00  6 -1 2 25 -1 2 21 2 0.57197286D-01 0.37727221D+00 0.30031209D+06 0.30031209D+06 0.30031209D+06 0.10845185D+01  1  2 15  4  6  5        2 -.222515926686D-03 0.100000000000D+01
-.827489128218D-04 0.000000000000D+00 0.000000000000D+00 0.107072752301D-04 0.000000000000D+00  6 -1 2 25 -1 2 21 2 0.57197286D-01 0.37727221D+00 0.30031209D+06 0.30031209D+06 0.30031209D+06 0.10845185D+01  1  2  4  4  6  5        2 -.162180396649D-03 0.100000000000D+01
-.354104034110D-03 0.000000000000D+00 0.000000000000D+00 0.107072752301D-04 0.000000000000D+00  6 -1 2 25 -1 2 21 2 0.57197286D-01 0.37727221D+00 0.30031209D+06 0.30031209D+06 0.30031209D+06 0.10845185D+01  1  2  5  4  6  5        2 -.694011930168D-03 0.100000000000D+01
0.460071924279D-03 0.000000000000D+00 -.000000000000D+00 0.107072752301D-04 0.000000000000D+00  6 -1 2 25 -1 2 21 2 0.57197286D-01 0.37727221D+00 0.30031209D+06 0.30031209D+06 0.30031209D+06 0.10845185D+01  1  2  6  4  6  5        2 0.901699425672D-03 0.100000000000D+01
  </mgrwgt>
  </event>
  <event>
  6     66 0.22518659E-05 0.85800044E+02 0.75467711E-02 0.87846420E-01
       21 -1    0    0  503  501 0.00000000E+00 0.00000000E+00 0.63256323E+03 0.63256368E+03 0.75000000E+00 0.0000E+00 0.9000E+01
        2 -1    0    0  502    0 0.00000000E+00 0.00000000E+00 -.31780575E+04 0.31780575E+04 0.32000000E+00 0.0000E+00 0.9000E+01
       25  1    1    2    0    0 0.40353112E+03 0.75835290E+03 -.20848848E+04 0.22583857E+04 0.12500000E+03 0.0000E+00 0.9000E+01
       -1  1    1    2    0  501 0.81971786E+02 0.36741179E+02 0.20915016E+03 0.22762509E+03 0.32000000E+00 0.0000E+00 0.9000E+01
        2  1    1    2  502    0 -.49030273E+03 -.80146987E+03 -.34673479E+03 0.10014868E+04 0.32000000E+00 0.0000E+00 0.9000E+01
        1  1    1    2  503    0 0.47998234E+01 0.63757891E+01 -.32302482E+03 0.32312355E+03 0.32000000E+00 0.0000E+00 0.9000E+01
#aMCatNLO 2  0  0  1  5 0.79805383D+01 0.00000000D+00  -5  6  0 0.00000000D+00 0.00000000D+00 0.00000000D+00 0.00000000D+00 0.00000000D+00
  <mgrwgt>
 0.1295207678D-02    1    2    0
 0.134380110430017D+04 0.000000000000000D+00 0.000000000000000D+00 0.134380110430017D+04
 0.134380110430017D+04 0.000000000000000D+00 0.000000000000000D+00 -.134380110430017D+04
 0.120905831337254D+04 0.405745037540673D+03 0.761311286562343D+03 -.837838346340843D+03
 0.468355705480220D+03 0.827725164119335D+02 0.378360645549823D+02 0.459428133228367D+03
 0.101018818974759D+04 -.488517553952606D+03 -.799147351117325D+03 0.378410213112476D+03
 0.000000000000000D+00 0.000000000000000D+00 0.000000000000000D+00 -.000000000000000D+00
 0.134391173408684D+04 0.000000000000000D+00 0.000000000000000D+00 0.134391173408684D+04
 0.149587404418301D+04 0.000000000000000D+00 0.000000000000000D+00 -.149587404418301D+04
 0.120653296231996D+04 0.403588024502055D+03 0.758446043594361D+03 -.837838346340843D+03
 0.468120187421576D+03 0.819362860729406D+02 0.367252677932031D+02 0.459428133228367D+03
 0.101296090749685D+04 -.490324133991927D+03 -.801547100521287D+03 0.378410213112476D+03
 0.152171721031459D+03 0.479982341693206D+01 0.637578913372244D+01 -.151962310096171D+03
0.929948750910D-03 0.000000000000D+00 0.000000000000D+00 0.110751928386D-07 0.198361552047D-09  6 21 2 25 -1 2 1 2 0.97317444D-01 0.48893189D+00 0.90781170D+06 0.90781170D+06 0.90781170D+06 0.10506715D+01  1  2  1  5  6  1       -1 0.129520767810D-02 0.100000000000D+01
  </mgrwgt>
  </event>
  <event>
  5     66 0.22518659E-05 0.58497658E+02 0.75467711E-02 0.92656634E-01
       -1 -1    0    0    0  501 0.00000000E+00 0.00000000E+00 0.65478877E+03 0.65478884E+03 0.32000000E+00 0.0000E+00 0.9000E+01
        2 -1    0    0  502    0 -.00000000E+00 -.00000000E+00 -.18169232E+04 0.18169232E+04 0.32000000E+00 0.0000E+00 0.9000E+01
       25  1    1    2    0    0 -.52481505E+03 -.11563402E+03 -.21466174E+03 0.59203609E+03 0.12500000E+03 0.0000E+00 0.9000E+01
       -1  1    1    2    0  501 0.46966944E+03 0.13512999E+03 0.33714276E+03 0.59372960E+03 0.32000000E+00 0.0000E+00 0.9000E+01
        2  1    1    2  502    0 0.55145617E+02 -.19495971E+02 -.12846154E+04 0.12859463E+04 0.32000000E+00 0.0000E+00 0.9000E+01
#aMCatNLO 1  0  0  5  4 0.54713443D+02 0.00000000D+00  -5  6  0 0.00000000D+00 0.00000000D+00 0.00000000D+00 0.00000000D+00 0.00000000D+00
  <mgrwgt>
 0.8085877960D-03    7    2    0
 0.109073415645007D+04 0.000000000000000D+00 0.000000000000000D+00 0.109073415645007D+04
 0.109073415645007D+04 -.000000000000000D+00 -.000000000000000D+00 -.109073415645007D+04
 0.556439470051769D+03 -.524791784148845D+03 -.115623142139878D+03 0.722824745223045D+02
 0.852276569609020D+03 0.469639295919439D+03 0.135121322581305D+03 0.698252469395340D+03
 0.772752273239353D+03 0.551524882294052D+02 -.194981804414270D+02 -.770534943917644D+03
 0.000000000000000D+00 0.000000000000000D+00 0.000000000000000D+00 -.000000000000000D+00
 0.109073415645007D+04 0.000000000000000D+00 0.000000000000000D+00 0.109073415645007D+04
 0.109073415645007D+04 -.000000000000000D+00 -.000000000000000D+00 -.109073415645007D+04
 0.554281743557842D+03 -.523942140284219D+03 -.115923518603665D+03 0.604121073168186D+02
 0.838191612563019D+03 0.470932416012698D+03 0.134664162991226D+03 0.680186299571896D+03
 0.733036628241521D+03 0.702906698668440D+02 -.700051774680149D+02 -.726292775126560D+03
 0.559583285377601D+02 -.172809455953231D+02 0.512645330804543D+02 -.143056317621552D+02
0.806317613152D-03 0.000000000000D+00 0.000000000000D+00 0.206866327430D-04 0.000000000000D+00  6 -1 2 25 -1 2 21 0 0.10073674D+00 0.27952665D+00 0.30190260D+06 0.30190260D+06 0.30190260D+06 0.10843488D+01  1  2  2  4  6  5        2 0.961332589743D-03 0.100000000000D+01
0.331287199004D-03 0.000000000000D+00 -.309647194281D-05 0.206866327430D-04 0.000000000000D+00  6 -1 2 25 -1 2 21 2 0.10073674D+00 0.27952665D+00 0.30190260D+06 0.30190260D+06 0.30190260D+06 0.10843488D+01  1  2  3  4  6  5        2 0.464419208914D-03 0.100000000000D+01
-.587672986101D-03 0.000000000000D+00 0.000000000000D+00 0.206866327430D-04 0.000000000000D+00  6 -1 2 25 -1 2 21 2 0.10073674D+00 0.27952665D+00 0.30190260D+06 0.30190260D+06 0.30190260D+06 0.10843488D+01  1  2 15  4  6  5        2 -.823836912885D-03 0.100000000000D+01
0.113951775442D-08 0.000000000000D+00 0.000000000000D+00 0.206866327430D-04 0.000000000000D+00  6 -1 2 25 -1 2 21 2 0.10073674D+00 0.27952665D+00 0.35646320D+06 0.35646320D+06 0.35646320D+06 0.10790540D+01  1  2 12  4  6  5        2 0.156449059401D-08 0.100000000000D+01
-.759227947821D-04 0.000000000000D+00 0.000000000000D+00 0.206866327430D-04 0.000000000000D+00  6 -1 2 25 -1 2 21 2 0.10073674D+00 0.27952665D+00 0.30190260D+06 0.30190260D+06 0.30190260D+06 0.10843488D+01  1  2  4  4  6  5        2 -.106433343628D-03 0.100000000000D+01
-.297684208709D-02 0.000000000000D+00 0.000000000000D+00 0.206866327430D-04 0.000000000000D+00  6 -1 2 25 -1 2 21 2 0.10073674D+00 0.27952665D+00 0.30190260D+06 0.30190260D+06 0.30190260D+06 0.10843488D+01  1  2  5  4  6  5        2 -.417312425987D-02 0.100000000000D+01
0.320019110784D-02 0.000000000000D+00 -.000000000000D+00 0.206866327430D-04 0.000000000000D+00  6 -1 2 25 -1 2 21 2 0.10073674D+00 0.27952665D+00 0.30190260D+06 0.30190260D+06 0.30190260D+06 0.10843488D+01  1  2  6  4  6  5        2 0.448622894923D-02 0.100000000000D+01
  </mgrwgt>
  </event>
  <event>
  5     66 0.22518659E-05 0.96650898E+02 0.75467711E-02 0.91133322E-01
       -1 -1    0    0    0  501 0.00000000E+00 0.00000000E+00 0.24084438E+03 0.24084459E+03 0.32000000E+00 0.0000E+00 0.9000E+01
        2 -1    0    0  502    0 -.00000000E+00 -.00000000E+00 -.33186424E+04 0.33186424E+04 0.32000000E+00 0.0000E+00 0.9000E+01
       25  1    1    2    0    0 0.44799060E+03 -.38054399E+03 -.52557231E+03 0.79834864E+03 0.12500000E+03 0.0000E+00 0.9000E+01
       -1  1    1    2    0  501 -.53831208E+03 0.41491131E+03 -.10189649E+04 0.12248350E+04 0.32000000E+00 0.0000E+00 0.9000E+01
        2  1    1    2  502    0 0.90321484E+02 -.34367320E+02 -.15332608E+04 0.15363033E+04 0.32000000E+00 0.0000E+00 0.9000E+01
#aMCatNLO 1  0  0  5  4 0.38685014D+01 0.00000000D+00  -5  6  0 0.00000000D+00 0.00000000D+00 0.00000000D+00 0.00000000D+00 0.00000000D+00
  <mgrwgt>
 0.6191118674D-03    8    2    0
 0.894022798503766D+03 0.000000000000000D+00 0.000000000000000D+00 0.894022798503766D+03
 0.894022798503766D+03 -.000000000000000D+00 -.000000000000000D+00 -.894022798503766D+03
 0.684586947907344D+03 0.447934718268214D+03 -.380505885861176D+03 0.328030559917929D+03
 0.684275003464226D+03 -.538267563359648D+03 0.414876995360443D+03 0.798585582234253D+02
 0.419183645635962D+03 0.903328450914341D+02 -.343711094992673D+02 -.407889118141355D+03
 0.000000000000000D+00 0.000000000000000D+00 0.000000000000000D+00 -.000000000000000D+00
 0.894022798503766D+03 0.000000000000000D+00 0.000000000000000D+00 0.894022798503766D+03
 0.894022798503766D+03 -.000000000000000D+00 -.000000000000000D+00 -.894022798503766D+03
 0.684488572043398D+03 0.448010583054939D+03 -.380534751960644D+03 0.327687999900873D+03
 0.684157981658705D+03 -.538191734177801D+03 0.414848142808419D+03 0.795161589767120D+02
 0.875444513610552D+01 0.464963934315082D+01 -.298770424096728D+01 -.678931417657460D+01
 0.410644598169323D+03 0.855315117797115D+02 -.313256866068075D+02 -.400414844701010D+03
0.274274874872D-03 0.000000000000D+00 0.000000000000D+00 0.801365424436D-07 0.000000000000D+00  6 -1 2 25 -1 2 21 0 0.37052999D-01 0.51056038D+00 0.47412086D+06 0.47412086D+06 0.47412086D+06 0.10701455D+01  1  2  2  4  6  5        2 0.279175958095D-03 0.100000000000D+01
0.547439061480D-04 0.000000000000D+00 -.105328773774D-05 0.801365424436D-07 0.000000000000D+00  6 -1 2 25 -1 2 21 2 0.37052999D-01 0.51056038D+00 0.47412086D+06 0.47412086D+06 0.47412086D+06 0.10701455D+01  1  2  3  4  6  5        2 0.638136230897D-04 0.100000000000D+01
-.214488416866D-03 0.000000000000D+00 0.000000000000D+00 0.801365424436D-07 0.000000000000D+00  6 -1 2 25 -1 2 21 2 0.37052999D-01 0.51056038D+00 0.47412086D+06 0.47412086D+06 0.47412086D+06 0.10701455D+01  1  2 15  4  6  5        2 -.250023864829D-03 0.100000000000D+01
0.148397547686D-07 0.000000000000D+00 0.000000000000D+00 0.801365424436D-07 0.000000000000D+00  6 -1 2 25 -1 2 21 2 0.37052999D-01 0.51056038D+00 0.47409372D+06 0.47409372D+06 0.47409372D+06 0.10701472D+01  1  2 12  4  6  5        2 0.172984661291D-07 0.100000000000D+01
-.208463362855D-03 0.000000000000D+00 0.000000000000D+00 0.801365424436D-07 0.000000000000D+00  6 -1 2 25 -1 2 21 2 0.37052999D-01 0.51056038D+00 0.47412086D+06 0.47412086D+06 0.47412086D+06 0.10701455D+01  1  2  4  4  6  5        2 -.243000607762D-03 0.100000000000D+01
-.324533898905D-03 0.000000000000D+00 0.000000000000D+00 0.801365424436D-07 0.000000000000D+00  6 -1 2 25 -1 2 21 2 0.37052999D-01 0.51056038D+00 0.47412086D+06 0.47412086D+06 0.47412086D+06 0.10701455D+01  1  2  5  4  6  5        2 -.378301172893D-03 0.100000000000D+01
0.689650595716D-03 0.000000000000D+00 -.000000000000D+00 0.801365424436D-07 0.000000000000D+00  6 -1 2 25 -1 2 21 2 0.37052999D-01 0.51056038D+00 0.47412086D+06 0.47412086D+06 0.47412086D+06 0.10701455D+01  1  2  6  4  6  5        2 0.803908713777D-03 0.100000000000D+01
0.294695552985D-03 0.000000000000D+00 0.000000000000D+00 0.801365424436D-07 0.316276941915D-09  6 -1 2 25 -1 2 21 2 0.37052999D-01 0.51056038D+00 0.47409372D+06 0.47409372D+06 0.47409372D+06 0.10701472D+01  1  2 11  4  6  5        2 0.343521919413D-03 0.100000000000D+01
  </mgrwgt>
  </event>
  <event>
  5     66 0.22518659E-05 0.63278710E+02 0.75467711E-02 0.94142555E-01
       -1 -1    0    0    0  501 0.00000000E+00 0.00000000E+00 0.43602802E+03 0.43602814E+03 0.32000000E+00 0.0000E+00 0.9000E+01
        2 -1    0    0  502    0 0.00000000E+00 0.00000000E+00 -.20984953E+04 0.20984953E+04 0.32000000E+00 0.0000E+00 0.9000E+01
       25  1    1    2    0    0 -.46636350E+03 0.11567082E+03 -.83578279E+03 0.97212783E+03 0.12500000E+03 0.0000E+00 0.9000E+01
       -1  1    1    2    0  501 0.45186251E+03 -.54079870E+02 0.22578966E+03 0.50802109E+03 0.32000000E+00 0.0000E+00 0.9000E+01
        2  1    1    2  502    0 0.14500986E+02 -.61590947E+02 -.10524742E+04 0.10543746E+04 0.32000000E+00 0.0000E+00 0.9000E+01
#aMCatNLO 1  0  0  2  1 0.32037750D+02 0.00000000D+00  -5  6  0 0.00000000D+00 0.00000000D+00 0.00000000D+00 0.00000000D+00 0.00000000D+00
  <mgrwgt>
 0.9312490355D-02    9    2    0
 0.956557858666834D+03 0.000000000000000D+00 0.000000000000000D+00 0.956557858666834D+03
 0.956557858666834D+03 0.000000000000000D+00 0.000000000000000D+00 -.956557858666834D+03
 0.561588851791453D+03 -.466360243963183D+03 0.115673783433603D+03 -.262459019912059D+03
 0.869232478008147D+03 0.451857921278437D+03 -.540793210421526D+02 0.740584192943472D+03
 0.482294387534069D+03 0.145023226847461D+02 -.615944623914504D+02 -.478125173031412D+03
 0.000000000000000D+00 -.000000000000000D+00 -.000000000000000D+00 -.000000000000000D+00
 0.960993053380815D+03 0.000000000000000D+00 0.000000000000000D+00 0.960993053380815D+03
 0.101635249329290D+04 0.000000000000000D+00 0.000000000000000D+00 -.101635249329290D+04
 0.560206516910375D+03 -.462481419530279D+03 0.124227778877807D+03 -.262459019912059D+03
 0.871654548099746D+03 0.457877374843847D+03 -.408045829698835D+02 0.740584192943472D+03
 0.481522891577799D+03 0.178349073212831D+02 -.542450929390617D+02 -.478125173031412D+03
 0.639615900857992D+02 -.132308626348508D+02 -.291781029688621D+02 -.553594399120873D+02
0.637916639295D-03 0.000000000000D+00 0.000000000000D+00 0.122805658743D-04 0.000000000000D+00  6 -1 2 25 -1 2 21 0 0.67081244D-01 0.32284545D+00 0.25747822D+06 0.25747822D+06 0.25747822D+06 0.10894974D+01  1  2  2  2  6  2        2 0.125322828863D-02 0.100000000000D+01
0.175858605728D-03 0.000000000000D+00 -.244976786220D-05 0.122805658743D-04 0.000000000000D+00  6 -1 2 25 -1 2 21 2 0.67081244D-01 0.32284545D+00 0.25747822D+06 0.25747822D+06 0.25747822D+06 0.10894974D+01  1  2  3  2  6  2        2 0.410092956460D-03 0.100000000000D+01
-.458346120370D-03 0.000000000000D+00 0.000000000000D+00 0.122805658743D-04 0.000000000000D+00  6 -1 2 25 -1 2 21 2 0.67081244D-01 0.32284545D+00 0.25747822D+06 0.25747822D+06 0.25747822D+06 0.10894974D+01  1  2 15  2  6  2        2 -.106883888227D-02 0.100000000000D+01
0.234597253440D-07 0.000000000000D+00 0.000000000000D+00 0.122805658743D-04 0.000000000000D+00  6 -1 2 25 -1 2 21 2 0.67081244D-01 0.34374796D+00 0.27235472D+06 0.27235472D+06 0.27235472D+06 0.10876719D+01  1  2 12  2  6  2        2 0.456688829882D-07 0.100000000000D+01
-.191992225358D-03 0.000000000000D+00 0.000000000000D+00 0.122805658743D-04 0.000000000000D+00  6 -1 2 25 -1 2 21 2 0.67081244D-01 0.32284545D+00 0.25747822D+06 0.25747822D+06 0.25747822D+06 0.10894974D+01  1  2  4  2  6  2        2 -.447715703126D-03 0.100000000000D+01
-.244611662615D-01 0.000000000000D+00 -.229693361129D-02 0.122805658743D-04 0.000000000000D+00  6 -1 2 25 -1 2 21 2 0.67081244D-01 0.34356075D+00 0.25747822D+06 0.25747822D+06 0.25747822D+06 0.10894974D+01  1  2  5  2  6  2        2 -.480302397449D-01 0.100000000000D+01
0.245609362310D-01 0.000000000000D+00 0.229249891949D-02 0.122805658743D-04 0.000000000000D+00  6 -1 2 25 -1 2 21 2 0.67081244D-01 0.32284545D+00 0.25747822D+06 0.25747822D+06 0.25747822D+06 0.10894974D+01  1  2  6  2  6  2        2 0.572748027354D-01 0.100000000000D+01
0.337303263798D-09 0.000000000000D+00 0.000000000000D+00 0.122805658743D-04 0.000000000000D+00  6 -1 21 25 -1 2 -2 2 0.67081244D-01 0.34374796D+00 0.27235472D+06 0.27235472D+06 0.27235472D+06 0.10876719D+01  1  2 12  6  6  2        2 0.102055570197D-09 0.100000000000D+01
-.257358534522D-03 0.000000000000D+00 -.244553352506D-04 0.122805658743D-04 0.000000000000D+00  6 -1 21 25 -1 2 -2 2 0.67081244D-01 0.34356075D+00 0.25747822D+06 0.25747822D+06 0.25747822D+06 0.10894974D+01  1  2  5  6  6  2        2 -.788850660336D-04 0.100000000000D+01
  </mgrwgt>
  </event>
  <event>
  6     66 0.22518659E-05 0.13053251E+03 0.75467711E-02 0.88663025E-01
       -1 -1    0    0    0  501 0.00000000E+00 0.00000000E+00 0.14474094E+04 0.14474094E+04 0.32000000E+00 0.0000E+00 0.9000E+01
        2 -1    0    0  502    0 -.00000000E+00 -.00000000E+00 -.24158887E+04 0.24158887E+04 0.32000000E+00 0.0000E+00 0.9000E+01
       25  1    1    2    0    0 0.53951368E+03 0.49843729E+03 -.22650721E+03 0.77874595E+03 0.12500000E+03 0.0000E+00 0.9000E+01
       -1  1    1    2    0  503 -.46045900E+03 -.54866466E+03 0.77716159E+03 0.10568991E+04 0.32000000E+00 0.0000E+00 0.9000E+01
        2  1    1    2  502    0 0.11238539E+02 0.15435919E+03 -.17510474E+04 0.17578738E+04 0.32000000E+00 0.0000E+00 0.9000E+01
       21  1    1    2  503  501 -.90293224E+02 -.10413182E+03 0.23191377E+03 0.26977928E+03 0.75000000E+00 0.0000E+00 0.9000E+01
#aMCatNLO 2  0  0  4  1 0.45060917D+02 0.00000000D+00  -5  6  0 0.00000000D+00 0.00000000D+00 0.00000000D+00 0.00000000D+00 0.00000000D+00
  <mgrwgt>
 0.8591184466D-03    3    2    0
 0.186996791298862D+04 0.000000000000000D+00 0.000000000000000D+00 0.186996791298862D+04
 0.186996791298862D+04 -.000000000000000D+00 -.000000000000000D+00 -.186996791298862D+04
 0.746087631913014D+03 0.539726221280220D+03 0.498651232354423D+03 -.326237494405257D+02
 0.162996439584637D+04 -.551433691732723D+03 -.653604210015355D+03 0.138762615714717D+04
 0.136388379821787D+04 0.117074704525029D+02 0.154952977660933D+03 -.135500240770665D+04
 0.000000000000000D+00 0.000000000000000D+00 0.000000000000000D+00 0.000000000000000D+00
 0.186996791298862D+04 0.000000000000000D+00 0.000000000000000D+00 0.186996791298862D+04
 0.186996791298862D+04 -.000000000000000D+00 -.000000000000000D+00 -.186996791298862D+04
 0.745671387891491D+03 0.539470005404963D+03 0.498347544391116D+03 -.319790085483506D+02
 0.129281640729488D+04 -.460397878084566D+03 -.548592845984867D+03 0.107631498463986D+04
 0.136264612070608D+04 0.112391774907594D+02 0.154397918628623D+03 -.135382399664351D+04
 0.338801910084791D+03 -.903113048111561D+02 -.104152617034872D+03 0.309488020552002D+03
-.819272047917D-08 0.000000000000D+00 0.000000000000D+00 0.298719461632D-05 0.000000000000D+00  6 -1 2 25 -1 2 21 2 0.22267837D+00 0.37167518D+00 0.76898077D+06 0.76898077D+06 0.76898077D+06 0.10555437D+01  1  2 13  3  6  4       -1 -.429497457902D-09 0.100000000000D+01
-.227442320268D-01 0.000000000000D+00 0.000000000000D+00 0.298719461632D-05 0.000000000000D+00  6 -1 2 25 -1 2 21 2 0.22267837D+00 0.37167518D+00 0.76898077D+06 0.76898077D+06 0.76898077D+06 0.10555437D+01  1  2 13  3  6  4       -1 -.119234994802D-02 0.100000000000D+01
0.391320375444D-01 0.000000000000D+00 0.000000000000D+00 0.298719461632D-05 0.973801762056D-08  6 -1 2 25 -1 2 21 2 0.22267837D+00 0.37167518D+00 0.76898077D+06 0.76898077D+06 0.76898077D+06 0.10555437D+01  1  2  1  3  6  4       -1 0.205146882413D-02 0.100000000000D+01
  </mgrwgt>
  </event>
  <event>
  6     66 0.22518659E-05 0.14107395E+03 0.75467711E-02 0.94187074E-01
       -1 -1    0    0    0  501 0.00000000E+00 0.00000000E+00 0.44643512E+03 0.44643523E+03 0.32000000E+00 0.0000E+00 0.9000E+01
        2 -1    0    0  502    0 -.00000000E+00 -.00000000E+00 -.10833350E+04 0.10833350E+04 0.32000000E+00 0.0000E+00 0.9000E+01
       25  1    1    2    0    0 0.18310230E+03 -.45831193E+03 0.49427354E+01 0.50914213E+03 0.12500000E+03 0.0000E+00 0.9000E+01
       -1  1    1    2    0  503 -.23814380E+02 0.30777433E+03 -.50619929E+03 0.59289964E+03 0.32000000E+00 0.0000E+00 0.9000E+01
        2  1    1    2  502    0 -.48271114E+02 0.24565797E+02 -.22919964E+03 0.23551254E+03 0.32000000E+00 0.0000E+00 0.9000E+01
       21  1    1    2  503  501 -.11101680E+03 0.12597181E+03 0.93556325E+02 0.19221596E+03 0.75000000E+00 0.0000E+00 0.9000E+01
#aMCatNLO 2  0  0  4  2 0.27608316D+03 0.00000000D+00  -5  6  0 0.00000000D+00 0.00000000D+00 0.00000000D+00 0.00000000D+00 0.00000000D+00
  <mgrwgt>
 0.2083100736D-04    1    2    0
 0.695441521862235D+03 0.000000000000000D+00 0.000000000000000D+00 0.695441521862235D+03
 0.695441521862235D+03 -.000000000000000D+00 -.000000000000000D+00 -.695441521862235D+03
 0.657271419721857D+03 0.212132920270847D+03 -.551612027032152D+03 0.259045391686530D+03
 0.588216757144344D+03 -.170959103141829D+03 0.549968105659161D+03 -.119611960923748D+03
 0.145394866858269D+03 -.411738171290177D+02 0.164392137299195D+01 -.139433430762782D+03
 0.000000000000000D+00 0.000000000000000D+00 0.000000000000000D+00 0.000000000000000D+00
 0.695441521862235D+03 0.000000000000000D+00 0.000000000000000D+00 0.695441521862235D+03
 0.695441521862235D+03 -.000000000000000D+00 -.000000000000000D+00 -.695441521862235D+03
 0.562187732964183D+03 0.183086528839712D+03 -.458171031039310D+03 0.238723011813289D+03
 0.419971628426296D+03 -.236456700045201D+02 0.307329408301794D+03 -.285246710350780D+03
 0.154268254009359D+03 -.483115160728686D+02 0.246055928767227D+02 -.144427339548377D+03
 0.254455428324632D+03 -.111129342762324D+03 0.126236029860794D+03 0.190951038085868D+03
0.256803741310D-05 0.000000000000D+00 0.000000000000D+00 0.327258131761D-07 0.400413550330D-11  6 -1 2 25 -1 2 21 2 0.68682339D-01 0.16666693D+00 0.27020356D+06 0.27020356D+06 0.27020356D+06 0.10879291D+01  1  2  1  3  6  4       -1 0.208310073562D-04 0.100000000000D+01
  </mgrwgt>
  </event>
  <event>
  5     66 0.22518659E-05 0.43017996E+02 0.75467711E-02 0.94848161E-01
       -1 -1    0    0    0  501 0.00000000E+00 0.00000000E+00 0.26826079E+03 0.26826098E+03 0.32000000E+00 0.0000E+00 0.9000E+01
        2 -1    0    0  502    0 -.00000000E+00 -.00000000E+00 -.12724956E+04 0.12724956E+04 0.32000000E+00 0.0000E+00 0.9000E+01
       25  1    1    2    0    0 -.14697411E+03 -.43650150E+03 -.55597156E+03 0.73271026E+03 0.12500000E+03 0.0000E+00 0.9000E+01
       -1  1    1    2    0  501 0.18697493E+03 0.42067241E+03 -.11832669E+03 0.47531695E+03 0.32000000E+00 0.0000E+00 0.9000E+01
        2  1    1    2  502    0 -.40000818E+02 0.15829090E+02 -.32993656E+03 0.33272941E+03 0.32000000E+00 0.0000E+00 0.9000E+01
#aMCatNLO 1  0  0  4  5 0.36699333D+02 0.00000000D+00  -5  6  0 0.00000000D+00 0.00000000D+00 0.00000000D+00 0.00000000D+00 0.00000000D+00
  <mgrwgt>
 0.6439404399D-03    4    2    0
 0.584260948614172D+03 0.000000000000000D+00 0.000000000000000D+00 0.584260948614172D+03
 0.584260948614172D+03 -.000000000000000D+00 -.000000000000000D+00 -.584260948614172D+03
 0.488314212180963D+03 -.146975784483839D+03 -.436503071613166D+03 -.103387412510159D+03
 0.525041352812179D+03 0.186975679149716D+03 0.420674098635220D+03 0.252471424733157D+03
 0.155166332235202D+03 -.399998946658767D+02 0.158289729779456D+02 -.149084012222999D+03
 0.000000000000000D+00 0.000000000000000D+00 -.000000000000000D+00 0.000000000000000D+00
 0.584260948614172D+03 0.000000000000000D+00 0.000000000000000D+00 0.584260948614172D+03
 0.584260948614172D+03 -.000000000000000D+00 -.000000000000000D+00 -.584260948614172D+03
 0.471799761572852D+03 -.140600461847895D+03 -.422159317839516D+03 -.947788769169196D+02
 0.507208962394237D+03 0.146694303129996D+03 0.420398243090674D+03 0.242913626971642D+03
 0.152541638658643D+03 -.379566605856247D+02 0.204260182135589D+02 -.146325053295022D+03
 0.369715346026119D+02 0.318628193035236D+02 -.186649434647165D+02 -.180969675970002D+01
0.167155003277D-03 0.000000000000D+00 0.000000000000D+00 0.468631575045D-06 0.000000000000D+00  6 -1 2 25 -1 2 21 0 0.41270909D-01 0.19576857D+00 0.24040235D+06 0.24040235D+06 0.24040235D+06 0.10917404D+01  1  2  2  3  6  4       -1 0.228466455388D-02 0.100000000000D+01
0.417003791742D-04 0.000000000000D+00 -.641919225507D-06 0.468631575045D-06 0.000000000000D+00  6 -1 2 25 -1 2 21 2 0.41270909D-01 0.19576857D+00 0.24040235D+06 0.24040235D+06 0.24040235D+06 0.10917404D+01  1  2  3  3  6  4       -1 0.679331645308D-03 0.100000000000D+01
-.123944579458D-03 0.000000000000D+00 0.000000000000D+00 0.468631575045D-06 0.000000000000D+00  6 -1 2 25 -1 2 21 2 0.41270909D-01 0.19576857D+00 0.24040235D+06 0.24040235D+06 0.24040235D+06 0.10917404D+01  1  2 15  3  6  4       -1 -.201915370453D-02 0.100000000000D+01
-.184706981696D-04 0.000000000000D+00 0.000000000000D+00 0.468631575045D-06 0.000000000000D+00  6 -1 2 25 -1 2 21 2 0.41270909D-01 0.19576857D+00 0.24040235D+06 0.24040235D+06 0.24040235D+06 0.10917404D+01  1  2  4  3  6  4       -1 -.300902054754D-03 0.100000000000D+01
  </mgrwgt>
  </event>
  <event>
  5     66 0.22518659E-05 0.50081668E+02 0.75467711E-02 0.93381233E-01
       -1 -1    0    0    0  501 0.00000000E+00 0.00000000E+00 0.69310837E+03 0.69310844E+03 0.32000000E+00 0.0000E+00 0.9000E+01
        2 -1    0    0  502    0 -.00000000E+00 -.00000000E+00 -.21151362E+04 0.21151363E+04 0.32000000E+00 0.0000E+00 0.9000E+01
       25  1    1    2    0    0 -.18054275E+03 -.49280979E+03 -.39642876E+03 0.66950574E+03 0.12500000E+03 0.0000E+00 0.9000E+01
       -1  1    1    2    0  501 0.22784951E+03 0.47638448E+03 0.43078538E+03 0.68149375E+03 0.32000000E+00 0.0000E+00 0.9000E+01
        2  1    1    2  502    0 -.47306763E+02 0.16425309E+02 -.14563845E+04 0.14572452E+04 0.32000000E+00 0.0000E+00 0.9000E+01
#aMCatNLO 1  0  0  4  5 0.22823173D+03 0.00000000D+00  -5  6  0 0.00000000D+00 0.00000000D+00 0.00000000D+00 0.00000000D+00 0.00000000D+00
  <mgrwgt>
 0.2298910581D-02    4    2    0
 0.121079261343157D+04 0.000000000000000D+00 0.000000000000000D+00 0.121079261343157D+04
 0.121079261343157D+04 -.000000000000000D+00 -.000000000000000D+00 -.121079261343157D+04
 0.543588589534897D+03 -.180532180956592D+03 -.492798174868641D+03 -.664954521582524D+02
 0.104325013948809D+04 0.227843130966818D+03 0.476371139061923D+03 0.899738239201824D+03
 0.834746497840155D+03 -.473109500102256D+02 0.164270358067188D+02 -.833242787043572D+03
 0.000000000000000D+00 0.000000000000000D+00 0.000000000000000D+00 -.000000000000000D+00
 0.121079261343157D+04 0.000000000000000D+00 0.000000000000000D+00 0.121079261343157D+04
 0.121079261343157D+04 -.000000000000000D+00 -.000000000000000D+00 -.121079261343157D+04
 0.446914603679784D+03 -.129538567921172D+03 -.386181462644371D+03 0.134875128593248D+03
 0.929809180884781D+03 0.294006552530063D+03 0.262186765340752D+03 0.842237116260716D+03
 0.572828993372248D+03 0.251546012456702D+02 0.167936967433969D+03 -.547080868476605D+03
 0.472032448926327D+03 -.189622585854562D+03 -.439422701303504D+02 -.430031376377359D+03
0.474736944280D-02 0.000000000000D+00 0.000000000000D+00 0.392600074985D-04 0.000000000000D+00  6 -1 2 25 -1 2 21 0 0.10663206D+00 0.32540558D+00 0.31228131D+06 0.31228131D+06 0.31228131D+06 0.10832651D+01  1  2  2  3  6  4       -1 0.340283277226D-02 0.100000000000D+01
0.221091162765D-02 0.000000000000D+00 -.182311486714D-04 0.392600074985D-04 0.000000000000D+00  6 -1 2 25 -1 2 21 2 0.10663206D+00 0.32540558D+00 0.31228131D+06 0.31228131D+06 0.31228131D+06 0.10832651D+01  1  2  3  3  6  4       -1 0.185963807367D-02 0.100000000000D+01
-.352073117490D-02 0.000000000000D+00 0.000000000000D+00 0.392600074985D-04 0.000000000000D+00  6 -1 2 25 -1 2 21 2 0.10663206D+00 0.32540558D+00 0.31228131D+06 0.31228131D+06 0.31228131D+06 0.10832651D+01  1  2 15  3  6  4       -1 -.296135117212D-02 0.100000000000D+01
-.262637637899D-05 0.000000000000D+00 0.000000000000D+00 0.392600074985D-04 0.000000000000D+00  6 -1 2 25 -1 2 21 2 0.10663206D+00 0.32540558D+00 0.31228131D+06 0.31228131D+06 0.31228131D+06 0.10832651D+01  1  2  4  3  6  4       -1 -.220909304970D-05 0.100000000000D+01
  </mgrwgt>
  </event>
  <event>
  5     66 0.22518659E-05 0.20628760E+03 0.75467711E-02 0.92818375E-01
       -1 -1    0    0    0  501 0.00000000E+00 0.00000000E+00 0.19350632E+04 0.19350632E+04 0.32000000E+00 0.0000E+00 0.9000E+01
        2 -1    0    0  502    0 0.00000000E+00 0.00000000E+00 -.16368737E+04 0.16368737E+04 0.32000000E+00 0.0000E+00 0.9000E+01
       25  1    1    2    0    0 0.49971985E+02 0.52106126E+03 -.24404211E+03 0.59091758E+03 0.12500000E+03 0.0000E+00 0.9000E+01
       -1  1    1    2    0  501 -.66780470E+01 -.31938087E+03 0.17382415E+04 0.17673517E+04 0.32000000E+00 0.0000E+00 0.9000E+01
        2  1    1    2  502    0 -.43293938E+02 -.20168039E+03 -.11960099E+04 0.12136676E+04 0.32000000E+00 0.0000E+00 0.9000E+01
#aMCatNLO 1  0  0  2  1 0.29753619D+03 0.00000000D+00  -5  6  0 0.00000000D+00 0.00000000D+00 0.00000000D+00 0.00000000D+00 0.00000000D+00
  <mgrwgt>
 0.1142095408D-01    7    2    0
 0.177973428347175D+04 0.000000000000000D+00 0.000000000000000D+00 0.177973428347175D+04
 0.177973428347175D+04 0.000000000000000D+00 0.000000000000000D+00 -.177973428347175D+04
 0.613418204202266D+03 0.499743838840767D+02 0.521070429397951D+03 -.294355332564529D+03
 0.162790717384364D+04 -.667797886376203D+01 -.319377609828928D+03 0.159625659390646D+04
 0.131814318889758D+04 -.432964050203147D+02 -.201692819569023D+03 -.130190126134193D+04
 0.000000000000000D+00 0.000000000000000D+00 -.000000000000000D+00 -.000000000000000D+00
 0.180208903377747D+04 0.000000000000000D+00 0.000000000000000D+00 0.180208903377747D+04
 0.315652642904602D+04 0.000000000000000D+00 0.000000000000000D+00 -.315652642904602D+04
 0.658850057729204D+03 0.473165822991659D+02 0.574085775646921D+03 -.294355332564529D+03
 0.160694925154220D+04 -.134356783141100D+02 -.184581326223472D+03 0.159625659390646D+04
 0.130608314411598D+04 -.487784822800742D+02 -.923414572477074D+02 -.130190126134193D+04
 0.138673300943611D+04 0.148975782950183D+02 -.297162992175743D+03 -.135443739526855D+04
0.326380201118D-01 0.000000000000D+00 0.000000000000D+00 0.623872544397D-04 0.000000000000D+00  6 -1 2 25 -1 2 21 0 0.29770203D+00 0.25182673D+00 0.28297835D+06 0.28297835D+06 0.28297835D+06 0.10864337D+01  1  2  2  2  6  2        2 0.107101184516D-02 0.100000000000D+01
0.443214827600D-02 0.000000000000D+00 -.125338591017D-03 0.623872544397D-04 0.000000000000D+00  6 -1 2 25 -1 2 21 2 0.29770203D+00 0.25182673D+00 0.28297835D+06 0.28297835D+06 0.28297835D+06 0.10864337D+01  1  2  3  2  6  2        2 0.171668737448D-03 0.100000000000D+01
-.243859620574D-01 0.000000000000D+00 0.000000000000D+00 0.623872544397D-04 0.000000000000D+00  6 -1 2 25 -1 2 21 2 0.29770203D+00 0.25182673D+00 0.28297835D+06 0.28297835D+06 0.28297835D+06 0.10864337D+01  1  2 15  2  6  2        2 -.944532325445D-03 0.100000000000D+01
-.390722312496D-01 0.000000000000D+00 0.000000000000D+00 0.623872544397D-04 0.000000000000D+00  6 -1 2 25 -1 2 21 2 0.29770203D+00 0.25182673D+00 0.28297835D+06 0.28297835D+06 0.28297835D+06 0.10864337D+01  1  2  4  2  6  2        2 -.151337008381D-02 0.100000000000D+01
-.471238687168D+00 0.000000000000D+00 -.208957344679D-01 0.623872544397D-04 0.000000000000D+00  6 -1 2 25 -1 2 21 2 0.29770203D+00 0.44778998D+00 0.28297835D+06 0.28297835D+06 0.28297835D+06 0.10864337D+01  1  2  5  2  6  2        2 -.344350206572D-02 0.100000000000D+01
0.415549740974D+00 0.000000000000D+00 0.178554520584D-01 0.623872544397D-04 0.000000000000D+00  6 -1 2 25 -1 2 21 2 0.29770203D+00 0.25182673D+00 0.28297835D+06 0.28297835D+06 0.28297835D+06 0.10864337D+01  1  2  6  2  6  2        2 0.160953323168D-01 0.100000000000D+01
-.287437144982D-01 0.000000000000D+00 -.132288477566D-02 0.623872544397D-04 0.000000000000D+00  6 -1 21 25 -1 2 -2 2 0.29770203D+00 0.44778998D+00 0.28297835D+06 0.28297835D+06 0.28297835D+06 0.10864337D+01  1  2  5  6  6  2        2 -.156543489483D-04 0.100000000000D+01
  </mgrwgt>
  </event>
  <event>
  5     66 0.22518659E-05 0.19030007E+02 0.75467711E-02 0.94598978E-01
       -1 -1    0    0    0  501 0.00000000E+00 0.00000000E+00 0.13420343E+04 0.13420343E+04 0.32000000E+00 0.0000E+00 0.9000E+01
        2 -1    0    0  502    0 -.00000000E+00 -.00000000E+00 -.22548072E+04 0.22548072E+04 0.32000000E+00 0.0000E+00 0.9000E+01
       25  1    1    2    0    0 -.24909461E+03 -.39066279E+03 0.71753583E+03 0.86321968E+03 0.12500000E+03 0.0000E+00 0.9000E+01
       -1  1    1    2    0  501 -.51385880E+00 0.19028324E+02 0.52852053E+03 0.52886331E+03 0.32000000E+00 0.0000E+00 0.9000E+01
        2  1    1    2  502    0 0.24960847E+03 0.37163447E+03 -.21588292E+04 0.22047586E+04 0.32000000E+00 0.0000E+00 0.9000E+01
#aMCatNLO 1  0  0  4  1 0.48208854D+01 0.00000000D+00  -5  6  0 0.00000000D+00 0.00000000D+00 0.00000000D+00 0.00000000D+00 0.00000000D+00
  <mgrwgt>
 0.4029355710D-02    6    2    0
 0.173954841834386D+04 0.000000000000000D+00 0.000000000000000D+00 0.173954841834386D+04
 0.173954841834386D+04 -.000000000000000D+00 -.000000000000000D+00 -.173954841834386D+04
 0.108086804357877D+04 -.249117251191518D+03 -.390691242943709D+03 0.968479052677796D+03
 0.685234820443079D+03 -.513716975180800D+00 0.190230719006192D+02 0.684970523437317D+03
 0.171299397266587D+04 0.249630968166699D+03 0.371668171043088D+03 -.165344957611511D+04
 0.000000000000000D+00 0.000000000000000D+00 0.000000000000000D+00 0.000000000000000D+00
 0.173954841834386D+04 0.000000000000000D+00 0.000000000000000D+00 0.173954841834386D+04
 0.173954841834386D+04 -.000000000000000D+00 -.000000000000000D+00 -.173954841834386D+04
 0.108195927356570D+04 -.249118174610973D+03 -.390657048483458D+03 0.969710304783602D+03
 0.357465964627216D+03 0.144056137260156D+02 0.435752348224541D+02 0.354507535985077D+03
 0.171112407410745D+04 0.249629506238973D+03 0.371722306603295D+03 -.165150029772280D+04
 0.328547524387355D+03 -.149169453540157D+02 -.246404929422922D+02 0.327282456954121D+03
0.369909354019D-02 0.000000000000D+00 0.000000000000D+00 0.526844344929D-03 0.000000000000D+00  6 -1 2 25 -1 2 21 0 0.20646682D+00 0.34689342D+00 0.22404626D+06 0.22404626D+06 0.22404626D+06 0.10940584D+01  1  2  2  3  6  4       -1 0.331112685892D-03 0.100000000000D+01
0.205079781102D-02 0.000000000000D+00 -.142054931880D-04 0.526844344929D-03 0.000000000000D+00  6 -1 2 25 -1 2 21 2 0.20646682D+00 0.34689342D+00 0.22404626D+06 0.22404626D+06 0.22404626D+06 0.10940584D+01  1  2  3  3  6  4       -1 0.219727467149D-03 0.100000000000D+01
-.241066510552D-02 0.000000000000D+00 0.000000000000D+00 0.526844344929D-03 0.000000000000D+00  6 -1 2 25 -1 2 21 2 0.20646682D+00 0.34689342D+00 0.22404626D+06 0.22404626D+06 0.22404626D+06 0.10940584D+01  1  2 15  3  6  4       -1 -.258284524655D-03 0.100000000000D+01
-.133790119331D-02 0.000000000000D+00 0.000000000000D+00 0.526844344929D-03 0.000000000000D+00  6 -1 2 25 -1 2 21 2 0.20646682D+00 0.34689342D+00 0.22404626D+06 0.22404626D+06 0.22404626D+06 0.10940584D+01  1  2  4  3  6  4       -1 -.143345989021D-03 0.100000000000D+01
-.480591416929D-01 0.000000000000D+00 0.000000000000D+00 0.526844344929D-03 0.000000000000D+00  6 -1 2 25 -1 2 21 2 0.20646682D+00 0.34689342D+00 0.22404626D+06 0.22404626D+06 0.22404626D+06 0.10940584D+01  1  2  5  3  6  4       -1 -.514917337088D-02 0.100000000000D+01
0.842739817034D-01 0.000000000000D+00 -.000000000000D+00 0.526844344929D-03 0.000000000000D+00  6 -1 2 25 -1 2 21 2 0.20646682D+00 0.34689342D+00 0.22404626D+06 0.22404626D+06 0.22404626D+06 0.10940584D+01  1  2  6  3  6  4       -1 0.902931944182D-02 0.100000000000D+01
  </mgrwgt>
  </event>
  <event>
  5     66 0.22518659E-05 0.37018703E+02 0.75467711E-02 0.92873154E-01
       -1 -1    0    0    0  501 0.00000000E+00 0.00000000E+00 0.45701977E+03 0.45701988E+03 0.32000000E+00 0.0000E+00 0.9000E+01
        2 -1    0    0  502    0 -.00000000E+00 -.00000000E+00 -.11808632E+04 0.11808632E+04 0.32000000E+00 0.0000E+00 0.9000E+01
       25  1    1    2    0    0 -.25150828E+03 -.46358070E+03 0.21852352E+02 0.54246290E+03 0.12500000E+03 0.0000E+00 0.9000E+01
       -1  1    1    2    0  501 -.23664473E+02 0.28536421E+02 0.99288950E+02 0.10598459E+03 0.32000000E+00 0.0000E+00 0.9000E+01
        2  1    1    2  502    0 0.27517275E+03 0.43504428E+03 -.84498469E+03 0.98943559E+03 0.32000000E+00 0.0000E+00 0.9000E+01
#aMCatNLO 1  0  0  5  5 0.58145412D+02 0.00000000D+00  -5  6  0 0.00000000D+00 0.00000000D+00 0.00000000D+00 0.00000000D+00 0.00000000D+00
  <mgrwgt>
 0.2991290181D-03    4    2    0
 0.734627752992457D+03 0.000000000000000D+00 0.000000000000000D+00 0.734627752992457D+03
 0.734627752992457D+03 -.000000000000000D+00 -.000000000000000D+00 -.734627752992457D+03
 0.615664486948350D+03 -.251593775499955D+03 -.463643203750698D+03 0.291810404603471D+03
 0.166823635386296D+03 -.236304390283113D+02 0.284953804376236D+02 0.162664504328831D+03
 0.686767383650267D+03 0.275224214528266D+03 0.435147823313074D+03 -.454474908932302D+03
 0.000000000000000D+00 0.000000000000000D+00 0.000000000000000D+00 0.000000000000000D+00
 0.734627752992457D+03 0.000000000000000D+00 0.000000000000000D+00 0.734627752992457D+03
 0.734627752992457D+03 -.000000000000000D+00 -.000000000000000D+00 -.734627752992457D+03
 0.545796460680037D+03 -.222076763964726D+03 -.416974841585411D+03 0.243069267663832D+03
 0.155556373023845D+03 -.154375725816179D+02 0.414488482387179D+02 0.149135708402799D+03
 0.346870229843028D+03 0.241029516415379D+03 -.202520814020882D+02 -.248623373331646D+03
 0.421032442438003D+03 -.351517986903534D+01 0.395778074748781D+03 -.143581602734985D+03
0.230008342754D-03 0.000000000000D+00 0.000000000000D+00 0.117901113022D-05 0.000000000000D+00  6 -1 2 25 -1 2 21 0 0.70310746D-01 0.18167127D+00 0.29921720D+06 0.29921720D+06 0.29921720D+06 0.10846358D+01  1  2  2  4  6  5        2 0.131284230160D-02 0.100000000000D+01
0.674483547636D-04 0.000000000000D+00 -.883292598761D-06 0.117901113022D-05 0.000000000000D+00  6 -1 2 25 -1 2 21 2 0.70310746D-01 0.18167127D+00 0.29921720D+06 0.29921720D+06 0.29921720D+06 0.10846358D+01  1  2  3  4  6  5        2 0.452906156873D-03 0.100000000000D+01
-.152816818974D-03 0.000000000000D+00 0.000000000000D+00 0.117901113022D-05 0.000000000000D+00  6 -1 2 25 -1 2 21 2 0.70310746D-01 0.18167127D+00 0.29921720D+06 0.29921720D+06 0.29921720D+06 0.10846358D+01  1  2 15  4  6  5        2 -.102614331261D-02 0.100000000000D+01
-.655972317482D-04 0.000000000000D+00 0.000000000000D+00 0.117901113022D-05 0.000000000000D+00  6 -1 2 25 -1 2 21 2 0.70310746D-01 0.18167127D+00 0.29921720D+06 0.29921720D+06 0.29921720D+06 0.10846358D+01  1  2  5  4  6  5        2 -.440476127797D-03 0.100000000000D+01
  </mgrwgt>
  </event>
  <event>
  5     66 0.22518659E-05 0.63196733E+02 0.75467711E-02 0.95178874E-01
       -1 -1    0    0    0  501 0.00000000E+00 0.00000000E+00 0.41504512E+03 0.41504525E+03 0.32000000E+00 0.0000E+00 0.9000E+01
        2 -1    0    0  502    0 0.00000000E+00 0.00000000E+00 -.80936258E+03 0.80936265E+03 0.32000000E+00 0.0000E+00 0.9000E+01
       25  1    1    2    0    0 -.28305565E+02 0.46725005E+03 -.28472068E+03 0.56197392E+03 0.12500000E+03 0.0000E+00 0.9000E+01
       -1  1    1    2    0  501 0.27029241E+02 -.40407527E+03 0.12153387E+03 0.42282146E+03 0.32000000E+00 0.0000E+00 0.9000E+01
        2  1    1    2  502    0 0.12763236E+01 -.63174783E+02 -.23113065E+03 0.23961252E+03 0.32000000E+00 0.0000E+00 0.9000E+01
#aMCatNLO 1  0  0  2  1 0.16961565D+02 0.00000000D+00  -5  6  0 0.00000000D+00 0.00000000D+00 0.00000000D+00 0.00000000D+00 0.00000000D+00
  <mgrwgt>
 0.4398407590D-03    4    2    0
 0.579587878682834D+03 0.000000000000000D+00 0.000000000000000D+00 0.579587878682834D+03
 0.579587878682834D+03 0.000000000000000D+00 0.000000000000000D+00 -.579587878682834D+03
 0.496730423769750D+03 -.283048397065833D+02 0.467244256533821D+03 -.109534262602241D+03
 0.487939766548158D+03 0.270282478257395D+02 -.404060418670857D+03 0.272194540103348D+03
 0.174505567047761D+03 0.127659188084383D+01 -.631838378629640D+02 -.162660277501106D+03
 0.000000000000000D+00 0.000000000000000D+00 0.000000000000000D+00 0.000000000000000D+00
 0.821079011027548D+03 0.000000000000000D+00 0.000000000000000D+00 0.821079011027548D+03
 0.663633996672685D+03 0.000000000000000D+00 0.000000000000000D+00 -.663633996672685D+03
 0.462799215913902D+03 -.118038885652906D+03 0.415484272915986D+03 -.109534262602241D+03
 0.538440087796545D+03 -.689575489637299D+02 -.459426508731476D+03 0.272194540103348D+03
 0.185276945854431D+03 -.323698315418790D+02 -.825916145523225D+02 -.162660277501106D+03
 0.298196758135355D+03 0.219366266158515D+03 0.126533850367812D+03 0.157445014354863D+03
0.148481313921D-03 0.000000000000D+00 0.000000000000D+00 0.375295001777D-06 0.000000000000D+00  6 -1 2 25 -1 2 21 0 0.63853110D-01 0.12451734D+00 0.22689186D+06 0.22689186D+06 0.22689186D+06 0.10936421D+01  1  2  2  2  6  2        2 0.176339216309D-02 0.100000000000D+01
0.260405689767D-04 0.000000000000D+00 -.570207341484D-06 0.375295001777D-06 0.000000000000D+00  6 -1 2 25 -1 2 21 2 0.63853110D-01 0.12451734D+00 0.22689186D+06 0.22689186D+06 0.22689186D+06 0.10936421D+01  1  2  3  2  6  2        2 0.369894606767D-03 0.100000000000D+01
-.111664995286D-03 0.000000000000D+00 0.000000000000D+00 0.375295001777D-06 0.000000000000D+00  6 -1 2 25 -1 2 21 2 0.63853110D-01 0.12451734D+00 0.22689186D+06 0.22689186D+06 0.22689186D+06 0.10936421D+01  1  2 15  2  6  2        2 -.158615119194D-02 0.100000000000D+01
-.755355196629D-05 0.000000000000D+00 0.000000000000D+00 0.375295001777D-06 0.000000000000D+00  6 -1 2 25 -1 2 21 2 0.63853110D-01 0.12451734D+00 0.22689186D+06 0.22689186D+06 0.22689186D+06 0.10936421D+01  1  2  4  2  6  2        2 -.107294818971D-03 0.100000000000D+01
  </mgrwgt>
  </event>
  <event>
  6     66 0.22518659E-05 0.41134214E+02 0.75467711E-02 0.91298704E-01
       -1 -1    0    0    0  503 0.00000000E+00 0.00000000E+00 0.11753439E+04 0.11753440E+04 0.32000000E+00 0.0000E+00 0.9000E+01
        2 -1    0    0  502    0 0.00000000E+00 0.00000000E+00 -.70130631E+03 0.70130638E+03 0.32000000E+00 0.0000E+00 0.9000E+01
       25  1    1    2    0    0 0.57154908E+03 0.35263121E+03 0.15356467E+03 0.70016014E+03 0.12500000E+03 0.0000E+00 0.9000E+01
       -1  1    1    2    0  501 -.45798651E+03 -.27933533E+03 0.48938731E+03 0.72614042E+03 0.32000000E+00 0.0000E+00 0.9000E+01
        2  1    1    2  502    0 -.53866915E+02 -.25280841E+02 -.29601923E+03 0.30194081E+03 0.32000000E+00 0.0000E+00 0.9000E+01
       21  1    1    2  501  503 -.59695652E+02 -.48015039E+02 0.12710488E+03 0.14840899E+03 0.75000000E+00 0.0000E+00 0.9000E+01
#aMCatNLO 2  0  0  1  1 0.76609496D+02 0.00000000D+00  -5  6  0 0.00000000D+00 0.00000000D+00 0.00000000D+00 0.00000000D+00 0.00000000D+00
  <mgrwgt>
 0.7878493460D-03    1    2    0
 0.845663482736362D+03 0.000000000000000D+00 0.000000000000000D+00 0.845663482736362D+03
 0.845663482736362D+03 0.000000000000000D+00 0.000000000000000D+00 -.845663482736362D+03
 0.653731887731579D+03 0.547942362212084D+03 0.333647255567887D+03 0.133812399482352D+02
 0.665650313053606D+03 -.480999171007581D+03 -.297851528486822D+03 0.350734377751094D+03
 0.371944764687539D+03 -.669431912045032D+02 -.357957270810649D+02 -.364115617699329D+03
 0.000000000000000D+00 -.000000000000000D+00 -.000000000000000D+00 0.000000000000000D+00
 0.958920322117901D+03 0.000000000000000D+00 0.000000000000000D+00 0.958920322117901D+03
 0.859585601771411D+03 0.000000000000000D+00 0.000000000000000D+00 -.859585601771411D+03
 0.683213784948945D+03 0.571524127082615D+03 0.352614790563535D+03 0.133812399482352D+02
 0.640900173242651D+03 -.457953532737522D+03 -.279315216519323D+03 0.350734377751094D+03
 0.368947150875262D+03 -.538749422065843D+02 -.252845345744507D+02 -.364115617699329D+03
 0.125444814822455D+03 -.596956521385088D+02 -.480150394697610D+02 0.993347203464905D+02
0.624225489242D-03 0.000000000000D+00 0.000000000000D+00 0.573443818736D-06 0.681862014853D-08  6 -1 2 25 -1 2 21 2 0.18082192D+00 0.10789315D+00 0.45942501D+06 0.45942501D+06 0.45942501D+06 0.10711178D+01  1  2  1  1  6  1       -1 0.787849346047D-03 0.100000000000D+01
  </mgrwgt>
  </event>
  <event>
  5     66 0.22518659E-05 0.95992623E+02 0.75467711E-02 0.91661347E-01
       -1 -1    0    0    0  501 0.00000000E+00 0.00000000E+00 0.36983397E+03 0.36983411E+03 0.32000000E+00 0.0000E+00 0.9000E+01
        2 -1    0    0  502    0 -.00000000E+00 -.00000000E+00 -.34952633E+04 0.34952633E+04 0.32000000E+00 0.0000E+00 0.9000E+01
       25  1    1    2    0    0 -.23333555E+03 -.49058915E+03 -.48533849E+03 0.73912221E+03 0.12500000E+03 0.0000E+00 0.9000E+01
       -1  1    1    2    0  501 0.32931169E+03 0.49162781E+03 -.11964754E+03 0.60370501E+03 0.32000000E+00 0.0000E+00 0.9000E+01
        2  1    1    2  502    0 -.95976148E+02 -.10386598E+01 -.25204433E+04 0.25222702E+04 0.32000000E+00 0.0000E+00 0.9000E+01
#aMCatNLO 1  0  0  4  1 0.20460480D+03 0.00000000D+00  -5  6  0 0.00000000D+00 0.00000000D+00 0.00000000D+00 0.00000000D+00 0.00000000D+00
  <mgrwgt>
 0.6312991931D-03    6    2    0
 0.113695532072199D+04 0.000000000000000D+00 0.000000000000000D+00 0.113695532072199D+04
 0.113695532072199D+04 -.000000000000000D+00 -.000000000000000D+00 -.113695532072199D+04
 0.589237770653728D+03 -.233300483580283D+03 -.490553605336608D+03 0.191060710292402D+03
 0.861636580788149D+03 0.329287493902251D+03 0.491591684495183D+03 0.626358491159061D+03
 0.823036290002109D+03 -.959870103219683D+02 -.103807915857588D+01 -.817419201451463D+03
 0.000000000000000D+00 0.000000000000000D+00 0.000000000000000D+00 0.000000000000000D+00
 0.113695532072199D+04 0.000000000000000D+00 0.000000000000000D+00 0.113695532072199D+04
 0.113695532072199D+04 -.000000000000000D+00 -.000000000000000D+00 -.113695532072199D+04
 0.578983661198302D+03 -.222718044730036D+03 -.474755134283818D+03 0.211190234048295D+03
 0.350867810254257D+03 -.785788755682541D+02 0.231161957375900D+03 0.251987559314322D+03
 0.794007971534045D+03 -.813388695249609D+02 0.208300583883092D+02 -.789556049835317D+03
 0.550051198457383D+03 0.382635789823250D+03 0.222763118519608D+03 0.326378256472700D+03
0.258703264907D-02 0.000000000000D+00 0.000000000000D+00 0.360902208797D-05 0.000000000000D+00  6 -1 2 25 -1 2 21 0 0.56897546D-01 0.53773282D+00 0.38755659D+06 0.38755659D+06 0.38755659D+06 0.10764184D+01  1  2  2  3  6  4       -1 0.929742973323D-03 0.100000000000D+01
0.747469877493D-03 0.000000000000D+00 -.993488655377D-05 0.360902208797D-05 0.000000000000D+00  6 -1 2 25 -1 2 21 2 0.56897546D-01 0.53773282D+00 0.38755659D+06 0.38755659D+06 0.38755659D+06 0.10764184D+01  1  2  3  3  6  4       -1 0.311255435411D-03 0.100000000000D+01
-.191540355835D-02 0.000000000000D+00 0.000000000000D+00 0.360902208797D-05 0.000000000000D+00  6 -1 2 25 -1 2 21 2 0.56897546D-01 0.53773282D+00 0.38755659D+06 0.38755659D+06 0.38755659D+06 0.10764184D+01  1  2 15  3  6  4       -1 -.797597049052D-03 0.100000000000D+01
-.409225310410D-03 0.000000000000D+00 0.000000000000D+00 0.360902208797D-05 0.000000000000D+00  6 -1 2 25 -1 2 21 2 0.56897546D-01 0.53773282D+00 0.38755659D+06 0.38755659D+06 0.38755659D+06 0.10764184D+01  1  2  4  3  6  4       -1 -.170406334768D-03 0.100000000000D+01
-.111935434441D-02 0.000000000000D+00 0.000000000000D+00 0.360902208797D-05 0.000000000000D+00  6 -1 2 25 -1 2 21 2 0.56897546D-01 0.53773282D+00 0.38755659D+06 0.38755659D+06 0.38755659D+06 0.10764184D+01  1  2  5  3  6  4       -1 -.466112594418D-03 0.100000000000D+01
0.197981023441D-02 0.000000000000D+00 -.000000000000D+00 0.360902208797D-05 0.000000000000D+00  6 -1 2 25 -1 2 21 2 0.56897546D-01 0.53773282D+00 0.38755659D+06 0.38755659D+06 0.38755659D+06 0.10764184D+01  1  2  6  3  6  4       -1 0.824416762598D-03 0.100000000000D+01
  </mgrwgt>
  </event>
  <event>
  6     66 0.22518659E-05 0.13908033E+03 0.75467711E-02 0.92095914E-01
       21 -1    0    0  503  501 0.00000000E+00 0.00000000E+00 0.29125818E+03 0.29125914E+03 0.75000000E+00 0.0000E+00 0.9000E+01
        2 -1    0    0  502    0 0.00000000E+00 0.00000000E+00 -.15038530E+04 0.15038530E+04 0.32000000E+00 0.0000E+00 0.9000E+01
       25  1    1    2    0    0 -.54415958E+03 -.30000294E+03 -.57070455E+03 0.85290099E+03 0.12500000E+03 0.0000E+00 0.9000E+01
       -1  1    1    2    0  501 0.17679882E+03 0.12814069E+03 -.75511048E+02 0.23104086E+03 0.32000000E+00 0.0000E+00 0.9000E+01
        2  1    1    2  502    0 0.18419314E+03 0.84529247E+02 -.40134028E+03 0.44960698E+03 0.32000000E+00 0.0000E+00 0.9000E+01
        1  1    1    2  503    0 0.18316762E+03 0.87333000E+02 -.16503893E+03 0.26156334E+03 0.32000000E+00 0.0000E+00 0.9000E+01
#aMCatNLO 2  0  0  1  2 0.20292223D+03 0.00000000D+00  -5  6  0 0.00000000D+00 0.00000000D+00 0.00000000D+00 0.00000000D+00 0.00000000D+00
  <mgrwgt>
 0.8577418077D-02    2    2    0
 0.550731613706922D+03 0.000000000000000D+00 0.000000000000000D+00 0.550731613706922D+03
 0.550731613706922D+03 0.000000000000000D+00 0.000000000000000D+00 -.550731613706922D+03
 0.530420514573849D+03 -.448139440799336D+03 -.254207333807134D+03 0.164497817466791D+02
 0.289289278892285D+03 0.220823921993093D+03 0.149111818330117D+03 0.112653220068905D+03
 0.281753433947709D+03 0.227315518806243D+03 0.105095515477017D+03 -.129103001815584D+03
 0.000000000000000D+00 0.000000000000000D+00 0.000000000000000D+00 0.000000000000000D+00
 0.671222673739871D+03 0.000000000000000D+00 0.000000000000000D+00 0.671222673739871D+03
 0.652555742654398D+03 0.000000000000000D+00 0.000000000000000D+00 -.652555742654398D+03
 0.634025693128045D+03 -.544152238210614D+03 -.299985542780587D+03 0.164497817466791D+02
 0.245612962056840D+03 0.176719299421953D+03 0.128083052548945D+03 0.112653220068905D+03
 0.240360751821962D+03 0.184265317592748D+03 0.845694901904226D+02 -.129103001815584D+03
 0.203779009387422D+03 0.183167621195912D+03 0.873330000412199D+02 0.186669310854735D+02
-.895280114419D-07 0.000000000000D+00 0.000000000000D+00 0.759148419798D-08 0.000000000000D+00  6 21 2 25 -1 2 1 2 0.47556479D-01 0.19526054D+00 0.39547389D+06 0.39547389D+06 0.39547389D+06 0.10757841D+01  1  2 13  5  6  1       -1 -.985519492734D-05 0.100000000000D+01
0.930204711581D-04 0.000000000000D+00 0.000000000000D+00 0.759148419798D-08 0.348507252479D-10  6 21 2 25 -1 2 1 2 0.44809018D-01 0.23136203D+00 0.39547389D+06 0.39547389D+06 0.39547389D+06 0.10757841D+01  1  2  1  5  6  1       -1 0.858727327209D-02 0.100000000000D+01
  </mgrwgt>
  </event>
  <event>
  6     66 0.22518659E-05 0.41460214E+02 0.75467711E-02 0.94960742E-01
       -1 -1    0    0    0  501 0.00000000E+00 0.00000000E+00 0.11223299E+04 0.11223299E+04 0.32000000E+00 0.0000E+00 0.9000E+01
        2 -1    0    0  503    0 0.00000000E+00 0.00000000E+00 -.43839976E+03 0.43839988E+03 0.32000000E+00 0.0000E+00 0.9000E+01
       25  1    1    2    0    0 0.47780677E+02 0.44765377E+03 0.28305552E+03 0.54628043E+03 0.12500000E+03 0.0000E+00 0.9000E+01
       -1  1    1    2    0  501 -.59352840E+02 -.20394094E+02 0.54564057E+03 0.54923803E+03 0.32000000E+00 0.0000E+00 0.9000E+01
        2  1    1    2  502    0 0.43892163E+02 -.38579646E+03 -.13856889E+03 0.41227038E+03 0.32000000E+00 0.0000E+00 0.9000E+01
       21  1    1    2  503  502 -.32320000E+02 -.41463215E+02 -.61970626E+01 0.52940974E+02 0.75000000E+00 0.0000E+00 0.9000E+01
#aMCatNLO 2  0  0  2  5 0.11179955D+02 0.00000000D+00  -5  6  0 0.00000000D+00 0.00000000D+00 0.00000000D+00 0.00000000D+00 0.00000000D+00
  <mgrwgt>
 0.1602442047D-02    1    2    0
 0.669773819686297D+03 0.000000000000000D+00 0.000000000000000D+00 0.669773819686297D+03
 0.669773819686297D+03 0.000000000000000D+00 0.000000000000000D+00 -.669773819686297D+03
 0.454138668654193D+03 0.366294527092704D+02 0.433459672548636D+03 0.372548766640166D+02
 0.339030961003525D+03 -.674769762341574D+02 -.308397289143605D+02 0.330813786468698D+03
 0.546378009714876D+03 0.308475235248870D+02 -.402619943634276D+03 -.368068663132715D+03
 0.000000000000000D+00 -.000000000000000D+00 -.000000000000000D+00 -.000000000000000D+00
 0.684542508146825D+03 0.000000000000000D+00 0.000000000000000D+00 0.684542508146825D+03
 0.718766320603647D+03 0.000000000000000D+00 0.000000000000000D+00 -.718766320603647D+03
 0.468788994277860D+03 0.477591596875257D+02 0.447737934495992D+03 0.372548766640166D+02
 0.336709313701675D+03 -.593281347236735D+02 -.203856087940823D+02 0.330813786468698D+03
 0.535080544149833D+03 0.438889755227648D+02 -.385889110723456D+03 -.368068663132715D+03
 0.627299766211034D+02 -.323200004866170D+02 -.414632149784542D+02 -.342238124568224D+02
0.585042770756D-03 0.000000000000D+00 0.000000000000D+00 0.178358010060D-05 0.689998263498D-08  6 -1 2 25 -1 2 21 2 0.17266559D+00 0.67445911D-01 0.23570428D+06 0.23570428D+06 0.23570428D+06 0.10923882D+01  1  2  1  2  6  2        2 0.160244204738D-02 0.100000000000D+01
  </mgrwgt>
  </event>
  <event>
  6     66 0.22518659E-05 0.33703042E+02 0.75467711E-02 0.93523828E-01
       -1 -1    0    0    0  501 0.00000000E+00 0.00000000E+00 0.56499359E+03 0.56499368E+03 0.32000000E+00 0.0000E+00 0.9000E+01
        2 -1    0    0  502    0 -.00000000E+00 -.00000000E+00 -.12233904E+04 0.12233905E+04 0.32000000E+00 0.0000E+00 0.9000E+01
       25  1    1    2    0    0 0.37054399E+03 0.34965660E+03 -.28077475E+03 0.59499751E+03 0.12500000E+03 0.0000E+00 0.9000E+01
       -1  1    1    2    0  503 -.25288033E+02 -.37823593E+02 0.31576332E+03 0.31902458E+03 0.32000000E+00 0.0000E+00 0.9000E+01
        2  1    1    2  502    0 -.31350746E+03 -.35845775E+03 -.62291432E+03 0.78409263E+03 0.32000000E+00 0.0000E+00 0.9000E+01
       21  1    1    2  503  501 -.31748490E+02 0.46624750E+02 -.70471103E+02 0.90269446E+02 0.75000000E+00 0.0000E+00 0.9000E+01
#aMCatNLO 2  0  0  4  2 0.59991067D+02 0.00000000D+00  -5  6  0 0.00000000D+00 0.00000000D+00 0.00000000D+00 0.00000000D+00 0.00000000D+00
  <mgrwgt>
 0.2041843408D-03    2    2    0
 0.831389122771212D+03 0.000000000000000D+00 0.000000000000000D+00 0.831389122771212D+03
 0.831389122771212D+03 -.000000000000000D+00 -.000000000000000D+00 -.831389122771212D+03
 0.537376807247068D+03 0.375446051495814D+03 0.349157983715575D+03 -.101379474209179D+03
 0.505657944293175D+03 -.671065430302211D+02 0.103550359125914D+02 0.501078279054862D+03
 0.619743494002182D+03 -.308339508465593D+03 -.359513019628166D+03 -.399698804845683D+03
 0.000000000000000D+00 0.000000000000000D+00 0.000000000000000D+00 -.000000000000000D+00
 0.831389122771212D+03 0.000000000000000D+00 0.000000000000000D+00 0.831389122771212D+03
 0.831389122771212D+03 -.000000000000000D+00 -.000000000000000D+00 -.831389122771212D+03
 0.528996209597946D+03 0.370713600265129D+03 0.349888235941893D+03 -.660427035858635D+02
 0.467705907158141D+03 -.252039698614029D+02 -.378635185717677D+02 0.465488914427842D+03
 0.596858409164487D+03 -.313738659684675D+03 -.358679890662695D+03 -.359383847778143D+03
 0.692177196218508D+02 -.317709707190519D+02 0.466551732925701D+02 -.400623630638354D+02
-.144386025374D-05 0.000000000000D+00 0.000000000000D+00 0.296277126295D-05 0.000000000000D+00  6 -1 2 25 -1 2 21 2 0.86922100D-01 0.18821392D+00 0.28582675D+06 0.28582675D+06 0.28582675D+06 0.10861103D+01  1  2  8  3  6  4       -1 -.597957539857D-05 0.100000000000D+01
0.510961208671D-04 0.000000000000D+00 0.000000000000D+00 0.296277126295D-05 0.291950600269D-08  6 -1 2 25 -1 2 21 2 0.86922100D-01 0.18821392D+00 0.30432903D+06 0.30432903D+06 0.30432903D+06 0.10840918D+01  1  2  1  3  6  4       -1 0.210163916182D-03 0.100000000000D+01
  </mgrwgt>
  </event>
  <event>
  5     66 0.22518659E-05 0.94562954E+02 0.75467711E-02 0.88298098E-01
       -1 -1    0    0    0  501 0.00000000E+00 0.00000000E+00 0.56991471E+03 0.56991480E+03 0.32000000E+00 0.0000E+00 0.9000E+01
        2 -1    0    0  502    0 0.00000000E+00 0.00000000E+00 -.33311250E+04 0.33311250E+04 0.32000000E+00 0.0000E+00 0.9000E+01
       25  1    1    2    0    0 0.51788544E+03 0.21580405E+03 -.16182851E+04 0.17173375E+04 0.12500000E+03 0.0000E+00 0.9000E+01
       -1  1    1    2    0  501 -.61081792E+03 -.19828758E+03 0.32014982E+03 0.71757404E+03 0.32000000E+00 0.0000E+00 0.9000E+01
        2  1    1    2  502    0 0.92932485E+02 -.17516470E+02 -.14630750E+04 0.14661282E+04 0.32000000E+00 0.0000E+00 0.9000E+01
#aMCatNLO 1  0  0  1  4 0.13946713D+02 0.00000000D+00  -5  6  0 0.00000000D+00 0.00000000D+00 0.00000000D+00 0.00000000D+00 0.00000000D+00
  <mgrwgt>
 0.1603996458D-02    7    2    0
 0.137784516968951D+04 0.000000000000000D+00 0.000000000000000D+00 0.137784516968951D+04
 0.137784516968951D+04 0.000000000000000D+00 0.000000000000000D+00 -.137784516968951D+04
 0.809627998729791D+03 0.517893558179592D+03 0.215803268294964D+03 -.570164632467237D+03
 0.133661610376865D+04 -.610820303562470D+03 -.198288355098652D+03 0.117222988097122D+04
 0.609446236880577D+03 0.929267453828784D+02 -.175149131963122D+02 -.602065248503987D+03
 0.000000000000000D+00 -.000000000000000D+00 0.000000000000000D+00 0.000000000000000D+00
 0.166587715905560D+04 0.000000000000000D+00 0.000000000000000D+00 0.166587715905560D+04
 0.159752947942221D+04 0.000000000000000D+00 0.000000000000000D+00 -.159752947942221D+04
 0.901740594411099D+03 0.659311006622241D+03 0.194248263928278D+03 -.570164632467237D+03
 0.125879609910833D+04 -.396350683833063D+03 -.230978052449991D+03 0.117222988097122D+04
 0.633932820982153D+03 0.195672287468152D+03 -.331755026970748D+02 -.602065248503987D+03
 0.468937123976237D+03 -.458632610257331D+03 0.699052912187881D+02 0.683476796333921D+02
0.747898900382D-02 0.000000000000D+00 0.000000000000D+00 0.496756146860D-05 0.000000000000D+00  6 -1 2 25 -1 2 21 0 0.87679194D-01 0.51248077D+00 0.43005718D+06 0.43005718D+06 0.43005718D+06 0.10731666D+01  1  2  2  1  6  1       -1 0.146889934460D-02 0.100000000000D+01
0.149965997117D-02 0.000000000000D+00 -.287212870377D-04 0.496756146860D-05 0.000000000000D+00  6 -1 2 25 -1 2 21 2 0.87679194D-01 0.51248077D+00 0.43005718D+06 0.43005718D+06 0.43005718D+06 0.10731666D+01  1  2  3  1  6  1       -1 0.339215913246D-03 0.100000000000D+01
-.612101495160D-02 0.000000000000D+00 0.000000000000D+00 0.496756146860D-05 0.000000000000D+00  6 -1 2 25 -1 2 21 2 0.87679194D-01 0.51248077D+00 0.43005718D+06 0.43005718D+06 0.43005718D+06 0.10731666D+01  1  2 15  1  6  1       -1 -.138454430785D-02 0.100000000000D+01
-.308942597375D-03 0.000000000000D+00 0.000000000000D+00 0.496756146860D-05 0.000000000000D+00  6 -1 2 25 -1 2 21 2 0.87679194D-01 0.51248077D+00 0.43005718D+06 0.43005718D+06 0.43005718D+06 0.10731666D+01  1  2  4  1  6  1       -1 -.698813379858D-04 0.100000000000D+01
-.442885246655D-02 0.000000000000D+00 -.680781865327D-02 0.496756146860D-05 0.000000000000D+00  6 -1 2 25 -1 2 21 2 0.13224608D+00 0.51248077D+00 0.43005718D+06 0.43005718D+06 0.43005718D+06 0.10731666D+01  1  2  5  1  6  1       -1 -.381431406135D-03 0.100000000000D+01
0.715131001686D-02 0.000000000000D+00 0.627074442880D-02 0.496756146860D-05 0.000000000000D+00  6 -1 2 25 -1 2 21 2 0.87679194D-01 0.51248077D+00 0.43005718D+06 0.43005718D+06 0.43005718D+06 0.10731666D+01  1  2  6  1  6  1       -1 0.161759212416D-02 0.100000000000D+01
0.259242689271D-04 0.000000000000D+00 -.330574817778D-03 0.496756146860D-05 0.000000000000D+00  6 21 2 25 -1 2 1 2 0.13224608D+00 0.51248077D+00 0.43005718D+06 0.43005718D+06 0.43005718D+06 0.10731666D+01  1  2  5  5  6  1       -1 0.141461278579D-04 0.100000000000D+01
  </mgrwgt>
  </event>
  <event>
  5     66 -.22518659E-05 0.42418647E+02 0.75467711E-02 0.95400553E-01
       -1 -1    0    0    0  501 0.00000000E+00 0.00000000E+00 0.81624140E+03 0.81624146E+03 0.32000000E+00 0.0000E+00 0.9000E+01
        2 -1    0    0  502    0 -.00000000E+00 -.00000000E+00 -.14113156E+04 0.14113157E+04 0.32000000E+00 0.0000E+00 0.9000E+01
       25  1    1    2    0    0 0.19510753E+03 0.41483444E+03 -.81657605E+02 0.48212813E+03 0.12500000E+03 0.0000E+00 0.9000E+01
       -1  1    1    2    0  501 -.16980861E+03 -.38079219E+03 0.54498241E+03 0.68618043E+03 0.32000000E+00 0.0000E+00 0.9000E+01
        2  1    1    2  502    0 -.25298925E+02 -.34042258E+02 -.10583990E+04 0.10592486E+04 0.32000000E+00 0.0000E+00 0.9000E+01
#aMCatNLO 1  0  0  5  2 0.15626691D+02 0.00000000D+00  -5  6  0 0.00000000D+00 0.00000000D+00 0.00000000D+00 0.00000000D+00 0.00000000D+00
  <mgrwgt>
 -.2992021563D-03    1    2    0
 0.107330067747341D+04 0.000000000000000D+00 0.000000000000000D+00 0.107330067747341D+04
 0.107330067747341D+04 -.000000000000000D+00 -.000000000000000D+00 -.107330067747341D+04
 0.477666818113873D+03 0.195101338033007D+03 0.414817940658276D+03 0.490115612155924D+02
 0.863090251953153D+03 -.169799418872907D+03 -.380771582761568D+03 0.755715516664988D+03
 0.805844284879798D+03 -.253019191600999D+02 -.340463578967079D+02 -.804727077880581D+03
 0.000000000000000D+00 0.000000000000000D+00 0.000000000000000D+00 0.000000000000000D+00
 0.107330067747341D+04 0.000000000000000D+00 0.000000000000000D+00 0.107330067747341D+04
 0.107330067747341D+04 -.000000000000000D+00 -.000000000000000D+00 -.107330067747341D+04
 0.472496702912983D+03 0.193415743439916D+03 0.412549798213348D+03 -.459874410578043D+01
 0.785495134094139D+03 -.172724017167280D+03 -.384706933262227D+03 0.662698721199263D+03
 0.677284565432964D+03 -.226572830112145D+03 0.154038051250682D+02 -.638076686626585D+03
 0.211324952506738D+03 0.205881103839509D+03 -.432466700761901D+02 -.200232904668980D+02
-.207773558649D-03 0.000000000000D+00 0.000000000000D+00 0.684525340284D-04 0.000000000000D+00  6 -1 2 25 -1 2 21 2 0.12557561D+00 0.21712549D+00 0.21831333D+06 0.21831333D+06 0.21831333D+06 0.10949149D+01  1  2 14  4  6  5        2 -.299202156301D-03 0.100000000000D+01
  </mgrwgt>
  </event>
  <event>
  5     66 -.22518659E-05 0.50765023E+02 0.75467711E-02 0.95009628E-01
       -1 -1    0    0    0  501 0.00000000E+00 0.00000000E+00 0.64821893E+03 0.64821900E+03 0.32000000E+00 0.0000E+00 0.9000E+01
        2 -1    0    0  502    0 -.00000000E+00 -.00000000E+00 -.10146429E+04 0.10146430E+04 0.32000000E+00 0.0000E+00 0.9000E+01
       25  1    1    2    0    0 0.24082354E+03 -.40907431E+03 -.55698448E+03 0.74242473E+03 0.12500000E+03 0.0000E+00 0.9000E+01
       -1  1    1    2    0  501 -.22490258E+03 0.36086805E+03 0.47151777E+03 0.63492994E+03 0.32000000E+00 0.0000E+00 0.9000E+01
        2  1    1    2  502    0 -.15920962E+02 0.48206259E+02 -.28095728E+03 0.28550730E+03 0.32000000E+00 0.0000E+00 0.9000E+01
#aMCatNLO 1  0  0  5  2 0.37627173D+01 0.00000000D+00  -5  6  0 0.00000000D+00 0.00000000D+00 0.00000000D+00 0.00000000D+00 0.00000000D+00
  <mgrwgt>
 -.1227302865D-01    9    2    0
 0.810993742342022D+03 0.000000000000000D+00 0.000000000000000D+00 0.810993742342022D+03
 0.810993742342022D+03 -.000000000000000D+00 -.000000000000000D+00 -.810993742342022D+03
 0.635316900962731D+03 0.240823944515916D+03 -.409074001622504D+03 -.403317311298728D+03
 0.757454979417667D+03 -.224903733928188D+03 0.360869910053194D+03 0.626840700918484D+03
 0.229215604303647D+03 -.159202105877276D+02 0.482040915693103D+02 -.223523389619758D+03
 0.000000000000000D+00 0.000000000000000D+00 0.000000000000000D+00 -.000000000000000D+00
 0.810993742342022D+03 0.000000000000000D+00 0.000000000000000D+00 0.810993742342022D+03
 0.810993742342022D+03 -.000000000000000D+00 -.000000000000000D+00 -.810993742342022D+03
 0.635348645421178D+03 0.240819123862041D+03 -.409059405380858D+03 -.403384994379196D+03
 0.757398202698228D+03 -.224909480981677D+03 0.360887311298682D+03 0.626760010976025D+03
 0.516180694789161D+02 -.520814390978828D+01 0.141145136956622D+02 -.493769261586837D+02
 0.177622567085723D+03 -.107014989705751D+02 0.340575803865134D+02 -.173998090438145D+03
0.167397590150D-04 0.000000000000D+00 0.000000000000D+00 0.407306974058D-05 0.000000000000D+00  6 -1 2 25 -1 2 21 0 0.99725999D-01 0.15609892D+00 0.23370491D+06 0.23370491D+06 0.23370491D+06 0.10926681D+01  1  2  2  4  6  5        2 0.586048054152D-04 0.100000000000D+01
0.356833046869D-05 0.000000000000D+00 -.642850822975D-07 0.407306974058D-05 0.000000000000D+00  6 -1 2 25 -1 2 21 2 0.99725999D-01 0.15609892D+00 0.23370491D+06 0.23370491D+06 0.23370491D+06 0.10926681D+01  1  2  3  4  6  5        2 0.149150812148D-04 0.100000000000D+01
-.124545502737D-04 0.000000000000D+00 0.000000000000D+00 0.407306974058D-05 0.000000000000D+00  6 -1 2 25 -1 2 21 2 0.99725999D-01 0.15609892D+00 0.23370491D+06 0.23370491D+06 0.23370491D+06 0.10926681D+01  1  2 15  4  6  5        2 -.520581348771D-04 0.100000000000D+01
0.973943673563D-09 0.000000000000D+00 0.000000000000D+00 0.407306974058D-05 0.000000000000D+00  6 -1 2 25 -1 2 21 2 0.99725999D-01 0.15609892D+00 0.23369636D+06 0.23369636D+06 0.23369636D+06 0.10926693D+01  1  2 12  4  6  5        2 0.407095328093D-08 0.100000000000D+01
0.441497098329D-04 0.000000000000D+00 0.000000000000D+00 0.407306974058D-05 0.000000000000D+00  6 -1 2 25 -1 2 21 2 0.99725999D-01 0.15609892D+00 0.23369636D+06 0.23369636D+06 0.23369636D+06 0.10926693D+01  1  2 12  4  6  5        2 0.184539836312D-03 0.100000000000D+01
-.481352067755D-02 0.000000000000D+00 0.000000000000D+00 0.407306974058D-05 0.000000000000D+00  6 -1 2 25 -1 2 21 2 0.99725999D-01 0.15609892D+00 0.23370491D+06 0.23370491D+06 0.23370491D+06 0.10926681D+01  1  2  4  4  6  5        2 -.201197878012D-01 0.100000000000D+01
-.636197031460D-03 0.000000000000D+00 0.000000000000D+00 0.407306974058D-05 0.000000000000D+00  6 -1 2 25 -1 2 21 2 0.99725999D-01 0.15609892D+00 0.23370491D+06 0.23370491D+06 0.23370491D+06 0.10926681D+01  1  2  5  4  6  5        2 -.265920728926D-02 0.100000000000D+01
0.174637876393D-02 0.000000000000D+00 -.000000000000D+00 0.407306974058D-05 0.000000000000D+00  6 -1 2 25 -1 2 21 2 0.99725999D-01 0.15609892D+00 0.23370491D+06 0.23370491D+06 0.23370491D+06 0.10926681D+01  1  2  6  4  6  5        2 0.729959888083D-02 0.100000000000D+01
0.717813075352D-03 0.000000000000D+00 0.000000000000D+00 0.407306974058D-05 0.262889539518D-06  6 -1 2 25 -1 2 21 2 0.99725999D-01 0.15609892D+00 0.23369636D+06 0.23369636D+06 0.23369636D+06 0.10926693D+01  1  2 11  4  6  5        2 0.300036190338D-02 0.100000000000D+01
  </mgrwgt>
  </event>
  <event>
  5     66 0.22518659E-05 0.12629181E+03 0.75467711E-02 0.93539459E-01
       -1 -1    0    0    0  501 0.00000000E+00 0.00000000E+00 0.36816332E+03 0.36816346E+03 0.32000000E+00 0.0000E+00 0.9000E+01
        2 -1    0    0  502    0 0.00000000E+00 0.00000000E+00 -.24583113E+04 0.24583113E+04 0.32000000E+00 0.0000E+00 0.9000E+01
       25  1    1    2    0    0 0.53329331E+03 -.38380688E+00 -.98548435E+03 0.11274778E+04 0.12500000E+03 0.0000E+00 0.9000E+01
       -1  1    1    2    0  501 -.11021969E+03 -.61681279E+02 0.24910828E+03 0.27929912E+03 0.32000000E+00 0.0000E+00 0.9000E+01
        2  1    1    2  502    0 -.42307362E+03 0.62065086E+02 -.13537719E+04 0.14196978E+04 0.32000000E+00 0.0000E+00 0.9000E+01
#aMCatNLO 1  0  0  2  5 0.41444501D+02 0.00000000D+00  -5  6  0 0.00000000D+00 0.00000000D+00 0.00000000D+00 0.00000000D+00 0.00000000D+00
  <mgrwgt>
 0.4789552019D-03    1    2    0
 0.951346551507930D+03 0.000000000000000D+00 0.000000000000000D+00 0.951346551507930D+03
 0.951346551507930D+03 0.000000000000000D+00 0.000000000000000D+00 -.951346551507930D+03
 0.592330711860831D+03 0.533350168496742D+03 -.394317288745739D+00 -.225317807755915D+03
 0.688480880191448D+03 -.110208159712929D+03 -.616748240986811D+02 0.676798566779125D+03
 0.621881510963581D+03 -.423142008783813D+03 0.620691413874268D+02 -.451480759023210D+03
 0.000000000000000D+00 0.000000000000000D+00 0.000000000000000D+00 -.000000000000000D+00
 0.126196505154615D+04 0.000000000000000D+00 0.000000000000000D+00 0.126196505154615D+04
 0.215209175511104D+04 0.000000000000000D+00 0.000000000000000D+00 -.215209175511104D+04
 0.628129381869717D+03 0.498278043134853D+03 -.282617051158988D+03 -.225317807755915D+03
 0.804400778115491D+03 -.153108810819482D+03 -.406893111133592D+03 0.676798566779125D+03
 0.688655894491807D+03 -.460802668408562D+03 -.240983331451962D+03 -.451480759023210D+03
 0.129287075218018D+04 0.115633436093190D+03 0.930493493744542D+03 -.890126703564891D+03
0.242196281867D-03 0.000000000000D+00 0.000000000000D+00 0.190048066573D-05 0.000000000000D+00  6 -1 2 25 -1 2 21 2 0.56640523D-01 0.37820175D+00 0.30347121D+06 0.30347121D+06 0.30347121D+06 0.10841824D+01  1  2 14  2  6  2        2 0.478955201908D-03 0.100000000000D+01
  </mgrwgt>
  </event>
  <event>
  5     66 0.22518659E-05 0.97749375E+02 0.75467711E-02 0.91661665E-01
       -1 -1    0    0    0  501 0.00000000E+00 0.00000000E+00 0.29828320E+03 0.29828337E+03 0.32000000E+00 0.0000E+00 0.9000E+01
        2 -1    0    0  502    0 -.00000000E+00 -.00000000E+00 -.27854766E+04 0.27854766E+04 0.32000000E+00 0.0000E+00 0.9000E+01
       25  1    1    2    0    0 -.54702790E+03 0.29703057E+03 -.17731656E+04 0.18834032E+04 0.12500000E+03 0.0000E+00 0.9000E+01
       -1  1    1    2    0  501 0.39756545E+01 -.97697294E+02 0.13883783E+03 0.16981347E+03 0.32000000E+00 0.0000E+00 0.9000E+01
        2  1    1    2  502    0 0.54305224E+03 -.19933327E+03 -.85286563E+03 0.10305432E+04 0.32000000E+00 0.0000E+00 0.9000E+01
#aMCatNLO 1  0  0  5  2 0.44561038D+02 0.00000000D+00  -5  6  0 0.00000000D+00 0.00000000D+00 0.00000000D+00 0.00000000D+00 0.00000000D+00
  <mgrwgt>
 0.1164874389D-03    8    2    0
 0.911515860408971D+03 0.000000000000000D+00 0.000000000000000D+00 0.911515860408971D+03
 0.911515860408971D+03 -.000000000000000D+00 -.000000000000000D+00 -.911515860408971D+03
 0.766761139456850D+03 -.547117264675457D+03 0.297062117323036D+03 -.429784180870780D+03
 0.476527395735257D+03 0.397448447414955D+01 -.976685406993251D+02 0.466394059264326D+03
 0.579743185625835D+03 0.543142780201307D+03 -.199393576623711D+03 -.366098783935457D+02
 0.000000000000000D+00 0.000000000000000D+00 0.000000000000000D+00 0.000000000000000D+00
 0.911515860408971D+03 0.000000000000000D+00 0.000000000000000D+00 0.911515860408971D+03
 0.911515860408971D+03 -.000000000000000D+00 -.000000000000000D+00 -.911515860408971D+03
 0.762305245467219D+03 -.541658660147160D+03 0.295058204687268D+03 -.430152111468892D+03
 0.476601158532566D+03 0.737705214136927D+01 -.989176600130710D+02 0.466164713329770D+03
 0.494268721132792D+03 0.445836992679864D+03 -.208323058760938D+03 -.461784347602621D+02
 0.898565956853647D+02 0.884446153259273D+02 0.121825140867416D+02 0.101658328993841D+02
0.194954827455D-04 0.000000000000D+00 0.000000000000D+00 0.982505378527D-07 0.000000000000D+00  6 -1 2 25 -1 2 21 0 0.45889738D-01 0.42853487D+00 0.42989151D+06 0.42989151D+06 0.42989151D+06 0.10731786D+01  1  2  2  4  6  5        2 0.301696971716D-04 0.100000000000D+01
0.398996447074D-05 0.000000000000D+00 -.748677870213D-07 0.982505378527D-07 0.000000000000D+00  6 -1 2 25 -1 2 21 2 0.45889738D-01 0.42853487D+00 0.42989151D+06 0.42989151D+06 0.42989151D+06 0.10731786D+01  1  2  3  4  6  5        2 0.711131575207D-05 0.100000000000D+01
-.151722081736D-04 0.000000000000D+00 0.000000000000D+00 0.982505378527D-07 0.000000000000D+00  6 -1 2 25 -1 2 21 2 0.45889738D-01 0.42853487D+00 0.42989151D+06 0.42989151D+06 0.42989151D+06 0.10731786D+01  1  2 15  4  6  5        2 -.270414345215D-04 0.100000000000D+01
0.112445576159D-06 0.000000000000D+00 0.000000000000D+00 0.982505378527D-07 0.000000000000D+00  6 -1 2 25 -1 2 21 2 0.45889738D-01 0.42853487D+00 0.42897686D+06 0.42897686D+06 0.42897686D+06 0.10732448D+01  1  2 12  4  6  5        2 0.200465805371D-06 0.100000000000D+01
0.154316438670D-03 0.000000000000D+00 0.000000000000D+00 0.982505378527D-07 0.000000000000D+00  6 -1 2 25 -1 2 21 2 0.45889738D-01 0.42853487D+00 0.42897686D+06 0.42897686D+06 0.42897686D+06 0.10732448D+01  1  2 12  4  6  5        2 0.275112371840D-03 0.100000000000D+01
-.119680244110D-03 0.000000000000D+00 0.000000000000D+00 0.982505378527D-07 0.000000000000D+00  6 -1 2 25 -1 2 21 2 0.45889738D-01 0.42853487D+00 0.42989151D+06 0.42989151D+06 0.42989151D+06 0.10731786D+01  1  2  4  4  6  5        2 -.213306161344D-03 0.100000000000D+01
-.148783057563D-03 0.000000000000D+00 0.000000000000D+00 0.982505378527D-07 0.000000000000D+00  6 -1 2 25 -1 2 21 2 0.45889738D-01 0.42853487D+00 0.42989151D+06 0.42989151D+06 0.42989151D+06 0.10731786D+01  1  2  5  4  6  5        2 -.265176120903D-03 0.100000000000D+01
0.173605574142D-03 0.000000000000D+00 -.000000000000D+00 0.982505378527D-07 0.000000000000D+00  6 -1 2 25 -1 2 21 2 0.45889738D-01 0.42853487D+00 0.42989151D+06 0.42989151D+06 0.42989151D+06 0.10731786D+01  1  2  6  4  6  5        2 0.309417305115D-03 0.100000000000D+01
  </mgrwgt>
  </event>
  <event>
  5     66 0.22518659E-05 0.14045280E+03 0.75467711E-02 0.93823802E-01
       -1 -1    0    0    0  501 0.00000000E+00 0.00000000E+00 0.10389759E+04 0.10389760E+04 0.32000000E+00 0.0000E+00 0.9000E+01
        2 -1    0    0  502    0 -.00000000E+00 -.00000000E+00 -.30049316E+04 0.30049317E+04 0.32000000E+00 0.0000E+00 0.9000E+01
       25  1    1    2    0    0 -.25246370E+03 -.45526593E+03 -.76063324E+03 0.93015747E+03 0.12500000E+03 0.0000E+00 0.9000E+01
       -1  1    1    2    0  501 0.10370242E+02 0.14007125E+03 0.93061337E+03 0.94115293E+03 0.32000000E+00 0.0000E+00 0.9000E+01
        2  1    1    2  502    0 0.24209346E+03 0.31519468E+03 -.21359358E+04 0.21725972E+04 0.32000000E+00 0.0000E+00 0.9000E+01
#aMCatNLO 1  0  0  5  2 0.58293719D+01 0.00000000D+00  -5  6  0 0.00000000D+00 0.00000000D+00 0.00000000D+00 0.00000000D+00 0.00000000D+00
  <mgrwgt>
 0.6260078801D-02    9    2    0
 0.176693288870869D+04 0.000000000000000D+00 0.000000000000000D+00 0.176693288870869D+04
 0.176693288870869D+04 -.000000000000000D+00 -.000000000000000D+00 -.176693288870869D+04
 0.641254667852833D+03 -.252478572107454D+03 -.455285303561753D+03 -.352919837966516D+03
 0.159468630649585D+04 0.103701086903390D+02 0.140069447448627D+03 0.158848903894945D+04
 0.129792480306871D+04 0.242108463417115D+03 0.315215856113125D+03 -.123556920098294D+04
 0.000000000000000D+00 0.000000000000000D+00 0.000000000000000D+00 0.000000000000000D+00
 0.176693288870869D+04 0.000000000000000D+00 0.000000000000000D+00 0.176693288870869D+04
 0.176693288870869D+04 -.000000000000000D+00 -.000000000000000D+00 -.176693288870869D+04
 0.641267346482821D+03 -.252470067246500D+03 -.455274230561707D+03 -.352963241423398D+03
 0.159458135056569D+04 0.103912578617869D+02 0.140096982851934D+03 0.158838110689083D+04
 0.122632663239471D+04 0.231777117376571D+03 0.292886868427256D+03 -.116806406480297D+04
 0.716904479741644D+02 0.103016920081420D+02 0.222903792825175D+02 -.673538006644560D+02
0.111619979760D-02 0.000000000000D+00 0.000000000000D+00 0.787435885862D-04 0.000000000000D+00  6 -1 2 25 -1 2 21 0 0.15984246D+00 0.46229718D+00 0.28800317D+06 0.28800317D+06 0.28800317D+06 0.10858656D+01  1  2  2  4  6  5        2 0.837078277380D-04 0.100000000000D+01
0.237277568441D-03 0.000000000000D+00 -.428650112493D-05 0.787435885862D-04 0.000000000000D+00  6 -1 2 25 -1 2 21 2 0.15984246D+00 0.46229718D+00 0.28800317D+06 0.28800317D+06 0.28800317D+06 0.10858656D+01  1  2  3  4  6  5        2 0.209813278014D-04 0.100000000000D+01
-.718376864039D-03 0.000000000000D+00 0.000000000000D+00 0.787435885862D-04 0.000000000000D+00  6 -1 2 25 -1 2 21 2 0.15984246D+00 0.46229718D+00 0.28800317D+06 0.28800317D+06 0.28800317D+06 0.10858656D+01  1  2 15  4  6  5        2 -.635226522608D-04 0.100000000000D+01
0.481575770393D-08 0.000000000000D+00 0.000000000000D+00 0.787435885862D-04 0.000000000000D+00  6 -1 2 25 -1 2 21 2 0.15984246D+00 0.46229718D+00 0.28833006D+06 0.28833006D+06 0.28833006D+06 0.10858290D+01  1  2 12  4  6  5        2 0.425753380871D-09 0.100000000000D+01
0.288349775992D+00 0.000000000000D+00 0.000000000000D+00 0.787435885862D-04 0.000000000000D+00  6 -1 2 25 -1 2 21 2 0.15984246D+00 0.46229718D+00 0.28833006D+06 0.28833006D+06 0.28833006D+06 0.10858290D+01  1  2 12  4  6  5        2 0.254925391910D-01 0.100000000000D+01
-.528278683477D+00 0.000000000000D+00 0.000000000000D+00 0.787435885862D-04 0.000000000000D+00  6 -1 2 25 -1 2 21 2 0.15984246D+00 0.46229718D+00 0.28800317D+06 0.28800317D+06 0.28800317D+06 0.10858656D+01  1  2  4  4  6  5        2 -.467131735265D-01 0.100000000000D+01
-.645058341046D+00 0.000000000000D+00 0.000000000000D+00 0.787435885862D-04 0.000000000000D+00  6 -1 2 25 -1 2 21 2 0.15984246D+00 0.46229718D+00 0.28800317D+06 0.28800317D+06 0.28800317D+06 0.10858656D+01  1  2  5  4  6  5        2 -.570394436922D-01 0.100000000000D+01
0.681670333496D+00 0.000000000000D+00 -.000000000000D+00 0.787435885862D-04 0.000000000000D+00  6 -1 2 25 -1 2 21 2 0.15984246D+00 0.46229718D+00 0.28800317D+06 0.28800317D+06 0.28800317D+06 0.10858656D+01  1  2  6  4  6  5        2 0.602768681993D-01 0.100000000000D+01
0.273753678221D+00 0.000000000000D+00 0.000000000000D+00 0.787435885862D-04 0.102890725039D-04  6 -1 2 25 -1 2 21 2 0.15984246D+00 0.46229718D+00 0.28833006D+06 0.28833006D+06 0.28833006D+06 0.10858290D+01  1  2 11  4  6  5        2 0.242021217000D-01 0.100000000000D+01
  </mgrwgt>
  </event>
  <event>
  5     66 0.22518659E-05 0.63477659E+02 0.75467711E-02 0.91999214E-01
       -1 -1    0    0    0  501 0.00000000E+00 0.00000000E+00 0.22956362E+04 0.22956362E+04 0.32000000E+00 0.0000E+00 0.9000E+01
        2 -1    0    0  502    0 0.00000000E+00 0.00000000E+00 -.35397172E+03 0.35397187E+03 0.32000000E+00 0.0000E+00 0.9000E+01
       25  1    1    2    0    0 0.32019476E+03 -.53318944E+03 0.91847140E+03 0.11162573E+04 0.12500000E+03 0.0000E+00 0.9000E+01
       -1  1    1    2    0  501 -.32505135E+03 0.46990774E+03 0.12088836E+04 0.13371131E+04 0.32000000E+00 0.0000E+00 0.9000E+01
        2  1    1    2  502    0 0.48565909E+01 0.63281697E+02 -.18569054E+03 0.19623771E+03 0.32000000E+00 0.0000E+00 0.9000E+01
#aMCatNLO 1  0  0  2  1 0.34920421D+03 0.00000000D+00  -5  6  0 0.00000000D+00 0.00000000D+00 0.00000000D+00 0.00000000D+00 0.00000000D+00
  <mgrwgt>
 0.1425613545D-03    5    2    0
 0.901438034391272D+03 0.000000000000000D+00 0.000000000000000D+00 0.901438034391272D+03
 0.901438034391272D+03 0.000000000000000D+00 0.000000000000000D+00 -.901438034391272D+03
 0.651317928331027D+03 0.320161654693276D+03 -.533151846937447D+03 0.147768964050892D+03
 0.663084024202786D+03 -.325018510076717D+03 0.469860266891457D+03 0.336563100855041D+03
 0.488474116248730D+03 0.485685538344080D+01 0.632915800459898D+02 -.484332064905932D+03
 0.000000000000000D+00 0.000000000000000D+00 -.000000000000000D+00 -.000000000000000D+00
 0.147672478443626D+04 0.000000000000000D+00 0.000000000000000D+00 0.147672478443626D+04
 0.155821041590298D+04 0.000000000000000D+00 0.000000000000000D+00 -.155821041590298D+04
 0.412574180680450D+03 0.130920094086605D+03 -.340024582628705D+03 0.147768964050892D+03
 0.106063705646272D+04 -.631628235435851D+03 0.782765620658534D+03 0.336563100855041D+03
 0.578653639596092D+03 -.184960251231259D+03 0.257006208069436D+03 -.484332064905932D+03
 0.983070323599979D+03 0.685668392580505D+03 -.699747246099264D+03 -.814856314667149D+02
0.213723534002D-02 0.000000000000D+00 0.000000000000D+00 0.131396864871D-05 0.000000000000D+00  6 -1 2 25 -1 2 21 0 0.35317481D+00 0.54457201D-01 0.40267320D+06 0.40267320D+06 0.40267320D+06 0.10752192D+01  1  2  2  2  6  2        2 0.165180848370D-03 0.100000000000D+01
0.740457699460D-03 0.000000000000D+00 -.820754645267D-05 0.131396864871D-05 0.000000000000D+00  6 -1 2 25 -1 2 21 2 0.35317481D+00 0.54457201D-01 0.40267320D+06 0.40267320D+06 0.40267320D+06 0.10752192D+01  1  2  3  2  6  2        2 0.661609268147D-04 0.100000000000D+01
-.150188402660D-02 0.000000000000D+00 0.000000000000D+00 0.131396864871D-05 0.000000000000D+00  6 -1 2 25 -1 2 21 2 0.35317481D+00 0.54457201D-01 0.40267320D+06 0.40267320D+06 0.40267320D+06 0.10752192D+01  1  2 15  2  6  2        2 -.134195429719D-03 0.100000000000D+01
0.199263355734D-02 0.000000000000D+00 -.165764167527D-02 0.131396864871D-05 0.000000000000D+00  6 -1 2 25 -1 2 21 2 0.35317481D+00 0.17588649D+00 0.40267320D+06 0.40267320D+06 0.40267320D+06 0.10752192D+01  1  2  5  2  6  2        2 0.415030620446D-04 0.100000000000D+01
0.339409677666D-03 0.000000000000D+00 -.224195486553D-03 0.131396864871D-05 0.000000000000D+00  6 -1 21 25 -1 2 -2 2 0.35317481D+00 0.17588649D+00 0.40267320D+06 0.40267320D+06 0.40267320D+06 0.10752192D+01  1  2  5  6  6  2        2 0.391194703058D-05 0.100000000000D+01
  </mgrwgt>
  </event>
  <event>
  5     66 0.22518659E-05 0.37828888E+02 0.75467711E-02 0.93669138E-01
       -1 -1    0    0    0  501 0.00000000E+00 0.00000000E+00 0.24844769E+03 0.24844790E+03 0.32000000E+00 0.0000E+00 0.9000E+01
        2 -1    0    0  502    0 -.00000000E+00 -.00000000E+00 -.31033043E+04 0.31033043E+04 0.32000000E+00 0.0000E+00 0.9000E+01
       25  1    1    2    0    0 0.35182324E+03 -.39226994E+03 -.17423915E+04 0.18246118E+04 0.12500000E+03 0.0000E+00 0.9000E+01
       -1  1    1    2    0  501 -.32510478E+03 0.36549112E+03 -.82004517E+02 0.49598561E+03 0.32000000E+00 0.0000E+00 0.9000E+01
        2  1    1    2  502    0 -.26718461E+02 0.26778820E+02 -.10304606E+04 0.10311548E+04 0.32000000E+00 0.0000E+00 0.9000E+01
#aMCatNLO 1  0  0  5  4 0.23502414D+02 0.00000000D+00  -5  6  0 0.00000000D+00 0.00000000D+00 0.00000000D+00 0.00000000D+00 0.00000000D+00
  <mgrwgt>
 0.9829580562D-03    7    2    0
 0.878071276482493D+03 0.000000000000000D+00 0.000000000000000D+00 0.878071276482493D+03
 0.878071276482493D+03 -.000000000000000D+00 -.000000000000000D+00 -.878071276482493D+03
 0.649927642298910D+03 0.351823306005326D+03 -.392269992995939D+03 -.359340443271653D+03
 0.813321313790174D+03 -.325104450455977D+03 0.365490756053319D+03 0.649780857673312D+03
 0.292893596875902D+03 -.267188555493495D+02 0.267792369426204D+02 -.290440414401659D+03
 0.000000000000000D+00 -.000000000000000D+00 0.000000000000000D+00 0.000000000000000D+00
 0.878071276482493D+03 0.000000000000000D+00 0.000000000000000D+00 0.878071276482493D+03
 0.878071276482493D+03 -.000000000000000D+00 -.000000000000000D+00 -.878071276482493D+03
 0.650552272633109D+03 0.351695132993192D+03 -.392141530328245D+03 -.360733714876814D+03
 0.812067213669196D+03 -.325264645889263D+03 0.365651313508976D+03 0.648039494614444D+03
 0.143085669366462D+03 0.988113049370671D+01 0.185639271049614D+02 -.141531807904289D+03
 0.150437397296218D+03 -.363116175976362D+02 0.792628971430767D+01 -.145773971833342D+03
0.123010111313D-03 0.000000000000D+00 0.000000000000D+00 0.700940404393D-05 0.000000000000D+00  6 -1 2 25 -1 2 21 0 0.38222739D-01 0.47743145D+00 0.28544520D+06 0.28544520D+06 0.28544520D+06 0.10861534D+01  1  2  2  4  6  5        2 0.171054711493D-03 0.100000000000D+01
0.427043195042D-04 0.000000000000D+00 -.472391216748D-06 0.700940404393D-05 0.000000000000D+00  6 -1 2 25 -1 2 21 2 0.38222739D-01 0.47743145D+00 0.28544520D+06 0.28544520D+06 0.28544520D+06 0.10861534D+01  1  2  3  4  6  5        2 0.700564945100D-04 0.100000000000D+01
-.937471329333D-04 0.000000000000D+00 0.000000000000D+00 0.700940404393D-05 0.000000000000D+00  6 -1 2 25 -1 2 21 2 0.38222739D-01 0.47743145D+00 0.28544520D+06 0.28544520D+06 0.28544520D+06 0.10861534D+01  1  2 15  4  6  5        2 -.153792299700D-03 0.100000000000D+01
0.550173162320D-08 0.000000000000D+00 0.000000000000D+00 0.700940404393D-05 0.000000000000D+00  6 -1 2 25 -1 2 21 2 0.38222739D-01 0.47743145D+00 0.29645803D+06 0.29645803D+06 0.29645803D+06 0.10849337D+01  1  2 12  4  6  5        2 0.898078172528D-08 0.100000000000D+01
-.136695941172D-03 0.000000000000D+00 0.000000000000D+00 0.700940404393D-05 0.000000000000D+00  6 -1 2 25 -1 2 21 2 0.38222739D-01 0.47743145D+00 0.28544520D+06 0.28544520D+06 0.28544520D+06 0.10861534D+01  1  2  4  4  6  5        2 -.224249878312D-03 0.100000000000D+01
-.715827167331D-03 0.000000000000D+00 0.000000000000D+00 0.700940404393D-05 0.000000000000D+00  6 -1 2 25 -1 2 21 2 0.38222739D-01 0.47743145D+00 0.28544520D+06 0.28544520D+06 0.28544520D+06 0.10861534D+01  1  2  5  4  6  5        2 -.117431544632D-02 0.100000000000D+01
0.139847216246D-02 0.000000000000D+00 -.000000000000D+00 0.700940404393D-05 0.000000000000D+00  6 -1 2 25 -1 2 21 2 0.38222739D-01 0.47743145D+00 0.28544520D+06 0.28544520D+06 0.28544520D+06 0.10861534D+01  1  2  6  4  6  5        2 0.229419549379D-02 0.100000000000D+01
  </mgrwgt>
  </event>
  <event>
  5     66 0.22518659E-05 0.35246442E+02 0.75467711E-02 0.95428278E-01
       -1 -1    0    0    0  501 0.00000000E+00 0.00000000E+00 0.40788371E+03 0.40788383E+03 0.32000000E+00 0.0000E+00 0.9000E+01
        2 -1    0    0  502    0 -.00000000E+00 -.00000000E+00 -.11028687E+04 0.11028688E+04 0.32000000E+00 0.0000E+00 0.9000E+01
       25  1    1    2    0    0 0.44243244E+03 -.85720927E+02 -.51644610E+03 0.69673246E+03 0.12500000E+03 0.0000E+00 0.9000E+01
       -1  1    1    2    0  501 -.40957560E+03 0.98476171E+02 0.17686626E+03 0.45687143E+03 0.32000000E+00 0.0000E+00 0.9000E+01
        2  1    1    2  502    0 -.32856837E+02 -.12755244E+02 -.35540516E+03 0.35714871E+03 0.32000000E+00 0.0000E+00 0.9000E+01
#aMCatNLO 1  0  0  5  2 0.13407959D+02 0.00000000D+00  -5  6  0 0.00000000D+00 0.00000000D+00 0.00000000D+00 0.00000000D+00 0.00000000D+00
  <mgrwgt>
 0.1079135909D-01    8    2    0
 0.670702849432601D+03 0.000000000000000D+00 0.000000000000000D+00 0.670702849432601D+03
 0.670702849432601D+03 -.000000000000000D+00 -.000000000000000D+00 -.670702849432601D+03
 0.517118733264496D+03 0.442432421710743D+03 -.857207099471414D+02 -.220663310041343D+03
 0.606183255075990D+03 -.409574942211428D+03 0.984760125811810D+02 0.435900195449759D+03
 0.218103710524717D+03 -.328574794993149D+02 -.127553026340395D+02 -.215236885408416D+03
 0.000000000000000D+00 -.000000000000000D+00 0.000000000000000D+00 0.000000000000000D+00
 0.670702849432601D+03 0.000000000000000D+00 0.000000000000000D+00 0.670702849432601D+03
 0.670702849432601D+03 -.000000000000000D+00 -.000000000000000D+00 -.670702849432601D+03
 0.517312161058882D+03 0.442336081986326D+03 -.857581091134604D+02 -.221294395034489D+03
 0.605721020040526D+03 -.409687810576560D+03 0.984321969819018D+02 0.435160837600577D+03
 0.103387019596307D+03 -.579429527003199D+01 -.152584773733044D+02 -.102090552117124D+03
 0.114985498169487D+03 -.268539761397339D+02 0.258438950486305D+01 -.111775890448964D+03
0.818764271807D-04 0.000000000000D+00 0.000000000000D+00 0.361746525739D-05 0.000000000000D+00  6 -1 2 25 -1 2 21 0 0.62751353D-01 0.16967212D+00 0.21352169D+06 0.21352169D+06 0.21352169D+06 0.10956499D+01  1  2  2  4  6  5        2 0.656114751179D-03 0.100000000000D+01
0.264356322506D-04 0.000000000000D+00 -.314427038932D-06 0.361746525739D-05 0.000000000000D+00  6 -1 2 25 -1 2 21 2 0.62751353D-01 0.16967212D+00 0.21352169D+06 0.21352169D+06 0.21352169D+06 0.10956499D+01  1  2  3  4  6  5        2 0.254304612363D-03 0.100000000000D+01
-.592465793860D-04 0.000000000000D+00 0.000000000000D+00 0.361746525739D-05 0.000000000000D+00  6 -1 2 25 -1 2 21 2 0.62751353D-01 0.16967212D+00 0.21352169D+06 0.21352169D+06 0.21352169D+06 0.10956499D+01  1  2 15  4  6  5        2 -.569938265965D-03 0.100000000000D+01
0.386456805942D-07 0.000000000000D+00 0.000000000000D+00 0.361746525739D-05 0.000000000000D+00  6 -1 2 25 -1 2 21 2 0.62751353D-01 0.16967212D+00 0.21726626D+06 0.21726626D+06 0.21726626D+06 0.10950740D+01  1  2 12  4  6  5        2 0.371124158057D-06 0.100000000000D+01
0.630433243597D-03 0.000000000000D+00 0.000000000000D+00 0.361746525739D-05 0.000000000000D+00  6 -1 2 25 -1 2 21 2 0.62751353D-01 0.16967212D+00 0.21726626D+06 0.21726626D+06 0.21726626D+06 0.10950740D+01  1  2 12  4  6  5        2 0.605420846893D-02 0.100000000000D+01
-.324803522822D-03 0.000000000000D+00 0.000000000000D+00 0.361746525739D-05 0.000000000000D+00  6 -1 2 25 -1 2 21 2 0.62751353D-01 0.16967212D+00 0.21352169D+06 0.21352169D+06 0.21352169D+06 0.10956499D+01  1  2  4  4  6  5        2 -.312453408273D-02 0.100000000000D+01
-.777648921008D-03 0.000000000000D+00 0.000000000000D+00 0.361746525739D-05 0.000000000000D+00  6 -1 2 25 -1 2 21 2 0.62751353D-01 0.16967212D+00 0.21352169D+06 0.21352169D+06 0.21352169D+06 0.10956499D+01  1  2  5  4  6  5        2 -.748080112240D-02 0.100000000000D+01
0.155945920732D-02 0.000000000000D+00 -.000000000000D+00 0.361746525739D-05 0.000000000000D+00  6 -1 2 25 -1 2 21 2 0.62751353D-01 0.16967212D+00 0.21352169D+06 0.21352169D+06 0.21352169D+06 0.10956499D+01  1  2  6  4  6  5        2 0.150016336078D-01 0.100000000000D+01
  </mgrwgt>
  </event>
  <event>
  5     66 -.22518659E-05 0.47137519E+02 0.75467711E-02 0.94267607E-01
       -1 -1    0    0    0  501 0.00000000E+00 0.00000000E+00 0.37648995E+03 0.37649009E+03 0.32000000E+00 0.0000E+00 0.9000E+01
        2 -1    0    0  502    0 -.00000000E+00 -.00000000E+00 -.32898190E+04 0.32898190E+04 0.32000000E+00 0.0000E+00 0.9000E+01
       25  1    1    2    0    0 -.23352590E+03 -.40770101E+03 -.47226609E+03 0.67780139E+03 0.12500000E+03 0.0000E+00 0.9000E+01
       -1  1    1    2    0  501 -.46904369E+02 -.47421673E+01 0.24858110E+03 0.25301220E+03 0.32000000E+00 0.0000E+00 0.9000E+01
        2  1    1    2  502    0 0.28043027E+03 0.41244318E+03 -.26896441E+04 0.27354955E+04 0.32000000E+00 0.0000E+00 0.9000E+01
#aMCatNLO 1  0  0  5  2 0.13407959D+02 0.00000000D+00  -5  6  0 0.00000000D+00 0.00000000D+00 0.00000000D+00 0.00000000D+00 0.00000000D+00
  <mgrwgt>
 -.3569405104D-03    1    2    0
 0.111291692454958D+04 0.000000000000000D+00 0.000000000000000D+00 0.111291692454958D+04
 0.111291692454958D+04 -.000000000000000D+00 -.000000000000000D+00 -.111291692454958D+04
 0.498392317316393D+03 -.233565876467006D+03 -.407754648690725D+03 0.109329912564251D+03
 0.742018699932170D+03 -.468984349443433D+02 -.474156739192728D+01 0.740519956103457D+03
 0.985422831850606D+03 0.280464311411350D+03 0.412496216082652D+03 -.849849868667707D+03
 0.000000000000000D+00 0.000000000000000D+00 0.000000000000000D+00 -.000000000000000D+00
 0.111291692454958D+04 0.000000000000000D+00 0.000000000000000D+00 0.111291692454958D+04
 0.111291692454958D+04 -.000000000000000D+00 -.000000000000000D+00 -.111291692454958D+04
 0.494895058804450D+03 -.232062441933599D+03 -.405543454499786D+03 0.104774275398376D+03
 0.735104717488510D+03 -.446626687308148D+02 -.145328768715844D+01 0.733745241654487D+03
 0.954926001684809D+03 0.306457826991415D+03 0.399296386585530D+03 -.811498407040442D+03
 0.409080711214005D+02 -.297327163270018D+02 0.770035560141403D+01 -.270211100124213D+02
-.605169091538D-03 0.000000000000D+00 0.000000000000D+00 0.386800568435D-04 0.000000000000D+00  6 -1 2 25 -1 2 21 2 0.57921543D-01 0.50612601D+00 0.26636043D+06 0.26636043D+06 0.26636043D+06 0.10883941D+01  1  2 14  4  6  5        2 -.356940510435D-03 0.100000000000D+01
  </mgrwgt>
  </event>
  <event>
  5     66 -.22518659E-05 0.27347268E+02 0.75467711E-02 0.89718388E-01
       -1 -1    0    0    0  501 0.00000000E+00 0.00000000E+00 0.65860739E+03 0.65860747E+03 0.32000000E+00 0.0000E+00 0.9000E+01
        2 -1    0    0  502    0 -.00000000E+00 -.00000000E+00 -.33497345E+04 0.33497345E+04 0.32000000E+00 0.0000E+00 0.9000E+01
       25  1    1    2    0    0 -.69583876E+03 0.36200984E+03 -.11722386E+04 0.14159841E+04 0.12500000E+03 0.0000E+00 0.9000E+01
       -1  1    1    2    0  501 0.22299578E+02 -.15834136E+02 0.46657376E+03 0.46737476E+03 0.32000000E+00 0.0000E+00 0.9000E+01
        2  1    1    2  502    0 0.67353918E+03 -.34617571E+03 -.19854623E+04 0.21249831E+04 0.32000000E+00 0.0000E+00 0.9000E+01
#aMCatNLO 1  0  0  4  1 0.34905374D+02 0.00000000D+00  -5  6  0 0.00000000D+00 0.00000000D+00 0.00000000D+00 0.00000000D+00 0.00000000D+00
  <mgrwgt>
 -.7184193497D-03    1    2    0
 0.148531480901722D+04 0.000000000000000D+00 0.000000000000000D+00 0.148531480901722D+04
 0.148531480901722D+04 -.000000000000000D+00 -.000000000000000D+00 -.148531480901722D+04
 0.848724542539758D+03 -.695904021135216D+03 0.362043321453347D+03 -.298915666816221D+03
 0.105323134623309D+04 0.222978192858136D+02 -.158328868783135D+02 0.105287624896574D+04
 0.106867372926158D+04 0.673606201849403D+03 -.346210434575034D+03 -.753960582149520D+03
 0.000000000000000D+00 0.000000000000000D+00 0.000000000000000D+00 0.000000000000000D+00
 0.148531480901722D+04 0.000000000000000D+00 0.000000000000000D+00 0.148531480901722D+04
 0.148531480901722D+04 -.000000000000000D+00 -.000000000000000D+00 -.148531480901722D+04
 0.819581165536783D+03 -.694030811166610D+03 0.360713221807632D+03 -.210464941658243D+03
 0.947364326540910D+03 -.254634887733041D+02 -.202769355839788D+03 0.925059655521805D+03
 0.996600326325252D+03 0.675925136520729D+03 -.347857027448475D+03 -.644463271805106D+03
 0.207083799631488D+03 0.435691634191851D+02 0.189913161480631D+03 -.701314420584551D+02
-.475730166670D-02 0.000000000000D+00 0.000000000000D+00 0.161785472428D-04 0.000000000000D+00  6 -1 2 25 -1 2 21 2 0.10132422D+00 0.51534377D+00 0.62335759D+06 0.62335759D+06 0.62335759D+06 0.10618072D+01  1  2 14  3  6  4       -1 -.718419349657D-03 0.100000000000D+01
  </mgrwgt>
  </event>
</LesHouchesEvents>
