<event>
 5    0  0.1911311E+001  0.3498228E+03  0.7546771E-02  0.1062688E+00
         21   -1    0    0  502  501  0.00000000000E+00  0.00000000000E+00  0.82700602946E+03  0.82700602946E+03  0.00000000000E+00 0. -1.
         21   -1    0    0  504  502 -0.00000000000E+00 -0.00000000000E+00 -0.20678029798E+03  0.20678029798E+03  0.00000000000E+00 0. -1.
         25    1    1    2    0    0 -0.21714671902E+03 -0.22127888299E+03  0.55775501807E+03  0.65025587411E+03  0.12500000000E+03 0.  0.
         21    1    1    2  503  501 -0.96729220403E+01 -0.20555275493E+02  0.46305936169E+02  0.51578333589E+02  0.00000000000E+00 0. -1.
         21    1    1    2  504  503  0.22681964106E+03  0.24183415848E+03  0.16164777238E+02  0.33195211974E+03  0.00000000000E+00 0. -1.
<mgrwt>
<rscale>  4 0.34982285E+03</rscale>
<asrwt>0</asrwt>
<pdfrwt beam="1">  1       21 0.12723170E+00 0.34982285E+03</pdfrwt>
<pdfrwt beam="2">  1       21 0.31812354E-01 0.34982285E+03</pdfrwt>
<totfact> 0.39295630E+03</totfact>
</mgrwt>
</event>
<event>
 5    0  0.1911311E+001  0.3618081E+03  0.7546771E-02  0.1057870E+00
         21   -1    0    0  504  501  0.00000000000E+00  0.00000000000E+00  0.13300030682E+04  0.13300030682E+04  0.00000000000E+00 0. -1.
         21   -1    0    0  503  502 -0.00000000000E+00 -0.00000000000E+00 -0.29675914112E+03  0.29675914112E+03  0.00000000000E+00 0.  1.
         25    1    1    2    0    0  0.31116607010E+03 -0.18273174486E+03 -0.77749223797E+02  0.38972446108E+03  0.12500000000E+03 0.  0.
         21    1    1    2  503  501 -0.17607723616E+02  0.16582743854E+02 -0.34937099932E+02  0.42492590840E+02  0.00000000000E+00 0. -1.
         21    1    1    2  504  502 -0.29355834649E+03  0.16614900101E+03  0.11459302508E+04  0.11945451574E+04  0.00000000000E+00 0. -1.
<mgrwt>
<rscale>  4 0.36180805E+03</rscale>
<asrwt>0</asrwt>
<pdfrwt beam="1">  1       21 0.20461585E+00 0.36180805E+03</pdfrwt>
<pdfrwt beam="2">  1       21 0.45655253E-01 0.36180805E+03</pdfrwt>
<totfact> 0.49805080E+02</totfact>
</mgrwt>
</event>
<event>
 5    0  0.1911311E+001  0.4299400E+03  0.7546771E-02  0.1033879E+00
         21   -1    0    0  504  501  0.00000000000E+00  0.00000000000E+00  0.85203734490E+03  0.85203734490E+03  0.00000000000E+00 0.  1.
         21   -1    0    0  501  502 -0.00000000000E+00 -0.00000000000E+00 -0.33936432125E+03  0.33936432125E+03  0.00000000000E+00 0.  1.
         25    1    1    2    0    0  0.36768694892E+03 -0.26769667366E+03  0.44686770427E+02  0.47379015286E+03  0.12500000000E+03 0.  0.
         21    1    1    2  503  502 -0.64282505098E+02  0.65852974294E+02  0.30469337415E+03  0.31828745959E+03  0.00000000000E+00 0.  1.
         21    1    1    2  504  503 -0.30340444382E+03  0.20184369936E+03  0.16329287907E+03  0.39932405370E+03  0.00000000000E+00 0.  1.
<mgrwt>
<rscale>  4 0.42993998E+03</rscale>
<asrwt>0</asrwt>
<pdfrwt beam="1">  1       21 0.13108267E+00 0.42993998E+03</pdfrwt>
<pdfrwt beam="2">  1       21 0.52209896E-01 0.42993998E+03</pdfrwt>
<totfact> 0.12648784E+03</totfact>
</mgrwt>
</event>
<event>
 5    0  0.1911311E+001  0.2429342E+03  0.7546771E-02  0.1117853E+00
         21   -1    0    0  504  501  0.00000000000E+00  0.00000000000E+00  0.24890465761E+03  0.24890465761E+03  0.00000000000E+00 0. -1.
         21   -1    0    0  503  502 -0.00000000000E+00 -0.00000000000E+00 -0.66168137979E+03  0.66168137979E+03  0.00000000000E+00 0. -1.
         25    1    1    2    0    0 -0.23019867687E+03  0.53933457225E+02  0.10522601920E+03  0.28739826680E+03  0.12500000000E+03 0.  0.
         21    1    1    2  503  501  0.19804988775E+03 -0.55336502141E+02 -0.54416011602E+03  0.58171824655E+03  0.00000000000E+00 0. -1.
         21    1    1    2  504  502  0.32148789119E+02  0.14030449153E+01  0.26157374643E+02  0.41469524052E+02  0.00000000000E+00 0. -1.
<mgrwt>
<rscale>  4 0.24293416E+03</rscale>
<asrwt>0</asrwt>
<pdfrwt beam="1">  1       21 0.38293025E-01 0.24293416E+03</pdfrwt>
<pdfrwt beam="2">  1       21 0.10179713E+00 0.24293416E+03</pdfrwt>
<totfact> 0.49891320E+03</totfact>
</mgrwt>
</event>
<event>
 5    0  0.1911311E+001  0.3221631E+03  0.7546771E-02  0.1074658E+00
         21   -1    0    0  502  501  0.00000000000E+00  0.00000000000E+00  0.52504093571E+03  0.52504093571E+03  0.00000000000E+00 0. -1.
         21   -1    0    0  504  502 -0.00000000000E+00 -0.00000000000E+00 -0.32418812901E+03  0.32418812901E+03  0.00000000000E+00 0. -1.
         25    1    1    2    0    0  0.12827244290E+03 -0.27199595591E+03 -0.54545353538E+02  0.33020571653E+03  0.12500000000E+03 0.  0.
         21    1    1    2  503  501 -0.78421049604E+01  0.30233583083E+03  0.25379951529E+03  0.39481976543E+03  0.00000000000E+00 0. -1.
         21    1    1    2  504  503 -0.12043033794E+03 -0.30339874919E+02  0.15986449480E+01  0.12420358276E+03  0.00000000000E+00 0.  1.
<mgrwt>
<rscale>  4 0.32216311E+03</rscale>
<asrwt>0</asrwt>
<pdfrwt beam="1">  1       21 0.80775528E-01 0.32216311E+03</pdfrwt>
<pdfrwt beam="2">  1       21 0.49875097E-01 0.32216311E+03</pdfrwt>
<totfact> 0.47602518E+03</totfact>
</mgrwt>
</event>
<event>
 5    0  0.1911311E+001  0.2533561E+03  0.7546771E-02  0.1111202E+00
         21   -1    0    0  504  501  0.00000000000E+00  0.00000000000E+00  0.10348004231E+04  0.10348004231E+04  0.00000000000E+00 0.  1.
         21   -1    0    0  503  502 -0.00000000000E+00 -0.00000000000E+00 -0.45655447354E+03  0.45655447354E+03  0.00000000000E+00 0. -1.
         25    1    1    2    0    0  0.24687757388E+03 -0.60933434499E+02  0.79121604675E+03  0.84042206811E+03  0.12500000000E+03 0.  0.
         21    1    1    2  503  501 -0.20296117329E+03  0.83055198037E+02 -0.40074624139E+03  0.45682486116E+03  0.00000000000E+00 0. -1.
         21    1    1    2  504  502 -0.43916400596E+02 -0.22121763539E+02  0.18777614418E+03  0.19410796735E+03  0.00000000000E+00 0.  1.
<mgrwt>
<rscale>  4 0.25335609E+03</rscale>
<asrwt>0</asrwt>
<pdfrwt beam="1">  1       21 0.15920006E+00 0.25335609E+03</pdfrwt>
<pdfrwt beam="2">  1       21 0.70239150E-01 0.25335609E+03</pdfrwt>
<totfact> 0.44074969E+02</totfact>
</mgrwt>
</event>
