<event>
 5    0  0.3312726E+000  0.2751582E+03  0.7546771E-02  0.1098363E+00
         21   -1    0    0  502  501  0.00000000000E+00  0.00000000000E+00  0.43189023166E+03  0.43189023166E+03  0.00000000000E+00 0.  1.
         21   -1    0    0  503  502 -0.00000000000E+00 -0.00000000000E+00 -0.28863593976E+03  0.28863593976E+03  0.00000000000E+00 0.  1.
         25    1    1    2    0    0 -0.18019694792E+03  0.16618086705E+03  0.31206153527E+03  0.41604617822E+03  0.12500000000E+03 0.  0.
         21    1    1    2  503  504  0.15999248133E+01 -0.24301375891E+02 -0.89507800655E+01  0.25946735698E+02  0.00000000000E+00 0.  1.
         21    1    1    2  504  501  0.17859702311E+03 -0.14187949116E+03 -0.15985646330E+03  0.27853325750E+03  0.00000000000E+00 0.  1.
<mgrwt>
<rscale>  4 0.27515817E+03</rscale>
<asrwt>0</asrwt>
<pdfrwt beam="1">  1       21 0.66444651E-01 0.27515817E+03</pdfrwt>
<pdfrwt beam="2">  1       21 0.44405529E-01 0.27515817E+03</pdfrwt>
<totfact> 0.96315309E+03</totfact>
</mgrwt>
</event>
<event>
 5    0  0.3475964E+000  0.3141557E+03  0.7546771E-02  0.1078371E+00
         21   -1    0    0  502  501  0.00000000000E+00  0.00000000000E+00  0.87599211237E+03  0.87599211237E+03  0.00000000000E+00 0.  1.
         21   -1    0    0  503  502 -0.00000000000E+00 -0.00000000000E+00 -0.11246341359E+03  0.11246341359E+03  0.00000000000E+00 0.  1.
         25    1    1    2    0    0  0.19737035518E+03 -0.21003265482E+03  0.43015101177E+03  0.53265717504E+03  0.12500000000E+03 0.  0.
         21    1    1    2  503  504  0.31022866531E+01  0.60164655513E+02  0.57204941750E+02  0.83077164829E+02  0.00000000000E+00 0.  1.
         21    1    1    2  504  501 -0.20047264183E+03  0.14986799931E+03  0.27617274526E+03  0.37272118609E+03  0.00000000000E+00 0.  1.
<mgrwt>
<rscale>  4 0.31415565E+03</rscale>
<asrwt>0</asrwt>
<pdfrwt beam="1">  1       21 0.13476801E+00 0.31415565E+03</pdfrwt>
<pdfrwt beam="2">  1       21 0.17302064E-01 0.31415565E+03</pdfrwt>
<totfact> 0.11110434E+04</totfact>
</mgrwt>
</event>
<event>
 5    0  0.1856407E+000  0.2375016E+03  0.7546771E-02  0.1121468E+00
         21   -1    0    0  502  501  0.00000000000E+00  0.00000000000E+00  0.29851957337E+03  0.29851957337E+03  0.00000000000E+00 0.  1.
         21   -1    0    0  503  502 -0.00000000000E+00 -0.00000000000E+00 -0.17978457186E+03  0.17978457186E+03  0.00000000000E+00 0.  1.
         25    1    1    2    0    0  0.20193891125E+03 -0.16349880903E+01  0.12970318568E+02  0.23785547340E+03  0.12500000000E+03 0.  0.
         21    1    1    2  503  504 -0.14780171011E+03  0.22037678530E+02  0.10491650353E+03  0.18258827317E+03  0.00000000000E+00 0.  1.
         21    1    1    2  504  501 -0.54137201138E+02 -0.20402690440E+02  0.84817941527E+00  0.57860398656E+02  0.00000000000E+00 0.  1.
<mgrwt>
<rscale>  4 0.23750157E+03</rscale>
<asrwt>0</asrwt>
<pdfrwt beam="1">  1       21 0.45926088E-01 0.23750157E+03</pdfrwt>
<pdfrwt beam="2">  1       21 0.27659165E-01 0.23750157E+03</pdfrwt>
<totfact> 0.55571658E+04</totfact>
</mgrwt>
</event>
<event>
 5    0  0.1856407E+000  0.3218903E+03  0.7546771E-02  0.1074783E+00
         21   -1    0    0  502  501  0.00000000000E+00  0.00000000000E+00  0.13211516212E+03  0.13211516212E+03  0.00000000000E+00 0.  1.
         21   -1    0    0  503  502 -0.00000000000E+00 -0.00000000000E+00 -0.15403224186E+04  0.15403224186E+04  0.00000000000E+00 0. -1.
         25    1    1    2    0    0 -0.82967657189E+02  0.27972464759E+03 -0.30127014797E+03  0.43762793863E+03  0.12500000000E+03 0.  0.
         21    1    1    2  503  504 -0.85371350939E+01 -0.30131724659E+03 -0.10999792063E+04  0.11405346202E+04  0.00000000000E+00 0. -1.
         21    1    1    2  504  501  0.91504792283E+02  0.21592598996E+02 -0.69579022590E+01  0.94275021856E+02  0.00000000000E+00 0. -1.
<mgrwt>
<rscale>  4 0.32189029E+03</rscale>
<asrwt>0</asrwt>
<pdfrwt beam="1">  1       21 0.20325410E-01 0.32189029E+03</pdfrwt>
<pdfrwt beam="2">  1       21 0.23697268E+00 0.32189029E+03</pdfrwt>
<totfact> 0.15881468E+03</totfact>
</mgrwt>
</event>
<event>
 5    0  0.1856407E+000  0.3664881E+03  0.7546771E-02  0.1056044E+00
         21   -1    0    0  502  501  0.00000000000E+00  0.00000000000E+00  0.87924842702E+03  0.87924842702E+03  0.00000000000E+00 0.  1.
         21   -1    0    0  503  502 -0.00000000000E+00 -0.00000000000E+00 -0.28904410195E+03  0.28904410195E+03  0.00000000000E+00 0.  1.
         25    1    1    2    0    0  0.86506869012E+02 -0.25843333872E+03  0.56173957709E+03  0.63674765914E+03  0.12500000000E+03 0.  0.
         21    1    1    2  503  504 -0.77826391182E+02 -0.10713332688E+03  0.90856250328E+02  0.16059064455E+03  0.00000000000E+00 0.  1.
         21    1    1    2  504  501 -0.86804778307E+01  0.36556666560E+03 -0.62391502351E+02  0.37095422529E+03  0.00000000000E+00 0.  1.
<mgrwt>
<rscale>  4 0.36648810E+03</rscale>
<asrwt>0</asrwt>
<pdfrwt beam="1">  1       21 0.13526899E+00 0.36648810E+03</pdfrwt>
<pdfrwt beam="2">  1       21 0.44468324E-01 0.36648810E+03</pdfrwt>
<totfact> 0.16841958E+03</totfact>
</mgrwt>
</event>
<event>
 5    0  0.2647094E+000  0.3154154E+03  0.7546771E-02  0.1077779E+00
         21   -1    0    0  502  501  0.00000000000E+00  0.00000000000E+00  0.44158558234E+03  0.44158558234E+03  0.00000000000E+00 0.  1.
         21   -1    0    0  503  502 -0.00000000000E+00 -0.00000000000E+00 -0.21695258833E+03  0.21695258833E+03  0.00000000000E+00 0.  1.
         25    1    1    2    0    0 -0.11393332710E+03  0.26623498108E+03  0.11553555038E+03  0.33590970747E+03  0.12500000000E+03 0.  0.
         21    1    1    2  503  504 -0.44564514934E+01 -0.42997356558E+02 -0.82730455689E+01  0.44012224595E+02  0.00000000000E+00 0.  1.
         21    1    1    2  504  501  0.11838977859E+03 -0.22323762452E+03  0.11737048920E+03  0.27861623860E+03  0.00000000000E+00 0.  1.
<mgrwt>
<rscale>  4 0.31541539E+03</rscale>
<asrwt>0</asrwt>
<pdfrwt beam="1">  1       21 0.67936244E-01 0.31541539E+03</pdfrwt>
<pdfrwt beam="2">  1       21 0.33377321E-01 0.31541539E+03</pdfrwt>
<totfact> 0.16084115E+04</totfact>
</mgrwt>
</event>
<event>
 5    0  0.1856407E+000  0.3104302E+03  0.7546771E-02  0.1080140E+00
         21   -1    0    0  502  501  0.00000000000E+00  0.00000000000E+00  0.93312648074E+03  0.93312648074E+03  0.00000000000E+00 0.  1.
         21   -1    0    0  503  502 -0.00000000000E+00 -0.00000000000E+00 -0.38779096553E+03  0.38779096553E+03  0.00000000000E+00 0.  1.
         25    1    1    2    0    0  0.99437771968E+02 -0.26618421426E+03  0.84319167360E+03  0.89852050886E+03  0.12500000000E+03 0.  0.
         21    1    1    2  503  504  0.37526886541E+01  0.12209385726E+03 -0.11567476848E+03  0.16823092676E+03  0.00000000000E+00 0.  1.
         21    1    1    2  504  501 -0.10319046062E+03  0.14409035699E+03 -0.18218138991E+03  0.25416601065E+03  0.00000000000E+00 0.  1.
<mgrwt>
<rscale>  4 0.31043020E+03</rscale>
<asrwt>0</asrwt>
<pdfrwt beam="1">  1       21 0.14355792E+00 0.31043020E+03</pdfrwt>
<pdfrwt beam="2">  1       21 0.59660149E-01 0.31043020E+03</pdfrwt>
<totfact> 0.79666326E+02</totfact>
</mgrwt>
</event>
<event>
 5    0  0.1856407E+000  0.2395722E+03  0.7546771E-02  0.1120078E+00
         21   -1    0    0  502  501  0.00000000000E+00  0.00000000000E+00  0.13881190522E+03  0.13881190522E+03  0.00000000000E+00 0. -1.
         21   -1    0    0  503  502 -0.00000000000E+00 -0.00000000000E+00 -0.51032502278E+03  0.51032502278E+03  0.00000000000E+00 0.  1.
         25    1    1    2    0    0 -0.11824595759E+03  0.16669657209E+03 -0.19869216113E+02  0.24039475739E+03  0.12500000000E+03 0.  0.
         21    1    1    2  503  504  0.90520405195E+02 -0.14700223744E+03 -0.27226139102E+03  0.32238155439E+03  0.00000000000E+00 0.  1.
         21    1    1    2  504  501  0.27725552393E+02 -0.19694334646E+02 -0.79382510423E+02  0.86360616219E+02  0.00000000000E+00 0.  1.
<mgrwt>
<rscale>  4 0.23957223E+03</rscale>
<asrwt>0</asrwt>
<pdfrwt beam="1">  1       21 0.21355678E-01 0.23957223E+03</pdfrwt>
<pdfrwt beam="2">  1       21 0.78511542E-01 0.23957223E+03</pdfrwt>
<totfact> 0.28577748E+04</totfact>
</mgrwt>
</event>
<event>
 5    0  0.1856407E+000  0.2628448E+03  0.7546771E-02  0.1105446E+00
         21   -1    0    0  502  501  0.00000000000E+00  0.00000000000E+00  0.19214455756E+04  0.19214455756E+04  0.00000000000E+00 0.  1.
         21   -1    0    0  503  502 -0.00000000000E+00 -0.00000000000E+00 -0.67893409198E+02  0.67893409198E+02  0.00000000000E+00 0.  1.
         25    1    1    2    0    0  0.86773216281E+02  0.21431941300E+03  0.16729836580E+04  0.16935057490E+04  0.12500000000E+03 0.  0.
         21    1    1    2  503  504 -0.69207924348E+02 -0.17816215362E+03  0.16574864553E+03  0.25299032248E+03  0.00000000000E+00 0.  1.
         21    1    1    2  504  501 -0.17565291932E+02 -0.36157259376E+02  0.14819862834E+02  0.42842913308E+02  0.00000000000E+00 0.  1.
<mgrwt>
<rscale>  4 0.26284482E+03</rscale>
<asrwt>0</asrwt>
<pdfrwt beam="1">  1       21 0.29560697E+00 0.26284482E+03</pdfrwt>
<pdfrwt beam="2">  1       21 0.10445141E-01 0.26284482E+03</pdfrwt>
<totfact> 0.25246874E+03</totfact>
</mgrwt>
</event>
