<event>
 5    0  0.1856407E+000  0.2514637E+03  0.7546771E-02  0.1112383E+00
         21   -1    0    0  502  501  0.00000000000E+00  0.00000000000E+00  0.14416312635E+04  0.14416312635E+04  0.00000000000E+00 0.  1.
         21   -1    0    0  503  502 -0.00000000000E+00 -0.00000000000E+00 -0.61256472416E+02  0.61256472416E+02  0.00000000000E+00 0. -1.
         25    1    1    2    0    0 -0.21802466625E+03  0.86174997251E+01  0.11658199091E+04  0.11926315764E+04  0.12500000000E+03 0.  0.
         21    1    1    2  503  504  0.94412004511E+02  0.92933421428E+01  0.12327786722E+03  0.15555521640E+03  0.00000000000E+00 0. -1.
         21    1    1    2  504  501  0.12361266173E+03 -0.17910841868E+02  0.91277014748E+02  0.15470094317E+03  0.00000000000E+00 0. -1.
<mgrwt>
<rscale>  4 0.25146375E+03</rscale>
<asrwt>0</asrwt>
<pdfrwt beam="1">  1       21 0.22178940E+00 0.25146375E+03</pdfrwt>
<pdfrwt beam="2">  1       21 0.94240738E-02 0.25146375E+03</pdfrwt>
<totfact> 0.84257575E+03</totfact>
</mgrwt>
</event>
<event>
 5    0  0.7078988E+000  0.3058707E+03  0.7546771E-02  0.1082342E+00
         21   -1    0    0  502  501  0.00000000000E+00  0.00000000000E+00  0.25742251720E+04  0.25742251720E+04  0.00000000000E+00 0.  1.
         21   -1    0    0  503  502 -0.00000000000E+00 -0.00000000000E+00 -0.37631304935E+02  0.37631304935E+02  0.00000000000E+00 0.  1.
         25    1    1    2    0    0  0.26054959433E+03  0.10022867744E+03  0.17471033838E+04  0.17736761577E+04  0.12500000000E+03 0.  0.
         21    1    1    2  503  504 -0.21211994484E+02 -0.47362212945E+01  0.94204696045E+02  0.96679394181E+02  0.00000000000E+00 0. -1.
         21    1    1    2  504  501 -0.23933759984E+03 -0.95492456147E+02  0.69528578730E+03  0.74150092509E+03  0.00000000000E+00 0.  1.
<mgrwt>
<rscale>  4 0.30587069E+03</rscale>
<asrwt>0</asrwt>
<pdfrwt beam="1">  1       21 0.39603450E+00 0.30587069E+03</pdfrwt>
<pdfrwt beam="2">  1       21 0.57894336E-02 0.30587069E+03</pdfrwt>
<totfact> 0.16975678E+03</totfact>
</mgrwt>
</event>
<event>
 5    0  0.1856407E+000  0.2608113E+03  0.7546771E-02  0.1106657E+00
         21   -1    0    0  502  501  0.00000000000E+00  0.00000000000E+00  0.16829375407E+03  0.16829375407E+03  0.00000000000E+00 0.  1.
         21   -1    0    0  503  502 -0.00000000000E+00 -0.00000000000E+00 -0.18736302883E+04  0.18736302883E+04  0.00000000000E+00 0. -1.
         25    1    1    2    0    0 -0.11275393069E+02 -0.22862716355E+03  0.53946949401E+02  0.26633210049E+03  0.12500000000E+03 0.  0.
         21    1    1    2  503  504  0.24020518836E+02  0.60774409396E+02 -0.69657140142E+03  0.69963006756E+03  0.00000000000E+00 0.  1.
         21    1    1    2  504  501 -0.12745125767E+02  0.16785275416E+03 -0.10627120822E+04  0.10759618743E+04  0.00000000000E+00 0. -1.
<mgrwt>
<rscale>  4 0.26081126E+03</rscale>
<asrwt>0</asrwt>
<pdfrwt beam="1">  1       21 0.25891347E-01 0.26081126E+03</pdfrwt>
<pdfrwt beam="2">  1       21 0.28825081E+00 0.26081126E+03</pdfrwt>
<totfact> 0.52046179E+02</totfact>
</mgrwt>
</event>
<event>
 5    0  0.1856407E+000  0.3208963E+03  0.7546771E-02  0.1075238E+00
         21   -1    0    0  502  501  0.00000000000E+00  0.00000000000E+00  0.32811120511E+03  0.32811120511E+03  0.00000000000E+00 0.  1.
         21   -1    0    0  503  502 -0.00000000000E+00 -0.00000000000E+00 -0.29818163478E+03  0.29818163478E+03  0.00000000000E+00 0. -1.
         25    1    1    2    0    0 -0.11610038743E+03 -0.27179056736E+03  0.55401689140E+02  0.32564360830E+03  0.12500000000E+03 0.  0.
         21    1    1    2  503  504  0.75177968722E+02  0.22325701766E+03 -0.27217641413E+02  0.23714177809E+03  0.00000000000E+00 0. -1.
         21    1    1    2  504  501  0.40922418709E+02  0.48533549702E+02  0.17455226043E+01  0.63507453490E+02  0.00000000000E+00 0. -1.
<mgrwt>
<rscale>  4 0.32089626E+03</rscale>
<asrwt>0</asrwt>
<pdfrwt beam="1">  1       21 0.50478647E-01 0.32089626E+03</pdfrwt>
<pdfrwt beam="2">  1       21 0.45874098E-01 0.32089626E+03</pdfrwt>
<totfact> 0.15966640E+04</totfact>
</mgrwt>
</event>
<event>
 5    0  0.1856407E+000  0.4136706E+03  0.7546771E-02  0.1039146E+00
         21   -1    0    0  502  501  0.00000000000E+00  0.00000000000E+00  0.10858868862E+03  0.10858868862E+03  0.00000000000E+00 0. -1.
         21   -1    0    0  503  502 -0.00000000000E+00 -0.00000000000E+00 -0.19247462941E+04  0.19247462941E+04  0.00000000000E+00 0. -1.
         25    1    1    2    0    0 -0.26274530022E+03 -0.29404637432E+03 -0.45527510865E+03  0.61514127450E+03  0.12500000000E+03 0.  0.
         21    1    1    2  503  504  0.24009960986E+03  0.27656958771E+03 -0.13049353419E+04  0.13553578147E+04  0.00000000000E+00 0. -1.
         21    1    1    2  504  501  0.22645690360E+02  0.17476786614E+02 -0.55947154982E+02  0.62835893507E+02  0.00000000000E+00 0.  1.
<mgrwt>
<rscale>  4 0.41367060E+03</rscale>
<asrwt>0</asrwt>
<pdfrwt beam="1">  1       21 0.16705953E-01 0.41367060E+03</pdfrwt>
<pdfrwt beam="2">  1       21 0.29611481E+00 0.41367060E+03</pdfrwt>
<totfact> 0.95408388E+02</totfact>
</mgrwt>
</event>
<event>
 5    0  0.2035092E+000  0.2947917E+03  0.7546771E-02  0.1087874E+00
         21   -1    0    0  502  501  0.00000000000E+00  0.00000000000E+00  0.56655337326E+03  0.56655337326E+03  0.00000000000E+00 0.  1.
         21   -1    0    0  503  502 -0.00000000000E+00 -0.00000000000E+00 -0.14461914468E+03  0.14461914468E+03  0.00000000000E+00 0.  1.
         25    1    1    2    0    0 -0.48998070112E+02 -0.26244297969E+03  0.27221023868E+03  0.40124872897E+03  0.12500000000E+03 0.  0.
         21    1    1    2  503  504  0.28600297130E+02  0.21239085308E+03  0.13713385488E+03  0.25442787902E+03  0.00000000000E+00 0.  1.
         21    1    1    2  504  501  0.20397772981E+02  0.50052126609E+02  0.12590135024E+02  0.55495909945E+02  0.00000000000E+00 0.  1.
<mgrwt>
<rscale>  4 0.29479167E+03</rscale>
<asrwt>0</asrwt>
<pdfrwt beam="1">  1       21 0.87162056E-01 0.29479167E+03</pdfrwt>
<pdfrwt beam="2">  1       21 0.22249100E-01 0.29479167E+03</pdfrwt>
<totfact> 0.20298686E+04</totfact>
</mgrwt>
</event>
<event>
 5    0  0.1856407E+000  0.3322602E+03  0.7546771E-02  0.1070141E+00
         21   -1    0    0  502  501  0.00000000000E+00  0.00000000000E+00  0.61754610145E+03  0.61754610145E+03  0.00000000000E+00 0. -1.
         21   -1    0    0  503  502 -0.00000000000E+00 -0.00000000000E+00 -0.19891549189E+03  0.19891549189E+03  0.00000000000E+00 0. -1.
         25    1    1    2    0    0 -0.76320617007E+02 -0.29823989330E+03  0.65516174956E+02  0.33865799816E+03  0.12500000000E+03 0.  0.
         21    1    1    2  503  504  0.45508402947E+02  0.37395750076E+02  0.73146582175E+02  0.93914212697E+02  0.00000000000E+00 0. -1.
         21    1    1    2  504  501  0.30812214060E+02  0.26084414322E+03  0.27996785243E+03  0.38388938249E+03  0.00000000000E+00 0. -1.
<mgrwt>
<rscale>  4 0.33226025E+03</rscale>
<asrwt>0</asrwt>
<pdfrwt beam="1">  1       21 0.95007092E-01 0.33226025E+03</pdfrwt>
<pdfrwt beam="2">  1       21 0.30602384E-01 0.33226025E+03</pdfrwt>
<totfact> 0.87894170E+03</totfact>
</mgrwt>
</event>
<event>
 5    0  0.1856407E+000  0.4591887E+03  0.7546771E-02  0.1025017E+00
         21   -1    0    0  502  501  0.00000000000E+00  0.00000000000E+00  0.55241289799E+03  0.55241289799E+03  0.00000000000E+00 0. -1.
         21   -1    0    0  503  502 -0.00000000000E+00 -0.00000000000E+00 -0.11570621201E+04  0.11570621201E+04  0.00000000000E+00 0. -1.
         25    1    1    2    0    0  0.47485730911E+03 -0.29536543292E+02  0.19351000413E+03  0.52861421954E+03  0.12500000000E+03 0.  0.
         21    1    1    2  503  504 -0.43594899321E+03 -0.41685565599E+02 -0.92891152583E+03  0.10269692468E+04  0.00000000000E+00 0. -1.
         21    1    1    2  504  501 -0.38908315895E+02  0.71222108891E+02  0.13075229961E+03  0.15389155173E+03  0.00000000000E+00 0. -1.
<mgrwt>
<rscale>  4 0.45918872E+03</rscale>
<asrwt>0</asrwt>
<pdfrwt beam="1">  1       21 0.84986600E-01 0.45918872E+03</pdfrwt>
<pdfrwt beam="2">  1       21 0.17800956E+00 0.45918872E+03</pdfrwt>
<totfact> 0.18158744E+02</totfact>
</mgrwt>
</event>
<event>
 5    0  0.1856407E+000  0.3169683E+03  0.7546771E-02  0.1077053E+00
         21   -1    0    0  502  501  0.00000000000E+00  0.00000000000E+00  0.83281930389E+03  0.83281930389E+03  0.00000000000E+00 0. -1.
         21   -1    0    0  503  502 -0.00000000000E+00 -0.00000000000E+00 -0.20897826986E+03  0.20897826986E+03  0.00000000000E+00 0. -1.
         25    1    1    2    0    0 -0.24937062477E+03  0.15052640051E+03  0.67319887969E+03  0.74408711679E+03  0.12500000000E+03 0.  0.
         21    1    1    2  503  504  0.22887073760E+03 -0.12588310945E+03 -0.48327375441E+02  0.26563867751E+03  0.00000000000E+00 0. -1.
         21    1    1    2  504  501  0.20499887172E+02 -0.24643291062E+02 -0.10304702244E+01  0.32071779453E+02  0.00000000000E+00 0.  1.
<mgrwt>
<rscale>  4 0.31696830E+03</rscale>
<asrwt>0</asrwt>
<pdfrwt beam="1">  1       21 0.12812605E+00 0.31696830E+03</pdfrwt>
<pdfrwt beam="2">  1       21 0.32150503E-01 0.31696830E+03</pdfrwt>
<totfact> 0.38410124E+03</totfact>
</mgrwt>
</event>
<event>
 5    0  0.1856407E+000  0.2253060E+03  0.7546771E-02  0.1129988E+00
         21   -1    0    0  502  501  0.00000000000E+00  0.00000000000E+00  0.25417047781E+03  0.25417047781E+03  0.00000000000E+00 0.  1.
         21   -1    0    0  503  502 -0.00000000000E+00 -0.00000000000E+00 -0.24467645115E+03  0.24467645115E+03  0.00000000000E+00 0. -1.
         25    1    1    2    0    0 -0.67944192777E+02 -0.19384299593E+03  0.74564848865E+02  0.25174677176E+03  0.12500000000E+03 0.  0.
         21    1    1    2  503  504  0.20979550945E+02  0.18087570736E+03 -0.75759000015E+02  0.19721964698E+03  0.00000000000E+00 0. -1.
         21    1    1    2  504  501  0.46964641832E+02  0.12967288571E+02  0.10688177817E+02  0.49880510225E+02  0.00000000000E+00 0. -1.
<mgrwt>
<rscale>  4 0.22530602E+03</rscale>
<asrwt>0</asrwt>
<pdfrwt beam="1">  1       21 0.39103150E-01 0.22530602E+03</pdfrwt>
<pdfrwt beam="2">  1       21 0.37642531E-01 0.22530602E+03</pdfrwt>
<totfact> 0.42239165E+04</totfact>
</mgrwt>
</event>
<event>
 5    0  0.1856407E+000  0.4166823E+03  0.7546771E-02  0.1038266E+00
         21   -1    0    0  502  501  0.00000000000E+00  0.00000000000E+00  0.88879345010E+03  0.88879345010E+03  0.00000000000E+00 0.  1.
         21   -1    0    0  503  502 -0.00000000000E+00 -0.00000000000E+00 -0.51414978924E+03  0.51414978924E+03  0.00000000000E+00 0.  1.
         25    1    1    2    0    0 -0.48202759048E+02  0.39308998089E+03  0.74013085213E+03  0.84868245966E+03  0.12500000000E+03 0.  0.
         21    1    1    2  503  504 -0.32038417285E+02 -0.23226576748E+03 -0.17663560401E+03  0.29355405556E+03  0.00000000000E+00 0.  1.
         21    1    1    2  504  501  0.80241176333E+02 -0.16082421341E+03 -0.18885158725E+03  0.26070672413E+03  0.00000000000E+00 0.  1.
<mgrwt>
<rscale>  4 0.41633452E+03</rscale>
<asrwt>0</asrwt>
<pdfrwt beam="1">  1       21 0.13673745E+00 0.41668228E+03</pdfrwt>
<pdfrwt beam="2">  1       21 0.79099968E-01 0.41668228E+03</pdfrwt>
<totfact> 0.45395508E+02</totfact>
</mgrwt>
</event>
<event>
 5    0  0.1856407E+000  0.2593830E+03  0.7546771E-02  0.1107515E+00
         21   -1    0    0  502  501  0.00000000000E+00  0.00000000000E+00  0.22691971859E+03  0.22691971859E+03  0.00000000000E+00 0.  1.
         21   -1    0    0  503  502 -0.00000000000E+00 -0.00000000000E+00 -0.40403632925E+03  0.40403632925E+03  0.00000000000E+00 0.  1.
         25    1    1    2    0    0  0.21791233034E+03 -0.13280218553E+03 -0.16288969010E+03  0.32753664732E+03  0.12500000000E+03 0.  0.
         21    1    1    2  503  504 -0.16461035051E+03  0.12041593376E+03 -0.78917405784E+02  0.21868818334E+03  0.00000000000E+00 0.  1.
         21    1    1    2  504  501 -0.53301979827E+02  0.12386251770E+02  0.64690485220E+02  0.84731217177E+02  0.00000000000E+00 0.  1.
<mgrwt>
<rscale>  4 0.25938298E+03</rscale>
<asrwt>0</asrwt>
<pdfrwt beam="1">  1       21 0.34910726E-01 0.25938298E+03</pdfrwt>
<pdfrwt beam="2">  1       21 0.62159435E-01 0.25938298E+03</pdfrwt>
<totfact> 0.18313488E+04</totfact>
</mgrwt>
</event>
<event>
 5    0  0.1856407E+000  0.2744320E+03  0.7546771E-02  0.1098770E+00
         21   -1    0    0  502  501  0.00000000000E+00  0.00000000000E+00  0.18021788886E+03  0.18021788886E+03  0.00000000000E+00 0. -1.
         21   -1    0    0  503  502 -0.00000000000E+00 -0.00000000000E+00 -0.71059621456E+03  0.71059621456E+03  0.00000000000E+00 0. -1.
         25    1    1    2    0    0 -0.81783018783E+02  0.23021613052E+03  0.31590837977E+02  0.27624429398E+03  0.12500000000E+03 0.  0.
         21    1    1    2  503  504  0.68014775229E+02 -0.14800842590E+03 -0.41132185670E+03  0.44240046743E+03  0.00000000000E+00 0. -1.
         21    1    1    2  504  501  0.13768243554E+02 -0.82207704620E+02 -0.15064730697E+03  0.17216934201E+03  0.00000000000E+00 0. -1.
<mgrwt>
<rscale>  4 0.27443201E+03</rscale>
<asrwt>0</asrwt>
<pdfrwt beam="1">  1       21 0.27725829E-01 0.27443201E+03</pdfrwt>
<pdfrwt beam="2">  1       21 0.10932249E+00 0.27443201E+03</pdfrwt>
<totfact> 0.78138789E+03</totfact>
</mgrwt>
</event>
<event>
 5    0  0.1856407E+000  0.2567013E+03  0.7546771E-02  0.1109142E+00
         21   -1    0    0  502  501  0.00000000000E+00  0.00000000000E+00  0.20514016590E+04  0.20514016590E+04  0.00000000000E+00 0. -1.
         21   -1    0    0  503  502 -0.00000000000E+00 -0.00000000000E+00 -0.48365477862E+02  0.48365477862E+02  0.00000000000E+00 0. -1.
         25    1    1    2    0    0  0.21123807684E+03  0.75159949319E+02  0.16688899470E+04  0.16885168635E+04  0.12500000000E+03 0.  0.
         21    1    1    2  503  504 -0.65514895290E+02 -0.12290103198E+02  0.42021122248E+02  0.78797353106E+02  0.00000000000E+00 0. -1.
         21    1    1    2  504  501 -0.14572318155E+03 -0.62869846121E+02  0.29212511184E+03  0.33245292022E+03  0.00000000000E+00 0. -1.
<mgrwt>
<rscale>  4 0.25670127E+03</rscale>
<asrwt>0</asrwt>
<pdfrwt beam="1">  1       21 0.31560019E+00 0.25670127E+03</pdfrwt>
<pdfrwt beam="2">  1       21 0.74408444E-02 0.25670127E+03</pdfrwt>
<totfact> 0.35264078E+03</totfact>
</mgrwt>
</event>
