<event>
 5    0  0.1911311E+001  0.2369320E+03  0.7546771E-02  0.1121854E+00
         21   -1    0    0  502  501  0.00000000000E+00  0.00000000000E+00  0.77219167070E+03  0.77219167070E+03  0.00000000000E+00 0.  1.
         21   -1    0    0  504  502 -0.00000000000E+00 -0.00000000000E+00 -0.54766745116E+03  0.54766745116E+03  0.00000000000E+00 0.  1.
         25    1    1    2    0    0  0.20699821693E+03  0.75505302499E+02 -0.48725596459E+03  0.54917455108E+03  0.12500000000E+03 0.  0.
         21    1    1    2  503  501 -0.19060644214E+03 -0.63079856792E+02  0.72078917963E+03  0.74822919322E+03  0.00000000000E+00 0.  1.
         21    1    1    2  504  503 -0.16391774793E+02 -0.12425445707E+02 -0.90089954854E+01  0.22455377563E+02  0.00000000000E+00 0.  1.
<mgrwt>
<rscale>  4 0.23693199E+03</rscale>
<asrwt>0</asrwt>
<pdfrwt beam="1">  1       21 0.11879872E+00 0.23693199E+03</pdfrwt>
<pdfrwt beam="2">  1       21 0.84256531E-01 0.23693199E+03</pdfrwt>
<totfact> 0.63344714E+02</totfact>
</mgrwt>
</event>
<event>
 5    0  0.3524764E+001  0.2529826E+03  0.7546771E-02  0.1111434E+00
         21   -1    0    0  504  501  0.00000000000E+00  0.00000000000E+00  0.11274142689E+03  0.11274142689E+03  0.00000000000E+00 0. -1.
         21   -1    0    0  501  502 -0.00000000000E+00 -0.00000000000E+00 -0.55598982730E+03  0.55598982730E+03  0.00000000000E+00 0. -1.
         25    1    1    2    0    0  0.44995294656E+02  0.20301853425E+03 -0.20408390526E+03  0.31704312353E+03  0.12500000000E+03 0.  0.
         21    1    1    2  503  502  0.12015950983E+02  0.21704310218E+02 -0.34096366886E+02  0.42166602838E+02  0.00000000000E+00 0.  1.
         21    1    1    2  504  503 -0.57011245639E+02 -0.22472284447E+03 -0.20506812826E+03  0.30952152782E+03  0.00000000000E+00 0. -1.
<mgrwt>
<rscale>  4 0.25298257E+03</rscale>
<asrwt>0</asrwt>
<pdfrwt beam="1">  1       21 0.17344835E-01 0.25298257E+03</pdfrwt>
<pdfrwt beam="2">  1       21 0.85536895E-01 0.25298257E+03</pdfrwt>
<totfact> 0.34466328E+04</totfact>
</mgrwt>
</event>
<event>
 5    0  0.1911311E+001  0.2248250E+03  0.7546771E-02  0.1130336E+00
         21   -1    0    0  504  501  0.00000000000E+00  0.00000000000E+00  0.13209249232E+03  0.13209249232E+03  0.00000000000E+00 0. -1.
         21   -1    0    0  503  502 -0.00000000000E+00 -0.00000000000E+00 -0.70298828752E+03  0.70298828752E+03  0.00000000000E+00 0.  1.
         25    1    1    2    0    0  0.10877834855E+03  0.21995295373E+03 -0.44785760249E+03  0.52575038096E+03  0.12500000000E+03 0.  0.
         21    1    1    2  503  501 -0.17779362192E+02 -0.69569198173E+02 -0.11221800390E+03  0.13322484548E+03  0.00000000000E+00 0. -1.
         21    1    1    2  504  502 -0.90998986354E+02 -0.15038375556E+03 -0.10820188808E+02  0.17610555340E+03  0.00000000000E+00 0. -1.
<mgrwt>
<rscale>  4 0.22482497E+03</rscale>
<asrwt>0</asrwt>
<pdfrwt beam="1">  1       21 0.20321922E-01 0.22482497E+03</pdfrwt>
<pdfrwt beam="2">  1       21 0.10815204E+00 0.22482497E+03</pdfrwt>
<totfact> 0.14935267E+04</totfact>
</mgrwt>
</event>
