<event>
 5    0  0.1911311E+001  0.2529118E+03  0.7546771E-02  0.1111478E+00
         21   -1    0    0  502  501  0.00000000000E+00  0.00000000000E+00  0.52200980723E+02  0.52200980723E+02  0.00000000000E+00 0.  1.
         21   -1    0    0  504  502 -0.00000000000E+00 -0.00000000000E+00 -0.16962848082E+04  0.16962848082E+04  0.00000000000E+00 0.  1.
         25    1    1    2    0    0 -0.17916400717E+03  0.16869821241E+03 -0.47322498275E+03  0.54783730489E+03  0.12500000000E+03 0.  0.
         21    1    1    2  503  501  0.41338830701E+02 -0.64768764891E+01 -0.93118854695E+02  0.10208805000E+03  0.00000000000E+00 0.  1.
         21    1    1    2  504  503  0.13782517647E+03 -0.16222133592E+03 -0.10777399900E+04  0.10985604340E+04  0.00000000000E+00 0.  1.
<mgrwt>
<rscale>  4 0.25291180E+03</rscale>
<asrwt>0</asrwt>
<pdfrwt beam="1">  1       21 0.80309191E-02 0.25291180E+03</pdfrwt>
<pdfrwt beam="2">  1       21 0.26096693E+00 0.25291180E+03</pdfrwt>
<totfact> 0.64720515E+03</totfact>
</mgrwt>
</event>
<event>
 5    0  0.1911311E+001  0.2182802E+03  0.7546771E-02  0.1135172E+00
         21   -1    0    0  504  501  0.00000000000E+00  0.00000000000E+00  0.87278914671E+03  0.87278914671E+03  0.00000000000E+00 0. -1.
         21   -1    0    0  503  502 -0.00000000000E+00 -0.00000000000E+00 -0.44127276695E+03  0.44127276695E+03  0.00000000000E+00 0. -1.
         25    1    1    2    0    0  0.22528718012E+03  0.20501934216E+03  0.35403272105E+02  0.33115802249E+03  0.12500000000E+03 0.  0.
         21    1    1    2  503  501 -0.95869197846E+02 -0.95013061758E+02 -0.26657268167E+03  0.29879655221E+03  0.00000000000E+00 0. -1.
         21    1    1    2  504  502 -0.12941798227E+03 -0.11000628040E+03  0.66268578932E+03  0.68410733897E+03  0.00000000000E+00 0. -1.
<mgrwt>
<rscale>  4 0.21828020E+03</rscale>
<asrwt>0</asrwt>
<pdfrwt beam="1">  1       21 0.13427525E+00 0.21828020E+03</pdfrwt>
<pdfrwt beam="2">  1       21 0.67888118E-01 0.21828020E+03</pdfrwt>
<totfact> 0.76895667E+02</totfact>
</mgrwt>
</event>
<event>
 5    0  0.1911311E+001  0.3279792E+03  0.7546771E-02  0.1072035E+00
         21   -1    0    0  502  501  0.00000000000E+00  0.00000000000E+00  0.45250562622E+03  0.45250562622E+03  0.00000000000E+00 0. -1.
         21   -1    0    0  504  502 -0.00000000000E+00 -0.00000000000E+00 -0.31207086428E+03  0.31207086428E+03  0.00000000000E+00 0. -1.
         25    1    1    2    0    0  0.29470907723E+03  0.10121977762E+03  0.17862123674E+03  0.38030176149E+03  0.12500000000E+03 0.  0.
         21    1    1    2  503  501 -0.26932880581E+03 -0.11594533520E+03  0.44456981825E+02  0.29657671795E+03  0.00000000000E+00 0. -1.
         21    1    1    2  504  503 -0.25380271411E+02  0.14725557573E+02 -0.82643456616E+02  0.87698011062E+02  0.00000000000E+00 0.  1.
<mgrwt>
<rscale>  4 0.32797921E+03</rscale>
<asrwt>0</asrwt>
<pdfrwt beam="1">  1       21 0.69616250E-01 0.32797921E+03</pdfrwt>
<pdfrwt beam="2">  1       21 0.48010902E-01 0.32797921E+03</pdfrwt>
<totfact> 0.72020180E+03</totfact>
</mgrwt>
</event>
