<event>
 5    0  0.1911311E+001  0.4051350E+03  0.7546771E-02  0.1042016E+00
         21   -1    0    0  504  501  0.00000000000E+00  0.00000000000E+00  0.18482089279E+04  0.18482089279E+04  0.00000000000E+00 0.  1.
         21   -1    0    0  503  502 -0.00000000000E+00 -0.00000000000E+00 -0.73040689012E+03  0.73040689012E+03  0.00000000000E+00 0.  1.
         25    1    1    2    0    0  0.43814567119E+03  0.34828102879E+03  0.68274767931E+03  0.89165054690E+03  0.12500000000E+03 0.  0.
         21    1    1    2  503  501 -0.15461966669E+03 -0.34339203915E+03 -0.54738449851E+03  0.66442089303E+03  0.00000000000E+00 0.  1.
         21    1    1    2  504  502 -0.28352600451E+03 -0.48889896376E+01  0.98243885698E+03  0.10225443781E+04  0.00000000000E+00 0.  1.
<mgrwt>
<rscale>  4 0.40513499E+03</rscale>
<asrwt>0</asrwt>
<pdfrwt beam="1">  1       21 0.28433983E+00 0.40513499E+03</pdfrwt>
<pdfrwt beam="2">  1       21 0.11237029E+00 0.40513499E+03</pdfrwt>
<totfact> 0.20198851E+01</totfact>
</mgrwt>
</event>
<event>
 5    0  0.1911311E+001  0.2360845E+03  0.7546771E-02  0.1122429E+00
         21   -1    0    0  504  501  0.00000000000E+00  0.00000000000E+00  0.73674003104E+03  0.73674003104E+03  0.00000000000E+00 0. -1.
         21   -1    0    0  503  502 -0.00000000000E+00 -0.00000000000E+00 -0.15927388188E+03  0.15927388188E+03  0.00000000000E+00 0. -1.
         25    1    1    2    0    0 -0.25439098184E+03 -0.54682228484E+02  0.40500777732E+03  0.49735421728E+03  0.12500000000E+03 0.  0.
         21    1    1    2  503  501  0.91224275135E+02  0.24544193181E+02 -0.60846575166E+02  0.11236810714E+03  0.00000000000E+00 0. -1.
         21    1    1    2  504  502  0.16316670671E+03  0.30138035304E+02  0.23330494700E+03  0.28629158850E+03  0.00000000000E+00 0. -1.
<mgrwt>
<rscale>  4 0.23608454E+03</rscale>
<asrwt>0</asrwt>
<pdfrwt beam="1">  1       21 0.11334462E+00 0.23608454E+03</pdfrwt>
<pdfrwt beam="2">  1       21 0.24503675E-01 0.23608454E+03</pdfrwt>
<totfact> 0.92807054E+03</totfact>
</mgrwt>
</event>
<event>
 5    0  0.1911311E+001  0.2374594E+03  0.7546771E-02  0.1121497E+00
         21   -1    0    0  502  501  0.00000000000E+00  0.00000000000E+00  0.72826602428E+03  0.72826602428E+03  0.00000000000E+00 0.  1.
         21   -1    0    0  504  502 -0.00000000000E+00 -0.00000000000E+00 -0.99390152875E+02  0.99390152875E+02  0.00000000000E+00 0.  1.
         25    1    1    2    0    0  0.13001061186E+03  0.17988893011E+03  0.28260707864E+03  0.38046622356E+03  0.12500000000E+03 0.  0.
         21    1    1    2  503  501 -0.58952665511E+02  0.14713422306E+00  0.10864635195E+02  0.59945631344E+02  0.00000000000E+00 0.  1.
         21    1    1    2  504  503 -0.71057946345E+02 -0.18003606434E+03  0.33540415756E+03  0.38724432225E+03  0.00000000000E+00 0.  1.
<mgrwt>
<rscale>  4 0.23745936E+03</rscale>
<asrwt>0</asrwt>
<pdfrwt beam="1">  1       21 0.11204092E+00 0.23745936E+03</pdfrwt>
<pdfrwt beam="2">  1       21 0.15290793E-01 0.23745936E+03</pdfrwt>
<totfact> 0.23060488E+04</totfact>
</mgrwt>
</event>
<event>
 5    0  0.1911311E+001  0.2140894E+03  0.7546771E-02  0.1138368E+00
         21   -1    0    0  503  501  0.00000000000E+00  0.00000000000E+00  0.83506275165E+03  0.83506275165E+03  0.00000000000E+00 0. -1.
         21   -1    0    0  504  502 -0.00000000000E+00 -0.00000000000E+00 -0.85406369324E+02  0.85406369324E+02  0.00000000000E+00 0. -1.
         25    1    1    2    0    0  0.96369457892E+02  0.17972828836E+03  0.58078775269E+03  0.62811523124E+03  0.12500000000E+03 0.  0.
         21    1    1    2  503  502 -0.89710910080E+02 -0.14189732184E+03  0.62284840108E+02  0.17905948353E+03  0.00000000000E+00 0. -1.
         21    1    1    2  504  501 -0.66585478116E+01 -0.37830966513E+02  0.10658378953E+03  0.11329440621E+03  0.00000000000E+00 0. -1.
<mgrwt>
<rscale>  4 0.21408936E+03</rscale>
<asrwt>0</asrwt>
<pdfrwt beam="1">  1       21 0.12847119E+00 0.21408936E+03</pdfrwt>
<pdfrwt beam="2">  1       21 0.13139442E-01 0.21408936E+03</pdfrwt>
<totfact> 0.21910649E+04</totfact>
</mgrwt>
</event>
