<event>
 5    0  0.2146475E+000  0.2359154E+03  0.7546771E-02  0.1122544E+00
         21   -1    0    0  502  501  0.00000000000E+00  0.00000000000E+00  0.99782749006E+03  0.99782749006E+03  0.00000000000E+00 0. -1.
         21   -1    0    0  503  502 -0.00000000000E+00 -0.00000000000E+00 -0.87491336103E+02  0.87491336103E+02  0.00000000000E+00 0. -1.
         25    1    1    2    0    0 -0.18516616067E+03  0.95248383654E+02  0.73447515178E+03  0.77358742895E+03  0.12500000000E+03 0.  0.
         21    1    1    2  503  504  0.17289250792E+03 -0.67421019086E+02  0.20005174912E+03  0.27287014391E+03  0.00000000000E+00 0. -1.
         21    1    1    2  504  501  0.12273652753E+02 -0.27827364568E+02 -0.24190746947E+02  0.38861253306E+02  0.00000000000E+00 0. -1.
<mgrwt>
<rscale>  4 0.23591538E+03</rscale>
<asrwt>0</asrwt>
<pdfrwt beam="1">  1       21 0.15351191E+00 0.23591538E+03</pdfrwt>
<pdfrwt beam="2">  1       21 0.13460206E-01 0.23591538E+03</pdfrwt>
<totfact> 0.13033243E+04</totfact>
</mgrwt>
</event>
<event>
 5    0  0.2973017E+000  0.3237749E+03  0.7546771E-02  0.1074256E+00
         21   -1    0    0  502  501  0.00000000000E+00  0.00000000000E+00  0.10934032231E+04  0.10934032231E+04  0.00000000000E+00 0. -1.
         21   -1    0    0  503  502 -0.00000000000E+00 -0.00000000000E+00 -0.10244422060E+03  0.10244422060E+03  0.00000000000E+00 0. -1.
         25    1    1    2    0    0  0.10485743370E+03 -0.27628861129E+03  0.65441245917E+03  0.72884233196E+03  0.12500000000E+03 0.  0.
         21    1    1    2  503  504 -0.10932912095E+03  0.19306792681E+03  0.16571568200E+03  0.27692917562E+03  0.00000000000E+00 0. -1.
         21    1    1    2  504  501  0.44716872543E+01  0.83220684476E+02  0.17083086137E+03  0.19007593616E+03  0.00000000000E+00 0.  1.
<mgrwt>
<rscale>  4 0.32304542E+03</rscale>
<asrwt>0</asrwt>
<pdfrwt beam="1">  1       21 0.16821587E+00 0.32377492E+03</pdfrwt>
<pdfrwt beam="2">  1       21 0.15760650E-01 0.32377492E+03</pdfrwt>
<totfact> 0.72392693E+03</totfact>
</mgrwt>
</event>
<event>
 5    0  0.1856407E+000  0.3547967E+03  0.7546771E-02  0.1060663E+00
         21   -1    0    0  502  501  0.00000000000E+00  0.00000000000E+00  0.35938313012E+03  0.35938313012E+03  0.00000000000E+00 0. -1.
         21   -1    0    0  503  502 -0.00000000000E+00 -0.00000000000E+00 -0.40922591474E+03  0.40922591474E+03  0.00000000000E+00 0. -1.
         25    1    1    2    0    0 -0.27380458286E+03  0.17155020134E+03  0.10284504766E+03  0.36138694636E+03  0.12500000000E+03 0.  0.
         21    1    1    2  503  504  0.29313560540E+03 -0.19112167468E+03 -0.13953512845E+03  0.37673071252E+03  0.00000000000E+00 0. -1.
         21    1    1    2  504  501 -0.19331022541E+02  0.19571473342E+02 -0.13152703826E+02  0.30491385983E+02  0.00000000000E+00 0. -1.
<mgrwt>
<rscale>  4 0.35479672E+03</rscale>
<asrwt>0</asrwt>
<pdfrwt beam="1">  1       21 0.55289713E-01 0.35479672E+03</pdfrwt>
<pdfrwt beam="2">  1       21 0.62957832E-01 0.35479672E+03</pdfrwt>
<totfact> 0.65930221E+03</totfact>
</mgrwt>
</event>
<event>
 5    0  0.2076329E+000  0.2675369E+03  0.7546771E-02  0.1102698E+00
         21   -1    0    0  502  501  0.00000000000E+00  0.00000000000E+00  0.21454410707E+03  0.21454410707E+03  0.00000000000E+00 0. -1.
         21   -1    0    0  503  502 -0.00000000000E+00 -0.00000000000E+00 -0.36718760215E+03  0.36718760215E+03  0.00000000000E+00 0. -1.
         25    1    1    2    0    0 -0.75037601757E+02  0.22432201260E+03  0.39572408763E+02  0.27044774458E+03  0.12500000000E+03 0.  0.
         21    1    1    2  503  504  0.28288256243E+01 -0.61854982975E+02 -0.79520996705E+02  0.10078506879E+03  0.00000000000E+00 0. -1.
         21    1    1    2  504  501  0.72208776133E+02 -0.16246702962E+03 -0.11269490714E+03  0.21049889586E+03  0.00000000000E+00 0. -1.
<mgrwt>
<rscale>  4 0.26753693E+03</rscale>
<asrwt>0</asrwt>
<pdfrwt beam="1">  1       21 0.33006786E-01 0.26753693E+03</pdfrwt>
<pdfrwt beam="2">  1       21 0.56490400E-01 0.26753693E+03</pdfrwt>
<totfact> 0.25083991E+04</totfact>
</mgrwt>
</event>
<event>
 5    0  0.1856407E+000  0.3099718E+03  0.7546771E-02  0.1080359E+00
         21   -1    0    0  502  501  0.00000000000E+00  0.00000000000E+00  0.72679143850E+03  0.72679143850E+03  0.00000000000E+00 0.  1.
         21   -1    0    0  503  502 -0.00000000000E+00 -0.00000000000E+00 -0.36185609454E+03  0.36185609454E+03  0.00000000000E+00 0.  1.
         25    1    1    2    0    0  0.25476765644E+03 -0.12470338600E+03  0.62735329695E+03  0.69975327969E+03  0.12500000000E+03 0.  0.
         21    1    1    2  503  504 -0.22183833210E+03  0.95210571199E+02 -0.23485153260E+03  0.33679747745E+03  0.00000000000E+00 0.  1.
         21    1    1    2  504  501 -0.32929324340E+02  0.29492814797E+02 -0.27566420389E+02  0.52096775901E+02  0.00000000000E+00 0.  1.
<mgrwt>
<rscale>  4 0.30997176E+03</rscale>
<asrwt>0</asrwt>
<pdfrwt beam="1">  1       21 0.11181407E+00 0.30997176E+03</pdfrwt>
<pdfrwt beam="2">  1       21 0.55670168E-01 0.30997176E+03</pdfrwt>
<totfact> 0.17497664E+03</totfact>
</mgrwt>
</event>
<event>
 5    0  0.1856407E+000  0.2882753E+03  0.7546771E-02  0.1091253E+00
         21   -1    0    0  502  501  0.00000000000E+00  0.00000000000E+00  0.40225395986E+03  0.40225395986E+03  0.00000000000E+00 0. -1.
         21   -1    0    0  503  502 -0.00000000000E+00 -0.00000000000E+00 -0.12534512642E+04  0.12534512642E+04  0.00000000000E+00 0.  1.
         25    1    1    2    0    0 -0.47410416026E+01 -0.26072480575E+03  0.32992460885E+03  0.43871989849E+03  0.12500000000E+03 0.  0.
         21    1    1    2  503  504  0.15130709609E+02  0.23790226223E+03 -0.11598744634E+04  0.11841178977E+04  0.00000000000E+00 0.  1.
         21    1    1    2  504  501 -0.10389668006E+02  0.22822543519E+02 -0.21247449796E+02  0.32867427900E+02  0.00000000000E+00 0.  1.
<mgrwt>
<rscale>  4 0.28827528E+03</rscale>
<asrwt>0</asrwt>
<pdfrwt beam="1">  1       21 0.61885224E-01 0.28827528E+03</pdfrwt>
<pdfrwt beam="2">  1       21 0.19283866E+00 0.28827528E+03</pdfrwt>
<totfact> 0.32835754E+02</totfact>
</mgrwt>
</event>
<event>
 5    0  0.1856407E+000  0.2849177E+03  0.7546771E-02  0.1093033E+00
         21   -1    0    0  502  501  0.00000000000E+00  0.00000000000E+00  0.56067144869E+03  0.56067144869E+03  0.00000000000E+00 0. -1.
         21   -1    0    0  503  502 -0.00000000000E+00 -0.00000000000E+00 -0.28726239996E+03  0.28726239996E+03  0.00000000000E+00 0.  1.
         25    1    1    2    0    0  0.26259175073E+03  0.13938092045E+03  0.31879189532E+03  0.45346966939E+03  0.12500000000E+03 0.  0.
         21    1    1    2  503  504 -0.21766506249E+03  0.15873619557E+02  0.22014387283E+02  0.21935059716E+03  0.00000000000E+00 0.  1.
         21    1    1    2  504  501 -0.44926688240E+02 -0.15525454000E+03 -0.67397233871E+02  0.17511358211E+03  0.00000000000E+00 0.  1.
<mgrwt>
<rscale>  4 0.28491772E+03</rscale>
<asrwt>0</asrwt>
<pdfrwt beam="1">  1       21 0.86257146E-01 0.28491772E+03</pdfrwt>
<pdfrwt beam="2">  1       21 0.44194215E-01 0.28491772E+03</pdfrwt>
<totfact> 0.53660988E+03</totfact>
</mgrwt>
</event>
<event>
 5    0  0.1856407E+000  0.2568729E+03  0.7546771E-02  0.1109037E+00
         21   -1    0    0  502  501  0.00000000000E+00  0.00000000000E+00  0.45365201717E+03  0.45365201717E+03  0.00000000000E+00 0. -1.
         21   -1    0    0  503  502 -0.00000000000E+00 -0.00000000000E+00 -0.13119483019E+03  0.13119483019E+03  0.00000000000E+00 0. -1.
         25    1    1    2    0    0  0.53618151881E+02  0.21790776867E+03  0.15966385710E+03  0.30245040771E+03  0.12500000000E+03 0.  0.
         21    1    1    2  503  504 -0.41698068356E+02 -0.82028642235E+02  0.46251635746E+02  0.10298854723E+03  0.00000000000E+00 0. -1.
         21    1    1    2  504  501 -0.11920083525E+02 -0.13587912643E+03  0.11654169413E+03  0.17940789242E+03  0.00000000000E+00 0. -1.
<mgrwt>
<rscale>  4 0.25687293E+03</rscale>
<asrwt>0</asrwt>
<pdfrwt beam="1">  1       21 0.69792618E-01 0.25687293E+03</pdfrwt>
<pdfrwt beam="2">  1       21 0.20183820E-01 0.25687293E+03</pdfrwt>
<totfact> 0.41076863E+04</totfact>
</mgrwt>
</event>
<event>
 5    0  0.2276364E+000  0.2297795E+03  0.7546771E-02  0.1126795E+00
         21   -1    0    0  502  501  0.00000000000E+00  0.00000000000E+00  0.38170219003E+03  0.38170219003E+03  0.00000000000E+00 0. -1.
         21   -1    0    0  503  502 -0.00000000000E+00 -0.00000000000E+00 -0.26424687838E+03  0.26424687838E+03  0.00000000000E+00 0. -1.
         25    1    1    2    0    0  0.21904598177E+03  0.15499411513E+03  0.10149243388E+03  0.31293774459E+03  0.12500000000E+03 0.  0.
         21    1    1    2  503  504 -0.16267611872E+03 -0.48388913495E+01  0.47530605546E+02  0.16954672788E+03  0.00000000000E+00 0. -1.
         21    1    1    2  504  501 -0.56369863054E+02 -0.15015522378E+03 -0.31567727777E+02  0.16346459594E+03  0.00000000000E+00 0. -1.
<mgrwt>
<rscale>  4 0.22977946E+03</rscale>
<asrwt>0</asrwt>
<pdfrwt beam="1">  1       21 0.58723414E-01 0.22977946E+03</pdfrwt>
<pdfrwt beam="2">  1       21 0.40653366E-01 0.22977946E+03</pdfrwt>
<totfact> 0.15468285E+04</totfact>
</mgrwt>
</event>
<event>
 5    0  0.1856407E+000  0.3544148E+03  0.7546771E-02  0.1060817E+00
         21   -1    0    0  502  501  0.00000000000E+00  0.00000000000E+00  0.27671825457E+03  0.27671825457E+03  0.00000000000E+00 0. -1.
         21   -1    0    0  503  502 -0.00000000000E+00 -0.00000000000E+00 -0.79471983342E+03  0.79471983342E+03  0.00000000000E+00 0. -1.
         25    1    1    2    0    0 -0.48929149732E+02 -0.33165975807E+03  0.45035262510E+02  0.36061812446E+03  0.12500000000E+03 0.  0.
         21    1    1    2  503  504  0.17674960646E+02  0.32387288581E+03 -0.28757261397E+03  0.43347901760E+03  0.00000000000E+00 0. -1.
         21    1    1    2  504  501  0.31254189085E+02  0.77868722601E+01 -0.27546422739E+03  0.27734094592E+03  0.00000000000E+00 0. -1.
<mgrwt>
<rscale>  4 0.35441483E+03</rscale>
<asrwt>0</asrwt>
<pdfrwt beam="1">  1       21 0.42572039E-01 0.35441483E+03</pdfrwt>
<pdfrwt beam="2">  1       21 0.12226459E+00 0.35441483E+03</pdfrwt>
<totfact> 0.24047425E+03</totfact>
</mgrwt>
</event>
<event>
 5    0  0.1856407E+000  0.2544120E+03  0.7546771E-02  0.1110548E+00
         21   -1    0    0  502  501  0.00000000000E+00  0.00000000000E+00  0.79727813115E+03  0.79727813115E+03  0.00000000000E+00 0. -1.
         21   -1    0    0  503  502 -0.00000000000E+00 -0.00000000000E+00 -0.16604175146E+03  0.16604175146E+03  0.00000000000E+00 0. -1.
         25    1    1    2    0    0  0.10030140882E+03  0.17846699143E+03  0.50856091081E+03  0.56228999603E+03  0.12500000000E+03 0.  0.
         21    1    1    2  503  504 -0.17600158011E+03 -0.21335029322E+03  0.14830189140E+03  0.31382854365E+03  0.00000000000E+00 0. -1.
         21    1    1    2  504  501  0.75700171293E+02  0.34883301790E+02 -0.25626422511E+02  0.87201342927E+02  0.00000000000E+00 0. -1.
<mgrwt>
<rscale>  4 0.25441200E+03</rscale>
<asrwt>0</asrwt>
<pdfrwt beam="1">  1       21 0.12265817E+00 0.25441200E+03</pdfrwt>
<pdfrwt beam="2">  1       21 0.25544885E-01 0.25441200E+03</pdfrwt>
<totfact> 0.69672367E+03</totfact>
</mgrwt>
</event>
<event>
 5    0  0.1856407E+000  0.2930097E+03  0.7546771E-02  0.1088788E+00
         21   -1    0    0  502  501  0.00000000000E+00  0.00000000000E+00  0.34513063494E+03  0.34513063494E+03  0.00000000000E+00 0.  1.
         21   -1    0    0  503  502 -0.00000000000E+00 -0.00000000000E+00 -0.24805795291E+03  0.24805795291E+03  0.00000000000E+00 0.  1.
         25    1    1    2    0    0  0.12329631274E+03  0.23457981816E+03  0.12165561297E+03  0.31726134336E+03  0.12500000000E+03 0.  0.
         21    1    1    2  503  504 -0.28449462593E+02 -0.12640579494E+03  0.22131653887E+01  0.12958663132E+03  0.00000000000E+00 0.  1.
         21    1    1    2  504  501 -0.94846850150E+02 -0.10817402322E+03 -0.26796096330E+02  0.14634061317E+03  0.00000000000E+00 0.  1.
<mgrwt>
<rscale>  4 0.29300968E+03</rscale>
<asrwt>0</asrwt>
<pdfrwt beam="1">  1       21 0.53097020E-01 0.29300968E+03</pdfrwt>
<pdfrwt beam="2">  1       21 0.38162762E-01 0.29300968E+03</pdfrwt>
<totfact> 0.21171086E+04</totfact>
</mgrwt>
</event>
<event>
 5    0  0.6634581E+000  0.2706791E+03  0.7546771E-02  0.1100892E+00
         21   -1    0    0  502  501  0.00000000000E+00  0.00000000000E+00  0.35320605887E+03  0.35320605887E+03  0.00000000000E+00 0.  1.
         21   -1    0    0  503  502 -0.00000000000E+00 -0.00000000000E+00 -0.28303474759E+03  0.28303474759E+03  0.00000000000E+00 0. -1.
         25    1    1    2    0    0  0.23625573469E+03 -0.42725035395E+02  0.22042049362E+03  0.34907362380E+03  0.12500000000E+03 0.  0.
         21    1    1    2  503  504 -0.21051521116E+03  0.40421314503E+02 -0.14944228693E+03  0.26131118216E+03  0.00000000000E+00 0. -1.
         21    1    1    2  504  501 -0.25740523528E+02  0.23037208925E+01 -0.80689540851E+00  0.25856000496E+02  0.00000000000E+00 0.  1.
<mgrwt>
<rscale>  4 0.27067915E+03</rscale>
<asrwt>0</asrwt>
<pdfrwt beam="1">  1       21 0.54339394E-01 0.27067915E+03</pdfrwt>
<pdfrwt beam="2">  1       21 0.43543807E-01 0.27067915E+03</pdfrwt>
<totfact> 0.15540340E+04</totfact>
</mgrwt>
</event>
<event>
 5    0  0.1856407E+000  0.3415985E+03  0.7546771E-02  0.1066117E+00
         21   -1    0    0  502  501  0.00000000000E+00  0.00000000000E+00  0.39817959950E+03  0.39817959950E+03  0.00000000000E+00 0. -1.
         21   -1    0    0  503  502 -0.00000000000E+00 -0.00000000000E+00 -0.71227885705E+03  0.71227885705E+03  0.00000000000E+00 0. -1.
         25    1    1    2    0    0  0.22472710356E+03  0.22486059426E+03  0.27324459340E+03  0.43743818506E+03  0.12500000000E+03 0.  0.
         21    1    1    2  503  504 -0.41665417688E+02 -0.41808044643E+02 -0.53264700660E+02  0.79505018486E+02  0.00000000000E+00 0.  1.
         21    1    1    2  504  501 -0.18306168588E+03 -0.18305254962E+03 -0.53407915030E+03  0.59351525300E+03  0.00000000000E+00 0. -1.
<mgrwt>
<rscale>  4 0.34159853E+03</rscale>
<asrwt>0</asrwt>
<pdfrwt beam="1">  1       21 0.61258400E-01 0.34159853E+03</pdfrwt>
<pdfrwt beam="2">  1       21 0.10958136E+00 0.34159853E+03</pdfrwt>
<totfact> 0.14685605E+03</totfact>
</mgrwt>
</event>
<event>
 5    0  0.2320333E+000  0.2407200E+03  0.7546771E-02  0.1119314E+00
         21   -1    0    0  502  501  0.00000000000E+00  0.00000000000E+00  0.39969411619E+03  0.39969411619E+03  0.00000000000E+00 0.  1.
         21   -1    0    0  503  502 -0.00000000000E+00 -0.00000000000E+00 -0.24440898899E+03  0.24440898899E+03  0.00000000000E+00 0.  1.
         25    1    1    2    0    0  0.20752760118E+03 -0.68520959188E+02  0.27137894418E+03  0.37018152094E+03  0.12500000000E+03 0.  0.
         21    1    1    2  503  504 -0.16425030972E+03  0.18915082610E+02 -0.12529878697E+03  0.20745054979E+03  0.00000000000E+00 0.  1.
         21    1    1    2  504  501 -0.43277291464E+02  0.49605876578E+02  0.92049699967E+01  0.66471034445E+02  0.00000000000E+00 0.  1.
<mgrwt>
<rscale>  4 0.24072002E+03</rscale>
<asrwt>0</asrwt>
<pdfrwt beam="1">  1       21 0.61491402E-01 0.24072002E+03</pdfrwt>
<pdfrwt beam="2">  1       21 0.37601383E-01 0.24072002E+03</pdfrwt>
<totfact> 0.16304045E+04</totfact>
</mgrwt>
</event>
