<LesHouchesEvents version="3.0">
  <!--
  <scalesfunctionalform>
    muR  H_T/2 := sum_i mT(i)/2, i=final state
    muF1 H_T/2 := sum_i mT(i)/2, i=final state
    muF2 H_T/2 := sum_i mT(i)/2, i=final state
    QES  H_T/2 := sum_i mT(i)/2, i=final state
  </scalesfunctionalform>
HERWIG6   
  -->
  <header>
        4
  </header>
  <init>
   2212   2212 0.65000000D+04 0.65000000D+04 -1 -1   244800   244800 -4   1
 0.57929747D-05 0.48511867D-06 0.25917516D-05     66
  </init>
  <event>
  5     66 0.25917516E-05 0.37651823E+02 0.75467711E-02 0.91639225E-01
       -1 -1    0    0    0  501 0.00000000E+00 0.00000000E+00 0.16050540E+04 0.16050540E+04 0.32000000E+00 0.0000E+00 0.9000E+01
       -3 -1    0    0    0  502 0.00000000E+00 0.00000000E+00 -.12844285E+04 0.12844286E+04 0.50000000E+00 0.0000E+00 0.9000E+01
       25  1    1    2    0    0 -.42065929E+03 -.32033056E+03 0.47018463E+03 0.71851548E+03 0.12500000E+03 0.0000E+00 0.9000E+01
       -1  1    1    2    0  501 0.20490550E+02 -.31594122E+02 0.94912082E+03 0.94986762E+03 0.32000000E+00 0.0000E+00 0.9000E+01
       -3  1    1    2    0  502 0.40016874E+03 0.35192468E+03 -.10986800E+04 0.12210995E+04 0.50000000E+00 0.0000E+00 0.9000E+01
#aMCatNLO 1  0  0  5  2 0.16279851D+02 0.00000000D+00  -5  6  0 0.00000000D+00 0.00000000D+00 0.00000000D+00 0.00000000D+00 0.00000000D+00
  <mgrwgt>
 0.3607600646D-03    6    2    0
 0.143581937747316D+04 0.000000000000000D+00 0.000000000000000D+00 0.143581937747316D+04
 0.143581937747316D+04 -.000000000000000D+00 -.000000000000000D+00 -.143581937747316D+04
 0.670588396959783D+03 -.420697377752231D+03 -.320369797278971D+03 0.392989449579655D+03
 0.849680935529550D+03 0.204877218747838D+02 -.315897613799190D+02 0.848846294938438D+03
 0.135136942245698D+04 0.400209655877447D+03 0.351959558658890D+03 -.124183574451809D+04
 0.000000000000000D+00 0.000000000000000D+00 0.000000000000000D+00 0.000000000000000D+00
 0.143581937747316D+04 0.000000000000000D+00 0.000000000000000D+00 0.143581937747316D+04
 0.143581937747316D+04 -.000000000000000D+00 -.000000000000000D+00 -.143581937747316D+04
 0.649415815794727D+03 -.413262403487379D+03 -.313831198765749D+03 0.369918999714017D+03
 0.820531414755241D+03 0.298952568820330D+02 -.233164180944851D+02 0.819655062122744D+03
 0.685584766835395D+03 0.349056652216412D+03 -.497690230862097D+02 -.587970212171720D+03
 0.716106757560949D+03 0.343104943889336D+02 0.386916639946444D+03 -.601603849665041D+03
0.689612896448D-01 0.000000000000D+00 0.000000000000D+00 0.145786926282D-03 0.000000000000D+00  6 -1 -3 25 -1 -3 21 0 0.24693139D+00 0.19760440D+00 0.31023581D+06 0.31023581D+06 0.31023581D+06 0.10834755D+01  1  2  2  4  6  5       -3 0.236145731802D-03 0.100000000000D+01
0.358159047602D-01 0.000000000000D+00 -.264829510161D-03 0.145786926282D-03 0.000000000000D+00  6 -1 -3 25 -1 -3 21 2 0.24693139D+00 0.19760440D+00 0.31023581D+06 0.31023581D+06 0.31023581D+06 0.10834755D+01  1  2  3  4  6  5       -3 0.143975584159D-03 0.100000000000D+01
-.446565243912D-01 0.000000000000D+00 0.000000000000D+00 0.145786926282D-03 0.000000000000D+00  6 -1 -3 25 -1 -3 21 2 0.24693139D+00 0.19760440D+00 0.31023581D+06 0.31023581D+06 0.31023581D+06 0.10834755D+01  1  2 15  4  6  5       -3 -.179513800609D-03 0.100000000000D+01
-.170589344062D-01 0.000000000000D+00 0.000000000000D+00 0.145786926282D-03 0.000000000000D+00  6 -1 -3 25 -1 -3 21 2 0.24693139D+00 0.19760440D+00 0.31023581D+06 0.31023581D+06 0.31023581D+06 0.10834755D+01  1  2  4  4  6  5       -3 -.685748430121D-04 0.100000000000D+01
-.891800605525D-01 0.000000000000D+00 0.000000000000D+00 0.145786926282D-03 0.000000000000D+00  6 -1 -3 25 -1 -3 21 2 0.24693139D+00 0.19760440D+00 0.31023581D+06 0.31023581D+06 0.31023581D+06 0.10834755D+01  1  2  5  4  6  5       -3 -.358493004696D-03 0.100000000000D+01
0.146079142055D+00 0.000000000000D+00 -.000000000000D+00 0.145786926282D-03 0.000000000000D+00  6 -1 -3 25 -1 -3 21 2 0.24693139D+00 0.19760440D+00 0.31023581D+06 0.31023581D+06 0.31023581D+06 0.10834755D+01  1  2  6  4  6  5       -3 0.587220396962D-03 0.100000000000D+01
  </mgrwgt>
  </event>
  <event>
  5     66 0.25917516E-05 0.16397104E+02 0.75467711E-02 0.82413425E-01
       -3 -1    0    0    0  501 0.00000000E+00 0.00000000E+00 0.49694564E+03 0.49694589E+03 0.50000000E+00 0.0000E+00 0.9000E+01
       -1 -1    0    0    0  502 0.00000000E+00 0.00000000E+00 -.15140313E+04 0.15140313E+04 0.32000000E+00 0.0000E+00 0.9000E+01
       25  1    1    2    0    0 0.45247310E+03 0.39543980E+03 -.39967067E+03 0.73243852E+03 0.12500000E+03 0.0000E+00 0.9000E+01
       -3  1    1    2    0  501 0.15323415E+01 -.16335157E+02 0.23799164E+03 0.23855703E+03 0.50000000E+00 0.0000E+00 0.9000E+01
       -1  1    1    2    0  502 -.45400544E+03 -.37910465E+03 -.85540660E+03 0.10399816E+04 0.32000000E+00 0.0000E+00 0.9000E+01
#aMCatNLO 1  0  0  2  5 0.11549175D+02 0.00000000D+00  -5  6  0 0.00000000D+00 0.00000000D+00 0.00000000D+00 0.00000000D+00 0.00000000D+00
  <mgrwgt>
 0.2511506595D-03    5    4    0
 0.867405049886856D+03 0.000000000000000D+00 0.000000000000000D+00 0.867405049886856D+03
 0.867405049886856D+03 0.000000000000000D+00 0.000000000000000D+00 -.867405049886856D+03
 0.614867468863664D+03 0.452600738526243D+03 0.395541370974878D+03 -.337134928422194D+02
 0.415815213012063D+03 0.153142933676194D+01 -.163254329021174D+02 0.415491788531389D+03
 0.704127417897985D+03 -.454132167863005D+03 -.379215938072761D+03 -.381778295689170D+03
 0.000000000000000D+00 -.000000000000000D+00 -.000000000000000D+00 -.000000000000000D+00
 0.139940099266535D+04 0.000000000000000D+00 0.000000000000000D+00 0.139940099266535D+04
 0.354955166693136D+04 0.000000000000000D+00 0.000000000000000D+00 -.354955166693136D+04
 0.129199214640032D+04 0.723788581744323D+03 0.106236161249220D+04 -.337134928422194D+02
 0.541222961821851D+03 0.137638522083936D+03 0.318346517657653D+03 0.415491788531389D+03
 0.478238664001221D+03 -.285979617419449D+03 0.342521693761315D+02 -.381778295689170D+03
 0.263749888737332D+04 -.575447486408810D+03 -.141496029952599D+04 -.215015067426601D+04
 0.867405049886856D+03 0.000000000000000D+00 0.000000000000000D+00 0.867405049886856D+03
 0.867405049886856D+03 0.000000000000000D+00 0.000000000000000D+00 -.867405049886856D+03
 0.614867468863664D+03 0.452600738526243D+03 0.395541370974878D+03 -.337134928422194D+02
 0.000000000000000D+00 -.000000000000000D+00 -.000000000000000D+00 -.000000000000000D+00
 0.415815213012063D+03 0.153142933676194D+01 -.163254329021174D+02 0.415491788531389D+03
 0.704127417897985D+03 -.454132167863005D+03 -.379215938072761D+03 -.381778295689170D+03
 0.139940099266535D+04 0.000000000000000D+00 0.000000000000000D+00 0.139940099266535D+04
 0.354955166693136D+04 0.000000000000000D+00 0.000000000000000D+00 -.354955166693136D+04
 0.129199214640032D+04 0.723788581744323D+03 0.106236161249220D+04 -.337134928422194D+02
 0.263749888737332D+04 -.575447486408810D+03 -.141496029952599D+04 -.215015067426601D+04
 0.541222961821851D+03 0.137638522083936D+03 0.318346517657653D+03 0.415491788531389D+03
 0.478238664001221D+03 -.285979617419449D+03 0.342521693761315D+02 -.381778295689170D+03
0.269965105238D-02 0.000000000000D+00 0.000000000000D+00 0.507366915154D-05 0.000000000000D+00  6 -3 -1 25 -3 -1 21 0 0.76453197D-01 0.23292791D+00 0.37331002D+06 0.37331002D+06 0.37331002D+06 0.10775963D+01  1  2  2  2  6  2       -1 0.218651797087D-03 0.100000000000D+01
0.225433740551D-02 0.000000000000D+00 -.103673708756D-04 0.507366915154D-05 0.000000000000D+00  6 -3 -1 25 -3 -1 21 2 0.76453197D-01 0.23292791D+00 0.37331002D+06 0.37331002D+06 0.37331002D+06 0.10775963D+01  1  2  3  2  6  2       -1 0.212019845419D-03 0.100000000000D+01
-.190881740459D-02 0.000000000000D+00 0.000000000000D+00 0.507366915154D-05 0.000000000000D+00  6 -3 -1 25 -3 -1 21 2 0.76453197D-01 0.23292791D+00 0.37331002D+06 0.37331002D+06 0.37331002D+06 0.10775963D+01  1  2 15  2  6  2       -1 -.179523779389D-03 0.100000000000D+01
0.537137472974D-03 0.000000000000D+00 -.148468009108D-02 0.507366915154D-05 0.000000000000D+00  6 -3 -1 25 -3 -1 21 2 0.76453197D-01 0.96103592D+00 0.37331002D+06 0.37331002D+06 0.37331002D+06 0.10775963D+01  1  2  5  2  6  2       -1 0.279536105598D-08 0.100000000000D+01
0.100849263794D-03 0.000000000000D+00 -.252091304233D-03 0.507366915154D-05 0.000000000000D+00  6 -3 21 25 1 -3 -1 2 0.76453197D-01 0.96103592D+00 0.37331002D+06 0.37331002D+06 0.37331002D+06 0.10775963D+01  3  4  5  6  4  2       -1 0.101022850171D-11 0.100000000000D+01
  </mgrwgt>
  </event>
  <event>
  5     66 0.25917516E-05 0.11007203E+03 0.75467711E-02 0.90685069E-01
       -1 -1    0    0    0  501 0.00000000E+00 0.00000000E+00 0.56662542E+03 0.56662551E+03 0.32000000E+00 0.0000E+00 0.9000E+01
       -3 -1    0    0    0  502 0.00000000E+00 0.00000000E+00 -.13248898E+04 0.13248899E+04 0.50000000E+00 0.0000E+00 0.9000E+01
       25  1    1    2    0    0 0.18666098E+03 -.51777891E+03 -.30232100E+03 0.64028143E+03 0.12500000E+03 0.0000E+00 0.9000E+01
       -1  1    1    2    0  501 0.44720984E+02 -.10062030E+03 0.25694960E+03 0.27954894E+03 0.32000000E+00 0.0000E+00 0.9000E+01
       -3  1    1    2    0  502 -.23138197E+03 0.61839921E+03 -.71289302E+03 0.97168509E+03 0.50000000E+00 0.0000E+00 0.9000E+01
#aMCatNLO 1  0  0  1  1 0.96316298D+02 0.00000000D+00  -5  6  0 0.00000000D+00 0.00000000D+00 0.00000000D+00 0.00000000D+00 0.00000000D+00
  <mgrwgt>
 0.3168550198D-04    7    4    0
 0.866438944734083D+03 0.000000000000000D+00 0.000000000000000D+00 0.866438944734083D+03
 0.866438944734083D+03 0.000000000000000D+00 0.000000000000000D+00 -.866438944734083D+03
 0.566725604526285D+03 0.186705557664374D+03 -.517895606417175D+03 -.497803818457143D+02
 0.417427688867166D+03 0.447051963416410D+02 -.100584778543121D+03 0.402653726145022D+03
 0.748724596074715D+03 -.231410754006015D+03 0.618480384960296D+03 -.352873344299307D+03
 0.000000000000000D+00 0.000000000000000D+00 0.000000000000000D+00 0.000000000000000D+00
 0.929891895237340D+03 0.000000000000000D+00 0.000000000000000D+00 0.929891895237340D+03
 0.905113206968533D+03 0.000000000000000D+00 0.000000000000000D+00 -.905113206968533D+03
 0.574663305719255D+03 0.160174708268766D+03 -.535237229043807D+03 -.497803818457143D+02
 0.419050901931459D+03 0.252617907540100D+02 -.113293764872562D+03 0.402653726145022D+03
 0.741838329473050D+03 -.266057928284129D+03 0.595833608279648D+03 -.352873344299307D+03
 0.994525650821096D+02 0.806214292613524D+02 0.526973856367207D+02 0.247786882688075D+02
 0.866438944734083D+03 0.000000000000000D+00 0.000000000000000D+00 0.866438944734083D+03
 0.866438944734083D+03 0.000000000000000D+00 0.000000000000000D+00 -.866438944734083D+03
 0.566725604526285D+03 0.186705557664374D+03 -.517895606417175D+03 -.497803818457143D+02
 0.000000000000000D+00 0.000000000000000D+00 0.000000000000000D+00 0.000000000000000D+00
 0.417427688867166D+03 0.447051963416410D+02 -.100584778543121D+03 0.402653726145022D+03
 0.748724596074715D+03 -.231410754006015D+03 0.618480384960296D+03 -.352873344299307D+03
 0.929891895237340D+03 0.000000000000000D+00 0.000000000000000D+00 0.929891895237340D+03
 0.905113206968533D+03 0.000000000000000D+00 0.000000000000000D+00 -.905113206968533D+03
 0.574663305719255D+03 0.160174708268766D+03 -.535237229043807D+03 -.497803818457143D+02
 0.994525650821096D+02 0.806214292613524D+02 0.526973856367207D+02 0.247786882688075D+02
 0.419050901931459D+03 0.252617907540100D+02 -.113293764872562D+03 0.402653726145022D+03
 0.741838329473050D+03 -.266057928284129D+03 0.595833608279648D+03 -.352873344299307D+03
0.276211470003D-03 0.000000000000D+00 0.000000000000D+00 0.271645194471D-06 0.000000000000D+00  6 -1 -3 25 -1 -3 21 0 0.87173156D-01 0.20382922D+00 0.44553104D+06 0.44553104D+06 0.44553104D+06 0.10720687D+01  1  2  2  1  6  1       -1 0.184441857950D-04 0.100000000000D+01
0.498102175241D-04 0.000000000000D+00 -.106072477296D-05 0.271645194471D-06 0.000000000000D+00  6 -1 -3 25 -1 -3 21 2 0.87173156D-01 0.20382922D+00 0.44553104D+06 0.44553104D+06 0.44553104D+06 0.10720687D+01  1  2  3  1  6  1       -1 0.382279916984D-05 0.100000000000D+01
-.154693709219D-03 0.000000000000D+00 0.000000000000D+00 0.271645194471D-06 0.000000000000D+00  6 -1 -3 25 -1 -3 21 2 0.87173156D-01 0.20382922D+00 0.44553104D+06 0.44553104D+06 0.44553104D+06 0.10720687D+01  1  2 15  1  6  1       -1 -.118723228401D-04 0.100000000000D+01
-.538687861574D-04 0.000000000000D+00 0.000000000000D+00 0.271645194471D-06 0.000000000000D+00  6 -1 -3 25 -1 -3 21 2 0.87173156D-01 0.20382922D+00 0.44553104D+06 0.44553104D+06 0.44553104D+06 0.10720687D+01  1  2  4  1  6  1       -1 -.413428331052D-05 0.100000000000D+01
-.244454812732D-02 0.000000000000D+00 -.535889467672D-03 0.271645194471D-06 0.000000000000D+00  6 -1 -3 25 -1 -3 21 2 0.96998873D-01 0.20382922D+00 0.44553104D+06 0.44553104D+06 0.44553104D+06 0.10720687D+01  1  2  5  1  6  1       -1 -.148786151217D-03 0.100000000000D+01
0.249060612425D-02 0.000000000000D+00 0.532847518587D-03 0.271645194471D-06 0.000000000000D+00  6 -1 -3 25 -1 -3 21 2 0.87173156D-01 0.20382922D+00 0.44553104D+06 0.44553104D+06 0.44553104D+06 0.10720687D+01  1  2  6  1  6  1       -1 0.191147268522D-03 0.100000000000D+01
-.400188299339D-04 0.000000000000D+00 -.921086987160D-05 0.271645194471D-06 0.000000000000D+00  6 21 -3 25 1 -1 -3 2 0.96998873D-01 0.20382922D+00 0.44553104D+06 0.44553104D+06 0.44553104D+06 0.10720687D+01  3  4  5  5  4  1       -1 -.169359941410D-04 0.100000000000D+01
  </mgrwgt>
  </event>
  <event>
  6     66 -.25917516E-05 0.15496871E+02 0.75467711E-02 0.94309789E-01
       -3 -1    0    0    0  503 0.00000000E+00 0.00000000E+00 0.11481988E+04 0.11481989E+04 0.50000000E+00 0.0000E+00 0.9000E+01
       -1 -1    0    0    0  502 0.00000000E+00 0.00000000E+00 -.48119116E+03 0.48119127E+03 0.32000000E+00 0.0000E+00 0.9000E+01
       25  1    1    2    0    0 0.50204082E+02 -.47653659E+03 0.89231192E+02 0.50318463E+03 0.12500000E+03 0.0000E+00 0.9000E+01
       -3  1    1    2    0  501 -.49842017E+02 0.50124823E+03 0.73469209E+03 0.89078995E+03 0.50000000E+00 0.0000E+00 0.9000E+01
       -1  1    1    2    0  502 0.69208603E+01 -.18919962E+02 -.19508424E+03 0.19612197E+03 0.32000000E+00 0.0000E+00 0.9000E+01
       21  1    1    2  501  503 -.72829251E+01 -.57916807E+01 0.38168603E+02 0.39293629E+02 0.75000000E+00 0.0000E+00 0.9000E+01
#aMCatNLO 2  0  0  1  4 0.93050827D+01 0.00000000D+00  -5  6  0 0.00000000D+00 0.00000000D+00 0.00000000D+00 0.00000000D+00 0.00000000D+00
  <mgrwgt>
 -.2011084996D-03    5    2    0
 0.730219473241301D+03 0.000000000000000D+00 0.000000000000000D+00 0.730219473241301D+03
 0.730219473241301D+03 0.000000000000000D+00 0.000000000000000D+00 -.730219473241301D+03
 0.511034004918145D+03 0.476565168996725D+02 -.478537079252704D+03 -.119423089727078D+03
 0.651763728988726D+03 -.530945456774930D+02 0.498640396306326D+03 0.416334820566405D+03
 0.297641212575731D+03 0.543802877782051D+01 -.201033170536221D+02 -.296911730839327D+03
 0.000000000000000D+00 -.000000000000000D+00 -.000000000000000D+00 0.000000000000000D+00
 0.755720995174061D+03 0.000000000000000D+00 0.000000000000000D+00 0.755720995174061D+03
 0.731083605990171D+03 0.000000000000000D+00 0.000000000000000D+00 -.731083605990171D+03
 0.509384290949166D+03 0.502008049123531D+02 -.476513757085747D+03 -.119423089727078D+03
 0.653489650245437D+03 -.498400562786394D+02 0.501228499740373D+03 0.416334820566405D+03
 0.297594648322774D+03 0.692217647659778D+01 -.189230619398115D+02 -.296911730839327D+03
 0.263360116468543D+02 -.728292511031144D+01 -.579168071481443D+01 0.246373891838905D+02
-.183042337066D-02 0.000000000000D+00 0.000000000000D+00 0.613447953919D-05 0.000000000000D+00  6 -3 -1 25 -3 -1 21 2 0.17727608D+00 0.73941385D-01 0.26437190D+06 0.26437190D+06 0.26437190D+06 0.10886376D+01  1  2 13  1  6  1       -3 -.385305055967D-03 0.100000000000D+01
-.414327701215D-02 0.000000000000D+00 0.000000000000D+00 0.613447953919D-05 0.000000000000D+00  6 -3 -1 25 -3 -1 21 2 0.17068389D+00 0.73941385D-01 0.25967644D+06 0.25967644D+06 0.25967644D+06 0.10892205D+01  1  2  8  1  6  1       -3 -.101088029407D-02 0.100000000000D+01
-.137558248821D-02 0.000000000000D+00 0.000000000000D+00 0.613447953919D-05 0.000000000000D+00  6 -3 -1 25 -3 -1 21 2 0.17673352D+00 0.73941385D-01 0.25967644D+06 0.25967644D+06 0.25967644D+06 0.10892205D+01  1  2  9  1  6  1       -3 -.293672218360D-03 0.100000000000D+01
0.137474853771D-02 0.000000000000D+00 0.000000000000D+00 0.613447953919D-05 0.000000000000D+00  6 -3 -1 25 -3 -1 21 2 0.17068389D+00 0.73941385D-01 0.25967644D+06 0.25967644D+06 0.25967644D+06 0.10892205D+01  1  2 10  1  6  1       -3 0.335412332317D-03 0.100000000000D+01
0.541561681257D-02 0.000000000000D+00 0.000000000000D+00 0.613447953919D-05 0.287837810667D-06  6 -3 -1 25 -3 -1 21 2 0.17664470D+00 0.74028886D-01 0.26437190D+06 0.26437190D+06 0.26437190D+06 0.10886376D+01  1  2  1  1  6  1       -3 0.115333673651D-02 0.100000000000D+01
  </mgrwgt>
  </event>
</LesHouchesEvents>
