<LesHouchesEvents version="3.0">
  <!--
  <scalesfunctionalform>
    muR  H_T/2 := sum_i mT(i)/2, i=final state
    muF1 H_T/2 := sum_i mT(i)/2, i=final state
    muF2 H_T/2 := sum_i mT(i)/2, i=final state
    QES  H_T/2 := sum_i mT(i)/2, i=final state
  </scalesfunctionalform>
HERWIG6   
  -->
  <header>
       43
  </header>
  <init>
   2212   2212 0.65000000D+04 0.65000000D+04 -1 -1   247000   247000 -3   1
 0.84256010D-02 0.26478836D-03 0.48379648D-03     66
  </init>
  <event>
  5     66 0.48379648E-03 0.39195311E+02 0.75467711E-02 0.11739041E+00
       21 -1    0    0  501  502 0.00000000E+00 0.00000000E+00 0.39536155E+03 0.39536226E+03 0.75000000E+00 0.0000E+00 0.9000E+01
       -1 -1    0    0    0  501 0.00000000E+00 0.00000000E+00 -.66719179E+02 0.66719946E+02 0.32000000E+00 0.0000E+00 0.9000E+01
       25  1    1    2    0    0 0.31883844E+02 0.53179954E+02 0.20177555E+03 0.24532236E+03 0.12500000E+03 0.0000E+00 0.9000E+01
       23  1    1    2    0    0 -.53542873E+02 -.85845988E+02 0.92636736E+02 0.16472155E+03 0.91188000E+02 0.0000E+00 0.9000E+01
       -1  1    1    2    0  502 0.21659029E+02 0.32666034E+02 0.34230085E+02 0.52038298E+02 0.32000000E+00 0.0000E+00 0.9000E+01
#aMCatNLO 1  0  0  2  1 0.31169530D+02 0.00000000D+00  -5  6  0 0.00000000D+00 0.00000000D+00 0.00000000D+00 0.00000000D+00 0.00000000D+00
  <mgrwgt>
 0.3728251622D-01    9    4    0
 0.162414714295723D+03 0.000000000000000D+00 0.000000000000000D+00 0.162414714295723D+03
 0.162414714295723D+03 0.000000000000000D+00 0.000000000000000D+00 -.162414714295723D+03
 0.144836096745555D+03 0.318835255236593D+02 0.531794734532059D+02 0.388314218630944D+02
 0.140598920817961D+03 -.535431827052058D+02 -.858464545459408D+02 -.348757654950249D+02
 0.393944110279296D+02 0.216596571815464D+02 0.326669810927349D+02 -.395565636806953D+01
 0.000000000000000D+00 0.000000000000000D+00 0.000000000000000D+00 -.000000000000000D+00
 0.169903921167742D+03 0.000000000000000D+00 0.000000000000000D+00 0.169903921167742D+03
 0.199180020140454D+03 0.000000000000000D+00 0.000000000000000D+00 -.199180020140454D+03
 0.141609669414172D+03 0.183762636186244D+02 0.508205871975149D+02 0.388314218630944D+02
 0.147723095183385D+03 -.671389185938146D+02 -.882207917542606D+02 -.348757654950249D+02
 0.369886984628406D+02 0.180578351722887D+02 0.320379647537597D+02 -.395565636806953D+01
 0.427624782477981D+02 0.307048198029015D+02 0.536223980298589D+01 -.292760989727120D+02
 0.162414714295723D+03 0.000000000000000D+00 0.000000000000000D+00 0.162414714295723D+03
 0.162414714295723D+03 0.000000000000000D+00 0.000000000000000D+00 -.162414714295723D+03
 0.144836096745555D+03 0.318835255236593D+02 0.531794734532059D+02 0.388314218630944D+02
 0.140598920817961D+03 -.535431827052058D+02 -.858464545459408D+02 -.348757654950249D+02
 0.000000000000000D+00 0.000000000000000D+00 0.000000000000000D+00 -.000000000000000D+00
 0.393944110279296D+02 0.216596571815464D+02 0.326669810927349D+02 -.395565636806953D+01
 0.169903921167742D+03 0.000000000000000D+00 0.000000000000000D+00 0.169903921167742D+03
 0.199180020140454D+03 0.000000000000000D+00 0.000000000000000D+00 -.199180020140454D+03
 0.141609669414172D+03 0.183762636186244D+02 0.508205871975149D+02 0.388314218630944D+02
 0.147723095183385D+03 -.671389185938146D+02 -.882207917542606D+02 -.348757654950249D+02
 0.427624782477981D+02 0.307048198029015D+02 0.536223980298589D+01 -.292760989727120D+02
 0.369886984628406D+02 0.180578351722887D+02 0.320379647537597D+02 -.395565636806953D+01
0.257154106476D-05 0.000000000000D+00 0.000000000000D+00 0.208107524514D-06 0.000000000000D+00  6 21 -1 25 23 -1 21 2 0.60824967D-01 0.10264603D-01 0.24795799D+05 0.24795799D+05 0.24795799D+05 0.12236797D+01  1  2  2  2  6  2       -1 0.508458707304D-02 0.100000000000D+01
-.321898239354D-07 0.135703950243D-06 -.519120051593D-08 0.208107524514D-06 0.000000000000D+00  6 21 -1 25 23 -1 21 4 0.60824967D-01 0.10264603D-01 0.24795799D+05 0.24795799D+05 0.24795799D+05 0.12236797D+01  1  2  3  2  6  2       -1 -.953051440503D-04 0.100000000000D+01
0.275385222660D-06 0.000000000000D+00 0.000000000000D+00 0.208107524514D-06 0.000000000000D+00  6 21 -1 25 23 -1 21 4 0.60824967D-01 0.10264603D-01 0.24795799D+05 0.24795799D+05 0.24795799D+05 0.12236797D+01  1  2 15  2  6  2       -1 0.815339293799D-03 0.100000000000D+01
0.121679259547D-04 0.000000000000D+00 0.000000000000D+00 0.205019297186D-06 0.000000000000D+00  6 21 -1 25 23 -1 21 4 0.60824967D-01 0.12786698D-01 0.30219451D+05 0.30219451D+05 0.30219451D+05 0.12145663D+01  1  2 12  2  6  2       -1 0.248503879363D-01 0.100000000000D+01
-.247333997638D-05 0.000000000000D+00 0.000000000000D+00 0.208107524514D-06 0.000000000000D+00  6 21 -1 25 23 -1 21 4 0.60824967D-01 0.10264603D-01 0.24795799D+05 0.24795799D+05 0.24795799D+05 0.12236797D+01  1  2  4  2  6  2       -1 -.732287393704D-02 0.100000000000D+01
-.199424371427D-04 0.000000000000D+00 -.416369344907D-05 0.208107524514D-06 0.000000000000D+00  6 21 -1 25 23 -1 21 4 0.60824967D-01 0.13133488D-01 0.24795799D+05 0.24795799D+05 0.24795799D+05 0.12236797D+01  1  2  5  2  6  2       -1 -.403396756438D-01 0.100000000000D+01
0.204671871703D-04 0.000000000000D+00 0.404035629923D-05 0.208107524514D-06 0.000000000000D+00  6 21 -1 25 23 -1 21 4 0.60824967D-01 0.10264603D-01 0.24795799D+05 0.24795799D+05 0.24795799D+05 0.12236797D+01  1  2  6  2  6  2       -1 0.605976666877D-01 0.100000000000D+01
0.373994031077D-06 0.000000000000D+00 0.000000000000D+00 0.205019297186D-06 0.000000000000D+00  6 21 21 25 23 1 -1 4 0.60824967D-01 0.12786698D-01 0.30219451D+05 0.30219451D+05 0.30219451D+05 0.12145663D+01  3  4 12 10  5  2       -1 0.107949299529D-01 0.100000000000D+01
-.599687549156D-06 0.000000000000D+00 -.139438204967D-06 0.208107524514D-06 0.000000000000D+00  6 21 21 25 23 1 -1 4 0.60824967D-01 0.13133488D-01 0.24795799D+05 0.24795799D+05 0.24795799D+05 0.12236797D+01  3  4  5 10  5  2       -1 -.171025399991D-01 0.100000000000D+01
  </mgrwgt>
  </event>
  <event>
  5     66 0.48379648E-03 0.28243648E+02 0.75467711E-02 0.12144015E+00
       21 -1    0    0  501  502 0.00000000E+00 0.00000000E+00 0.31260497E+03 0.31260586E+03 0.75000000E+00 0.0000E+00 0.9000E+01
       -1 -1    0    0    0  501 0.00000000E+00 0.00000000E+00 -.83629070E+02 0.83629682E+02 0.32000000E+00 0.0000E+00 0.9000E+01
       25  1    1    2    0    0 0.59441291E+02 -.99982786E+01 0.21550772E+03 0.25632364E+03 0.12500000E+03 0.0000E+00 0.9000E+01
       23  1    1    2    0    0 -.51310915E+02 0.37045092E+02 0.97661912E+01 0.11142611E+03 0.91188000E+02 0.0000E+00 0.9000E+01
       -1  1    1    2    0  502 -.81303761E+01 -.27046813E+02 0.37019830E+01 0.28485789E+02 0.32000000E+00 0.0000E+00 0.9000E+01
#aMCatNLO 1  0  0  5  2 0.42082337D+01 0.00000000D+00  -5  6  0 0.00000000D+00 0.00000000D+00 0.00000000D+00 0.00000000D+00 0.00000000D+00
  <mgrwgt>
 0.3342363818D-01    5    2    0
 0.161688471922015D+03 0.000000000000000D+00 0.000000000000000D+00 0.161688471922015D+03
 0.161688471922015D+03 -.000000000000000D+00 -.000000000000000D+00 -.161688471922015D+03
 0.161478858523810D+03 0.594414909184310D+02 -.999761498488394D+01 0.825662073863196D+02
 0.129615739787593D+03 -.513107552790992D+02 0.370456243533993D+02 -.669314333152976D+02
 0.322823455326265D+02 -.813073563933175D+01 -.270480093685153D+02 -.156347740710219D+02
 0.000000000000000D+00 0.000000000000000D+00 0.000000000000000D+00 0.000000000000000D+00
 0.161688471922015D+03 0.000000000000000D+00 0.000000000000000D+00 0.161688471922015D+03
 0.161688471922015D+03 -.000000000000000D+00 -.000000000000000D+00 -.161688471922015D+03
 0.158734143028826D+03 0.567587640558861D+02 -.189220745332017D+02 0.774075316833179D+02
 0.130855302077954D+03 -.534929672990346D+02 0.297861962059911D+02 -.711276577924179D+02
 0.106508170870335D+02 0.650994503637517D+01 0.704451386945161D+01 0.462983202588631D+01
 0.231366816502156D+02 -.977574179322666D+01 -.179086355422411D+02 -.109097059167863D+02
0.130321961154D-04 0.000000000000D+00 0.000000000000D+00 0.164664652593D-06 0.000000000000D+00  6 21 -1 25 23 -1 21 2 0.48093188D-01 0.12866127D-01 0.19323102D+05 0.19323102D+05 0.19323102D+05 0.12354757D+01  1  2  2  3  6  5       -1 0.303494579857D-01 0.100000000000D+01
-.216016996109D-06 0.687727883265D-06 -.263082492148D-07 0.164664652593D-06 0.000000000000D+00  6 21 -1 25 23 -1 21 4 0.48093188D-01 0.12866127D-01 0.19323102D+05 0.19323102D+05 0.19323102D+05 0.12354757D+01  1  2  3  3  6  5       -1 -.767873434160D-03 0.100000000000D+01
0.124453952422D-05 0.000000000000D+00 0.000000000000D+00 0.164664652593D-06 0.000000000000D+00  6 21 -1 25 23 -1 21 4 0.48093188D-01 0.12866127D-01 0.19323102D+05 0.19323102D+05 0.19323102D+05 0.12354757D+01  1  2 15  3  6  5       -1 0.442395207609D-02 0.100000000000D+01
-.150581070585D-04 0.000000000000D+00 0.000000000000D+00 0.164664652593D-06 0.000000000000D+00  6 21 -1 25 23 -1 21 4 0.48093188D-01 0.12866127D-01 0.19323102D+05 0.19323102D+05 0.19323102D+05 0.12354757D+01  1  2  4  3  6  5       -1 -.535269010642D-01 0.100000000000D+01
0.149010348011D-04 0.000000000000D+00 0.000000000000D+00 0.164664652593D-06 0.235832786654D-07  6 21 -1 25 23 -1 21 4 0.48093188D-01 0.12866127D-01 0.19378270D+05 0.19378270D+05 0.19378270D+05 0.12353388D+01  1  2 11  3  6  5       -1 0.529450026191D-01 0.100000000000D+01
  </mgrwgt>
  </event>
  <event>
  5     66 0.48379648E-03 0.30191032E+02 0.75467711E-02 0.12058378E+00
       21 -1    0    0  501  502 0.00000000E+00 0.00000000E+00 0.24078512E+03 0.24078629E+03 0.75000000E+00 0.0000E+00 0.9000E+01
       -1 -1    0    0    0  501 0.00000000E+00 0.00000000E+00 -.12891253E+03 0.12891293E+03 0.32000000E+00 0.0000E+00 0.9000E+01
       25  1    1    2    0    0 0.27388890E+01 -.31366922E+02 0.35294864E+02 0.13364922E+03 0.12500000E+03 0.0000E+00 0.9000E+01
       23  1    1    2    0    0 -.24580406E+02 0.52258576E+02 0.13345442E+03 0.17164058E+03 0.91188000E+02 0.0000E+00 0.9000E+01
       -1  1    1    2    0  502 0.21841517E+02 -.20891654E+02 -.56876694E+02 0.64409424E+02 0.32000000E+00 0.0000E+00 0.9000E+01
#aMCatNLO 1  0  0  1  5 0.21729080D+02 0.00000000D+00  -5  6  0 0.00000000D+00 0.00000000D+00 0.00000000D+00 0.00000000D+00 0.00000000D+00
  <mgrwgt>
 0.2798175802D-01   32    4    0
 0.176183169274741D+03 0.000000000000000D+00 0.000000000000000D+00 0.176183169274741D+03
 0.176183169274741D+03 0.000000000000000D+00 0.000000000000000D+00 -.176183169274741D+03
 0.129017643626359D+03 0.273883313014480D+01 -.313668684517827D+02 -.540099282651295D+01
 0.137713370702677D+03 -.245804658080045D+02 0.522586331099106D+02 0.855251839661167D+02
 0.856353242204461D+02 0.218416326778597D+02 -.208917646581279D+02 -.801241911396038D+02
 0.000000000000000D+00 -.000000000000000D+00 0.000000000000000D+00 0.000000000000000D+00
 0.190037181895084D+03 0.000000000000000D+00 0.000000000000000D+00 0.190037181895084D+03
 0.185248901053555D+03 0.000000000000000D+00 0.000000000000000D+00 -.185248901053555D+03
 0.131179088041490D+03 0.471086285673309D+01 -.391355361152743D+02 -.540099282651295D+01
 0.134478494959304D+03 -.225175250209305D+02 0.441318279364582D+02 0.855251839661167D+02
 0.873780943181387D+02 0.231529005107404D+02 -.260574089048305D+02 -.801241911396038D+02
 0.222504056297065D+02 -.534623834654300D+01 0.210611170836466D+02 0.478828084152922D+01
 0.176183169274741D+03 0.000000000000000D+00 0.000000000000000D+00 0.176183169274741D+03
 0.176183169274741D+03 0.000000000000000D+00 0.000000000000000D+00 -.176183169274741D+03
 0.129017643626359D+03 0.273883313014480D+01 -.313668684517827D+02 -.540099282651295D+01
 0.137713370702677D+03 -.245804658080045D+02 0.522586331099106D+02 0.855251839661167D+02
 0.000000000000000D+00 -.000000000000000D+00 0.000000000000000D+00 0.000000000000000D+00
 0.856353242204461D+02 0.218416326778597D+02 -.208917646581279D+02 -.801241911396038D+02
 0.190037181895084D+03 0.000000000000000D+00 0.000000000000000D+00 0.190037181895084D+03
 0.185248901053555D+03 0.000000000000000D+00 0.000000000000000D+00 -.185248901053555D+03
 0.131179088041490D+03 0.471086285673309D+01 -.391355361152743D+02 -.540099282651295D+01
 0.134478494959304D+03 -.225175250209305D+02 0.441318279364582D+02 0.855251839661167D+02
 0.222504056297065D+02 -.534623834654300D+01 0.210611170836466D+02 0.478828084152922D+01
 0.873780943181387D+02 0.231529005107404D+02 -.260574089048305D+02 -.801241911396038D+02
0.219296471216D-05 0.000000000000D+00 0.000000000000D+00 0.108392999726D-06 0.000000000000D+00  6 21 -1 25 23 -1 21 2 0.37043985D-01 0.19832818D-01 0.17831085D+05 0.17831085D+05 0.17831085D+05 0.12393524D+01  1  2  2  1  6  1       21 0.440048296487D-02 0.100000000000D+01
-.276140383780D-06 0.115725927251D-06 -.442696393271D-08 0.108392999726D-06 0.000000000000D+00  6 21 -1 25 23 -1 21 4 0.37043985D-01 0.19832818D-01 0.17831085D+05 0.17831085D+05 0.17831085D+05 0.12393524D+01  1  2  3  1  6  1       21 -.851114986709D-03 0.100000000000D+01
0.275876985737D-06 0.000000000000D+00 0.000000000000D+00 0.108392999726D-06 0.000000000000D+00  6 21 -1 25 23 -1 21 4 0.37043985D-01 0.19832818D-01 0.17831085D+05 0.17831085D+05 0.17831085D+05 0.12393524D+01  1  2 15  1  6  1       21 0.850303145936D-03 0.100000000000D+01
0.465774010479D-05 0.000000000000D+00 0.000000000000D+00 0.106932660041D-06 0.000000000000D+00  6 21 -1 25 23 -1 21 4 0.40847789D-01 0.19832818D-01 0.21233241D+05 0.21233241D+05 0.21233241D+05 0.12309754D+01  1  2 12  1  6  1       21 0.114887049252D-01 0.100000000000D+01
0.361462962218D-05 0.000000000000D+00 0.000000000000D+00 0.106932660041D-06 0.000000000000D+00  6 21 -1 25 23 -1 21 4 0.41885109D-01 0.19832818D-01 0.21233241D+05 0.21233241D+05 0.21233241D+05 0.12309754D+01  1  2 12  1  6  1       21 0.847642210220D-02 0.100000000000D+01
-.416246486100D-05 0.000000000000D+00 0.000000000000D+00 0.108392999726D-06 0.000000000000D+00  6 21 -1 25 23 -1 21 4 0.37043985D-01 0.19832818D-01 0.17831085D+05 0.17831085D+05 0.17831085D+05 0.12393524D+01  1  2  4  1  6  1       21 -.128294752703D-01 0.100000000000D+01
-.263238182571D-04 0.000000000000D+00 -.622634009836D-05 0.108392999726D-06 0.000000000000D+00  6 21 -1 25 23 -1 21 4 0.41816349D-01 0.19832818D-01 0.17831085D+05 0.17831085D+05 0.17831085D+05 0.12393524D+01  1  2  5  1  6  1       21 -.636991798231D-01 0.100000000000D+01
0.262938507226D-04 0.000000000000D+00 0.604720968696D-05 0.108392999726D-06 0.000000000000D+00  6 21 -1 25 23 -1 21 4 0.37043985D-01 0.19832818D-01 0.17831085D+05 0.17831085D+05 0.17831085D+05 0.12393524D+01  1  2  6  1  6  1       21 0.810424397254D-01 0.100000000000D+01
0.115983899685D-06 0.000000000000D+00 0.000000000000D+00 0.106932660041D-06 0.000000000000D+00  6 -1 -1 25 23 -1 -1 4 0.40847789D-01 0.19832818D-01 0.21233241D+05 0.21233241D+05 0.21233241D+05 0.12309754D+01  1  2 12  4  6  1       21 0.267795055861D-04 0.100000000000D+01
0.116724823225D-06 0.000000000000D+00 0.000000000000D+00 0.106932660041D-06 0.000000000000D+00  6 -1 -1 25 23 -1 -1 4 0.41885109D-01 0.19832818D-01 0.21233241D+05 0.21233241D+05 0.21233241D+05 0.12309754D+01  1  2 12  4  6  1       21 0.257829375742D-04 0.100000000000D+01
-.685942897129D-06 0.000000000000D+00 -.197973425221D-06 0.108392999726D-06 0.000000000000D+00  6 -1 -1 25 23 -1 -1 4 0.41816349D-01 0.19832818D-01 0.17831085D+05 0.17831085D+05 0.17831085D+05 0.12393524D+01  1  2  5  4  6  1       21 -.155709690093D-03 0.100000000000D+01
0.115983899685D-06 0.000000000000D+00 0.000000000000D+00 0.106932660041D-06 0.000000000000D+00  6 1 -1 25 23 1 -1 4 0.40847789D-01 0.19832818D-01 0.21233241D+05 0.21233241D+05 0.21233241D+05 0.12309754D+01  3  4 12  5  5  1       21 0.545534618001D-04 0.100000000000D+01
0.116724823225D-06 0.000000000000D+00 0.000000000000D+00 0.106932660041D-06 0.000000000000D+00  6 1 -1 25 23 1 -1 4 0.41885109D-01 0.19832818D-01 0.21233241D+05 0.21233241D+05 0.21233241D+05 0.12309754D+01  3  4 12  5  5  1       21 0.532235945263D-04 0.100000000000D+01
-.685942897129D-06 0.000000000000D+00 -.197973425221D-06 0.108392999726D-06 0.000000000000D+00  6 1 -1 25 23 1 -1 4 0.41816349D-01 0.19832818D-01 0.17831085D+05 0.17831085D+05 0.17831085D+05 0.12393524D+01  3  4  5  5  5  1       21 -.321093235374D-03 0.100000000000D+01
0.115983899685D-06 0.000000000000D+00 0.000000000000D+00 0.106932660041D-06 0.000000000000D+00  6 -2 -1 25 23 -1 -2 4 0.40847789D-01 0.19832818D-01 0.21233241D+05 0.21233241D+05 0.21233241D+05 0.12309754D+01  1  2 12  6  6  1       21 0.225774139388D-04 0.100000000000D+01
0.115983899685D-06 0.000000000000D+00 0.000000000000D+00 0.106932660041D-06 0.000000000000D+00  6 -4 -1 25 23 -1 -4 4 0.40847789D-01 0.19832818D-01 0.21233241D+05 0.21233241D+05 0.21233241D+05 0.12309754D+01  1  2 12  6  6  1       21 0.117746823670D-04 0.100000000000D+01
0.116724823225D-06 0.000000000000D+00 0.000000000000D+00 0.106932660041D-06 0.000000000000D+00  6 -2 -1 25 23 -1 -2 4 0.41885109D-01 0.19832818D-01 0.21233241D+05 0.21233241D+05 0.21233241D+05 0.12309754D+01  1  2 12  6  6  1       21 0.216604657671D-04 0.100000000000D+01
0.116724823225D-06 0.000000000000D+00 0.000000000000D+00 0.106932660041D-06 0.000000000000D+00  6 -4 -1 25 23 -1 -4 4 0.41885109D-01 0.19832818D-01 0.21233241D+05 0.21233241D+05 0.21233241D+05 0.12309754D+01  1  2 12  6  6  1       21 0.112756897212D-04 0.100000000000D+01
-.685942897129D-06 0.000000000000D+00 -.197973425221D-06 0.108392999726D-06 0.000000000000D+00  6 -2 -1 25 23 -1 -2 4 0.41816349D-01 0.19832818D-01 0.17831085D+05 0.17831085D+05 0.17831085D+05 0.12393524D+01  1  2  5  6  6  1       21 -.130786002546D-03 0.100000000000D+01
-.685942897129D-06 0.000000000000D+00 -.197973425221D-06 0.108392999726D-06 0.000000000000D+00  6 -4 -1 25 23 -1 -4 4 0.41816349D-01 0.19832818D-01 0.17831085D+05 0.17831085D+05 0.17831085D+05 0.12393524D+01  1  2  5  6  6  1       21 -.676961908646D-04 0.100000000000D+01
0.115983899685D-06 0.000000000000D+00 0.000000000000D+00 0.106932660041D-06 0.000000000000D+00  6 2 -1 25 23 2 -1 4 0.40847789D-01 0.19832818D-01 0.21233241D+05 0.21233241D+05 0.21233241D+05 0.12309754D+01  3  4 12  7  5  1       21 0.754591140062D-04 0.100000000000D+01
0.115983899685D-06 0.000000000000D+00 0.000000000000D+00 0.106932660041D-06 0.000000000000D+00  6 4 -1 25 23 4 -1 4 0.40847789D-01 0.19832818D-01 0.21233241D+05 0.21233241D+05 0.21233241D+05 0.12309754D+01  3  4 12  7  5  1       21 0.117746823670D-04 0.100000000000D+01
0.116724823225D-06 0.000000000000D+00 0.000000000000D+00 0.106932660041D-06 0.000000000000D+00  6 2 -1 25 23 2 -1 4 0.41885109D-01 0.19832818D-01 0.21233241D+05 0.21233241D+05 0.21233241D+05 0.12309754D+01  3  4 12  7  5  1       21 0.739425589111D-04 0.100000000000D+01
0.116724823225D-06 0.000000000000D+00 0.000000000000D+00 0.106932660041D-06 0.000000000000D+00  6 4 -1 25 23 4 -1 4 0.41885109D-01 0.19832818D-01 0.21233241D+05 0.21233241D+05 0.21233241D+05 0.12309754D+01  3  4 12  7  5  1       21 0.112756897212D-04 0.100000000000D+01
-.685942897129D-06 0.000000000000D+00 -.197973425221D-06 0.108392999726D-06 0.000000000000D+00  6 2 -1 25 23 2 -1 4 0.41816349D-01 0.19832818D-01 0.17831085D+05 0.17831085D+05 0.17831085D+05 0.12393524D+01  3  4  5  7  5  1       21 -.445735952599D-03 0.100000000000D+01
-.685942897129D-06 0.000000000000D+00 -.197973425221D-06 0.108392999726D-06 0.000000000000D+00  6 4 -1 25 23 4 -1 4 0.41816349D-01 0.19832818D-01 0.17831085D+05 0.17831085D+05 0.17831085D+05 0.12393524D+01  3  4  5  7  5  1       21 -.676961908646D-04 0.100000000000D+01
0.115983899685D-06 0.000000000000D+00 0.000000000000D+00 0.106932660041D-06 0.000000000000D+00  6 -3 -1 25 23 -1 -3 4 0.40847789D-01 0.19832818D-01 0.21233241D+05 0.21233241D+05 0.21233241D+05 0.12309754D+01  1  2 12  8  6  1       21 0.142049787805D-04 0.100000000000D+01
0.116724823225D-06 0.000000000000D+00 0.000000000000D+00 0.106932660041D-06 0.000000000000D+00  6 -3 -1 25 23 -1 -3 4 0.41885109D-01 0.19832818D-01 0.21233241D+05 0.21233241D+05 0.21233241D+05 0.12309754D+01  1  2 12  8  6  1       21 0.136170826758D-04 0.100000000000D+01
-.685942897129D-06 0.000000000000D+00 -.197973425221D-06 0.108392999726D-06 0.000000000000D+00  6 -3 -1 25 23 -1 -3 4 0.41816349D-01 0.19832818D-01 0.17831085D+05 0.17831085D+05 0.17831085D+05 0.12393524D+01  1  2  5  8  6  1       21 -.819094706016D-04 0.100000000000D+01
0.115983899685D-06 0.000000000000D+00 0.000000000000D+00 0.106932660041D-06 0.000000000000D+00  6 3 -1 25 23 3 -1 4 0.40847789D-01 0.19832818D-01 0.21233241D+05 0.21233241D+05 0.21233241D+05 0.12309754D+01  3  4 12  9  5  1       21 0.142079791942D-04 0.100000000000D+01
0.116724823225D-06 0.000000000000D+00 0.000000000000D+00 0.106932660041D-06 0.000000000000D+00  6 3 -1 25 23 3 -1 4 0.41885109D-01 0.19832818D-01 0.21233241D+05 0.21233241D+05 0.21233241D+05 0.12309754D+01  3  4 12  9  5  1       21 0.136202495407D-04 0.100000000000D+01
-.685942897129D-06 0.000000000000D+00 -.197973425221D-06 0.108392999726D-06 0.000000000000D+00  6 3 -1 25 23 3 -1 4 0.41816349D-01 0.19832818D-01 0.17831085D+05 0.17831085D+05 0.17831085D+05 0.12393524D+01  3  4  5  9  5  1       21 -.819281154676D-04 0.100000000000D+01
  </mgrwgt>
  </event>
  <event>
  5     66 -.48379648E-03 0.36164263E+02 0.75467711E-02 0.11698650E+00
       21 -1    0    0  501  502 0.00000000E+00 0.00000000E+00 0.67736924E+02 0.67741076E+02 0.75000000E+00 0.0000E+00 0.9000E+01
       -1 -1    0    0    0  501 0.00000000E+00 0.00000000E+00 -.15714794E+04 0.15714794E+04 0.32000000E+00 0.0000E+00 0.9000E+01
       25  1    1    2    0    0 -.12945994E+03 -.38229944E+01 -.11199464E+04 0.11343189E+04 0.12500000E+03 0.0000E+00 0.9000E+01
       23  1    1    2    0    0 0.10321340E+03 -.21056143E+02 -.42665219E+03 0.44882481E+03 0.91188000E+02 0.0000E+00 0.9000E+01
       -1  1    1    2    0  502 0.26246542E+02 0.24879138E+02 0.42856129E+02 0.56076756E+02 0.32000000E+00 0.0000E+00 0.9000E+01
#aMCatNLO 1  0  0  2  1 0.22765813D+00 0.00000000D+00  -5  6  0 0.00000000D+00 0.00000000D+00 0.00000000D+00 0.00000000D+00 0.00000000D+00
  <mgrwgt>
 -.4386556290D-01    9    4    0
 0.326267696900380D+03 0.000000000000000D+00 0.000000000000000D+00 0.326267696900380D+03
 0.326267696900380D+03 0.000000000000000D+00 0.000000000000000D+00 -.326267696900380D+03
 0.268625925306740D+03 -.129459952019255D+03 -.382300349610572D+01 -.199400083285697D+03
 0.144280017459244D+03 0.103213395118133D+03 -.210561480563132D+02 -.374847407788605D+02
 0.239629451034777D+03 0.262465569011220D+02 0.248791515524189D+02 0.236884824064558D+03
 0.000000000000000D+00 -.000000000000000D+00 -.000000000000000D+00 -.000000000000000D+00
 0.326268491526359D+03 0.000000000000000D+00 0.000000000000000D+00 0.326268491526359D+03
 0.342991472492782D+03 0.000000000000000D+00 0.000000000000000D+00 -.342991472492782D+03
 0.268592759694238D+03 -.129393042205358D+03 -.375738934183750D+01 -.199400083285697D+03
 0.144300592940481D+03 0.103249337417750D+03 -.210209017530511D+02 -.374847407788605D+02
 0.239642080879000D+03 0.263062494805165D+02 0.249376882286540D+02 0.236884824064558D+03
 0.167245305054216D+02 -.162544692908681D+00 -.159397133765398D+00 -.167229809664226D+02
 0.326267696900380D+03 0.000000000000000D+00 0.000000000000000D+00 0.326267696900380D+03
 0.326267696900380D+03 0.000000000000000D+00 0.000000000000000D+00 -.326267696900380D+03
 0.268625925306740D+03 -.129459952019255D+03 -.382300349610572D+01 -.199400083285697D+03
 0.144280017459244D+03 0.103213395118133D+03 -.210561480563132D+02 -.374847407788605D+02
 0.000000000000000D+00 -.000000000000000D+00 -.000000000000000D+00 -.000000000000000D+00
 0.239629451034777D+03 0.262465569011220D+02 0.248791515524189D+02 0.236884824064558D+03
 0.326268491526359D+03 0.000000000000000D+00 0.000000000000000D+00 0.326268491526359D+03
 0.342991472492782D+03 0.000000000000000D+00 0.000000000000000D+00 -.342991472492782D+03
 0.268592759694238D+03 -.129393042205358D+03 -.375738934183750D+01 -.199400083285697D+03
 0.144300592940481D+03 0.103249337417750D+03 -.210209017530511D+02 -.374847407788605D+02
 0.167245305054216D+02 -.162544692908681D+00 -.159397133765398D+00 -.167229809664226D+02
 0.239642080879000D+03 0.263062494805165D+02 0.249376882286540D+02 0.236884824064558D+03
0.157689074826D-05 0.000000000000D+00 0.000000000000D+00 0.261930425522D-05 0.000000000000D+00  6 21 -1 25 23 -1 21 2 0.10421387D-01 0.24176638D+00 0.31593008D+05 0.31593008D+05 0.31593008D+05 0.12125472D+01  1  2  2  2  6  2       -1 0.150868026778D-03 0.100000000000D+01
0.381357844054D-06 0.832148109834D-07 -.318328809837D-08 0.261930425522D-05 0.000000000000D+00  6 21 -1 25 23 -1 21 4 0.10421387D-01 0.24176638D+00 0.31593008D+05 0.31593008D+05 0.31593008D+05 0.12125472D+01  1  2  3  2  6  2       -1 0.536445459196D-04 0.100000000000D+01
0.168336584520D-06 0.000000000000D+00 0.000000000000D+00 0.261930425522D-05 0.000000000000D+00  6 21 -1 25 23 -1 21 4 0.10421387D-01 0.24176638D+00 0.31593008D+05 0.31593008D+05 0.31593008D+05 0.12125472D+01  1  2 15  2  6  2       -1 0.236794385615D-04 0.100000000000D+01
-.873190475497D-01 0.000000000000D+00 0.000000000000D+00 0.261930425522D-05 0.000000000000D+00  6 21 -1 25 23 -1 21 4 0.10421387D-01 0.24176638D+00 0.31593008D+05 0.31593008D+05 0.31593008D+05 0.12125472D+01  1  2  4  2  6  2       -1 -.122829272532D+02 0.100000000000D+01
-.874471552591D-01 0.000000000000D+00 -.851390421123D-05 0.261930425522D-05 0.000000000000D+00  6 21 -1 25 23 -1 21 4 0.10421387D-01 0.25415903D+00 0.31593008D+05 0.31593008D+05 0.31593008D+05 0.12125472D+01  1  2  5  2  6  2       -1 -.102921735430D+02 0.100000000000D+01
0.873384469135D-01 0.000000000000D+00 0.850327788780D-05 0.261930425522D-05 0.000000000000D+00  6 21 -1 25 23 -1 21 4 0.10421387D-01 0.24176638D+00 0.31593008D+05 0.31593008D+05 0.31593008D+05 0.12125472D+01  1  2  6  2  6  2       -1 0.122856561077D+02 0.100000000000D+01
0.871128127307D-01 0.000000000000D+00 0.000000000000D+00 0.261930425522D-05 0.395320357727D-03  6 21 -1 25 23 -1 21 4 0.10421413D-01 0.25415880D+00 0.31643340D+05 0.31643340D+05 0.31643340D+05 0.12124751D+01  1  2 11  2  6  2       -1 0.102496522477D+02 0.100000000000D+01
-.761533086985D-03 0.000000000000D+00 -.741440186854D-07 0.261930425522D-05 0.000000000000D+00  6 21 21 25 23 1 -1 4 0.10421387D-01 0.25415903D+00 0.31593008D+05 0.31593008D+05 0.31593008D+05 0.12125472D+01  3  4  5 10  5  2       -1 -.793322504803D+00 0.100000000000D+01
0.757705730423D-03 0.000000000000D+00 0.000000000000D+00 0.261930425522D-05 0.343848774813D-05  6 21 21 25 23 1 -1 4 0.10421413D-01 0.25415880D+00 0.31643340D+05 0.31643340D+05 0.31643340D+05 0.12124751D+01  3  4 11 10  5  2       -1 0.789021190674D+00 0.100000000000D+01
  </mgrwgt>
  </event>
  <event>
  6     66 -.48379648E-03 0.46934890E+02 0.75467711E-02 0.11710160E+00
       21 -1    0    0  503  502 0.00000000E+00 0.00000000E+00 0.12918589E+03 0.12918806E+03 0.75000000E+00 0.0000E+00 0.9000E+01
       -1 -1    0    0    0  501 0.00000000E+00 0.00000000E+00 -.16966968E+04 0.16966968E+04 0.32000000E+00 0.0000E+00 0.9000E+01
       25  1    1    2    0    0 0.83470323E+02 0.78153710E+02 -.53351284E+03 0.55976446E+03 0.12500000E+03 0.0000E+00 0.9000E+01
       23  1    1    2    0    0 -.65409754E+02 -.10207496E+02 -.10317963E+04 0.10379313E+04 0.91188000E+02 0.0000E+00 0.9000E+01
       -1  1    1    2    0  502 -.18970602E+02 -.51699751E+02 -.10795408E+03 0.12118966E+03 0.32000000E+00 0.0000E+00 0.9000E+01
       21  1    1    2  503  501 0.91003316E+00 -.16246463E+02 0.10575228E+03 0.10699945E+03 0.75000000E+00 0.0000E+00 0.9000E+01
#aMCatNLO 2  0  0  1  2 0.16271930D+02 0.00000000D+00  -5  6  0 0.00000000D+00 0.00000000D+00 0.00000000D+00 0.00000000D+00 0.00000000D+00
  <mgrwgt>
 -.4516371748D-01    3    2    0
 0.196527774369580D+03 0.000000000000000D+00 0.000000000000000D+00 0.196527774369580D+03
 0.196527774369580D+03 0.000000000000000D+00 0.000000000000000D+00 -.196527774369580D+03
 0.173690076213857D+03 0.838757117832231D+02 0.709181417930913D+02 0.497867925523230D+02
 0.146861277301274D+03 -.650702647459059D+02 -.162668460814231D+02 -.935640624974285D+02
 0.725041952240295D+02 -.188054470373172D+02 -.546512957116682D+02 0.437772699451054D+02
 0.000000000000000D+00 0.000000000000000D+00 -.000000000000000D+00 0.000000000000000D+00
 0.111395474162044D+04 0.000000000000000D+00 0.000000000000000D+00 0.111395474162044D+04
 0.196768275819677D+03 0.000000000000000D+00 0.000000000000000D+00 -.196768275819677D+03
 0.176575968667291D+03 0.834704036036027D+02 0.781539488471044D+02 0.497867925523230D+02
 0.146465357717503D+03 -.654096858408453D+02 -.102072951605824D+02 -.935640624974285D+02
 0.703508953402611D+02 -.189707509186162D+02 -.517001907241508D+02 0.437772699451054D+02
 0.917330795715063D+03 0.910033155858779D+00 -.162464629623712D+02 0.917186465800766D+03
-.289331393661D-02 0.000000000000D+00 0.000000000000D+00 0.176923702676D-06 0.000000000000D+00  6 21 -1 25 23 -1 21 4 0.19861545D-01 0.26071120D+00 0.31229847D+05 0.31229847D+05 0.31229847D+05 0.12130714D+01  1  2 13  1  6  1       21 -.965745499195D-01 0.100000000000D+01
-.289298509284D-02 0.000000000000D+00 0.000000000000D+00 0.176923702676D-06 0.000000000000D+00  6 21 -1 25 23 -1 21 4 0.19907700D-01 0.26071120D+00 0.31229847D+05 0.31229847D+05 0.31229847D+05 0.12130714D+01  1  2 13  1  6  1       21 -.961469306593D-01 0.100000000000D+01
0.444649215108D-02 0.000000000000D+00 0.000000000000D+00 0.178161994780D-06 0.128890895131D-06  6 21 -1 25 23 -1 21 4 0.19874906D-01 0.26103024D+00 0.31229847D+05 0.31229847D+05 0.31229847D+05 0.12130714D+01  1  2  1  1  6  1       21 0.147557763101D+00 0.100000000000D+01
  </mgrwgt>
  </event>
  <event>
  5     66 0.48379648E-03 0.85042416E+02 0.75467711E-02 0.11338802E+00
       21 -1    0    0  501  502 0.00000000E+00 0.00000000E+00 0.19309280E+04 0.19309282E+04 0.75000000E+00 0.0000E+00 0.9000E+01
       -3 -1    0    0    0  501 0.00000000E+00 0.00000000E+00 -.26191799E+02 0.26196571E+02 0.50000000E+00 0.0000E+00 0.9000E+01
       25  1    1    2    0    0 0.10888337E+03 -.39242974E+02 0.45699817E+03 0.48771705E+03 0.12500000E+03 0.0000E+00 0.9000E+01
       23  1    1    2    0    0 -.81362152E+02 -.41222680E+02 0.45189216E+03 0.46993711E+03 0.91188000E+02 0.0000E+00 0.9000E+01
       -3  1    1    2    0  502 -.27521217E+02 0.80465654E+02 0.99584588E+03 0.99947056E+03 0.50000000E+00 0.0000E+00 0.9000E+01
#aMCatNLO 1  0  0  5  1 0.69959969D+02 0.00000000D+00  -5  6  0 0.00000000D+00 0.00000000D+00 0.00000000D+00 0.00000000D+00 0.00000000D+00
  <mgrwgt>
 0.7293510955D-02    4    2    0
 0.224898400141646D+03 0.000000000000000D+00 0.000000000000000D+00 0.224898400141646D+03
 0.224898400141646D+03 -.000000000000000D+00 -.000000000000000D+00 -.224898400141646D+03
 0.186889383222780D+03 0.108883450898667D+03 -.392432148574686D+02 -.768570476237502D+02
 0.131148546688897D+03 -.813620940619697D+02 -.412228491842637D+02 -.237818483216187D+02
 0.131758870371614D+03 -.275213568366970D+02 0.804660640417322D+02 0.100638895945369D+03
 0.000000000000000D+00 0.000000000000000D+00 -.000000000000000D+00 0.000000000000000D+00
 0.224898400141646D+03 0.000000000000000D+00 0.000000000000000D+00 0.224898400141646D+03
 0.224898400141646D+03 -.000000000000000D+00 -.000000000000000D+00 -.224898400141646D+03
 0.160707974632325D+03 0.962329288617857D+02 -.225602260451631D+01 -.305971710312318D+02
 0.129892757724264D+03 -.908624792041129D+02 -.134459265635924D+02 0.109587452266689D+02
 0.854443780786809D+02 0.524333106655278D+02 0.602212209395795D+02 0.304120736953463D+02
 0.737516898480209D+02 -.578037603232005D+02 -.445192717714708D+02 -.107736478907835D+02
0.100799270072D-03 0.000000000000D+00 0.000000000000D+00 0.250874910086D-06 0.000000000000D+00  6 21 -3 25 23 -3 21 2 0.29706623D+00 0.40298858D-02 0.36935293D+05 0.36935293D+05 0.36935293D+05 0.12055317D+01  1  2  2  3  6  5       -3 0.821272755700D-02 0.100000000000D+01
-.705082291776D-06 0.531932362188D-05 -.203484684719D-06 0.250874910086D-06 0.000000000000D+00  6 21 -3 25 23 -3 21 4 0.29706623D+00 0.40298858D-02 0.36935293D+05 0.36935293D+05 0.36935293D+05 0.12055317D+01  1  2  3  3  6  5       -3 -.834885866749D-04 0.100000000000D+01
0.915815769475D-05 0.000000000000D+00 0.000000000000D+00 0.250874910086D-06 0.000000000000D+00  6 21 -3 25 23 -3 21 4 0.29706623D+00 0.40298858D-02 0.36935293D+05 0.36935293D+05 0.36935293D+05 0.12055317D+01  1  2 15  3  6  5       -3 0.108441475754D-02 0.100000000000D+01
-.162160927669D-04 0.000000000000D+00 0.000000000000D+00 0.250874910086D-06 0.000000000000D+00  6 21 -3 25 23 -3 21 4 0.29706623D+00 0.40298858D-02 0.36935293D+05 0.36935293D+05 0.36935293D+05 0.12055317D+01  1  2  4  3  6  5       -3 -.192014277240D-02 0.100000000000D+01
  </mgrwgt>
  </event>
  <event>
  5     66 0.48379648E-03 0.23972255E+02 0.75467711E-02 0.11103324E+00
       21 -1    0    0  501  502 0.00000000E+00 0.00000000E+00 0.68442519E+03 0.68442561E+03 0.75000000E+00 0.0000E+00 0.9000E+01
       -1 -1    0    0    0  501 0.00000000E+00 0.00000000E+00 -.34623733E+02 0.34625212E+02 0.32000000E+00 0.0000E+00 0.9000E+01
       25  1    1    2    0    0 -.22203909E+02 -.64071401E+02 0.26921892E+03 0.30447001E+03 0.12500000E+03 0.0000E+00 0.9000E+01
       23  1    1    2    0    0 0.26462918E+02 0.87661396E+02 0.24598045E+03 0.27786047E+03 0.91188000E+02 0.0000E+00 0.9000E+01
       -1  1    1    2    0  502 -.42590090E+01 -.23589995E+02 0.13460208E+03 0.13672034E+03 0.32000000E+00 0.0000E+00 0.9000E+01
#aMCatNLO 1  0  0  2  1 0.17353969D+03 0.00000000D+00  -5  6  0 0.00000000D+00 0.00000000D+00 0.00000000D+00 0.00000000D+00 0.00000000D+00
  <mgrwgt>
 0.4787613057D-01    3    2    0
 0.153941659719876D+03 0.000000000000000D+00 0.000000000000000D+00 0.153941659719876D+03
 0.153941659719876D+03 0.000000000000000D+00 0.000000000000000D+00 -.153941659719876D+03
 0.142880451656131D+03 -.222038274059096D+02 -.640709490581698D+02 -.138465519453083D+02
 0.129781123384444D+03 0.264629920356486D+02 0.876618061303333D+02 -.119585300692563D+02
 0.352217443991758D+02 -.425916462973907D+01 -.235908570721634D+02 0.258050820145646D+02
 0.000000000000000D+00 -.000000000000000D+00 -.000000000000000D+00 0.000000000000000D+00
 0.808649444586888D+03 0.000000000000000D+00 0.000000000000000D+00 0.808649444586888D+03
 0.188625903663141D+03 0.000000000000000D+00 0.000000000000000D+00 -.188625903663141D+03
 0.128011642908176D+03 0.222717449272568D+02 -.861528276793694D+01 -.138465519453083D+02
 0.196855448601181D+03 0.800907972596047D+02 0.154529201295017D+03 -.119585300692563D+02
 0.285563980784456D+02 0.621205046275255D+01 -.105345167181253D+02 0.258050820145646D+02
 0.643851858662226D+03 -.108574592649614D+03 -.135379401808955D+03 0.620023540923748D+03
0.238189937215D-04 0.000000000000D+00 0.000000000000D+00 0.877023962290D-06 0.000000000000D+00  6 21 -1 25 23 -1 21 2 0.10529633D+00 0.53268735D-02 0.21816647D+05 0.21816647D+05 0.21816647D+05 0.12296908D+01  1  2  2  2  6  2       -1 0.372293666540D-01 0.100000000000D+01
0.211906512492D-05 0.125696283179D-05 -.480836857674D-07 0.877023962290D-06 0.000000000000D+00  6 21 -1 25 23 -1 21 4 0.10529633D+00 0.53268735D-02 0.21816647D+05 0.21816647D+05 0.21816647D+05 0.12296908D+01  1  2  3  2  6  2       -1 0.500839248266D-02 0.100000000000D+01
0.238561101135D-05 0.000000000000D+00 0.000000000000D+00 0.877023962290D-06 0.000000000000D+00  6 21 -1 25 23 -1 21 4 0.10529633D+00 0.53268735D-02 0.21816647D+05 0.21816647D+05 0.21816647D+05 0.12296908D+01  1  2 15  2  6  2       -1 0.563837142864D-02 0.100000000000D+01
  </mgrwgt>
  </event>
  <event>
  5     66 0.48379648E-03 0.66856032E+02 0.75467711E-02 0.11164640E+00
       21 -1    0    0  501  502 0.00000000E+00 0.00000000E+00 0.28730157E+03 0.28730255E+03 0.75000000E+00 0.0000E+00 0.9000E+01
       -3 -1    0    0    0  501 0.00000000E+00 0.00000000E+00 -.12769838E+03 0.12769936E+03 0.50000000E+00 0.0000E+00 0.9000E+01
       25  1    1    2    0    0 0.56336812E+02 -.11140812E+03 0.83432366E+02 0.19537544E+03 0.12500000E+03 0.0000E+00 0.9000E+01
       23  1    1    2    0    0 -.13718030E+02 0.59898514E+02 -.10166722E+02 0.11042930E+03 0.91188000E+02 0.0000E+00 0.9000E+01
       -3  1    1    2    0  502 -.42618782E+02 0.51509601E+02 0.86337540E+02 0.10919716E+03 0.50000000E+00 0.0000E+00 0.9000E+01
#aMCatNLO 1  0  0  1  1 0.12342325D+03 0.00000000D+00  -5  6  0 0.00000000D+00 0.00000000D+00 0.00000000D+00 0.00000000D+00 0.00000000D+00
  <mgrwgt>
 0.6861238986D-02   14    4    0
 0.191542035683612D+03 0.000000000000000D+00 0.000000000000000D+00 0.191542035683612D+03
 0.191542035683612D+03 0.000000000000000D+00 0.000000000000000D+00 -.191542035683612D+03
 0.176893945383638D+03 0.563371751479056D+02 -.111408554311034D+03 0.898468898009743D+01
 0.123865743652131D+03 -.137177759121708D+02 0.598982070411889D+02 -.570219126632009D+02
 0.823243823314548D+02 -.426193992357348D+02 0.515103472698455D+02 0.480372236831035D+02
 0.000000000000000D+00 -.000000000000000D+00 0.000000000000000D+00 0.000000000000000D+00
 0.279449825393767D+03 0.000000000000000D+00 0.000000000000000D+00 0.279449825393767D+03
 0.249930217226782D+03 0.000000000000000D+00 0.000000000000000D+00 -.249930217226782D+03
 0.219902461750380D+03 0.109761682965941D+03 -.143540032744501D+03 0.898468898009743D+01
 0.116402092728436D+03 0.186317884295261D+02 0.404419804622262D+02 -.570219126632009D+02
 0.661711658793561D+02 -.226260186665088D+02 0.394855874206721D+02 0.480372236831035D+02
 0.126904322262378D+03 -.105767452728958D+03 0.636124648616025D+02 0.295196081669855D+02
 0.191542035683612D+03 0.000000000000000D+00 0.000000000000000D+00 0.191542035683612D+03
 0.191542035683612D+03 0.000000000000000D+00 0.000000000000000D+00 -.191542035683612D+03
 0.176893945383638D+03 0.563371751479056D+02 -.111408554311034D+03 0.898468898009743D+01
 0.123865743652131D+03 -.137177759121708D+02 0.598982070411889D+02 -.570219126632009D+02
 0.000000000000000D+00 -.000000000000000D+00 0.000000000000000D+00 0.000000000000000D+00
 0.823243823314548D+02 -.426193992357348D+02 0.515103472698455D+02 0.480372236831035D+02
 0.279449825393767D+03 0.000000000000000D+00 0.000000000000000D+00 0.279449825393767D+03
 0.249930217226782D+03 0.000000000000000D+00 0.000000000000000D+00 -.249930217226782D+03
 0.219902461750380D+03 0.109761682965941D+03 -.143540032744501D+03 0.898468898009743D+01
 0.116402092728436D+03 0.186317884295261D+02 0.404419804622262D+02 -.570219126632009D+02
 0.126904322262378D+03 -.105767452728958D+03 0.636124648616025D+02 0.295196081669855D+02
 0.661711658793561D+02 -.226260186665088D+02 0.394855874206721D+02 0.480372236831035D+02
0.351625476362D-05 0.000000000000D+00 0.000000000000D+00 0.192821999816D-06 0.000000000000D+00  6 21 -3 25 23 -3 21 2 0.44200392D-01 0.19646056D-01 0.31237339D+05 0.31237339D+05 0.31237339D+05 0.12130605D+01  1  2  2  1  6  1       21 0.289849074727D-02 0.100000000000D+01
-.609216543925D-07 0.185557861791D-06 -.709830528985D-08 0.192821999816D-06 0.000000000000D+00  6 21 -3 25 23 -3 21 4 0.44200392D-01 0.19646056D-01 0.31237339D+05 0.31237339D+05 0.31237339D+05 0.12130605D+01  1  2  3  1  6  1       21 -.738972334789D-04 0.100000000000D+01
0.314430431426D-06 0.000000000000D+00 0.000000000000D+00 0.192821999816D-06 0.000000000000D+00  6 21 -3 25 23 -3 21 4 0.44200392D-01 0.19646056D-01 0.31237339D+05 0.31237339D+05 0.31237339D+05 0.12130605D+01  1  2 15  1  6  1       21 0.381400328597D-03 0.100000000000D+01
-.108614525243D-06 0.000000000000D+00 0.000000000000D+00 0.192821999816D-06 0.000000000000D+00  6 21 -3 25 23 -3 21 4 0.44200392D-01 0.19646056D-01 0.31237339D+05 0.31237339D+05 0.31237339D+05 0.12130605D+01  1  2  4  1  6  1       21 -.131748111753D-03 0.100000000000D+01
-.499406738122D-05 0.000000000000D+00 -.459630428765D-05 0.192821999816D-06 0.000000000000D+00  6 21 -3 25 23 -3 21 4 0.81100820D-01 0.19646056D-01 0.31237339D+05 0.31237339D+05 0.31237339D+05 0.12130605D+01  1  2  5  1  6  1       21 -.164807684540D-02 0.100000000000D+01
0.468139686089D-05 0.000000000000D+00 0.241404515445D-05 0.192821999816D-06 0.000000000000D+00  6 21 -3 25 23 -3 21 4 0.44200392D-01 0.19646056D-01 0.31237339D+05 0.31237339D+05 0.31237339D+05 0.12130605D+01  1  2  6  1  6  1       21 0.567847804343D-02 0.100000000000D+01
-.575363386537D-06 0.000000000000D+00 -.991863171043D-06 0.192821999816D-06 0.000000000000D+00  6 -3 -3 25 23 -3 -3 4 0.81100820D-01 0.19646056D-01 0.31237339D+05 0.31237339D+05 0.31237339D+05 0.12130605D+01  1  2  5  4  6  1       21 -.100878543182D-04 0.100000000000D+01
-.575363386537D-06 0.000000000000D+00 -.991863171043D-06 0.192821999816D-06 0.000000000000D+00  6 3 -3 25 23 3 -3 4 0.81100820D-01 0.19646056D-01 0.31237339D+05 0.31237339D+05 0.31237339D+05 0.12130605D+01  3  4  5  5  5  1       21 -.101011403467D-04 0.100000000000D+01
-.575363386537D-06 0.000000000000D+00 -.991863171043D-06 0.192821999816D-06 0.000000000000D+00  6 -2 -3 25 23 -3 -2 4 0.81100820D-01 0.19646056D-01 0.31237339D+05 0.31237339D+05 0.31237339D+05 0.12130605D+01  1  2  5  6  6  1       21 -.160057797180D-04 0.100000000000D+01
-.575363386537D-06 0.000000000000D+00 -.991863171043D-06 0.192821999816D-06 0.000000000000D+00  6 -4 -3 25 23 -3 -4 4 0.81100820D-01 0.19646056D-01 0.31237339D+05 0.31237339D+05 0.31237339D+05 0.12130605D+01  1  2  5  6  6  1       21 -.816430509577D-05 0.100000000000D+01
-.575363386537D-06 0.000000000000D+00 -.991863171043D-06 0.192821999816D-06 0.000000000000D+00  6 2 -3 25 23 2 -3 4 0.81100820D-01 0.19646056D-01 0.31237339D+05 0.31237339D+05 0.31237339D+05 0.12130605D+01  3  4  5  7  5  1       21 -.103998505333D-03 0.100000000000D+01
-.575363386537D-06 0.000000000000D+00 -.991863171043D-06 0.192821999816D-06 0.000000000000D+00  6 4 -3 25 23 4 -3 4 0.81100820D-01 0.19646056D-01 0.31237339D+05 0.31237339D+05 0.31237339D+05 0.12130605D+01  3  4  5  7  5  1       21 -.816430509577D-05 0.100000000000D+01
-.575363386537D-06 0.000000000000D+00 -.991863171043D-06 0.192821999816D-06 0.000000000000D+00  6 -1 -3 25 23 -3 -1 4 0.81100820D-01 0.19646056D-01 0.31237339D+05 0.31237339D+05 0.31237339D+05 0.12130605D+01  1  2  5  8  6  1       21 -.209920758524D-04 0.100000000000D+01
-.575363386537D-06 0.000000000000D+00 -.991863171043D-06 0.192821999816D-06 0.000000000000D+00  6 1 -3 25 23 1 -3 4 0.81100820D-01 0.19646056D-01 0.31237339D+05 0.31237339D+05 0.31237339D+05 0.12130605D+01  3  4  5  9  5  1       21 -.658939765442D-04 0.100000000000D+01
  </mgrwgt>
  </event>
  <event>
  5     66 -.48379648E-03 0.25026375E+02 0.75467711E-02 0.11864535E+00
       21 -1    0    0  501  502 0.00000000E+00 0.00000000E+00 0.89860896E+03 0.89860927E+03 0.75000000E+00 0.0000E+00 0.9000E+01
       -1 -1    0    0    0  501 0.00000000E+00 0.00000000E+00 -.31665435E+02 0.31667052E+02 0.32000000E+00 0.0000E+00 0.9000E+01
       25  1    1    2    0    0 -.33143115E+02 -.52147101E+02 0.18437659E+03 0.23116555E+03 0.12500000E+03 0.0000E+00 0.9000E+01
       23  1    1    2    0    0 0.57914057E+02 0.55708936E+02 0.48650032E+03 0.50145322E+03 0.91188000E+02 0.0000E+00 0.9000E+01
       -1  1    1    2    0  502 -.24770943E+02 -.35618350E+01 0.19606661E+03 0.19765755E+03 0.32000000E+00 0.0000E+00 0.9000E+01
#aMCatNLO 1  0  0  2  1 0.44479996D+00 0.00000000D+00  -5  6  0 0.00000000D+00 0.00000000D+00 0.00000000D+00 0.00000000D+00 0.00000000D+00
  <mgrwgt>
 -.1310625037D+00    5    4    0
 0.168688296817745D+03 0.000000000000000D+00 0.000000000000000D+00 0.168688296817745D+03
 0.168688296817745D+03 0.000000000000000D+00 0.000000000000000D+00 -.168688296817745D+03
 0.163626658621574D+03 -.331427522962071D+02 -.521470490729043D+02 -.856208307299193D+02
 0.132557380858319D+03 0.579143510065386D+02 0.557089783978716D+02 0.529022263177503D+02
 0.411925541555967D+02 -.247715987103315D+02 -.356192932496723D+01 0.327186044121690D+02
 0.000000000000000D+00 0.000000000000000D+00 0.000000000000000D+00 -.000000000000000D+00
 0.170314587687087D+03 0.000000000000000D+00 0.000000000000000D+00 0.170314587687087D+03
 0.588033171469248D+03 0.000000000000000D+00 0.000000000000000D+00 -.588033171469248D+03
 0.170645526982844D+03 -.380714819035720D+02 -.686624459951499D+02 -.856208307299193D+02
 0.126032145282090D+03 0.541015364544150D+02 0.429328371331650D+02 0.529022263177503D+02
 0.424975071315532D+02 -.260055801801397D+02 -.769680694903621D+01 0.327186044121690D+02
 0.419172579759848D+03 0.997552562929674D+01 0.334264158110212D+02 -.417718583782161D+03
 0.168688296817745D+03 0.000000000000000D+00 0.000000000000000D+00 0.168688296817745D+03
 0.168688296817745D+03 0.000000000000000D+00 0.000000000000000D+00 -.168688296817745D+03
 0.163626658621574D+03 -.331427522962071D+02 -.521470490729043D+02 -.856208307299193D+02
 0.132557380858319D+03 0.579143510065386D+02 0.557089783978716D+02 0.529022263177503D+02
 0.000000000000000D+00 0.000000000000000D+00 0.000000000000000D+00 -.000000000000000D+00
 0.411925541555967D+02 -.247715987103315D+02 -.356192932496723D+01 0.327186044121690D+02
 0.170314587687087D+03 0.000000000000000D+00 0.000000000000000D+00 0.170314587687087D+03
 0.588033171469248D+03 0.000000000000000D+00 0.000000000000000D+00 -.588033171469248D+03
 0.170645526982844D+03 -.380714819035720D+02 -.686624459951499D+02 -.856208307299193D+02
 0.126032145282090D+03 0.541015364544150D+02 0.429328371331650D+02 0.529022263177503D+02
 0.419172579759848D+03 0.997552562929674D+01 0.334264158110212D+02 -.417718583782161D+03
 0.424975071315532D+02 -.260055801801397D+02 -.769680694903621D+01 0.327186044121690D+02
0.295200160292D-05 0.000000000000D+00 0.000000000000D+00 0.676833716047D-06 0.000000000000D+00  6 21 -1 25 23 -1 21 2 0.13824768D+00 0.48717539D-02 0.20450019D+05 0.20450019D+05 0.20450019D+05 0.12327636D+01  1  2  2  2  6  2       -1 0.271670706556D-02 0.100000000000D+01
0.220360635732D-06 0.155781404439D-06 -.595924072693D-08 0.676833716047D-06 0.000000000000D+00  6 21 -1 25 23 -1 21 4 0.13824768D+00 0.48717539D-02 0.20450019D+05 0.20450019D+05 0.20450019D+05 0.12327636D+01  1  2  3  2  6  2       -1 0.308190909654D-03 0.100000000000D+01
0.340324179825D-06 0.000000000000D+00 0.000000000000D+00 0.676833716047D-06 0.000000000000D+00  6 21 -1 25 23 -1 21 4 0.13824768D+00 0.48717539D-02 0.20450019D+05 0.20450019D+05 0.20450019D+05 0.12327636D+01  1  2 15  2  6  2       -1 0.475968941590D-03 0.100000000000D+01
-.220774725464D-03 0.000000000000D+00 -.269966643325D-05 0.676833716047D-06 0.000000000000D+00  6 21 -1 25 23 -1 21 4 0.13824768D+00 0.17053617D-01 0.20450019D+05 0.20450019D+05 0.20450019D+05 0.12327636D+01  1  2  5  2  6  2       -1 -.457227890096D-01 0.100000000000D+01
-.322758328040D-04 0.000000000000D+00 -.395727611805D-06 0.676833716047D-06 0.000000000000D+00  6 21 21 25 23 1 -1 4 0.13824768D+00 0.17053617D-01 0.20450019D+05 0.20450019D+05 0.20450019D+05 0.12327636D+01  3  4  5 10  5  2       -1 -.888405816090D-01 0.100000000000D+01
  </mgrwgt>
  </event>
  <event>
  5     66 -.48379648E-03 0.25503827E+02 0.75467711E-02 0.11645637E+00
       21 -1    0    0  501  502 0.00000000E+00 0.00000000E+00 0.13199096E+03 0.13199309E+03 0.75000000E+00 0.0000E+00 0.9000E+01
       -1 -1    0    0    0  501 0.00000000E+00 0.00000000E+00 -.34867852E+03 0.34867867E+03 0.32000000E+00 0.0000E+00 0.9000E+01
       25  1    1    2    0    0 -.12025750E+03 0.75197156E+02 -.95311775E+02 0.21172107E+03 0.12500000E+03 0.0000E+00 0.9000E+01
       23  1    1    2    0    0 0.98295813E+02 -.62231049E+02 -.16305667E+03 0.22008521E+03 0.91188000E+02 0.0000E+00 0.9000E+01
       -1  1    1    2    0  502 0.21961688E+02 -.12966106E+02 0.41680888E+02 0.48865474E+02 0.32000000E+00 0.0000E+00 0.9000E+01
#aMCatNLO 1  0  0  1  2 0.51289457D+01 0.00000000D+00  -5  6  0 0.00000000D+00 0.00000000D+00 0.00000000D+00 0.00000000D+00 0.00000000D+00
  <mgrwgt>
 -.1054373172D+00   41    4    0
 0.214529625491625D+03 0.000000000000000D+00 0.000000000000000D+00 0.214529625491625D+03
 0.214529625491625D+03 0.000000000000000D+00 0.000000000000000D+00 -.214529625491625D+03
 0.189054301636015D+03 -.120257586822329D+03 0.751972064561644D+02 0.148053842994258D+00
 0.164211380498043D+03 0.982957377126459D+02 -.622310048076341D+02 -.715218577026062D+02
 0.757935688491919D+02 0.219618491096831D+02 -.129662016485303D+02 0.713738038596120D+02
 0.000000000000000D+00 0.000000000000000D+00 -.000000000000000D+00 0.000000000000000D+00
 0.319182586555547D+03 0.000000000000000D+00 0.000000000000000D+00 0.319182586555547D+03
 0.214607803151127D+03 0.000000000000000D+00 0.000000000000000D+00 -.214607803151127D+03
 0.190763200615745D+03 -.122171613375858D+03 0.764177575852783D+02 0.148053842994258D+00
 0.162832412120928D+03 0.966476554112024D+02 -.611800430484096D+02 -.715218577026062D+02
 0.754942926896457D+02 0.211994593238115D+02 -.124800350839888D+02 0.713738038596120D+02
 0.104700484280355D+03 0.432449864084435D+01 -.275767945287992D+01 0.104574783404420D+03
 0.214529625491625D+03 0.000000000000000D+00 0.000000000000000D+00 0.214529625491625D+03
 0.214529625491625D+03 0.000000000000000D+00 0.000000000000000D+00 -.214529625491625D+03
 0.189054301636015D+03 -.120257586822329D+03 0.751972064561644D+02 0.148053842994258D+00
 0.164211380498043D+03 0.982957377126459D+02 -.622310048076341D+02 -.715218577026062D+02
 0.000000000000000D+00 0.000000000000000D+00 -.000000000000000D+00 0.000000000000000D+00
 0.757935688491919D+02 0.219618491096831D+02 -.129662016485303D+02 0.713738038596120D+02
 0.319182586555547D+03 0.000000000000000D+00 0.000000000000000D+00 0.319182586555547D+03
 0.214607803151127D+03 0.000000000000000D+00 0.000000000000000D+00 -.214607803151127D+03
 0.190763200615745D+03 -.122171613375858D+03 0.764177575852783D+02 0.148053842994258D+00
 0.162832412120928D+03 0.966476554112024D+02 -.611800430484096D+02 -.715218577026062D+02
 0.104700484280355D+03 0.432449864084435D+01 -.275767945287992D+01 0.104574783404420D+03
 0.754942926896457D+02 0.211994593238115D+02 -.124800350839888D+02 0.713738038596120D+02
0.672715381153D-06 0.000000000000D+00 0.000000000000D+00 0.990142387645D-06 0.000000000000D+00  6 21 -1 25 23 -1 21 2 0.20306477D-01 0.53643024D-01 0.32829006D+05 0.32829006D+05 0.32829006D+05 0.12108122D+01  1  2  2  1  6  1       21 0.739130208540D-03 0.100000000000D+01
0.113613706799D-06 0.355001659754D-07 -.135801853665D-08 0.990142387645D-06 0.000000000000D+00  6 21 -1 25 23 -1 21 4 0.20306477D-01 0.53643024D-01 0.32829006D+05 0.32829006D+05 0.32829006D+05 0.12108122D+01  1  2  3  1  6  1       21 0.183009616879D-03 0.100000000000D+01
0.594540038724D-07 0.000000000000D+00 0.000000000000D+00 0.990142387645D-06 0.000000000000D+00  6 21 -1 25 23 -1 21 4 0.20306477D-01 0.53643024D-01 0.32829006D+05 0.32829006D+05 0.32829006D+05 0.12108122D+01  1  2 15  1  6  1       21 0.957688537511D-04 0.100000000000D+01
0.949137022372D-04 0.000000000000D+00 0.000000000000D+00 0.988364563783D-06 0.000000000000D+00  6 21 -1 25 23 -1 21 4 0.30214755D-01 0.53643024D-01 0.33631212D+05 0.33631212D+05 0.33631212D+05 0.12097247D+01  1  2 12  1  6  1       21 0.713989602308D-01 0.100000000000D+01
0.905857214097D-04 0.000000000000D+00 0.000000000000D+00 0.988364563783D-06 0.000000000000D+00  6 21 -1 25 23 -1 21 4 0.30634019D-01 0.53643024D-01 0.33631212D+05 0.33631212D+05 0.33631212D+05 0.12097247D+01  1  2 12  1  6  1       21 0.663367213213D-01 0.100000000000D+01
-.432507213866D-03 0.000000000000D+00 0.000000000000D+00 0.990142387645D-06 0.000000000000D+00  6 21 -1 25 23 -1 21 4 0.20306477D-01 0.53643024D-01 0.32829006D+05 0.32829006D+05 0.32829006D+05 0.12108122D+01  1  2  4  1  6  1       21 -.696685124857D+00 0.100000000000D+01
-.423193952767D-03 0.000000000000D+00 -.883791375448D-06 0.990142387645D-06 0.000000000000D+00  6 21 -1 25 23 -1 21 4 0.30216850D-01 0.53643024D-01 0.32829006D+05 0.32829006D+05 0.32829006D+05 0.12108122D+01  1  2  5  1  6  1       21 -.319625748303D+00 0.100000000000D+01
0.368686419133D-03 0.000000000000D+00 0.656727423187D-06 0.990142387645D-06 0.000000000000D+00  6 21 -1 25 23 -1 21 4 0.20306477D-01 0.53643024D-01 0.32829006D+05 0.32829006D+05 0.32829006D+05 0.12108122D+01  1  2  6  1  6  1       21 0.593882219098D+00 0.100000000000D+01
0.240473124378D-03 0.000000000000D+00 0.000000000000D+00 0.990142387645D-06 0.822157840160D-06  6 21 -1 25 23 -1 21 4 0.30212488D-01 0.53662573D-01 0.33631212D+05 0.33631212D+05 0.33631212D+05 0.12097247D+01  1  2 11  1  6  1       21 0.180799753682D+00 0.100000000000D+01
0.752162897292D-05 0.000000000000D+00 0.000000000000D+00 0.988364563783D-06 0.000000000000D+00  6 -1 -1 25 23 -1 -1 4 0.30214755D-01 0.53643024D-01 0.33631212D+05 0.33631212D+05 0.33631212D+05 0.12097247D+01  1  2 12  4  6  1       21 0.495861002606D-03 0.100000000000D+01
0.740133050798D-05 0.000000000000D+00 0.000000000000D+00 0.988364563783D-06 0.000000000000D+00  6 -1 -1 25 23 -1 -1 4 0.30634019D-01 0.53643024D-01 0.33631212D+05 0.33631212D+05 0.33631212D+05 0.12097247D+01  1  2 12  4  6  1       21 0.476662183514D-03 0.100000000000D+01
-.335321697502D-04 0.000000000000D+00 -.117385085241D-06 0.990142387645D-06 0.000000000000D+00  6 -1 -1 25 23 -1 -1 4 0.30216850D-01 0.53643024D-01 0.32829006D+05 0.32829006D+05 0.32829006D+05 0.12108122D+01  1  2  5  4  6  1       21 -.221828931137D-02 0.100000000000D+01
0.147131411541D-04 0.000000000000D+00 0.000000000000D+00 0.990142387645D-06 0.240610711073D-07  6 -1 -1 25 23 -1 -1 4 0.30212488D-01 0.53662573D-01 0.33631212D+05 0.33631212D+05 0.33631212D+05 0.12097247D+01  1  2 11  4  6  1       21 0.969423361901D-03 0.100000000000D+01
0.752162897292D-05 0.000000000000D+00 0.000000000000D+00 0.988364563783D-06 0.000000000000D+00  6 1 -1 25 23 1 -1 4 0.30214755D-01 0.53643024D-01 0.33631212D+05 0.33631212D+05 0.33631212D+05 0.12097247D+01  3  4 12  5  5  1       21 0.874206262085D-03 0.100000000000D+01
0.740133050798D-05 0.000000000000D+00 0.000000000000D+00 0.988364563783D-06 0.000000000000D+00  6 1 -1 25 23 1 -1 4 0.30634019D-01 0.53643024D-01 0.33631212D+05 0.33631212D+05 0.33631212D+05 0.12097247D+01  3  4 12  5  5  1       21 0.845484262503D-03 0.100000000000D+01
-.335321697502D-04 0.000000000000D+00 -.117385085241D-06 0.990142387645D-06 0.000000000000D+00  6 1 -1 25 23 1 -1 4 0.30216850D-01 0.53643024D-01 0.32829006D+05 0.32829006D+05 0.32829006D+05 0.12108122D+01  3  4  5  5  5  1       21 -.391095209754D-02 0.100000000000D+01
0.148008741375D-04 0.000000000000D+00 0.000000000000D+00 0.990142387645D-06 0.503473227223D-07  6 1 -1 25 23 1 -1 4 0.30212488D-01 0.53662573D-01 0.33631212D+05 0.33631212D+05 0.33631212D+05 0.12097247D+01  3  4 11  5  5  1       21 0.171923438291D-02 0.100000000000D+01
0.752162897292D-05 0.000000000000D+00 0.000000000000D+00 0.988364563783D-06 0.000000000000D+00  6 -2 -1 25 23 -1 -2 4 0.30214755D-01 0.53643024D-01 0.33631212D+05 0.33631212D+05 0.33631212D+05 0.12097247D+01  1  2 12  6  6  1       21 0.435102388476D-03 0.100000000000D+01
0.752162897292D-05 0.000000000000D+00 0.000000000000D+00 0.988364563783D-06 0.000000000000D+00  6 -4 -1 25 23 -1 -4 4 0.30214755D-01 0.53643024D-01 0.33631212D+05 0.33631212D+05 0.33631212D+05 0.12097247D+01  1  2 12  6  6  1       21 0.236161901184D-03 0.100000000000D+01
0.740133050798D-05 0.000000000000D+00 0.000000000000D+00 0.988364563783D-06 0.000000000000D+00  6 -2 -1 25 23 -1 -2 4 0.30634019D-01 0.53643024D-01 0.33631212D+05 0.33631212D+05 0.33631212D+05 0.12097247D+01  1  2 12  6  6  1       21 0.417575177157D-03 0.100000000000D+01
0.740133050798D-05 0.000000000000D+00 0.000000000000D+00 0.988364563783D-06 0.000000000000D+00  6 -4 -1 25 23 -1 -4 4 0.30634019D-01 0.53643024D-01 0.33631212D+05 0.33631212D+05 0.33631212D+05 0.12097247D+01  1  2 12  6  6  1       21 0.226363240982D-03 0.100000000000D+01
-.335321697502D-04 0.000000000000D+00 -.117385085241D-06 0.990142387645D-06 0.000000000000D+00  6 -2 -1 25 23 -1 -2 4 0.30216850D-01 0.53643024D-01 0.32829006D+05 0.32829006D+05 0.32829006D+05 0.12108122D+01  1  2  5  6  6  1       21 -.194638858657D-02 0.100000000000D+01
-.335321697502D-04 0.000000000000D+00 -.117385085241D-06 0.990142387645D-06 0.000000000000D+00  6 -4 -1 25 23 -1 -4 4 0.30216850D-01 0.53643024D-01 0.32829006D+05 0.32829006D+05 0.32829006D+05 0.12108122D+01  1  2  5  6  6  1       21 -.105564533709D-02 0.100000000000D+01
0.136989248420D-04 0.000000000000D+00 0.000000000000D+00 0.990142387645D-06 0.445663143469D-07  6 -2 -1 25 23 -1 -2 4 0.30212488D-01 0.53662573D-01 0.33631212D+05 0.33631212D+05 0.33631212D+05 0.12097247D+01  1  2 11  6  6  1       21 0.792008623211D-03 0.100000000000D+01
0.136989248420D-04 0.000000000000D+00 0.000000000000D+00 0.990142387645D-06 0.445663143469D-07  6 -4 -1 25 23 -1 -4 4 0.30212488D-01 0.53662573D-01 0.33631212D+05 0.33631212D+05 0.33631212D+05 0.12097247D+01  1  2 11  6  6  1       21 0.429883987200D-03 0.100000000000D+01
0.752162897292D-05 0.000000000000D+00 0.000000000000D+00 0.988364563783D-06 0.000000000000D+00  6 2 -1 25 23 2 -1 4 0.30214755D-01 0.53643024D-01 0.33631212D+05 0.33631212D+05 0.33631212D+05 0.12097247D+01  3  4 12  7  5  1       21 0.115071613743D-02 0.100000000000D+01
0.752162897292D-05 0.000000000000D+00 0.000000000000D+00 0.988364563783D-06 0.000000000000D+00  6 4 -1 25 23 4 -1 4 0.30214755D-01 0.53643024D-01 0.33631212D+05 0.33631212D+05 0.33631212D+05 0.12097247D+01  3  4 12  7  5  1       21 0.236161901184D-03 0.100000000000D+01
0.740133050798D-05 0.000000000000D+00 0.000000000000D+00 0.988364563783D-06 0.000000000000D+00  6 2 -1 25 23 2 -1 4 0.30634019D-01 0.53643024D-01 0.33631212D+05 0.33631212D+05 0.33631212D+05 0.12097247D+01  3  4 12  7  5  1       21 0.111540730450D-02 0.100000000000D+01
0.740133050798D-05 0.000000000000D+00 0.000000000000D+00 0.988364563783D-06 0.000000000000D+00  6 4 -1 25 23 4 -1 4 0.30634019D-01 0.53643024D-01 0.33631212D+05 0.33631212D+05 0.33631212D+05 0.12097247D+01  3  4 12  7  5  1       21 0.226363240982D-03 0.100000000000D+01
-.335321697502D-04 0.000000000000D+00 -.117385085241D-06 0.990142387645D-06 0.000000000000D+00  6 2 -1 25 23 2 -1 4 0.30216850D-01 0.53643024D-01 0.32829006D+05 0.32829006D+05 0.32829006D+05 0.12108122D+01  3  4  5  7  5  1       21 -.514777526216D-02 0.100000000000D+01
-.335321697502D-04 0.000000000000D+00 -.117385085241D-06 0.990142387645D-06 0.000000000000D+00  6 4 -1 25 23 4 -1 4 0.30216850D-01 0.53643024D-01 0.32829006D+05 0.32829006D+05 0.32829006D+05 0.12108122D+01  3  4  5  7  5  1       21 -.105564533709D-02 0.100000000000D+01
0.137281718682D-04 0.000000000000D+00 0.000000000000D+00 0.990142387645D-06 0.446614628479D-07  6 2 -1 25 23 2 -1 4 0.30212488D-01 0.53662573D-01 0.33631212D+05 0.33631212D+05 0.33631212D+05 0.12097247D+01  3  4 11  7  5  1       21 0.209898545946D-02 0.100000000000D+01
0.137281718682D-04 0.000000000000D+00 0.000000000000D+00 0.990142387645D-06 0.446614628479D-07  6 4 -1 25 23 4 -1 4 0.30212488D-01 0.53662573D-01 0.33631212D+05 0.33631212D+05 0.33631212D+05 0.12097247D+01  3  4 11  7  5  1       21 0.430801783917D-03 0.100000000000D+01
0.752162897292D-05 0.000000000000D+00 0.000000000000D+00 0.988364563783D-06 0.000000000000D+00  6 -3 -1 25 23 -1 -3 4 0.30214755D-01 0.53643024D-01 0.33631212D+05 0.33631212D+05 0.33631212D+05 0.12097247D+01  1  2 12  8  6  1       21 0.280034694672D-03 0.100000000000D+01
0.740133050798D-05 0.000000000000D+00 0.000000000000D+00 0.988364563783D-06 0.000000000000D+00  6 -3 -1 25 23 -1 -3 4 0.30634019D-01 0.53643024D-01 0.33631212D+05 0.33631212D+05 0.33631212D+05 0.12097247D+01  1  2 12  8  6  1       21 0.268564768673D-03 0.100000000000D+01
-.335321697502D-04 0.000000000000D+00 -.117385085241D-06 0.990142387645D-06 0.000000000000D+00  6 -3 -1 25 23 -1 -3 4 0.30216850D-01 0.53643024D-01 0.32829006D+05 0.32829006D+05 0.32829006D+05 0.12108122D+01  1  2  5  8  6  1       21 -.125206905583D-02 0.100000000000D+01
0.135057311775D-04 0.000000000000D+00 0.000000000000D+00 0.990142387645D-06 0.439378030090D-07  6 -3 -1 25 23 -1 -3 4 0.30212488D-01 0.53662573D-01 0.33631212D+05 0.33631212D+05 0.33631212D+05 0.12097247D+01  1  2 11  8  6  1       21 0.502554978677D-03 0.100000000000D+01
0.752162897292D-05 0.000000000000D+00 0.000000000000D+00 0.988364563783D-06 0.000000000000D+00  6 3 -1 25 23 3 -1 4 0.30214755D-01 0.53643024D-01 0.33631212D+05 0.33631212D+05 0.33631212D+05 0.12097247D+01  3  4 12  9  5  1       21 0.280043954566D-03 0.100000000000D+01
0.740133050798D-05 0.000000000000D+00 0.000000000000D+00 0.988364563783D-06 0.000000000000D+00  6 3 -1 25 23 3 -1 4 0.30634019D-01 0.53643024D-01 0.33631212D+05 0.33631212D+05 0.33631212D+05 0.12097247D+01  3  4 12  9  5  1       21 0.268575332932D-03 0.100000000000D+01
-.335321697502D-04 0.000000000000D+00 -.117385085241D-06 0.990142387645D-06 0.000000000000D+00  6 3 -1 25 23 3 -1 4 0.30216850D-01 0.53643024D-01 0.32829006D+05 0.32829006D+05 0.32829006D+05 0.12108122D+01  3  4  5  9  5  1       21 -.125210994842D-02 0.100000000000D+01
0.134552078853D-04 0.000000000000D+00 0.000000000000D+00 0.990142387645D-06 0.437734370498D-07  6 3 -1 25 23 3 -1 4 0.30212488D-01 0.53662573D-01 0.33631212D+05 0.33631212D+05 0.33631212D+05 0.12097247D+01  3  4 11  9  5  1       21 0.500691520789D-03 0.100000000000D+01
  </mgrwgt>
  </event>
  <event>
  5     66 -.48379648E-03 0.27892052E+02 0.75467711E-02 0.11311924E+00
       21 -1    0    0  501  502 0.00000000E+00 0.00000000E+00 0.98300136E+02 0.98302997E+02 0.75000000E+00 0.0000E+00 0.9000E+01
       -1 -1    0    0    0  501 0.00000000E+00 0.00000000E+00 -.42502826E+03 0.42502838E+03 0.32000000E+00 0.0000E+00 0.9000E+01
       25  1    1    2    0    0 -.22564302E+02 -.56385912E+02 -.19775720E+02 0.14037307E+03 0.12500000E+03 0.0000E+00 0.9000E+01
       23  1    1    2    0    0 -.38624572E+01 0.47465288E+02 -.33069583E+03 0.34632767E+03 0.91188000E+02 0.0000E+00 0.9000E+01
       -1  1    1    2    0  502 0.26426759E+02 0.89206237E+01 0.23743426E+02 0.36630640E+02 0.32000000E+00 0.0000E+00 0.9000E+01
#aMCatNLO 1  0  0  1  1 0.15646557D+03 0.00000000D+00  -5  6  0 0.00000000D+00 0.00000000D+00 0.00000000D+00 0.00000000D+00 0.00000000D+00
  <mgrwgt>
 -.1679836022D-01   12    4    0
 0.204404296122673D+03 0.000000000000000D+00 0.000000000000000D+00 0.204404296122673D+03
 0.204404296122673D+03 0.000000000000000D+00 0.000000000000000D+00 -.204404296122673D+03
 0.163891610985956D+03 -.225644272602323D+02 -.563859543970213D+02 0.868730736231118D+02
 0.179048606686272D+03 -.386259383277431D+01 0.474652423640113D+02 -.146544475666959D+03
 0.658683745731181D+02 0.264270210930066D+02 0.892071203300992D+01 0.596714020438475D+02
 0.000000000000000D+00 0.000000000000000D+00 0.000000000000000D+00 0.000000000000000D+00
 0.381540133543279D+04 0.000000000000000D+00 0.000000000000000D+00 0.381540133543279D+04
 0.220565818330507D+03 0.000000000000000D+00 0.000000000000000D+00 -.220565818330507D+03
 0.193024861305486D+03 -.812509286644213D+02 -.865156214359279D+02 0.868730736231118D+02
 0.184732698244074D+03 -.636778551614243D+02 0.167560696487202D+02 -.146544475666959D+03
 0.599705984998906D+02 0.573576797560902D+01 -.170218338805583D+01 0.596714020438475D+02
 0.359823899571385D+04 0.139193015850237D+03 0.714617351752635D+02 0.359483551710229D+04
 0.204404296122673D+03 0.000000000000000D+00 0.000000000000000D+00 0.204404296122673D+03
 0.204404296122673D+03 0.000000000000000D+00 0.000000000000000D+00 -.204404296122673D+03
 0.163891610985956D+03 -.225644272602323D+02 -.563859543970213D+02 0.868730736231118D+02
 0.179048606686272D+03 -.386259383277431D+01 0.474652423640113D+02 -.146544475666959D+03
 0.000000000000000D+00 0.000000000000000D+00 0.000000000000000D+00 0.000000000000000D+00
 0.658683745731181D+02 0.264270210930066D+02 0.892071203300992D+01 0.596714020438475D+02
 0.381540133543279D+04 0.000000000000000D+00 0.000000000000000D+00 0.381540133543279D+04
 0.220565818330507D+03 0.000000000000000D+00 0.000000000000000D+00 -.220565818330507D+03
 0.193024861305486D+03 -.812509286644213D+02 -.865156214359279D+02 0.868730736231118D+02
 0.184732698244074D+03 -.636778551614243D+02 0.167560696487202D+02 -.146544475666959D+03
 0.359823899571385D+04 0.139193015850237D+03 0.714617351752635D+02 0.359483551710229D+04
 0.599705984998906D+02 0.573576797560902D+01 -.170218338805583D+01 0.596714020438475D+02
0.204217734186D-05 0.000000000000D+00 0.000000000000D+00 0.499833922021D-06 0.000000000000D+00  6 21 -1 25 23 -1 21 2 0.15123327D-01 0.65389193D-01 0.18189845D+05 0.18189845D+05 0.18189845D+05 0.12383879D+01  1  2  2  1  6  1       21 0.278264553295D-02 0.100000000000D+01
0.131946292139D-06 0.107768659106D-06 -.412256767583D-08 0.499833922021D-06 0.000000000000D+00  6 21 -1 25 23 -1 21 4 0.15123327D-01 0.65389193D-01 0.18189845D+05 0.18189845D+05 0.18189845D+05 0.12383879D+01  1  2  3  1  6  1       21 0.275724272637D-03 0.100000000000D+01
0.195796908376D-06 0.000000000000D+00 0.000000000000D+00 0.499833922021D-06 0.000000000000D+00  6 21 -1 25 23 -1 21 4 0.15123327D-01 0.65389193D-01 0.18189845D+05 0.18189845D+05 0.18189845D+05 0.12383879D+01  1  2 15  1  6  1       21 0.409151021006D-03 0.100000000000D+01
-.295266961056D-02 0.000000000000D+00 -.222413333700D-03 0.499833922021D-06 0.000000000000D+00  6 21 -1 25 23 -1 21 4 0.28502781D+00 0.65389193D-01 0.18189845D+05 0.18189845D+05 0.18189845D+05 0.12383879D+01  1  2  5  1  6  1       21 -.724378709290D-02 0.100000000000D+01
-.128701987274D-02 0.000000000000D+00 -.984112857967D-04 0.499833922021D-06 0.000000000000D+00  6 -1 -1 25 23 -1 -1 4 0.28502781D+00 0.65389193D-01 0.18189845D+05 0.18189845D+05 0.18189845D+05 0.12383879D+01  1  2  5  4  6  1       21 -.334777131098D-03 0.100000000000D+01
-.128701987274D-02 0.000000000000D+00 -.984112857967D-04 0.499833922021D-06 0.000000000000D+00  6 1 -1 25 23 1 -1 4 0.28502781D+00 0.65389193D-01 0.18189845D+05 0.18189845D+05 0.18189845D+05 0.12383879D+01  3  4  5  5  5  1       21 -.347877514495D-02 0.100000000000D+01
-.128701987274D-02 0.000000000000D+00 -.984112857967D-04 0.499833922021D-06 0.000000000000D+00  6 -2 -1 25 23 -1 -2 4 0.28502781D+00 0.65389193D-01 0.18189845D+05 0.18189845D+05 0.18189845D+05 0.12383879D+01  1  2  5  6  6  1       21 -.272120001212D-03 0.100000000000D+01
-.128701987274D-02 0.000000000000D+00 -.984112857967D-04 0.499833922021D-06 0.000000000000D+00  6 -4 -1 25 23 -1 -4 4 0.28502781D+00 0.65389193D-01 0.18189845D+05 0.18189845D+05 0.18189845D+05 0.12383879D+01  1  2  5  6  6  1       21 -.136277938613D-03 0.100000000000D+01
-.128701987274D-02 0.000000000000D+00 -.984112857967D-04 0.499833922021D-06 0.000000000000D+00  6 2 -1 25 23 2 -1 4 0.28502781D+00 0.65389193D-01 0.18189845D+05 0.18189845D+05 0.18189845D+05 0.12383879D+01  3  4  5  7  5  1       21 -.828175611734D-02 0.100000000000D+01
-.128701987274D-02 0.000000000000D+00 -.984112857967D-04 0.499833922021D-06 0.000000000000D+00  6 4 -1 25 23 4 -1 4 0.28502781D+00 0.65389193D-01 0.18189845D+05 0.18189845D+05 0.18189845D+05 0.12383879D+01  3  4  5  7  5  1       21 -.136277938613D-03 0.100000000000D+01
-.128701987274D-02 0.000000000000D+00 -.984112857967D-04 0.499833922021D-06 0.000000000000D+00  6 -3 -1 25 23 -1 -3 4 0.28502781D+00 0.65389193D-01 0.18189845D+05 0.18189845D+05 0.18189845D+05 0.12383879D+01  1  2  5  8  6  1       21 -.189749226490D-03 0.100000000000D+01
-.128701987274D-02 0.000000000000D+00 -.984112857967D-04 0.499833922021D-06 0.000000000000D+00  6 3 -1 25 23 3 -1 4 0.28502781D+00 0.65389193D-01 0.18189845D+05 0.18189845D+05 0.18189845D+05 0.12383879D+01  3  4  5  9  5  1       21 -.192360458506D-03 0.100000000000D+01
  </mgrwgt>
  </event>
  <event>
  5     66 -.48379648E-03 0.24336724E+02 0.75467711E-02 0.11923208E+00
       21 -1    0    0  501  502 0.00000000E+00 0.00000000E+00 0.37098979E+02 0.37106559E+02 0.75000000E+00 0.0000E+00 0.9000E+01
       -1 -1    0    0    0  501 0.00000000E+00 0.00000000E+00 -.52488384E+03 0.52488393E+03 0.32000000E+00 0.0000E+00 0.9000E+01
       25  1    1    2    0    0 -.24635340E+02 -.29191168E+02 -.16094946E+03 0.20733729E+03 0.12500000E+03 0.0000E+00 0.9000E+01
       23  1    1    2    0    0 0.28460053E+02 0.53223634E+02 -.29475620E+03 0.31438702E+03 0.91188000E+02 0.0000E+00 0.9000E+01
       -1  1    1    2    0  502 -.38247132E+01 -.24032466E+02 -.32079193E+02 0.40266175E+02 0.32000000E+00 0.0000E+00 0.9000E+01
#aMCatNLO 1  0  0  1  2 0.45167683D+02 0.00000000D+00  -5  6  0 0.00000000D+00 0.00000000D+00 0.00000000D+00 0.00000000D+00 0.00000000D+00
  <mgrwgt>
 -.5526438390D-01   12    4    0
 0.139552182601332D+03 0.000000000000000D+00 0.000000000000000D+00 0.139552182601332D+03
 0.139552182601332D+03 0.000000000000000D+00 0.000000000000000D+00 -.139552182601332D+03
 0.136195628857495D+03 -.246351874525476D+02 -.291902078405957D+02 0.382790886162299D+02
 0.117895110844689D+03 0.284601856312280D+02 0.532244647290761D+02 -.440588243740207D+02
 0.250136255004800D+02 -.382499817868037D+01 -.240342568884804D+02 0.577973575779084D+01
 0.000000000000000D+00 0.000000000000000D+00 -.000000000000000D+00 0.000000000000000D+00
 0.339820644699395D+03 0.000000000000000D+00 0.000000000000000D+00 0.339820644699395D+03
 0.143937783032658D+03 0.000000000000000D+00 0.000000000000000D+00 -.143937783032658D+03
 0.133637392593555D+03 -.266648272364657D+02 -.759282966780584D+01 0.382790886162299D+02
 0.127573565791047D+03 0.266138104576987D+02 0.728717258773488D+02 -.440588243740207D+02
 0.215245475007192D+02 -.417505069221691D+01 -.203093513288399D+02 0.577973575779084D+01
 0.201022921846731D+03 0.422606747098392D+01 -.449695448807030D+02 0.195882861666737D+03
 0.139552182601332D+03 0.000000000000000D+00 0.000000000000000D+00 0.139552182601332D+03
 0.139552182601332D+03 0.000000000000000D+00 0.000000000000000D+00 -.139552182601332D+03
 0.136195628857495D+03 -.246351874525476D+02 -.291902078405957D+02 0.382790886162299D+02
 0.117895110844689D+03 0.284601856312280D+02 0.532244647290761D+02 -.440588243740207D+02
 0.000000000000000D+00 0.000000000000000D+00 -.000000000000000D+00 0.000000000000000D+00
 0.250136255004800D+02 -.382499817868037D+01 -.240342568884804D+02 0.577973575779084D+01
 0.339820644699395D+03 0.000000000000000D+00 0.000000000000000D+00 0.339820644699395D+03
 0.143937783032658D+03 0.000000000000000D+00 0.000000000000000D+00 -.143937783032658D+03
 0.133637392593555D+03 -.266648272364657D+02 -.759282966780584D+01 0.382790886162299D+02
 0.127573565791047D+03 0.266138104576987D+02 0.728717258773488D+02 -.440588243740207D+02
 0.201022921846731D+03 0.422606747098392D+01 -.449695448807030D+02 0.195882861666737D+03
 0.215245475007192D+02 -.417505069221691D+01 -.203093513288399D+02 0.577973575779084D+01
0.125133563598D-05 0.000000000000D+00 0.000000000000D+00 0.541595107297D-06 0.000000000000D+00  6 21 -1 25 23 -1 21 2 0.57081258D-02 0.80751950D-01 0.17476224D+05 0.17476224D+05 0.17476224D+05 0.12403281D+01  1  2  2  1  6  1       21 0.614638273671D-02 0.100000000000D+01
0.544379531770D-07 0.660347957144D-07 -.252608612327D-08 0.541595107297D-06 0.000000000000D+00  6 21 -1 25 23 -1 21 4 0.57081258D-02 0.80751950D-01 0.17476224D+05 0.17476224D+05 0.17476224D+05 0.12403281D+01  1  2  3  1  6  1       21 0.411358726946D-03 0.100000000000D+01
0.116908619171D-06 0.000000000000D+00 0.000000000000D+00 0.541595107297D-06 0.000000000000D+00  6 21 -1 25 23 -1 21 4 0.57081258D-02 0.80751950D-01 0.17476224D+05 0.17476224D+05 0.17476224D+05 0.12403281D+01  1  2 15  1  6  1       21 0.883416402427D-03 0.100000000000D+01
-.352881170446D-04 0.000000000000D+00 -.243740005723D-05 0.541595107297D-06 0.000000000000D+00  6 21 -1 25 23 -1 21 4 0.14235805D-01 0.80751950D-01 0.17476224D+05 0.17476224D+05 0.17476224D+05 0.12403281D+01  1  2  5  1  6  1       21 -.543561069607D-01 0.100000000000D+01
-.104276945617D-04 0.000000000000D+00 -.763702137796D-06 0.541595107297D-06 0.000000000000D+00  6 -1 -1 25 23 -1 -1 4 0.14235805D-01 0.80751950D-01 0.17476224D+05 0.17476224D+05 0.17476224D+05 0.12403281D+01  1  2  5  4  6  1       21 -.115429631972D-02 0.100000000000D+01
-.104276945617D-04 0.000000000000D+00 -.763702137796D-06 0.541595107297D-06 0.000000000000D+00  6 1 -1 25 23 1 -1 4 0.14235805D-01 0.80751950D-01 0.17476224D+05 0.17476224D+05 0.17476224D+05 0.12403281D+01  3  4  5  5  5  1       21 -.156947772566D-02 0.100000000000D+01
-.104276945617D-04 0.000000000000D+00 -.763702137796D-06 0.541595107297D-06 0.000000000000D+00  6 -2 -1 25 23 -1 -2 4 0.14235805D-01 0.80751950D-01 0.17476224D+05 0.17476224D+05 0.17476224D+05 0.12403281D+01  1  2  5  6  6  1       21 -.108263364618D-02 0.100000000000D+01
-.104276945617D-04 0.000000000000D+00 -.763702137796D-06 0.541595107297D-06 0.000000000000D+00  6 -4 -1 25 23 -1 -4 4 0.14235805D-01 0.80751950D-01 0.17476224D+05 0.17476224D+05 0.17476224D+05 0.12403281D+01  1  2  5  6  6  1       21 -.622331125715D-03 0.100000000000D+01
-.104276945617D-04 0.000000000000D+00 -.763702137796D-06 0.541595107297D-06 0.000000000000D+00  6 2 -1 25 23 2 -1 4 0.14235805D-01 0.80751950D-01 0.17476224D+05 0.17476224D+05 0.17476224D+05 0.12403281D+01  3  4  5  7  5  1       21 -.185431960516D-02 0.100000000000D+01
-.104276945617D-04 0.000000000000D+00 -.763702137796D-06 0.541595107297D-06 0.000000000000D+00  6 4 -1 25 23 4 -1 4 0.14235805D-01 0.80751950D-01 0.17476224D+05 0.17476224D+05 0.17476224D+05 0.12403281D+01  3  4  5  7  5  1       21 -.622331125715D-03 0.100000000000D+01
-.104276945617D-04 0.000000000000D+00 -.763702137796D-06 0.541595107297D-06 0.000000000000D+00  6 -3 -1 25 23 -1 -3 4 0.14235805D-01 0.80751950D-01 0.17476224D+05 0.17476224D+05 0.17476224D+05 0.12403281D+01  1  2  5  8  6  1       21 -.722068262710D-03 0.100000000000D+01
-.104276945617D-04 0.000000000000D+00 -.763702137796D-06 0.541595107297D-06 0.000000000000D+00  6 3 -1 25 23 3 -1 4 0.14235805D-01 0.80751950D-01 0.17476224D+05 0.17476224D+05 0.17476224D+05 0.12403281D+01  3  4  5  9  5  1       21 -.721976990008D-03 0.100000000000D+01
  </mgrwgt>
  </event>
  <event>
  6     66 0.48379648E-03 0.65232349E+02 0.75467711E-02 0.11719052E+00
       21 -1    0    0  501  502 0.00000000E+00 0.00000000E+00 0.14202511E+03 0.14202709E+03 0.75000000E+00 0.0000E+00 0.9000E+01
       -3 -1    0    0    0  501 -.00000000E+00 -.00000000E+00 -.30070403E+03 0.30070445E+03 0.50000000E+00 0.0000E+00 0.9000E+01
       25  1    1    2    0    0 -.17319113E+02 0.27129285E+02 -.15448492E+03 0.20131205E+03 0.12500000E+03 0.0000E+00 0.9000E+01
       23  1    1    2    0    0 -.67790440E+01 -.87054564E+02 0.43433637E+02 0.13351474E+03 0.91188000E+02 0.0000E+00 0.9000E+01
       -3  1    1    2    0  503 0.10206977E+02 0.75073367E+02 -.41785165E+02 0.86524233E+02 0.50000000E+00 0.0000E+00 0.9000E+01
       21  1    1    2  503  502 0.13891181E+02 -.15148089E+02 -.58424795E+01 0.21380518E+02 0.75000000E+00 0.0000E+00 0.9000E+01
#aMCatNLO 2  0  0  5  5 0.18774328D+02 0.00000000D+00  -5  6  0 0.00000000D+00 0.00000000D+00 0.00000000D+00 0.00000000D+00 0.00000000D+00
  <mgrwgt>
 0.5314526031D-02    1    2    0
 0.206659265710459D+03 0.000000000000000D+00 0.000000000000000D+00 0.206659265710459D+03
 0.206659265710459D+03 -.000000000000000D+00 -.000000000000000D+00 -.206659265710459D+03
 0.154298992558449D+03 -.219357791316422D+02 0.156489478534909D+02 -.863545663501288D+02
 0.168015414501306D+03 -.116495324355950D+02 -.991660866100821D+02 0.997211302910244D+02
 0.910041243611638D+02 0.335853115672372D+02 0.835171387565913D+02 -.133665639408955D+02
 0.000000000000000D+00 0.000000000000000D+00 0.000000000000000D+00 0.000000000000000D+00
 0.206659265710459D+03 0.000000000000000D+00 0.000000000000000D+00 0.206659265710459D+03
 0.206659265710459D+03 -.000000000000000D+00 -.000000000000000D+00 -.206659265710459D+03
 0.156353106581129D+03 -.172750594520260D+02 0.272388350400011D+02 -.882094786525936D+02
 0.159617017536039D+03 -.673405648063981D+01 -.869426928635982D+02 0.977648279497373D+02
 0.764882737187385D+02 0.992119423474753D+01 0.749624999252584D+02 -.115173576129558D+02
 0.208601335850129D+02 0.140879216979183D+02 -.152586421016612D+02 0.196200831581208D+01
0.545218002652D-05 0.000000000000D+00 0.000000000000D+00 0.593913540768D-07 0.183003174481D-08  6 21 -3 25 23 -3 21 4 0.21850201D-01 0.46262343D-01 0.30914664D+05 0.30914664D+05 0.30914664D+05 0.12135318D+01  1  2  1  3  6  5       -3 0.531452603136D-02 0.100000000000D+01
  </mgrwgt>
  </event>
  <event>
  5     66 -.48379648E-03 0.26104427E+02 0.75467711E-02 0.11456796E+00
       21 -1    0    0  501  502 0.00000000E+00 0.00000000E+00 0.13619511E+04 0.13619513E+04 0.75000000E+00 0.0000E+00 0.9000E+01
       -3 -1    0    0    0  501 0.00000000E+00 0.00000000E+00 -.32120290E+02 0.32124181E+02 0.50000000E+00 0.0000E+00 0.9000E+01
       25  1    1    2    0    0 0.13769196E+03 0.48954040E+02 0.74332460E+03 0.76779687E+03 0.12500000E+03 0.0000E+00 0.9000E+01
       23  1    1    2    0    0 -.16288463E+03 -.42127959E+02 0.54055814E+03 0.57343223E+03 0.91188000E+02 0.0000E+00 0.9000E+01
       -3  1    1    2    0  502 0.25192669E+02 -.68260812E+01 0.45948105E+02 0.52846422E+02 0.50000000E+00 0.0000E+00 0.9000E+01
#aMCatNLO 1  0  0  5  1 0.68085413D+01 0.00000000D+00  -5  6  0 0.00000000D+00 0.00000000D+00 0.00000000D+00 0.00000000D+00 0.00000000D+00
  <mgrwgt>
 -.1812588741D-01    5    2    0
 0.209162906145640D+03 0.000000000000000D+00 0.000000000000000D+00 0.209162906145640D+03
 0.209162906145640D+03 -.000000000000000D+00 -.000000000000000D+00 -.209162906145640D+03
 0.195709853962215D+03 0.137690328123511D+03 0.489544822110906D+02 0.363617814551953D+02
 0.192571025349099D+03 -.162886235770543D+03 -.421275234500567D+02 -.214870757543068D+02
 0.300449329799660D+02 0.251959076470316D+02 -.682695876103391D+01 -.148747057008885D+02
 0.000000000000000D+00 0.000000000000000D+00 0.000000000000000D+00 0.000000000000000D+00
 0.209162906145640D+03 0.000000000000000D+00 0.000000000000000D+00 0.209162906145640D+03
 0.209162906145640D+03 -.000000000000000D+00 -.000000000000000D+00 -.209162906145640D+03
 0.198127631824271D+03 0.142175622432117D+03 0.477391690060687D+02 0.337138342664288D+02
 0.189480294992170D+03 -.158535170484566D+03 -.433064666217042D+02 -.240557792327020D+02
 0.233468877361295D+02 0.174821593647587D+02 -.458530413623688D-01 -.154741451591746D+02
 0.737099773870913D+01 -.112261131230935D+01 -.438684934300213D+01 0.581609012544784D+01
0.574382148191D-04 0.000000000000D+00 0.000000000000D+00 0.123926604761D-06 0.000000000000D+00  6 21 -3 25 23 -3 21 2 0.20953126D+00 0.49418983D-02 0.41978932D+05 0.41978932D+05 0.41978932D+05 0.11998764D+01  1  2  2  3  6  5       -3 0.110004481812D-01 0.100000000000D+01
0.252246256188D-05 0.303109787072D-05 -.115951207037D-06 0.123926604761D-06 0.000000000000D+00  6 21 -3 25 23 -3 21 4 0.20953126D+00 0.49418983D-02 0.41978932D+05 0.41978932D+05 0.41978932D+05 0.11998764D+01  1  2  3  3  6  5       -3 0.695516155716D-03 0.100000000000D+01
0.525011213605D-05 0.000000000000D+00 0.000000000000D+00 0.123926604761D-06 0.000000000000D+00  6 21 -3 25 23 -3 21 4 0.20953126D+00 0.49418983D-02 0.41978932D+05 0.41978932D+05 0.41978932D+05 0.11998764D+01  1  2 15  3  6  5       -3 0.144760832733D-02 0.100000000000D+01
0.201398678285D-04 0.000000000000D+00 0.000000000000D+00 0.124130602285D-06 0.000000000000D+00  6 21 -3 25 23 -3 21 4 0.20953126D+00 0.49418983D-02 0.41045880D+05 0.41045880D+05 0.41045880D+05 0.12008636D+01  1  2 12  3  6  5       -3 0.557544002171D-02 0.100000000000D+01
-.133627206668D-03 0.000000000000D+00 0.000000000000D+00 0.123926604761D-06 0.000000000000D+00  6 21 -3 25 23 -3 21 4 0.20953126D+00 0.49418983D-02 0.41978932D+05 0.41978932D+05 0.41978932D+05 0.11998764D+01  1  2  4  3  6  5       -3 -.368449000929D-01 0.100000000000D+01
  </mgrwgt>
  </event>
  <event>
  5     66 0.48379648E-03 0.38835509E+02 0.75467711E-02 0.94102447E-01
       21 -1    0    0  501  502 0.00000000E+00 0.00000000E+00 0.10445336E+03 0.10445605E+03 0.75000000E+00 0.0000E+00 0.9000E+01
       -1 -1    0    0    0  501 0.00000000E+00 0.00000000E+00 -.39130915E+03 0.39130928E+03 0.32000000E+00 0.0000E+00 0.9000E+01
       25  1    1    2    0    0 -.11319130E+01 0.36284532E+02 -.41098949E+02 0.13649898E+03 0.12500000E+03 0.0000E+00 0.9000E+01
       23  1    1    2    0    0 0.36981287E+02 -.21351122E+02 -.28607950E+03 0.30328240E+03 0.91188000E+02 0.0000E+00 0.9000E+01
       -1  1    1    2    0  502 -.35849374E+02 -.14933410E+02 0.40322653E+02 0.55983954E+02 0.32000000E+00 0.0000E+00 0.9000E+01
#aMCatNLO 1  0  0  1  2 0.22689072D+02 0.00000000D+00  -5  6  0 0.00000000D+00 0.00000000D+00 0.00000000D+00 0.00000000D+00 0.00000000D+00
  <mgrwgt>
 0.2845688693D-01   12    4    0
 0.202173826998871D+03 0.000000000000000D+00 0.000000000000000D+00 0.202173826998871D+03
 0.202173826998871D+03 0.000000000000000D+00 0.000000000000000D+00 -.202173826998871D+03
 0.138202786901721D+03 -.113184665414185D+01 0.362845592954953D+02 0.464452364326610D+02
 0.168897760378665D+03 0.369813676919976D+02 -.213510879719047D+02 -.135601296464946D+03
 0.972471067173549D+02 -.358495210378557D+02 -.149334713235906D+02 0.891560600322852D+02
 0.000000000000000D+00 0.000000000000000D+00 -.000000000000000D+00 0.000000000000000D+00
 0.135398044453537D+04 0.000000000000000D+00 0.000000000000000D+00 0.135398044453537D+04
 0.721324637343256D+03 0.000000000000000D+00 0.000000000000000D+00 -.721324637343256D+03
 0.414792435913415D+03 -.549238149867204D+02 0.388913845794931D+03 0.464452364326610D+02
 0.350650506267032D+03 -.135570868074441D+02 0.309950028223336D+03 -.135601296464946D+03
 0.215168263692574D+03 -.662393635145234D+02 0.184284902748944D+03 0.891560600322852D+02
 0.109469387600560D+04 0.134720265308688D+03 -.883148776767211D+03 0.632655807192110D+03
 0.202173826998871D+03 0.000000000000000D+00 0.000000000000000D+00 0.202173826998871D+03
 0.202173826998871D+03 0.000000000000000D+00 0.000000000000000D+00 -.202173826998871D+03
 0.138202786901721D+03 -.113184665414185D+01 0.362845592954953D+02 0.464452364326610D+02
 0.168897760378665D+03 0.369813676919976D+02 -.213510879719047D+02 -.135601296464946D+03
 0.000000000000000D+00 0.000000000000000D+00 -.000000000000000D+00 0.000000000000000D+00
 0.972471067173549D+02 -.358495210378557D+02 -.149334713235906D+02 0.891560600322852D+02
 0.135398044453537D+04 0.000000000000000D+00 0.000000000000000D+00 0.135398044453537D+04
 0.721324637343256D+03 0.000000000000000D+00 0.000000000000000D+00 -.721324637343256D+03
 0.414792435913415D+03 -.549238149867204D+02 0.388913845794931D+03 0.464452364326610D+02
 0.350650506267032D+03 -.135570868074441D+02 0.309950028223336D+03 -.135601296464946D+03
 0.109469387600560D+04 0.134720265308688D+03 -.883148776767211D+03 0.632655807192110D+03
 0.215168263692574D+03 -.662393635145234D+02 0.184284902748944D+03 0.891560600322852D+02
0.920876553286D-05 0.000000000000D+00 0.000000000000D+00 0.589429810044D-06 0.000000000000D+00  6 21 -1 25 23 -1 21 2 0.16069965D-01 0.60201626D-01 0.18183381D+05 0.18183381D+05 0.18183381D+05 0.12384051D+01  1  2  2  1  6  1       21 0.131750506398D-01 0.100000000000D+01
0.487948445658D-06 0.485959908164D-06 -.185898444479D-07 0.589429810044D-06 0.000000000000D+00  6 21 -1 25 23 -1 21 4 0.16069965D-01 0.60201626D-01 0.18183381D+05 0.18183381D+05 0.18183381D+05 0.12384051D+01  1  2  3  1  6  1       21 0.107065672475D-02 0.100000000000D+01
0.920442155677D-06 0.000000000000D+00 0.000000000000D+00 0.589429810044D-06 0.000000000000D+00  6 21 -1 25 23 -1 21 4 0.16069965D-01 0.60201626D-01 0.18183381D+05 0.18183381D+05 0.18183381D+05 0.12384051D+01  1  2 15  1  6  1       21 0.201963464068D-02 0.100000000000D+01
0.157209647239D-02 0.000000000000D+00 -.913084470978D-03 0.589429810044D-06 0.000000000000D+00  6 21 -1 25 23 -1 21 4 0.28941755D+00 0.60201626D-01 0.18183381D+05 0.18183381D+05 0.18183381D+05 0.12384051D+01  1  2  5  1  6  1       21 0.427015234125D-02 0.100000000000D+01
0.693859689122D-03 0.000000000000D+00 -.403836880687D-03 0.589429810044D-06 0.000000000000D+00  6 -1 -1 25 23 -1 -1 4 0.28941755D+00 0.60201626D-01 0.18183381D+05 0.18183381D+05 0.18183381D+05 0.12384051D+01  1  2  5  4  6  1       21 0.198824321561D-03 0.100000000000D+01
0.693859689122D-03 0.000000000000D+00 -.403836880687D-03 0.589429810044D-06 0.000000000000D+00  6 1 -1 25 23 1 -1 4 0.28941755D+00 0.60201626D-01 0.18183381D+05 0.18183381D+05 0.18183381D+05 0.12384051D+01  3  4  5  5  5  1       21 0.210830408151D-02 0.100000000000D+01
0.693859689122D-03 0.000000000000D+00 -.403836880687D-03 0.589429810044D-06 0.000000000000D+00  6 -2 -1 25 23 -1 -2 4 0.28941755D+00 0.60201626D-01 0.18183381D+05 0.18183381D+05 0.18183381D+05 0.12384051D+01  1  2  5  6  6  1       21 0.162301268772D-03 0.100000000000D+01
0.693859689122D-03 0.000000000000D+00 -.403836880687D-03 0.589429810044D-06 0.000000000000D+00  6 -4 -1 25 23 -1 -4 4 0.28941755D+00 0.60201626D-01 0.18183381D+05 0.18183381D+05 0.18183381D+05 0.12384051D+01  1  2  5  6  6  1       21 0.812471603415D-04 0.100000000000D+01
0.693859689122D-03 0.000000000000D+00 -.403836880687D-03 0.589429810044D-06 0.000000000000D+00  6 2 -1 25 23 2 -1 4 0.28941755D+00 0.60201626D-01 0.18183381D+05 0.18183381D+05 0.18183381D+05 0.12384051D+01  3  4  5  7  5  1       21 0.506045747360D-02 0.100000000000D+01
0.693859689122D-03 0.000000000000D+00 -.403836880687D-03 0.589429810044D-06 0.000000000000D+00  6 4 -1 25 23 4 -1 4 0.28941755D+00 0.60201626D-01 0.18183381D+05 0.18183381D+05 0.18183381D+05 0.12384051D+01  3  4  5  7  5  1       21 0.812471603415D-04 0.100000000000D+01
0.693859689122D-03 0.000000000000D+00 -.403836880687D-03 0.589429810044D-06 0.000000000000D+00  6 -3 -1 25 23 -1 -3 4 0.28941755D+00 0.60201626D-01 0.18183381D+05 0.18183381D+05 0.18183381D+05 0.12384051D+01  1  2  5  8  6  1       21 0.113689145477D-03 0.100000000000D+01
0.693859689122D-03 0.000000000000D+00 -.403836880687D-03 0.589429810044D-06 0.000000000000D+00  6 3 -1 25 23 3 -1 4 0.28941755D+00 0.60201626D-01 0.18183381D+05 0.18183381D+05 0.18183381D+05 0.12384051D+01  3  4  5  9  5  1       21 0.115321972626D-03 0.100000000000D+01
  </mgrwgt>
  </event>
  <event>
  6     66 -.48379648E-03 0.22019215E+02 0.75467711E-02 0.12149845E+00
       21 -1    0    0  501  503 0.00000000E+00 0.00000000E+00 0.18572318E+03 0.18572469E+03 0.75000000E+00 0.0000E+00 0.9000E+01
       -1 -1    0    0    0  501 0.00000000E+00 0.00000000E+00 -.12432907E+03 0.12432949E+03 0.32000000E+00 0.0000E+00 0.9000E+01
       25  1    1    2    0    0 0.43560253E+02 -.15118177E+02 0.10149805E+02 0.13361914E+03 0.12500000E+03 0.0000E+00 0.9000E+01
       23  1    1    2    0    0 -.80836088E+01 0.39371656E+02 0.60937471E+02 0.11680796E+03 0.91188000E+02 0.0000E+00 0.9000E+01
       -1  1    1    2    0  502 -.27181167E+02 -.11637880E+02 -.24549157E+02 0.38432013E+02 0.32000000E+00 0.0000E+00 0.9000E+01
       21  1    1    2  502  503 -.82954767E+01 -.12615599E+02 0.14855983E+02 0.21195071E+02 0.75000000E+00 0.0000E+00 0.9000E+01
#aMCatNLO 2  0  0  1  2 0.15098618D+02 0.00000000D+00  -5  6  0 0.00000000D+00 0.00000000D+00 0.00000000D+00 0.00000000D+00 0.00000000D+00
  <mgrwgt>
 -.1299698695D-01    3    2    0
 0.142342735820529D+03 0.000000000000000D+00 0.000000000000000D+00 0.142342735820529D+03
 0.142342735820529D+03 0.000000000000000D+00 0.000000000000000D+00 -.142342735820529D+03
 0.133319538015259D+03 0.396725291322703D+02 -.210309138650510D+02 -.115278059860579D+02
 0.107049809307733D+03 -.112202242251843D+02 0.346012613737623D+02 0.426763354624441D+02
 0.443161243180660D+02 -.284523049070860D+02 -.135703475087113D+02 -.311485294763863D+02
 0.000000000000000D+00 -.000000000000000D+00 -.000000000000000D+00 0.000000000000000D+00
 0.157856527090917D+03 0.000000000000000D+00 0.000000000000000D+00 0.157856527090917D+03
 0.146264418351538D+03 0.000000000000000D+00 0.000000000000000D+00 -.146264418351538D+03
 0.133730963225238D+03 0.435606017373256D+02 -.151180088166394D+02 -.115278059860579D+02
 0.108406639030150D+03 -.808332573417329D+01 0.393717954681454D+02 0.426763354624441D+02
 0.429479744433876D+02 -.271817993277173D+02 -.116381873827619D+02 -.311485294763863D+02
 0.190353687436784D+02 -.829547667543502D+01 -.126155992687441D+02 0.115921087393789D+02
-.283626763179D-05 0.000000000000D+00 0.000000000000D+00 0.218593058762D-06 0.000000000000D+00  6 21 -1 25 23 -1 21 4 0.28900169D-01 0.18613915D-01 0.19258968D+05 0.19258968D+05 0.19258968D+05 0.12356353D+01  1  2 13  1  6  1       21 -.155214048317D-01 0.100000000000D+01
-.213235918155D-05 0.000000000000D+00 0.000000000000D+00 0.218593058762D-06 0.000000000000D+00  6 21 -1 25 23 -1 21 4 0.29877005D-01 0.18613915D-01 0.19258968D+05 0.19258968D+05 0.19258968D+05 0.12356353D+01  1  2 13  1  6  1       21 -.109448091780D-01 0.100000000000D+01
0.251458589151D-05 0.000000000000D+00 0.000000000000D+00 0.220502788364D-06 0.203720730356D-07  6 21 -1 25 23 -1 21 4 0.28571524D-01 0.19126747D-01 0.19258968D+05 0.19258968D+05 0.19258968D+05 0.12356353D+01  1  2  1  1  6  1       21 0.134692270626D-01 0.100000000000D+01
  </mgrwgt>
  </event>
  <event>
  5     66 -.48379648E-03 0.67055614E+02 0.75467711E-02 0.11562683E+00
       21 -1    0    0  501  502 0.00000000E+00 0.00000000E+00 0.56722893E+02 0.56727851E+02 0.75000000E+00 0.0000E+00 0.9000E+01
       -1 -1    0    0    0  501 -.00000000E+00 -.00000000E+00 -.74435375E+03 0.74435382E+03 0.32000000E+00 0.0000E+00 0.9000E+01
       25  1    1    2    0    0 -.82529102E+02 0.11240433E+03 -.31842225E+03 0.36940969E+03 0.12500000E+03 0.0000E+00 0.9000E+01
       23  1    1    2    0    0 0.18202927E+02 -.93469023E+02 -.32664013E+03 0.35224541E+03 0.91188000E+02 0.0000E+00 0.9000E+01
       -1  1    1    2    0  502 0.64326176E+02 -.18935311E+02 -.42568482E+02 0.79426576E+02 0.32000000E+00 0.0000E+00 0.9000E+01
#aMCatNLO 1  0  0  5  1 0.82129873D+01 0.00000000D+00  -5  6  0 0.00000000D+00 0.00000000D+00 0.00000000D+00 0.00000000D+00 0.00000000D+00
  <mgrwgt>
 -.4115550707D-01    8    2    0
 0.205484577658058D+03 0.000000000000000D+00 0.000000000000000D+00 0.205484577658058D+03
 0.205484577658058D+03 -.000000000000000D+00 -.000000000000000D+00 -.205484577658058D+03
 0.187290014935337D+03 -.825293170990528D+02 0.112404397306898D+03 -.259094185882390D+01
 0.140082304305935D+03 0.182027659143222D+02 -.934689755448619D+02 -.473287498178735D+02
 0.835968360748448D+02 0.643265511847306D+02 -.189354217620358D+02 0.499196916766974D+02
 0.000000000000000D+00 0.000000000000000D+00 0.000000000000000D+00 0.000000000000000D+00
 0.205484577658058D+03 0.000000000000000D+00 0.000000000000000D+00 0.205484577658058D+03
 0.205484577658058D+03 -.000000000000000D+00 -.000000000000000D+00 -.205484577658058D+03
 0.186925408025145D+03 -.819469105362701D+02 0.112232957773763D+03 -.213897365115324D+01
 0.140111426908982D+03 0.186388427243562D+02 -.935973408647269D+02 -.469903387029710D+02
 0.480011238690382D+02 0.410871206251149D+02 -.121281907858845D+02 0.216532537898857D+02
 0.359311965129504D+02 0.222209471867990D+02 -.650742612315178D+01 0.274760585642386D+02
0.182057147872D-05 0.000000000000D+00 0.000000000000D+00 0.171828268523D-06 0.000000000000D+00  6 21 -1 25 23 -1 21 2 0.87269856D-02 0.11451635D+00 0.37282294D+05 0.37282294D+05 0.37282294D+05 0.12051158D+01  1  2  2  3  6  5       -1 0.189549864658D-02 0.100000000000D+01
-.137572308802D-07 0.960741964216D-07 -.367520928564D-08 0.171828268523D-06 0.000000000000D+00  6 21 -1 25 23 -1 21 4 0.87269856D-02 0.11451635D+00 0.37282294D+05 0.37282294D+05 0.37282294D+05 0.12051158D+01  1  2  3  3  6  5       -1 -.208019625633D-04 0.100000000000D+01
0.174432084892D-06 0.000000000000D+00 0.000000000000D+00 0.171828268523D-06 0.000000000000D+00  6 21 -1 25 23 -1 21 4 0.87269856D-02 0.11451635D+00 0.37282294D+05 0.37282294D+05 0.37282294D+05 0.12051158D+01  1  2 15  3  6  5       -1 0.263754365349D-03 0.100000000000D+01
0.700717045907D-05 0.000000000000D+00 0.000000000000D+00 0.171911744182D-06 0.000000000000D+00  6 21 -1 25 23 -1 21 4 0.87269856D-02 0.11451635D+00 0.37037732D+05 0.37037732D+05 0.37037732D+05 0.12054085D+01  1  2 12  3  6  5       -1 0.106065917550D-01 0.100000000000D+01
-.401830573877D-04 0.000000000000D+00 0.000000000000D+00 0.171828268523D-06 0.000000000000D+00  6 21 -1 25 23 -1 21 4 0.87269856D-02 0.11451635D+00 0.37282294D+05 0.37282294D+05 0.37282294D+05 0.12051158D+01  1  2  4  3  6  5       -1 -.607597897237D-01 0.100000000000D+01
-.697107156533D-05 0.000000000000D+00 0.000000000000D+00 0.171828268523D-06 0.000000000000D+00  6 21 -1 25 23 -1 21 4 0.87269856D-02 0.11451635D+00 0.37282294D+05 0.37282294D+05 0.37282294D+05 0.12051158D+01  1  2  5  3  6  5       -1 -.105407818617D-01 0.100000000000D+01
0.114540736661D-04 0.000000000000D+00 -.000000000000D+00 0.171828268523D-06 0.000000000000D+00  6 21 -1 25 23 -1 21 4 0.87269856D-02 0.11451635D+00 0.37282294D+05 0.37282294D+05 0.37282294D+05 0.12051158D+01  1  2  6  3  6  5       -1 0.173194165072D-01 0.100000000000D+01
0.532512603886D-07 0.000000000000D+00 0.000000000000D+00 0.171828268523D-06 0.202022800964D-07  6 21 -1 25 23 -1 21 4 0.87269856D-02 0.11451635D+00 0.37037732D+05 0.37037732D+05 0.37037732D+05 0.12054085D+01  1  2 11  3  6  5       -1 0.806052004411D-04 0.100000000000D+01
  </mgrwgt>
  </event>
  <event>
  5     66 -.48379648E-03 0.12801340E+03 0.75467711E-02 0.11509206E+00
       21 -1    0    0  501  502 0.00000000E+00 0.00000000E+00 0.68079308E+03 0.68079350E+03 0.75000000E+00 0.0000E+00 0.9000E+01
       -1 -1    0    0    0  501 0.00000000E+00 0.00000000E+00 -.13736160E+03 0.13736198E+03 0.32000000E+00 0.0000E+00 0.9000E+01
       25  1    1    2    0    0 0.10300442E+03 0.53595002E+02 0.75855753E+02 0.18671216E+03 0.12500000E+03 0.0000E+00 0.9000E+01
       23  1    1    2    0    0 -.11473533E+02 0.35900883E+02 -.41114145E+02 0.10689312E+03 0.91188000E+02 0.0000E+00 0.9000E+01
       -1  1    1    2    0  502 -.91530882E+02 -.89495885E+02 0.50868987E+03 0.52455019E+03 0.32000000E+00 0.0000E+00 0.9000E+01
#aMCatNLO 1  0  0  5  1 0.25175679D+01 0.00000000D+00  -5  6  0 0.00000000D+00 0.00000000D+00 0.00000000D+00 0.00000000D+00 0.00000000D+00
  <mgrwgt>
 -.7961798587D-02    8    2    0
 0.305802469102333D+03 0.000000000000000D+00 0.000000000000000D+00 0.305802469102333D+03
 0.305802469102333D+03 -.000000000000000D+00 -.000000000000000D+00 -.305802469102333D+03
 0.182368034694534D+03 0.103004437692382D+03 0.535950242324284D+02 -.644263864542175D+02
 0.179524288995182D+03 -.114735108403227D+02 0.359009041886787D+02 -.149977340363997D+03
 0.249712614514951D+03 -.915309268520597D+02 -.894959284211072D+02 0.214403726818214D+03
 0.000000000000000D+00 0.000000000000000D+00 0.000000000000000D+00 0.000000000000000D+00
 0.305802469102333D+03 0.000000000000000D+00 0.000000000000000D+00 0.305802469102333D+03
 0.305802469102333D+03 -.000000000000000D+00 -.000000000000000D+00 -.305802469102333D+03
 0.182328969963697D+03 0.102981176477771D+03 0.535722801821989D+02 -.643718989572087D+02
 0.179476470933818D+03 -.114964087353309D+02 0.358785153804024D+02 -.149923703913510D+03
 0.233795472692268D+03 -.874663531622077D+02 -.850333477148608D+02 0.199447461483741D+03
 0.160040246148842D+02 -.401841458023211D+01 -.441744784774054D+01 0.148481413869780D+02
0.982724864342D-06 0.000000000000D+00 0.000000000000D+00 0.500031004497D-06 0.000000000000D+00  6 21 -1 25 23 -1 21 2 0.10473746D+00 0.21132615D-01 0.39460260D+05 0.39460260D+05 0.39460260D+05 0.12025999D+01  1  2  2  3  6  5       -1 0.174123165729D-03 0.100000000000D+01
-.118643044332D-07 0.518598158593D-07 -.198383836552D-08 0.500031004497D-06 0.000000000000D+00  6 21 -1 25 23 -1 21 4 0.10473746D+00 0.21132615D-01 0.39460260D+05 0.39460260D+05 0.39460260D+05 0.12025999D+01  1  2  3  3  6  5       -1 -.304024929523D-05 0.100000000000D+01
0.111251098096D-06 0.000000000000D+00 0.000000000000D+00 0.500031004497D-06 0.000000000000D+00  6 21 -1 25 23 -1 21 4 0.10473746D+00 0.21132615D-01 0.39460260D+05 0.39460260D+05 0.39460260D+05 0.12025999D+01  1  2 15  3  6  5       -1 0.285082934682D-04 0.100000000000D+01
0.559277370335D-06 0.000000000000D+00 0.000000000000D+00 0.500045892462D-06 0.000000000000D+00  6 21 -1 25 23 -1 21 4 0.10473746D+00 0.21132615D-01 0.39444270D+05 0.39444270D+05 0.39444270D+05 0.12026178D+01  1  2 12  3  6  5       -1 0.143326796476D-03 0.100000000000D+01
-.489496435026D-03 0.000000000000D+00 0.000000000000D+00 0.500031004497D-06 0.000000000000D+00  6 21 -1 25 23 -1 21 4 0.10473746D+00 0.21132615D-01 0.39460260D+05 0.39460260D+05 0.39460260D+05 0.12025999D+01  1  2  4  3  6  5       -1 -.125434339617D+00 0.100000000000D+01
-.200627646828D-03 0.000000000000D+00 0.000000000000D+00 0.500031004497D-06 0.000000000000D+00  6 21 -1 25 23 -1 21 4 0.10473746D+00 0.21132615D-01 0.39460260D+05 0.39460260D+05 0.39460260D+05 0.12025999D+01  1  2  5  3  6  5       -1 -.514111944197D-01 0.100000000000D+01
0.213896963767D-03 0.000000000000D+00 -.000000000000D+00 0.500031004497D-06 0.000000000000D+00  6 21 -1 25 23 -1 21 4 0.10473746D+00 0.21132615D-01 0.39460260D+05 0.39460260D+05 0.39460260D+05 0.12025999D+01  1  2  6  3  6  5       -1 0.548114806900D-01 0.100000000000D+01
0.443784734977D-03 0.000000000000D+00 0.000000000000D+00 0.500031004497D-06 0.124753288284D-05  6 21 -1 25 23 -1 21 4 0.10473746D+00 0.21132615D-01 0.39444270D+05 0.39444270D+05 0.39444270D+05 0.12026178D+01  1  2 11  3  6  5       -1 0.113729336753D+00 0.100000000000D+01
  </mgrwgt>
  </event>
  <event>
  5     66 -.48379648E-03 0.78476569E+02 0.75467711E-02 0.11317240E+00
       21 -1    0    0  501  502 0.00000000E+00 0.00000000E+00 0.73544406E+03 0.73544445E+03 0.75000000E+00 0.0000E+00 0.9000E+01
       -3 -1    0    0    0  501 0.00000000E+00 0.00000000E+00 -.92692403E+02 0.92693751E+02 0.50000000E+00 0.0000E+00 0.9000E+01
       25  1    1    2    0    0 0.97640405E+02 -.39381186E+02 0.41587224E+03 0.44683246E+03 0.12500000E+03 0.0000E+00 0.9000E+01
       23  1    1    2    0    0 0.67722872E+02 0.65881010E+01 0.16766540E+03 0.20262460E+03 0.91188000E+02 0.0000E+00 0.9000E+01
       -3  1    1    2    0  502 -.16536328E+03 0.32793085E+02 0.59214023E+02 0.17868114E+03 0.50000000E+00 0.0000E+00 0.9000E+01
#aMCatNLO 1  0  0  5  1 0.21015671D+02 0.00000000D+00  -5  6  0 0.00000000D+00 0.00000000D+00 0.00000000D+00 0.00000000D+00 0.00000000D+00
  <mgrwgt>
 -.1833036171D-02    7    2    0
 0.261095374044271D+03 0.000000000000000D+00 0.000000000000000D+00 0.261095374044271D+03
 0.261095374044271D+03 -.000000000000000D+00 -.000000000000000D+00 -.261095374044271D+03
 0.196741406189381D+03 0.976405810687176D+02 -.393812204091225D+02 0.109533635551032D+03
 0.114965639064266D+03 0.677229748646843D+02 0.658808065143890D+01 0.164937166903839D+02
 0.210483702834895D+03 -.165363555933402D+03 0.327931397576836D+02 -.126027352241416D+03
 0.000000000000000D+00 0.000000000000000D+00 0.000000000000000D+00 0.000000000000000D+00
 0.261095374044271D+03 0.000000000000000D+00 0.000000000000000D+00 0.261095374044271D+03
 0.261095374044271D+03 -.000000000000000D+00 -.000000000000000D+00 -.261095374044271D+03
 0.195443121187466D+03 0.962851897419257D+02 -.391124336322844D+02 0.108500660787020D+03
 0.114424121046553D+03 0.669302029177933D+02 0.674529474316319D+01 0.158895270378695D+02
 0.135647468655624D+03 -.101326767762051D+03 0.276940533184640D+01 -.901412906590634D+02
 0.766760371988994D+02 -.618886248976680D+02 0.295977335572748D+02 -.342488971658259D+02
0.450478162185D-05 0.000000000000D+00 0.000000000000D+00 0.123046348661D-06 0.000000000000D+00  6 21 -3 25 23 -3 21 2 0.11314537D+00 0.14260503D-01 0.49682346D+05 0.49682346D+05 0.49682346D+05 0.11925560D+01  1  2  2  3  6  5       -3 0.775600795740D-03 0.100000000000D+01
-.587273348815D-06 0.237723857279D-06 -.909385620941D-08 0.123046348661D-06 0.000000000000D+00  6 21 -3 25 23 -3 21 4 0.11314537D+00 0.14260503D-01 0.49682346D+05 0.49682346D+05 0.49682346D+05 0.11925560D+01  1  2  3  3  6  5       -3 -.143801144665D-03 0.100000000000D+01
0.553806258908D-06 0.000000000000D+00 0.000000000000D+00 0.123046348661D-06 0.000000000000D+00  6 21 -3 25 23 -3 21 4 0.11314537D+00 0.14260503D-01 0.49682346D+05 0.49682346D+05 0.49682346D+05 0.11925560D+01  1  2 15  3  6  5       -3 0.135606313677D-03 0.100000000000D+01
0.192848468555D-04 0.000000000000D+00 0.000000000000D+00 0.123044320346D-06 0.000000000000D+00  6 21 -3 25 23 -3 21 4 0.11314537D+00 0.14260503D-01 0.49693694D+05 0.49693694D+05 0.49693694D+05 0.11925461D+01  1  2 12  3  6  5       -3 0.472195856804D-02 0.100000000000D+01
-.378242749347D-04 0.000000000000D+00 0.000000000000D+00 0.123046348661D-06 0.000000000000D+00  6 21 -3 25 23 -3 21 4 0.11314537D+00 0.14260503D-01 0.49682346D+05 0.49682346D+05 0.49682346D+05 0.11925560D+01  1  2  4  3  6  5       -3 -.926174164503D-02 0.100000000000D+01
-.186634413386D-04 0.000000000000D+00 0.000000000000D+00 0.123046348661D-06 0.000000000000D+00  6 21 -3 25 23 -3 21 4 0.11314537D+00 0.14260503D-01 0.49682346D+05 0.49682346D+05 0.49682346D+05 0.11925560D+01  1  2  5  3  6  5       -3 -.456997449875D-02 0.100000000000D+01
0.265835677881D-04 0.000000000000D+00 -.000000000000D+00 0.123046348661D-06 0.000000000000D+00  6 21 -3 25 23 -3 21 4 0.11314537D+00 0.14260503D-01 0.49682346D+05 0.49682346D+05 0.49682346D+05 0.11925560D+01  1  2  6  3  6  5       -3 0.650931544046D-02 0.100000000000D+01
  </mgrwgt>
  </event>
  <event>
  5     66 0.48379648E-03 0.63805849E+02 0.75467711E-02 0.12051398E+00
       21 -1    0    0  501  502 0.00000000E+00 0.00000000E+00 0.48023970E+03 0.48024028E+03 0.75000000E+00 0.0000E+00 0.9000E+01
       -3 -1    0    0    0  501 0.00000000E+00 0.00000000E+00 -.50723081E+02 0.50725545E+02 0.50000000E+00 0.0000E+00 0.9000E+01
       25  1    1    2    0    0 0.53104555E+02 0.34216783E+02 0.14606129E+03 0.20236052E+03 0.12500000E+03 0.0000E+00 0.9000E+01
       23  1    1    2    0    0 -.13113974E+01 0.30454204E+01 0.22197821E+03 0.24000119E+03 0.91188000E+02 0.0000E+00 0.9000E+01
       -3  1    1    2    0  502 -.51793157E+02 -.37262203E+02 0.61477121E+02 0.88604116E+02 0.50000000E+00 0.0000E+00 0.9000E+01
#aMCatNLO 1  0  0  5  1 0.55460006D+01 0.00000000D+00  -5  6  0 0.00000000D+00 0.00000000D+00 0.00000000D+00 0.00000000D+00 0.00000000D+00
  <mgrwgt>
 0.3543812495D-02    8    2    0
 0.156077053573147D+03 0.000000000000000D+00 0.000000000000000D+00 0.156077053573147D+03
 0.156077053573147D+03 -.000000000000000D+00 -.000000000000000D+00 -.156077053573147D+03
 0.143233333394269D+03 0.531052341502177D+02 0.342172715606198D+02 -.299966702824010D+02
 0.102798985916118D+03 -.131090975855658D+01 0.304577126874533D+01 0.473432672548651D+02
 0.661217878359079D+02 -.517943243916611D+02 -.372630428293651D+02 -.173465969724641D+02
 0.000000000000000D+00 0.000000000000000D+00 0.000000000000000D+00 -.000000000000000D+00
 0.156077053573147D+03 0.000000000000000D+00 0.000000000000000D+00 0.156077053573147D+03
 0.156077053573147D+03 -.000000000000000D+00 -.000000000000000D+00 -.156077053573147D+03
 0.142560437141891D+03 0.516592544923913D+02 0.331769722121326D+02 -.304809477905894D+02
 0.102638202145680D+03 -.235032357902272D+01 0.229797269883677D+01 0.469951539655615D+02
 0.609816798657386D+02 -.475943990860327D+02 -.365365925961075D+02 -.108910906870220D+02
 0.597378799298493D+01 -.171453182733591D+01 0.106164768513800D+01 -.562311548795009D+01
0.137680167195D-05 0.000000000000D+00 0.000000000000D+00 0.186611278865D-06 0.000000000000D+00  6 21 -3 25 23 -3 21 2 0.73883265D-01 0.78037855D-02 0.21772656D+05 0.21772656D+05 0.21772656D+05 0.12297863D+01  1  2  2  3  6  5       -3 0.185770333359D-02 0.100000000000D+01
-.108672730714D-06 0.726558203349D-07 -.277936590153D-08 0.186611278865D-06 0.000000000000D+00  6 21 -3 25 23 -3 21 4 0.73883265D-01 0.78037855D-02 0.21772656D+05 0.21772656D+05 0.21772656D+05 0.12297863D+01  1  2  3  3  6  5       -3 -.221760828914D-03 0.100000000000D+01
0.161815819223D-06 0.000000000000D+00 0.000000000000D+00 0.186611278865D-06 0.000000000000D+00  6 21 -3 25 23 -3 21 4 0.73883265D-01 0.78037855D-02 0.21772656D+05 0.21772656D+05 0.21772656D+05 0.12297863D+01  1  2 15  3  6  5       -3 0.330206206896D-03 0.100000000000D+01
0.893401873333D-06 0.000000000000D+00 0.000000000000D+00 0.186864117920D-06 0.000000000000D+00  6 21 -3 25 23 -3 21 4 0.73883265D-01 0.78037855D-02 0.21393278D+05 0.21393278D+05 0.21393278D+05 0.12306191D+01  1  2 12  3  6  5       -3 0.182743387007D-02 0.100000000000D+01
-.239440578069D-05 0.000000000000D+00 0.000000000000D+00 0.186611278865D-06 0.000000000000D+00  6 21 -3 25 23 -3 21 4 0.73883265D-01 0.78037855D-02 0.21772656D+05 0.21772656D+05 0.21772656D+05 0.12297863D+01  1  2  4  3  6  5       -3 -.488609614567D-02 0.100000000000D+01
-.387059252302D-05 0.000000000000D+00 0.000000000000D+00 0.186611278865D-06 0.000000000000D+00  6 21 -3 25 23 -3 21 4 0.73883265D-01 0.78037855D-02 0.21772656D+05 0.21772656D+05 0.21772656D+05 0.12297863D+01  1  2  5  3  6  5       -3 -.789844702210D-02 0.100000000000D+01
0.429942348456D-05 0.000000000000D+00 -.000000000000D+00 0.186611278865D-06 0.000000000000D+00  6 21 -3 25 23 -3 21 4 0.73883265D-01 0.78037855D-02 0.21772656D+05 0.21772656D+05 0.21772656D+05 0.12297863D+01  1  2  6  3  6  5       -3 0.877353232519D-02 0.100000000000D+01
0.183880773588D-05 0.000000000000D+00 0.000000000000D+00 0.186611278865D-06 0.415695836388D-06  6 21 -3 25 23 -3 21 4 0.73883265D-01 0.78037855D-02 0.21393278D+05 0.21393278D+05 0.21393278D+05 0.12306191D+01  1  2 11  3  6  5       -3 0.376124075557D-02 0.100000000000D+01
  </mgrwgt>
  </event>
  <event>
  5     66 -.48379648E-03 0.24731579E+02 0.75467711E-02 0.11682967E+00
       21 -1    0    0  501  502 0.00000000E+00 0.00000000E+00 0.11532600E+03 0.11532844E+03 0.75000000E+00 0.0000E+00 0.9000E+01
       -3 -1    0    0    0  501 0.00000000E+00 0.00000000E+00 -.86135920E+03 0.86135934E+03 0.50000000E+00 0.0000E+00 0.9000E+01
       25  1    1    2    0    0 0.43714073E+02 0.89172946E+02 -.28314275E+03 0.32505007E+03 0.12500000E+03 0.0000E+00 0.9000E+01
       23  1    1    2    0    0 -.53686195E+02 -.66540974E+02 -.54848076E+03 0.56254450E+03 0.91188000E+02 0.0000E+00 0.9000E+01
       -3  1    1    2    0  502 0.99721224E+01 -.22631971E+02 0.85590309E+02 0.89093212E+02 0.50000000E+00 0.0000E+00 0.9000E+01
#aMCatNLO 1  0  0  1  1 0.48560737D+02 0.00000000D+00  -5  6  0 0.00000000D+00 0.00000000D+00 0.00000000D+00 0.00000000D+00 0.00000000D+00
  <mgrwgt>
 -.3290676739D+00   12    4    0
 0.315179901107304D+03 0.000000000000000D+00 0.000000000000000D+00 0.315179901107304D+03
 0.315179901107304D+03 0.000000000000000D+00 0.000000000000000D+00 -.315179901107304D+03
 0.168536404843439D+03 0.437140669189913D+02 0.891729589247411D+02 -.540072542123737D+02
 0.222484945915608D+03 -.536862028263264D+02 -.665409569396932D+02 -.184049972808233D+03
 0.239338451455562D+03 0.997213590733510D+01 -.226320019850480D+02 0.238057227020607D+03
 0.000000000000000D+00 0.000000000000000D+00 0.000000000000000D+00 0.000000000000000D+00
 0.672658549600068D+03 0.000000000000000D+00 0.000000000000000D+00 0.672658549600068D+03
 0.316905170786691D+03 0.000000000000000D+00 0.000000000000000D+00 -.316905170786691D+03
 0.163680146585381D+03 0.346752077510631D+02 0.839466309393809D+02 -.540072542123737D+02
 0.227944819693661D+03 -.659413755408544D+02 -.736269786304197D+02 -.184049972808233D+03
 0.239981338935962D+03 -.306906888248133D+01 -.301725126058651D+02 0.238057227020607D+03
 0.357957415171754D+03 0.343352366722726D+02 0.198528602969039D+02 0.355753378813377D+03
 0.315179901107304D+03 0.000000000000000D+00 0.000000000000000D+00 0.315179901107304D+03
 0.315179901107304D+03 0.000000000000000D+00 0.000000000000000D+00 -.315179901107304D+03
 0.168536404843439D+03 0.437140669189913D+02 0.891729589247411D+02 -.540072542123737D+02
 0.222484945915608D+03 -.536862028263264D+02 -.665409569396932D+02 -.184049972808233D+03
 0.000000000000000D+00 0.000000000000000D+00 0.000000000000000D+00 0.000000000000000D+00
 0.239338451455562D+03 0.997213590733510D+01 -.226320019850480D+02 0.238057227020607D+03
 0.672658549600068D+03 0.000000000000000D+00 0.000000000000000D+00 0.672658549600068D+03
 0.316905170786691D+03 0.000000000000000D+00 0.000000000000000D+00 -.316905170786691D+03
 0.163680146585381D+03 0.346752077510631D+02 0.839466309393809D+02 -.540072542123737D+02
 0.227944819693661D+03 -.659413755408544D+02 -.736269786304197D+02 -.184049972808233D+03
 0.357957415171754D+03 0.343352366722726D+02 0.198528602969039D+02 0.355753378813377D+03
 0.239981338935962D+03 -.306906888248133D+01 -.301725126058651D+02 0.238057227020607D+03
0.518092887142D-04 0.000000000000D+00 0.000000000000D+00 0.740747161314D-05 0.000000000000D+00  6 21 -3 25 23 -3 21 2 0.17742660D-01 0.13251700D+00 0.23929151D+05 0.23929151D+05 0.23929151D+05 0.12253413D+01  1  2  2  1  6  1       21 0.518236150523D-02 0.100000000000D+01
0.175019475611D-04 0.273405127927D-05 -.104588026996D-06 0.740747161314D-05 0.000000000000D+00  6 21 -3 25 23 -3 21 4 0.17742660D-01 0.13251700D+00 0.23929151D+05 0.23929151D+05 0.23929151D+05 0.12253413D+01  1  2  3  1  6  1       21 0.262857637683D-02 0.100000000000D+01
0.623039614038D-05 0.000000000000D+00 0.000000000000D+00 0.740747161314D-05 0.000000000000D+00  6 21 -3 25 23 -3 21 4 0.17742660D-01 0.13251700D+00 0.23929151D+05 0.23929151D+05 0.23929151D+05 0.12253413D+01  1  2 15  1  6  1       21 0.935728555680D-03 0.100000000000D+01
-.774820752527D-02 0.000000000000D+00 -.805868870648D-04 0.740747161314D-05 0.000000000000D+00  6 21 -3 25 23 -3 21 4 0.37942406D-01 0.13251700D+00 0.23929151D+05 0.23929151D+05 0.23929151D+05 0.12253413D+01  1  2  5  1  6  1       21 -.272545583201D+00 0.100000000000D+01
-.237834351974D-02 0.000000000000D+00 -.216924403634D-04 0.740747161314D-05 0.000000000000D+00  6 -3 -3 25 23 -3 -3 4 0.37942406D-01 0.13251700D+00 0.23929151D+05 0.23929151D+05 0.23929151D+05 0.12253413D+01  1  2  5  4  6  1       21 -.415286140519D-02 0.100000000000D+01
-.237834351974D-02 0.000000000000D+00 -.216924403634D-04 0.740747161314D-05 0.000000000000D+00  6 3 -3 25 23 3 -3 4 0.37942406D-01 0.13251700D+00 0.23929151D+05 0.23929151D+05 0.23929151D+05 0.12253413D+01  3  4  5  5  5  1       21 -.415351262353D-02 0.100000000000D+01
-.237834351974D-02 0.000000000000D+00 -.216924403634D-04 0.740747161314D-05 0.000000000000D+00  6 -2 -3 25 23 -3 -2 4 0.37942406D-01 0.13251700D+00 0.23929151D+05 0.23929151D+05 0.23929151D+05 0.12253413D+01  1  2  5  6  6  1       21 -.656602628686D-02 0.100000000000D+01
-.237834351974D-02 0.000000000000D+00 -.216924403634D-04 0.740747161314D-05 0.000000000000D+00  6 -4 -3 25 23 -3 -4 4 0.37942406D-01 0.13251700D+00 0.23929151D+05 0.23929151D+05 0.23929151D+05 0.12253413D+01  1  2  5  6  6  1       21 -.345748013713D-02 0.100000000000D+01
-.237834351974D-02 0.000000000000D+00 -.216924403634D-04 0.740747161314D-05 0.000000000000D+00  6 2 -3 25 23 2 -3 4 0.37942406D-01 0.13251700D+00 0.23929151D+05 0.23929151D+05 0.23929151D+05 0.12253413D+01  3  4  5  7  5  1       21 -.206552105881D-01 0.100000000000D+01
-.237834351974D-02 0.000000000000D+00 -.216924403634D-04 0.740747161314D-05 0.000000000000D+00  6 4 -3 25 23 4 -3 4 0.37942406D-01 0.13251700D+00 0.23929151D+05 0.23929151D+05 0.23929151D+05 0.12253413D+01  3  4  5  7  5  1       21 -.345748013713D-02 0.100000000000D+01
-.237834351974D-02 0.000000000000D+00 -.216924403634D-04 0.740747161314D-05 0.000000000000D+00  6 -1 -3 25 23 -3 -1 4 0.37942406D-01 0.13251700D+00 0.23929151D+05 0.23929151D+05 0.23929151D+05 0.12253413D+01  1  2  5  8  6  1       21 -.770703382087D-02 0.100000000000D+01
-.237834351974D-02 0.000000000000D+00 -.216924403634D-04 0.740747161314D-05 0.000000000000D+00  6 1 -3 25 23 1 -3 4 0.37942406D-01 0.13251700D+00 0.23929151D+05 0.23929151D+05 0.23929151D+05 0.12253413D+01  3  4  5  9  5  1       21 -.151191521718D-01 0.100000000000D+01
  </mgrwgt>
  </event>
  <event>
  5     66 0.48379648E-03 0.40269061E+02 0.75467711E-02 0.11684287E+00
       21 -1    0    0  501  502 0.00000000E+00 0.00000000E+00 0.51769335E+02 0.51774768E+02 0.75000000E+00 0.0000E+00 0.9000E+01
       -1 -1    0    0    0  501 -.00000000E+00 -.00000000E+00 -.17714609E+04 0.17714609E+04 0.32000000E+00 0.0000E+00 0.9000E+01
       25  1    1    2    0    0 -.48192209E+02 0.75605167E+02 -.57337565E+03 0.59365248E+03 0.12500000E+03 0.0000E+00 0.9000E+01
       23  1    1    2    0    0 0.73594892E+02 -.10685094E+03 -.11714354E+04 0.11821207E+04 0.91188000E+02 0.0000E+00 0.9000E+01
       -1  1    1    2    0  502 -.25402683E+02 0.31245778E+02 0.25119481E+02 0.47462466E+02 0.32000000E+00 0.0000E+00 0.9000E+01
#aMCatNLO 1  0  0  5  1 0.77052126D+01 0.00000000D+00  -5  6  0 0.00000000D+00 0.00000000D+00 0.00000000D+00 0.00000000D+00 0.00000000D+00
  <mgrwgt>
 0.1556090788D-02    7    2    0
 0.302840437986141D+03 0.000000000000000D+00 0.000000000000000D+00 0.302840437986141D+03
 0.302840437986141D+03 -.000000000000000D+00 -.000000000000000D+00 -.302840437986141D+03
 0.159059220916359D+03 -.481922013781998D+02 0.756051582768945D+02 -.404500621355270D+02
 0.232428052334447D+03 0.735949028774272D+02 -.106850958343847D+03 -.169924133481528D+03
 0.214193602721476D+03 -.254027014992274D+02 0.312458000669527D+02 0.210374195617055D+03
 0.000000000000000D+00 0.000000000000000D+00 0.000000000000000D+00 0.000000000000000D+00
 0.302840437986141D+03 0.000000000000000D+00 0.000000000000000D+00 0.302840437986141D+03
 0.302840437986141D+03 -.000000000000000D+00 -.000000000000000D+00 -.302840437986141D+03
 0.158801937201723D+03 -.484120575342784D+02 0.758755854791559D+02 -.386293084653754D+02
 0.230213470816805D+03 0.732749059720974D+02 -.106457356138732D+03 -.167274057403565D+03
 0.208910984387868D+03 -.298880298705449D+02 0.247088425277493D+02 0.205280243007710D+03
 0.775448356588645D+01 0.502518143272598D+01 0.587292813182664D+01 0.623122861230684D+00
0.185202940632D-04 0.000000000000D+00 0.000000000000D+00 0.173756912860D-05 0.000000000000D+00  6 21 -1 25 23 -1 21 2 0.79649332D-02 0.27253286D+00 0.31096147D+05 0.31096147D+05 0.31096147D+05 0.12132661D+01  1  2  2  3  6  5       -1 0.183007641644D-02 0.100000000000D+01
0.358549410671D-05 0.977342768691D-06 -.373871377804D-07 0.173756912860D-05 0.000000000000D+00  6 21 -1 25 23 -1 21 4 0.79649332D-02 0.27253286D+00 0.31096147D+05 0.31096147D+05 0.31096147D+05 0.12132661D+01  1  2  3  3  6  5       -1 0.521533794540D-03 0.100000000000D+01
0.150038724333D-05 0.000000000000D+00 0.000000000000D+00 0.173756912860D-05 0.000000000000D+00  6 21 -1 25 23 -1 21 4 0.79649332D-02 0.27253286D+00 0.31096147D+05 0.31096147D+05 0.31096147D+05 0.12132661D+01  1  2 15  3  6  5       -1 0.218241232312D-03 0.100000000000D+01
-.114549415029D-04 0.000000000000D+00 0.000000000000D+00 0.173756912860D-05 0.000000000000D+00  6 21 -1 25 23 -1 21 4 0.79649332D-02 0.27253286D+00 0.31096147D+05 0.31096147D+05 0.31096147D+05 0.12132661D+01  1  2  4  3  6  5       -1 -.166619688401D-02 0.100000000000D+01
-.106007734920D-03 0.000000000000D+00 0.000000000000D+00 0.173756912860D-05 0.000000000000D+00  6 21 -1 25 23 -1 21 4 0.79649332D-02 0.27253286D+00 0.31096147D+05 0.31096147D+05 0.31096147D+05 0.12132661D+01  1  2  5  3  6  5       -1 -.154195250635D-01 0.100000000000D+01
0.109914972345D-03 0.000000000000D+00 -.000000000000D+00 0.173756912860D-05 0.000000000000D+00  6 21 -1 25 23 -1 21 4 0.79649332D-02 0.27253286D+00 0.31096147D+05 0.31096147D+05 0.31096147D+05 0.12132661D+01  1  2  6  3  6  5       -1 0.159878585483D-01 0.100000000000D+01
0.581962792692D-06 0.000000000000D+00 0.000000000000D+00 0.173756912860D-05 0.232795721866D-06  6 21 -1 25 23 -1 21 4 0.79649332D-02 0.27253286D+00 0.32168232D+05 0.32168232D+05 0.32168232D+05 0.12117305D+01  1  2 11  3  6  5       -1 0.841027438782D-04 0.100000000000D+01
  </mgrwgt>
  </event>
  <event>
  6     66 0.48379648E-03 0.31258176E+02 0.75467711E-02 0.11761797E+00
       21 -1    0    0  503  502 0.00000000E+00 0.00000000E+00 0.16469882E+03 0.16470053E+03 0.75000000E+00 0.0000E+00 0.9000E+01
       -3 -1    0    0    0  501 0.00000000E+00 0.00000000E+00 -.51685688E+03 0.51685712E+03 0.50000000E+00 0.0000E+00 0.9000E+01
       25  1    1    2    0    0 -.31140430E+02 0.62859985E+02 -.36075312E+03 0.38818670E+03 0.12500000E+03 0.0000E+00 0.9000E+01
       23  1    1    2    0    0 0.15646141E+02 -.48839022E+02 -.87514116E+02 0.13639657E+03 0.91188000E+02 0.0000E+00 0.9000E+01
       -3  1    1    2    0  502 -.36465364E+02 -.22152831E+02 -.50406047E+01 0.42966596E+02 0.50000000E+00 0.0000E+00 0.9000E+01
       21  1    1    2  503  501 0.51959652E+02 0.81318686E+01 0.10114978E+03 0.11400778E+03 0.75000000E+00 0.0000E+00 0.9000E+01
#aMCatNLO 2  0  0  1  2 0.74930575D+02 0.00000000D+00  -5  6  0 0.00000000D+00 0.00000000D+00 0.00000000D+00 0.00000000D+00 0.00000000D+00
  <mgrwgt>
 0.2168541938D-01    1    2    0
 0.168714938791039D+03 0.000000000000000D+00 0.000000000000000D+00 0.168714938791039D+03
 0.168714938791039D+03 0.000000000000000D+00 0.000000000000000D+00 -.168714938791039D+03
 0.165001416062806D+03 -.578710330466017D+01 0.668281553973490D+02 -.842672794402449D+02
 0.113080593127551D+03 0.327584680317742D+02 -.461606874556768D+02 0.356095900553396D+02
 0.593478683917206D+02 -.269713647271141D+02 -.206674679416722D+02 0.486576893849053D+02
 0.000000000000000D+00 0.000000000000000D+00 0.000000000000000D+00 0.000000000000000D+00
 0.492336053427019D+03 0.000000000000000D+00 0.000000000000000D+00 0.492336053427019D+03
 0.172902147350684D+03 0.000000000000000D+00 0.000000000000000D+00 -.172902147350684D+03
 0.166274164621602D+03 -.311400416340303D+02 0.628603312382476D+02 -.842672794402449D+02
 0.110513947835736D+03 0.156464955884252D+02 -.488387714232437D+02 0.356095900553396D+02
 0.647157016476317D+02 -.364661063365949D+02 -.221534284505920D+02 0.486576893849053D+02
 0.323734386672733D+03 0.519596523822000D+02 0.813186863558810D+01 0.319433906076335D+03
0.900078302787D-04 0.000000000000D+00 0.000000000000D+00 0.626588751880D-06 0.193792932699D-07  6 21 -3 25 23 -3 21 4 0.25338367D-01 0.79516395D-01 0.29449818D+05 0.29449818D+05 0.29449818D+05 0.12157430D+01  1  2  1  1  6  1       21 0.216854193785D-01 0.100000000000D+01
  </mgrwgt>
  </event>
  <event>
  5     66 0.48379648E-03 0.37664378E+02 0.75467711E-02 0.11763609E+00
       21 -1    0    0  501  502 0.00000000E+00 0.00000000E+00 0.12559948E+02 0.12582321E+02 0.75000000E+00 0.0000E+00 0.9000E+01
       -3 -1    0    0    0  501 0.00000000E+00 0.00000000E+00 -.21499397E+04 0.21499397E+04 0.50000000E+00 0.0000E+00 0.9000E+01
       25  1    1    2    0    0 0.88220714E+02 0.53186007E+02 -.11774332E+04 0.11885224E+04 0.12500000E+03 0.0000E+00 0.9000E+01
       23  1    1    2    0    0 -.51494280E+02 -.61529732E+02 -.82507535E+03 0.83396772E+03 0.91188000E+02 0.0000E+00 0.9000E+01
       -3  1    1    2    0  502 -.36726434E+02 0.83437247E+01 -.13487121E+03 0.14003193E+03 0.50000000E+00 0.0000E+00 0.9000E+01
#aMCatNLO 1  0  0  1  2 0.21286666D+02 0.00000000D+00  -5  6  0 0.00000000D+00 0.00000000D+00 0.00000000D+00 0.00000000D+00 0.00000000D+00
  <mgrwgt>
 0.2900643025D-01   23    4    0
 0.164400075956611D+03 0.000000000000000D+00 0.000000000000000D+00 0.164400075956611D+03
 0.164400075956611D+03 0.000000000000000D+00 0.000000000000000D+00 -.164400075956611D+03
 0.162969324455991D+03 0.882218759424955D+02 0.531857429497828D+02 -.179493193661666D+02
 0.121575901620089D+03 -.514934136029300D+02 -.615299285649851D+02 -.528628007609331D+01
 0.442549258371425D+02 -.367284623395655D+02 0.834418561520237D+01 0.232355994422599D+02
 0.000000000000000D+00 -.000000000000000D+00 -.000000000000000D+00 0.000000000000000D+00
 0.182280284175724D+03 0.000000000000000D+00 0.000000000000000D+00 0.182280284175724D+03
 0.171204112085518D+03 0.000000000000000D+00 0.000000000000000D+00 -.171204112085518D+03
 0.169883242736512D+03 0.963649173535716D+02 0.602240882073220D+02 -.179493193661666D+02
 0.116703377915911D+03 -.456640518016108D+02 -.564913859716749D+02 -.528628007609331D+01
 0.429018647997167D+02 -.345962229478171D+02 0.101871624899654D+02 0.232355994422599D+02
 0.239959108091028D+02 -.161046426041436D+02 -.139198647256125D+02 0.110761720902065D+02
 0.164400075956611D+03 0.000000000000000D+00 0.000000000000000D+00 0.164400075956611D+03
 0.164400075956611D+03 0.000000000000000D+00 0.000000000000000D+00 -.164400075956611D+03
 0.162969324455991D+03 0.882218759424955D+02 0.531857429497828D+02 -.179493193661666D+02
 0.121575901620089D+03 -.514934136029300D+02 -.615299285649851D+02 -.528628007609331D+01
 0.000000000000000D+00 -.000000000000000D+00 -.000000000000000D+00 0.000000000000000D+00
 0.442549258371425D+02 -.367284623395655D+02 0.834418561520237D+01 0.232355994422599D+02
 0.182280284175724D+03 0.000000000000000D+00 0.000000000000000D+00 0.182280284175724D+03
 0.171204112085518D+03 0.000000000000000D+00 0.000000000000000D+00 -.171204112085518D+03
 0.169883242736512D+03 0.963649173535716D+02 0.602240882073220D+02 -.179493193661666D+02
 0.116703377915911D+03 -.456640518016108D+02 -.564913859716749D+02 -.528628007609331D+01
 0.239959108091028D+02 -.161046426041436D+02 -.139198647256125D+02 0.110761720902065D+02
 0.429018647997167D+02 -.345962229478171D+02 0.101871624899654D+02 0.232355994422599D+02
0.139590208691D-04 0.000000000000D+00 0.000000000000D+00 0.375460270278D-06 0.000000000000D+00  6 21 -3 25 23 -3 21 2 0.19340252D-02 0.33076168D+00 0.25776807D+05 0.25776807D+05 0.25776807D+05 0.12218754D+01  1  2  2  1  6  1       21 0.412198943361D-02 0.100000000000D+01
0.396874442945D-06 0.736637769241D-06 -.281792413625D-07 0.375460270278D-06 0.000000000000D+00  6 21 -3 25 23 -3 21 4 0.19340252D-02 0.33076168D+00 0.25776807D+05 0.25776807D+05 0.25776807D+05 0.12218754D+01  1  2  3  1  6  1       21 0.174968119806D-03 0.100000000000D+01
0.143885216229D-05 0.000000000000D+00 0.000000000000D+00 0.375460270278D-06 0.000000000000D+00  6 21 -3 25 23 -3 21 4 0.19340252D-02 0.33076168D+00 0.25776807D+05 0.25776807D+05 0.25776807D+05 0.12218754D+01  1  2 15  1  6  1       21 0.634339806934D-03 0.100000000000D+01
0.336793064909D-04 0.000000000000D+00 0.000000000000D+00 0.371758188375D-06 0.000000000000D+00  6 21 -3 25 23 -3 21 4 0.21812223D-02 0.33076168D+00 0.29389531D+05 0.29389531D+05 0.29389531D+05 0.12158366D+01  1  2 12  1  6  1       21 0.119566615296D-01 0.100000000000D+01
-.423718913559D-05 0.000000000000D+00 0.000000000000D+00 0.375460270278D-06 0.000000000000D+00  6 21 -3 25 23 -3 21 4 0.19340252D-02 0.33076168D+00 0.25776807D+05 0.25776807D+05 0.25776807D+05 0.12218754D+01  1  2  4  1  6  1       21 -.186802911978D-02 0.100000000000D+01
-.163652561792D-03 0.000000000000D+00 -.339569093351D-04 0.375460270278D-06 0.000000000000D+00  6 21 -3 25 23 -3 21 4 0.22496476D-02 0.33076168D+00 0.25776807D+05 0.25776807D+05 0.25776807D+05 0.12218754D+01  1  2  5  1  6  1       21 -.564408126558D-01 0.100000000000D+01
0.161044456340D-03 0.000000000000D+00 0.324537747922D-04 0.375460270278D-06 0.000000000000D+00  6 21 -3 25 23 -3 21 4 0.19340252D-02 0.33076168D+00 0.25776807D+05 0.25776807D+05 0.25776807D+05 0.12218754D+01  1  2  6  1  6  1       21 0.709988920476D-01 0.100000000000D+01
0.106174612259D-05 0.000000000000D+00 0.000000000000D+00 0.371758188375D-06 0.000000000000D+00  6 -3 -3 25 23 -3 -3 4 0.21812223D-02 0.33076168D+00 0.29389531D+05 0.29389531D+05 0.29389531D+05 0.12158366D+01  1  2 12  4  6  1       21 0.143616250194D-04 0.100000000000D+01
-.582984788445D-05 0.000000000000D+00 -.139597062306D-05 0.375460270278D-06 0.000000000000D+00  6 -3 -3 25 23 -3 -3 4 0.22496476D-02 0.33076168D+00 0.25776807D+05 0.25776807D+05 0.25776807D+05 0.12218754D+01  1  2  5  4  6  1       21 -.764549118079D-04 0.100000000000D+01
0.106174612259D-05 0.000000000000D+00 0.000000000000D+00 0.371758188375D-06 0.000000000000D+00  6 3 -3 25 23 3 -3 4 0.21812223D-02 0.33076168D+00 0.29389531D+05 0.29389531D+05 0.29389531D+05 0.12158366D+01  3  4 12  5  5  1       21 0.143607836081D-04 0.100000000000D+01
-.582984788445D-05 0.000000000000D+00 -.139597062306D-05 0.375460270278D-06 0.000000000000D+00  6 3 -3 25 23 3 -3 4 0.22496476D-02 0.33076168D+00 0.25776807D+05 0.25776807D+05 0.25776807D+05 0.12218754D+01  3  4  5  5  5  1       21 -.764502932885D-04 0.100000000000D+01
0.106174612259D-05 0.000000000000D+00 0.000000000000D+00 0.371758188375D-06 0.000000000000D+00  6 -2 -3 25 23 -3 -2 4 0.21812223D-02 0.33076168D+00 0.29389531D+05 0.29389531D+05 0.29389531D+05 0.12158366D+01  1  2 12  6  6  1       21 0.183725481498D-04 0.100000000000D+01
0.106174612259D-05 0.000000000000D+00 0.000000000000D+00 0.371758188375D-06 0.000000000000D+00  6 -4 -3 25 23 -3 -4 4 0.21812223D-02 0.33076168D+00 0.29389531D+05 0.29389531D+05 0.29389531D+05 0.12158366D+01  1  2 12  6  6  1       21 0.130807803186D-04 0.100000000000D+01
-.582984788445D-05 0.000000000000D+00 -.139597062306D-05 0.375460270278D-06 0.000000000000D+00  6 -2 -3 25 23 -3 -2 4 0.22496476D-02 0.33076168D+00 0.25776807D+05 0.25776807D+05 0.25776807D+05 0.12218754D+01  1  2  5  6  6  1       21 -.982682570250D-04 0.100000000000D+01
-.582984788445D-05 0.000000000000D+00 -.139597062306D-05 0.375460270278D-06 0.000000000000D+00  6 -4 -3 25 23 -3 -4 4 0.22496476D-02 0.33076168D+00 0.25776807D+05 0.25776807D+05 0.25776807D+05 0.12218754D+01  1  2  5  6  6  1       21 -.695161394486D-04 0.100000000000D+01
0.106174612259D-05 0.000000000000D+00 0.000000000000D+00 0.371758188375D-06 0.000000000000D+00  6 2 -3 25 23 2 -3 4 0.21812223D-02 0.33076168D+00 0.29389531D+05 0.29389531D+05 0.29389531D+05 0.12158366D+01  3  4 12  7  5  1       21 0.202802082803D-04 0.100000000000D+01
0.106174612259D-05 0.000000000000D+00 0.000000000000D+00 0.371758188375D-06 0.000000000000D+00  6 4 -3 25 23 4 -3 4 0.21812223D-02 0.33076168D+00 0.29389531D+05 0.29389531D+05 0.29389531D+05 0.12158366D+01  3  4 12  7  5  1       21 0.130807803186D-04 0.100000000000D+01
-.582984788445D-05 0.000000000000D+00 -.139597062306D-05 0.375460270278D-06 0.000000000000D+00  6 2 -3 25 23 2 -3 4 0.22496476D-02 0.33076168D+00 0.25776807D+05 0.25776807D+05 0.25776807D+05 0.12218754D+01  3  4  5  7  5  1       21 -.108820350075D-03 0.100000000000D+01
-.582984788445D-05 0.000000000000D+00 -.139597062306D-05 0.375460270278D-06 0.000000000000D+00  6 4 -3 25 23 4 -3 4 0.22496476D-02 0.33076168D+00 0.25776807D+05 0.25776807D+05 0.25776807D+05 0.12218754D+01  3  4  5  7  5  1       21 -.695161394486D-04 0.100000000000D+01
0.106174612259D-05 0.000000000000D+00 0.000000000000D+00 0.371758188375D-06 0.000000000000D+00  6 -1 -3 25 23 -3 -1 4 0.21812223D-02 0.33076168D+00 0.29389531D+05 0.29389531D+05 0.29389531D+05 0.12158366D+01  1  2 12  8  6  1       21 0.185559117895D-04 0.100000000000D+01
-.582984788445D-05 0.000000000000D+00 -.139597062306D-05 0.375460270278D-06 0.000000000000D+00  6 -1 -3 25 23 -3 -1 4 0.22496476D-02 0.33076168D+00 0.25776807D+05 0.25776807D+05 0.25776807D+05 0.12218754D+01  1  2  5  8  6  1       21 -.992833145493D-04 0.100000000000D+01
0.106174612259D-05 0.000000000000D+00 0.000000000000D+00 0.371758188375D-06 0.000000000000D+00  6 1 -3 25 23 1 -3 4 0.21812223D-02 0.33076168D+00 0.29389531D+05 0.29389531D+05 0.29389531D+05 0.12158366D+01  3  4 12  9  5  1       21 0.195782455895D-04 0.100000000000D+01
-.582984788445D-05 0.000000000000D+00 -.139597062306D-05 0.375460270278D-06 0.000000000000D+00  6 1 -3 25 23 1 -3 4 0.22496476D-02 0.33076168D+00 0.25776807D+05 0.25776807D+05 0.25776807D+05 0.12218754D+01  3  4  5  9  5  1       21 -.104940392103D-03 0.100000000000D+01
  </mgrwgt>
  </event>
  <event>
  5     66 -.48379648E-03 0.78683646E+02 0.75467711E-02 0.11726131E+00
       21 -1    0    0  501  502 0.00000000E+00 0.00000000E+00 0.26697079E+03 0.26697184E+03 0.75000000E+00 0.0000E+00 0.9000E+01
       -3 -1    0    0    0  501 0.00000000E+00 0.00000000E+00 -.12129256E+03 0.12129359E+03 0.50000000E+00 0.0000E+00 0.9000E+01
       25  1    1    2    0    0 -.12833369E+02 0.33367069E+02 0.78953330E+02 0.15210748E+03 0.12500000E+03 0.0000E+00 0.9000E+01
       23  1    1    2    0    0 0.89976596E+02 -.48855550E+02 0.76278355E+02 0.15689580E+03 0.91188000E+02 0.0000E+00 0.9000E+01
       -3  1    1    2    0  502 -.77143227E+02 0.15488482E+02 -.95534565E+01 0.79262154E+02 0.50000000E+00 0.0000E+00 0.9000E+01
#aMCatNLO 1  0  0  2  1 0.43221458D+01 0.00000000D+00  -5  6  0 0.00000000D+00 0.00000000D+00 0.00000000D+00 0.00000000D+00 0.00000000D+00
  <mgrwgt>
 -.8013853461D-02   11    4    0
 0.179949922252976D+03 0.000000000000000D+00 0.000000000000000D+00 0.179949922252976D+03
 0.179949922252976D+03 0.000000000000000D+00 0.000000000000000D+00 -.179949922252976D+03
 0.132137557362600D+03 -.128329256450221D+02 0.333669796715938D+02 0.236070911536994D+02
 0.138386421982358D+03 0.899770600539325D+02 -.488556436582887D+02 0.187831092171821D+02
 0.893758651609944D+02 -.771441344089105D+02 0.154886639866949D+02 -.423902003708814D+02
 0.000000000000000D+00 0.000000000000000D+00 0.000000000000000D+00 -.000000000000000D+00
 0.182105344838818D+03 0.000000000000000D+00 0.000000000000000D+00 0.182105344838818D+03
 0.182142759434018D+03 0.000000000000000D+00 0.000000000000000D+00 -.182142759434018D+03
 0.132067833361742D+03 -.141830295627417D+02 0.325339749884353D+02 0.236070911536994D+02
 0.137784874284651D+03 0.885658097080195D+02 -.497263752603717D+02 0.187831092171821D+02
 0.900730889001144D+02 -.780611283250618D+02 0.149228851480763D+02 -.423902003708814D+02
 0.432230772632913D+01 0.367834817978400D+01 0.226951512386023D+01 -.374145952001211D-01
 0.179949922252976D+03 0.000000000000000D+00 0.000000000000000D+00 0.179949922252976D+03
 0.179949922252976D+03 0.000000000000000D+00 0.000000000000000D+00 -.179949922252976D+03
 0.132137557362600D+03 -.128329256450221D+02 0.333669796715938D+02 0.236070911536994D+02
 0.138386421982358D+03 0.899770600539325D+02 -.488556436582887D+02 0.187831092171821D+02
 0.000000000000000D+00 0.000000000000000D+00 0.000000000000000D+00 -.000000000000000D+00
 0.893758651609944D+02 -.771441344089105D+02 0.154886639866949D+02 -.423902003708814D+02
 0.182105344838818D+03 0.000000000000000D+00 0.000000000000000D+00 0.182105344838818D+03
 0.182142759434018D+03 0.000000000000000D+00 0.000000000000000D+00 -.182142759434018D+03
 0.132067833361742D+03 -.141830295627417D+02 0.325339749884353D+02 0.236070911536994D+02
 0.137784874284651D+03 0.885658097080195D+02 -.497263752603717D+02 0.187831092171821D+02
 0.432230772632913D+01 0.367834817978400D+01 0.226951512386023D+01 -.374145952001211D-01
 0.900730889001144D+02 -.780611283250618D+02 0.149228851480763D+02 -.423902003708814D+02
0.168819604603D-05 0.000000000000D+00 0.000000000000D+00 0.119074567789D-06 0.000000000000D+00  6 21 -3 25 23 -3 21 2 0.41072589D-01 0.18660554D-01 0.29894604D+05 0.29894604D+05 0.29894604D+05 0.12150588D+01  1  2  2  2  6  2       -3 0.177378052652D-02 0.100000000000D+01
-.167023126609D-06 0.890885529187D-07 -.340798142609D-08 0.119074567789D-06 0.000000000000D+00  6 21 -3 25 23 -3 21 4 0.41072589D-01 0.18660554D-01 0.29894604D+05 0.29894604D+05 0.29894604D+05 0.12150588D+01  1  2  3  2  6  2       -3 -.259088560221D-03 0.100000000000D+01
0.138099014225D-06 0.000000000000D+00 0.000000000000D+00 0.119074567789D-06 0.000000000000D+00  6 21 -3 25 23 -3 21 4 0.41072589D-01 0.18660554D-01 0.29894604D+05 0.29894604D+05 0.29894604D+05 0.12150588D+01  1  2 15  2  6  2       -3 0.214221081175D-03 0.100000000000D+01
0.492874916238D-06 0.000000000000D+00 0.000000000000D+00 0.118847212340D-06 0.000000000000D+00  6 21 -3 25 23 -3 21 4 0.41072589D-01 0.18998363D-01 0.30666365D+05 0.30666365D+05 0.30666365D+05 0.12138983D+01  1  2 12  2  6  2       -3 0.738233363125D-03 0.100000000000D+01
-.201405110676D-04 0.000000000000D+00 0.000000000000D+00 0.119074567789D-06 0.000000000000D+00  6 21 -3 25 23 -3 21 4 0.41072589D-01 0.18660554D-01 0.29894604D+05 0.29894604D+05 0.29894604D+05 0.12150588D+01  1  2  4  2  6  2       -3 -.312422364528D-01 0.100000000000D+01
-.190358631990D-03 0.000000000000D+00 -.246328838438D-04 0.119074567789D-06 0.000000000000D+00  6 21 -3 25 23 -3 21 4 0.41072589D-01 0.19106276D-01 0.29894604D+05 0.29894604D+05 0.29894604D+05 0.12150588D+01  1  2  5  2  6  2       -3 -.283275187224D+00 0.100000000000D+01
0.190893766943D-03 0.000000000000D+00 0.246260227714D-04 0.119074567789D-06 0.000000000000D+00  6 21 -3 25 23 -3 21 4 0.41072589D-01 0.18660554D-01 0.29894604D+05 0.29894604D+05 0.29894604D+05 0.12150588D+01  1  2  6  2  6  2       -3 0.296117024249D+00 0.100000000000D+01
0.196594991557D-04 0.000000000000D+00 0.000000000000D+00 0.119074567789D-06 0.799540674421D-07  6 21 -3 25 23 -3 21 4 0.41564553D-01 0.18887948D-01 0.30666365D+05 0.30666365D+05 0.30666365D+05 0.12138983D+01  1  2 11  2  6  2       -3 0.290413579890D-01 0.100000000000D+01
0.182849527528D-07 0.000000000000D+00 0.000000000000D+00 0.118847212340D-06 0.000000000000D+00  6 21 21 25 23 3 -3 4 0.41072589D-01 0.18998363D-01 0.30666365D+05 0.30666365D+05 0.30666365D+05 0.12138983D+01  3  4 12 10  5  2       -3 0.579150856825D-03 0.100000000000D+01
-.808465350130D-06 0.000000000000D+00 -.105263993500D-06 0.119074567789D-06 0.000000000000D+00  6 21 21 25 23 3 -3 4 0.41072589D-01 0.19106276D-01 0.29894604D+05 0.29894604D+05 0.29894604D+05 0.12150588D+01  3  4  5 10  5  2       -3 -.254558475886D-01 0.100000000000D+01
0.120131561165D-06 0.000000000000D+00 0.000000000000D+00 0.119074567789D-06 0.295057221063D-09  6 21 21 25 23 3 -3 4 0.41564553D-01 0.18887948D-01 0.30666365D+05 0.30666365D+05 0.30666365D+05 0.12138983D+01  3  4 11 10  5  2       -3 0.375473829797D-02 0.100000000000D+01
  </mgrwgt>
  </event>
  <event>
  5     66 0.48379648E-03 0.46837639E+02 0.75467711E-02 0.11993439E+00
       21 -1    0    0  501  502 0.00000000E+00 0.00000000E+00 0.14042012E+03 0.14042213E+03 0.75000000E+00 0.0000E+00 0.9000E+01
       -3 -1    0    0    0  501 0.00000000E+00 0.00000000E+00 -.22945512E+03 0.22945567E+03 0.50000000E+00 0.0000E+00 0.9000E+01
       25  1    1    2    0    0 -.29763292E+02 0.57710240E+01 -.13401016E+03 0.18574951E+03 0.12500000E+03 0.0000E+00 0.9000E+01
       23  1    1    2    0    0 0.40908451E+01 -.45185920E+02 -.20115040E+02 0.10381892E+03 0.91188000E+02 0.0000E+00 0.9000E+01
       -3  1    1    2    0  502 0.25672447E+02 0.39414896E+02 0.65090201E+02 0.80309357E+02 0.50000000E+00 0.0000E+00 0.9000E+01
#aMCatNLO 1  0  0  1  2 0.20958332D+02 0.00000000D+00  -5  6  0 0.00000000D+00 0.00000000D+00 0.00000000D+00 0.00000000D+00 0.00000000D+00
  <mgrwgt>
 0.7125042721D-02   23    4    0
 0.179500939812458D+03 0.000000000000000D+00 0.000000000000000D+00 0.179500939812458D+03
 0.179500939812458D+03 0.000000000000000D+00 0.000000000000000D+00 -.179500939812458D+03
 0.158141606833699D+03 -.297634367684923D+02 0.577080204083541D+01 -.920032797647868D+02
 0.101975473824256D+03 0.409075184541417D+01 -.451860627234145D+02 0.502308695687847D+01
 0.988847989669606D+02 0.256726849230782D+02 0.394152606825791D+02 0.869801928079083D+02
 0.000000000000000D+00 -.000000000000000D+00 -.000000000000000D+00 0.000000000000000D+00
 0.216232939703119D+03 0.000000000000000D+00 0.000000000000000D+00 0.216232939703119D+03
 0.182821217744693D+03 0.000000000000000D+00 0.000000000000000D+00 -.182821217744693D+03
 0.157506194649730D+03 -.236379800830617D+02 0.126429333286944D+02 -.920032797647868D+02
 0.100338792490495D+03 0.801685958109803D+01 -.407813743555951D+02 0.502308695687847D+01
 0.101768140087892D+03 0.295665529659050D+02 0.437837794367074D+02 0.869801928079083D+02
 0.394410302196953D+02 -.139454324639413D+02 -.156453384098066D+02 0.334117219584265D+02
 0.179500939812458D+03 0.000000000000000D+00 0.000000000000000D+00 0.179500939812458D+03
 0.179500939812458D+03 0.000000000000000D+00 0.000000000000000D+00 -.179500939812458D+03
 0.158141606833699D+03 -.297634367684923D+02 0.577080204083541D+01 -.920032797647868D+02
 0.101975473824256D+03 0.409075184541417D+01 -.451860627234145D+02 0.502308695687847D+01
 0.000000000000000D+00 -.000000000000000D+00 -.000000000000000D+00 0.000000000000000D+00
 0.988847989669606D+02 0.256726849230782D+02 0.394152606825791D+02 0.869801928079083D+02
 0.216232939703119D+03 0.000000000000000D+00 0.000000000000000D+00 0.216232939703119D+03
 0.182821217744693D+03 0.000000000000000D+00 0.000000000000000D+00 -.182821217744693D+03
 0.157506194649730D+03 -.236379800830617D+02 0.126429333286944D+02 -.920032797647868D+02
 0.100338792490495D+03 0.801685958109803D+01 -.407813743555951D+02 0.502308695687847D+01
 0.394410302196953D+02 -.139454324639413D+02 -.156453384098066D+02 0.334117219584265D+02
 0.101768140087892D+03 0.295665529659050D+02 0.437837794367074D+02 0.869801928079083D+02
0.944490940125D-06 0.000000000000D+00 0.000000000000D+00 0.851613315034D-06 0.000000000000D+00  6 21 -3 25 23 -3 21 2 0.21603292D-01 0.35300984D-01 0.19253590D+05 0.19253590D+05 0.19253590D+05 0.12356487D+01  1  2  2  1  6  1       21 0.110800379286D-02 0.100000000000D+01
0.358114882814D-07 0.498421562463D-07 -.190665508821D-08 0.851613315034D-06 0.000000000000D+00  6 21 -3 25 23 -3 21 4 0.21603292D-01 0.35300984D-01 0.19253590D+05 0.19253590D+05 0.19253590D+05 0.12356487D+01  1  2  3  1  6  1       21 0.641439744638D-04 0.100000000000D+01
0.822984941430D-07 0.000000000000D+00 0.000000000000D+00 0.851613315034D-06 0.000000000000D+00  6 21 -3 25 23 -3 21 4 0.21603292D-01 0.35300984D-01 0.19253590D+05 0.19253590D+05 0.19253590D+05 0.12356487D+01  1  2 15  1  6  1       21 0.147409469979D-03 0.100000000000D+01
0.518156028545D-05 0.000000000000D+00 0.000000000000D+00 0.840632116107D-06 0.000000000000D+00  6 21 -3 25 23 -3 21 4 0.26196551D-01 0.35300984D-01 0.22777633D+05 0.22777633D+05 0.22777633D+05 0.12276563D+01  1  2 12  1  6  1       21 0.630891958335D-02 0.100000000000D+01
-.401104796368D-05 0.000000000000D+00 0.000000000000D+00 0.851613315034D-06 0.000000000000D+00  6 21 -3 25 23 -3 21 4 0.21603292D-01 0.35300984D-01 0.19253590D+05 0.19253590D+05 0.19253590D+05 0.12356487D+01  1  2  4  1  6  1       21 -.718441401078D-02 0.100000000000D+01
-.133145367750D-04 0.000000000000D+00 -.179827535318D-05 0.851613315034D-06 0.000000000000D+00  6 21 -3 25 23 -3 21 4 0.26402843D-01 0.35300984D-01 0.19253590D+05 0.19253590D+05 0.19253590D+05 0.12356487D+01  1  2  5  1  6  1       21 -.163395670570D-01 0.100000000000D+01
0.129751102067D-04 0.000000000000D+00 0.166137322960D-05 0.851613315034D-06 0.000000000000D+00  6 21 -3 25 23 -3 21 4 0.21603292D-01 0.35300984D-01 0.19253590D+05 0.19253590D+05 0.19253590D+05 0.12356487D+01  1  2  6  1  6  1       21 0.232404509756D-01 0.100000000000D+01
0.284401375859D-06 0.000000000000D+00 0.000000000000D+00 0.840632116107D-06 0.000000000000D+00  6 -3 -3 25 23 -3 -3 4 0.26196551D-01 0.35300984D-01 0.22777633D+05 0.22777633D+05 0.22777633D+05 0.12276563D+01  1  2 12  4  6  1       21 0.166389689264D-04 0.100000000000D+01
-.556896958303D-06 0.000000000000D+00 -.103558371760D-06 0.851613315034D-06 0.000000000000D+00  6 -3 -3 25 23 -3 -3 4 0.26402843D-01 0.35300984D-01 0.19253590D+05 0.19253590D+05 0.19253590D+05 0.12356487D+01  1  2  5  4  6  1       21 -.326237163096D-04 0.100000000000D+01
0.284401375859D-06 0.000000000000D+00 0.000000000000D+00 0.840632116107D-06 0.000000000000D+00  6 3 -3 25 23 3 -3 4 0.26196551D-01 0.35300984D-01 0.22777633D+05 0.22777633D+05 0.22777633D+05 0.12276563D+01  3  4 12  5  5  1       21 0.166384927742D-04 0.100000000000D+01
-.556896958303D-06 0.000000000000D+00 -.103558371760D-06 0.851613315034D-06 0.000000000000D+00  6 3 -3 25 23 3 -3 4 0.26402843D-01 0.35300984D-01 0.19253590D+05 0.19253590D+05 0.19253590D+05 0.12356487D+01  3  4  5  5  5  1       21 -.326227613553D-04 0.100000000000D+01
0.284401375859D-06 0.000000000000D+00 0.000000000000D+00 0.840632116107D-06 0.000000000000D+00  6 -2 -3 25 23 -3 -2 4 0.26196551D-01 0.35300984D-01 0.22777633D+05 0.22777633D+05 0.22777633D+05 0.12276563D+01  1  2 12  6  6  1       21 0.258668413596D-04 0.100000000000D+01
0.284401375859D-06 0.000000000000D+00 0.000000000000D+00 0.840632116107D-06 0.000000000000D+00  6 -4 -3 25 23 -3 -4 4 0.26196551D-01 0.35300984D-01 0.22777633D+05 0.22777633D+05 0.22777633D+05 0.12276563D+01  1  2 12  6  6  1       21 0.140550385555D-04 0.100000000000D+01
-.556896958303D-06 0.000000000000D+00 -.103558371760D-06 0.851613315034D-06 0.000000000000D+00  6 -2 -3 25 23 -3 -2 4 0.26402843D-01 0.35300984D-01 0.19253590D+05 0.19253590D+05 0.19253590D+05 0.12356487D+01  1  2  5  6  6  1       21 -.509326553736D-04 0.100000000000D+01
-.556896958303D-06 0.000000000000D+00 -.103558371760D-06 0.851613315034D-06 0.000000000000D+00  6 -4 -3 25 23 -3 -4 4 0.26402843D-01 0.35300984D-01 0.19253590D+05 0.19253590D+05 0.19253590D+05 0.12356487D+01  1  2  5  6  6  1       21 -.274977350090D-04 0.100000000000D+01
0.284401375859D-06 0.000000000000D+00 0.000000000000D+00 0.840632116107D-06 0.000000000000D+00  6 2 -3 25 23 2 -3 4 0.26196551D-01 0.35300984D-01 0.22777633D+05 0.22777633D+05 0.22777633D+05 0.12276563D+01  3  4 12  7  5  1       21 0.619741691967D-04 0.100000000000D+01
0.284401375859D-06 0.000000000000D+00 0.000000000000D+00 0.840632116107D-06 0.000000000000D+00  6 4 -3 25 23 4 -3 4 0.26196551D-01 0.35300984D-01 0.22777633D+05 0.22777633D+05 0.22777633D+05 0.12276563D+01  3  4 12  7  5  1       21 0.140550385555D-04 0.100000000000D+01
-.556896958303D-06 0.000000000000D+00 -.103558371760D-06 0.851613315034D-06 0.000000000000D+00  6 2 -3 25 23 2 -3 4 0.26402843D-01 0.35300984D-01 0.19253590D+05 0.19253590D+05 0.19253590D+05 0.12356487D+01  3  4  5  7  5  1       21 -.122659732060D-03 0.100000000000D+01
-.556896958303D-06 0.000000000000D+00 -.103558371760D-06 0.851613315034D-06 0.000000000000D+00  6 4 -3 25 23 4 -3 4 0.26402843D-01 0.35300984D-01 0.19253590D+05 0.19253590D+05 0.19253590D+05 0.12356487D+01  3  4  5  7  5  1       21 -.274977350090D-04 0.100000000000D+01
0.284401375859D-06 0.000000000000D+00 0.000000000000D+00 0.840632116107D-06 0.000000000000D+00  6 -1 -3 25 23 -3 -1 4 0.26196551D-01 0.35300984D-01 0.22777633D+05 0.22777633D+05 0.22777633D+05 0.12276563D+01  1  2 12  8  6  1       21 0.290267315071D-04 0.100000000000D+01
-.556896958303D-06 0.000000000000D+00 -.103558371760D-06 0.851613315034D-06 0.000000000000D+00  6 -1 -3 25 23 -3 -1 4 0.26402843D-01 0.35300984D-01 0.19253590D+05 0.19253590D+05 0.19253590D+05 0.12356487D+01  1  2  5  8  6  1       21 -.572162574163D-04 0.100000000000D+01
0.284401375859D-06 0.000000000000D+00 0.000000000000D+00 0.840632116107D-06 0.000000000000D+00  6 1 -3 25 23 1 -3 4 0.26196551D-01 0.35300984D-01 0.22777633D+05 0.22777633D+05 0.22777633D+05 0.12276563D+01  3  4 12  9  5  1       21 0.481972576250D-04 0.100000000000D+01
-.556896958303D-06 0.000000000000D+00 -.103558371760D-06 0.851613315034D-06 0.000000000000D+00  6 1 -3 25 23 1 -3 4 0.26402843D-01 0.35300984D-01 0.19253590D+05 0.19253590D+05 0.19253590D+05 0.12356487D+01  3  4  5  9  5  1       21 -.953059529401D-04 0.100000000000D+01
  </mgrwgt>
  </event>
  <event>
  6     66 0.48379648E-03 0.18980991E+02 0.75467711E-02 0.11983726E+00
       21 -1    0    0  501  502 0.00000000E+00 0.00000000E+00 0.24660232E+03 0.24660346E+03 0.75000000E+00 0.0000E+00 0.9000E+01
       -3 -1    0    0    0  501 0.00000000E+00 0.00000000E+00 -.14313107E+03 0.14313194E+03 0.50000000E+00 0.0000E+00 0.9000E+01
       25  1    1    2    0    0 -.37518196E+02 -.26017884E+02 0.70879055E+02 0.15077595E+03 0.12500000E+03 0.0000E+00 0.9000E+01
       23  1    1    2    0    0 0.44098446E+02 0.24411752E+02 0.99811669E+02 0.14428523E+03 0.91188000E+02 0.0000E+00 0.9000E+01
       -3  1    1    2    0  503 -.11907305E+02 0.32665120E+02 -.30222940E+02 0.46070274E+02 0.50000000E+00 0.0000E+00 0.9000E+01
       21  1    1    2  503  502 0.53270546E+01 -.31058989E+02 -.36996532E+02 0.48603953E+02 0.75000000E+00 0.0000E+00 0.9000E+01
#aMCatNLO 2  0  0  5  2 0.79016863D+02 0.00000000D+00  -5  6  0 0.00000000D+00 0.00000000D+00 0.00000000D+00 0.00000000D+00 0.00000000D+00
  <mgrwgt>
 0.5605165962D-02    1    2    0
 0.187874547567637D+03 0.000000000000000D+00 0.000000000000000D+00 0.187874547567637D+03
 0.187874547567637D+03 -.000000000000000D+00 -.000000000000000D+00 -.187874547567637D+03
 0.138775925879391D+03 -.369838023030507D+02 -.261483209298560D+02 0.397771452399537D+02
 0.126117960808098D+03 0.445798021099101D+02 0.242942613443573D+02 0.708019689271869D+02
 0.110855208447785D+03 -.759599980685950D+01 0.185405958549880D+01 -.110579114167141D+03
 0.000000000000000D+00 0.000000000000000D+00 0.000000000000000D+00 -.000000000000000D+00
 0.187874547567637D+03 0.000000000000000D+00 0.000000000000000D+00 0.187874547567637D+03
 0.187874547567637D+03 -.000000000000000D+00 -.000000000000000D+00 -.187874547567637D+03
 0.136872430442498D+03 -.375174310624965D+02 -.260180708585415D+02 0.320088201986154D+02
 0.122175819084678D+03 0.440991291847737D+02 0.244115857607605D+02 0.638045508627846D+02
 0.556294828066328D+02 -.118596829767972D+02 0.326237495969396D+02 -.434704294809645D+02
 0.610713628014652D+02 0.527798485451997D+01 -.310172644991585D+02 -.523429415804356D+02
0.398650518050D-05 0.000000000000D+00 0.000000000000D+00 0.116445582705D-06 0.177612440789D-08  6 21 -3 25 23 -3 21 4 0.37938973D-01 0.22020319D-01 0.23019626D+05 0.23019626D+05 0.23019626D+05 0.12271591D+01  1  2  1  3  6  5       -3 0.560516596171D-02 0.100000000000D+01
  </mgrwgt>
  </event>
  <event>
  5     66 -.48379648E-03 0.22477999E+02 0.75467711E-02 0.10889984E+00
       21 -1    0    0  501  502 0.00000000E+00 0.00000000E+00 0.30252645E+02 0.30261940E+02 0.75000000E+00 0.0000E+00 0.9000E+01
       -1 -1    0    0    0  501 0.00000000E+00 0.00000000E+00 -.50742319E+03 0.50742329E+03 0.32000000E+00 0.0000E+00 0.9000E+01
       25  1    1    2    0    0 0.18350365E+01 0.80284548E+01 -.25679552E+03 0.28572148E+03 0.12500000E+03 0.0000E+00 0.9000E+01
       23  1    1    2    0    0 0.12645623E+02 0.91621571E+01 -.20447226E+03 0.22442820E+03 0.91188000E+02 0.0000E+00 0.9000E+01
       -1  1    1    2    0  502 -.14480659E+02 -.17190612E+02 -.15902756E+02 0.27535553E+02 0.32000000E+00 0.0000E+00 0.9000E+01
#aMCatNLO 1  0  0  1  2 0.43788348D+02 0.00000000D+00  -5  6  0 0.00000000D+00 0.00000000D+00 0.00000000D+00 0.00000000D+00 0.00000000D+00
  <mgrwgt>
 -.1822421922D-01   12    4    0
 0.123908915796570D+03 0.000000000000000D+00 0.000000000000000D+00 0.123908915796570D+03
 0.123908915796570D+03 0.000000000000000D+00 0.000000000000000D+00 -.123908915796570D+03
 0.125467072256212D+03 0.183547909169237D+01 0.802898024493438D+01 -.701089960532555D+01
 0.932282299237237D+02 0.126459515581672D+02 0.916254750892603D+01 -.115056135449549D+02
 0.291225294132044D+02 -.144814306498596D+02 -.171915277538604D+02 0.185165131502805D+02
 0.000000000000000D+00 0.000000000000000D+00 0.000000000000000D+00 0.000000000000000D+00
 0.218350217249518D+04 0.000000000000000D+00 0.000000000000000D+00 0.218350217249518D+04
 0.180576747301910D+03 0.000000000000000D+00 0.000000000000000D+00 -.180576747301910D+03
 0.167408970690145D+03 -.279943057997128D+02 -.107554309988257D+03 -.701089960532555D+01
 0.118611379932599D+03 -.893017303680599D+01 -.744397808433250D+02 -.115056135449549D+02
 0.605358798138233D+02 -.236132498114483D+02 -.525751454485034D+02 0.185165131502805D+02
 0.201752268936052D+04 0.605377286479671D+02 0.234569236280085D+03 0.200292542519327D+04
 0.123908915796570D+03 0.000000000000000D+00 0.000000000000000D+00 0.123908915796570D+03
 0.123908915796570D+03 0.000000000000000D+00 0.000000000000000D+00 -.123908915796570D+03
 0.125467072256212D+03 0.183547909169237D+01 0.802898024493438D+01 -.701089960532555D+01
 0.932282299237237D+02 0.126459515581672D+02 0.916254750892603D+01 -.115056135449549D+02
 0.000000000000000D+00 0.000000000000000D+00 0.000000000000000D+00 0.000000000000000D+00
 0.291225294132044D+02 -.144814306498596D+02 -.171915277538604D+02 0.185165131502805D+02
 0.218350217249518D+04 0.000000000000000D+00 0.000000000000000D+00 0.218350217249518D+04
 0.180576747301910D+03 0.000000000000000D+00 0.000000000000000D+00 -.180576747301910D+03
 0.167408970690145D+03 -.279943057997128D+02 -.107554309988257D+03 -.701089960532555D+01
 0.118611379932599D+03 -.893017303680599D+01 -.744397808433250D+02 -.115056135449549D+02
 0.201752268936052D+04 0.605377286479671D+02 0.234569236280085D+03 0.200292542519327D+04
 0.605358798138233D+02 -.236132498114483D+02 -.525751454485034D+02 0.185165131502805D+02
0.587764143428D-06 0.000000000000D+00 0.000000000000D+00 0.135079377608D-05 0.000000000000D+00  6 21 -1 25 23 -1 21 2 0.46549758D-02 0.78065829D-01 0.14431766D+05 0.14431766D+05 0.14431766D+05 0.12497391D+01  1  2  2  1  6  1       21 0.441247133284D-02 0.100000000000D+01
0.369141578841D-07 0.310171659972D-07 -.118652646323D-08 0.135079377608D-05 0.000000000000D+00  6 21 -1 25 23 -1 21 4 0.46549758D-02 0.78065829D-01 0.14431766D+05 0.14431766D+05 0.14431766D+05 0.12497391D+01  1  2  3  1  6  1       21 0.432823142108D-03 0.100000000000D+01
0.624973971881D-07 0.000000000000D+00 0.000000000000D+00 0.135079377608D-05 0.000000000000D+00  6 21 -1 25 23 -1 21 4 0.46549758D-02 0.78065829D-01 0.14431766D+05 0.14431766D+05 0.14431766D+05 0.12497391D+01  1  2 15  1  6  1       21 0.732789839320D-03 0.100000000000D+01
-.497329336842D-03 0.000000000000D+00 -.995967380327D-04 0.135079377608D-05 0.000000000000D+00  6 21 -1 25 23 -1 21 4 0.10839146D+00 0.78065829D-01 0.14431766D+05 0.14431766D+05 0.14431766D+05 0.12497391D+01  1  2  5  1  6  1       21 -.140170879993D-01 0.100000000000D+01
-.219962324934D-03 0.000000000000D+00 -.441375884669D-04 0.135079377608D-05 0.000000000000D+00  6 -1 -1 25 23 -1 -1 4 0.10839146D+00 0.78065829D-01 0.14431766D+05 0.14431766D+05 0.14431766D+05 0.12497391D+01  1  2  5  4  6  1       21 -.703079919541D-03 0.100000000000D+01
-.219962324934D-03 0.000000000000D+00 -.441375884669D-04 0.135079377608D-05 0.000000000000D+00  6 1 -1 25 23 1 -1 4 0.10839146D+00 0.78065829D-01 0.14431766D+05 0.14431766D+05 0.14431766D+05 0.12497391D+01  3  4  5  5  5  1       21 -.276492283809D-02 0.100000000000D+01
-.219962324934D-03 0.000000000000D+00 -.441375884669D-04 0.135079377608D-05 0.000000000000D+00  6 -2 -1 25 23 -1 -2 4 0.10839146D+00 0.78065829D-01 0.14431766D+05 0.14431766D+05 0.14431766D+05 0.12497391D+01  1  2  5  6  6  1       21 -.516135847956D-03 0.100000000000D+01
-.219962324934D-03 0.000000000000D+00 -.441375884669D-04 0.135079377608D-05 0.000000000000D+00  6 -4 -1 25 23 -1 -4 4 0.10839146D+00 0.78065829D-01 0.14431766D+05 0.14431766D+05 0.14431766D+05 0.12497391D+01  1  2  5  6  6  1       21 -.256196588381D-03 0.100000000000D+01
-.219962324934D-03 0.000000000000D+00 -.441375884669D-04 0.135079377608D-05 0.000000000000D+00  6 2 -1 25 23 2 -1 4 0.10839146D+00 0.78065829D-01 0.14431766D+05 0.14431766D+05 0.14431766D+05 0.12497391D+01  3  4  5  7  5  1       21 -.464188010040D-02 0.100000000000D+01
-.219962324934D-03 0.000000000000D+00 -.441375884669D-04 0.135079377608D-05 0.000000000000D+00  6 4 -1 25 23 4 -1 4 0.10839146D+00 0.78065829D-01 0.14431766D+05 0.14431766D+05 0.14431766D+05 0.12497391D+01  3  4  5  7  5  1       21 -.256196588381D-03 0.100000000000D+01
-.219962324934D-03 0.000000000000D+00 -.441375884669D-04 0.135079377608D-05 0.000000000000D+00  6 -3 -1 25 23 -1 -3 4 0.10839146D+00 0.78065829D-01 0.14431766D+05 0.14431766D+05 0.14431766D+05 0.12497391D+01  1  2  5  8  6  1       21 -.323036600224D-03 0.100000000000D+01
-.219962324934D-03 0.000000000000D+00 -.441375884669D-04 0.135079377608D-05 0.000000000000D+00  6 3 -1 25 23 3 -1 4 0.10839146D+00 0.78065829D-01 0.14431766D+05 0.14431766D+05 0.14431766D+05 0.12497391D+01  3  4  5  9  5  1       21 -.323767047632D-03 0.100000000000D+01
  </mgrwgt>
  </event>
  <event>
  5     66 0.48379648E-03 0.25421907E+02 0.75467711E-02 0.12052533E+00
       21 -1    0    0  501  502 0.00000000E+00 0.00000000E+00 0.51282159E+03 0.51282214E+03 0.75000000E+00 0.0000E+00 0.9000E+01
       -1 -1    0    0    0  501 0.00000000E+00 0.00000000E+00 -.37013129E+02 0.37014512E+02 0.32000000E+00 0.0000E+00 0.9000E+01
       25  1    1    2    0    0 -.35053903E+02 0.21688383E+02 0.21060736E+03 0.24835383E+03 0.12500000E+03 0.0000E+00 0.9000E+01
       23  1    1    2    0    0 0.56347986E+02 -.37311931E+02 0.23738788E+03 0.26312646E+03 0.91188000E+02 0.0000E+00 0.9000E+01
       -1  1    1    2    0  502 -.21294083E+02 0.15623548E+02 0.27813214E+02 0.38356362E+02 0.32000000E+00 0.0000E+00 0.9000E+01
#aMCatNLO 1  0  0  1  2 0.20170674D+02 0.00000000D+00  -5  6  0 0.00000000D+00 0.00000000D+00 0.00000000D+00 0.00000000D+00 0.00000000D+00
  <mgrwgt>
 0.1852817537D-01   13    4    0
 0.137773954845797D+03 0.000000000000000D+00 0.000000000000000D+00 0.137773954845797D+03
 0.137773954845797D+03 0.000000000000000D+00 0.000000000000000D+00 -.137773954845797D+03
 0.131901552075092D+03 -.350532609798158D+02 0.216879123384658D+02 -.859783652427780D+01
 0.115136179866530D+03 0.563485467968942D+02 -.373123427318524D+02 0.193318111928756D+02
 0.285101777499710D+02 -.212952858170784D+02 0.156244303933866D+02 -.107339746685978D+02
 0.000000000000000D+00 -.000000000000000D+00 0.000000000000000D+00 -.000000000000000D+00
 0.147973257014639D+03 0.000000000000000D+00 0.000000000000000D+00 0.147973257014639D+03
 0.148489205262384D+03 0.000000000000000D+00 0.000000000000000D+00 -.148489205262384D+03
 0.129250340221964D+03 -.274416425561404D+02 0.159274576884192D+02 -.859783652427780D+01
 0.120381613291737D+03 0.632130253872606D+02 -.425073637398718D+02 0.193318111928756D+02
 0.266532372216655D+02 -.196874748913458D+02 0.144076429234940D+02 -.107339746685978D+02
 0.201772715416567D+02 -.160839079397743D+02 0.121722631279586D+02 -.515948247745703D+00
 0.137773954845797D+03 0.000000000000000D+00 0.000000000000000D+00 0.137773954845797D+03
 0.137773954845797D+03 0.000000000000000D+00 0.000000000000000D+00 -.137773954845797D+03
 0.131901552075092D+03 -.350532609798158D+02 0.216879123384658D+02 -.859783652427780D+01
 0.115136179866530D+03 0.563485467968942D+02 -.373123427318524D+02 0.193318111928756D+02
 0.000000000000000D+00 -.000000000000000D+00 0.000000000000000D+00 -.000000000000000D+00
 0.285101777499710D+02 -.212952858170784D+02 0.156244303933866D+02 -.107339746685978D+02
 0.147973257014639D+03 0.000000000000000D+00 0.000000000000000D+00 0.147973257014639D+03
 0.148489205262384D+03 0.000000000000000D+00 0.000000000000000D+00 -.148489205262384D+03
 0.129250340221964D+03 -.274416425561404D+02 0.159274576884192D+02 -.859783652427780D+01
 0.120381613291737D+03 0.632130253872606D+02 -.425073637398718D+02 0.193318111928756D+02
 0.201772715416567D+02 -.160839079397743D+02 0.121722631279586D+02 -.515948247745703D+00
 0.266532372216655D+02 -.196874748913458D+02 0.144076429234940D+02 -.107339746685978D+02
0.223693271616D-05 0.000000000000D+00 0.000000000000D+00 0.333332846832D-06 0.000000000000D+00  6 21 -1 25 23 -1 21 2 0.78895778D-01 0.56944761D-02 0.18432816D+05 0.18432816D+05 0.18432816D+05 0.12377467D+01  1  2  2  1  6  1       21 0.623876539236D-02 0.100000000000D+01
-.678516808931D-08 0.118046182568D-06 -.451572266505D-08 0.333332846832D-06 0.000000000000D+00  6 21 -1 25 23 -1 21 4 0.78895778D-01 0.56944761D-02 0.18432816D+05 0.18432816D+05 0.18432816D+05 0.12377467D+01  1  2  3  1  6  1       21 -.289914462189D-04 0.100000000000D+01
0.251135146763D-06 0.000000000000D+00 0.000000000000D+00 0.333332846832D-06 0.000000000000D+00  6 21 -1 25 23 -1 21 4 0.78895778D-01 0.56944761D-02 0.18432816D+05 0.18432816D+05 0.18432816D+05 0.12377467D+01  1  2 15  1  6  1       21 0.107304211262D-02 0.100000000000D+01
0.339876479496D-05 0.000000000000D+00 0.000000000000D+00 0.329535928906D-06 0.000000000000D+00  6 21 -1 25 23 -1 21 4 0.87580493D-01 0.56944761D-02 0.21367163D+05 0.21367163D+05 0.21367163D+05 0.12306770D+01  1  2 12  1  6  1       21 0.112110066245D-01 0.100000000000D+01
-.865119445026D-07 0.000000000000D+00 0.000000000000D+00 0.333332846832D-06 0.000000000000D+00  6 21 -1 25 23 -1 21 4 0.78895778D-01 0.56944761D-02 0.18432816D+05 0.18432816D+05 0.18432816D+05 0.12377467D+01  1  2  4  1  6  1       21 -.369645431525D-03 0.100000000000D+01
0.911976931913D-07 0.000000000000D+00 0.000000000000D+00 0.329535928906D-06 0.000000000000D+00  6 -1 -1 25 23 -1 -1 4 0.87580493D-01 0.56944761D-02 0.21367163D+05 0.21367163D+05 0.21367163D+05 0.12306770D+01  1  2 12  4  6  1       21 0.333895799122D-04 0.100000000000D+01
0.911976931913D-07 0.000000000000D+00 0.000000000000D+00 0.329535928906D-06 0.000000000000D+00  6 1 -1 25 23 1 -1 4 0.87580493D-01 0.56944761D-02 0.21367163D+05 0.21367163D+05 0.21367163D+05 0.12306770D+01  3  4 12  5  5  1       21 0.110916791574D-03 0.100000000000D+01
0.911976931913D-07 0.000000000000D+00 0.000000000000D+00 0.329535928906D-06 0.000000000000D+00  6 -2 -1 25 23 -1 -2 4 0.87580493D-01 0.56944761D-02 0.21367163D+05 0.21367163D+05 0.21367163D+05 0.12306770D+01  1  2 12  6  6  1       21 0.251502793033D-04 0.100000000000D+01
0.911976931913D-07 0.000000000000D+00 0.000000000000D+00 0.329535928906D-06 0.000000000000D+00  6 -4 -1 25 23 -1 -4 4 0.87580493D-01 0.56944761D-02 0.21367163D+05 0.21367163D+05 0.21367163D+05 0.12306770D+01  1  2 12  6  6  1       21 0.126641738429D-04 0.100000000000D+01
0.911976931913D-07 0.000000000000D+00 0.000000000000D+00 0.329535928906D-06 0.000000000000D+00  6 2 -1 25 23 2 -1 4 0.87580493D-01 0.56944761D-02 0.21367163D+05 0.21367163D+05 0.21367163D+05 0.12306770D+01  3  4 12  7  5  1       21 0.177669442258D-03 0.100000000000D+01
0.911976931913D-07 0.000000000000D+00 0.000000000000D+00 0.329535928906D-06 0.000000000000D+00  6 4 -1 25 23 4 -1 4 0.87580493D-01 0.56944761D-02 0.21367163D+05 0.21367163D+05 0.21367163D+05 0.12306770D+01  3  4 12  7  5  1       21 0.126641738429D-04 0.100000000000D+01
0.911976931913D-07 0.000000000000D+00 0.000000000000D+00 0.329535928906D-06 0.000000000000D+00  6 -3 -1 25 23 -1 -3 4 0.87580493D-01 0.56944761D-02 0.21367163D+05 0.21367163D+05 0.21367163D+05 0.12306770D+01  1  2 12  8  6  1       21 0.157598082978D-04 0.100000000000D+01
0.911976931913D-07 0.000000000000D+00 0.000000000000D+00 0.329535928906D-06 0.000000000000D+00  6 3 -1 25 23 3 -1 4 0.87580493D-01 0.56944761D-02 0.21367163D+05 0.21367163D+05 0.21367163D+05 0.12306770D+01  3  4 12  9  5  1       21 0.157838705728D-04 0.100000000000D+01
  </mgrwgt>
  </event>
  <event>
  5     66 0.48379648E-03 0.24089997E+02 0.75467711E-02 0.10701890E+00
       21 -1    0    0  501  502 0.00000000E+00 0.00000000E+00 0.66593860E+03 0.66593903E+03 0.75000000E+00 0.0000E+00 0.9000E+01
       -1 -1    0    0    0  501 0.00000000E+00 0.00000000E+00 -.25327517E+03 0.25327537E+03 0.32000000E+00 0.0000E+00 0.9000E+01
       25  1    1    2    0    0 0.21843072E+03 0.21004307E+03 -.56156249E+02 0.33257871E+03 0.12500000E+03 0.0000E+00 0.9000E+01
       23  1    1    2    0    0 -.23102249E+03 -.18950621E+03 0.36680316E+03 0.48181304E+03 0.91188000E+02 0.0000E+00 0.9000E+01
       -1  1    1    2    0  502 0.12591772E+02 -.20536863E+02 0.10201653E+03 0.10482266E+03 0.32000000E+00 0.0000E+00 0.9000E+01
#aMCatNLO 1  0  0  5  1 0.72883781D+01 0.00000000D+00  -5  6  0 0.00000000D+00 0.00000000D+00 0.00000000D+00 0.00000000D+00 0.00000000D+00
  <mgrwgt>
 0.1138720151D+00    7    2    0
 0.410689664108080D+03 0.000000000000000D+00 0.000000000000000D+00 0.410689664108080D+03
 0.410689664108080D+03 -.000000000000000D+00 -.000000000000000D+00 -.410689664108080D+03
 0.400405681460762D+03 0.218430645674663D+03 0.210043190261759D+03 -.229933949213398D+03
 0.354918959894152D+03 -.231022553178100D+03 -.189506106111201D+03 0.168428716132342D+03
 0.660546868612458D+02 0.125919075034368D+02 -.205370841505581D+02 0.615052330810560D+02
 0.000000000000000D+00 0.000000000000000D+00 0.000000000000000D+00 0.000000000000000D+00
 0.410689664108080D+03 0.000000000000000D+00 0.000000000000000D+00 0.410689664108080D+03
 0.410689664108080D+03 -.000000000000000D+00 -.000000000000000D+00 -.410689664108080D+03
 0.399918961388564D+03 0.218587071779696D+03 0.209788063222308D+03 -.229169885147065D+03
 0.355271814861211D+03 -.230883744036438D+03 -.189732500326882D+03 0.169106730055917D+03
 0.390212587455421D+02 0.170364771233079D+01 -.796539879305241D+01 0.381616121334838D+02
 0.271672932208427D+02 0.105930245444119D+02 -.120901641023733D+02 0.219015429576644D+02
0.366804229084D-03 0.000000000000D+00 0.000000000000D+00 0.291090891485D-06 0.000000000000D+00  6 21 -1 25 23 -1 21 2 0.10245214D+00 0.38965459D-01 0.11032435D+06 0.11032435D+06 0.11032435D+06 0.11596720D+01  1  2  2  3  6  5       -1 0.214609272316D-01 0.100000000000D+01
0.817688971682D-04 0.193567909666D-04 -.740472057538D-06 0.291090891485D-06 0.000000000000D+00  6 21 -1 25 23 -1 21 4 0.10245214D+00 0.38965459D-01 0.11032435D+06 0.11032435D+06 0.11032435D+06 0.11596720D+01  1  2  3  3  6  5       -1 0.643387525116D-02 0.100000000000D+01
0.407903174686D-04 0.000000000000D+00 0.000000000000D+00 0.291090891485D-06 0.000000000000D+00  6 21 -1 25 23 -1 21 4 0.10245214D+00 0.38965459D-01 0.11032435D+06 0.11032435D+06 0.11032435D+06 0.11596720D+01  1  2 15  3  6  5       -1 0.320953104588D-02 0.100000000000D+01
0.850693297701D-03 0.000000000000D+00 0.000000000000D+00 0.291084591826D-06 0.000000000000D+00  6 21 -1 25 23 -1 21 4 0.10245214D+00 0.38965459D-01 0.11035942D+06 0.11035942D+06 0.11035942D+06 0.11596595D+01  1  2 12  3  6  5       -1 0.669316164255D-01 0.100000000000D+01
-.115303797976D-02 0.000000000000D+00 0.000000000000D+00 0.291090891485D-06 0.000000000000D+00  6 21 -1 25 23 -1 21 4 0.10245214D+00 0.38965459D-01 0.11032435D+06 0.11032435D+06 0.11032435D+06 0.11596720D+01  1  2  4  3  6  5       -1 -.907252363499D-01 0.100000000000D+01
-.114958712401D-02 0.000000000000D+00 0.000000000000D+00 0.291090891485D-06 0.000000000000D+00  6 21 -1 25 23 -1 21 4 0.10245214D+00 0.38965459D-01 0.11032435D+06 0.11032435D+06 0.11032435D+06 0.11596720D+01  1  2  5  3  6  5       -1 -.904537104250D-01 0.100000000000D+01
0.250388756699D-02 0.000000000000D+00 -.000000000000D+00 0.291090891485D-06 0.000000000000D+00  6 21 -1 25 23 -1 21 4 0.10245214D+00 0.38965459D-01 0.11032435D+06 0.11032435D+06 0.11032435D+06 0.11596720D+01  1  2  6  3  6  5       -1 0.197015011903D+00 0.100000000000D+01
  </mgrwgt>
  </event>
  <event>
  6     66 -.48379648E-03 0.76185285E+02 0.75467711E-02 0.11418304E+00
       21 -1    0    0  501  502 0.00000000E+00 0.00000000E+00 0.28224150E+03 0.28224250E+03 0.75000000E+00 0.0000E+00 0.9000E+01
       -1 -1    0    0    0  503 0.00000000E+00 0.00000000E+00 -.15752611E+03 0.15752644E+03 0.32000000E+00 0.0000E+00 0.9000E+01
       25  1    1    2    0    0 -.87837032E+02 0.13184329E+03 0.54159010E+02 0.20894065E+03 0.12500000E+03 0.0000E+00 0.9000E+01
       23  1    1    2    0    0 0.15423750E+02 -.71425370E+02 0.53564374E+02 0.12854520E+03 0.91188000E+02 0.0000E+00 0.9000E+01
       -1  1    1    2    0  502 0.56264535E+02 -.62842448E+02 0.12058413E+02 0.85207857E+02 0.32000000E+00 0.0000E+00 0.9000E+01
       21  1    1    2  501  503 0.16148748E+02 0.24245266E+01 0.49335898E+01 0.17075221E+02 0.75000000E+00 0.0000E+00 0.9000E+01
#aMCatNLO 2  0  0  2  1 0.16329739D+02 0.00000000D+00  -5  6  0 0.00000000D+00 0.00000000D+00 0.00000000D+00 0.00000000D+00 0.00000000D+00
  <mgrwgt>
 -.2076995779D-01    3    2    0
 0.202518909341942D+03 0.000000000000000D+00 0.000000000000000D+00 0.202518909341942D+03
 0.202518909341942D+03 0.000000000000000D+00 0.000000000000000D+00 -.202518909341942D+03
 0.199319469497075D+03 -.798428619848730D+02 0.133043749352416D+03 -.526583981065854D+01
 0.118495297896991D+03 0.201404448106833D+02 -.707170784478705D+02 0.178701308982917D+02
 0.872230512898183D+02 0.597024171741896D+02 -.623266709045455D+02 -.126042910876331D+02
 0.000000000000000D+00 0.000000000000000D+00 0.000000000000000D+00 0.000000000000000D+00
 0.210897906863958D+03 0.000000000000000D+00 0.000000000000000D+00 0.210897906863958D+03
 0.210798996332533D+03 0.000000000000000D+00 0.000000000000000D+00 -.210798996332533D+03
 0.201868316361341D+03 -.878372386240473D+02 0.131843496588012D+03 -.526583981065854D+01
 0.118211874677134D+03 0.154236354823470D+02 -.714252466629830D+02 0.178701308982917D+02
 0.852866735921559D+02 0.562648556051703D+02 -.628427765325697D+02 -.126042910876331D+02
 0.163300385658601D+02 0.161487475365299D+02 0.242452660754035D+01 0.989105314248531D-01
-.182702470281D-04 0.000000000000D+00 0.000000000000D+00 0.830634666386D-07 0.000000000000D+00  6 21 -1 25 23 -1 21 4 0.41695013D-01 0.24696119D-01 0.43960014D+05 0.43960014D+05 0.43960014D+05 0.11978591D+01  1  2 13  2  6  2       -1 -.268719685228D-01 0.100000000000D+01
-.408617130724D-06 0.000000000000D+00 0.000000000000D+00 0.835563654457D-07 0.000000000000D+00  6 21 -1 25 23 -1 21 4 0.41695013D-01 0.23282003D-01 0.40541320D+05 0.40541320D+05 0.40541320D+05 0.12014079D+01  1  2  8  2  6  2       -1 -.671324853464D-03 0.100000000000D+01
0.484852418219D-05 0.000000000000D+00 0.000000000000D+00 0.835563654457D-07 0.556815913090D-08  6 21 -1 25 23 -1 21 4 0.43420098D-01 0.24233899D-01 0.43960014D+05 0.43960014D+05 0.43960014D+05 0.11978591D+01  1  2  1  2  6  2       -1 0.677333558945D-02 0.100000000000D+01
  </mgrwgt>
  </event>
  <event>
  5     66 0.48379648E-03 0.37653094E+02 0.75467711E-02 0.10575648E+00
       21 -1    0    0  501  502 0.00000000E+00 0.00000000E+00 0.15257536E+03 0.15257720E+03 0.75000000E+00 0.0000E+00 0.9000E+01
       -3 -1    0    0    0  501 0.00000000E+00 0.00000000E+00 -.32072582E+03 0.32072621E+03 0.50000000E+00 0.0000E+00 0.9000E+01
       25  1    1    2    0    0 -.55446547E+02 0.15436567E+01 -.13478388E+03 0.19201145E+03 0.12500000E+03 0.0000E+00 0.9000E+01
       23  1    1    2    0    0 0.34786489E+02 0.29935039E+02 -.13710162E+03 0.17093365E+03 0.91188000E+02 0.0000E+00 0.9000E+01
       -3  1    1    2    0  502 0.20660058E+02 -.31478695E+02 0.10373504E+03 0.11035830E+03 0.50000000E+00 0.0000E+00 0.9000E+01
#aMCatNLO 1  0  0  1  2 0.82010713D+00 0.00000000D+00  -5  6  0 0.00000000D+00 0.00000000D+00 0.00000000D+00 0.00000000D+00 0.00000000D+00
  <mgrwgt>
 0.1889477316D-01   12    4    0
 0.221213434575145D+03 0.000000000000000D+00 0.000000000000000D+00 0.221213434575145D+03
 0.221213434575145D+03 0.000000000000000D+00 0.000000000000000D+00 -.221213434575145D+03
 0.154185397606586D+03 -.554465834655804D+02 0.154371203643060D+01 -.712139745432307D+02
 0.130755712714004D+03 0.347864584886394D+02 0.299350854073305D+02 -.817043329990588D+02
 0.157485758829700D+03 0.206601249769410D+02 -.314787974437611D+02 0.152918307542290D+03
 0.000000000000000D+00 0.000000000000000D+00 0.000000000000000D+00 0.000000000000000D+00
 0.426548713129091D+03 0.000000000000000D+00 0.000000000000000D+00 0.426548713129091D+03
 0.423291318779737D+03 0.000000000000000D+00 0.000000000000000D+00 -.423291318779737D+03
 0.226793178659556D+03 -.175097420616581D+03 -.892238811539691D+01 -.712139745432307D+02
 0.133527798544711D+03 -.482149104524345D+02 0.226747881895204D+02 -.817043329990588D+02
 0.179756548739731D+03 -.852548186371829D+02 -.407433912722324D+02 0.152918307542290D+03
 0.309762505964829D+03 0.308567149706198D+03 0.269909911981090D+02 0.325739434935345D+01
 0.221213434575145D+03 0.000000000000000D+00 0.000000000000000D+00 0.221213434575145D+03
 0.221213434575145D+03 0.000000000000000D+00 0.000000000000000D+00 -.221213434575145D+03
 0.154185397606586D+03 -.554465834655804D+02 0.154371203643060D+01 -.712139745432307D+02
 0.130755712714004D+03 0.347864584886394D+02 0.299350854073305D+02 -.817043329990588D+02
 0.000000000000000D+00 0.000000000000000D+00 0.000000000000000D+00 0.000000000000000D+00
 0.157485758829700D+03 0.206601249769410D+02 -.314787974437611D+02 0.152918307542290D+03
 0.426548713129091D+03 0.000000000000000D+00 0.000000000000000D+00 0.426548713129091D+03
 0.423291318779737D+03 0.000000000000000D+00 0.000000000000000D+00 -.423291318779737D+03
 0.226793178659556D+03 -.175097420616581D+03 -.892238811539691D+01 -.712139745432307D+02
 0.133527798544711D+03 -.482149104524345D+02 0.226747881895204D+02 -.817043329990588D+02
 0.309762505964829D+03 0.308567149706198D+03 0.269909911981090D+02 0.325739434935345D+01
 0.179756548739731D+03 -.852548186371829D+02 -.407433912722324D+02 0.152918307542290D+03
0.188698138115D-04 0.000000000000D+00 0.000000000000D+00 0.337560525935D-05 0.000000000000D+00  6 21 -3 25 23 -3 21 2 0.23473303D-01 0.49342605D-01 0.19112070D+05 0.19112070D+05 0.19112070D+05 0.12360032D+01  1  2  2  1  6  1       21 0.989741310054D-02 0.100000000000D+01
0.272058601035D-05 0.995787432547D-06 -.380927174510D-07 0.337560525935D-05 0.000000000000D+00  6 21 -3 25 23 -3 21 4 0.23473303D-01 0.49342605D-01 0.19112070D+05 0.19112070D+05 0.19112070D+05 0.12360032D+01  1  2  3  1  6  1       21 0.217999625486D-02 0.100000000000D+01
0.169846029984D-05 0.000000000000D+00 0.000000000000D+00 0.337560525935D-05 0.000000000000D+00  6 21 -3 25 23 -3 21 4 0.23473303D-01 0.49342605D-01 0.19112070D+05 0.19112070D+05 0.19112070D+05 0.12360032D+01  1  2 15  1  6  1       21 0.136097042277D-02 0.100000000000D+01
0.589312880404D-04 0.000000000000D+00 -.651175850930D-04 0.337560525935D-05 0.000000000000D+00  6 21 -3 25 23 -3 21 4 0.81952557D-01 0.49342605D-01 0.19112070D+05 0.19112070D+05 0.19112070D+05 0.12360032D+01  1  2  5  1  6  1       21 0.368304515578D-02 0.100000000000D+01
0.223345330585D-04 0.000000000000D+00 -.246186189320D-04 0.337560525935D-05 0.000000000000D+00  6 -3 -3 25 23 -3 -3 4 0.81952557D-01 0.49342605D-01 0.19112070D+05 0.19112070D+05 0.19112070D+05 0.12360032D+01  1  2  5  4  6  1       21 0.723791634815D-04 0.100000000000D+01
0.223345330585D-04 0.000000000000D+00 -.246186189320D-04 0.337560525935D-05 0.000000000000D+00  6 3 -3 25 23 3 -3 4 0.81952557D-01 0.49342605D-01 0.19112070D+05 0.19112070D+05 0.19112070D+05 0.12360032D+01  3  4  5  5  5  1       21 0.724760377278D-04 0.100000000000D+01
0.223345330585D-04 0.000000000000D+00 -.246186189320D-04 0.337560525935D-05 0.000000000000D+00  6 -2 -3 25 23 -3 -2 4 0.81952557D-01 0.49342605D-01 0.19112070D+05 0.19112070D+05 0.19112070D+05 0.12360032D+01  1  2  5  6  6  1       21 0.115912199189D-03 0.100000000000D+01
0.223345330585D-04 0.000000000000D+00 -.246186189320D-04 0.337560525935D-05 0.000000000000D+00  6 -4 -3 25 23 -3 -4 4 0.81952557D-01 0.49342605D-01 0.19112070D+05 0.19112070D+05 0.19112070D+05 0.12360032D+01  1  2  5  6  6  1       21 0.582450321505D-04 0.100000000000D+01
0.223345330585D-04 0.000000000000D+00 -.246186189320D-04 0.337560525935D-05 0.000000000000D+00  6 2 -3 25 23 2 -3 4 0.81952557D-01 0.49342605D-01 0.19112070D+05 0.19112070D+05 0.19112070D+05 0.12360032D+01  3  4  5  7  5  1       21 0.761169203443D-03 0.100000000000D+01
0.223345330585D-04 0.000000000000D+00 -.246186189320D-04 0.337560525935D-05 0.000000000000D+00  6 4 -3 25 23 4 -3 4 0.81952557D-01 0.49342605D-01 0.19112070D+05 0.19112070D+05 0.19112070D+05 0.12360032D+01  3  4  5  7  5  1       21 0.582450321505D-04 0.100000000000D+01
0.223345330585D-04 0.000000000000D+00 -.246186189320D-04 0.337560525935D-05 0.000000000000D+00  6 -1 -3 25 23 -3 -1 4 0.81952557D-01 0.49342605D-01 0.19112070D+05 0.19112070D+05 0.19112070D+05 0.12360032D+01  1  2  5  8  6  1       21 0.152642970501D-03 0.100000000000D+01
0.223345330585D-04 0.000000000000D+00 -.246186189320D-04 0.337560525935D-05 0.000000000000D+00  6 1 -3 25 23 1 -3 4 0.81952557D-01 0.49342605D-01 0.19112070D+05 0.19112070D+05 0.19112070D+05 0.12360032D+01  3  4  5  9  5  1       21 0.482278586219D-03 0.100000000000D+01
  </mgrwgt>
  </event>
  <event>
  6     66 0.48379648E-03 0.26087618E+02 0.75467711E-02 0.11894571E+00
       21 -1    0    0  501  502 0.00000000E+00 0.00000000E+00 0.46934940E+02 0.46940932E+02 0.75000000E+00 0.0000E+00 0.9000E+01
       -1 -1    0    0    0  503 0.00000000E+00 0.00000000E+00 -.15147176E+04 0.15147176E+04 0.32000000E+00 0.0000E+00 0.9000E+01
       25  1    1    2    0    0 -.28696263E+02 0.15645223E+02 -.22502690E+03 0.25948094E+03 0.12500000E+03 0.0000E+00 0.9000E+01
       23  1    1    2    0    0 0.55179795E+02 -.22461914E+02 -.40758827E+03 0.42189192E+03 0.91188000E+02 0.0000E+00 0.9000E+01
       -1  1    1    2    0  502 0.71140899E+01 0.35590451E+02 0.69934436E+01 0.36963511E+02 0.32000000E+00 0.0000E+00 0.9000E+01
       21  1    1    2  501  503 -.33597622E+02 -.28773760E+02 -.84216095E+03 0.84332221E+03 0.75000000E+00 0.0000E+00 0.9000E+01
#aMCatNLO 2  0  0  2  1 0.11026883D+02 0.00000000D+00  -5  6  0 0.00000000D+00 0.00000000D+00 0.00000000D+00 0.00000000D+00 0.00000000D+00
  <mgrwgt>
 0.2050509928D-02    1    2    0
 0.175105585028352D+03 0.000000000000000D+00 0.000000000000000D+00 0.175105585028352D+03
 0.175105585028352D+03 0.000000000000000D+00 0.000000000000000D+00 -.175105585028352D+03
 0.131711460384667D+03 -.411628725488964D+02 0.496845839247043D+01 0.195988300345016D+01
 0.133795541947753D+03 0.422818269974586D+02 -.335081045287903D+02 -.817034254957382D+02
 0.847041677242842D+02 -.111895444856219D+01 0.285396461363199D+02 0.797435424922880D+02
 0.000000000000000D+00 -.000000000000000D+00 -.000000000000000D+00 -.000000000000000D+00
 0.178706907002400D+03 0.000000000000000D+00 0.000000000000000D+00 0.178706907002400D+03
 0.397843556009258D+03 0.000000000000000D+00 0.000000000000000D+00 -.397843556009258D+03
 0.129217209032433D+03 -.286962609146955D+02 0.156451455173818D+02 0.195988300345016D+01
 0.136161864262737D+03 0.551798122917561D+02 -.224619792808411D+02 -.817034254957382D+02
 0.876146845862260D+02 0.711407036164887D+01 0.355905941059436D+02 0.797435424922880D+02
 0.223556705130262D+03 -.335976217387094D+02 -.287737603424843D+02 -.219136649006858D+03
0.650071639709D-05 0.000000000000D+00 0.000000000000D+00 0.162206986404D-05 0.571218955690D-08  6 21 -1 25 23 -1 21 4 0.72211985D-02 0.23303313D+00 0.25385519D+05 0.25385519D+05 0.25385519D+05 0.12225857D+01  1  2  1  2  6  2       -1 0.205050992773D-02 0.100000000000D+01
  </mgrwgt>
  </event>
  <event>
  6     66 0.48379648E-03 0.10694597E+03 0.75467711E-02 0.10975794E+00
       21 -1    0    0  501  502 0.00000000E+00 0.00000000E+00 0.12799487E+03 0.12799706E+03 0.75000000E+00 0.0000E+00 0.9000E+01
       -3 -1    0    0    0  501 -.00000000E+00 -.00000000E+00 -.13945701E+04 0.13945701E+04 0.50000000E+00 0.0000E+00 0.9000E+01
       25  1    1    2    0    0 -.37958203E+02 0.12621619E+03 0.19787276E+02 0.18272353E+03 0.12500000E+03 0.0000E+00 0.9000E+01
       23  1    1    2    0    0 -.20877103E+01 -.23673385E+03 -.90179745E+03 0.93680370E+03 0.91188000E+02 0.0000E+00 0.9000E+01
       -3  1    1    2    0  503 0.12211245E+02 0.44124574E+02 -.19396532E+03 0.19929598E+03 0.50000000E+00 0.0000E+00 0.9000E+01
       21  1    1    2  503  502 0.27834669E+02 0.66393084E+02 -.19059969E+03 0.20374400E+03 0.75000000E+00 0.0000E+00 0.9000E+01
#aMCatNLO 2  0  0  5  1 0.13437347D+02 0.00000000D+00  -5  6  0 0.00000000D+00 0.00000000D+00 0.00000000D+00 0.00000000D+00 0.00000000D+00
  <mgrwgt>
 0.3603410362D-02    2    2    0
 0.422492067154265D+03 0.000000000000000D+00 0.000000000000000D+00 0.422492067154265D+03
 0.422492067154265D+03 -.000000000000000D+00 -.000000000000000D+00 -.422492067154265D+03
 0.359207768285876D+03 -.382436166296731D+02 0.125428515212584D+03 0.310177907265441D+03
 0.336414538440694D+03 -.235507241025964D+01 -.237471709684845D+03 -.220138890393235D+03
 0.149361827581961D+03 0.405986890399327D+02 0.112043194472260D+03 -.900390168722063D+02
 0.000000000000000D+00 0.000000000000000D+00 0.000000000000000D+00 0.000000000000000D+00
 0.422492067154265D+03 0.000000000000000D+00 0.000000000000000D+00 0.422492067154265D+03
 0.422492067154265D+03 -.000000000000000D+00 -.000000000000000D+00 -.422492067154265D+03
 0.358909018957888D+03 -.379598947057906D+02 0.126211523517664D+03 0.309548674063691D+03
 0.336282021008030D+03 -.208929563769806D+01 -.236738225936514D+03 -.220728325172407D+03
 0.678977329082654D+02 0.120979562528010D+02 0.437862784461504D+02 -.504628913997568D+02
 0.818953614343474D+02 0.279512340906877D+02 0.667404239726992D+02 -.383574574915272D+02
-.330085655847D-03 0.000000000000D+00 0.000000000000D+00 0.794154782955D-08 0.000000000000D+00  6 21 -3 25 23 -3 21 4 0.19691694D-01 0.21454941D+00 0.76488720D+05 0.76488720D+05 0.76488720D+05 0.11744186D+01  1  2 13  3  6  5       -3 -.945216147690D-02 0.100000000000D+01
0.455922912793D-03 0.000000000000D+00 0.000000000000D+00 0.793835921078D-08 0.123581995026D-09  6 21 -3 25 23 -3 21 4 0.19691694D-01 0.21454941D+00 0.76488720D+05 0.76488720D+05 0.76488720D+05 0.11744186D+01  1  2  1  3  6  5       -3 0.130555718384D-01 0.100000000000D+01
  </mgrwgt>
  </event>
  <event>
  6     66 0.48379648E-03 0.24821127E+02 0.75467711E-02 0.11813590E+00
       21 -1    0    0  501  502 0.00000000E+00 0.00000000E+00 0.24077838E+03 0.24077954E+03 0.75000000E+00 0.0000E+00 0.9000E+01
       -1 -1    0    0    0  501 -.00000000E+00 -.00000000E+00 -.37658983E+03 0.37658996E+03 0.32000000E+00 0.0000E+00 0.9000E+01
       25  1    1    2    0    0 0.66234363E+00 -.88807749E+02 -.10633283E+03 0.18659830E+03 0.12500000E+03 0.0000E+00 0.9000E+01
       23  1    1    2    0    0 -.45584772E+02 0.68487686E+02 -.20797806E+03 0.24153397E+03 0.91188000E+02 0.0000E+00 0.9000E+01
       -1  1    1    2    0  503 0.94063049E+01 0.19638841E+02 0.33563022E+02 0.40009267E+02 0.32000000E+00 0.0000E+00 0.9000E+01
       21  1    1    2  503  502 0.35516123E+02 0.68122220E+00 0.14493642E+03 0.14922797E+03 0.75000000E+00 0.0000E+00 0.9000E+01
#aMCatNLO 2  0  0  5  2 0.15535290D+02 0.00000000D+00  -5  6  0 0.00000000D+00 0.00000000D+00 0.00000000D+00 0.00000000D+00 0.00000000D+00
  <mgrwgt>
 0.2308926215D-01    1    2    0
 0.301123046819541D+03 0.000000000000000D+00 0.000000000000000D+00 0.301123046819541D+03
 0.301123046819541D+03 -.000000000000000D+00 -.000000000000000D+00 -.301123046819541D+03
 0.167704515430479D+03 0.485389598296177D+00 -.888877914250255D+02 -.678124577661875D+02
 0.201559261201565D+03 -.457972465938026D+02 0.683915754598051D+02 -.159800153450092D+03
 0.232982317007037D+03 0.453118569955064D+02 0.204962159652203D+02 0.227612611216280D+03
 0.000000000000000D+00 0.000000000000000D+00 0.000000000000000D+00 0.000000000000000D+00
 0.301123046819541D+03 0.000000000000000D+00 0.000000000000000D+00 0.301123046819541D+03
 0.301123046819541D+03 -.000000000000000D+00 -.000000000000000D+00 -.301123046819541D+03
 0.167309805859343D+03 0.660278935314754D+00 -.888086825590635D+02 -.669339455772778D+02
 0.200708551459971D+03 -.455872485531534D+02 0.684865652809870D+02 -.158745281600827D+03
 0.481549559409243D+02 0.932365110423501D+01 0.194673442338299D+02 0.430463914891879D+02
 0.186072780378844D+03 0.356033185136036D+02 0.854773044246571D+00 0.182632835688917D+03
0.512337716017D-04 0.000000000000D+00 0.000000000000D+00 0.222380647185D-05 0.387203496498D-07  6 21 -1 25 23 -1 21 4 0.37042927D-01 0.57936997D-01 0.27780961D+05 0.27780961D+05 0.27780961D+05 0.12184168D+01  1  2  1  3  6  5       -1 0.230892621476D-01 0.100000000000D+01
  </mgrwgt>
  </event>
  <event>
  6     66 0.48379648E-03 0.19955209E+03 0.75467711E-02 0.10376612E+00
       21 -1    0    0  501  502 0.00000000E+00 0.00000000E+00 0.49412100E+03 0.49412157E+03 0.75000000E+00 0.0000E+00 0.9000E+01
       -1 -1    0    0    0  501 0.00000000E+00 0.00000000E+00 -.47062890E+03 0.47062901E+03 0.32000000E+00 0.0000E+00 0.9000E+01
       25  1    1    2    0    0 -.11799978E+03 -.26135503E+03 -.54797881E+02 0.31758181E+03 0.12500000E+03 0.0000E+00 0.9000E+01
       23  1    1    2    0    0 -.25206162E+02 -.52178008E+02 -.13868829E+03 0.17580554E+03 0.91188000E+02 0.0000E+00 0.9000E+01
       -1  1    1    2    0  503 -.58303152E+02 0.13205833E+03 0.49369484E+02 0.15256509E+03 0.32000000E+00 0.0000E+00 0.9000E+01
       21  1    1    2  503  502 0.20150910E+03 0.18147471E+03 0.16760878E+03 0.31879814E+03 0.75000000E+00 0.0000E+00 0.9000E+01
#aMCatNLO 2  0  0  5  5 0.10813892D+03 0.00000000D+00  -5  6  0 0.00000000D+00 0.00000000D+00 0.00000000D+00 0.00000000D+00 0.00000000D+00
  <mgrwgt>
 0.2139703162D-02    1    2    0
 0.482232260165944D+03 0.000000000000000D+00 0.000000000000000D+00 0.482232260165944D+03
 0.482232260165944D+03 -.000000000000000D+00 -.000000000000000D+00 -.482232260165944D+03
 0.339185124469810D+03 -.126175339623132D+03 -.279254471211654D+03 -.742850768384046D+02
 0.188244896800692D+03 -.297706983457657D+02 -.621715373105137D+02 -.149563683078333D+03
 0.437034499061386D+03 0.155946037968897D+03 0.341426008522167D+03 0.223848759916738D+03
 0.000000000000000D+00 0.000000000000000D+00 0.000000000000000D+00 0.000000000000000D+00
 0.482232260165944D+03 0.000000000000000D+00 0.000000000000000D+00 0.482232260165944D+03
 0.482232260165944D+03 -.000000000000000D+00 -.000000000000000D+00 -.482232260165944D+03
 0.319048078928774D+03 -.118015048518411D+03 -.261388447447592D+03 -.625715952511678D+02
 0.179252302530763D+03 -.252147383740866D+02 -.521967841947762D+02 -.143023946620943D+03
 0.150937113744648D+03 -.582774217742262D+02 0.131605253239549D+03 0.454512017076310D+02
 0.315227025127704D+03 0.201507208666724D+03 0.181979978402819D+03 0.160144340164480D+03
0.476988212928D-04 0.000000000000D+00 0.000000000000D+00 0.100200763105D-06 0.298648061192D-10  6 21 -1 25 23 -1 21 4 0.76018668D-01 0.72404499D-01 0.17487222D+06 0.17487222D+06 0.17487222D+06 0.11419122D+01  1  2  1  3  6  5       -1 0.213970316191D-02 0.100000000000D+01
  </mgrwgt>
  </event>
  <event>
  5     66 0.48379648E-03 0.84548062E+02 0.75467711E-02 0.11788509E+00
       21 -1    0    0  501  502 0.00000000E+00 0.00000000E+00 0.30015571E+03 0.30015664E+03 0.75000000E+00 0.0000E+00 0.9000E+01
       -3 -1    0    0    0  501 0.00000000E+00 0.00000000E+00 -.12637842E+03 0.12637940E+03 0.50000000E+00 0.0000E+00 0.9000E+01
       25  1    1    2    0    0 -.26312873E+02 -.29417491E+02 0.59155523E+02 0.14381284E+03 0.12500000E+03 0.0000E+00 0.9000E+01
       23  1    1    2    0    0 -.60606721E+02 0.29434984E+02 -.27004518E+02 0.11655080E+03 0.91188000E+02 0.0000E+00 0.9000E+01
       -3  1    1    2    0  502 0.86919594E+02 -.17492980E-01 0.14162629E+03 0.16617241E+03 0.50000000E+00 0.0000E+00 0.9000E+01
#aMCatNLO 1  0  0  1  5 0.63980089D+01 0.00000000D+00  -5  6  0 0.00000000D+00 0.00000000D+00 0.00000000D+00 0.00000000D+00 0.00000000D+00
  <mgrwgt>
 0.4536058210D-02   41    4    0
 0.194765533940833D+03 0.000000000000000D+00 0.000000000000000D+00 0.194765533940833D+03
 0.194765533940833D+03 0.000000000000000D+00 0.000000000000000D+00 -.194765533940833D+03
 0.131084517693275D+03 -.263131323738683D+02 -.294174907939095D+02 0.617315919110730D+00
 0.139670485627772D+03 -.606069974344904D+02 0.294349838815104D+02 -.815657207248773D+02
 0.118776064560619D+03 0.869201298083587D+02 -.174930876009164D-01 0.809484048057666D+02
 0.000000000000000D+00 -.000000000000000D+00 0.000000000000000D+00 0.000000000000000D+00
 0.295890248323399D+03 0.000000000000000D+00 0.000000000000000D+00 0.295890248323399D+03
 0.194893028233749D+03 0.000000000000000D+00 0.000000000000000D+00 -.194893028233749D+03
 0.130813784826382D+03 -.242396191145655D+02 -.299884325505667D+02 0.617315919110730D+00
 0.138601232638335D+03 -.584038518166586D+02 0.288283478623902D+02 -.815657207248773D+02
 0.120168590202114D+03 0.888119133942904D+02 -.538395589150493D+00 0.809484048057666D+02
 0.101199668890316D+03 -.616844246306630D+01 0.169848027732695D+01 0.100997220089649D+03
 0.194765533940833D+03 0.000000000000000D+00 0.000000000000000D+00 0.194765533940833D+03
 0.194765533940833D+03 0.000000000000000D+00 0.000000000000000D+00 -.194765533940833D+03
 0.131084517693275D+03 -.263131323738683D+02 -.294174907939095D+02 0.617315919110730D+00
 0.139670485627772D+03 -.606069974344904D+02 0.294349838815104D+02 -.815657207248773D+02
 0.000000000000000D+00 -.000000000000000D+00 0.000000000000000D+00 0.000000000000000D+00
 0.118776064560619D+03 0.869201298083587D+02 -.174930876009164D-01 0.809484048057666D+02
 0.295890248323399D+03 0.000000000000000D+00 0.000000000000000D+00 0.295890248323399D+03
 0.194893028233749D+03 0.000000000000000D+00 0.000000000000000D+00 -.194893028233749D+03
 0.130813784826382D+03 -.242396191145655D+02 -.299884325505667D+02 0.617315919110730D+00
 0.138601232638335D+03 -.584038518166586D+02 0.288283478623902D+02 -.815657207248773D+02
 0.101199668890316D+03 -.616844246306630D+01 0.169848027732695D+01 0.100997220089649D+03
 0.120168590202114D+03 0.888119133942904D+02 -.538395589150493D+00 0.809484048057666D+02
0.179335697923D-06 0.000000000000D+00 0.000000000000D+00 0.306428663574D-06 0.000000000000D+00  6 21 -3 25 23 -3 21 2 0.46177949D-01 0.19442981D-01 0.27453598D+05 0.27453598D+05 0.27453598D+05 0.12189623D+01  1  2  2  1  6  1       21 0.138807446207D-03 0.100000000000D+01
-.580650680380D-08 0.946380478275D-08 -.362027105202D-09 0.306428663574D-06 0.000000000000D+00  6 21 -3 25 23 -3 21 4 0.46177949D-01 0.19442981D-01 0.27453598D+05 0.27453598D+05 0.27453598D+05 0.12189623D+01  1  2  3  1  6  1       21 -.667792478471D-05 0.100000000000D+01
0.164173829849D-07 0.000000000000D+00 0.000000000000D+00 0.306428663574D-06 0.000000000000D+00  6 21 -3 25 23 -3 21 4 0.46177949D-01 0.19442981D-01 0.27453598D+05 0.27453598D+05 0.27453598D+05 0.12189623D+01  1  2 15  1  6  1       21 0.188812400362D-04 0.100000000000D+01
0.296992191648D-04 0.000000000000D+00 0.000000000000D+00 0.305504461680D-06 0.000000000000D+00  6 21 -3 25 23 -3 21 4 0.70162886D-01 0.19442981D-01 0.28575096D+05 0.28575096D+05 0.28575096D+05 0.12171227D+01  1  2 12  1  6  1       21 0.139772888330D-01 0.100000000000D+01
0.294921341770D-04 0.000000000000D+00 0.000000000000D+00 0.305504461680D-06 0.000000000000D+00  6 21 -3 25 23 -3 21 4 0.70331888D-01 0.19442981D-01 0.28575096D+05 0.28575096D+05 0.28575096D+05 0.12171227D+01  1  2 12  1  6  1       21 0.138066140056D-01 0.100000000000D+01
-.497128235908D-04 0.000000000000D+00 0.000000000000D+00 0.306428663574D-06 0.000000000000D+00  6 21 -3 25 23 -3 21 4 0.46177949D-01 0.19442981D-01 0.27453598D+05 0.27453598D+05 0.27453598D+05 0.12189623D+01  1  2  4  1  6  1       21 -.571735310045D-01 0.100000000000D+01
-.677968574664D-04 0.000000000000D+00 -.226749529320D-06 0.306428663574D-06 0.000000000000D+00  6 21 -3 25 23 -3 21 4 0.70171279D-01 0.19442981D-01 0.27453598D+05 0.27453598D+05 0.27453598D+05 0.12189623D+01  1  2  5  1  6  1       21 -.320939983957D-01 0.100000000000D+01
0.540441763464D-04 0.000000000000D+00 0.163496078483D-06 0.306428663574D-06 0.000000000000D+00  6 21 -3 25 23 -3 21 4 0.46177949D-01 0.19442981D-01 0.27453598D+05 0.27453598D+05 0.27453598D+05 0.12189623D+01  1  2  6  1  6  1       21 0.621549163529D-01 0.100000000000D+01
0.790939667890D-05 0.000000000000D+00 0.000000000000D+00 0.306428663574D-06 0.159610227829D-06  6 21 -3 25 23 -3 21 4 0.70154121D-01 0.19455709D-01 0.28575096D+05 0.28575096D+05 0.28575096D+05 0.12171227D+01  1  2 11  1  6  1       21 0.371911109660D-02 0.100000000000D+01
0.325560287735D-05 0.000000000000D+00 0.000000000000D+00 0.305504461680D-06 0.000000000000D+00  6 -3 -3 25 23 -3 -3 4 0.70162886D-01 0.19442981D-01 0.28575096D+05 0.28575096D+05 0.28575096D+05 0.12171227D+01  1  2 12  4  6  1       21 0.802122636536D-04 0.100000000000D+01
0.325374971410D-05 0.000000000000D+00 0.000000000000D+00 0.305504461680D-06 0.000000000000D+00  6 -3 -3 25 23 -3 -3 4 0.70331888D-01 0.19442981D-01 0.28575096D+05 0.28575096D+05 0.28575096D+05 0.12171227D+01  1  2 12  4  6  1       21 0.797571137756D-04 0.100000000000D+01
-.742689728877D-05 0.000000000000D+00 -.320401660593D-07 0.306428663574D-06 0.000000000000D+00  6 -3 -3 25 23 -3 -3 4 0.70171279D-01 0.19442981D-01 0.27453598D+05 0.27453598D+05 0.27453598D+05 0.12189623D+01  1  2  5  4  6  1       21 -.183687955840D-03 0.100000000000D+01
0.947848963001D-06 0.000000000000D+00 0.000000000000D+00 0.306428663574D-06 0.954978825587D-08  6 -3 -3 25 23 -3 -3 4 0.70154121D-01 0.19455709D-01 0.28575096D+05 0.28575096D+05 0.28575096D+05 0.12171227D+01  1  2 11  4  6  1       21 0.233325707073D-04 0.100000000000D+01
0.325560287735D-05 0.000000000000D+00 0.000000000000D+00 0.305504461680D-06 0.000000000000D+00  6 3 -3 25 23 3 -3 4 0.70162886D-01 0.19442981D-01 0.28575096D+05 0.28575096D+05 0.28575096D+05 0.12171227D+01  3  4 12  5  5  1       21 0.802902179096D-04 0.100000000000D+01
0.325374971410D-05 0.000000000000D+00 0.000000000000D+00 0.305504461680D-06 0.000000000000D+00  6 3 -3 25 23 3 -3 4 0.70331888D-01 0.19442981D-01 0.28575096D+05 0.28575096D+05 0.28575096D+05 0.12171227D+01  3  4 12  5  5  1       21 0.798350333992D-04 0.100000000000D+01
-.742689728877D-05 0.000000000000D+00 -.320401660593D-07 0.306428663574D-06 0.000000000000D+00  6 3 -3 25 23 3 -3 4 0.70171279D-01 0.19442981D-01 0.27453598D+05 0.27453598D+05 0.27453598D+05 0.12189623D+01  3  4  5  5  5  1       21 -.183866404193D-03 0.100000000000D+01
0.988997592575D-06 0.000000000000D+00 0.000000000000D+00 0.306428663574D-06 0.199504191126D-07  6 3 -3 25 23 3 -3 4 0.70154121D-01 0.19455709D-01 0.28575096D+05 0.28575096D+05 0.28575096D+05 0.12171227D+01  3  4 11  5  5  1       21 0.243691530065D-04 0.100000000000D+01
0.325560287735D-05 0.000000000000D+00 0.000000000000D+00 0.305504461680D-06 0.000000000000D+00  6 -2 -3 25 23 -3 -2 4 0.70162886D-01 0.19442981D-01 0.28575096D+05 0.28575096D+05 0.28575096D+05 0.12171227D+01  1  2 12  6  6  1       21 0.127678237884D-03 0.100000000000D+01
0.325560287735D-05 0.000000000000D+00 0.000000000000D+00 0.305504461680D-06 0.000000000000D+00  6 -4 -3 25 23 -3 -4 4 0.70162886D-01 0.19442981D-01 0.28575096D+05 0.28575096D+05 0.28575096D+05 0.12171227D+01  1  2 12  6  6  1       21 0.652396356541D-04 0.100000000000D+01
0.325374971410D-05 0.000000000000D+00 0.000000000000D+00 0.305504461680D-06 0.000000000000D+00  6 -2 -3 25 23 -3 -2 4 0.70331888D-01 0.19442981D-01 0.28575096D+05 0.28575096D+05 0.28575096D+05 0.12171227D+01  1  2 12  6  6  1       21 0.126952140266D-03 0.100000000000D+01
0.325374971410D-05 0.000000000000D+00 0.000000000000D+00 0.305504461680D-06 0.000000000000D+00  6 -4 -3 25 23 -3 -4 4 0.70331888D-01 0.19442981D-01 0.28575096D+05 0.28575096D+05 0.28575096D+05 0.12171227D+01  1  2 12  6  6  1       21 0.648631141252D-04 0.100000000000D+01
-.742689728877D-05 0.000000000000D+00 -.320401660593D-07 0.306428663574D-06 0.000000000000D+00  6 -2 -3 25 23 -3 -2 4 0.70171279D-01 0.19442981D-01 0.27453598D+05 0.27453598D+05 0.27453598D+05 0.12189623D+01  1  2  5  6  6  1       21 -.292610523211D-03 0.100000000000D+01
-.742689728877D-05 0.000000000000D+00 -.320401660593D-07 0.306428663574D-06 0.000000000000D+00  6 -4 -3 25 23 -3 -4 4 0.70171279D-01 0.19442981D-01 0.27453598D+05 0.27453598D+05 0.27453598D+05 0.12189623D+01  1  2  5  6  6  1       21 -.149337485609D-03 0.100000000000D+01
0.942289100298D-06 0.000000000000D+00 0.000000000000D+00 0.306428663574D-06 0.189793797867D-07  6 -2 -3 25 23 -3 -2 4 0.70154121D-01 0.19455709D-01 0.28575096D+05 0.28575096D+05 0.28575096D+05 0.12171227D+01  1  2 11  6  6  1       21 0.369218970667D-04 0.100000000000D+01
0.942289100298D-06 0.000000000000D+00 0.000000000000D+00 0.306428663574D-06 0.189793797867D-07  6 -4 -3 25 23 -3 -4 4 0.70154121D-01 0.19455709D-01 0.28575096D+05 0.28575096D+05 0.28575096D+05 0.12171227D+01  1  2 11  6  6  1       21 0.188660323314D-04 0.100000000000D+01
0.325560287735D-05 0.000000000000D+00 0.000000000000D+00 0.305504461680D-06 0.000000000000D+00  6 2 -3 25 23 2 -3 4 0.70162886D-01 0.19442981D-01 0.28575096D+05 0.28575096D+05 0.28575096D+05 0.12171227D+01  3  4 12  7  5  1       21 0.710971846016D-03 0.100000000000D+01
0.325560287735D-05 0.000000000000D+00 0.000000000000D+00 0.305504461680D-06 0.000000000000D+00  6 4 -3 25 23 4 -3 4 0.70162886D-01 0.19442981D-01 0.28575096D+05 0.28575096D+05 0.28575096D+05 0.12171227D+01  3  4 12  7  5  1       21 0.652396356541D-04 0.100000000000D+01
0.325374971410D-05 0.000000000000D+00 0.000000000000D+00 0.305504461680D-06 0.000000000000D+00  6 2 -3 25 23 2 -3 4 0.70331888D-01 0.19442981D-01 0.28575096D+05 0.28575096D+05 0.28575096D+05 0.12171227D+01  3  4 12  7  5  1       21 0.708702171396D-03 0.100000000000D+01
0.325374971410D-05 0.000000000000D+00 0.000000000000D+00 0.305504461680D-06 0.000000000000D+00  6 4 -3 25 23 4 -3 4 0.70331888D-01 0.19442981D-01 0.28575096D+05 0.28575096D+05 0.28575096D+05 0.12171227D+01  3  4 12  7  5  1       21 0.648631141252D-04 0.100000000000D+01
-.742689728877D-05 0.000000000000D+00 -.320401660593D-07 0.306428663574D-06 0.000000000000D+00  6 2 -3 25 23 2 -3 4 0.70171279D-01 0.19442981D-01 0.27453598D+05 0.27453598D+05 0.27453598D+05 0.12189623D+01  3  4  5  7  5  1       21 -.162947259314D-02 0.100000000000D+01
-.742689728877D-05 0.000000000000D+00 -.320401660593D-07 0.306428663574D-06 0.000000000000D+00  6 4 -3 25 23 4 -3 4 0.70171279D-01 0.19442981D-01 0.27453598D+05 0.27453598D+05 0.27453598D+05 0.12189623D+01  3  4  5  7  5  1       21 -.149337485609D-03 0.100000000000D+01
0.943526690606D-06 0.000000000000D+00 0.000000000000D+00 0.306428663574D-06 0.190043070584D-07  6 2 -3 25 23 2 -3 4 0.70154121D-01 0.19455709D-01 0.28575096D+05 0.28575096D+05 0.28575096D+05 0.12171227D+01  3  4 11  7  5  1       21 0.205841561841D-03 0.100000000000D+01
0.943526690606D-06 0.000000000000D+00 0.000000000000D+00 0.306428663574D-06 0.190043070584D-07  6 4 -3 25 23 4 -3 4 0.70154121D-01 0.19455709D-01 0.28575096D+05 0.28575096D+05 0.28575096D+05 0.12171227D+01  3  4 11  7  5  1       21 0.188908107341D-04 0.100000000000D+01
0.325560287735D-05 0.000000000000D+00 0.000000000000D+00 0.305504461680D-06 0.000000000000D+00  6 -1 -3 25 23 -3 -1 4 0.70162886D-01 0.19442981D-01 0.28575096D+05 0.28575096D+05 0.28575096D+05 0.12171227D+01  1  2 12  8  6  1       21 0.164069748137D-03 0.100000000000D+01
0.325374971410D-05 0.000000000000D+00 0.000000000000D+00 0.305504461680D-06 0.000000000000D+00  6 -1 -3 25 23 -3 -1 4 0.70331888D-01 0.19442981D-01 0.28575096D+05 0.28575096D+05 0.28575096D+05 0.12171227D+01  1  2 12  8  6  1       21 0.163195066707D-03 0.100000000000D+01
-.742689728877D-05 0.000000000000D+00 -.320401660593D-07 0.306428663574D-06 0.000000000000D+00  6 -1 -3 25 23 -3 -1 4 0.70171279D-01 0.19442981D-01 0.27453598D+05 0.27453598D+05 0.27453598D+05 0.12189623D+01  1  2  5  8  6  1       21 -.376085288057D-03 0.100000000000D+01
0.967909150460D-06 0.000000000000D+00 0.000000000000D+00 0.306428663574D-06 0.194954132015D-07  6 -1 -3 25 23 -3 -1 4 0.70154121D-01 0.19455709D-01 0.28575096D+05 0.28575096D+05 0.28575096D+05 0.12171227D+01  1  2 11  8  6  1       21 0.487346661947D-04 0.100000000000D+01
0.325560287735D-05 0.000000000000D+00 0.000000000000D+00 0.305504461680D-06 0.000000000000D+00  6 1 -3 25 23 1 -3 4 0.70162886D-01 0.19442981D-01 0.28575096D+05 0.28575096D+05 0.28575096D+05 0.12171227D+01  3  4 12  9  5  1       21 0.464284993512D-03 0.100000000000D+01
0.325374971410D-05 0.000000000000D+00 0.000000000000D+00 0.305504461680D-06 0.000000000000D+00  6 1 -3 25 23 1 -3 4 0.70331888D-01 0.19442981D-01 0.28575096D+05 0.28575096D+05 0.28575096D+05 0.12171227D+01  3  4 12  9  5  1       21 0.462579464554D-03 0.100000000000D+01
-.742689728877D-05 0.000000000000D+00 -.320401660593D-07 0.306428663574D-06 0.000000000000D+00  6 1 -3 25 23 1 -3 4 0.70171279D-01 0.19442981D-01 0.27453598D+05 0.27453598D+05 0.27453598D+05 0.12189623D+01  3  4  5  9  5  1       21 -.106423917263D-02 0.100000000000D+01
0.965771253214D-06 0.000000000000D+00 0.000000000000D+00 0.306428663574D-06 0.194523521454D-07  6 1 -3 25 23 1 -3 4 0.70154121D-01 0.19455709D-01 0.28575096D+05 0.28575096D+05 0.28575096D+05 0.12171227D+01  3  4 11  9  5  1       21 0.137592980525D-03 0.100000000000D+01
  </mgrwgt>
  </event>
  <event>
  5     66 0.48379648E-03 0.30787806E+02 0.75467711E-02 0.12092606E+00
       21 -1    0    0  501  502 0.00000000E+00 0.00000000E+00 0.43562793E+03 0.43562858E+03 0.75000000E+00 0.0000E+00 0.9000E+01
       -1 -1    0    0    0  501 0.00000000E+00 0.00000000E+00 -.75932686E+02 0.75933360E+02 0.32000000E+00 0.0000E+00 0.9000E+01
       25  1    1    2    0    0 0.49365333E+02 0.26251945E+02 0.54361926E+02 0.14733065E+03 0.12500000E+03 0.0000E+00 0.9000E+01
       23  1    1    2    0    0 -.24036736E+02 -.87492166E+01 0.50090856E+02 0.10713850E+03 0.91188000E+02 0.0000E+00 0.9000E+01
       -1  1    1    2    0  502 -.25328597E+02 -.17502728E+02 0.25524246E+03 0.25709279E+03 0.32000000E+00 0.0000E+00 0.9000E+01
#aMCatNLO 1  0  0  1  2 0.27162969D+02 0.00000000D+00  -5  6  0 0.00000000D+00 0.00000000D+00 0.00000000D+00 0.00000000D+00 0.00000000D+00
  <mgrwgt>
 0.5080586951D-01   23    4    0
 0.181875606739252D+03 0.000000000000000D+00 0.000000000000000D+00 0.181875606739252D+03
 0.181875606739252D+03 0.000000000000000D+00 0.000000000000000D+00 -.181875606739252D+03
 0.153442962114446D+03 0.493653793090819D+02 0.262519765366058D+02 -.692360865159730D+02
 0.101142067121120D+03 -.240367060416992D+02 -.874919567021595D+01 -.354986582186197D+02
 0.109166184242938D+03 -.253286732673827D+02 -.175027808663898D+02 0.104734744734593D+03
 0.000000000000000D+00 -.000000000000000D+00 -.000000000000000D+00 0.000000000000000D+00
 0.253831115946860D+03 0.000000000000000D+00 0.000000000000000D+00 0.253831115946860D+03
 0.184963649032357D+03 0.000000000000000D+00 0.000000000000000D+00 -.184963649032357D+03
 0.157136214282492D+03 0.539761281579421D+02 0.368745407030853D+02 -.692360865159730D+02
 0.100109678753613D+03 -.210489936445323D+02 -.186589586573020D+01 -.354986582186197D+02
 0.107518102149880D+03 -.221118548198545D+02 -.100916505943018D+02 0.104734744734593D+03
 0.740307697932306D+02 -.108152796935553D+02 -.249169942430534D+02 0.688674669145027D+02
 0.181875606739252D+03 0.000000000000000D+00 0.000000000000000D+00 0.181875606739252D+03
 0.181875606739252D+03 0.000000000000000D+00 0.000000000000000D+00 -.181875606739252D+03
 0.153442962114446D+03 0.493653793090819D+02 0.262519765366058D+02 -.692360865159730D+02
 0.101142067121120D+03 -.240367060416992D+02 -.874919567021595D+01 -.354986582186197D+02
 0.000000000000000D+00 -.000000000000000D+00 -.000000000000000D+00 0.000000000000000D+00
 0.109166184242938D+03 -.253286732673827D+02 -.175027808663898D+02 0.104734744734593D+03
 0.253831115946860D+03 0.000000000000000D+00 0.000000000000000D+00 0.253831115946860D+03
 0.184963649032357D+03 0.000000000000000D+00 0.000000000000000D+00 -.184963649032357D+03
 0.157136214282492D+03 0.539761281579421D+02 0.368745407030853D+02 -.692360865159730D+02
 0.100109678753613D+03 -.210489936445323D+02 -.186589586573020D+01 -.354986582186197D+02
 0.740307697932306D+02 -.108152796935553D+02 -.249169942430534D+02 0.688674669145027D+02
 0.107518102149880D+03 -.221118548198545D+02 -.100916505943018D+02 0.104734744734593D+03
0.284334174790D-05 0.000000000000D+00 0.000000000000D+00 0.283144956576D-05 0.000000000000D+00  6 21 -1 25 23 -1 21 2 0.67019783D-01 0.11682053D-01 0.17217411D+05 0.17217411D+05 0.17217411D+05 0.12410538D+01  1  2  2  1  6  1       21 0.385515474495D-02 0.100000000000D+01
0.395397246208D-06 0.150047266353D-06 -.573988778595D-08 0.283144956576D-05 0.000000000000D+00  6 21 -1 25 23 -1 21 4 0.67019783D-01 0.11682053D-01 0.17217411D+05 0.17217411D+05 0.17217411D+05 0.12410538D+01  1  2  3  1  6  1       21 0.825710096723D-03 0.100000000000D+01
0.305118851262D-06 0.000000000000D+00 0.000000000000D+00 0.283144956576D-05 0.000000000000D+00  6 21 -1 25 23 -1 21 4 0.67019783D-01 0.11682053D-01 0.17217411D+05 0.17217411D+05 0.17217411D+05 0.12410538D+01  1  2 15  1  6  1       21 0.637181261639D-03 0.100000000000D+01
0.196958187613D-04 0.000000000000D+00 0.000000000000D+00 0.279355603255D-05 0.000000000000D+00  6 21 -1 25 23 -1 21 4 0.93934326D-01 0.11682053D-01 0.20468182D+05 0.20468182D+05 0.20468182D+05 0.12327212D+01  1  2 12  1  6  1       21 0.187739263067D-01 0.100000000000D+01
-.246048606224D-05 0.000000000000D+00 0.000000000000D+00 0.283144956576D-05 0.000000000000D+00  6 21 -1 25 23 -1 21 4 0.67019783D-01 0.11682053D-01 0.17217411D+05 0.17217411D+05 0.17217411D+05 0.12410538D+01  1  2  4  1  6  1       21 -.513824566033D-02 0.100000000000D+01
-.405321649952D-04 0.000000000000D+00 -.374511148269D-05 0.283144956576D-05 0.000000000000D+00  6 21 -1 25 23 -1 21 4 0.94281827D-01 0.11682053D-01 0.17217411D+05 0.17217411D+05 0.17217411D+05 0.12410538D+01  1  2  5  1  6  1       21 -.394842304553D-01 0.100000000000D+01
0.351369797188D-04 0.000000000000D+00 0.299830246654D-05 0.283144956576D-05 0.000000000000D+00  6 21 -1 25 23 -1 21 4 0.67019783D-01 0.11682053D-01 0.17217411D+05 0.17217411D+05 0.17217411D+05 0.12410538D+01  1  2  6  1  6  1       21 0.733767349178D-01 0.100000000000D+01
0.214288294799D-05 0.000000000000D+00 0.000000000000D+00 0.279355603255D-05 0.000000000000D+00  6 -1 -1 25 23 -1 -1 4 0.93934326D-01 0.11682053D-01 0.20468182D+05 0.20468182D+05 0.20468182D+05 0.12327212D+01  1  2 12  4  6  1       21 0.229145624911D-03 0.100000000000D+01
-.358436662318D-05 0.000000000000D+00 -.413158322113D-06 0.283144956576D-05 0.000000000000D+00  6 -1 -1 25 23 -1 -1 4 0.94281827D-01 0.11682053D-01 0.17217411D+05 0.17217411D+05 0.17217411D+05 0.12410538D+01  1  2  5  4  6  1       21 -.390152876950D-03 0.100000000000D+01
0.214288294799D-05 0.000000000000D+00 0.000000000000D+00 0.279355603255D-05 0.000000000000D+00  6 1 -1 25 23 1 -1 4 0.93934326D-01 0.11682053D-01 0.20468182D+05 0.20468182D+05 0.20468182D+05 0.12327212D+01  3  4 12  5  5  1       21 0.803409065263D-03 0.100000000000D+01
-.358436662318D-05 0.000000000000D+00 -.413158322113D-06 0.283144956576D-05 0.000000000000D+00  6 1 -1 25 23 1 -1 4 0.94281827D-01 0.11682053D-01 0.17217411D+05 0.17217411D+05 0.17217411D+05 0.12410538D+01  3  4  5  5  5  1       21 -.137129581913D-02 0.100000000000D+01
0.214288294799D-05 0.000000000000D+00 0.000000000000D+00 0.279355603255D-05 0.000000000000D+00  6 -2 -1 25 23 -1 -2 4 0.93934326D-01 0.11682053D-01 0.20468182D+05 0.20468182D+05 0.20468182D+05 0.12327212D+01  1  2 12  6  6  1       21 0.171100903958D-03 0.100000000000D+01
0.214288294799D-05 0.000000000000D+00 0.000000000000D+00 0.279355603255D-05 0.000000000000D+00  6 -4 -1 25 23 -1 -4 4 0.93934326D-01 0.11682053D-01 0.20468182D+05 0.20468182D+05 0.20468182D+05 0.12327212D+01  1  2 12  6  6  1       21 0.859499402192D-04 0.100000000000D+01
-.358436662318D-05 0.000000000000D+00 -.413158322113D-06 0.283144956576D-05 0.000000000000D+00  6 -2 -1 25 23 -1 -2 4 0.94281827D-01 0.11682053D-01 0.17217411D+05 0.17217411D+05 0.17217411D+05 0.12410538D+01  1  2  5  6  6  1       21 -.290883642058D-03 0.100000000000D+01
-.358436662318D-05 0.000000000000D+00 -.413158322113D-06 0.283144956576D-05 0.000000000000D+00  6 -4 -1 25 23 -1 -4 4 0.94281827D-01 0.11682053D-01 0.17217411D+05 0.17217411D+05 0.17217411D+05 0.12410538D+01  1  2  5  6  6  1       21 -.145351602945D-03 0.100000000000D+01
0.214288294799D-05 0.000000000000D+00 0.000000000000D+00 0.279355603255D-05 0.000000000000D+00  6 2 -1 25 23 2 -1 4 0.93934326D-01 0.11682053D-01 0.20468182D+05 0.20468182D+05 0.20468182D+05 0.12327212D+01  3  4 12  7  5  1       21 0.130680954816D-02 0.100000000000D+01
0.214288294799D-05 0.000000000000D+00 0.000000000000D+00 0.279355603255D-05 0.000000000000D+00  6 4 -1 25 23 4 -1 4 0.93934326D-01 0.11682053D-01 0.20468182D+05 0.20468182D+05 0.20468182D+05 0.12327212D+01  3  4 12  7  5  1       21 0.859499402192D-04 0.100000000000D+01
-.358436662318D-05 0.000000000000D+00 -.413158322113D-06 0.283144956576D-05 0.000000000000D+00  6 2 -1 25 23 2 -1 4 0.94281827D-01 0.11682053D-01 0.17217411D+05 0.17217411D+05 0.17217411D+05 0.12410538D+01  3  4  5  7  5  1       21 -.223048173363D-02 0.100000000000D+01
-.358436662318D-05 0.000000000000D+00 -.413158322113D-06 0.283144956576D-05 0.000000000000D+00  6 4 -1 25 23 4 -1 4 0.94281827D-01 0.11682053D-01 0.17217411D+05 0.17217411D+05 0.17217411D+05 0.12410538D+01  3  4  5  7  5  1       21 -.145351602945D-03 0.100000000000D+01
0.214288294799D-05 0.000000000000D+00 0.000000000000D+00 0.279355603255D-05 0.000000000000D+00  6 -3 -1 25 23 -1 -3 4 0.93934326D-01 0.11682053D-01 0.20468182D+05 0.20468182D+05 0.20468182D+05 0.12327212D+01  1  2 12  8  6  1       21 0.107312110138D-03 0.100000000000D+01
-.358436662318D-05 0.000000000000D+00 -.413158322113D-06 0.283144956576D-05 0.000000000000D+00  6 -3 -1 25 23 -1 -3 4 0.94281827D-01 0.11682053D-01 0.17217411D+05 0.17217411D+05 0.17217411D+05 0.12410538D+01  1  2  5  8  6  1       21 -.181850892909D-03 0.100000000000D+01
0.214288294799D-05 0.000000000000D+00 0.000000000000D+00 0.279355603255D-05 0.000000000000D+00  6 3 -1 25 23 3 -1 4 0.93934326D-01 0.11682053D-01 0.20468182D+05 0.20468182D+05 0.20468182D+05 0.12327212D+01  3  4 12  9  5  1       21 0.107499256469D-03 0.100000000000D+01
-.358436662318D-05 0.000000000000D+00 -.413158322113D-06 0.283144956576D-05 0.000000000000D+00  6 3 -1 25 23 3 -1 4 0.94281827D-01 0.11682053D-01 0.17217411D+05 0.17217411D+05 0.17217411D+05 0.12410538D+01  3  4  5  9  5  1       21 -.182169919427D-03 0.100000000000D+01
  </mgrwgt>
  </event>
  <event>
  5     66 -.48379648E-03 0.20095934E+02 0.75467711E-02 0.12023810E+00
       21 -1    0    0  501  502 0.00000000E+00 0.00000000E+00 0.30155891E+02 0.30165216E+02 0.75000000E+00 0.0000E+00 0.9000E+01
       -1 -1    0    0    0  501 -.00000000E+00 -.00000000E+00 -.78641941E+03 0.78641948E+03 0.32000000E+00 0.0000E+00 0.9000E+01
       25  1    1    2    0    0 -.52013983E+02 -.53305982E+02 -.47923724E+03 0.50083961E+03 0.12500000E+03 0.0000E+00 0.9000E+01
       23  1    1    2    0    0 0.64493965E+02 0.69054125E+02 -.23649336E+03 0.27050380E+03 0.91188000E+02 0.0000E+00 0.9000E+01
       -1  1    1    2    0  502 -.12479982E+02 -.15748143E+02 -.40532921E+02 0.45241287E+02 0.32000000E+00 0.0000E+00 0.9000E+01
#aMCatNLO 1  0  0  5  1 0.35716293D+00 0.00000000D+00  -5  6  0 0.00000000D+00 0.00000000D+00 0.00000000D+00 0.00000000D+00 0.00000000D+00
  <mgrwgt>
 -.4597056630D+00    6    2    0
 0.154009779317139D+03 0.000000000000000D+00 0.000000000000000D+00 0.154009779317139D+03
 0.154009779317139D+03 -.000000000000000D+00 -.000000000000000D+00 -.154009779317139D+03
 0.151120766116796D+03 -.520132307741185D+02 -.533050329687714D+02 -.408127827569225D+02
 0.136478914642592D+03 0.644946439379922D+02 0.690549820511120D+02 0.371899604093916D+02
 0.204198778748896D+02 -.124814131638736D+02 -.157499490823405D+02 0.362282234753092D+01
 0.000000000000000D+00 -.000000000000000D+00 0.000000000000000D+00 0.000000000000000D+00
 0.154009779317139D+03 0.000000000000000D+00 0.000000000000000D+00 0.154009779317139D+03
 0.154009779317139D+03 -.000000000000000D+00 -.000000000000000D+00 -.154009779317139D+03
 0.151165614938283D+03 -.520762783496808D+02 -.533845909556622D+02 -.407944827325018D+02
 0.136420197299388D+03 0.644377256364763D+02 0.689831584251365D+02 0.372064813667550D+02
 0.200220676461890D+02 -.119595123402914D+02 -.156327464316704D+02 0.367021748866193D+01
 0.411678750417442D+00 -.401934946504099D+00 0.341789621962663D-01 -.822161229151544D-01
0.336527943622D-05 0.000000000000D+00 0.000000000000D+00 0.480081798348D-06 0.000000000000D+00  6 21 -1 25 23 -1 21 2 0.46400902D-02 0.12098832D+00 0.22039689D+05 0.22039689D+05 0.22039689D+05 0.12292097D+01  1  2  2  3  6  5       -1 0.948738570643D-02 0.100000000000D+01
0.296634097247D-06 0.177590674878D-06 -.679352960174D-08 0.480081798348D-06 0.000000000000D+00  6 21 -1 25 23 -1 21 4 0.46400902D-02 0.12098832D+00 0.22039689D+05 0.22039689D+05 0.22039689D+05 0.12292097D+01  1  2  3  3  6  5       -1 0.126356760311D-02 0.100000000000D+01
0.325284616980D-06 0.000000000000D+00 0.000000000000D+00 0.480081798348D-06 0.000000000000D+00  6 21 -1 25 23 -1 21 4 0.46400902D-02 0.12098832D+00 0.22039689D+05 0.22039689D+05 0.22039689D+05 0.12292097D+01  1  2 15  3  6  5       -1 0.138560977184D-02 0.100000000000D+01
-.113757211021D-03 0.000000000000D+00 0.000000000000D+00 0.480081798348D-06 0.000000000000D+00  6 21 -1 25 23 -1 21 4 0.46400902D-02 0.12098832D+00 0.22039689D+05 0.22039689D+05 0.22039689D+05 0.12292097D+01  1  2  4  3  6  5       -1 -.484569804347D+00 0.100000000000D+01
-.626800760518D-04 0.000000000000D+00 0.000000000000D+00 0.480081798348D-06 0.000000000000D+00  6 21 -1 25 23 -1 21 4 0.46400902D-02 0.12098832D+00 0.22039689D+05 0.22039689D+05 0.22039689D+05 0.12292097D+01  1  2  5  3  6  5       -1 -.266997335082D+00 0.100000000000D+01
0.656679919114D-04 0.000000000000D+00 -.000000000000D+00 0.480081798348D-06 0.000000000000D+00  6 21 -1 25 23 -1 21 4 0.46400902D-02 0.12098832D+00 0.22039689D+05 0.22039689D+05 0.22039689D+05 0.12292097D+01  1  2  6  3  6  5       -1 0.279724913321D+00 0.100000000000D+01
  </mgrwgt>
  </event>
  <event>
  5     66 0.48379648E-03 0.10342055E+03 0.75467711E-02 0.10884554E+00
       21 -1    0    0  501  502 0.00000000E+00 0.00000000E+00 0.88080001E+02 0.88083194E+02 0.75000000E+00 0.0000E+00 0.9000E+01
       -3 -1    0    0    0  501 0.00000000E+00 0.00000000E+00 -.84606387E+03 0.84606402E+03 0.50000000E+00 0.0000E+00 0.9000E+01
       25  1    1    2    0    0 -.12342581E+03 -.52832950E+01 -.22447270E+03 0.28508742E+03 0.12500000E+03 0.0000E+00 0.9000E+01
       23  1    1    2    0    0 0.12982934E+03 0.12113092E+03 -.48280012E+03 0.52243618E+03 0.91188000E+02 0.0000E+00 0.9000E+01
       -3  1    1    2    0  502 -.64035318E+01 -.11584763E+03 -.50711047E+02 0.12662361E+03 0.50000000E+00 0.0000E+00 0.9000E+01
#aMCatNLO 1  0  0  2  1 0.89271152D+02 0.00000000D+00  -5  6  0 0.00000000D+00 0.00000000D+00 0.00000000D+00 0.00000000D+00 0.00000000D+00
  <mgrwgt>
 0.1050318220D-01    8    4    0
 0.272988766782889D+03 0.000000000000000D+00 0.000000000000000D+00 0.272988766782889D+03
 0.272988766782889D+03 0.000000000000000D+00 0.000000000000000D+00 -.272988766782889D+03
 0.176137132122261D+03 -.123425795055365D+03 -.528307656072305D+01 0.117239724180607D+02
 0.223594804054481D+03 0.129829354255519D+03 0.121131199582336D+03 -.100751954410328D+03
 0.146245597389036D+03 -.640355920015388D+01 -.115848123021613D+03 0.890279819922674D+02
 0.000000000000000D+00 0.000000000000000D+00 0.000000000000000D+00 -.000000000000000D+00
 0.284320588571690D+03 0.000000000000000D+00 0.000000000000000D+00 0.284320588571690D+03
 0.535131088691057D+03 0.000000000000000D+00 0.000000000000000D+00 -.535131088691057D+03
 0.196293033223129D+03 -.149471048584789D+03 -.206617762460200D+02 0.117239724180607D+02
 0.198214475002522D+03 0.100330858600865D+03 0.103713495994676D+03 -.100751954410328D+03
 0.158720117462920D+03 -.277308041448131D+02 -.128441023864300D+03 0.890279819922674D+02
 0.266224051574176D+03 0.768709941287366D+02 0.453893041156443D+02 -.250810500119367D+03
 0.272988766782889D+03 0.000000000000000D+00 0.000000000000000D+00 0.272988766782889D+03
 0.272988766782889D+03 0.000000000000000D+00 0.000000000000000D+00 -.272988766782889D+03
 0.176137132122261D+03 -.123425795055365D+03 -.528307656072305D+01 0.117239724180607D+02
 0.223594804054481D+03 0.129829354255519D+03 0.121131199582336D+03 -.100751954410328D+03
 0.000000000000000D+00 0.000000000000000D+00 0.000000000000000D+00 -.000000000000000D+00
 0.146245597389036D+03 -.640355920015388D+01 -.115848123021613D+03 0.890279819922674D+02
 0.284320588571690D+03 0.000000000000000D+00 0.000000000000000D+00 0.284320588571690D+03
 0.535131088691057D+03 0.000000000000000D+00 0.000000000000000D+00 -.535131088691057D+03
 0.196293033223129D+03 -.149471048584789D+03 -.206617762460200D+02 0.117239724180607D+02
 0.198214475002522D+03 0.100330858600865D+03 0.103713495994676D+03 -.100751954410328D+03
 0.266224051574176D+03 0.768709941287366D+02 0.453893041156443D+02 -.250810500119367D+03
 0.158720117462920D+03 -.277308041448131D+02 -.128441023864300D+03 0.890279819922674D+02
0.716654280270D-05 0.000000000000D+00 0.000000000000D+00 0.800250948820D-07 0.000000000000D+00  6 21 -3 25 23 -3 21 2 0.13551026D-01 0.13016393D+00 0.60363650D+05 0.60363650D+05 0.60363650D+05 0.11842641D+01  1  2  2  2  6  2       -3 0.113580998400D-02 0.100000000000D+01
-.230344137778D-06 0.378188853851D-06 -.144671851461D-07 0.800250948820D-07 0.000000000000D+00  6 21 -3 25 23 -3 21 4 0.13551026D-01 0.13016393D+00 0.60363650D+05 0.60363650D+05 0.60363650D+05 0.11842641D+01  1  2  3  2  6  2       -3 -.512000335737D-04 0.100000000000D+01
0.759077555191D-06 0.000000000000D+00 0.000000000000D+00 0.800250948820D-07 0.000000000000D+00  6 21 -3 25 23 -3 21 4 0.13551026D-01 0.13016393D+00 0.60363650D+05 0.60363650D+05 0.60363650D+05 0.11842641D+01  1  2 15  2  6  2       -3 0.168724920398D-03 0.100000000000D+01
0.437936270038D-04 0.000000000000D+00 0.000000000000D+00 0.780458088320D-07 0.000000000000D+00  6 21 -3 25 23 -3 21 4 0.13551026D-01 0.25536390D+00 0.86234109D+05 0.86234109D+05 0.86234109D+05 0.11695270D+01  1  2 12  2  6  2       -3 0.143474814501D-02 0.100000000000D+01
-.489411157442D-04 0.000000000000D+00 -.542133572303D-05 0.800250948820D-07 0.000000000000D+00  6 21 -3 25 23 -3 21 4 0.13551026D-01 0.25832100D+00 0.60363650D+05 0.60363650D+05 0.60363650D+05 0.11842641D+01  1  2  5  2  6  2       -3 -.164503010487D-02 0.100000000000D+01
0.431760771734D-04 0.000000000000D+00 0.435717000384D-05 0.800250948820D-07 0.000000000000D+00  6 21 -3 25 23 -3 21 4 0.13551026D-01 0.13016393D+00 0.60363650D+05 0.60363650D+05 0.60363650D+05 0.11842641D+01  1  2  6  2  6  2       -3 0.959701697723D-02 0.100000000000D+01
0.319679361328D-05 0.000000000000D+00 0.000000000000D+00 0.780458088320D-07 0.000000000000D+00  6 21 21 25 23 3 -3 4 0.13551026D-01 0.25536390D+00 0.86234109D+05 0.86234109D+05 0.86234109D+05 0.11695270D+01  3  4 12 10  5  2       -3 0.159140260518D-02 0.100000000000D+01
-.330774842217D-05 0.000000000000D+00 -.402210957094D-06 0.800250948820D-07 0.000000000000D+00  6 21 21 25 23 3 -3 4 0.13551026D-01 0.25832100D+00 0.60363650D+05 0.60363650D+05 0.60363650D+05 0.11842641D+01  3  4  5 10  5  2       -3 -.172829029250D-02 0.100000000000D+01
  </mgrwgt>
  </event>
  <event>
  5     66 -.48379648E-03 0.22527775E+02 0.75467711E-02 0.12274300E+00
       21 -1    0    0  501  502 0.00000000E+00 0.00000000E+00 0.17877868E+02 0.17893593E+02 0.75000000E+00 0.0000E+00 0.9000E+01
       -1 -1    0    0    0  501 -.00000000E+00 -.00000000E+00 -.10831542E+04 0.10831543E+04 0.32000000E+00 0.0000E+00 0.9000E+01
       25  1    1    2    0    0 -.77233474E+01 -.47071349E+02 -.51387141E+03 0.53100300E+03 0.12500000E+03 0.0000E+00 0.9000E+01
       23  1    1    2    0    0 -.14803585E+02 0.47141436E+02 -.52583509E+03 0.53596572E+03 0.91188000E+02 0.0000E+00 0.9000E+01
       -1  1    1    2    0  502 0.22526933E+02 -.70086537E-01 -.25569837E+02 0.34079122E+02 0.32000000E+00 0.0000E+00 0.9000E+01
#aMCatNLO 1  0  0  5  1 0.39642134D+01 0.00000000D+00  -5  6  0 0.00000000D+00 0.00000000D+00 0.00000000D+00 0.00000000D+00 0.00000000D+00
  <mgrwgt>
 -.3960089652D+00    7    2    0
 0.139187538654759D+03 0.000000000000000D+00 0.000000000000000D+00 0.139187538654759D+03
 0.139187538654759D+03 -.000000000000000D+00 -.000000000000000D+00 -.139187538654759D+03
 0.133793100592897D+03 -.772375363255547D+01 -.470713478509492D+02 -.474981662263826D+00
 0.107639909960673D+03 -.148039121595477D+02 0.471414366690144D+02 -.288032638063044D+02
 0.369420667559471D+02 0.225276657921032D+02 -.700888180651343D-01 0.292782454685682D+02
 0.000000000000000D+00 0.000000000000000D+00 0.000000000000000D+00 0.000000000000000D+00
 0.139187538654759D+03 0.000000000000000D+00 0.000000000000000D+00 0.139187538654759D+03
 0.139187538654759D+03 -.000000000000000D+00 -.000000000000000D+00 -.139187538654759D+03
 0.133776012533026D+03 -.743068277892012D+01 -.470722596626713D+02 -.940899857091082D-01
 0.107525848697515D+03 -.145682391708893D+02 0.471407034354261D+02 -.284969696844043D+02
 0.252641378599710D+02 0.179613600344828D+02 -.196880486945824D+01 0.176575766996862D+02
 0.118090782190052D+02 0.403756191532664D+01 0.190036109670350D+01 0.109334829704272D+02
0.320965250437D-05 0.000000000000D+00 0.000000000000D+00 0.136754198246D-05 0.000000000000D+00  6 21 -1 25 23 -1 21 2 0.27516545D-02 0.16664032D+00 0.16904505D+05 0.16904505D+05 0.16904505D+05 0.12419477D+01  1  2  2  3  6  5       -1 0.974643112376D-02 0.100000000000D+01
0.280311962789D-06 0.169378016054D-06 -.647936366445D-08 0.136754198246D-05 0.000000000000D+00  6 21 -1 25 23 -1 21 4 0.27516545D-02 0.16664032D+00 0.16904505D+05 0.16904505D+05 0.16904505D+05 0.12419477D+01  1  2  3  3  6  5       -1 0.131291265684D-02 0.100000000000D+01
0.262344792181D-06 0.000000000000D+00 0.000000000000D+00 0.136754198246D-05 0.000000000000D+00  6 21 -1 25 23 -1 21 4 0.27516545D-02 0.16664032D+00 0.16904505D+05 0.16904505D+05 0.16904505D+05 0.12419477D+01  1  2 15  3  6  5       -1 0.122875882529D-02 0.100000000000D+01
0.112160326091D-05 0.000000000000D+00 0.000000000000D+00 0.136758032763D-05 0.000000000000D+00  6 21 -1 25 23 -1 21 4 0.27516545D-02 0.16664032D+00 0.16898474D+05 0.16898474D+05 0.16898474D+05 0.12419651D+01  1  2 12  3  6  5       -1 0.525359962697D-02 0.100000000000D+01
-.959689927613D-04 0.000000000000D+00 0.000000000000D+00 0.136754198246D-05 0.000000000000D+00  6 21 -1 25 23 -1 21 4 0.27516545D-02 0.16664032D+00 0.16904505D+05 0.16904505D+05 0.16904505D+05 0.12419477D+01  1  2  4  3  6  5       -1 -.449495283778D+00 0.100000000000D+01
-.119170488058D-04 0.000000000000D+00 0.000000000000D+00 0.136754198246D-05 0.000000000000D+00  6 21 -1 25 23 -1 21 4 0.27516545D-02 0.16664032D+00 0.16904505D+05 0.16904505D+05 0.16904505D+05 0.12419477D+01  1  2  5  3  6  5       -1 -.558165411622D-01 0.100000000000D+01
0.195913643139D-04 0.000000000000D+00 -.000000000000D+00 0.136754198246D-05 0.000000000000D+00  6 21 -1 25 23 -1 21 4 0.27516545D-02 0.16664032D+00 0.16904505D+05 0.16904505D+05 0.16904505D+05 0.12419477D+01  1  2  6  3  6  5       -1 0.917611575209D-01 0.100000000000D+01
  </mgrwgt>
  </event>
  <event>
  5     66 0.48379648E-03 0.25879769E+02 0.75467711E-02 0.12353534E+00
       21 -1    0    0  501  502 0.00000000E+00 0.00000000E+00 0.84713665E+02 0.84716985E+02 0.75000000E+00 0.0000E+00 0.9000E+01
       -3 -1    0    0    0  501 -.00000000E+00 -.00000000E+00 -.30868264E+03 0.30868304E+03 0.50000000E+00 0.0000E+00 0.9000E+01
       25  1    1    2    0    0 0.95235313E+01 0.10642658E+01 -.11767833E+03 0.17194482E+03 0.12500000E+03 0.0000E+00 0.9000E+01
       23  1    1    2    0    0 -.15749685E+02 0.24055053E+02 -.14572055E+03 0.17428835E+03 0.91188000E+02 0.0000E+00 0.9000E+01
       -3  1    1    2    0  502 0.62261541E+01 -.25119319E+02 0.39429909E+02 0.47166862E+02 0.50000000E+00 0.0000E+00 0.9000E+01
#aMCatNLO 1  0  0  5  1 0.56839585D+01 0.00000000D+00  -5  6  0 0.00000000D+00 0.00000000D+00 0.00000000D+00 0.00000000D+00 0.00000000D+00
  <mgrwgt>
 0.7601358557D-02    7    2    0
 0.161710761197087D+03 0.000000000000000D+00 0.000000000000000D+00 0.161710761197087D+03
 0.161710761197087D+03 -.000000000000000D+00 -.000000000000000D+00 -.161710761197087D+03
 0.127656420708246D+03 0.952348850367443D+01 0.106443864321370D+01 -.240693141808389D+02
 0.111088002422973D+03 -.157497227541718D+02 0.240552036720798D+02 -.565560460763289D+02
 0.846770992629557D+02 0.622623425049733D+01 -.251196423152935D+02 0.806253602571679D+02
 0.000000000000000D+00 0.000000000000000D+00 -.000000000000000D+00 0.000000000000000D+00
 0.161710761197087D+03 0.000000000000000D+00 0.000000000000000D+00 0.161710761197087D+03
 0.161710761197087D+03 -.000000000000000D+00 -.000000000000000D+00 -.161710761197087D+03
 0.127558361833458D+03 0.956483644747762D+01 0.897621026493625D+00 -.235338873512495D+02
 0.110815226671263D+03 -.157137716930500D+02 0.239101596920590D+02 -.560905050867110D+02
 0.141263845404219D+02 0.776381345762094D+00 0.158384593324084D+01 0.140158269199352D+02
 0.709215493490310D+02 0.537255389981029D+01 -.263916266517935D+02 0.656085655180253D+02
0.232702950563D-05 0.000000000000D+00 0.000000000000D+00 0.293129874468D-05 0.000000000000D+00  6 21 -3 25 23 -3 21 2 0.13033158D-01 0.47489923D-01 0.15234982D+05 0.15234982D+05 0.15234982D+05 0.12470537D+01  1  2  2  3  6  5       -3 0.390899160793D-02 0.100000000000D+01
0.322600705072D-06 0.122800720772D-06 -.469760212496D-08 0.293129874468D-05 0.000000000000D+00  6 21 -3 25 23 -3 21 4 0.13033158D-01 0.47489923D-01 0.15234982D+05 0.15234982D+05 0.15234982D+05 0.12470537D+01  1  2  3  3  6  5       -3 0.842749413790D-03 0.100000000000D+01
0.197796455755D-06 0.000000000000D+00 0.000000000000D+00 0.293129874468D-05 0.000000000000D+00  6 21 -3 25 23 -3 21 4 0.13033158D-01 0.47489923D-01 0.15234982D+05 0.15234982D+05 0.15234982D+05 0.12470537D+01  1  2 15  3  6  5       -3 0.516715693786D-03 0.100000000000D+01
-.232685505681D-05 0.000000000000D+00 0.000000000000D+00 0.293129874468D-05 0.000000000000D+00  6 21 -3 25 23 -3 21 4 0.13033158D-01 0.47489923D-01 0.15234982D+05 0.15234982D+05 0.15234982D+05 0.12470537D+01  1  2  4  3  6  5       -3 -.607858477763D-02 0.100000000000D+01
-.236505674857D-05 0.000000000000D+00 0.000000000000D+00 0.293129874468D-05 0.000000000000D+00  6 21 -3 25 23 -3 21 4 0.13033158D-01 0.47489923D-01 0.15234982D+05 0.15234982D+05 0.15234982D+05 0.12470537D+01  1  2  5  3  6  5       -3 -.617838137704D-02 0.100000000000D+01
0.460849951318D-05 0.000000000000D+00 -.000000000000D+00 0.293129874468D-05 0.000000000000D+00  6 21 -3 25 23 -3 21 4 0.13033158D-01 0.47489923D-01 0.15234982D+05 0.15234982D+05 0.15234982D+05 0.12470537D+01  1  2  6  3  6  5       -3 0.120390631580D-01 0.100000000000D+01
0.979187401371D-06 0.000000000000D+00 0.000000000000D+00 0.293129874468D-05 0.141657747044D-05  6 21 -3 25 23 -3 21 4 0.13033158D-01 0.47489923D-01 0.15579624D+05 0.15579624D+05 0.15579624D+05 0.12459498D+01  1  2 11  3  6  5       -3 0.255080483843D-02 0.100000000000D+01
  </mgrwgt>
  </event>
  <event>
  6     66 0.48379648E-03 0.24492332E+02 0.75467711E-02 0.11427168E+00
       21 -1    0    0  503  502 0.00000000E+00 0.00000000E+00 0.74015418E+02 0.74019218E+02 0.75000000E+00 0.0000E+00 0.9000E+01
       -1 -1    0    0    0  501 0.00000000E+00 0.00000000E+00 -.86528294E+03 0.86528300E+03 0.32000000E+00 0.0000E+00 0.9000E+01
       25  1    1    2    0    0 -.12967492E+03 -.93059731E+02 -.25017429E+03 0.32200601E+03 0.12500000E+03 0.0000E+00 0.9000E+01
       23  1    1    2    0    0 0.13971857E+03 0.71615020E+02 -.54655876E+03 0.57592684E+03 0.91188000E+02 0.0000E+00 0.9000E+01
       -1  1    1    2    0  502 0.54567480E+01 -.98542481E+00 0.12086895E+02 0.13301977E+02 0.32000000E+00 0.0000E+00 0.9000E+01
       21  1    1    2  503  501 -.15500399E+02 0.22430136E+02 -.66213640E+01 0.28067389E+02 0.75000000E+00 0.0000E+00 0.9000E+01
#aMCatNLO 2  0  0  1  2 0.37296186D+01 0.00000000D+00  -5  6  0 0.00000000D+00 0.00000000D+00 0.00000000D+00 0.00000000D+00 0.00000000D+00
  <mgrwgt>
 0.2326793294D-02    1    2    0
 0.231266051692532D+03 0.000000000000000D+00 0.000000000000000D+00 0.231266051692532D+03
 0.231266051692532D+03 0.000000000000000D+00 0.000000000000000D+00 -.231266051692532D+03
 0.209817709400494D+03 -.136696992213713D+03 -.828983818599028D+02 0.532941064546905D+02
 0.206234539149839D+03 0.132798955649291D+03 0.816280974073814D+02 -.995927953541586D+02
 0.464798548347304D+02 0.389803656442145D+01 0.127028445252144D+01 0.462986888994681D+02
 0.000000000000000D+00 -.000000000000000D+00 0.000000000000000D+00 0.000000000000000D+00
 0.270911850586846D+03 0.000000000000000D+00 0.000000000000000D+00 0.270911850586846D+03
 0.236403042455199D+03 0.000000000000000D+00 0.000000000000000D+00 -.236403042455199D+03
 0.209621021350567D+03 -.129674960974639D+03 -.930597405190699D+02 0.532941064546905D+02
 0.207084408853714D+03 0.139718532578644D+03 0.716149971298431D+02 -.995927953541586D+02
 0.466295674206006D+02 0.545682745280284D+01 -.985392395417957D+00 0.462986888994681D+02
 0.439798954171639D+02 -.155003990568072D+02 0.224301357846447D+02 0.345088081316467D+02
0.362771244948D-05 0.000000000000D+00 0.000000000000D+00 0.191922678943D-04 0.972646356705D-07  6 21 -1 25 23 -1 21 4 0.11387133D-01 0.13311898D+00 0.43494427D+05 0.43494427D+05 0.43494427D+05 0.11983240D+01  1  2  1  1  6  1       21 0.232679329378D-02 0.100000000000D+01
  </mgrwgt>
  </event>
</LesHouchesEvents>
