<event>
 5    0  0.2464221E+000  0.2542762E+03  0.7546771E-02  0.1110632E+00
         21   -1    0    0  502  501  0.00000000000E+00  0.00000000000E+00  0.74523791217E+03  0.74523791217E+03  0.00000000000E+00 0.  1.
         21   -1    0    0  503  502 -0.00000000000E+00 -0.00000000000E+00 -0.10741270704E+03  0.10741270704E+03  0.00000000000E+00 0.  1.
         25    1    1    2    0    0 -0.19797694565E+03  0.99179091929E+02  0.56059493387E+03  0.61556725316E+03  0.12500000000E+03 0.  0.
         21    1    1    2  503  504  0.23643864307E+02 -0.66503655054E+00  0.11717436864E+02  0.26396456574E+02  0.00000000000E+00 0.  1.
         21    1    1    2  504  501  0.17433308134E+03 -0.98514055378E+02  0.65512834404E+02  0.21068690948E+03  0.00000000000E+00 0.  1.
<mgrwt>
<rscale>  4 0.25427616E+03</rscale>
<asrwt>0</asrwt>
<pdfrwt beam="1">  1       21 0.11465198E+00 0.25427616E+03</pdfrwt>
<pdfrwt beam="2">  1       21 0.16525032E-01 0.25427616E+03</pdfrwt>
<totfact> 0.18732882E+04</totfact>
</mgrwt>
</event>
<event>
 5    0  0.1856407E+000  0.5069989E+03  0.7546771E-02  0.1011968E+00
         21   -1    0    0  502  501  0.00000000000E+00  0.00000000000E+00  0.32589150320E+03  0.32589150320E+03  0.00000000000E+00 0. -1.
         21   -1    0    0  503  502 -0.00000000000E+00 -0.00000000000E+00 -0.20289481526E+04  0.20289481526E+04  0.00000000000E+00 0.  1.
         25    1    1    2    0    0 -0.37558648720E+03  0.31679276077E+03  0.69322772908E+02  0.51171623923E+03  0.12500000000E+03 0.  0.
         21    1    1    2  503  504  0.60732639942E+02 -0.28537529273E+01 -0.19276612595E+03  0.20212713022E+03  0.00000000000E+00 0.  1.
         21    1    1    2  504  501  0.31485384726E+03 -0.31393900785E+03 -0.15796132964E+04  0.16409962864E+04  0.00000000000E+00 0.  1.
<mgrwt>
<rscale>  4 0.50699888E+03</rscale>
<asrwt>0</asrwt>
<pdfrwt beam="1">  1       21 0.50137154E-01 0.50699888E+03</pdfrwt>
<pdfrwt beam="2">  1       21 0.31214587E+00 0.50699888E+03</pdfrwt>
<totfact> 0.81522045E+01</totfact>
</mgrwt>
</event>
<event>
 5    0  0.1856407E+000  0.2583580E+03  0.7546771E-02  0.1108134E+00
         21   -1    0    0  502  501  0.00000000000E+00  0.00000000000E+00  0.30517053916E+03  0.30517053916E+03  0.00000000000E+00 0. -1.
         21   -1    0    0  503  502 -0.00000000000E+00 -0.00000000000E+00 -0.22786931668E+03  0.22786931668E+03  0.00000000000E+00 0.  1.
         25    1    1    2    0    0 -0.51949880366E+02 -0.22005700583E+03  0.14082333697E+03  0.29424494578E+03  0.12500000000E+03 0.  0.
         21    1    1    2  503  504  0.10871454527E+02  0.25268565375E+02 -0.22503673859E+02  0.35540178063E+02  0.00000000000E+00 0.  1.
         21    1    1    2  504  501  0.41078425839E+02  0.19478844045E+03 -0.41018440636E+02  0.20325473199E+03  0.00000000000E+00 0.  1.
<mgrwt>
<rscale>  4 0.25835804E+03</rscale>
<asrwt>0</asrwt>
<pdfrwt beam="1">  1       21 0.46949314E-01 0.25835804E+03</pdfrwt>
<pdfrwt beam="2">  1       21 0.35056818E-01 0.25835804E+03</pdfrwt>
<totfact> 0.33001600E+04</totfact>
</mgrwt>
</event>
<event>
 5    0  0.1856407E+000  0.2419106E+03  0.7546771E-02  0.1118527E+00
         21   -1    0    0  502  501  0.00000000000E+00  0.00000000000E+00  0.48543531169E+03  0.48543531169E+03  0.00000000000E+00 0. -1.
         21   -1    0    0  503  502 -0.00000000000E+00 -0.00000000000E+00 -0.10949644279E+03  0.10949644279E+03  0.00000000000E+00 0. -1.
         25    1    1    2    0    0  0.19822177266E+03  0.60032063527E+02  0.20153279181E+03  0.31485899381E+03  0.12500000000E+03 0.  0.
         21    1    1    2  503  504 -0.13635865720E+03 -0.59851835856E+02  0.85358000479E+02  0.17164473163E+03  0.00000000000E+00 0. -1.
         21    1    1    2  504  501 -0.61863115459E+02 -0.18022767087E+00  0.89048076607E+02  0.10842802905E+03  0.00000000000E+00 0. -1.
<mgrwt>
<rscale>  4 0.24191056E+03</rscale>
<asrwt>0</asrwt>
<pdfrwt beam="1">  1       21 0.74682354E-01 0.24191056E+03</pdfrwt>
<pdfrwt beam="2">  1       21 0.16845607E-01 0.24191056E+03</pdfrwt>
<totfact> 0.49776404E+04</totfact>
</mgrwt>
</event>
<event>
 5    0  0.2181167E+000  0.1882175E+03  0.7546771E-02  0.1160079E+00
         21   -1    0    0  502  501  0.00000000000E+00  0.00000000000E+00  0.87216977368E+03  0.87216977368E+03  0.00000000000E+00 0. -1.
         21   -1    0    0  503  502 -0.00000000000E+00 -0.00000000000E+00 -0.88036900667E+02  0.88036900667E+02  0.00000000000E+00 0. -1.
         25    1    1    2    0    0 -0.10944340452E+03  0.18879605618E+03  0.56197778895E+03  0.61568323422E+03  0.12500000000E+03 0.  0.
         21    1    1    2  503  504  0.43248029518E+02 -0.12265958010E+03  0.34072162628E+02  0.13444953296E+03  0.00000000000E+00 0. -1.
         21    1    1    2  504  501  0.66195374998E+02 -0.66136476082E+02  0.18808292143E+03  0.21007390717E+03  0.00000000000E+00 0. -1.
<mgrwt>
<rscale>  4 0.18821746E+03</rscale>
<asrwt>0</asrwt>
<pdfrwt beam="1">  1       21 0.13417996E+00 0.18821746E+03</pdfrwt>
<pdfrwt beam="2">  1       21 0.13544139E-01 0.18821746E+03</pdfrwt>
<totfact> 0.18889335E+04</totfact>
</mgrwt>
</event>
<event>
 5    0  0.1856407E+000  0.2509923E+03  0.7546771E-02  0.1112679E+00
         21   -1    0    0  502  501  0.00000000000E+00  0.00000000000E+00  0.15526514465E+03  0.15526514465E+03  0.00000000000E+00 0. -1.
         21   -1    0    0  503  502 -0.00000000000E+00 -0.00000000000E+00 -0.38127402879E+03  0.38127402879E+03  0.00000000000E+00 0. -1.
         25    1    1    2    0    0 -0.20310669149E+03  0.78229139725E+02 -0.17898345472E+03  0.30827293668E+03  0.12500000000E+03 0.  0.
         21    1    1    2  503  504  0.12831092402E+03 -0.47169401259E+02 -0.44731892851E+01  0.13677958568E+03  0.00000000000E+00 0. -1.
         21    1    1    2  504  501  0.74795767468E+02 -0.31059738466E+02 -0.42552240138E+02  0.91486651078E+02  0.00000000000E+00 0. -1.
<mgrwt>
<rscale>  4 0.25099228E+03</rscale>
<asrwt>0</asrwt>
<pdfrwt beam="1">  1       21 0.23886945E-01 0.25099228E+03</pdfrwt>
<pdfrwt beam="2">  1       21 0.58657543E-01 0.25099228E+03</pdfrwt>
<totfact> 0.43741479E+04</totfact>
</mgrwt>
</event>
<event>
 5    0  0.1856407E+000  0.3435239E+03  0.7546771E-02  0.1065305E+00
         21   -1    0    0  502  501  0.00000000000E+00  0.00000000000E+00  0.16360786376E+03  0.16360786376E+03  0.00000000000E+00 0.  1.
         21   -1    0    0  503  502 -0.00000000000E+00 -0.00000000000E+00 -0.12692700220E+04  0.12692700220E+04  0.00000000000E+00 0.  1.
         25    1    1    2    0    0 -0.20913410401E+03  0.23214487676E+03 -0.10310977686E+03  0.35197292985E+03  0.12500000000E+03 0.  0.
         21    1    1    2  503  504  0.16539053034E+03 -0.27707208912E+03 -0.93317276297E+03  0.98738765217E+03  0.00000000000E+00 0.  1.
         21    1    1    2  504  501  0.43743573667E+02  0.44927212360E+02 -0.69379618418E+02  0.93517303743E+02  0.00000000000E+00 0. -1.
<mgrwt>
<rscale>  4 0.34352389E+03</rscale>
<asrwt>0</asrwt>
<pdfrwt beam="1">  1       21 0.25170442E-01 0.34352389E+03</pdfrwt>
<pdfrwt beam="2">  1       21 0.19527230E+00 0.34352389E+03</pdfrwt>
<totfact> 0.19183642E+03</totfact>
</mgrwt>
</event>
<event>
 5    0  0.1856407E+000  0.3209793E+03  0.7546771E-02  0.1075199E+00
         21   -1    0    0  502  501  0.00000000000E+00  0.00000000000E+00  0.14869629628E+04  0.14869629628E+04  0.00000000000E+00 0.  1.
         21   -1    0    0  503  502 -0.00000000000E+00 -0.00000000000E+00 -0.31901779547E+03  0.31901779547E+03  0.00000000000E+00 0. -1.
         25    1    1    2    0    0  0.21461671844E+03  0.20332820763E+03  0.13887525829E+04  0.14253636141E+04  0.12500000000E+03 0.  0.
         21    1    1    2  503  504 -0.77059014820E+02 -0.19516338773E+02 -0.44121215135E+02  0.90915679995E+02  0.00000000000E+00 0. -1.
         21    1    1    2  504  501 -0.13755770362E+03 -0.18381186886E+03 -0.17668620040E+03  0.28970146422E+03  0.00000000000E+00 0. -1.
<mgrwt>
<rscale>  4 0.32097928E+03</rscale>
<asrwt>0</asrwt>
<pdfrwt beam="1">  1       21 0.22876353E+00 0.32097928E+03</pdfrwt>
<pdfrwt beam="2">  1       21 0.49079662E-01 0.32097928E+03</pdfrwt>
<totfact> 0.30925160E+02</totfact>
</mgrwt>
</event>
<event>
 5    0  0.1856407E+000  0.3561683E+03  0.7546771E-02  0.1060111E+00
         21   -1    0    0  502  501  0.00000000000E+00  0.00000000000E+00  0.99987302862E+02  0.99987302862E+02  0.00000000000E+00 0. -1.
         21   -1    0    0  503  502 -0.00000000000E+00 -0.00000000000E+00 -0.16221705632E+04  0.16221705632E+04  0.00000000000E+00 0. -1.
         25    1    1    2    0    0  0.38636485723E+02 -0.34017837739E+03 -0.38628553707E+03  0.53108909104E+03  0.12500000000E+03 0.  0.
         21    1    1    2  503  504 -0.20619307091E+02  0.31495737549E+03 -0.91283434806E+03  0.96586223200E+03  0.00000000000E+00 0. -1.
         21    1    1    2  504  501 -0.18017178633E+02  0.25221001892E+02 -0.22306337520E+03  0.22520654302E+03  0.00000000000E+00 0. -1.
<mgrwt>
<rscale>  4 0.35616833E+03</rscale>
<asrwt>0</asrwt>
<pdfrwt beam="1">  1       21 0.15382664E-01 0.35616833E+03</pdfrwt>
<pdfrwt beam="2">  1       21 0.24956467E+00 0.35616833E+03</pdfrwt>
<totfact> 0.21925844E+03</totfact>
</mgrwt>
</event>
