<event>
 5    0  0.1856407E+000  0.2652654E+03  0.7546771E-02  0.1104020E+00
         21   -1    0    0  502  501  0.00000000000E+00  0.00000000000E+00  0.13402753117E+03  0.13402753117E+03  0.00000000000E+00 0.  1.
         21   -1    0    0  503  502 -0.00000000000E+00 -0.00000000000E+00 -0.92084680976E+03  0.92084680976E+03  0.00000000000E+00 0.  1.
         25    1    1    2    0    0  0.82308296526E+02  0.21901159758E+03 -0.37665284502E+02  0.26792612640E+03  0.12500000000E+03 0.  0.
         21    1    1    2  503  504 -0.20568263593E+02 -0.43381636428E+02 -0.89949826817E+02  0.10196073357E+03  0.00000000000E+00 0.  1.
         21    1    1    2  504  501 -0.61740032933E+02 -0.17562996115E+03 -0.65920416727E+03  0.68498748096E+03  0.00000000000E+00 0.  1.
<mgrwt>
<rscale>  4 0.26526541E+03</rscale>
<asrwt>0</asrwt>
<pdfrwt beam="1">  1       21 0.20619621E-01 0.26526541E+03</pdfrwt>
<pdfrwt beam="2">  1       21 0.14166873E+00 0.26526541E+03</pdfrwt>
<totfact> 0.71984233E+03</totfact>
</mgrwt>
</event>
<event>
 5    0  0.1856407E+000  0.4026969E+03  0.7546771E-02  0.1042850E+00
         21   -1    0    0  502  501  0.00000000000E+00  0.00000000000E+00  0.11897106810E+04  0.11897106810E+04  0.00000000000E+00 0. -1.
         21   -1    0    0  503  502 -0.00000000000E+00 -0.00000000000E+00 -0.16378885763E+03  0.16378885763E+03  0.00000000000E+00 0. -1.
         25    1    1    2    0    0 -0.11775097075E+03 -0.36424508695E+03  0.23087970525E+03  0.46418769133E+03  0.12500000000E+03 0.  0.
         21    1    1    2  503  504 -0.29670086624E+01  0.42166735511E+02  0.17727451933E+03  0.18224459368E+03  0.00000000000E+00 0.  1.
         21    1    1    2  504  501  0.12071797941E+03  0.32207835144E+03  0.61776759875E+03  0.70706725358E+03  0.00000000000E+00 0. -1.
<mgrwt>
<rscale>  4 0.40269688E+03</rscale>
<asrwt>0</asrwt>
<pdfrwt beam="1">  1       21 0.18303241E+00 0.40269688E+03</pdfrwt>
<pdfrwt beam="2">  1       21 0.25198287E-01 0.40269688E+03</pdfrwt>
<totfact> 0.22496030E+03</totfact>
</mgrwt>
</event>
<event>
 5    0  0.1856407E+000  0.2871050E+03  0.7546771E-02  0.1091870E+00
         21   -1    0    0  502  501  0.00000000000E+00  0.00000000000E+00  0.10581559576E+04  0.10581559576E+04  0.00000000000E+00 0. -1.
         21   -1    0    0  503  502 -0.00000000000E+00 -0.00000000000E+00 -0.15406182576E+03  0.15406182576E+03  0.00000000000E+00 0. -1.
         25    1    1    2    0    0 -0.35496391142E+02 -0.25601621510E+03  0.90561975342E+03  0.95004022755E+03  0.12500000000E+03 0.  0.
         21    1    1    2  503  504 -0.12652600942E+01  0.28165615058E+02 -0.13103383458E+02  0.31090214099E+02  0.00000000000E+00 0. -1.
         21    1    1    2  504  501  0.36761651236E+02  0.22785060004E+03  0.11577761895E+02  0.23108734173E+03  0.00000000000E+00 0. -1.
<mgrwt>
<rscale>  4 0.28710503E+03</rscale>
<asrwt>0</asrwt>
<pdfrwt beam="1">  1       21 0.16279322E+00 0.28710503E+03</pdfrwt>
<pdfrwt beam="2">  1       21 0.23701820E-01 0.28710503E+03</pdfrwt>
<totfact> 0.37535719E+03</totfact>
</mgrwt>
</event>
<event>
 5    0  0.1856407E+000  0.3267184E+03  0.7546771E-02  0.1072598E+00
         21   -1    0    0  502  501  0.00000000000E+00  0.00000000000E+00  0.39803461443E+03  0.39803461443E+03  0.00000000000E+00 0.  1.
         21   -1    0    0  503  502 -0.00000000000E+00 -0.00000000000E+00 -0.56586741292E+03  0.56586741292E+03  0.00000000000E+00 0. -1.
         25    1    1    2    0    0  0.23200108326E+03  0.19940776329E+03  0.26689818803E+03  0.42479124458E+03  0.12500000000E+03 0.  0.
         21    1    1    2  503  504 -0.24686304123E+02 -0.14471592136E+02 -0.76473569474E+01  0.29619632991E+02  0.00000000000E+00 0. -1.
         21    1    1    2  504  501 -0.20731477914E+03 -0.18493617116E+03 -0.42708362958E+03  0.50949114978E+03  0.00000000000E+00 0. -1.
<mgrwt>
<rscale>  4 0.32671838E+03</rscale>
<asrwt>0</asrwt>
<pdfrwt beam="1">  1       21 0.61236095E-01 0.32671838E+03</pdfrwt>
<pdfrwt beam="2">  1       21 0.87056525E-01 0.32671838E+03</pdfrwt>
<totfact> 0.25714503E+03</totfact>
</mgrwt>
</event>
<event>
 5    0  0.1856407E+000  0.4114974E+03  0.7546771E-02  0.1039870E+00
         21   -1    0    0  502  501  0.00000000000E+00  0.00000000000E+00  0.31159826045E+03  0.31159826045E+03  0.00000000000E+00 0.  1.
         21   -1    0    0  503  502 -0.00000000000E+00 -0.00000000000E+00 -0.70936792504E+03  0.70936792504E+03  0.00000000000E+00 0.  1.
         25    1    1    2    0    0 -0.33214779065E+01 -0.39203835946E+03  0.59533346836E+02  0.41578158556E+03  0.12500000000E+03 0.  0.
         21    1    1    2  503  504 -0.71931335146E+01  0.36800369381E+03 -0.44047158741E+03  0.57401539974E+03  0.00000000000E+00 0.  1.
         21    1    1    2  504  501  0.10514611421E+02  0.24034665647E+02 -0.16831424012E+02  0.31169200188E+02  0.00000000000E+00 0.  1.
<mgrwt>
<rscale>  4 0.41149740E+03</rscale>
<asrwt>0</asrwt>
<pdfrwt beam="1">  1       21 0.47938194E-01 0.41149740E+03</pdfrwt>
<pdfrwt beam="2">  1       21 0.10913353E+00 0.41149740E+03</pdfrwt>
<totfact> 0.24301910E+03</totfact>
</mgrwt>
</event>
<event>
 5    0  0.1856407E+000  0.3049382E+03  0.7546771E-02  0.1082798E+00
         21   -1    0    0  502  501  0.00000000000E+00  0.00000000000E+00  0.18560725478E+03  0.18560725478E+03  0.00000000000E+00 0. -1.
         21   -1    0    0  503  502 -0.00000000000E+00 -0.00000000000E+00 -0.93773652583E+03  0.93773652583E+03  0.00000000000E+00 0.  1.
         25    1    1    2    0    0 -0.24671186892E+03 -0.99704216517E+02  0.58458606407E+00  0.29399492988E+03  0.12500000000E+03 0.  0.
         21    1    1    2  503  504  0.27389422975E+03  0.62043720432E+02 -0.71916751823E+03  0.77205530347E+03  0.00000000000E+00 0.  1.
         21    1    1    2  504  501 -0.27182360829E+02  0.37660496084E+02 -0.33546338879E+02  0.57293547261E+02  0.00000000000E+00 0. -1.
<mgrwt>
<rscale>  4 0.30493824E+03</rscale>
<asrwt>0</asrwt>
<pdfrwt beam="1">  1       21 0.28554963E-01 0.30493824E+03</pdfrwt>
<pdfrwt beam="2">  1       21 0.14426715E+00 0.30493824E+03</pdfrwt>
<totfact> 0.35883003E+03</totfact>
</mgrwt>
</event>
<event>
 5    0  0.1856407E+000  0.3302033E+03  0.7546771E-02  0.1071047E+00
         21   -1    0    0  502  501  0.00000000000E+00  0.00000000000E+00  0.82342861488E+03  0.82342861488E+03  0.00000000000E+00 0. -1.
         21   -1    0    0  503  502 -0.00000000000E+00 -0.00000000000E+00 -0.65929028177E+03  0.65929028177E+03  0.00000000000E+00 0.  1.
         25    1    1    2    0    0 -0.90508448942E+02  0.29192022795E+03  0.75020598201E+03  0.81966042619E+03  0.12500000000E+03 0.  0.
         21    1    1    2  503  504  0.37093582306E+02 -0.61109393605E+02 -0.16706003704E+03  0.18171226654E+03  0.00000000000E+00 0.  1.
         21    1    1    2  504  501  0.53414866636E+02 -0.23081083434E+03 -0.41900761186E+03  0.48134620392E+03  0.00000000000E+00 0.  1.
<mgrwt>
<rscale>  4 0.33020327E+03</rscale>
<asrwt>0</asrwt>
<pdfrwt beam="1">  1       21 0.12668133E+00 0.33020327E+03</pdfrwt>
<pdfrwt beam="2">  1       21 0.10142927E+00 0.33020327E+03</pdfrwt>
<totfact> 0.32383529E+02</totfact>
</mgrwt>
</event>
<event>
 5    0  0.1994708E+000  0.2568968E+03  0.7546771E-02  0.1109022E+00
         21   -1    0    0  502  501  0.00000000000E+00  0.00000000000E+00  0.19173512797E+03  0.19173512797E+03  0.00000000000E+00 0. -1.
         21   -1    0    0  503  502 -0.00000000000E+00 -0.00000000000E+00 -0.59725792937E+03  0.59725792937E+03  0.00000000000E+00 0. -1.
         25    1    1    2    0    0 -0.15682065836E+03  0.19825939002E+03  0.10665674335E+02  0.28220251811E+03  0.12500000000E+03 0.  0.
         21    1    1    2  503  504  0.61621698969E+02 -0.17025071452E+03 -0.20538602768E+03  0.27379912334E+03  0.00000000000E+00 0. -1.
         21    1    1    2  504  501  0.95198959395E+02 -0.28008675500E+02 -0.21080244805E+03  0.23299141588E+03  0.00000000000E+00 0. -1.
<mgrwt>
<rscale>  4 0.25689683E+03</rscale>
<asrwt>0</asrwt>
<pdfrwt beam="1">  1       21 0.29497712E-01 0.25689683E+03</pdfrwt>
<pdfrwt beam="2">  1       21 0.91885835E-01 0.25689683E+03</pdfrwt>
<totfact> 0.10597206E+04</totfact>
</mgrwt>
</event>
<event>
 5    0  0.1856407E+000  0.2607915E+03  0.7546771E-02  0.1106669E+00
         21   -1    0    0  502  501  0.00000000000E+00  0.00000000000E+00  0.20481300359E+03  0.20481300359E+03  0.00000000000E+00 0.  1.
         21   -1    0    0  503  502 -0.00000000000E+00 -0.00000000000E+00 -0.32566384824E+03  0.32566384824E+03  0.00000000000E+00 0.  1.
         25    1    1    2    0    0 -0.70396207350E+02 -0.21521463019E+03 -0.59779577401E+02  0.26546480168E+03  0.12500000000E+03 0.  0.
         21    1    1    2  503  504  0.48228011881E+02  0.22650756899E+03 -0.63166596569E+02  0.24004507673E+03  0.00000000000E+00 0.  1.
         21    1    1    2  504  501  0.22168195469E+02 -0.11292938804E+02  0.20953293196E+01  0.24966973427E+02  0.00000000000E+00 0.  1.
<mgrwt>
<rscale>  4 0.26079155E+03</rscale>
<asrwt>0</asrwt>
<pdfrwt beam="1">  1       21 0.31509693E-01 0.26079155E+03</pdfrwt>
<pdfrwt beam="2">  1       21 0.50102131E-01 0.26079155E+03</pdfrwt>
<totfact> 0.35572182E+04</totfact>
</mgrwt>
</event>
<event>
 5    0  0.1856407E+000  0.3191799E+03  0.7546771E-02  0.1076027E+00
         21   -1    0    0  502  501  0.00000000000E+00  0.00000000000E+00  0.12571174975E+03  0.12571174975E+03  0.00000000000E+00 0.  1.
         21   -1    0    0  503  502 -0.00000000000E+00 -0.00000000000E+00 -0.12380052954E+04  0.12380052954E+04  0.00000000000E+00 0. -1.
         25    1    1    2    0    0 -0.26034512233E+03 -0.13590899298E+03 -0.14414495192E+03  0.35021936591E+03  0.12500000000E+03 0.  0.
         21    1    1    2  503  504  0.85795762911E+02  0.61532800098E+02 -0.43380202534E+03  0.44646544728E+03  0.00000000000E+00 0. -1.
         21    1    1    2  504  501  0.17454935941E+03  0.74376192887E+02 -0.53434656834E+03  0.56703223192E+03  0.00000000000E+00 0. -1.
<mgrwt>
<rscale>  4 0.31917994E+03</rscale>
<asrwt>0</asrwt>
<pdfrwt beam="1">  1       21 0.19340269E-01 0.31917994E+03</pdfrwt>
<pdfrwt beam="2">  1       21 0.19046235E+00 0.31917994E+03</pdfrwt>
<totfact> 0.34656507E+03</totfact>
</mgrwt>
</event>
