<event>
 5    0  0.1943430E+001  0.2551286E+03  0.7546771E-02  0.1110106E+00
         21   -1    0    0  503  501  0.00000000000E+00  0.00000000000E+00  0.14404490429E+04  0.14404490429E+04  0.00000000000E+00 0.  1.
         21   -1    0    0  504  502 -0.00000000000E+00 -0.00000000000E+00 -0.86657961950E+02  0.86657961950E+02  0.00000000000E+00 0. -1.
         25    1    1    2    0    0  0.42880913440E+02 -0.22974676185E+03  0.91912093415E+03  0.95657233857E+03  0.12500000000E+03 0.  0.
         21    1    1    2  503  502  0.92439771409E+02  0.20311439452E+03  0.20719802784E+03  0.30451862233E+03  0.00000000000E+00 0. -1.
         21    1    1    2  504  501 -0.13532068485E+03  0.26632367329E+02  0.22747211893E+03  0.26601604393E+03  0.00000000000E+00 0. -1.
<mgrwt>
<rscale>  4 0.25512855E+03</rscale>
<asrwt>0</asrwt>
<pdfrwt beam="1">  1       21 0.22160753E+00 0.25512855E+03</pdfrwt>
<pdfrwt beam="2">  1       21 0.13331995E-01 0.25512855E+03</pdfrwt>
<totfact> 0.45248646E+03</totfact>
</mgrwt>
</event>
<event>
 5    0  0.1943430E+001  0.2687492E+03  0.7546771E-02  0.1101998E+00
         21   -1    0    0  504  501  0.00000000000E+00  0.00000000000E+00  0.11204647915E+03  0.11204647915E+03  0.00000000000E+00 0.  1.
         21   -1    0    0  501  502 -0.00000000000E+00 -0.00000000000E+00 -0.72226167313E+03  0.72226167313E+03  0.00000000000E+00 0.  1.
         25    1    1    2    0    0 -0.12737852183E+03 -0.19426790231E+03 -0.22718896134E+03  0.34814527118E+03  0.12500000000E+03 0.  0.
         21    1    1    2  503  502  0.25504481617E+02 -0.28967973276E+02 -0.12176647761E+03  0.12773682761E+03  0.00000000000E+00 0.  1.
         21    1    1    2  504  503  0.10187404022E+03  0.22323587558E+03 -0.26125975503E+03  0.35842605348E+03  0.00000000000E+00 0.  1.
<mgrwt>
<rscale>  4 0.26874917E+03</rscale>
<asrwt>0</asrwt>
<pdfrwt beam="1">  1       21 0.17237921E-01 0.26874917E+03</pdfrwt>
<pdfrwt beam="2">  1       21 0.11111718E+00 0.26874917E+03</pdfrwt>
<totfact> 0.18574937E+04</totfact>
</mgrwt>
</event>
<event>
 5    0  0.1943430E+001  0.3966701E+03  0.7546771E-02  0.1044939E+00
         21   -1    0    0  503  501  0.00000000000E+00  0.00000000000E+00  0.25040603543E+03  0.25040603543E+03  0.00000000000E+00 0.  1.
         21   -1    0    0  504  502 -0.00000000000E+00 -0.00000000000E+00 -0.99962818054E+03  0.99962818054E+03  0.00000000000E+00 0.  1.
         25    1    1    2    0    0 -0.20859005171E+03 -0.31822064775E+03 -0.72182760094E+02  0.40695152191E+03  0.12500000000E+03 0.  0.
         21    1    1    2  503  502  0.10667508792E+03 -0.47844608588E+02 -0.21619293375E+03  0.24578052314E+03  0.00000000000E+00 0.  1.
         21    1    1    2  504  501  0.10191496379E+03  0.36606525634E+03 -0.46084645127E+03  0.59730217092E+03  0.00000000000E+00 0.  1.
<mgrwt>
<rscale>  4 0.39667012E+03</rscale>
<asrwt>0</asrwt>
<pdfrwt beam="1">  1       21 0.38524006E-01 0.39667012E+03</pdfrwt>
<pdfrwt beam="2">  1       21 0.15378895E+00 0.39667012E+03</pdfrwt>
<totfact> 0.15844110E+03</totfact>
</mgrwt>
</event>
<event>
 5    0  0.1943430E+001  0.2585069E+03  0.7546771E-02  0.1108044E+00
         21   -1    0    0  503  501  0.00000000000E+00  0.00000000000E+00  0.44484374002E+03  0.44484374002E+03  0.00000000000E+00 0. -1.
         21   -1    0    0  504  502 -0.00000000000E+00 -0.00000000000E+00 -0.30948284054E+03  0.30948284054E+03  0.00000000000E+00 0. -1.
         25    1    1    2    0    0 -0.19246585424E+03  0.63200838945E+02  0.56033008029E+02  0.24454477930E+03  0.12500000000E+03 0.  0.
         21    1    1    2  503  502 -0.33733950396E+02  0.12388453618E+02 -0.16469337642E+03  0.16856856596E+03  0.00000000000E+00 0. -1.
         21    1    1    2  504  501  0.22619980464E+03 -0.75589292563E+02  0.24402126787E+03  0.34121323530E+03  0.00000000000E+00 0. -1.
<mgrwt>
<rscale>  4 0.25850686E+03</rscale>
<asrwt>0</asrwt>
<pdfrwt beam="1">  1       21 0.68437499E-01 0.25850686E+03</pdfrwt>
<pdfrwt beam="2">  1       21 0.47612745E-01 0.25850686E+03</pdfrwt>
<totfact> 0.78754211E+03</totfact>
</mgrwt>
</event>
<event>
 5    0  0.1943430E+001  0.2472239E+03  0.7546771E-02  0.1115072E+00
         21   -1    0    0  503  501  0.00000000000E+00  0.00000000000E+00  0.18781542514E+04  0.18781542514E+04  0.00000000000E+00 0.  1.
         21   -1    0    0  504  502 -0.00000000000E+00 -0.00000000000E+00 -0.92302063879E+02  0.92302063879E+02  0.00000000000E+00 0. -1.
         25    1    1    2    0    0  0.23118194028E+03 -0.84364256571E+01  0.14342268608E+04  0.14581316645E+04  0.12500000000E+03 0.  0.
         21    1    1    2  503  502 -0.19541658543E+03 -0.86257654107E+02  0.89986805489E+02  0.23178794170E+03  0.00000000000E+00 0. -1.
         21    1    1    2  504  501 -0.35765354848E+02  0.94694079764E+02  0.26163852129E+03  0.28053670914E+03  0.00000000000E+00 0.  1.
<mgrwt>
<rscale>  4 0.24722391E+03</rscale>
<asrwt>0</asrwt>
<pdfrwt beam="1">  1       21 0.28894678E+00 0.24722391E+03</pdfrwt>
<pdfrwt beam="2">  1       21 0.14200319E-01 0.24722391E+03</pdfrwt>
<totfact> 0.16107039E+03</totfact>
</mgrwt>
</event>
<event>
 5    0  0.1943430E+001  0.2993422E+03  0.7546771E-02  0.1085570E+00
         21   -1    0    0  504  501  0.00000000000E+00  0.00000000000E+00  0.66719919266E+03  0.66719919266E+03  0.00000000000E+00 0. -1.
         21   -1    0    0  501  502 -0.00000000000E+00 -0.00000000000E+00 -0.38884822000E+03  0.38884822000E+03  0.00000000000E+00 0. -1.
         25    1    1    2    0    0 -0.19300098689E+03 -0.20618071955E+03  0.43313605305E+03  0.53196965186E+03  0.12500000000E+03 0.  0.
         21    1    1    2  503  502  0.23690487749E+02  0.17401425877E+02 -0.25110469226E+03  0.25281933334E+03  0.00000000000E+00 0. -1.
         21    1    1    2  504  503  0.16931049914E+03  0.18877929367E+03  0.96319611882E+02  0.27125842746E+03  0.00000000000E+00 0. -1.
<mgrwt>
<rscale>  4 0.29934222E+03</rscale>
<asrwt>0</asrwt>
<pdfrwt beam="1">  1       21 0.10264603E+00 0.29934222E+03</pdfrwt>
<pdfrwt beam="2">  1       21 0.59822803E-01 0.29934222E+03</pdfrwt>
<totfact> 0.18579874E+03</totfact>
</mgrwt>
</event>
<event>
 5    0  0.1943430E+001  0.2487945E+03  0.7546771E-02  0.1114069E+00
         21   -1    0    0  503  501  0.00000000000E+00  0.00000000000E+00  0.17898832482E+04  0.17898832482E+04  0.00000000000E+00 0. -1.
         21   -1    0    0  504  502 -0.00000000000E+00 -0.00000000000E+00 -0.59971945055E+02  0.59971945055E+02  0.00000000000E+00 0. -1.
         25    1    1    2    0    0  0.14575366090E+03  0.15567286229E+03  0.14329255668E+04  0.14540903856E+04  0.12500000000E+03 0.  0.
         21    1    1    2  503  502 -0.18090218784E+02  0.29529142787E+02  0.58139231637E+02  0.67671238682E+02  0.00000000000E+00 0. -1.
         21    1    1    2  504  501 -0.12766344212E+03 -0.18520200508E+03  0.23884650469E+03  0.32809356889E+03  0.00000000000E+00 0. -1.
<mgrwt>
<rscale>  4 0.24879454E+03</rscale>
<asrwt>0</asrwt>
<pdfrwt beam="1">  1       21 0.27536661E+00 0.24879454E+03</pdfrwt>
<pdfrwt beam="2">  1       21 0.92264545E-02 0.24879454E+03</pdfrwt>
<totfact> 0.41855982E+03</totfact>
</mgrwt>
</event>
<event>
 5    0  0.1943430E+001  0.3836888E+03  0.7546771E-02  0.1049579E+00
         21   -1    0    0  503  501  0.00000000000E+00  0.00000000000E+00  0.18207938828E+04  0.18207938828E+04  0.00000000000E+00 0. -1.
         21   -1    0    0  504  502 -0.00000000000E+00 -0.00000000000E+00 -0.14161517598E+03  0.14161517598E+03  0.00000000000E+00 0. -1.
         25    1    1    2    0    0 -0.18371569081E+03 -0.31411851251E+03  0.14559455669E+04  0.15059297423E+04  0.12500000000E+03 0.  0.
         21    1    1    2  503  502  0.20909760258E+03  0.29231349106E+03  0.22310202132E+03  0.42301713485E+03  0.00000000000E+00 0. -1.
         21    1    1    2  504  501 -0.25381911774E+02  0.21805021449E+02  0.13111856077E+00  0.33462181605E+02  0.00000000000E+00 0.  1.
<mgrwt>
<rscale>  4 0.38368880E+03</rscale>
<asrwt>0</asrwt>
<pdfrwt beam="1">  1       21 0.28012212E+00 0.38368880E+03</pdfrwt>
<pdfrwt beam="2">  1       21 0.21786951E-01 0.38368880E+03</pdfrwt>
<totfact> 0.73352117E+02</totfact>
</mgrwt>
</event>
<event>
 5    0  0.1943430E+001  0.2926855E+03  0.7546771E-02  0.1088955E+00
         21   -1    0    0  503  501  0.00000000000E+00  0.00000000000E+00  0.14227535681E+03  0.14227535681E+03  0.00000000000E+00 0.  1.
         21   -1    0    0  504  502 -0.00000000000E+00 -0.00000000000E+00 -0.85738077072E+03  0.85738077072E+03  0.00000000000E+00 0.  1.
         25    1    1    2    0    0 -0.23275094506E+03  0.15216452341E+03 -0.17590830178E+03  0.35198831692E+03  0.12500000000E+03 0.  0.
         21    1    1    2  503  502  0.42541370354E+02  0.11058522470E+02 -0.29319670003E+03  0.29647320962E+03  0.00000000000E+00 0.  1.
         21    1    1    2  504  501  0.19020957471E+03 -0.16322304588E+03 -0.24600041210E+03  0.35119460100E+03  0.00000000000E+00 0.  1.
<mgrwt>
<rscale>  4 0.29268548E+03</rscale>
<asrwt>0</asrwt>
<pdfrwt beam="1">  1       21 0.21888516E-01 0.29268548E+03</pdfrwt>
<pdfrwt beam="2">  1       21 0.13190474E+00 0.29268548E+03</pdfrwt>
<totfact> 0.76210322E+03</totfact>
</mgrwt>
</event>
<event>
 5    0  0.1943430E+001  0.2441593E+03  0.7546771E-02  0.1117053E+00
         21   -1    0    0  504  501  0.00000000000E+00  0.00000000000E+00  0.51569497189E+03  0.51569497189E+03  0.00000000000E+00 0.  1.
         21   -1    0    0  503  502 -0.00000000000E+00 -0.00000000000E+00 -0.42122728705E+03  0.42122728705E+03  0.00000000000E+00 0.  1.
         25    1    1    2    0    0  0.18755861920E+03 -0.90236193804E+02  0.42768358003E+03  0.49179167433E+03  0.12500000000E+03 0.  0.
         21    1    1    2  503  501 -0.18493479193E+03  0.13939660820E+03 -0.31840944467E+03  0.39372181308E+03  0.00000000000E+00 0.  1.
         21    1    1    2  504  502 -0.26238272705E+01 -0.49160414400E+02 -0.14806450524E+02  0.51408771534E+02  0.00000000000E+00 0. -1.
<mgrwt>
<rscale>  4 0.24415933E+03</rscale>
<asrwt>0</asrwt>
<pdfrwt beam="1">  1       21 0.79337688E-01 0.24415933E+03</pdfrwt>
<pdfrwt beam="2">  1       21 0.64804198E-01 0.24415933E+03</pdfrwt>
<totfact> 0.29542265E+03</totfact>
</mgrwt>
</event>
<event>
 5    0  0.1943430E+001  0.2398981E+03  0.7546771E-02  0.1119861E+00
         21   -1    0    0  504  501  0.00000000000E+00  0.00000000000E+00  0.27548774058E+03  0.27548774058E+03  0.00000000000E+00 0.  1.
         21   -1    0    0  501  502 -0.00000000000E+00 -0.00000000000E+00 -0.32950932723E+03  0.32950932723E+03  0.00000000000E+00 0.  1.
         25    1    1    2    0    0 -0.19736187581E+03 -0.62727260576E+02  0.16561279038E+03  0.29315356996E+03  0.12500000000E+03 0.  0.
         21    1    1    2  503  502  0.17199978208E+02 -0.17152081264E+02 -0.24972283063E+02  0.34837452022E+02  0.00000000000E+00 0. -1.
         21    1    1    2  504  503  0.18016189760E+03  0.79879341841E+02 -0.19466209396E+03  0.27700604583E+03  0.00000000000E+00 0.  1.
<mgrwt>
<rscale>  4 0.23989806E+03</rscale>
<asrwt>0</asrwt>
<pdfrwt beam="1">  1       21 0.42382729E-01 0.23989806E+03</pdfrwt>
<pdfrwt beam="2">  1       21 0.50693743E-01 0.23989806E+03</pdfrwt>
<totfact> 0.19312483E+04</totfact>
</mgrwt>
</event>
<event>
 5    0  0.1943430E+001  0.4153557E+03  0.7546771E-02  0.1038589E+00
         21   -1    0    0  504  501  0.00000000000E+00  0.00000000000E+00  0.42583640455E+03  0.42583640455E+03  0.00000000000E+00 0.  1.
         21   -1    0    0  501  502 -0.00000000000E+00 -0.00000000000E+00 -0.41751285879E+03  0.41751285879E+03  0.00000000000E+00 0.  1.
         25    1    1    2    0    0  0.33444147234E+01  0.40275274640E+03  0.41275546059E+02  0.42373297080E+03  0.12500000000E+03 0.  0.
         21    1    1    2  503  502  0.24455520176E+02 -0.14468165691E+02 -0.80931500045E+01  0.29544870325E+02  0.00000000000E+00 0.  1.
         21    1    1    2  504  503 -0.27799934899E+02 -0.38828458071E+03 -0.24858850296E+02  0.39007142222E+03  0.00000000000E+00 0.  1.
<mgrwt>
<rscale>  4 0.41535572E+03</rscale>
<asrwt>0</asrwt>
<pdfrwt beam="1">  1       21 0.65513293E-01 0.41535572E+03</pdfrwt>
<pdfrwt beam="2">  1       21 0.64232747E-01 0.41535572E+03</pdfrwt>
<totfact> 0.42534656E+03</totfact>
</mgrwt>
</event>
<event>
 5    0  0.1943430E+001  0.2401534E+03  0.7546771E-02  0.1119691E+00
         21   -1    0    0  503  501  0.00000000000E+00  0.00000000000E+00  0.11960645224E+04  0.11960645224E+04  0.00000000000E+00 0.  1.
         21   -1    0    0  504  502 -0.00000000000E+00 -0.00000000000E+00 -0.36147409514E+03  0.36147409514E+03  0.00000000000E+00 0. -1.
         25    1    1    2    0    0 -0.18943696659E+03 -0.78500288539E+02  0.11510632390E+04  0.11758487317E+04  0.12500000000E+03 0.  0.
         21    1    1    2  503  502  0.14609219675E+03  0.83753916961E+02 -0.26737956440E+03  0.31598968340E+03  0.00000000000E+00 0. -1.
         21    1    1    2  504  501  0.43344769836E+02 -0.52536284217E+01 -0.49093247280E+02  0.65700202528E+02  0.00000000000E+00 0. -1.
<mgrwt>
<rscale>  4 0.24015341E+03</rscale>
<asrwt>0</asrwt>
<pdfrwt beam="1">  1       21 0.18400992E+00 0.24015341E+03</pdfrwt>
<pdfrwt beam="2">  1       21 0.55611400E-01 0.24015341E+03</pdfrwt>
<totfact> 0.49482273E+02</totfact>
</mgrwt>
</event>
