<event>
 5    0  0.1856407E+000  0.2422719E+03  0.7546771E-02  0.1118289E+00
         21   -1    0    0  502  501  0.00000000000E+00  0.00000000000E+00  0.13453045960E+03  0.13453045960E+03  0.00000000000E+00 0.  1.
         21   -1    0    0  503  502 -0.00000000000E+00 -0.00000000000E+00 -0.55110111833E+03  0.55110111833E+03  0.00000000000E+00 0. -1.
         25    1    1    2    0    0 -0.20755859470E+03  0.21857335786E+02 -0.53374641685E+02  0.24906257394E+03  0.12500000000E+03 0.  0.
         21    1    1    2  503  504  0.20029298189E+03 -0.50294528074E+02 -0.27696668172E+03  0.34548134672E+03  0.00000000000E+00 0. -1.
         21    1    1    2  504  501  0.72656128182E+01  0.28437192288E+02 -0.86229335334E+02  0.91087657270E+02  0.00000000000E+00 0.  1.
<mgrwt>
<rscale>  4 0.24227190E+03</rscale>
<asrwt>0</asrwt>
<pdfrwt beam="1">  1       21 0.20696994E-01 0.24227190E+03</pdfrwt>
<pdfrwt beam="2">  1       21 0.84784786E-01 0.24227190E+03</pdfrwt>
<totfact> 0.25405349E+04</totfact>
</mgrwt>
</event>
<event>
 5    0  0.1856407E+000  0.2378140E+03  0.7546771E-02  0.1121258E+00
         21   -1    0    0  502  501  0.00000000000E+00  0.00000000000E+00  0.16547490938E+03  0.16547490938E+03  0.00000000000E+00 0. -1.
         21   -1    0    0  503  502 -0.00000000000E+00 -0.00000000000E+00 -0.10810012629E+04  0.10810012629E+04  0.00000000000E+00 0. -1.
         25    1    1    2    0    0  0.14191485420E+03  0.14418966468E+03  0.62450477959E+02  0.24587709824E+03  0.12500000000E+03 0.  0.
         21    1    1    2  503  504 -0.30551001691E+01 -0.34406678960E+02 -0.15647686632E+03  0.16024407287E+03  0.00000000000E+00 0. -1.
         21    1    1    2  504  501 -0.13885975403E+03 -0.10978298572E+03 -0.82149996515E+03  0.84035500117E+03  0.00000000000E+00 0. -1.
<mgrwt>
<rscale>  4 0.23781397E+03</rscale>
<asrwt>0</asrwt>
<pdfrwt beam="1">  1       21 0.25457680E-01 0.23781397E+03</pdfrwt>
<pdfrwt beam="2">  1       21 0.16630788E+00 0.23781397E+03</pdfrwt>
<totfact> 0.31906494E+03</totfact>
</mgrwt>
</event>
<event>
 5    0  0.1856407E+000  0.3681143E+03  0.7546771E-02  0.1055416E+00
         21   -1    0    0  502  501  0.00000000000E+00  0.00000000000E+00  0.67255590956E+03  0.67255590956E+03  0.00000000000E+00 0. -1.
         21   -1    0    0  503  502 -0.00000000000E+00 -0.00000000000E+00 -0.50831376636E+03  0.50831376636E+03  0.00000000000E+00 0.  1.
         25    1    1    2    0    0  0.34401108144E+03  0.12968049934E+03  0.50641969867E+03  0.63815873203E+03  0.12500000000E+03 0.  0.
         21    1    1    2  503  504 -0.14785646153E+02 -0.30698835685E+02  0.23048048708E+02  0.41136922513E+02  0.00000000000E+00 0. -1.
         21    1    1    2  504  501 -0.32922543528E+03 -0.98981663659E+02 -0.36522560418E+03  0.50157402139E+03  0.00000000000E+00 0.  1.
<mgrwt>
<rscale>  4 0.36811427E+03</rscale>
<asrwt>0</asrwt>
<pdfrwt beam="1">  1       21 0.10347014E+00 0.36811427E+03</pdfrwt>
<pdfrwt beam="2">  1       21 0.78202118E-01 0.36811427E+03</pdfrwt>
<totfact> 0.96579928E+02</totfact>
</mgrwt>
</event>
<event>
 5    0  0.2751414E+000  0.2603862E+03  0.7546771E-02  0.1106911E+00
         21   -1    0    0  502  501  0.00000000000E+00  0.00000000000E+00  0.51654226299E+03  0.51654226299E+03  0.00000000000E+00 0. -1.
         21   -1    0    0  503  502 -0.00000000000E+00 -0.00000000000E+00 -0.16124967997E+03  0.16124967997E+03  0.00000000000E+00 0. -1.
         25    1    1    2    0    0  0.22279907069E+03 -0.50364109485E+02  0.36183798811E+03  0.44578885032E+03  0.12500000000E+03 0.  0.
         21    1    1    2  503  504 -0.22561425449E+02  0.14216703375E+02 -0.10051976979E+02  0.28498680922E+02  0.00000000000E+00 0. -1.
         21    1    1    2  504  501 -0.20023764524E+03  0.36147406110E+02  0.35065718854E+01  0.20350441171E+03  0.00000000000E+00 0. -1.
<mgrwt>
<rscale>  4 0.26038619E+03</rscale>
<asrwt>0</asrwt>
<pdfrwt beam="1">  1       21 0.79468040E-01 0.26038619E+03</pdfrwt>
<pdfrwt beam="2">  1       21 0.24807643E-01 0.26038619E+03</pdfrwt>
<totfact> 0.20696294E+04</totfact>
</mgrwt>
</event>
<event>
 5    0  0.1856407E+000  0.2534043E+03  0.7546771E-02  0.1111172E+00
         21   -1    0    0  502  501  0.00000000000E+00  0.00000000000E+00  0.52139029374E+03  0.52139029374E+03  0.00000000000E+00 0. -1.
         21   -1    0    0  503  502 -0.00000000000E+00 -0.00000000000E+00 -0.42690457530E+03  0.42690457530E+03  0.00000000000E+00 0.  1.
         25    1    1    2    0    0 -0.92734791792E+02  0.19997253761E+03  0.45550047019E+03  0.52124316374E+03  0.12500000000E+03 0.  0.
         21    1    1    2  503  504  0.56215966538E+02 -0.65963173298E+02 -0.17070780489E+03  0.19144850424E+03  0.00000000000E+00 0. -1.
         21    1    1    2  504  501  0.36518825253E+02 -0.13400936431E+03 -0.19030694687E+03  0.23560320105E+03  0.00000000000E+00 0.  1.
<mgrwt>
<rscale>  4 0.25340434E+03</rscale>
<asrwt>0</asrwt>
<pdfrwt beam="1">  1       21 0.80213892E-01 0.25340434E+03</pdfrwt>
<pdfrwt beam="2">  1       21 0.65677627E-01 0.25340434E+03</pdfrwt>
<totfact> 0.27806051E+03</totfact>
</mgrwt>
</event>
<event>
 5    0  0.1856407E+000  0.3549978E+03  0.7546771E-02  0.1060582E+00
         21   -1    0    0  502  501  0.00000000000E+00  0.00000000000E+00  0.60614236488E+03  0.60614236488E+03  0.00000000000E+00 0.  1.
         21   -1    0    0  503  502 -0.00000000000E+00 -0.00000000000E+00 -0.21564567301E+03  0.21564567301E+03  0.00000000000E+00 0.  1.
         25    1    1    2    0    0  0.13440758687E+03  0.30386347663E+03  0.30012019742E+03  0.46486077995E+03  0.12500000000E+03 0.  0.
         21    1    1    2  503  504 -0.36079702540E+02 -0.14887593721E+03  0.19680506053E+01  0.15319811630E+03  0.00000000000E+00 0.  1.
         21    1    1    2  504  501 -0.98327884328E+02 -0.15498753942E+03  0.88408443844E+02  0.20372914165E+03  0.00000000000E+00 0.  1.
<mgrwt>
<rscale>  4 0.35499776E+03</rscale>
<asrwt>0</asrwt>
<pdfrwt beam="1">  1       21 0.93252671E-01 0.35499776E+03</pdfrwt>
<pdfrwt beam="2">  1       21 0.33176258E-01 0.35499776E+03</pdfrwt>
<totfact> 0.77511288E+03</totfact>
</mgrwt>
</event>
<event>
 5    0  0.1856407E+000  0.4802343E+03  0.7546771E-02  0.1019071E+00
         21   -1    0    0  502  501  0.00000000000E+00  0.00000000000E+00  0.62043673658E+03  0.62043673658E+03  0.00000000000E+00 0.  1.
         21   -1    0    0  503  502 -0.00000000000E+00 -0.00000000000E+00 -0.36623947118E+03  0.36623947118E+03  0.00000000000E+00 0.  1.
         25    1    1    2    0    0  0.45009946526E+03  0.11140243316E+03  0.72141703561E+02  0.48562275084E+03  0.12500000000E+03 0.  0.
         21    1    1    2  503  504 -0.42652653037E+03 -0.96267644381E+02  0.18034819296E+03  0.47298817233E+03  0.00000000000E+00 0.  1.
         21    1    1    2  504  501 -0.23572934890E+02 -0.15134788780E+02  0.17073688775E+01  0.28065284592E+02  0.00000000000E+00 0. -1.
<mgrwt>
<rscale>  4 0.48023435E+03</rscale>
<asrwt>0</asrwt>
<pdfrwt beam="1">  1       21 0.95451806E-01 0.48023435E+03</pdfrwt>
<pdfrwt beam="2">  1       21 0.56344534E-01 0.48023435E+03</pdfrwt>
<totfact> 0.23248006E+03</totfact>
</mgrwt>
</event>
<event>
 5    0  0.1856407E+000  0.2674454E+03  0.7546771E-02  0.1102751E+00
         21   -1    0    0  502  501  0.00000000000E+00  0.00000000000E+00  0.96543722486E+03  0.96543722486E+03  0.00000000000E+00 0.  1.
         21   -1    0    0  503  502 -0.00000000000E+00 -0.00000000000E+00 -0.12141872658E+03  0.12141872658E+03  0.00000000000E+00 0.  1.
         25    1    1    2    0    0 -0.84321337169E+02  0.22656231965E+03  0.10254072393E+03  0.29082670553E+03  0.12500000000E+03 0.  0.
         21    1    1    2  503  504 -0.34709552225E+02 -0.34559453281E+02  0.25495344026E+03  0.25961580370E+03  0.00000000000E+00 0. -1.
         21    1    1    2  504  501  0.11903088939E+03 -0.19200286637E+03  0.48652433409E+03  0.53641344221E+03  0.00000000000E+00 0.  1.
<mgrwt>
<rscale>  4 0.26744540E+03</rscale>
<asrwt>0</asrwt>
<pdfrwt beam="1">  1       21 0.14852880E+00 0.26744540E+03</pdfrwt>
<pdfrwt beam="2">  1       21 0.18679805E-01 0.26744540E+03</pdfrwt>
<totfact> 0.76395905E+03</totfact>
</mgrwt>
</event>
