<event>
 5    0  0.1943430E+001  0.2511464E+03  0.7546771E-02  0.1112582E+00
         21   -1    0    0  503  501  0.00000000000E+00  0.00000000000E+00  0.36173774363E+03  0.36173774363E+03  0.00000000000E+00 0. -1.
         21   -1    0    0  504  502 -0.00000000000E+00 -0.00000000000E+00 -0.45790685648E+03  0.45790685648E+03  0.00000000000E+00 0.  1.
         25    1    1    2    0    0  0.22938447686E+03  0.10935326454E+03  0.23190638276E+03  0.36603407636E+03  0.12500000000E+03 0.  0.
         21    1    1    2  503  502 -0.27124838238E+02 -0.38722957886E+02  0.14596160338E+02  0.49480018326E+02  0.00000000000E+00 0.  1.
         21    1    1    2  504  501 -0.20225963862E+03 -0.70630306650E+02 -0.34267165594E+03  0.40413050543E+03  0.00000000000E+00 0.  1.
<mgrwt>
<rscale>  4 0.25114644E+03</rscale>
<asrwt>0</asrwt>
<pdfrwt beam="1">  1       21 0.55651961E-01 0.25114644E+03</pdfrwt>
<pdfrwt beam="2">  1       21 0.70447209E-01 0.25114644E+03</pdfrwt>
<totfact> 0.53376365E+03</totfact>
</mgrwt>
</event>
<event>
 5    0  0.1943430E+001  0.2664902E+03  0.7546771E-02  0.1103305E+00
         21   -1    0    0  504  501  0.00000000000E+00  0.00000000000E+00  0.10885218019E+03  0.10885218019E+03  0.00000000000E+00 0.  1.
         21   -1    0    0  501  502 -0.00000000000E+00 -0.00000000000E+00 -0.77454068158E+03  0.77454068158E+03  0.00000000000E+00 0.  1.
         25    1    1    2    0    0 -0.76526364944E+02  0.21720953326E+03 -0.16439005996E+03  0.30933049912E+03  0.12500000000E+03 0.  0.
         21    1    1    2  503  502  0.14710731480E+02  0.19934816844E+02 -0.10683671360E+03  0.10967171885E+03  0.00000000000E+00 0.  1.
         21    1    1    2  504  503  0.61815633464E+02 -0.23714435010E+03 -0.39446172783E+03  0.46439064380E+03  0.00000000000E+00 0.  1.
<mgrwt>
<rscale>  4 0.26649021E+03</rscale>
<asrwt>0</asrwt>
<pdfrwt beam="1">  1       21 0.16746488E-01 0.26649021E+03</pdfrwt>
<pdfrwt beam="2">  1       21 0.11916011E+00 0.26649021E+03</pdfrwt>
<totfact> 0.16513798E+04</totfact>
</mgrwt>
</event>
<event>
 5    0  0.1943430E+001  0.2372697E+03  0.7546771E-02  0.1121625E+00
         21   -1    0    0  504  501  0.00000000000E+00  0.00000000000E+00  0.20248594787E+03  0.20248594787E+03  0.00000000000E+00 0. -1.
         21   -1    0    0  503  502 -0.00000000000E+00 -0.00000000000E+00 -0.12341888669E+04  0.12341888669E+04  0.00000000000E+00 0.  1.
         25    1    1    2    0    0 -0.15829311806E+03 -0.12750810881E+03  0.11796326552E+03  0.26618670337E+03  0.12500000000E+03 0.  0.
         21    1    1    2  503  501  0.13881004816E+03  0.12051224968E+03 -0.82816245328E+03  0.84831861987E+03  0.00000000000E+00 0.  1.
         21    1    1    2  504  502  0.19483069906E+02  0.69958591316E+01 -0.32150373128E+03  0.32216949155E+03  0.00000000000E+00 0.  1.
<mgrwt>
<rscale>  4 0.23726966E+03</rscale>
<asrwt>0</asrwt>
<pdfrwt beam="1">  1       21 0.31151685E-01 0.23726966E+03</pdfrwt>
<pdfrwt beam="2">  1       21 0.18987521E+00 0.23726966E+03</pdfrwt>
<totfact> 0.14813851E+03</totfact>
</mgrwt>
</event>
<event>
 5    0  0.1943430E+001  0.3675939E+03  0.7546771E-02  0.1055617E+00
         21   -1    0    0  503  501  0.00000000000E+00  0.00000000000E+00  0.17170946400E+04  0.17170946400E+04  0.00000000000E+00 0. -1.
         21   -1    0    0  504  502 -0.00000000000E+00 -0.00000000000E+00 -0.70306232563E+03  0.70306232563E+03  0.00000000000E+00 0. -1.
         25    1    1    2    0    0  0.23729802705E+03  0.24681513475E+03  0.15950568773E+04  0.16361722117E+04  0.12500000000E+03 0.  0.
         21    1    1    2  503  502  0.45773629534E+02  0.67171739248E+02 -0.19597061199E+03  0.21215972398E+03  0.00000000000E+00 0.  1.
         21    1    1    2  504  501 -0.28307165659E+03 -0.31398687400E+03 -0.38505395092E+03  0.57182503000E+03  0.00000000000E+00 0. -1.
<mgrwt>
<rscale>  4 0.36759394E+03</rscale>
<asrwt>0</asrwt>
<pdfrwt beam="1">  1       21 0.26416840E+00 0.36759394E+03</pdfrwt>
<pdfrwt beam="2">  1       21 0.10816344E+00 0.36759394E+03</pdfrwt>
<totfact> 0.30273158E+01</totfact>
</mgrwt>
</event>
<event>
 5    0  0.1943430E+001  0.2860560E+03  0.7546771E-02  0.1092426E+00
         21   -1    0    0  503  501  0.00000000000E+00  0.00000000000E+00  0.88948916022E+03  0.88948916022E+03  0.00000000000E+00 0. -1.
         21   -1    0    0  504  502 -0.00000000000E+00 -0.00000000000E+00 -0.10792636899E+03  0.10792636899E+03  0.00000000000E+00 0. -1.
         25    1    1    2    0    0 -0.12983527649E+03  0.20924112203E+03  0.51674958199E+03  0.58591311358E+03  0.12500000000E+03 0.  0.
         21    1    1    2  503  502 -0.56603940181E+01  0.34515557950E+02  0.41168529364E+02  0.54020473999E+02  0.00000000000E+00 0.  1.
         21    1    1    2  504  501  0.13549567051E+03 -0.24375667998E+03  0.22364467987E+03  0.35748194164E+03  0.00000000000E+00 0. -1.
<mgrwt>
<rscale>  4 0.28605601E+03</rscale>
<asrwt>0</asrwt>
<pdfrwt beam="1">  1       21 0.13684448E+00 0.28605601E+03</pdfrwt>
<pdfrwt beam="2">  1       21 0.16604057E-01 0.28605601E+03</pdfrwt>
<totfact> 0.11682695E+04</totfact>
</mgrwt>
</event>
<event>
 5    0  0.1943430E+001  0.2619738E+03  0.7546771E-02  0.1105963E+00
         21   -1    0    0  503  501  0.00000000000E+00  0.00000000000E+00  0.33702900314E+03  0.33702900314E+03  0.00000000000E+00 0.  1.
         21   -1    0    0  504  502 -0.00000000000E+00 -0.00000000000E+00 -0.21952805227E+03  0.21952805227E+03  0.00000000000E+00 0.  1.
         25    1    1    2    0    0  0.59962624349E+02 -0.22472723557E+03  0.15203407079E+03  0.30469198448E+03  0.12500000000E+03 0.  0.
         21    1    1    2  503  502  0.19054180005E+02  0.12112503956E+02 -0.12457501406E+01  0.22612527969E+02  0.00000000000E+00 0. -1.
         21    1    1    2  504  501 -0.79016804354E+02  0.21261473161E+03 -0.33287369774E+02  0.22925254296E+03  0.00000000000E+00 0.  1.
<mgrwt>
<rscale>  4 0.26197385E+03</rscale>
<asrwt>0</asrwt>
<pdfrwt beam="1">  1       21 0.51850616E-01 0.26197385E+03</pdfrwt>
<pdfrwt beam="2">  1       21 0.33773547E-01 0.26197385E+03</pdfrwt>
<totfact> 0.28824983E+04</totfact>
</mgrwt>
</event>
<event>
 5    0  0.1943430E+001  0.2864516E+03  0.7546771E-02  0.1092216E+00
         21   -1    0    0  502  501  0.00000000000E+00  0.00000000000E+00  0.20108512053E+03  0.20108512053E+03  0.00000000000E+00 0. -1.
         21   -1    0    0  503  502 -0.00000000000E+00 -0.00000000000E+00 -0.49401318444E+03  0.49401318444E+03  0.00000000000E+00 0. -1.
         25    1    1    2    0    0 -0.25773072055E+03 -0.21023017588E+01 -0.32151724754E+03  0.43061338165E+03  0.12500000000E+03 0.  0.
         21    1    1    2  503  504  0.21961845274E+03  0.74464026288E+01  0.42014917554E+02  0.22372520420E+03  0.00000000000E+00 0. -1.
         21    1    1    2  504  501  0.38112267809E+02 -0.53441008700E+01 -0.13425733931E+02  0.40759719126E+02  0.00000000000E+00 0.  1.
<mgrwt>
<rscale>  4 0.28645164E+03</rscale>
<asrwt>0</asrwt>
<pdfrwt beam="1">  1       21 0.30936173E-01 0.28645164E+03</pdfrwt>
<pdfrwt beam="2">  1       21 0.76002028E-01 0.28645164E+03</pdfrwt>
<totfact> 0.14721613E+04</totfact>
</mgrwt>
</event>
<event>
 5    0  0.1943430E+001  0.3068605E+03  0.7546771E-02  0.1081861E+00
         21   -1    0    0  503  501  0.00000000000E+00  0.00000000000E+00  0.37835111082E+03  0.37835111082E+03  0.00000000000E+00 0.  1.
         21   -1    0    0  504  502 -0.00000000000E+00 -0.00000000000E+00 -0.38532593491E+03  0.38532593491E+03  0.00000000000E+00 0.  1.
         25    1    1    2    0    0  0.14805769757E+03 -0.24116223156E+03  0.21701652916E+03  0.37789082771E+03  0.12500000000E+03 0.  0.
         21    1    1    2  503  502  0.15247283261E+02  0.22418207954E+02 -0.63689587660E+02  0.69220078525E+02  0.00000000000E+00 0.  1.
         21    1    1    2  504  501 -0.16330498083E+03  0.21874402361E+03 -0.16030176559E+03  0.31656613950E+03  0.00000000000E+00 0.  1.
<mgrwt>
<rscale>  4 0.30686055E+03</rscale>
<asrwt>0</asrwt>
<pdfrwt beam="1">  1       21 0.58207863E-01 0.30686055E+03</pdfrwt>
<pdfrwt beam="2">  1       21 0.59280913E-01 0.30686055E+03</pdfrwt>
<totfact> 0.68719217E+03</totfact>
</mgrwt>
</event>
<event>
 5    0  0.1943430E+001  0.2747009E+03  0.7546771E-02  0.1098619E+00
         21   -1    0    0  504  501  0.00000000000E+00  0.00000000000E+00  0.11323040977E+04  0.11323040977E+04  0.00000000000E+00 0.  1.
         21   -1    0    0  503  502 -0.00000000000E+00 -0.00000000000E+00 -0.43337872663E+03  0.43337872663E+03  0.00000000000E+00 0.  1.
         25    1    1    2    0    0 -0.21376423924E+03  0.17221994397E+03  0.70088891547E+03  0.76303678215E+03  0.12500000000E+03 0.  0.
         21    1    1    2  503  501  0.15987371211E+03 -0.14599923698E+03  0.36848370836E+03  0.42738229297E+03  0.00000000000E+00 0.  1.
         21    1    1    2  504  502  0.53890527132E+02 -0.26220706993E+02 -0.37044725276E+03  0.37526374921E+03  0.00000000000E+00 0.  1.
<mgrwt>
<rscale>  4 0.27470092E+03</rscale>
<asrwt>0</asrwt>
<pdfrwt beam="1">  1       21 0.17420063E+00 0.27470092E+03</pdfrwt>
<pdfrwt beam="2">  1       21 0.66673651E-01 0.27470092E+03</pdfrwt>
<totfact> 0.37833082E+02</totfact>
</mgrwt>
</event>
<event>
 5    0  0.1943430E+001  0.2633418E+03  0.7546771E-02  0.1105152E+00
         21   -1    0    0  504  501  0.00000000000E+00  0.00000000000E+00  0.16453983973E+03  0.16453983973E+03  0.00000000000E+00 0. -1.
         21   -1    0    0  503  502 -0.00000000000E+00 -0.00000000000E+00 -0.60588431945E+03  0.60588431945E+03  0.00000000000E+00 0. -1.
         25    1    1    2    0    0  0.15360467318E+03  0.17698624137E+03 -0.37706244954E+02  0.26826346409E+03  0.12500000000E+03 0.  0.
         21    1    1    2  503  501 -0.13035959204E+03 -0.18719426993E+03 -0.22047118894E+03  0.31724259343E+03  0.00000000000E+00 0. -1.
         21    1    1    2  504  502 -0.23245081141E+02  0.10208028560E+02 -0.18316704583E+03  0.18491810166E+03  0.00000000000E+00 0.  1.
<mgrwt>
<rscale>  4 0.26334184E+03</rscale>
<asrwt>0</asrwt>
<pdfrwt beam="1">  1       21 0.25313821E-01 0.26334184E+03</pdfrwt>
<pdfrwt beam="2">  1       21 0.93212974E-01 0.26334184E+03</pdfrwt>
<totfact> 0.13744207E+04</totfact>
</mgrwt>
</event>
<event>
 5    0  0.1943430E+001  0.3282621E+03  0.7546771E-02  0.1071908E+00
         21   -1    0    0  503  501  0.00000000000E+00  0.00000000000E+00  0.13323051808E+04  0.13323051808E+04  0.00000000000E+00 0.  1.
         21   -1    0    0  504  502 -0.00000000000E+00 -0.00000000000E+00 -0.20612350841E+03  0.20612350841E+03  0.00000000000E+00 0.  1.
         25    1    1    2    0    0  0.27154805469E+03 -0.84727136489E+02  0.73670737047E+03  0.79954973790E+03  0.12500000000E+03 0.  0.
         21    1    1    2  503  502 -0.29914074016E+03  0.15805358005E+03  0.49981233623E+03  0.60355487575E+03  0.00000000000E+00 0.  1.
         21    1    1    2  504  501  0.27592685473E+02 -0.73326443559E+02 -0.11033803430E+03  0.13532407557E+03  0.00000000000E+00 0.  1.
<mgrwt>
<rscale>  4 0.32826215E+03</rscale>
<asrwt>0</asrwt>
<pdfrwt beam="1">  1       21 0.20497002E+00 0.32826215E+03</pdfrwt>
<pdfrwt beam="2">  1       21 0.31711310E-01 0.32826215E+03</pdfrwt>
<totfact> 0.10627114E+03</totfact>
</mgrwt>
</event>
<event>
 5    0  0.1943430E+001  0.2238566E+03  0.7546771E-02  0.1131040E+00
         21   -1    0    0  503  501  0.00000000000E+00  0.00000000000E+00  0.14909391293E+04  0.14909391293E+04  0.00000000000E+00 0. -1.
         21   -1    0    0  504  502 -0.00000000000E+00 -0.00000000000E+00 -0.74216537848E+02  0.74216537848E+02  0.00000000000E+00 0. -1.
         25    1    1    2    0    0  0.12824701656E+02 -0.21271495831E+03  0.12252196980E+04  0.12498801681E+04  0.12500000000E+03 0.  0.
         21    1    1    2  503  502 -0.18063939676E+01  0.30425277115E+02  0.11204418982E+03  0.11611572253E+03  0.00000000000E+00 0. -1.
         21    1    1    2  504  501 -0.11018307688E+02  0.18228968120E+03  0.79458703681E+02  0.19915977648E+03  0.00000000000E+00 0. -1.
<mgrwt>
<rscale>  4 0.22385663E+03</rscale>
<asrwt>0</asrwt>
<pdfrwt beam="1">  1       21 0.22937523E+00 0.22385663E+03</pdfrwt>
<pdfrwt beam="2">  1       21 0.11417930E-01 0.22385663E+03</pdfrwt>
<totfact> 0.54962874E+03</totfact>
</mgrwt>
</event>
<event>
 5    0  0.1943430E+001  0.3125296E+03  0.7546771E-02  0.1079140E+00
         21   -1    0    0  503  501  0.00000000000E+00  0.00000000000E+00  0.13879846678E+04  0.13879846678E+04  0.00000000000E+00 0. -1.
         21   -1    0    0  504  502 -0.00000000000E+00 -0.00000000000E+00 -0.17108837745E+03  0.17108837745E+03  0.00000000000E+00 0. -1.
         25    1    1    2    0    0  0.13707985681E+03  0.25928859540E+03  0.80336735465E+03  0.86431797931E+03  0.12500000000E+03 0.  0.
         21    1    1    2  503  502 -0.90724919517E+02 -0.26520730873E+03  0.51315298594E+03  0.58471524232E+03  0.00000000000E+00 0. -1.
         21    1    1    2  504  501 -0.46354937296E+02  0.59187133243E+01 -0.99624050282E+02  0.11003982358E+03  0.00000000000E+00 0. -1.
<mgrwt>
<rscale>  4 0.31252962E+03</rscale>
<asrwt>0</asrwt>
<pdfrwt beam="1">  1       21 0.21353610E+00 0.31252962E+03</pdfrwt>
<pdfrwt beam="2">  1       21 0.26321290E-01 0.31252962E+03</pdfrwt>
<totfact> 0.13638956E+03</totfact>
</mgrwt>
</event>
<event>
 5    0  0.1943430E+001  0.2470785E+03  0.7546771E-02  0.1115165E+00
         21   -1    0    0  504  501  0.00000000000E+00  0.00000000000E+00  0.53693109144E+03  0.53693109144E+03  0.00000000000E+00 0.  1.
         21   -1    0    0  503  502 -0.00000000000E+00 -0.00000000000E+00 -0.25197505038E+03  0.25197505038E+03  0.00000000000E+00 0.  1.
         25    1    1    2    0    0  0.70180156321E+02 -0.20195372295E+03  0.42421569621E+03  0.49121738311E+03  0.12500000000E+03 0.  0.
         21    1    1    2  503  501 -0.45116333921E+02  0.20656261667E+03 -0.68139897077E+02  0.22214104476E+03  0.00000000000E+00 0.  1.
         21    1    1    2  504  502 -0.25063822400E+02 -0.46088937233E+01 -0.71119758072E+02  0.75547713949E+02  0.00000000000E+00 0.  1.
<mgrwt>
<rscale>  4 0.24707848E+03</rscale>
<asrwt>0</asrwt>
<pdfrwt beam="1">  1       21 0.82604783E-01 0.24707848E+03</pdfrwt>
<pdfrwt beam="2">  1       21 0.38765392E-01 0.24707848E+03</pdfrwt>
<totfact> 0.79176377E+03</totfact>
</mgrwt>
</event>
<event>
 5    0  0.1943430E+001  0.2462017E+03  0.7546771E-02  0.1115729E+00
         21   -1    0    0  503  501  0.00000000000E+00  0.00000000000E+00  0.49341619491E+03  0.49341619491E+03  0.00000000000E+00 0.  1.
         21   -1    0    0  504  502 -0.00000000000E+00 -0.00000000000E+00 -0.23089962382E+03  0.23089962382E+03  0.00000000000E+00 0.  1.
         25    1    1    2    0    0  0.19666325168E+03 -0.10175763985E+03  0.26457708524E+03  0.36695651767E+03  0.12500000000E+03 0.  0.
         21    1    1    2  503  502 -0.30949511491E+02 -0.14589144430E+02 -0.11880597567E+03  0.12363484643E+03  0.00000000000E+00 0.  1.
         21    1    1    2  504  501 -0.16571374019E+03  0.11634678428E+03  0.11674546153E+03  0.23372445462E+03  0.00000000000E+00 0.  1.
<mgrwt>
<rscale>  4 0.24620172E+03</rscale>
<asrwt>0</asrwt>
<pdfrwt beam="1">  1       21 0.75910184E-01 0.24620172E+03</pdfrwt>
<pdfrwt beam="2">  1       21 0.35523019E-01 0.24620172E+03</pdfrwt>
<totfact> 0.11441058E+04</totfact>
</mgrwt>
</event>
