<event>
 5    0  0.2754780E-002  0.5705680E+03  0.7546771E-02  0.9968422E-01
          1   -1    0    0  502    0  0.00000000000E+00  0.00000000000E+00  0.11863140448E+04  0.11863140448E+04  0.00000000000E+00 0.  1.
         -1   -1    0    0    0  501 -0.00000000000E+00 -0.00000000000E+00 -0.68604905640E+02  0.68604905640E+02  0.00000000000E+00 0. -1.
         25    1    1    2    0    0  0.22269493904E+03 -0.99063294408E+02  0.33332008075E+03  0.43143232192E+03  0.12500000000E+03 0.  0.
         21    1    1    2  502  503 -0.18626746429E+03  0.95480455986E+02  0.59898257716E+03  0.63450154725E+03  0.00000000000E+00 0. -1.
         21    1    1    2  503  501 -0.36427474745E+02  0.35828384220E+01  0.18540648125E+03  0.18898508125E+03  0.00000000000E+00 0.  1.
<mgrwt>
<rscale>  4 0.57056801E+03</rscale>
<asrwt>0</asrwt>
<pdfrwt beam="1">  1        1 0.18250984E+00 0.57056801E+03</pdfrwt>
<pdfrwt beam="2">  1       -1 0.10554602E-01 0.57056801E+03</pdfrwt>
<totfact> 0.64550737E+02</totfact>
</mgrwt>
</event>
<event>
 5    0  0.2754780E-002  0.7447806E+03  0.7546771E-02  0.9643574E-01
         -2   -1    0    0    0  501 -0.00000000000E+00  0.00000000000E+00  0.12588623362E+03  0.12588623362E+03  0.00000000000E+00 0.  1.
          2   -1    0    0  502    0  0.00000000000E+00 -0.00000000000E+00 -0.14396161368E+04  0.14396161368E+04  0.00000000000E+00 0. -1.
         25    1    1    2    0    0  0.17051509987E+03 -0.13315310839E+03 -0.97121104029E+03  0.10028364943E+04  0.12500000000E+03 0.  0.
         21    1    1    2  502  503 -0.19289161790E+03  0.12179359862E+03 -0.91022072056E+01  0.22830616964E+03  0.00000000000E+00 0.  1.
         21    1    1    2  503  501  0.22376518031E+02  0.11359509766E+02 -0.33341665571E+03  0.33435970649E+03  0.00000000000E+00 0.  1.
<mgrwt>
<rscale>  4 0.74478064E+03</rscale>
<asrwt>0</asrwt>
<pdfrwt beam="1">  1        2 0.22147939E+00 0.74478064E+03</pdfrwt>
<pdfrwt beam="2">  1       -2 0.19367114E-01 0.74478064E+03</pdfrwt>
<totfact> 0.31400803E+02</totfact>
</mgrwt>
</event>
<event>
 5    0  0.2754780E-002  0.5287257E+03  0.7546771E-02  0.1006542E+00
         -2   -1    0    0    0  501 -0.00000000000E+00  0.00000000000E+00  0.82443485868E+02  0.82443485868E+02  0.00000000000E+00 0.  1.
          2   -1    0    0  503    0  0.00000000000E+00 -0.00000000000E+00 -0.16253004070E+04  0.16253004070E+04  0.00000000000E+00 0. -1.
         25    1    1    2    0    0 -0.54530184412E+02  0.26852059101E+03 -0.31451576964E+03  0.43545610360E+03  0.12500000000E+03 0.  0.
         21    1    1    2  502  501  0.21413276694E+02 -0.72331173109E+02 -0.75596785233E+03  0.75972213393E+03  0.00000000000E+00 0. -1.
         21    1    1    2  503  502  0.33116907718E+02 -0.19618941790E+03 -0.47237329917E+03  0.51256565535E+03  0.00000000000E+00 0. -1.
<mgrwt>
<rscale>  4 0.52872568E+03</rscale>
<asrwt>0</asrwt>
<pdfrwt beam="1">  1        2 0.25004621E+00 0.52872568E+03</pdfrwt>
<pdfrwt beam="2">  1       -2 0.12683613E-01 0.52872568E+03</pdfrwt>
<totfact> 0.51616580E+02</totfact>
</mgrwt>
</event>
<event>
 5    0  0.2754780E-002  0.6505041E+03  0.7546771E-02  0.9805834E-01
          1   -1    0    0  503    0  0.00000000000E+00  0.00000000000E+00  0.34346974954E+03  0.34346974954E+03  0.00000000000E+00 0.  1.
         -1   -1    0    0    0  501 -0.00000000000E+00 -0.00000000000E+00 -0.36636102416E+03  0.36636102416E+03  0.00000000000E+00 0. -1.
         25    1    1    2    0    0 -0.29688903765E+03  0.67097118101E+01 -0.15758599713E+03  0.35867320419E+03  0.12500000000E+03 0.  0.
         21    1    1    2  502  501  0.28661315639E+02  0.42637463608E+02  0.25832837903E+02  0.57504433144E+02  0.00000000000E+00 0.  1.
         21    1    1    2  503  502  0.26822772202E+03 -0.49347175418E+02  0.10886188460E+03  0.29365313637E+03  0.00000000000E+00 0. -1.
<mgrwt>
<rscale>  4 0.65050412E+03</rscale>
<asrwt>0</asrwt>
<pdfrwt beam="1">  1        1 0.52841500E-01 0.65050412E+03</pdfrwt>
<pdfrwt beam="2">  1       -1 0.56363234E-01 0.65050412E+03</pdfrwt>
<totfact> 0.23775397E+02</totfact>
</mgrwt>
</event>
<event>
 5    0  0.2754780E-002  0.8469134E+03  0.7546771E-02  0.9494489E-01
         -2   -1    0    0    0  501 -0.00000000000E+00  0.00000000000E+00  0.12990243304E+03  0.12990243304E+03  0.00000000000E+00 0.  1.
          2   -1    0    0  503    0  0.00000000000E+00 -0.00000000000E+00 -0.13803865123E+04  0.13803865123E+04  0.00000000000E+00 0. -1.
         25    1    1    2    0    0  0.26137559052E+03 -0.25393528713E+03 -0.30536090866E+03  0.49160005483E+03  0.12500000000E+03 0.  0.
         21    1    1    2  502  501 -0.21480974479E+03  0.22089493819E+03 -0.87838834252E+03  0.93086190192E+03  0.00000000000E+00 0. -1.
         21    1    1    2  503  502 -0.46565845737E+02  0.33040348942E+02 -0.66734828086E+02  0.87826988603E+02  0.00000000000E+00 0. -1.
<mgrwt>
<rscale>  4 0.84691338E+03</rscale>
<asrwt>0</asrwt>
<pdfrwt beam="1">  1        2 0.21236715E+00 0.84691338E+03</pdfrwt>
<pdfrwt beam="2">  1       -2 0.19984990E-01 0.84691338E+03</pdfrwt>
<totfact> 0.31913718E+02</totfact>
</mgrwt>
</event>
<event>
 5    0  0.4803350E-002  0.1072273E+04  0.7546771E-02  0.9232646E-01
         -2   -1    0    0    0  501 -0.00000000000E+00  0.00000000000E+00  0.52022267773E+03  0.52022267773E+03  0.00000000000E+00 0.  1.
          2   -1    0    0  503    0  0.00000000000E+00 -0.00000000000E+00 -0.57656373167E+03  0.57656373167E+03  0.00000000000E+00 0. -1.
         25    1    1    2    0    0 -0.38379854457E+03 -0.10736215334E+03 -0.38294391833E+03  0.56665597973E+03  0.12500000000E+03 0.  0.
         21    1    1    2  502  501  0.20515012837E+02  0.38077819271E+01 -0.10922991537E+02  0.23551575298E+02  0.00000000000E+00 0. -1.
         21    1    1    2  503  502  0.36328353173E+03  0.10355437141E+03  0.33752585593E+03  0.50657885436E+03  0.00000000000E+00 0.  1.
<mgrwt>
<rscale>  4 0.10722734E+04</rscale>
<asrwt>0</asrwt>
<pdfrwt beam="1">  1        2 0.88702112E-01 0.10722734E+04</pdfrwt>
<pdfrwt beam="2">  1       -2 0.80034259E-01 0.10722734E+04</pdfrwt>
<totfact> 0.71487149E+01</totfact>
</mgrwt>
</event>
<event>
 5    0  0.2754780E-002  0.6696763E+03  0.7546771E-02  0.9770543E-01
          2   -1    0    0  503    0  0.00000000000E+00  0.00000000000E+00  0.13868627870E+04  0.13868627870E+04  0.00000000000E+00 0. -1.
         -2   -1    0    0    0  501 -0.00000000000E+00 -0.00000000000E+00 -0.80841873094E+02  0.80841873094E+02  0.00000000000E+00 0.  1.
         25    1    1    2    0    0 -0.92942352765E+02  0.28406640542E+03  0.44130114951E+03  0.54745201450E+03  0.12500000000E+03 0.  0.
         21    1    1    2  502  501 -0.13902277079E+02 -0.93838611437E+02  0.21879750265E+03  0.23847705439E+03  0.00000000000E+00 0.  1.
         21    1    1    2  503  502  0.10684462984E+03 -0.19022779399E+03  0.64592226173E+03  0.68177559118E+03  0.00000000000E+00 0.  1.
<mgrwt>
<rscale>  4 0.66967630E+03</rscale>
<asrwt>0</asrwt>
<pdfrwt beam="1">  1        2 0.21336349E+00 0.66967630E+03</pdfrwt>
<pdfrwt beam="2">  1       -2 0.12437212E-01 0.66967630E+03</pdfrwt>
<totfact> 0.71599483E+02</totfact>
</mgrwt>
</event>
<event>
 5    0  0.2754780E-002  0.6433693E+03  0.7546771E-02  0.9819301E-01
         -2   -1    0    0    0  501 -0.00000000000E+00  0.00000000000E+00  0.17452575900E+03  0.17452575900E+03  0.00000000000E+00 0. -1.
          2   -1    0    0  503    0  0.00000000000E+00 -0.00000000000E+00 -0.11117237646E+04  0.11117237646E+04  0.00000000000E+00 0.  1.
         25    1    1    2    0    0 -0.29717760272E+01  0.29046307006E+03 -0.19963431445E+03  0.37397391089E+03  0.12500000000E+03 0.  0.
         21    1    1    2  502  501 -0.18863482675E+02  0.35812640933E+02 -0.51529465574E+03  0.51688195795E+03  0.00000000000E+00 0.  1.
         21    1    1    2  503  502  0.21835258702E+02 -0.32627571099E+03 -0.22226903540E+03  0.39539365474E+03  0.00000000000E+00 0.  1.
<mgrwt>
<rscale>  4 0.64336927E+03</rscale>
<asrwt>0</asrwt>
<pdfrwt beam="1">  1        2 0.17103442E+00 0.64336927E+03</pdfrwt>
<pdfrwt beam="2">  1       -2 0.26850117E-01 0.64336927E+03</pdfrwt>
<totfact> 0.27388359E+02</totfact>
</mgrwt>
</event>
<event>
 5    0  0.2754780E-002  0.1060263E+04  0.7546771E-02  0.9244812E-01
         -2   -1    0    0    0  501 -0.00000000000E+00  0.00000000000E+00  0.18062835258E+03  0.18062835258E+03  0.00000000000E+00 0. -1.
          2   -1    0    0  503    0  0.00000000000E+00 -0.00000000000E+00 -0.18849534160E+04  0.18849534160E+04  0.00000000000E+00 0.  1.
         25    1    1    2    0    0 -0.15847483245E+03  0.52706890775E+03 -0.89890828230E+03  0.10614033192E+04  0.12500000000E+03 0.  0.
         21    1    1    2  502  501  0.61840547010E+02 -0.52091800859E+02 -0.27047872296E+03  0.28230577136E+03  0.00000000000E+00 0. -1.
         21    1    1    2  503  502  0.96634285440E+02 -0.47497710689E+03 -0.53493805821E+03  0.72187267805E+03  0.00000000000E+00 0.  1.
<mgrwt>
<rscale>  4 0.10602632E+04</rscale>
<asrwt>0</asrwt>
<pdfrwt beam="1">  1        2 0.28999282E+00 0.10602632E+04</pdfrwt>
<pdfrwt beam="2">  1       -2 0.27788978E-01 0.10602632E+04</pdfrwt>
<totfact> 0.91222019E+01</totfact>
</mgrwt>
</event>
<event>
 5    0  0.2754780E-002  0.3980563E+03  0.7546771E-02  0.1044455E+00
          2   -1    0    0  503    0  0.00000000000E+00  0.00000000000E+00  0.33485222000E+04  0.33485222000E+04  0.00000000000E+00 0. -1.
         -2   -1    0    0    0  501 -0.00000000000E+00 -0.00000000000E+00 -0.22244262612E+02  0.22244262612E+02  0.00000000000E+00 0.  1.
         25    1    1    2    0    0 -0.20848429041E+03  0.95104502076E+02  0.14567972642E+04  0.14799979171E+04  0.12500000000E+03 0.  0.
         21    1    1    2  502  501  0.98731240432E+02 -0.26950058611E+02  0.14030136382E+04  0.14067414235E+04  0.00000000000E+00 0.  1.
         21    1    1    2  503  502  0.10975304998E+03 -0.68154443465E+02  0.46646703495E+03  0.48402712200E+03  0.00000000000E+00 0.  1.
<mgrwt>
<rscale>  4 0.39805626E+03</rscale>
<asrwt>0</asrwt>
<pdfrwt beam="1">  1        2 0.51515686E+00 0.39805626E+03</pdfrwt>
<pdfrwt beam="2">  1       -2 0.34221969E-02 0.39805626E+03</pdfrwt>
<totfact> 0.42995598E+02</totfact>
</mgrwt>
</event>
<event>
 5    0  0.2754780E-002  0.4579132E+03  0.7546771E-02  0.1025388E+00
         -2   -1    0    0    0  501 -0.00000000000E+00  0.00000000000E+00  0.59606324902E+02  0.59606324902E+02  0.00000000000E+00 0.  1.
          2   -1    0    0  502    0  0.00000000000E+00 -0.00000000000E+00 -0.87945590943E+03  0.87945590943E+03  0.00000000000E+00 0. -1.
         25    1    1    2    0    0 -0.14036773801E+03 -0.15352344099E+03 -0.43227886829E+03  0.49574445915E+03  0.12500000000E+03 0.  0.
         21    1    1    2  502  503  0.11989170112E+03  0.14169275016E+03 -0.30145504262E+03  0.35401412142E+03  0.00000000000E+00 0. -1.
         21    1    1    2  503  501  0.20476036887E+02  0.11830690832E+02 -0.86115673622E+02  0.89303653764E+02  0.00000000000E+00 0.  1.
<mgrwt>
<rscale>  4 0.45791324E+03</rscale>
<asrwt>0</asrwt>
<pdfrwt beam="1">  1        2 0.13530091E+00 0.45791324E+03</pdfrwt>
<pdfrwt beam="2">  1       -2 0.91702035E-02 0.45791324E+03</pdfrwt>
<totfact> 0.23952973E+03</totfact>
</mgrwt>
</event>
<event>
 5    0  0.2754780E-002  0.4207707E+03  0.7546771E-02  0.1036816E+00
         -2   -1    0    0    0  501 -0.00000000000E+00  0.00000000000E+00  0.44894955342E+02  0.44894955342E+02  0.00000000000E+00 0. -1.
          2   -1    0    0  503    0  0.00000000000E+00 -0.00000000000E+00 -0.26872421473E+04  0.26872421473E+04  0.00000000000E+00 0.  1.
         25    1    1    2    0    0 -0.83510400520E+02 -0.19868377887E+03 -0.51410241322E+03  0.57129285157E+03  0.12500000000E+03 0.  0.
         21    1    1    2  502  501  0.21666480303E+02  0.40698898216E+02 -0.16940909310E+04  0.16947182419E+04  0.00000000000E+00 0.  1.
         21    1    1    2  503  502  0.61843920217E+02  0.15798488065E+03 -0.43415384769E+03  0.46612600919E+03  0.00000000000E+00 0.  1.
<mgrwt>
<rscale>  4 0.42077067E+03</rscale>
<asrwt>0</asrwt>
<pdfrwt beam="1">  1        2 0.41342178E+00 0.42077067E+03</pdfrwt>
<pdfrwt beam="2">  1       -2 0.69069176E-02 0.42077067E+03</pdfrwt>
<totfact> 0.36498021E+02</totfact>
</mgrwt>
</event>
<event>
 5    0  0.2754780E-002  0.5604273E+03  0.7546771E-02  0.9991088E-01
         -3   -1    0    0    0  501 -0.00000000000E+00  0.00000000000E+00  0.41775481958E+03  0.41775481958E+03  0.00000000000E+00 0.  1.
          3   -1    0    0  502    0  0.00000000000E+00 -0.00000000000E+00 -0.18795639502E+03  0.18795639502E+03  0.00000000000E+00 0. -1.
         25    1    1    2    0    0 -0.24865651849E+03  0.61097288938E+02  0.11988625100E+03  0.30912886646E+03  0.12500000000E+03 0.  0.
         21    1    1    2  502  503  0.20795799772E+03 -0.74967613059E+01  0.85914534039E+02  0.22513115601E+03  0.00000000000E+00 0.  1.
         21    1    1    2  503  501  0.40698520766E+02 -0.53600527632E+02  0.23997639524E+02  0.71451192137E+02  0.00000000000E+00 0. -1.
<mgrwt>
<rscale>  4 0.56042730E+03</rscale>
<asrwt>0</asrwt>
<pdfrwt beam="1">  1        3 0.28916368E-01 0.56042730E+03</pdfrwt>
<pdfrwt beam="2">  1       -3 0.64269972E-01 0.56042730E+03</pdfrwt>
<totfact> 0.71463844E+01</totfact>
</mgrwt>
</event>
<event>
 5    0  0.2754780E-002  0.5069211E+03  0.7546771E-02  0.1011988E+00
          2   -1    0    0  503    0  0.00000000000E+00  0.00000000000E+00  0.15686967731E+03  0.15686967731E+03  0.00000000000E+00 0.  1.
         -2   -1    0    0    0  501 -0.00000000000E+00 -0.00000000000E+00 -0.81945466825E+03  0.81945466825E+03  0.00000000000E+00 0. -1.
         25    1    1    2    0    0 -0.21463436408E+03 -0.24853575152E+02 -0.11646803183E+03  0.27545491987E+03  0.12500000000E+03 0.  0.
         21    1    1    2  502  501  0.79744593319E+02 -0.17669471540E+03 -0.28303005904E+03  0.34305427695E+03  0.00000000000E+00 0. -1.
         21    1    1    2  503  502  0.13488977076E+03  0.20154829055E+03 -0.26308690007E+03  0.35781514874E+03  0.00000000000E+00 0. -1.
<mgrwt>
<rscale>  4 0.50692113E+03</rscale>
<asrwt>0</asrwt>
<pdfrwt beam="1">  1        2 0.24133797E-01 0.50692113E+03</pdfrwt>
<pdfrwt beam="2">  1       -2 0.12606995E+00 0.50692113E+03</pdfrwt>
<totfact> 0.10922701E+02</totfact>
</mgrwt>
</event>
<event>
 5    0  0.2754780E-002  0.5160508E+03  0.7546771E-02  0.1009672E+00
         -1   -1    0    0    0  501 -0.00000000000E+00  0.00000000000E+00  0.13531054489E+03  0.13531054489E+03  0.00000000000E+00 0.  1.
          1   -1    0    0  502    0  0.00000000000E+00 -0.00000000000E+00 -0.14180859084E+04  0.14180859084E+04  0.00000000000E+00 0. -1.
         25    1    1    2    0    0  0.22214525661E+03 -0.61593097512E+02 -0.15045553878E+03  0.30233109970E+03  0.12500000000E+03 0.  0.
         21    1    1    2  502  503 -0.24322079309E+03  0.62501366155E+02 -0.20682352818E+03  0.32532867499E+03  0.00000000000E+00 0.  1.
         21    1    1    2  503  501  0.21075536480E+02 -0.90826864265E+00 -0.92549629658E+03  0.92573667864E+03  0.00000000000E+00 0. -1.
<mgrwt>
<rscale>  4 0.51605083E+03</rscale>
<asrwt>0</asrwt>
<pdfrwt beam="1">  1        1 0.21816706E+00 0.51605083E+03</pdfrwt>
<pdfrwt beam="2">  1       -1 0.20817007E-01 0.51605083E+03</pdfrwt>
<totfact> 0.14869708E+02</totfact>
</mgrwt>
</event>
<event>
 5    0  0.2754780E-002  0.5306733E+03  0.7546771E-02  0.1006069E+00
          1   -1    0    0  502    0  0.00000000000E+00  0.00000000000E+00  0.20744511027E+03  0.20744511027E+03  0.00000000000E+00 0. -1.
         -1   -1    0    0    0  501 -0.00000000000E+00 -0.00000000000E+00 -0.57527976269E+03  0.57527976269E+03  0.00000000000E+00 0.  1.
         25    1    1    2    0    0 -0.36447651932E+02  0.20745136496E+03 -0.74348464408E+02  0.25596326751E+03  0.12500000000E+03 0.  0.
         21    1    1    2  502  503 -0.29951155993E+01 -0.23058348237E+03 -0.37096371798E+03  0.43679719907E+03  0.00000000000E+00 0.  1.
         21    1    1    2  503  501  0.39442767532E+02  0.23132117413E+02  0.77477529963E+02  0.89964406383E+02  0.00000000000E+00 0. -1.
<mgrwt>
<rscale>  4 0.53067327E+03</rscale>
<asrwt>0</asrwt>
<pdfrwt beam="1">  1        1 0.31914633E-01 0.53067327E+03</pdfrwt>
<pdfrwt beam="2">  1       -1 0.88504578E-01 0.53067327E+03</pdfrwt>
<totfact> 0.18204189E+02</totfact>
</mgrwt>
</event>
<event>
 5    0  0.2754780E-002  0.6810052E+03  0.7546771E-02  0.9750279E-01
         -1   -1    0    0    0  501 -0.00000000000E+00  0.00000000000E+00  0.94275069600E+03  0.94275069600E+03  0.00000000000E+00 0. -1.
          1   -1    0    0  503    0  0.00000000000E+00 -0.00000000000E+00 -0.24623308235E+03  0.24623308235E+03  0.00000000000E+00 0.  1.
         25    1    1    2    0    0 -0.24907305248E+03 -0.84254021680E+02  0.15565480930E+03  0.33013564681E+03  0.12500000000E+03 0.  0.
         21    1    1    2  502  501  0.21642427031E+03  0.26161239237E+03  0.58207248697E+03  0.67386117910E+03  0.00000000000E+00 0.  1.
         21    1    1    2  503  502  0.32648782168E+02 -0.17735837069E+03 -0.41209682619E+02  0.18498695244E+03  0.00000000000E+00 0.  1.
<mgrwt>
<rscale>  4 0.68100519E+03</rscale>
<asrwt>0</asrwt>
<pdfrwt beam="1">  1        1 0.37882013E-01 0.68100519E+03</pdfrwt>
<pdfrwt beam="2">  1       -1 0.14503857E+00 0.68100519E+03</pdfrwt>
<totfact> 0.44443821E+01</totfact>
</mgrwt>
</event>
<event>
 5    0  0.2754780E-002  0.8092905E+03  0.7546771E-02  0.9546666E-01
          2   -1    0    0  502    0  0.00000000000E+00  0.00000000000E+00  0.32557746749E+03  0.32557746749E+03  0.00000000000E+00 0.  1.
         -2   -1    0    0    0  501 -0.00000000000E+00 -0.00000000000E+00 -0.12200578941E+04  0.12200578941E+04  0.00000000000E+00 0. -1.
         25    1    1    2    0    0 -0.33521279350E+03 -0.84670228332E+02 -0.10434099003E+04  0.11062847213E+04  0.12500000000E+03 0.  0.
         21    1    1    2  502  503  0.10804902402E+03  0.42333758952E+02  0.17161160476E+03  0.20716486581E+03  0.00000000000E+00 0.  1.
         21    1    1    2  503  501  0.22716376948E+03  0.42336469379E+02 -0.22682131046E+02  0.23218577448E+03  0.00000000000E+00 0.  1.
<mgrwt>
<rscale>  4 0.80929046E+03</rscale>
<asrwt>0</asrwt>
<pdfrwt beam="1">  1        2 0.50088841E-01 0.80929046E+03</pdfrwt>
<pdfrwt beam="2">  1       -2 0.18770122E+00 0.80929046E+03</pdfrwt>
<totfact> 0.16271231E+01</totfact>
</mgrwt>
</event>
<event>
 5    0  0.2754780E-002  0.4892094E+03  0.7546771E-02  0.1016634E+00
         -1   -1    0    0    0  501 -0.00000000000E+00  0.00000000000E+00  0.10814206886E+03  0.10814206886E+03  0.00000000000E+00 0. -1.
          1   -1    0    0  503    0  0.00000000000E+00 -0.00000000000E+00 -0.95867247447E+03  0.95867247447E+03  0.00000000000E+00 0.  1.
         25    1    1    2    0    0 -0.17488012460E+03 -0.21456328549E+03 -0.35658216479E+03  0.46839758934E+03  0.12500000000E+03 0.  0.
         21    1    1    2  502  501  0.94182779452E+02  0.52586496220E+02 -0.35277754753E+03  0.36890070964E+03  0.00000000000E+00 0. -1.
         21    1    1    2  503  502  0.80697345148E+02  0.16197678927E+03 -0.14117069330E+03  0.22951624435E+03  0.00000000000E+00 0. -1.
<mgrwt>
<rscale>  4 0.48920937E+03</rscale>
<asrwt>0</asrwt>
<pdfrwt beam="1">  1        1 0.14748808E+00 0.48920937E+03</pdfrwt>
<pdfrwt beam="2">  1       -1 0.16637241E-01 0.48920937E+03</pdfrwt>
<totfact> 0.46260667E+02</totfact>
</mgrwt>
</event>
<event>
 5    0  0.2754780E-002  0.9160519E+03  0.7546771E-02  0.9405735E-01
         -2   -1    0    0    0  501 -0.00000000000E+00  0.00000000000E+00  0.37732789305E+03  0.37732789305E+03  0.00000000000E+00 0. -1.
          2   -1    0    0  503    0  0.00000000000E+00 -0.00000000000E+00 -0.61202356000E+03  0.61202356000E+03  0.00000000000E+00 0.  1.
         25    1    1    2    0    0  0.10227268759E+03  0.24730228841E+03  0.27580282415E+03  0.40411671864E+03  0.12500000000E+03 0.  0.
         21    1    1    2  502  501  0.18805321287E+02 -0.15111831519E+02 -0.49072442440E+02  0.54681918104E+02  0.00000000000E+00 0. -1.
         21    1    1    2  503  502 -0.12107800888E+03 -0.23219045689E+03 -0.46142604866E+03  0.53055281631E+03  0.00000000000E+00 0.  1.
<mgrwt>
<rscale>  4 0.91605194E+03</rscale>
<asrwt>0</asrwt>
<pdfrwt beam="1">  1        2 0.94157470E-01 0.91605194E+03</pdfrwt>
<pdfrwt beam="2">  1       -2 0.58050446E-01 0.91605194E+03</pdfrwt>
<totfact> 0.13482275E+02</totfact>
</mgrwt>
</event>
<event>
 5    0  0.2754780E-002  0.4404524E+03  0.7546771E-02  0.1030608E+00
         -3   -1    0    0    0  501 -0.00000000000E+00  0.00000000000E+00  0.12516427697E+04  0.12516427697E+04  0.00000000000E+00 0. -1.
          3   -1    0    0  502    0  0.00000000000E+00 -0.00000000000E+00 -0.65179694908E+02  0.65179694908E+02  0.00000000000E+00 0.  1.
         25    1    1    2    0    0  0.95374068442E+02  0.20749343740E+03  0.46708156313E+03  0.53473350943E+03  0.12500000000E+03 0.  0.
         21    1    1    2  502  503 -0.15679749709E+02 -0.50186384337E+02  0.48972597030E+03  0.49254040821E+03  0.00000000000E+00 0. -1.
         21    1    1    2  503  501 -0.79694318733E+02 -0.15730705306E+03  0.22965554141E+03  0.28954854702E+03  0.00000000000E+00 0.  1.
<mgrwt>
<rscale>  4 0.44045240E+03</rscale>
<asrwt>0</asrwt>
<pdfrwt beam="1">  1        3 0.10027646E-01 0.44045240E+03</pdfrwt>
<pdfrwt beam="2">  1       -3 0.19256041E+00 0.44045240E+03</pdfrwt>
<totfact> 0.33013182E+01</totfact>
</mgrwt>
</event>
<event>
 5    0  0.2754780E-002  0.5721659E+03  0.7546771E-02  0.9964897E-01
         -3   -1    0    0    0  501 -0.00000000000E+00  0.00000000000E+00  0.40091999362E+03  0.40091999362E+03  0.00000000000E+00 0.  1.
          3   -1    0    0  503    0  0.00000000000E+00 -0.00000000000E+00 -0.27859035807E+03  0.27859035807E+03  0.00000000000E+00 0. -1.
         25    1    1    2    0    0 -0.28492921369E+03 -0.42290777726E+02  0.18383903253E+02  0.31454114929E+03  0.12500000000E+03 0.  0.
         21    1    1    2  502  501  0.23798700420E+03 -0.55353621290E+01  0.15205901063E+03  0.28247194040E+03  0.00000000000E+00 0. -1.
         21    1    1    2  503  502  0.46942209496E+02  0.47826139854E+02 -0.48113278336E+02  0.82497262003E+02  0.00000000000E+00 0. -1.
<mgrwt>
<rscale>  4 0.57216592E+03</rscale>
<asrwt>0</asrwt>
<pdfrwt beam="1">  1        3 0.42860055E-01 0.57216592E+03</pdfrwt>
<pdfrwt beam="2">  1       -3 0.61679999E-01 0.57216592E+03</pdfrwt>
<totfact> 0.36343182E+01</totfact>
</mgrwt>
</event>
<event>
 5    0  0.2754780E-002  0.4908182E+03  0.7546771E-02  0.1016204E+00
         -2   -1    0    0    0  501 -0.00000000000E+00  0.00000000000E+00  0.86758232260E+02  0.86758232260E+02  0.00000000000E+00 0.  1.
          2   -1    0    0  502    0  0.00000000000E+00 -0.00000000000E+00 -0.96057999701E+03  0.96057999701E+03  0.00000000000E+00 0. -1.
         25    1    1    2    0    0  0.21228116352E+03 -0.88917939875E+02 -0.51506740951E+03  0.57783140167E+03  0.12500000000E+03 0.  0.
         21    1    1    2  502  503 -0.18625515997E+03  0.40434303052E+02 -0.12166554490E+03  0.22611594878E+03  0.00000000000E+00 0.  1.
         21    1    1    2  503  501 -0.26026003553E+02  0.48483636823E+02 -0.23708881034E+03  0.24339087881E+03  0.00000000000E+00 0. -1.
<mgrwt>
<rscale>  4 0.49081818E+03</rscale>
<asrwt>0</asrwt>
<pdfrwt beam="1">  1        2 0.14778154E+00 0.49081818E+03</pdfrwt>
<pdfrwt beam="2">  1       -2 0.13347420E-01 0.49081818E+03</pdfrwt>
<totfact> 0.11496943E+03</totfact>
</mgrwt>
</event>
<event>
 5    0  0.2754780E-002  0.5454470E+03  0.7546771E-02  0.1002553E+00
          4   -1    0    0  503    0  0.00000000000E+00  0.00000000000E+00  0.12598551784E+03  0.12598551784E+03  0.00000000000E+00 0. -1.
         -4   -1    0    0    0  501 -0.00000000000E+00 -0.00000000000E+00 -0.67697836309E+03  0.67697836309E+03  0.00000000000E+00 0.  1.
         25    1    1    2    0    0 -0.23262957188E+03  0.27183531551E+02 -0.11062624163E+03  0.28760846204E+03  0.12500000000E+03 0.  0.
         21    1    1    2  502  501  0.25829114977E+02 -0.49742367973E+00  0.24016108886E+01  0.25945295251E+02  0.00000000000E+00 0. -1.
         21    1    1    2  503  502  0.20680045691E+03 -0.26686107871E+02 -0.44276821451E+03  0.48941012363E+03  0.00000000000E+00 0.  1.
<mgrwt>
<rscale>  4 0.54544703E+03</rscale>
<asrwt>0</asrwt>
<pdfrwt beam="1">  1        4 0.19382388E-01 0.54544703E+03</pdfrwt>
<pdfrwt beam="2">  1       -4 0.10415052E+00 0.54544703E+03</pdfrwt>
<totfact> 0.35984702E+01</totfact>
</mgrwt>
</event>
<event>
 5    0  0.2754780E-002  0.5204066E+03  0.7546771E-02  0.1008586E+00
         -4   -1    0    0    0  501 -0.00000000000E+00  0.00000000000E+00  0.67476814312E+03  0.67476814312E+03  0.00000000000E+00 0.  1.
          4   -1    0    0  502    0  0.00000000000E+00 -0.00000000000E+00 -0.12250765163E+03  0.12250765163E+03  0.00000000000E+00 0. -1.
         25    1    1    2    0    0 -0.20824654897E+03 -0.91666395800E+02  0.20993706444E+03  0.33386812412E+03  0.12500000000E+03 0.  0.
         21    1    1    2  502  503  0.22918198157E+03  0.99009871113E+02  0.35784869212E+03  0.43632902918E+03  0.00000000000E+00 0.  1.
         21    1    1    2  503  501 -0.20935432594E+02 -0.73434753132E+01 -0.15525265067E+02  0.27078641454E+02  0.00000000000E+00 0. -1.
<mgrwt>
<rscale>  4 0.52040656E+03</rscale>
<asrwt>0</asrwt>
<pdfrwt beam="1">  1        4 0.18847331E-01 0.52040656E+03</pdfrwt>
<pdfrwt beam="2">  1       -4 0.10381048E+00 0.52040656E+03</pdfrwt>
<totfact> 0.38059215E+01</totfact>
</mgrwt>
</event>
<event>
 5    0  0.2754780E-002  0.5226149E+03  0.7546771E-02  0.1008039E+00
         -1   -1    0    0    0  501 -0.00000000000E+00  0.00000000000E+00  0.61044103922E+02  0.61044103922E+02  0.00000000000E+00 0.  1.
          1   -1    0    0  503    0  0.00000000000E+00 -0.00000000000E+00 -0.17163140297E+04  0.17163140297E+04  0.00000000000E+00 0. -1.
         25    1    1    2    0    0  0.16146601448E+03 -0.19057302363E+03 -0.75614843116E+03  0.80608610031E+03  0.12500000000E+03 0.  0.
         21    1    1    2  502  501  0.52638267024E+02  0.93312633212E+02 -0.46881585442E+03  0.48090159079E+03  0.00000000000E+00 0. -1.
         21    1    1    2  503  502 -0.21410428151E+03  0.97260390416E+02 -0.43030564016E+03  0.49037044248E+03  0.00000000000E+00 0. -1.
<mgrwt>
<rscale>  4 0.52261487E+03</rscale>
<asrwt>0</asrwt>
<pdfrwt beam="1">  1        1 0.26404834E+00 0.52261487E+03</pdfrwt>
<pdfrwt beam="2">  1       -1 0.93913996E-02 0.52261487E+03</pdfrwt>
<totfact> 0.33688505E+02</totfact>
</mgrwt>
</event>
<event>
 5    0  0.2754780E-002  0.4679582E+03  0.7546771E-02  0.1022498E+00
          2   -1    0    0  502    0  0.00000000000E+00  0.00000000000E+00  0.25017756758E+04  0.25017756758E+04  0.00000000000E+00 0.  1.
         -2   -1    0    0    0  501 -0.00000000000E+00 -0.00000000000E+00 -0.67365090084E+02  0.67365090084E+02  0.00000000000E+00 0. -1.
         25    1    1    2    0    0 -0.10210694017E+03 -0.21874083583E+03  0.39691787409E+03  0.48108437853E+03  0.12500000000E+03 0.  0.
         21    1    1    2  502  503  0.96209609320E+02  0.16859575643E+03  0.35336493438E+03  0.40317191725E+03  0.00000000000E+00 0. -1.
         21    1    1    2  503  501  0.58973308511E+01  0.50145079402E+02  0.16841277772E+04  0.16848844701E+04  0.00000000000E+00 0.  1.
<mgrwt>
<rscale>  4 0.46795823E+03</rscale>
<asrwt>0</asrwt>
<pdfrwt beam="1">  1        2 0.38488849E+00 0.46795823E+03</pdfrwt>
<pdfrwt beam="2">  1       -2 0.10363862E-01 0.46795823E+03</pdfrwt>
<totfact> 0.24157753E+02</totfact>
</mgrwt>
</event>
<event>
 5    0  0.2754780E-002  0.5138046E+03  0.7546771E-02  0.1010237E+00
          2   -1    0    0  503    0  0.00000000000E+00  0.00000000000E+00  0.13601774067E+04  0.13601774067E+04  0.00000000000E+00 0.  1.
         -2   -1    0    0    0  501 -0.00000000000E+00 -0.00000000000E+00 -0.61592510679E+02  0.61592510679E+02  0.00000000000E+00 0. -1.
         25    1    1    2    0    0  0.18931180225E+03  0.77652604344E+02  0.24834127680E+03  0.34520613435E+03  0.12500000000E+03 0.  0.
         21    1    1    2  502  501 -0.13134835600E+02  0.16541485366E+02  0.28130962459E+03  0.28210148800E+03  0.00000000000E+00 0. -1.
         21    1    1    2  503  502 -0.17617696665E+03 -0.94194089710E+02  0.76893399464E+03  0.79446229504E+03  0.00000000000E+00 0.  1.
<mgrwt>
<rscale>  4 0.51380458E+03</rscale>
<asrwt>0</asrwt>
<pdfrwt beam="1">  1        2 0.20925804E+00 0.51380458E+03</pdfrwt>
<pdfrwt beam="2">  1       -2 0.94757718E-02 0.51380458E+03</pdfrwt>
<totfact> 0.11634741E+03</totfact>
</mgrwt>
</event>
<event>
 5    0  0.2754780E-002  0.5953010E+03  0.7546771E-02  0.9915203E-01
         -1   -1    0    0    0  501 -0.00000000000E+00  0.00000000000E+00  0.68180289428E+02  0.68180289428E+02  0.00000000000E+00 0.  1.
          1   -1    0    0  502    0  0.00000000000E+00 -0.00000000000E+00 -0.18959208327E+04  0.18959208327E+04  0.00000000000E+00 0. -1.
         25    1    1    2    0    0  0.21729019526E+03  0.75467092233E+02 -0.10471190989E+04  0.10793487473E+04  0.12500000000E+03 0.  0.
         21    1    1    2  502  503 -0.19588596103E+03 -0.11675345553E+03 -0.20313263694E+03  0.30539408523E+03  0.00000000000E+00 0.  1.
         21    1    1    2  503  501 -0.21404234231E+02  0.41286363296E+02 -0.57748880747E+03  0.57935828966E+03  0.00000000000E+00 0.  1.
<mgrwt>
<rscale>  4 0.59530102E+03</rscale>
<asrwt>0</asrwt>
<pdfrwt beam="1">  1        1 0.29168016E+00 0.59530102E+03</pdfrwt>
<pdfrwt beam="2">  1       -1 0.10489274E-01 0.59530102E+03</pdfrwt>
<totfact> 0.21350509E+02</totfact>
</mgrwt>
</event>
<event>
 5    0  0.2754780E-002  0.6711094E+03  0.7546771E-02  0.9767956E-01
         -1   -1    0    0    0  501 -0.00000000000E+00  0.00000000000E+00  0.15372243320E+03  0.15372243320E+03  0.00000000000E+00 0. -1.
          1   -1    0    0  503    0  0.00000000000E+00 -0.00000000000E+00 -0.11987901430E+04  0.11987901430E+04  0.00000000000E+00 0.  1.
         25    1    1    2    0    0 -0.17245855148E+03  0.21852612357E+03 -0.51311718752E+03  0.59700072595E+03  0.12500000000E+03 0.  0.
         21    1    1    2  502  501  0.32934959735E+03 -0.11821705885E+03 -0.33400387173E+03  0.48374065016E+03  0.00000000000E+00 0. -1.
         21    1    1    2  503  502 -0.15689104587E+03 -0.10030906472E+03 -0.19794665058E+03  0.27177120012E+03  0.00000000000E+00 0.  1.
<mgrwt>
<rscale>  4 0.67110940E+03</rscale>
<asrwt>0</asrwt>
<pdfrwt beam="1">  1        1 0.18442926E+00 0.67110940E+03</pdfrwt>
<pdfrwt beam="2">  1       -1 0.23649604E-01 0.67110940E+03</pdfrwt>
<totfact> 0.16858550E+02</totfact>
</mgrwt>
</event>
<event>
 5    0  0.2754780E-002  0.8000333E+03  0.7546771E-02  0.9559969E-01
         -2   -1    0    0    0  501 -0.00000000000E+00  0.00000000000E+00  0.25045010987E+03  0.25045010987E+03  0.00000000000E+00 0.  1.
          2   -1    0    0  503    0  0.00000000000E+00 -0.00000000000E+00 -0.83650873318E+03  0.83650873318E+03  0.00000000000E+00 0. -1.
         25    1    1    2    0    0  0.79895489595E+02  0.32733456744E+03 -0.18203349325E+03  0.40285531020E+03  0.12500000000E+03 0.  0.
         21    1    1    2  502  501 -0.37217596721E+02  0.10287457681E+03 -0.32636511630E+02  0.11416422360E+03  0.00000000000E+00 0.  1.
         21    1    1    2  503  502 -0.42677892874E+02 -0.43020914424E+03 -0.37138861843E+03  0.56993930925E+03  0.00000000000E+00 0. -1.
<mgrwt>
<rscale>  4 0.80003334E+03</rscale>
<asrwt>0</asrwt>
<pdfrwt beam="1">  1        2 0.12869365E+00 0.80003334E+03</pdfrwt>
<pdfrwt beam="2">  1       -2 0.38530787E-01 0.80003334E+03</pdfrwt>
<totfact> 0.20780483E+02</totfact>
</mgrwt>
</event>
<event>
 5    0  0.2754780E-002  0.7707925E+03  0.7546771E-02  0.9603283E-01
          2   -1    0    0  502    0  0.00000000000E+00  0.00000000000E+00  0.14149409752E+04  0.14149409752E+04  0.00000000000E+00 0.  1.
         -2   -1    0    0    0  501 -0.00000000000E+00 -0.00000000000E+00 -0.15271298072E+03  0.15271298072E+03  0.00000000000E+00 0. -1.
         25    1    1    2    0    0 -0.32199376434E+03 -0.22258735207E+02  0.14850270369E+03  0.37663442297E+03  0.12500000000E+03 0.  0.
         21    1    1    2  502  503  0.32882082017E+03 -0.13903092794E+02  0.67712423382E+03  0.75287027820E+03  0.00000000000E+00 0.  1.
         21    1    1    2  503  501 -0.68270558335E+01  0.36161828001E+02  0.43660105697E+03  0.43814925476E+03  0.00000000000E+00 0. -1.
<mgrwt>
<rscale>  4 0.77079247E+03</rscale>
<asrwt>0</asrwt>
<pdfrwt beam="1">  1        2 0.21768322E+00 0.77079247E+03</pdfrwt>
<pdfrwt beam="2">  1       -2 0.23494306E-01 0.77079247E+03</pdfrwt>
<totfact> 0.23012261E+02</totfact>
</mgrwt>
</event>
<event>
 5    0  0.2754780E-002  0.6410886E+03  0.7546771E-02  0.9823646E-01
          2   -1    0    0  502    0  0.00000000000E+00  0.00000000000E+00  0.95557767651E+03  0.95557767651E+03  0.00000000000E+00 0.  1.
         -2   -1    0    0    0  501 -0.00000000000E+00 -0.00000000000E+00 -0.14979314356E+03  0.14979314356E+03  0.00000000000E+00 0. -1.
         25    1    1    2    0    0 -0.10691060226E+03  0.17514547463E+03  0.64146394739E+03  0.68498672247E+03  0.12500000000E+03 0.  0.
         21    1    1    2  502  503  0.15784689987E+03 -0.95823030304E+02 -0.45657095182E+02  0.19021636963E+03  0.00000000000E+00 0. -1.
         21    1    1    2  503  501 -0.50936297616E+02 -0.79322444325E+02  0.20997768074E+03  0.23016772797E+03  0.00000000000E+00 0.  1.
<mgrwt>
<rscale>  4 0.64108864E+03</rscale>
<asrwt>0</asrwt>
<pdfrwt beam="1">  1        2 0.14701195E+00 0.64108864E+03</pdfrwt>
<pdfrwt beam="2">  1       -2 0.23045100E-01 0.64108864E+03</pdfrwt>
<totfact> 0.45156165E+02</totfact>
</mgrwt>
</event>
<event>
 5    0  0.2754780E-002  0.4386888E+03  0.7546771E-02  0.1031150E+00
         -2   -1    0    0    0  501 -0.00000000000E+00  0.00000000000E+00  0.10966953736E+03  0.10966953736E+03  0.00000000000E+00 0. -1.
          2   -1    0    0  502    0  0.00000000000E+00 -0.00000000000E+00 -0.59515836429E+03  0.59515836429E+03  0.00000000000E+00 0.  1.
         25    1    1    2    0    0 -0.92268454508E+02 -0.20851841599E+03 -0.22794548609E+03  0.34579985850E+03  0.12500000000E+03 0.  0.
         21    1    1    2  502  503  0.84479953719E+02  0.15649649390E+03 -0.12772022398E+03  0.21895312466E+03  0.00000000000E+00 0.  1.
         21    1    1    2  503  501  0.77885007893E+01  0.52021922091E+02 -0.12982311686E+03  0.14007491850E+03  0.00000000000E+00 0.  1.
<mgrwt>
<rscale>  4 0.43868877E+03</rscale>
<asrwt>0</asrwt>
<pdfrwt beam="1">  1        2 0.91562826E-01 0.43868877E+03</pdfrwt>
<pdfrwt beam="2">  1       -2 0.16872236E-01 0.43868877E+03</pdfrwt>
<totfact> 0.14359064E+03</totfact>
</mgrwt>
</event>
<event>
 5    0  0.2754780E-002  0.4845093E+03  0.7546771E-02  0.1017903E+00
          2   -1    0    0  503    0  0.00000000000E+00  0.00000000000E+00  0.83841424981E+03  0.83841424981E+03  0.00000000000E+00 0. -1.
         -2   -1    0    0    0  501 -0.00000000000E+00 -0.00000000000E+00 -0.21726533307E+03  0.21726533307E+03  0.00000000000E+00 0.  1.
         25    1    1    2    0    0  0.20747989151E+03  0.33686185539E+02 -0.81982411172E+02  0.25793173558E+03  0.12500000000E+03 0.  0.
         21    1    1    2  502  501 -0.25946108518E+02  0.32491393231E+01  0.56762037243E+03  0.56822235493E+03  0.00000000000E+00 0. -1.
         21    1    1    2  503  502 -0.18153378299E+03 -0.36935324862E+02  0.13551095549E+03  0.22952549237E+03  0.00000000000E+00 0. -1.
<mgrwt>
<rscale>  4 0.48450928E+03</rscale>
<asrwt>0</asrwt>
<pdfrwt beam="1">  1        2 0.12898681E+00 0.48450928E+03</pdfrwt>
<pdfrwt beam="2">  1       -2 0.33425436E-01 0.48450928E+03</pdfrwt>
<totfact> 0.27670469E+02</totfact>
</mgrwt>
</event>
<event>
 5    0  0.2754780E-002  0.5689623E+03  0.7546771E-02  0.9971978E-01
          2   -1    0    0  502    0  0.00000000000E+00  0.00000000000E+00  0.58171241856E+03  0.58171241856E+03  0.00000000000E+00 0.  1.
         -2   -1    0    0    0  501 -0.00000000000E+00 -0.00000000000E+00 -0.16799435484E+03  0.16799435484E+03  0.00000000000E+00 0. -1.
         25    1    1    2    0    0 -0.22657295334E+03 -0.99489208506E+02  0.27313244017E+03  0.38917828263E+03  0.12500000000E+03 0.  0.
         21    1    1    2  502  503  0.22849065428E+03  0.12209458537E+03  0.45821765075E+02  0.26308686973E+03  0.00000000000E+00 0. -1.
         21    1    1    2  503  501 -0.19177009365E+01 -0.22605376864E+02  0.94763858467E+02  0.97441621043E+02  0.00000000000E+00 0.  1.
<mgrwt>
<rscale>  4 0.56896225E+03</rscale>
<asrwt>0</asrwt>
<pdfrwt beam="1">  1        2 0.89494218E-01 0.56896225E+03</pdfrwt>
<pdfrwt beam="2">  1       -2 0.25845286E-01 0.56896225E+03</pdfrwt>
<totfact> 0.69923747E+02</totfact>
</mgrwt>
</event>
<event>
 5    0  0.2754780E-002  0.4912313E+03  0.7546771E-02  0.1016093E+00
         -2   -1    0    0    0  501 -0.00000000000E+00  0.00000000000E+00  0.71786881375E+02  0.71786881375E+02  0.00000000000E+00 0.  1.
          2   -1    0    0  502    0  0.00000000000E+00 -0.00000000000E+00 -0.18048209901E+04  0.18048209901E+04  0.00000000000E+00 0. -1.
         25    1    1    2    0    0 -0.35022523678E+02 -0.23979749172E+03 -0.35836553691E+03  0.45031130592E+03  0.12500000000E+03 0.  0.
         21    1    1    2  502  503  0.21310382548E+02  0.21076608486E+03 -0.41362879329E+03  0.46472061883E+03  0.00000000000E+00 0. -1.
         21    1    1    2  503  501  0.13712141129E+02  0.29031406860E+02 -0.96103977858E+03  0.96157594677E+03  0.00000000000E+00 0. -1.
<mgrwt>
<rscale>  4 0.49123129E+03</rscale>
<asrwt>0</asrwt>
<pdfrwt beam="1">  1        2 0.27766475E+00 0.49123129E+03</pdfrwt>
<pdfrwt beam="2">  1       -2 0.11044136E-01 0.49123129E+03</pdfrwt>
<totfact> 0.51982256E+02</totfact>
</mgrwt>
</event>
<event>
 5    0  0.2754780E-002  0.5509900E+03  0.7546771E-02  0.1001265E+00
         -4   -1    0    0    0  501 -0.00000000000E+00  0.00000000000E+00  0.49665997059E+02  0.49665997059E+02  0.00000000000E+00 0.  1.
          4   -1    0    0  503    0  0.00000000000E+00 -0.00000000000E+00 -0.15281583001E+04  0.15281583001E+04  0.00000000000E+00 0. -1.
         25    1    1    2    0    0 -0.11024301187E+03  0.20505853358E+03 -0.46462597905E+03  0.53451363338E+03  0.12500000000E+03 0.  0.
         21    1    1    2  502  501  0.34475303885E+02 -0.89389580248E+02 -0.58242820574E+03  0.59025558742E+03  0.00000000000E+00 0. -1.
         21    1    1    2  503  502  0.75767707982E+02 -0.11566895334E+03 -0.43143811826E+03  0.45305507638E+03  0.00000000000E+00 0.  1.
<mgrwt>
<rscale>  4 0.55099004E+03</rscale>
<asrwt>0</asrwt>
<pdfrwt beam="1">  1        4 0.23510128E+00 0.55099004E+03</pdfrwt>
<pdfrwt beam="2">  1       -4 0.76409226E-02 0.55099004E+03</pdfrwt>
<totfact> 0.19847878E+01</totfact>
</mgrwt>
</event>
<event>
 5    0  0.2754780E-002  0.5632297E+03  0.7546771E-02  0.9984773E-01
          2   -1    0    0  502    0  0.00000000000E+00  0.00000000000E+00  0.20487931574E+04  0.20487931574E+04  0.00000000000E+00 0. -1.
         -2   -1    0    0    0  501 -0.00000000000E+00 -0.00000000000E+00 -0.41911276671E+02  0.41911276671E+02  0.00000000000E+00 0.  1.
         25    1    1    2    0    0 -0.23697786924E+03  0.22527398890E+02  0.57505587803E+03  0.63480725978E+03  0.12500000000E+03 0.  0.
         21    1    1    2  502  503  0.23045150857E+03 -0.43137992138E+02  0.13794887098E+04  0.13992704830E+04  0.00000000000E+00 0.  1.
         21    1    1    2  503  501  0.65263606709E+01  0.20610593248E+02  0.52337292924E+02  0.56626691306E+02  0.00000000000E+00 0. -1.
<mgrwt>
<rscale>  4 0.56322972E+03</rscale>
<asrwt>0</asrwt>
<pdfrwt beam="1">  1        2 0.31519887E+00 0.56322972E+03</pdfrwt>
<pdfrwt beam="2">  1       -2 0.64478903E-02 0.56322972E+03</pdfrwt>
<totfact> 0.90229489E+02</totfact>
</mgrwt>
</event>
<event>
 5    0  0.2754780E-002  0.4632348E+03  0.7546771E-02  0.1023847E+00
         -1   -1    0    0    0  501 -0.00000000000E+00  0.00000000000E+00  0.12322722369E+03  0.12322722369E+03  0.00000000000E+00 0. -1.
          1   -1    0    0  503    0  0.00000000000E+00 -0.00000000000E+00 -0.59228442022E+03  0.59228442022E+03  0.00000000000E+00 0.  1.
         25    1    1    2    0    0 -0.90412785544E+02 -0.20256791479E+03 -0.29857605823E+03  0.39240399392E+03  0.12500000000E+03 0.  0.
         21    1    1    2  502  501  0.27991124749E+02  0.39924532651E+02 -0.13738515377E+03  0.14578117796E+03  0.00000000000E+00 0.  1.
         21    1    1    2  503  502  0.62421660795E+02  0.16264338214E+03 -0.33095984529E+02  0.17732647203E+03  0.00000000000E+00 0. -1.
<mgrwt>
<rscale>  4 0.46323478E+03</rscale>
<asrwt>0</asrwt>
<pdfrwt beam="1">  1        1 0.91120681E-01 0.46323478E+03</pdfrwt>
<pdfrwt beam="2">  1       -1 0.18958034E-01 0.46323478E+03</pdfrwt>
<totfact> 0.78741553E+02</totfact>
</mgrwt>
</event>
<event>
 5    0  0.2754780E-002  0.7892531E+03  0.7546771E-02  0.9575704E-01
          1   -1    0    0  503    0  0.00000000000E+00  0.00000000000E+00  0.15485096164E+04  0.15485096164E+04  0.00000000000E+00 0.  1.
         -1   -1    0    0    0  501 -0.00000000000E+00 -0.00000000000E+00 -0.25221694192E+03  0.25221694192E+03  0.00000000000E+00 0. -1.
         25    1    1    2    0    0 -0.37893342511E+03 -0.64520307050E+02  0.63272752822E+02  0.40912327230E+03  0.12500000000E+03 0.  0.
         21    1    1    2  502  501  0.39505182067E+02 -0.88038060679E+01  0.92954415848E+03  0.93042490776E+03  0.00000000000E+00 0.  1.
         21    1    1    2  503  502  0.33942824305E+03  0.73324113118E+02  0.30347576320E+03  0.46117837828E+03  0.00000000000E+00 0.  1.
<mgrwt>
<rscale>  4 0.78925312E+03</rscale>
<asrwt>0</asrwt>
<pdfrwt beam="1">  1        1 0.23823224E+00 0.78925312E+03</pdfrwt>
<pdfrwt beam="2">  1       -1 0.38802608E-01 0.78925312E+03</pdfrwt>
<totfact> 0.39988114E+01</totfact>
</mgrwt>
</event>
<event>
 5    0  0.2754780E-002  0.4708242E+03  0.7546771E-02  0.1021688E+00
          1   -1    0    0  503    0  0.00000000000E+00  0.00000000000E+00  0.23818779644E+03  0.23818779644E+03  0.00000000000E+00 0.  1.
         -1   -1    0    0    0  501 -0.00000000000E+00 -0.00000000000E+00 -0.37434074895E+03  0.37434074895E+03  0.00000000000E+00 0. -1.
         25    1    1    2    0    0  0.18471429838E+03  0.17058601594E+03 -0.21119740182E+02  0.28158480834E+03  0.12500000000E+03 0.  0.
         21    1    1    2  502  501 -0.11788878491E+03 -0.14166644851E+02  0.10997104333E+02  0.11924510782E+03  0.00000000000E+00 0.  1.
         21    1    1    2  503  502 -0.66825513470E+02 -0.15641937109E+03 -0.12603031666E+03  0.21169862924E+03  0.00000000000E+00 0. -1.
<mgrwt>
<rscale>  4 0.47082418E+03</rscale>
<asrwt>0</asrwt>
<pdfrwt beam="1">  1        1 0.36644277E-01 0.47082418E+03</pdfrwt>
<pdfrwt beam="2">  1       -1 0.57590884E-01 0.47082418E+03</pdfrwt>
<totfact> 0.36821869E+02</totfact>
</mgrwt>
</event>
<event>
 5    0  0.2754780E-002  0.5668166E+03  0.7546771E-02  0.9976748E-01
          2   -1    0    0  503    0  0.00000000000E+00  0.00000000000E+00  0.19556139251E+03  0.19556139251E+03  0.00000000000E+00 0. -1.
         -2   -1    0    0    0  501 -0.00000000000E+00 -0.00000000000E+00 -0.48982530262E+03  0.48982530262E+03  0.00000000000E+00 0.  1.
         25    1    1    2    0    0  0.35526134864E+01 -0.25071998856E+03 -0.64281311838E+01  0.28024891542E+03  0.12500000000E+03 0.  0.
         21    1    1    2  502  501  0.43091306123E+02  0.29406773259E+02 -0.23418802084E+02  0.57184432042E+02  0.00000000000E+00 0. -1.
         21    1    1    2  503  502 -0.46643919609E+02  0.22131321530E+03 -0.26441697684E+03  0.34795334766E+03  0.00000000000E+00 0.  1.
<mgrwt>
<rscale>  4 0.56681656E+03</rscale>
<asrwt>0</asrwt>
<pdfrwt beam="1">  1        2 0.30086369E-01 0.56681656E+03</pdfrwt>
<pdfrwt beam="2">  1       -2 0.75357738E-01 0.56681656E+03</pdfrwt>
<totfact> 0.28358979E+02</totfact>
</mgrwt>
</event>
<event>
 5    0  0.2754780E-002  0.7478594E+03  0.7546771E-02  0.9638715E-01
         -2   -1    0    0    0  501 -0.00000000000E+00  0.00000000000E+00  0.10674047023E+03  0.10674047023E+03  0.00000000000E+00 0. -1.
          2   -1    0    0  503    0  0.00000000000E+00 -0.00000000000E+00 -0.14704928508E+04  0.14704928508E+04  0.00000000000E+00 0.  1.
         25    1    1    2    0    0  0.27129177503E+03 -0.53037156385E+02 -0.11376055451E+04  0.11773629616E+04  0.12500000000E+03 0.  0.
         21    1    1    2  502  501 -0.29047172124E+02  0.15050407148E+02 -0.13397934251E+03  0.13791561617E+03  0.00000000000E+00 0. -1.
         21    1    1    2  503  502 -0.24224460291E+03  0.37986749237E+02 -0.92167492992E+02  0.26195474327E+03  0.00000000000E+00 0. -1.
<mgrwt>
<rscale>  4 0.74785943E+03</rscale>
<asrwt>0</asrwt>
<pdfrwt beam="1">  1        2 0.22622966E+00 0.74785943E+03</pdfrwt>
<pdfrwt beam="2">  1       -2 0.16421612E-01 0.74785943E+03</pdfrwt>
<totfact> 0.40101045E+02</totfact>
</mgrwt>
</event>
<event>
 5    0  0.2754780E-002  0.1718564E+04  0.7546771E-02  0.8750847E-01
         -1   -1    0    0    0  501 -0.00000000000E+00  0.00000000000E+00  0.49416827989E+03  0.49416827989E+03  0.00000000000E+00 0.  1.
          1   -1    0    0  502    0  0.00000000000E+00 -0.00000000000E+00 -0.16938753165E+04  0.16938753165E+04  0.00000000000E+00 0. -1.
         25    1    1    2    0    0  0.36217878303E+02 -0.22061860108E+03 -0.15092576388E+04  0.15308389602E+04  0.12500000000E+03 0.  0.
         21    1    1    2  502  503  0.64843256088E+02  0.23934697841E+03  0.43152465249E+03  0.49769985899E+03  0.00000000000E+00 0.  1.
         21    1    1    2  503  501 -0.10106113439E+03 -0.18728377324E+02 -0.12197405034E+03  0.15950477723E+03  0.00000000000E+00 0.  1.
<mgrwt>
<rscale>  4 0.17185637E+04</rscale>
<asrwt>0</asrwt>
<pdfrwt beam="1">  1        1 0.26059621E+00 0.17185637E+04</pdfrwt>
<pdfrwt beam="2">  1       -1 0.76025888E-01 0.17185637E+04</pdfrwt>
<totfact> 0.79250575E+00</totfact>
</mgrwt>
</event>
<event>
 5    0  0.2754780E-002  0.5817888E+03  0.7546771E-02  0.9943926E-01
          2   -1    0    0  502    0  0.00000000000E+00  0.00000000000E+00  0.14886022390E+04  0.14886022390E+04  0.00000000000E+00 0.  1.
         -2   -1    0    0    0  501 -0.00000000000E+00 -0.00000000000E+00 -0.73679741012E+02  0.73679741012E+02  0.00000000000E+00 0. -1.
         25    1    1    2    0    0  0.83094004439E+02  0.25842510607E+03  0.43936835422E+03  0.53137340892E+03  0.12500000000E+03 0.  0.
         21    1    1    2  502  503 -0.29955881839E+02 -0.26474691755E+03  0.67598810332E+03  0.72660044112E+03  0.00000000000E+00 0.  1.
         21    1    1    2  503  501 -0.53138122600E+02  0.63218114839E+01  0.29956604044E+03  0.30430812996E+03  0.00000000000E+00 0.  1.
<mgrwt>
<rscale>  4 0.58178878E+03</rscale>
<asrwt>0</asrwt>
<pdfrwt beam="1">  1        2 0.22901571E+00 0.58178878E+03</pdfrwt>
<pdfrwt beam="2">  1       -2 0.11335346E-01 0.58178878E+03</pdfrwt>
<totfact> 0.73521356E+02</totfact>
</mgrwt>
</event>
<event>
 5    0  0.2754780E-002  0.5611354E+03  0.7546771E-02  0.9989489E-01
         -1   -1    0    0    0  501 -0.00000000000E+00  0.00000000000E+00  0.11286004842E+03  0.11286004842E+03  0.00000000000E+00 0. -1.
          1   -1    0    0  502    0  0.00000000000E+00 -0.00000000000E+00 -0.16932720062E+04  0.16932720062E+04  0.00000000000E+00 0.  1.
         25    1    1    2    0    0  0.17180865007E+03  0.27535828142E+03 -0.35307936153E+03  0.49561116908E+03  0.12500000000E+03 0.  0.
         21    1    1    2  502  503 -0.83000274797E+02 -0.19519147977E+03 -0.25873877750E+03  0.33456615843E+03  0.00000000000E+00 0. -1.
         21    1    1    2  503  501 -0.88808375270E+02 -0.80166801652E+02 -0.96859381876E+03  0.97595472710E+03  0.00000000000E+00 0. -1.
<mgrwt>
<rscale>  4 0.56113542E+03</rscale>
<asrwt>0</asrwt>
<pdfrwt beam="1">  1        1 0.26050339E+00 0.56113542E+03</pdfrwt>
<pdfrwt beam="2">  1       -1 0.17363084E-01 0.56113542E+03</pdfrwt>
<totfact> 0.13005959E+02</totfact>
</mgrwt>
</event>
<event>
 5    0  0.2754780E-002  0.4641064E+03  0.7546771E-02  0.1023597E+00
          1   -1    0    0  503    0  0.00000000000E+00  0.00000000000E+00  0.45954838379E+03  0.45954838379E+03  0.00000000000E+00 0.  1.
         -1   -1    0    0    0  501 -0.00000000000E+00 -0.00000000000E+00 -0.15083694577E+03  0.15083694577E+03  0.00000000000E+00 0. -1.
         25    1    1    2    0    0 -0.30819880637E+02  0.20940221539E+03  0.20874808858E+03  0.32249018177E+03  0.12500000000E+03 0.  0.
         21    1    1    2  502  501 -0.14837897374E+01 -0.24720711358E+02  0.97288048654E+02  0.10039063509E+03  0.00000000000E+00 0. -1.
         21    1    1    2  503  502  0.32303670374E+02 -0.18468150403E+03  0.26753007858E+01  0.18750451271E+03  0.00000000000E+00 0.  1.
<mgrwt>
<rscale>  4 0.46410639E+03</rscale>
<asrwt>0</asrwt>
<pdfrwt beam="1">  1        1 0.70699751E-01 0.46410639E+03</pdfrwt>
<pdfrwt beam="2">  1       -1 0.23205684E-01 0.46410639E+03</pdfrwt>
<totfact> 0.79726524E+02</totfact>
</mgrwt>
</event>
<event>
 5    0  0.2754780E-002  0.5856691E+03  0.7546771E-02  0.9935592E-01
         -4   -1    0    0    0  501 -0.00000000000E+00  0.00000000000E+00  0.63716020299E+03  0.63716020299E+03  0.00000000000E+00 0.  1.
          4   -1    0    0  502    0  0.00000000000E+00 -0.00000000000E+00 -0.21778678081E+03  0.21778678081E+03  0.00000000000E+00 0. -1.
         25    1    1    2    0    0  0.13107574420E+03  0.22417365712E+03  0.15249807966E+03  0.32606033730E+03  0.12500000000E+03 0.  0.
         21    1    1    2  502  503 -0.16113033780E+03 -0.22474789361E+03  0.34676316916E+03  0.44353049154E+03  0.00000000000E+00 0.  1.
         21    1    1    2  503  501  0.30054593598E+02  0.57423649752E+00 -0.79887826635E+02  0.85356154953E+02  0.00000000000E+00 0. -1.
<mgrwt>
<rscale>  4 0.58566906E+03</rscale>
<asrwt>0</asrwt>
<pdfrwt beam="1">  1        4 0.33505659E-01 0.58566906E+03</pdfrwt>
<pdfrwt beam="2">  1       -4 0.98024646E-01 0.58566906E+03</pdfrwt>
<totfact> 0.14756231E+01</totfact>
</mgrwt>
</event>
<event>
 5    0  0.2754780E-002  0.4865628E+03  0.7546771E-02  0.1017347E+00
          2   -1    0    0  503    0  0.00000000000E+00  0.00000000000E+00  0.38046980975E+04  0.38046980975E+04  0.00000000000E+00 0. -1.
         -2   -1    0    0    0  501 -0.00000000000E+00 -0.00000000000E+00 -0.41181431080E+02  0.41181431080E+02  0.00000000000E+00 0.  1.
         25    1    1    2    0    0  0.40957370512E+02  0.23395746281E+03  0.53491301171E+03  0.59847350041E+03  0.12500000000E+03 0.  0.
         21    1    1    2  502  501 -0.44676991732E+02 -0.56505453928E+02  0.23474044886E+04  0.23485094705E+04  0.00000000000E+00 0.  1.
         21    1    1    2  503  502  0.37196212200E+01 -0.17745200888E+03  0.88119916619E+03  0.89889655774E+03  0.00000000000E+00 0. -1.
<mgrwt>
<rscale>  4 0.48656283E+03</rscale>
<asrwt>0</asrwt>
<pdfrwt beam="1">  1        2 0.58533789E+00 0.48656283E+03</pdfrwt>
<pdfrwt beam="2">  1       -2 0.63356078E-02 0.48656283E+03</pdfrwt>
<totfact> 0.79544796E+01</totfact>
</mgrwt>
</event>
<event>
 5    0  0.2754780E-002  0.5626873E+03  0.7546771E-02  0.9985992E-01
         -2   -1    0    0    0  501 -0.00000000000E+00  0.00000000000E+00  0.54371995650E+02  0.54371995650E+02  0.00000000000E+00 0.  1.
          2   -1    0    0  502    0  0.00000000000E+00 -0.00000000000E+00 -0.17200785659E+04  0.17200785659E+04  0.00000000000E+00 0. -1.
         25    1    1    2    0    0  0.10333121204E+03  0.22571618218E+03 -0.46880736715E+03  0.54500502913E+03  0.12500000000E+03 0.  0.
         21    1    1    2  502  503 -0.12952823489E+03 -0.20625957725E+03 -0.96499502551E+03  0.99525673878E+03  0.00000000000E+00 0. -1.
         21    1    1    2  503  501  0.26197022854E+02 -0.19456604923E+02 -0.23190417761E+03  0.23418879366E+03  0.00000000000E+00 0. -1.
<mgrwt>
<rscale>  4 0.56268731E+03</rscale>
<asrwt>0</asrwt>
<pdfrwt beam="1">  1        2 0.26462741E+00 0.56268731E+03</pdfrwt>
<pdfrwt beam="2">  1       -2 0.83649245E-02 0.56268731E+03</pdfrwt>
<totfact> 0.89928453E+02</totfact>
</mgrwt>
</event>
<event>
 5    0  0.2754780E-002  0.6709275E+03  0.7546771E-02  0.9768284E-01
          1   -1    0    0  502    0  0.00000000000E+00  0.00000000000E+00  0.12343025888E+04  0.12343025888E+04  0.00000000000E+00 0.  1.
         -1   -1    0    0    0  501 -0.00000000000E+00 -0.00000000000E+00 -0.13567809853E+03  0.13567809853E+03  0.00000000000E+00 0. -1.
         25    1    1    2    0    0  0.17108263125E+03 -0.15011422601E+03  0.64073791392E+03  0.69135636390E+03  0.12500000000E+03 0.  0.
         21    1    1    2  502  503 -0.14705189036E+03  0.27950387226E+03  0.16235167516E+03  0.35511229139E+03  0.00000000000E+00 0. -1.
         21    1    1    2  503  501 -0.24030740890E+02 -0.12938964625E+03  0.29553490123E+03  0.32351203210E+03  0.00000000000E+00 0.  1.
<mgrwt>
<rscale>  4 0.67092754E+03</rscale>
<asrwt>0</asrwt>
<pdfrwt beam="1">  1        1 0.18989270E+00 0.67092754E+03</pdfrwt>
<pdfrwt beam="2">  1       -1 0.20873554E-01 0.67092754E+03</pdfrwt>
<totfact> 0.19608178E+02</totfact>
</mgrwt>
</event>
<event>
 5    0  0.2754780E-002  0.5398846E+03  0.7546771E-02  0.1003863E+00
          2   -1    0    0  503    0  0.00000000000E+00  0.00000000000E+00  0.43719531129E+03  0.43719531129E+03  0.00000000000E+00 0. -1.
         -2   -1    0    0    0  501 -0.00000000000E+00 -0.00000000000E+00 -0.21367721910E+03  0.21367721910E+03  0.00000000000E+00 0.  1.
         25    1    1    2    0    0 -0.17562082523E+03 -0.15452617449E+03  0.82781982034E+02  0.27784684523E+03  0.12500000000E+03 0.  0.
         21    1    1    2  502  501 -0.52311899516E+02  0.18206138435E+01  0.74045485517E+02  0.90678461562E+02  0.00000000000E+00 0. -1.
         21    1    1    2  503  502  0.22793272474E+03  0.15270556064E+03  0.66690624635E+02  0.28234722360E+03  0.00000000000E+00 0.  1.
<mgrwt>
<rscale>  4 0.53988456E+03</rscale>
<asrwt>0</asrwt>
<pdfrwt beam="1">  1        2 0.67260817E-01 0.53988456E+03</pdfrwt>
<pdfrwt beam="2">  1       -2 0.32873418E-01 0.53988456E+03</pdfrwt>
<totfact> 0.62510966E+02</totfact>
</mgrwt>
</event>
<event>
 5    0  0.2754780E-002  0.3865323E+03  0.7546771E-02  0.1048545E+00
         -1   -1    0    0    0  501 -0.00000000000E+00  0.00000000000E+00  0.13481904107E+03  0.13481904107E+03  0.00000000000E+00 0.  1.
          1   -1    0    0  503    0  0.00000000000E+00 -0.00000000000E+00 -0.54839097588E+03  0.54839097588E+03  0.00000000000E+00 0. -1.
         25    1    1    2    0    0  0.54977308612E+02  0.19313362363E+03 -0.90861189574E+02  0.25338479988E+03  0.12500000000E+03 0.  0.
         21    1    1    2  502  501 -0.19511710899E+02 -0.47391353660E+02 -0.26370834380E+03  0.26864239773E+03  0.00000000000E+00 0. -1.
         21    1    1    2  503  502 -0.35465597713E+02 -0.14574226997E+03 -0.59002401424E+02  0.16118281934E+03  0.00000000000E+00 0. -1.
<mgrwt>
<rscale>  4 0.38653229E+03</rscale>
<asrwt>0</asrwt>
<pdfrwt beam="1">  1        1 0.84367844E-01 0.38653229E+03</pdfrwt>
<pdfrwt beam="2">  1       -1 0.20741391E-01 0.38653229E+03</pdfrwt>
<totfact> 0.75732012E+02</totfact>
</mgrwt>
</event>
<event>
 5    0  0.2754780E-002  0.5024337E+03  0.7546771E-02  0.1013146E+00
          1   -1    0    0  502    0  0.00000000000E+00  0.00000000000E+00  0.63278373914E+03  0.63278373914E+03  0.00000000000E+00 0.  1.
         -1   -1    0    0    0  501 -0.00000000000E+00 -0.00000000000E+00 -0.11432653665E+03  0.11432653665E+03  0.00000000000E+00 0. -1.
         25    1    1    2    0    0 -0.15187526376E+03 -0.17297983321E+03  0.35307434203E+03  0.43963008250E+03  0.12500000000E+03 0.  0.
         21    1    1    2  502  503  0.15122052461E+03  0.15052506795E+03  0.94928768944E+02  0.23353139900E+03  0.00000000000E+00 0. -1.
         21    1    1    2  503  501  0.65473914137E+00  0.22454765265E+02  0.70454091514E+02  0.73948794294E+02  0.00000000000E+00 0. -1.
<mgrwt>
<rscale>  4 0.50243367E+03</rscale>
<asrwt>0</asrwt>
<pdfrwt beam="1">  1        1 0.97351343E-01 0.50243367E+03</pdfrwt>
<pdfrwt beam="2">  1       -1 0.17588698E-01 0.50243367E+03</pdfrwt>
<totfact> 0.80939397E+02</totfact>
</mgrwt>
</event>
<event>
 5    0  0.2754780E-002  0.5612926E+03  0.7546771E-02  0.9989134E-01
         -1   -1    0    0    0  501 -0.00000000000E+00  0.00000000000E+00  0.22201533373E+03  0.22201533373E+03  0.00000000000E+00 0. -1.
          1   -1    0    0  502    0  0.00000000000E+00 -0.00000000000E+00 -0.43502393617E+03  0.43502393617E+03  0.00000000000E+00 0.  1.
         25    1    1    2    0    0 -0.21491603534E+03  0.15455983351E+02  0.94064940925E+02  0.26627242211E+03  0.12500000000E+03 0.  0.
         21    1    1    2  502  503  0.18811514327E+03  0.27702158397E+02 -0.25414259911E+03  0.31740065751E+03  0.00000000000E+00 0.  1.
         21    1    1    2  503  501  0.26800892062E+02 -0.43158141748E+02 -0.52930944257E+02  0.73366190268E+02  0.00000000000E+00 0.  1.
<mgrwt>
<rscale>  4 0.56129262E+03</rscale>
<asrwt>0</asrwt>
<pdfrwt beam="1">  1        1 0.66926759E-01 0.56129262E+03</pdfrwt>
<pdfrwt beam="2">  1       -1 0.34156206E-01 0.56129262E+03</pdfrwt>
<totfact> 0.44044567E+02</totfact>
</mgrwt>
</event>
<event>
 5    0  0.2754780E-002  0.6003372E+03  0.7546771E-02  0.9904707E-01
          1   -1    0    0  502    0  0.00000000000E+00  0.00000000000E+00  0.10234869595E+04  0.10234869595E+04  0.00000000000E+00 0.  1.
         -1   -1    0    0    0  501 -0.00000000000E+00 -0.00000000000E+00 -0.10684229967E+03  0.10684229967E+03  0.00000000000E+00 0. -1.
         25    1    1    2    0    0 -0.16137607268E+03  0.13578562000E+03  0.81547554992E+03  0.85153117615E+03  0.12500000000E+03 0.  0.
         21    1    1    2  502  503  0.11104708504E+03 -0.10533457693E+03 -0.96206105655E+01  0.15336030888E+03  0.00000000000E+00 0. -1.
         21    1    1    2  503  501  0.50328987642E+02 -0.30451043065E+02  0.11078972050E+03  0.12543777418E+03  0.00000000000E+00 0.  1.
<mgrwt>
<rscale>  4 0.60033717E+03</rscale>
<asrwt>0</asrwt>
<pdfrwt beam="1">  1        1 0.15745953E+00 0.60033717E+03</pdfrwt>
<pdfrwt beam="2">  1       -1 0.16437278E-01 0.60033717E+03</pdfrwt>
<totfact> 0.41786066E+02</totfact>
</mgrwt>
</event>
<event>
 5    0  0.2754780E-002  0.8245136E+03  0.7546771E-02  0.9525197E-01
         -1   -1    0    0    0  501 -0.00000000000E+00  0.00000000000E+00  0.70091214118E+03  0.70091214118E+03  0.00000000000E+00 0.  1.
          1   -1    0    0  503    0  0.00000000000E+00 -0.00000000000E+00 -0.40263918353E+03  0.40263918353E+03  0.00000000000E+00 0. -1.
         25    1    1    2    0    0 -0.16205097257E+03 -0.24090509136E+03  0.74436894727E+01  0.31619011570E+03  0.12500000000E+03 0.  0.
         21    1    1    2  502  501  0.19726196488E+03  0.46097435612E+03  0.14855311230E+03  0.52295092214E+03  0.00000000000E+00 0. -1.
         21    1    1    2  503  502 -0.35210992308E+02 -0.22006926476E+03  0.14227615587E+03  0.26441028687E+03  0.00000000000E+00 0. -1.
<mgrwt>
<rscale>  4 0.82451360E+03</rscale>
<asrwt>0</asrwt>
<pdfrwt beam="1">  1        1 0.61944490E-01 0.82451360E+03</pdfrwt>
<pdfrwt beam="2">  1       -1 0.10783264E+00 0.82451360E+03</pdfrwt>
<totfact> 0.48286629E+01</totfact>
</mgrwt>
</event>
<event>
 5    0  0.2754780E-002  0.5032766E+03  0.7546771E-02  0.1012927E+00
         -2   -1    0    0    0  501 -0.00000000000E+00  0.00000000000E+00  0.84317095848E+02  0.84317095848E+02  0.00000000000E+00 0.  1.
          2   -1    0    0  503    0  0.00000000000E+00 -0.00000000000E+00 -0.99432987521E+03  0.99432987521E+03  0.00000000000E+00 0. -1.
         25    1    1    2    0    0 -0.60448036269E+02 -0.20596998098E+03 -0.44988264409E+03  0.51390367931E+03  0.12500000000E+03 0.  0.
         21    1    1    2  502  501  0.49352751982E+01 -0.25968056648E+02 -0.23596466259E+03  0.23744055867E+03  0.00000000000E+00 0. -1.
         21    1    1    2  503  502  0.55512761071E+02  0.23193803763E+03 -0.22416547268E+03  0.32730273308E+03  0.00000000000E+00 0.  1.
<mgrwt>
<rscale>  4 0.50327663E+03</rscale>
<asrwt>0</asrwt>
<pdfrwt beam="1">  1        2 0.15297383E+00 0.50327663E+03</pdfrwt>
<pdfrwt beam="2">  1       -2 0.12971861E-01 0.50327663E+03</pdfrwt>
<totfact> 0.11468981E+03</totfact>
</mgrwt>
</event>
<event>
 5    0  0.2754780E-002  0.5905895E+03  0.7546771E-02  0.9925124E-01
          2   -1    0    0  502    0  0.00000000000E+00  0.00000000000E+00  0.37100682027E+04  0.37100682027E+04  0.00000000000E+00 0. -1.
         -2   -1    0    0    0  501 -0.00000000000E+00 -0.00000000000E+00 -0.49681688104E+02  0.49681688104E+02  0.00000000000E+00 0.  1.
         25    1    1    2    0    0 -0.27595327186E+03  0.15113687197E+03  0.14827398643E+04  0.15208994271E+04  0.12500000000E+03 0.  0.
         21    1    1    2  502  503  0.17504018469E+03  0.51112638718E+02  0.32662197257E+03  0.37407683845E+03  0.00000000000E+00 0. -1.
         21    1    1    2  503  501  0.10091308717E+03 -0.20224951069E+03  0.18510246778E+04  0.18647736253E+04  0.00000000000E+00 0. -1.
<mgrwt>
<rscale>  4 0.59058953E+03</rscale>
<asrwt>0</asrwt>
<pdfrwt beam="1">  1        2 0.57077951E+00 0.59058953E+03</pdfrwt>
<pdfrwt beam="2">  1       -2 0.76433396E-02 0.59058953E+03</pdfrwt>
<totfact> 0.67769907E+01</totfact>
</mgrwt>
</event>
<event>
 5    0  0.2754780E-002  0.6281369E+03  0.7546771E-02  0.9848691E-01
         -2   -1    0    0    0  501 -0.00000000000E+00  0.00000000000E+00  0.53668650813E+03  0.53668650813E+03  0.00000000000E+00 0.  1.
          2   -1    0    0  502    0  0.00000000000E+00 -0.00000000000E+00 -0.18379256086E+03  0.18379256086E+03  0.00000000000E+00 0. -1.
         25    1    1    2    0    0 -0.19678636413E+03 -0.51624172711E+02  0.43024325826E+03  0.49206116448E+03  0.12500000000E+03 0.  0.
         21    1    1    2  502  503  0.13458195792E+03  0.65978154205E+02 -0.43032169043E+02  0.15593969283E+03  0.00000000000E+00 0. -1.
         21    1    1    2  503  501  0.62204406211E+02 -0.14353981494E+02 -0.34317141936E+02  0.72478211674E+02  0.00000000000E+00 0. -1.
<mgrwt>
<rscale>  4 0.62813689E+03</rscale>
<asrwt>0</asrwt>
<pdfrwt beam="1">  1        2 0.28275779E-01 0.62813689E+03</pdfrwt>
<pdfrwt beam="2">  1       -2 0.82567154E-01 0.62813689E+03</pdfrwt>
<totfact> 0.24767936E+02</totfact>
</mgrwt>
</event>
<event>
 5    0  0.2754780E-002  0.8338374E+03  0.7546771E-02  0.9512290E-01
          1   -1    0    0  503    0  0.00000000000E+00  0.00000000000E+00  0.43875354683E+03  0.43875354683E+03  0.00000000000E+00 0.  1.
         -1   -1    0    0    0  501 -0.00000000000E+00 -0.00000000000E+00 -0.53165111463E+03  0.53165111463E+03  0.00000000000E+00 0. -1.
         25    1    1    2    0    0  0.16397331724E+03  0.16089678039E+03  0.25475300694E+03  0.36510151637E+03  0.12500000000E+03 0.  0.
         21    1    1    2  502  501 -0.48937584626E+01 -0.47370115255E+02  0.10334164506E+03  0.11378652071E+03  0.00000000000E+00 0. -1.
         21    1    1    2  503  502 -0.15907955878E+03 -0.11352666514E+03 -0.45099221981E+03  0.49151662438E+03  0.00000000000E+00 0. -1.
<mgrwt>
<rscale>  4 0.83383740E+03</rscale>
<asrwt>0</asrwt>
<pdfrwt beam="1">  1        1 0.67500546E-01 0.83383740E+03</pdfrwt>
<pdfrwt beam="2">  1       -1 0.81792479E-01 0.83383740E+03</pdfrwt>
<totfact> 0.79855687E+01</totfact>
</mgrwt>
</event>
<event>
 5    0  0.2754780E-002  0.4598960E+03  0.7546771E-02  0.1024811E+00
          1   -1    0    0  502    0  0.00000000000E+00  0.00000000000E+00  0.87358761169E+03  0.87358761169E+03  0.00000000000E+00 0.  1.
         -1   -1    0    0    0  501 -0.00000000000E+00 -0.00000000000E+00 -0.60527505981E+02  0.60527505981E+02  0.00000000000E+00 0. -1.
         25    1    1    2    0    0 -0.33309964543E+02 -0.19943697594E+03  0.44983550585E+03  0.50878447641E+03  0.12500000000E+03 0.  0.
         21    1    1    2  502  503  0.48259343660E+02  0.14261471732E+03  0.19005131533E+03  0.24246118103E+03  0.00000000000E+00 0. -1.
         21    1    1    2  503  501 -0.14949379117E+02  0.56822258618E+02  0.17317328453E+03  0.18286946023E+03  0.00000000000E+00 0. -1.
<mgrwt>
<rscale>  4 0.45989599E+03</rscale>
<asrwt>0</asrwt>
<pdfrwt beam="1">  1        1 0.13439808E+00 0.45989599E+03</pdfrwt>
<pdfrwt beam="2">  1       -1 0.93119246E-02 0.45989599E+03</pdfrwt>
<totfact> 0.13639388E+03</totfact>
</mgrwt>
</event>
<event>
 5    0  0.2754780E-002  0.5131714E+03  0.7546771E-02  0.1010397E+00
         -1   -1    0    0    0  501 -0.00000000000E+00  0.00000000000E+00  0.29418286869E+03  0.29418286869E+03  0.00000000000E+00 0.  1.
          1   -1    0    0  502    0  0.00000000000E+00 -0.00000000000E+00 -0.24488073142E+03  0.24488073142E+03  0.00000000000E+00 0. -1.
         25    1    1    2    0    0  0.18295468128E+03  0.14638911531E+03  0.48893160935E+02  0.27003283072E+03  0.12500000000E+03 0.  0.
         21    1    1    2  502  503 -0.20413760535E+03 -0.13664448530E+03  0.20219127923E+01  0.24565822887E+03  0.00000000000E+00 0.  1.
         21    1    1    2  503  501  0.21182924072E+02 -0.97446300061E+01 -0.16129364592E+01  0.23372540517E+02  0.00000000000E+00 0. -1.
<mgrwt>
<rscale>  4 0.51317144E+03</rscale>
<asrwt>0</asrwt>
<pdfrwt beam="1">  1        1 0.37673959E-01 0.51317144E+03</pdfrwt>
<pdfrwt beam="2">  1       -1 0.45258903E-01 0.51317144E+03</pdfrwt>
<totfact> 0.55938270E+02</totfact>
</mgrwt>
</event>
<event>
 5    0  0.2754780E-002  0.5571604E+03  0.7546771E-02  0.9998500E-01
         -1   -1    0    0    0  501 -0.00000000000E+00  0.00000000000E+00  0.72357064884E+02  0.72357064884E+02  0.00000000000E+00 0.  1.
          1   -1    0    0  503    0  0.00000000000E+00 -0.00000000000E+00 -0.16009603636E+04  0.16009603636E+04  0.00000000000E+00 0. -1.
         25    1    1    2    0    0  0.14500503979E+03 -0.22961678575E+03 -0.60084812681E+03  0.67111385126E+03  0.12500000000E+03 0.  0.
         21    1    1    2  502  501  0.22984971359E+01  0.21277522502E+02 -0.52494559680E+03  0.52538166665E+03  0.00000000000E+00 0.  1.
         21    1    1    2  503  502 -0.14730353693E+03  0.20833926325E+03 -0.40280957508E+03  0.47682191055E+03  0.00000000000E+00 0. -1.
<mgrwt>
<rscale>  4 0.55716042E+03</rscale>
<asrwt>0</asrwt>
<pdfrwt beam="1">  1        1 0.24630160E+00 0.55716042E+03</pdfrwt>
<pdfrwt beam="2">  1       -1 0.11131856E-01 0.55716042E+03</pdfrwt>
<totfact> 0.30681260E+02</totfact>
</mgrwt>
</event>
<event>
 5    0  0.2754780E-002  0.6070771E+03  0.7546771E-02  0.9890831E-01
          2   -1    0    0  502    0  0.00000000000E+00  0.00000000000E+00  0.79306722844E+03  0.79306722844E+03  0.00000000000E+00 0. -1.
         -2   -1    0    0    0  501 -0.00000000000E+00 -0.00000000000E+00 -0.14862147188E+03  0.14862147188E+03  0.00000000000E+00 0.  1.
         25    1    1    2    0    0 -0.25363794658E+03  0.27875400067E+02  0.10255956563E+03  0.30208063555E+03  0.12500000000E+03 0.  0.
         21    1    1    2  502  503  0.28264325410E+03 -0.25174975415E+02  0.37533659814E+03  0.47053007383E+03  0.00000000000E+00 0. -1.
         21    1    1    2  503  501 -0.29005307518E+02 -0.27004246519E+01  0.16654959279E+03  0.16907799093E+03  0.00000000000E+00 0.  1.
<mgrwt>
<rscale>  4 0.60707707E+03</rscale>
<asrwt>0</asrwt>
<pdfrwt beam="1">  1        2 0.12201034E+00 0.60707707E+03</pdfrwt>
<pdfrwt beam="2">  1       -2 0.22864842E-01 0.60707707E+03</pdfrwt>
<totfact> 0.59155927E+02</totfact>
</mgrwt>
</event>
<event>
 5    0  0.2754780E-002  0.3798715E+03  0.7546771E-02  0.1050981E+00
         -2   -1    0    0    0  501 -0.00000000000E+00  0.00000000000E+00  0.40311308166E+02  0.40311308166E+02  0.00000000000E+00 0. -1.
          2   -1    0    0  502    0  0.00000000000E+00 -0.00000000000E+00 -0.26837903111E+04  0.26837903111E+04  0.00000000000E+00 0.  1.
         25    1    1    2    0    0  0.20590313031E+03 -0.30840727090E+02 -0.61706039615E+03  0.66312576636E+03  0.12500000000E+03 0.  0.
         21    1    1    2  502  503 -0.13374032125E+03  0.10152811839E+02 -0.25636648975E+03  0.28933255984E+03  0.00000000000E+00 0.  1.
         21    1    1    2  503  501 -0.72162809063E+02  0.20687915251E+02 -0.17700521170E+04  0.17716432930E+04  0.00000000000E+00 0.  1.
<mgrwt>
<rscale>  4 0.37987148E+03</rscale>
<asrwt>0</asrwt>
<pdfrwt beam="1">  1        2 0.41289105E+00 0.37987148E+03</pdfrwt>
<pdfrwt beam="2">  1       -2 0.62017363E-02 0.37987148E+03</pdfrwt>
<totfact> 0.43674435E+02</totfact>
</mgrwt>
</event>
<event>
 5    0  0.2754780E-002  0.7082212E+03  0.7546771E-02  0.9703275E-01
         -2   -1    0    0    0  501 -0.00000000000E+00  0.00000000000E+00  0.80908331054E+03  0.80908331054E+03  0.00000000000E+00 0. -1.
          2   -1    0    0  502    0  0.00000000000E+00 -0.00000000000E+00 -0.37234892101E+03  0.37234892101E+03  0.00000000000E+00 0.  1.
         25    1    1    2    0    0  0.26591077408E+03  0.89522733145E+02  0.62425664708E+03  0.69573286608E+03  0.12500000000E+03 0.  0.
         21    1    1    2  502  503 -0.21606340113E+03 -0.14804935318E+03  0.21683237073E+02  0.26281584247E+03  0.00000000000E+00 0.  1.
         21    1    1    2  503  501 -0.49847372956E+02  0.58526620030E+02 -0.20920549463E+03  0.22288352300E+03  0.00000000000E+00 0.  1.
<mgrwt>
<rscale>  4 0.70822122E+03</rscale>
<asrwt>0</asrwt>
<pdfrwt beam="1">  1        2 0.57284450E-01 0.70822122E+03</pdfrwt>
<pdfrwt beam="2">  1       -2 0.12447435E+00 0.70822122E+03</pdfrwt>
<totfact> 0.42361489E+01</totfact>
</mgrwt>
</event>
<event>
 5    0  0.2754780E-002  0.5419567E+03  0.7546771E-02  0.1003373E+00
         -2   -1    0    0    0  501 -0.00000000000E+00  0.00000000000E+00  0.12595558970E+03  0.12595558970E+03  0.00000000000E+00 0.  1.
          2   -1    0    0  502    0  0.00000000000E+00 -0.00000000000E+00 -0.79908250201E+03  0.79908250201E+03  0.00000000000E+00 0. -1.
         25    1    1    2    0    0  0.25138992196E+03 -0.76035157436E+02 -0.16080809379E+03  0.33235896416E+03  0.12500000000E+03 0.  0.
         21    1    1    2  502  503 -0.22573213580E+03  0.40006090379E+02 -0.30986648934E+03  0.38545132717E+03  0.00000000000E+00 0. -1.
         21    1    1    2  503  501 -0.25657786157E+02  0.36029067058E+02 -0.20245232917E+03  0.20722780038E+03  0.00000000000E+00 0. -1.
<mgrwt>
<rscale>  4 0.54195669E+03</rscale>
<asrwt>0</asrwt>
<pdfrwt beam="1">  1        2 0.12293577E+00 0.54195669E+03</pdfrwt>
<pdfrwt beam="2">  1       -2 0.19377783E-01 0.54195669E+03</pdfrwt>
<totfact> 0.78450145E+02</totfact>
</mgrwt>
</event>
<event>
 5    0  0.2754780E-002  0.5700416E+03  0.7546771E-02  0.9969587E-01
          2   -1    0    0  502    0  0.00000000000E+00  0.00000000000E+00  0.23760099714E+04  0.23760099714E+04  0.00000000000E+00 0.  1.
         -2   -1    0    0    0  501 -0.00000000000E+00 -0.00000000000E+00 -0.57382582341E+02  0.57382582341E+02  0.00000000000E+00 0. -1.
         25    1    1    2    0    0 -0.20904234960E+03 -0.14701887269E+03  0.50906300689E+03  0.58316669816E+03  0.12500000000E+03 0.  0.
         21    1    1    2  502  503  0.23281278219E+03  0.12704306137E+03  0.85577287243E+03  0.89592909328E+03  0.00000000000E+00 0.  1.
         21    1    1    2  503  501 -0.23770432584E+02  0.19975811315E+02  0.95379150972E+03  0.95429676229E+03  0.00000000000E+00 0. -1.
<mgrwt>
<rscale>  4 0.57004156E+03</rscale>
<asrwt>0</asrwt>
<pdfrwt beam="1">  1        2 0.36553992E+00 0.57004156E+03</pdfrwt>
<pdfrwt beam="2">  1       -2 0.88280914E-02 0.57004156E+03</pdfrwt>
<totfact> 0.36265574E+02</totfact>
</mgrwt>
</event>
<event>
 5    0  0.2992449E-002  0.4390607E+03  0.7546771E-02  0.1031035E+00
          2   -1    0    0  503    0  0.00000000000E+00  0.00000000000E+00  0.15860179377E+04  0.15860179377E+04  0.00000000000E+00 0.  1.
         -2   -1    0    0    0  501 -0.00000000000E+00 -0.00000000000E+00 -0.25853438741E+03  0.25853438741E+03  0.00000000000E+00 0. -1.
         25    1    1    2    0    0  0.77510922189E+02  0.19484523460E+03  0.85896317647E+03  0.89298115716E+03  0.12500000000E+03 0.  0.
         21    1    1    2  502  501 -0.15245983834E+03 -0.14922913620E+02 -0.20187492086E+03  0.25341700679E+03  0.00000000000E+00 0. -1.
         21    1    1    2  503  502  0.74948916154E+02 -0.17992232098E+03  0.67039529468E+03  0.69815416116E+03  0.00000000000E+00 0.  1.
<mgrwt>
<rscale>  4 0.43906067E+03</rscale>
<asrwt>0</asrwt>
<pdfrwt beam="1">  1        2 0.24400275E+00 0.43906067E+03</pdfrwt>
<pdfrwt beam="2">  1       -2 0.39774522E-01 0.43906067E+03</pdfrwt>
<totfact> 0.72227058E+01</totfact>
</mgrwt>
</event>
<event>
 5    0  0.2754780E-002  0.5882483E+03  0.7546771E-02  0.9930092E-01
          2   -1    0    0  503    0  0.00000000000E+00  0.00000000000E+00  0.71802560806E+03  0.71802560806E+03  0.00000000000E+00 0.  1.
         -2   -1    0    0    0  501 -0.00000000000E+00 -0.00000000000E+00 -0.15602412953E+03  0.15602412953E+03  0.00000000000E+00 0. -1.
         25    1    1    2    0    0  0.19247023180E+03  0.21257374077E+03  0.30577759766E+03  0.43744408171E+03  0.12500000000E+03 0.  0.
         21    1    1    2  502  501 -0.74103098479E+02  0.30471658977E+02  0.83919547013E+02  0.11602707260E+03  0.00000000000E+00 0. -1.
         21    1    1    2  503  502 -0.11836713332E+03 -0.24304539974E+03  0.17230433386E+03  0.32057858328E+03  0.00000000000E+00 0. -1.
<mgrwt>
<rscale>  4 0.58824827E+03</rscale>
<asrwt>0</asrwt>
<pdfrwt beam="1">  1        2 0.11046548E+00 0.58824827E+03</pdfrwt>
<pdfrwt beam="2">  1       -2 0.24003713E-01 0.58824827E+03</pdfrwt>
<totfact> 0.61689317E+02</totfact>
</mgrwt>
</event>
<event>
 5    0  0.2754780E-002  0.7651114E+03  0.7546771E-02  0.9611937E-01
          1   -1    0    0  502    0  0.00000000000E+00  0.00000000000E+00  0.54257278741E+03  0.54257278741E+03  0.00000000000E+00 0.  1.
         -1   -1    0    0    0  501 -0.00000000000E+00 -0.00000000000E+00 -0.26973127181E+03  0.26973127181E+03  0.00000000000E+00 0. -1.
         25    1    1    2    0    0 -0.20002864050E+03  0.29077098276E+03  0.59159768328E+02  0.37905685540E+03  0.12500000000E+03 0.  0.
         21    1    1    2  502  503  0.12621759649E+03 -0.25530582781E+03  0.12063430911E+03  0.30929691869E+03  0.00000000000E+00 0.  1.
         21    1    1    2  503  501  0.73811044019E+02 -0.35465154952E+02  0.93047438159E+02  0.12395028513E+03  0.00000000000E+00 0. -1.
<mgrwt>
<rscale>  4 0.76511136E+03</rscale>
<asrwt>0</asrwt>
<pdfrwt beam="1">  1        1 0.83472736E-01 0.76511136E+03</pdfrwt>
<pdfrwt beam="2">  1       -1 0.41497119E-01 0.76511136E+03</pdfrwt>
<totfact> 0.22775630E+02</totfact>
</mgrwt>
</event>
<event>
 5    0  0.2754780E-002  0.5781064E+03  0.7546771E-02  0.9951899E-01
         -2   -1    0    0    0  501 -0.00000000000E+00  0.00000000000E+00  0.57860732509E+02  0.57860732509E+02  0.00000000000E+00 0.  1.
          2   -1    0    0  503    0  0.00000000000E+00 -0.00000000000E+00 -0.18344000885E+04  0.18344000885E+04  0.00000000000E+00 0. -1.
         25    1    1    2    0    0 -0.12398240942E+03 -0.25928585202E+03 -0.10926949980E+04  0.11367533371E+04  0.12500000000E+03 0.  0.
         21    1    1    2  502  501  0.39157253731E+02  0.44815178355E+02 -0.31439623935E+03  0.31997919627E+03  0.00000000000E+00 0. -1.
         21    1    1    2  503  502  0.84825155693E+02  0.21447067367E+03 -0.36944811863E+03  0.43552828755E+03  0.00000000000E+00 0.  1.
<mgrwt>
<rscale>  4 0.57810640E+03</rscale>
<asrwt>0</asrwt>
<pdfrwt beam="1">  1        2 0.28221544E+00 0.57810640E+03</pdfrwt>
<pdfrwt beam="2">  1       -2 0.89016499E-02 0.57810640E+03</pdfrwt>
<totfact> 0.70532751E+02</totfact>
</mgrwt>
</event>
<event>
 5    0  0.2754780E-002  0.5540526E+03  0.7546771E-02  0.1000560E+00
         -1   -1    0    0    0  501 -0.00000000000E+00  0.00000000000E+00  0.55745226647E+03  0.55745226647E+03  0.00000000000E+00 0.  1.
          1   -1    0    0  502    0  0.00000000000E+00 -0.00000000000E+00 -0.24929810694E+03  0.24929810694E+03  0.00000000000E+00 0. -1.
         25    1    1    2    0    0  0.37047944171E+02  0.25298006144E+03  0.14010525353E+03  0.31721592602E+03  0.12500000000E+03 0.  0.
         21    1    1    2  502  503  0.49438409051E+02 -0.25349474405E+03  0.25778323487E+03  0.36490538189E+03  0.00000000000E+00 0. -1.
         21    1    1    2  503  501 -0.86486353222E+02  0.51468260671E+00 -0.89734328861E+02  0.12462906550E+03  0.00000000000E+00 0.  1.
<mgrwt>
<rscale>  4 0.55405255E+03</rscale>
<asrwt>0</asrwt>
<pdfrwt beam="1">  1        1 0.38353555E-01 0.55405255E+03</pdfrwt>
<pdfrwt beam="2">  1       -1 0.85761887E-01 0.55405255E+03</pdfrwt>
<totfact> 0.15364191E+02</totfact>
</mgrwt>
</event>
<event>
 5    0  0.2754780E-002  0.7598313E+03  0.7546771E-02  0.9620052E-01
         -1   -1    0    0    0  501 -0.00000000000E+00  0.00000000000E+00  0.93743845818E+03  0.93743845818E+03  0.00000000000E+00 0. -1.
          1   -1    0    0  502    0  0.00000000000E+00 -0.00000000000E+00 -0.35530657431E+03  0.35530657431E+03  0.00000000000E+00 0.  1.
         25    1    1    2    0    0 -0.19616282454E+03 -0.14051127543E+03  0.31143231131E+03  0.41332596916E+03  0.12500000000E+03 0.  0.
         21    1    1    2  502  503  0.29206996088E+02 -0.21555474264E+02  0.52987713275E+03  0.53111906660E+03  0.00000000000E+00 0. -1.
         21    1    1    2  503  501  0.16695582845E+03  0.16206674969E+03 -0.25917756019E+03  0.34829999672E+03  0.00000000000E+00 0.  1.
<mgrwt>
<rscale>  4 0.75983127E+03</rscale>
<asrwt>0</asrwt>
<pdfrwt beam="1">  1        1 0.54662550E-01 0.75983127E+03</pdfrwt>
<pdfrwt beam="2">  1       -1 0.14422130E+00 0.75983127E+03</pdfrwt>
<totfact> 0.27831059E+01</totfact>
</mgrwt>
</event>
<event>
 5    0  0.2754780E-002  0.4355972E+03  0.7546771E-02  0.1032106E+00
         -1   -1    0    0    0  501 -0.00000000000E+00  0.00000000000E+00  0.53797956839E+02  0.53797956839E+02  0.00000000000E+00 0. -1.
          1   -1    0    0  502    0  0.00000000000E+00 -0.00000000000E+00 -0.10110498583E+04  0.10110498583E+04  0.00000000000E+00 0.  1.
         25    1    1    2    0    0  0.20612491919E+03 -0.63904214379E+01 -0.57199313574E+03  0.62074911771E+03  0.12500000000E+03 0.  0.
         21    1    1    2  502  503 -0.18592579747E+03 -0.70531020776E+01 -0.28072442757E+03  0.33678532131E+03  0.00000000000E+00 0. -1.
         21    1    1    2  503  501 -0.20199121719E+02  0.13443523515E+02 -0.10453433813E+03  0.10731337611E+03  0.00000000000E+00 0. -1.
<mgrwt>
<rscale>  4 0.43559724E+03</rscale>
<asrwt>0</asrwt>
<pdfrwt beam="1">  1        1 0.15554612E+00 0.43559724E+03</pdfrwt>
<pdfrwt beam="2">  1       -1 0.82766093E-02 0.43559724E+03</pdfrwt>
<totfact> 0.12788374E+03</totfact>
</mgrwt>
</event>
<event>
 5    0  0.2754780E-002  0.6291948E+03  0.7546771E-02  0.9846621E-01
          1   -1    0    0  502    0  0.00000000000E+00  0.00000000000E+00  0.22753433573E+03  0.22753433573E+03  0.00000000000E+00 0. -1.
         -1   -1    0    0    0  501 -0.00000000000E+00 -0.00000000000E+00 -0.71338917450E+03  0.71338917450E+03  0.00000000000E+00 0.  1.
         25    1    1    2    0    0 -0.28051589109E+02 -0.30234205074E+03 -0.29037762192E+03  0.43833978899E+03  0.12500000000E+03 0.  0.
         21    1    1    2  502  503  0.65156999842E+02  0.29360291425E+03 -0.27934097656E+03  0.41046252821E+03  0.00000000000E+00 0. -1.
         21    1    1    2  503  501 -0.37105410733E+02  0.87391364940E+01  0.83863759707E+02  0.92121193026E+02  0.00000000000E+00 0. -1.
<mgrwt>
<rscale>  4 0.62919480E+03</rscale>
<asrwt>0</asrwt>
<pdfrwt beam="1">  1        1 0.35005283E-01 0.62919480E+03</pdfrwt>
<pdfrwt beam="2">  1       -1 0.10975218E+00 0.62919480E+03</pdfrwt>
<totfact> 0.98764015E+01</totfact>
</mgrwt>
</event>
<event>
 5    0  0.2754780E-002  0.4593433E+03  0.7546771E-02  0.1024972E+00
         -2   -1    0    0    0  501 -0.00000000000E+00  0.00000000000E+00  0.16104629883E+04  0.16104629883E+04  0.00000000000E+00 0. -1.
          2   -1    0    0  502    0  0.00000000000E+00 -0.00000000000E+00 -0.43273394485E+03  0.43273394485E+03  0.00000000000E+00 0.  1.
         25    1    1    2    0    0  0.11664684739E+03  0.20857707433E+03  0.67174687829E+03  0.72386445654E+03  0.12500000000E+03 0.  0.
         21    1    1    2  502  503 -0.14883608809E+03 -0.54891451104E+02  0.89022280891E+03  0.90424659360E+03  0.00000000000E+00 0.  1.
         21    1    1    2  503  501  0.32189240703E+02 -0.15368562323E+03 -0.38424064373E+03  0.41508588304E+03  0.00000000000E+00 0.  1.
<mgrwt>
<rscale>  4 0.45934332E+03</rscale>
<asrwt>0</asrwt>
<pdfrwt beam="1">  1        2 0.66574454E-01 0.45934332E+03</pdfrwt>
<pdfrwt beam="2">  1       -2 0.24776353E+00 0.45934332E+03</pdfrwt>
<totfact> 0.51979114E+00</totfact>
</mgrwt>
</event>
<event>
 5    0  0.2754780E-002  0.9659801E+03  0.7546771E-02  0.9346665E-01
         -1   -1    0    0    0  501 -0.00000000000E+00  0.00000000000E+00  0.10019199424E+03  0.10019199424E+03  0.00000000000E+00 0. -1.
          1   -1    0    0  503    0  0.00000000000E+00 -0.00000000000E+00 -0.26309883970E+04  0.26309883970E+04  0.00000000000E+00 0.  1.
         25    1    1    2    0    0 -0.40272022984E+03 -0.21075497976E+03 -0.15693605794E+04  0.16386332333E+04  0.12500000000E+03 0.  0.
         21    1    1    2  502  501  0.23818856662E+02 -0.86277235960E+01 -0.28917056025E+03  0.29027812261E+03  0.00000000000E+00 0. -1.
         21    1    1    2  503  502  0.37890137318E+03  0.21938270335E+03 -0.67226526313E+03  0.80226903538E+03  0.00000000000E+00 0. -1.
<mgrwt>
<rscale>  4 0.96598006E+03</rscale>
<asrwt>0</asrwt>
<pdfrwt beam="1">  1        1 0.40476748E+00 0.96598006E+03</pdfrwt>
<pdfrwt beam="2">  1       -1 0.15414152E-01 0.96598006E+03</pdfrwt>
<totfact> 0.35272942E+01</totfact>
</mgrwt>
</event>
<event>
 5    0  0.2754780E-002  0.5304694E+03  0.7546771E-02  0.1006118E+00
          2   -1    0    0  503    0  0.00000000000E+00  0.00000000000E+00  0.88077291825E+03  0.88077291825E+03  0.00000000000E+00 0.  1.
         -2   -1    0    0    0  501 -0.00000000000E+00 -0.00000000000E+00 -0.92178194333E+02  0.92178194333E+02  0.00000000000E+00 0. -1.
         25    1    1    2    0    0  0.19405332982E+03  0.52360382884E+02  0.11661527496E+03  0.26386062015E+03  0.12500000000E+03 0.  0.
         21    1    1    2  502  501 -0.12927599690E+02  0.25796508322E+02  0.97858397586E+02  0.10202376514E+03  0.00000000000E+00 0. -1.
         21    1    1    2  503  502 -0.18112573013E+03 -0.78156891206E+02  0.57412105137E+03  0.60706672730E+03  0.00000000000E+00 0.  1.
<mgrwt>
<rscale>  4 0.53046939E+03</rscale>
<asrwt>0</asrwt>
<pdfrwt beam="1">  1        2 0.13550352E+00 0.53046939E+03</pdfrwt>
<pdfrwt beam="2">  1       -2 0.14181261E-01 0.53046939E+03</pdfrwt>
<totfact> 0.11716707E+03</totfact>
</mgrwt>
</event>
<event>
 5    0  0.2754780E-002  0.4191824E+03  0.7546771E-02  0.1037333E+00
         -1   -1    0    0    0  501 -0.00000000000E+00  0.00000000000E+00  0.19476015838E+04  0.19476015838E+04  0.00000000000E+00 0.  1.
          1   -1    0    0  502    0  0.00000000000E+00 -0.00000000000E+00 -0.44244700264E+02  0.44244700264E+02  0.00000000000E+00 0. -1.
         25    1    1    2    0    0  0.12424409765E+01 -0.20371471196E+03  0.12991098707E+04  0.13209135792E+04  0.12500000000E+03 0.  0.
         21    1    1    2  502  503 -0.49040267516E+01  0.31974334247E+02 -0.94076723904E+01  0.33688452454E+02  0.00000000000E+00 0. -1.
         21    1    1    2  503  501  0.36615857751E+01  0.17174037771E+03  0.61365468522E+03  0.63724425242E+03  0.00000000000E+00 0. -1.
<mgrwt>
<rscale>  4 0.41918236E+03</rscale>
<asrwt>0</asrwt>
<pdfrwt beam="1">  1        1 0.68068785E-02 0.41918236E+03</pdfrwt>
<pdfrwt beam="2">  1       -1 0.29963095E+00 0.41918236E+03</pdfrwt>
<totfact> 0.41111747E+01</totfact>
</mgrwt>
</event>
<event>
 5    0  0.2754780E-002  0.6942420E+03  0.7546771E-02  0.9727130E-01
         -1   -1    0    0    0  501 -0.00000000000E+00  0.00000000000E+00  0.18970046947E+03  0.18970046947E+03  0.00000000000E+00 0.  1.
          1   -1    0    0  503    0  0.00000000000E+00 -0.00000000000E+00 -0.81605160394E+03  0.81605160394E+03  0.00000000000E+00 0. -1.
         25    1    1    2    0    0  0.10445790590E+03 -0.32673520106E+03 -0.28324319516E+03  0.46208121940E+03  0.12500000000E+03 0.  0.
         21    1    1    2  502  501 -0.22807713146E+02  0.12244349057E+02 -0.17676160311E+03  0.17864708281E+03  0.00000000000E+00 0. -1.
         21    1    1    2  503  502 -0.81650192750E+02  0.31449085200E+03 -0.16634633620E+03  0.36502377120E+03  0.00000000000E+00 0.  1.
<mgrwt>
<rscale>  4 0.69424197E+03</rscale>
<asrwt>0</asrwt>
<pdfrwt beam="1">  1        1 0.12554640E+00 0.69424197E+03</pdfrwt>
<pdfrwt beam="2">  1       -1 0.29184688E-01 0.69424197E+03</pdfrwt>
<totfact> 0.23277131E+02</totfact>
</mgrwt>
</event>
<event>
 5    0  0.2754780E-002  0.3740362E+03  0.7546771E-02  0.1053160E+00
          2   -1    0    0  502    0  0.00000000000E+00  0.00000000000E+00  0.34311403630E+03  0.34311403630E+03  0.00000000000E+00 0.  1.
         -2   -1    0    0    0  501 -0.00000000000E+00 -0.00000000000E+00 -0.20840685646E+03  0.20840685646E+03  0.00000000000E+00 0. -1.
         25    1    1    2    0    0  0.10557184239E+02 -0.20118692339E+03 -0.82836093854E+01  0.23723669713E+03  0.12500000000E+03 0.  0.
         21    1    1    2  502  503 -0.40353310398E+02  0.13054883543E+03 -0.16194337244E+02  0.13759958086E+03  0.00000000000E+00 0. -1.
         21    1    1    2  503  501  0.29796126159E+02  0.70638087958E+02  0.15918512647E+03  0.17668461476E+03  0.00000000000E+00 0.  1.
<mgrwt>
<rscale>  4 0.37403618E+03</rscale>
<asrwt>0</asrwt>
<pdfrwt beam="1">  1        2 0.52786775E-01 0.37403618E+03</pdfrwt>
<pdfrwt beam="2">  1       -2 0.32062593E-01 0.37403618E+03</pdfrwt>
<totfact> 0.85765913E+02</totfact>
</mgrwt>
</event>
<event>
 5    0  0.2754780E-002  0.4569891E+03  0.7546771E-02  0.1025658E+00
         -2   -1    0    0    0  501 -0.00000000000E+00  0.00000000000E+00  0.39890717878E+02  0.39890717878E+02  0.00000000000E+00 0.  1.
          2   -1    0    0  503    0  0.00000000000E+00 -0.00000000000E+00 -0.17670302675E+04  0.17670302675E+04  0.00000000000E+00 0. -1.
         25    1    1    2    0    0  0.29726371730E+02 -0.22749081033E+03 -0.73756812903E+03  0.78247522064E+03  0.12500000000E+03 0.  0.
         21    1    1    2  502  501  0.16190466200E+02  0.37257118333E+02 -0.42464580249E+03  0.42658443670E+03  0.00000000000E+00 0. -1.
         21    1    1    2  503  502 -0.45916837930E+02  0.19023369199E+03 -0.56492561814E+03  0.59786132807E+03  0.00000000000E+00 0. -1.
<mgrwt>
<rscale>  4 0.45698909E+03</rscale>
<asrwt>0</asrwt>
<pdfrwt beam="1">  1        2 0.27185088E+00 0.45698909E+03</pdfrwt>
<pdfrwt beam="2">  1       -2 0.61370320E-02 0.45698909E+03</pdfrwt>
<totfact> 0.13915928E+03</totfact>
</mgrwt>
</event>
<event>
 5    0  0.2754780E-002  0.5340946E+03  0.7546771E-02  0.1005244E+00
         -2   -1    0    0    0  501 -0.00000000000E+00  0.00000000000E+00  0.91194665364E+02  0.91194665364E+02  0.00000000000E+00 0. -1.
          2   -1    0    0  503    0  0.00000000000E+00 -0.00000000000E+00 -0.95511965892E+03  0.95511965892E+03  0.00000000000E+00 0.  1.
         25    1    1    2    0    0 -0.21200418552E+03 -0.42934951457E+02 -0.47951350434E+03  0.54069158083E+03  0.12500000000E+03 0.  0.
         21    1    1    2  502  501 -0.49226983131E+02 -0.16523926824E+01 -0.12682920070E+03  0.13605760699E+03  0.00000000000E+00 0. -1.
         21    1    1    2  503  502  0.26123116865E+03  0.44587344139E+02 -0.25758228850E+03  0.36956513645E+03  0.00000000000E+00 0. -1.
<mgrwt>
<rscale>  4 0.53409464E+03</rscale>
<asrwt>0</asrwt>
<pdfrwt beam="1">  1        2 0.14694148E+00 0.53409464E+03</pdfrwt>
<pdfrwt beam="2">  1       -2 0.14029949E-01 0.53409464E+03</pdfrwt>
<totfact> 0.10656274E+03</totfact>
</mgrwt>
</event>
<event>
 5    0  0.2754780E-002  0.5854256E+03  0.7546771E-02  0.9936113E-01
          1   -1    0    0  502    0  0.00000000000E+00  0.00000000000E+00  0.11741219241E+03  0.11741219241E+03  0.00000000000E+00 0. -1.
         -1   -1    0    0    0  501 -0.00000000000E+00 -0.00000000000E+00 -0.89361519083E+03  0.89361519083E+03  0.00000000000E+00 0.  1.
         25    1    1    2    0    0 -0.23162289697E+03  0.57058641247E+02 -0.67273994019E+03  0.72464396918E+03  0.12500000000E+03 0.  0.
         21    1    1    2  502  503  0.17687290281E+03 -0.85048053594E+02 -0.44601971405E+02  0.20126234377E+03  0.00000000000E+00 0. -1.
         21    1    1    2  503  501  0.54749994164E+02  0.27989412347E+02 -0.58861086820E+02  0.85121070283E+02  0.00000000000E+00 0. -1.
<mgrwt>
<rscale>  4 0.58542556E+03</rscale>
<asrwt>0</asrwt>
<pdfrwt beam="1">  1        1 0.18063414E-01 0.58542556E+03</pdfrwt>
<pdfrwt beam="2">  1       -1 0.13747926E+00 0.58542556E+03</pdfrwt>
<totfact> 0.13524200E+02</totfact>
</mgrwt>
</event>
