<event>
 5    0  0.3188794E-002  0.6287557E+03  0.7546771E-02  0.9847480E-01
          2   -1    0    0  503    0 -0.00000000000E+00  0.00000000000E+00  0.14139671089E+04  0.14139671089E+04  0.00000000000E+00 0. -1.
         21   -1    0    0  501  502  0.00000000000E+00 -0.00000000000E+00 -0.86666643741E+02  0.86666643741E+02  0.00000000000E+00 0.  1.
         25    1    1    2    0    0 -0.21120164894E+03  0.20279822969E+03  0.98642423248E+03  0.10365283522E+04  0.12500000000E+03 0.  0.
         21    1    1    2  503  502  0.15660072614E+03 -0.20482942679E+03  0.30174674189E+03  0.39690046328E+03  0.00000000000E+00 0.  1.
          2    1    1    2  501    0  0.54600922797E+02  0.20311971066E+01  0.39129490816E+02  0.67204937196E+02  0.00000000000E+00 0. -1.
<mgrwt>
<rscale>  4 0.62875568E+03</rscale>
<asrwt>0</asrwt>
<pdfrwt beam="1">  1       21 0.13333331E-01 0.62875568E+03</pdfrwt>
<pdfrwt beam="2">  1        2 0.21753338E+00 0.62875568E+03</pdfrwt>
<totfact> 0.86633353E+03</totfact>
</mgrwt>
</event>
<event>
 5    0  0.3188794E-002  0.4916084E+03  0.7546771E-02  0.1015993E+00
         21   -1    0    0  501  502  0.00000000000E+00  0.00000000000E+00  0.26086964133E+03  0.26086964133E+03  0.00000000000E+00 0.  1.
          2   -1    0    0  503    0 -0.00000000000E+00 -0.00000000000E+00 -0.79052377861E+03  0.79052377861E+03  0.00000000000E+00 0. -1.
         25    1    1    2    0    0 -0.76903693345E+02 -0.25702118881E+03 -0.34304490810E+03  0.45307712205E+03  0.12500000000E+03 0.  0.
         21    1    1    2  503  502 -0.58116114826E+02  0.17951112143E+03 -0.33420334541E+03  0.38378848550E+03  0.00000000000E+00 0. -1.
          2    1    1    2  501    0  0.13501980817E+03  0.77510067384E+02  0.14759411623E+03  0.21452781239E+03  0.00000000000E+00 0. -1.
<mgrwt>
<rscale>  4 0.49160843E+03</rscale>
<asrwt>0</asrwt>
<pdfrwt beam="1">  1       21 0.40133791E-01 0.49160843E+03</pdfrwt>
<pdfrwt beam="2">  1        2 0.12161904E+00 0.49160843E+03</pdfrwt>
<totfact> 0.25080981E+03</totfact>
</mgrwt>
</event>
<event>
 5    0  0.3188794E-002  0.4954305E+03  0.7546771E-02  0.1014979E+00
         21   -1    0    0  501  502  0.00000000000E+00  0.00000000000E+00  0.31621750405E+03  0.31621750405E+03  0.00000000000E+00 0.  1.
          4   -1    0    0  503    0 -0.00000000000E+00 -0.00000000000E+00 -0.54675529018E+03  0.54675529018E+03  0.00000000000E+00 0.  1.
         25    1    1    2    0    0  0.28774253922E+03 -0.15994176654E+03 -0.31764376008E+03  0.47423590741E+03  0.12500000000E+03 0.  0.
         21    1    1    2  503  502 -0.10860754460E+03 -0.31535036257E+02  0.21626552525E+01  0.11311381142E+03  0.00000000000E+00 0. -1.
          4    1    1    2  501    0 -0.17913499462E+03  0.19147680280E+03  0.84943318699E+02  0.27562307541E+03  0.00000000000E+00 0.  1.
<mgrwt>
<rscale>  4 0.49543048E+03</rscale>
<asrwt>0</asrwt>
<pdfrwt beam="1">  1       21 0.48648847E-01 0.49543048E+03</pdfrwt>
<pdfrwt beam="2">  1        4 0.84116197E-01 0.49543048E+03</pdfrwt>
<totfact> 0.20758812E+02</totfact>
</mgrwt>
</event>
<event>
 5    0  0.3188794E-002  0.6370068E+03  0.7546771E-02  0.9831470E-01
          2   -1    0    0  503    0 -0.00000000000E+00  0.00000000000E+00  0.93481163390E+03  0.93481163390E+03  0.00000000000E+00 0.  1.
         21   -1    0    0  501  502  0.00000000000E+00 -0.00000000000E+00 -0.14816814970E+03  0.14816814970E+03  0.00000000000E+00 0. -1.
         25    1    1    2    0    0 -0.22725641955E+03 -0.26122784673E+03  0.50444092623E+03  0.62447667386E+03  0.12500000000E+03 0.  0.
         21    1    1    2  503  502  0.19483198319E+03  0.17655110352E+03  0.24848061612E+03  0.36176292018E+03  0.00000000000E+00 0.  1.
          2    1    1    2  501    0  0.32424436363E+02  0.84676743207E+02  0.33721941836E+02  0.96740189553E+02  0.00000000000E+00 0.  1.
<mgrwt>
<rscale>  4 0.63700682E+03</rscale>
<asrwt>0</asrwt>
<pdfrwt beam="1">  1       21 0.22795101E-01 0.63700682E+03</pdfrwt>
<pdfrwt beam="2">  1        2 0.14381717E+00 0.63700682E+03</pdfrwt>
<totfact> 0.60658551E+03</totfact>
</mgrwt>
</event>
<event>
 5    0  0.4211352E-002  0.6522288E+03  0.7546771E-02  0.9802606E-01
         21   -1    0    0  503  502  0.00000000000E+00  0.00000000000E+00  0.96330002051E+03  0.96330002051E+03  0.00000000000E+00 0. -1.
          1   -1    0    0  502    0 -0.00000000000E+00 -0.00000000000E+00 -0.54239281324E+03  0.54239281324E+03  0.00000000000E+00 0. -1.
         25    1    1    2    0    0  0.15583138424E+03 -0.12970196733E+03  0.46439228740E+03  0.52191112005E+03  0.12500000000E+03 0.  0.
         21    1    1    2  503  501  0.29144053731E+03 -0.19351858238E+03  0.17389341233E+03  0.39067370959E+03  0.00000000000E+00 0. -1.
          1    1    1    2  501    0 -0.44727192154E+03  0.32322054971E+03 -0.21737849245E+03  0.59310800411E+03  0.00000000000E+00 0. -1.
<mgrwt>
<rscale>  4 0.65222882E+03</rscale>
<asrwt>0</asrwt>
<pdfrwt beam="1">  1       21 0.14820000E+00 0.65222882E+03</pdfrwt>
<pdfrwt beam="2">  1        1 0.83445048E-01 0.65222882E+03</pdfrwt>
<totfact> 0.11361105E+02</totfact>
</mgrwt>
</event>
<event>
 5    0  0.3188794E-002  0.6286948E+03  0.7546771E-02  0.9847599E-01
         21   -1    0    0  501  502  0.00000000000E+00  0.00000000000E+00  0.10846520819E+03  0.10846520819E+03  0.00000000000E+00 0. -1.
          2   -1    0    0  503    0 -0.00000000000E+00 -0.00000000000E+00 -0.14468878489E+04  0.14468878489E+04  0.00000000000E+00 0. -1.
         25    1    1    2    0    0 -0.25076411413E+03 -0.26314574230E+02 -0.30983344233E+03  0.41856523952E+03  0.12500000000E+03 0.  0.
         21    1    1    2  503  502  0.24201605267E+03  0.47145239602E+02 -0.10654205116E+04  0.10935791283E+04  0.00000000000E+00 0. -1.
          2    1    1    2  501    0  0.87480614552E+01 -0.20830665372E+02  0.36831313178E+02  0.43208689282E+02  0.00000000000E+00 0. -1.
<mgrwt>
<rscale>  4 0.62869480E+03</rscale>
<asrwt>0</asrwt>
<pdfrwt beam="1">  1       21 0.16686957E-01 0.62869480E+03</pdfrwt>
<pdfrwt beam="2">  1        2 0.22259811E+00 0.62869480E+03</pdfrwt>
<totfact> 0.54625553E+03</totfact>
</mgrwt>
</event>
<event>
 5    0  0.3188794E-002  0.4017017E+03  0.7546771E-02  0.1043192E+00
         21   -1    0    0  503  502  0.00000000000E+00  0.00000000000E+00  0.64806238232E+03  0.64806238232E+03  0.00000000000E+00 0. -1.
         -4   -1    0    0    0  501 -0.00000000000E+00 -0.00000000000E+00 -0.96317892633E+02  0.96317892633E+02  0.00000000000E+00 0.  1.
         25    1    1    2    0    0 -0.61500062075E+02  0.19057462478E+03  0.19947834888E+03  0.30905914793E+03  0.12500000000E+03 0.  0.
         21    1    1    2  503  501  0.37739097605E+02 -0.16120906419E+03  0.13174400509E+03  0.21158706185E+03  0.00000000000E+00 0.  1.
         -4    1    1    2    0  502  0.23760964470E+02 -0.29365560595E+02  0.22052213571E+03  0.22373406518E+03  0.00000000000E+00 0.  1.
<mgrwt>
<rscale>  4 0.40170167E+03</rscale>
<asrwt>0</asrwt>
<pdfrwt beam="1">  1       21 0.99701902E-01 0.40170167E+03</pdfrwt>
<pdfrwt beam="2">  1       -4 0.14818138E-01 0.40170167E+03</pdfrwt>
<totfact> 0.13250314E+03</totfact>
</mgrwt>
</event>
<event>
 5    0  0.3188794E-002  0.5040943E+03  0.7546771E-02  0.1012716E+00
         21   -1    0    0  503  502  0.00000000000E+00  0.00000000000E+00  0.55270438916E+03  0.55270438916E+03  0.00000000000E+00 0. -1.
         -4   -1    0    0    0  501 -0.00000000000E+00 -0.00000000000E+00 -0.16547585399E+03  0.16547585399E+03  0.00000000000E+00 0.  1.
         25    1    1    2    0    0  0.20539468702E+03 -0.23754304307E+02  0.16264671427E+03  0.29125624129E+03  0.12500000000E+03 0.  0.
         21    1    1    2  503  501 -0.25477308270E+03  0.35545202766E+00  0.71848428122E+02  0.26471049590E+03  0.00000000000E+00 0. -1.
         -4    1    1    2    0  502  0.49378395681E+02  0.23398852279E+02  0.15273339278E+03  0.16221350596E+03  0.00000000000E+00 0.  1.
<mgrwt>
<rscale>  4 0.50409428E+03</rscale>
<asrwt>0</asrwt>
<pdfrwt beam="1">  1       21 0.85031444E-01 0.50409428E+03</pdfrwt>
<pdfrwt beam="2">  1       -4 0.25457824E-01 0.50409428E+03</pdfrwt>
<totfact> 0.71246363E+02</totfact>
</mgrwt>
</event>
<event>
 5    0  0.3188794E-002  0.6563730E+03  0.7546771E-02  0.9794894E-01
         21   -1    0    0  501  502  0.00000000000E+00  0.00000000000E+00  0.34392365895E+03  0.34392365895E+03  0.00000000000E+00 0. -1.
          2   -1    0    0  503    0 -0.00000000000E+00 -0.00000000000E+00 -0.72787135424E+03  0.72787135424E+03  0.00000000000E+00 0. -1.
         25    1    1    2    0    0 -0.23616318857E+03 -0.27454788388E+02 -0.16825882582E+02  0.26913737638E+03  0.12500000000E+03 0.  0.
         21    1    1    2  503  502  0.22239948448E+03  0.42278807727E+02 -0.56244237476E+03  0.60629238261E+03  0.00000000000E+00 0. -1.
          2    1    1    2  501    0  0.13763704086E+02 -0.14824019339E+02  0.19532056205E+03  0.19636525421E+03  0.00000000000E+00 0. -1.
<mgrwt>
<rscale>  4 0.65637303E+03</rscale>
<asrwt>0</asrwt>
<pdfrwt beam="1">  1       21 0.52911333E-01 0.65637303E+03</pdfrwt>
<pdfrwt beam="2">  1        2 0.11198021E+00 0.65637303E+03</pdfrwt>
<totfact> 0.15146798E+03</totfact>
</mgrwt>
</event>
<event>
 5    0  0.3188794E-002  0.6461811E+03  0.7546771E-02  0.9813972E-01
          2   -1    0    0  503    0 -0.00000000000E+00  0.00000000000E+00  0.25781108847E+04  0.25781108847E+04  0.00000000000E+00 0. -1.
         21   -1    0    0  501  502  0.00000000000E+00 -0.00000000000E+00 -0.17837807530E+03  0.17837807530E+03  0.00000000000E+00 0. -1.
         25    1    1    2    0    0  0.29773780730E+03  0.84246821874E+02  0.14980861252E+04  0.15348069479E+04  0.12500000000E+03 0.  0.
         21    1    1    2  503  502 -0.28798739180E+03 -0.10497098656E+03  0.10385687301E+04  0.10828576328E+04  0.00000000000E+00 0. -1.
          2    1    1    2  501    0 -0.97504154986E+01  0.20724164687E+02 -0.13692204592E+03  0.13882437921E+03  0.00000000000E+00 0. -1.
<mgrwt>
<rscale>  4 0.64618109E+03</rscale>
<asrwt>0</asrwt>
<pdfrwt beam="1">  1       21 0.27442783E-01 0.64618109E+03</pdfrwt>
<pdfrwt beam="2">  1        2 0.39663242E+00 0.64618109E+03</pdfrwt>
<totfact> 0.49782789E+02</totfact>
</mgrwt>
</event>
<event>
 5    0  0.3188794E-002  0.8747011E+03  0.7546771E-02  0.9457771E-01
          2   -1    0    0  503    0 -0.00000000000E+00  0.00000000000E+00  0.49885717642E+03  0.49885717642E+03  0.00000000000E+00 0.  1.
         21   -1    0    0  501  502  0.00000000000E+00 -0.00000000000E+00 -0.79761276836E+03  0.79761276836E+03  0.00000000000E+00 0.  1.
         25    1    1    2    0    0  0.14420138230E+03  0.36778312001E+03  0.15631278104E+03  0.44285115732E+03  0.12500000000E+03 0.  0.
         21    1    1    2  503  502 -0.36305743407E+03 -0.10272845727E+03 -0.21394431286E+03  0.43374647592E+03  0.00000000000E+00 0. -1.
          2    1    1    2  501    0  0.21885605177E+03 -0.26505466274E+03 -0.24112406012E+03  0.41987231155E+03  0.00000000000E+00 0.  1.
<mgrwt>
<rscale>  4 0.87470110E+03</rscale>
<asrwt>0</asrwt>
<pdfrwt beam="1">  1       21 0.12270966E+00 0.87470110E+03</pdfrwt>
<pdfrwt beam="2">  1        2 0.76747258E-01 0.87470110E+03</pdfrwt>
<totfact> 0.31984474E+02</totfact>
</mgrwt>
</event>
<event>
 5    0  0.3188794E-002  0.3614890E+03  0.7546771E-02  0.1057996E+00
         21   -1    0    0  501  502  0.00000000000E+00  0.00000000000E+00  0.32231164831E+03  0.32231164831E+03  0.00000000000E+00 0.  1.
          1   -1    0    0  503    0 -0.00000000000E+00 -0.00000000000E+00 -0.16831772437E+03  0.16831772437E+03  0.00000000000E+00 0. -1.
         25    1    1    2    0    0  0.18859062778E+03 -0.77572146712E+02  0.14649133935E+03  0.28047918878E+03  0.12500000000E+03 0.  0.
         21    1    1    2  503  502 -0.87538213022E+02  0.56685429228E+02 -0.12518099364E+02  0.10503751443E+03  0.00000000000E+00 0. -1.
          1    1    1    2  501    0 -0.10105241476E+03  0.20886717483E+02  0.20020683952E+02  0.10511266946E+03  0.00000000000E+00 0. -1.
<mgrwt>
<rscale>  4 0.36148900E+03</rscale>
<asrwt>0</asrwt>
<pdfrwt beam="1">  1       21 0.49586407E-01 0.36148900E+03</pdfrwt>
<pdfrwt beam="2">  1        1 0.25895035E-01 0.36148900E+03</pdfrwt>
<totfact> 0.74344793E+03</totfact>
</mgrwt>
</event>
<event>
 5    0  0.3188794E-002  0.4215896E+03  0.7546771E-02  0.1036550E+00
          1   -1    0    0  503    0 -0.00000000000E+00  0.00000000000E+00  0.56788890385E+03  0.56788890385E+03  0.00000000000E+00 0.  1.
         21   -1    0    0  501  502  0.00000000000E+00 -0.00000000000E+00 -0.14372371872E+03  0.14372371872E+03  0.00000000000E+00 0. -1.
         25    1    1    2    0    0 -0.20696114601E+02  0.23402218077E+03  0.19466065006E+03  0.32971575476E+03  0.12500000000E+03 0.  0.
         21    1    1    2  503  502 -0.44020749019E+02 -0.13417337081E+03  0.22144443945E+03  0.26263655408E+03  0.00000000000E+00 0.  1.
          1    1    1    2  501    0  0.64716863619E+02 -0.99848809966E+02  0.80600956184E+01  0.11926031372E+03  0.00000000000E+00 0.  1.
<mgrwt>
<rscale>  4 0.42158963E+03</rscale>
<asrwt>0</asrwt>
<pdfrwt beam="1">  1       21 0.22111342E-01 0.42158963E+03</pdfrwt>
<pdfrwt beam="2">  1        1 0.87367523E-01 0.42158963E+03</pdfrwt>
<totfact> 0.77003992E+03</totfact>
</mgrwt>
</event>
<event>
 5    0  0.3188794E-002  0.7559659E+03  0.7546771E-02  0.9626037E-01
          2   -1    0    0  503    0 -0.00000000000E+00  0.00000000000E+00  0.79888120114E+03  0.79888120114E+03  0.00000000000E+00 0.  1.
         21   -1    0    0  501  502  0.00000000000E+00 -0.00000000000E+00 -0.26852850861E+03  0.26852850861E+03  0.00000000000E+00 0. -1.
         25    1    1    2    0    0 -0.20885965703E+03 -0.14452944855E+03 -0.31125555868E+02  0.28478925201E+03  0.12500000000E+03 0.  0.
         21    1    1    2  503  502  0.18810629701E+03  0.14621173981E+03  0.64968389420E+03  0.69199061714E+03  0.00000000000E+00 0.  1.
          2    1    1    2  501    0  0.20753360011E+02 -0.16822912637E+01 -0.88205645805E+02  0.90629840602E+02  0.00000000000E+00 0.  1.
<mgrwt>
<rscale>  4 0.75596593E+03</rscale>
<asrwt>0</asrwt>
<pdfrwt beam="1">  1       21 0.41312079E-01 0.75596593E+03</pdfrwt>
<pdfrwt beam="2">  1        2 0.12290480E+00 0.75596593E+03</pdfrwt>
<totfact> 0.22424327E+03</totfact>
</mgrwt>
</event>
<event>
 5    0  0.3188794E-002  0.5617479E+03  0.7546771E-02  0.9988107E-01
         -3   -1    0    0    0  501 -0.00000000000E+00  0.00000000000E+00  0.13752939824E+03  0.13752939824E+03  0.00000000000E+00 0. -1.
         21   -1    0    0  503  502  0.00000000000E+00 -0.00000000000E+00 -0.11751749368E+04  0.11751749368E+04  0.00000000000E+00 0. -1.
         25    1    1    2    0    0  0.39352060271E+02  0.32486766632E+03 -0.26148207121E+03  0.43713322778E+03  0.12500000000E+03 0.  0.
         21    1    1    2  503  501 -0.12503695948E+03 -0.10473464076E+03 -0.39217961734E+03  0.42474514531E+03  0.00000000000E+00 0. -1.
         -3    1    1    2    0  502  0.85684899204E+02 -0.22013302556E+03 -0.38398384998E+03  0.45082596191E+03  0.00000000000E+00 0. -1.
<mgrwt>
<rscale>  4 0.56174792E+03</rscale>
<asrwt>0</asrwt>
<pdfrwt beam="1">  1       21 0.18079614E+00 0.56174792E+03</pdfrwt>
<pdfrwt beam="2">  1       -3 0.21158370E-01 0.56174792E+03</pdfrwt>
<totfact> 0.16199919E+02</totfact>
</mgrwt>
</event>
<event>
 5    0  0.3188794E-002  0.3952943E+03  0.7546771E-02  0.1045421E+00
         -1   -1    0    0    0  501 -0.00000000000E+00  0.00000000000E+00  0.44554571287E+03  0.44554571287E+03  0.00000000000E+00 0. -1.
         21   -1    0    0  501  502  0.00000000000E+00 -0.00000000000E+00 -0.32561881148E+03  0.32561881148E+03  0.00000000000E+00 0.  1.
         25    1    1    2    0    0  0.18445331355E+03  0.85799257122E+02  0.27885152340E+03  0.36710721799E+03  0.12500000000E+03 0.  0.
         21    1    1    2  503  502  0.85572747261E+02 -0.46532977600E+02 -0.27645739305E+02  0.10125364181E+03  0.00000000000E+00 0.  1.
         -1    1    1    2    0  503 -0.27002606081E+03 -0.39266279523E+02 -0.13127888271E+03  0.30280366455E+03  0.00000000000E+00 0. -1.
<mgrwt>
<rscale>  4 0.39529426E+03</rscale>
<asrwt>0</asrwt>
<pdfrwt beam="1">  1       21 0.50095202E-01 0.39529426E+03</pdfrwt>
<pdfrwt beam="2">  1       -1 0.68545494E-01 0.39529426E+03</pdfrwt>
<totfact> 0.74159336E+02</totfact>
</mgrwt>
</event>
<event>
 5    0  0.3188794E-002  0.3638479E+03  0.7546771E-02  0.1057071E+00
         21   -1    0    0  503  502  0.00000000000E+00  0.00000000000E+00  0.16798808588E+02  0.16798808588E+02  0.00000000000E+00 0. -1.
          2   -1    0    0  502    0 -0.00000000000E+00 -0.00000000000E+00 -0.33770965508E+04  0.33770965508E+04  0.00000000000E+00 0.  1.
         25    1    1    2    0    0  0.36509731741E+01  0.21631387722E+03 -0.20420331515E+04  0.20572626023E+04  0.12500000000E+03 0.  0.
         21    1    1    2  503  501  0.20237438683E+02 -0.10877310496E+03 -0.67112503754E+03  0.68018376803E+03  0.00000000000E+00 0. -1.
          2    1    1    2  501    0 -0.23888411857E+02 -0.10754077226E+03 -0.64713955326E+03  0.65644898912E+03  0.00000000000E+00 0.  1.
<mgrwt>
<rscale>  4 0.36384787E+03</rscale>
<asrwt>0</asrwt>
<pdfrwt beam="1">  1       21 0.25844309E-02 0.36384787E+03</pdfrwt>
<pdfrwt beam="2">  1        2 0.51955356E+00 0.36384787E+03</pdfrwt>
<totfact> 0.12241595E+04</totfact>
</mgrwt>
</event>
<event>
 5    0  0.3188794E-002  0.7529035E+03  0.7546771E-02  0.9630806E-01
         21   -1    0    0  503  502  0.00000000000E+00  0.00000000000E+00  0.79845812587E+03  0.79845812587E+03  0.00000000000E+00 0.  1.
         -2   -1    0    0    0  501 -0.00000000000E+00 -0.00000000000E+00 -0.47743038146E+03  0.47743038146E+03  0.00000000000E+00 0. -1.
         25    1    1    2    0    0 -0.33591210168E+03 -0.25282461561E+03  0.53512674027E+03  0.69191246157E+03  0.12500000000E+03 0.  0.
         21    1    1    2  503  501  0.11080919198E+03 -0.74869492979E+02 -0.10961372793E+03  0.17291410398E+03  0.00000000000E+00 0. -1.
         -2    1    1    2    0  502  0.22510290970E+03  0.32769410859E+03 -0.10448526794E+03  0.41106194178E+03  0.00000000000E+00 0. -1.
<mgrwt>
<rscale>  4 0.75290349E+03</rscale>
<asrwt>0</asrwt>
<pdfrwt beam="1">  1       21 0.12283971E+00 0.75290349E+03</pdfrwt>
<pdfrwt beam="2">  1       -2 0.73450828E-01 0.75290349E+03</pdfrwt>
<totfact> 0.58093119E+01</totfact>
</mgrwt>
</event>
<event>
 5    0  0.3188794E-002  0.4284922E+03  0.7546771E-02  0.1034337E+00
         21   -1    0    0  501  502  0.00000000000E+00  0.00000000000E+00  0.28974591195E+03  0.28974591195E+03  0.00000000000E+00 0. -1.
          1   -1    0    0  503    0 -0.00000000000E+00 -0.00000000000E+00 -0.45096936609E+03  0.45096936609E+03  0.00000000000E+00 0. -1.
         25    1    1    2    0    0 -0.21194101808E+03  0.10037310636E+03 -0.25764482630E+03  0.37013458653E+03  0.12500000000E+03 0.  0.
         21    1    1    2  503  502  0.10839036948E+03 -0.11056720216E+03 -0.73452008834E+02  0.17137320675E+03  0.00000000000E+00 0.  1.
          1    1    1    2  501    0  0.10355064859E+03  0.10194095800E+02  0.16987338100E+03  0.19920748476E+03  0.00000000000E+00 0. -1.
<mgrwt>
<rscale>  4 0.42849221E+03</rscale>
<asrwt>0</asrwt>
<pdfrwt beam="1">  1       21 0.44576294E-01 0.42849221E+03</pdfrwt>
<pdfrwt beam="2">  1        1 0.69379902E-01 0.42849221E+03</pdfrwt>
<totfact> 0.25921395E+03</totfact>
</mgrwt>
</event>
<event>
 5    0  0.3188794E-002  0.5397934E+03  0.7546771E-02  0.1003884E+00
         21   -1    0    0  503  502  0.00000000000E+00  0.00000000000E+00  0.81821035528E+03  0.81821035528E+03  0.00000000000E+00 0.  1.
         -1   -1    0    0    0  501 -0.00000000000E+00 -0.00000000000E+00 -0.11057032320E+03  0.11057032320E+03  0.00000000000E+00 0. -1.
         25    1    1    2    0    0 -0.21656190303E+03  0.48539216600E+02  0.55074639511E+03  0.60679626327E+03  0.12500000000E+03 0.  0.
         21    1    1    2  503  501  0.18882888610E+03 -0.31332167045E+01  0.39280650626E+02  0.19289669460E+03  0.00000000000E+00 0. -1.
         -1    1    1    2    0  502  0.27733016929E+02 -0.45405999895E+02  0.11761298635E+03  0.12908772061E+03  0.00000000000E+00 0. -1.
<mgrwt>
<rscale>  4 0.53979340E+03</rscale>
<asrwt>0</asrwt>
<pdfrwt beam="1">  1       21 0.12587851E+00 0.53979340E+03</pdfrwt>
<pdfrwt beam="2">  1       -1 0.17010819E-01 0.53979340E+03</pdfrwt>
<totfact> 0.10117750E+03</totfact>
</mgrwt>
</event>
<event>
 5    0  0.3188794E-002  0.4589062E+03  0.7546771E-02  0.1025099E+00
          2   -1    0    0  503    0 -0.00000000000E+00  0.00000000000E+00  0.40976309613E+04  0.40976309613E+04  0.00000000000E+00 0.  1.
         21   -1    0    0  501  502  0.00000000000E+00 -0.00000000000E+00 -0.29892118657E+02  0.29892118657E+02  0.00000000000E+00 0. -1.
         25    1    1    2    0    0 -0.12586877538E+03 -0.17677380380E+03  0.18258048589E+04  0.18428999726E+04  0.12500000000E+03 0.  0.
         21    1    1    2  503  502 -0.75772378499E+02  0.19420273222E+03  0.15415862739E+04  0.15556170462E+04  0.00000000000E+00 0.  1.
          2    1    1    2  501    0  0.20164115388E+03 -0.17428928425E+02  0.70034770986E+03  0.72900606115E+03  0.00000000000E+00 0.  1.
<mgrwt>
<rscale>  4 0.45890618E+03</rscale>
<asrwt>0</asrwt>
<pdfrwt beam="1">  1       21 0.45987907E-02 0.45890618E+03</pdfrwt>
<pdfrwt beam="2">  1        2 0.63040432E+00 0.45890618E+03</pdfrwt>
<totfact> 0.13590789E+03</totfact>
</mgrwt>
</event>
<event>
 5    0  0.3188794E-002  0.4989494E+03  0.7546771E-02  0.1014054E+00
          1   -1    0    0  503    0 -0.00000000000E+00  0.00000000000E+00  0.23557595592E+04  0.23557595592E+04  0.00000000000E+00 0.  1.
         21   -1    0    0  501  502  0.00000000000E+00 -0.00000000000E+00 -0.10069049822E+03  0.10069049822E+03  0.00000000000E+00 0.  1.
         25    1    1    2    0    0 -0.21510851529E+03 -0.19752885140E+03  0.49670942716E+03  0.58960544054E+03  0.12500000000E+03 0.  0.
         21    1    1    2  503  502 -0.61650018318E+02 -0.16094526758E+03  0.42226361018E+03  0.45608185713E+03  0.00000000000E+00 0.  1.
          1    1    1    2  501    0  0.27675853361E+03  0.35847411898E+03  0.13360960236E+04  0.14107627598E+04  0.00000000000E+00 0.  1.
<mgrwt>
<rscale>  4 0.49894938E+03</rscale>
<asrwt>0</asrwt>
<pdfrwt beam="1">  1       21 0.15490848E-01 0.49894938E+03</pdfrwt>
<pdfrwt beam="2">  1        1 0.36242451E+00 0.49894938E+03</pdfrwt>
<totfact> 0.73920058E+02</totfact>
</mgrwt>
</event>
<event>
 5    0  0.3188794E-002  0.4381244E+03  0.7546771E-02  0.1031324E+00
         -1   -1    0    0    0  501 -0.00000000000E+00  0.00000000000E+00  0.34936404632E+03  0.34936404632E+03  0.00000000000E+00 0.  1.
         21   -1    0    0  503  502  0.00000000000E+00 -0.00000000000E+00 -0.33362776093E+03  0.33362776093E+03  0.00000000000E+00 0. -1.
         25    1    1    2    0    0 -0.16595590340E+03 -0.13363303019E+03  0.23260454110E+03  0.33930667717E+03  0.12500000000E+03 0.  0.
         21    1    1    2  503  501  0.12557405952E+03  0.18783020653E+02 -0.48511691448E+02  0.13592288437E+03  0.00000000000E+00 0. -1.
         -1    1    1    2    0  502  0.40381843875E+02  0.11485000954E+03 -0.16835656427E+03  0.20776224570E+03  0.00000000000E+00 0.  1.
<mgrwt>
<rscale>  4 0.43812436E+03</rscale>
<asrwt>0</asrwt>
<pdfrwt beam="1">  1       21 0.51327348E-01 0.43812436E+03</pdfrwt>
<pdfrwt beam="2">  1       -1 0.53748315E-01 0.43812436E+03</pdfrwt>
<totfact> 0.11229100E+03</totfact>
</mgrwt>
</event>
<event>
 5    0  0.3188794E-002  0.2730757E+03  0.7546771E-02  0.1099532E+00
          2   -1    0    0  503    0 -0.00000000000E+00  0.00000000000E+00  0.19289668235E+04  0.19289668235E+04  0.00000000000E+00 0.  1.
         21   -1    0    0  501  502  0.00000000000E+00 -0.00000000000E+00 -0.44307908165E+02  0.44307908165E+02  0.00000000000E+00 0.  1.
         25    1    1    2    0    0 -0.11094561505E+02  0.21015855279E+03  0.15093774184E+04  0.15290961048E+04  0.12500000000E+03 0.  0.
         21    1    1    2  503  502  0.22886107564E+02 -0.76716573138E-01  0.68100738818E+02  0.71843513503E+02  0.00000000000E+00 0. -1.
          2    1    1    2  501    0 -0.11791546059E+02 -0.21008183622E+03  0.30718075812E+03  0.37233511334E+03  0.00000000000E+00 0.  1.
<mgrwt>
<rscale>  4 0.27307568E+03</rscale>
<asrwt>0</asrwt>
<pdfrwt beam="1">  1       21 0.68166027E-02 0.27307568E+03</pdfrwt>
<pdfrwt beam="2">  1        2 0.29676406E+00 0.27307568E+03</pdfrwt>
<totfact> 0.16192560E+04</totfact>
</mgrwt>
</event>
<event>
 5    0  0.3188794E-002  0.6946593E+03  0.7546771E-02  0.9726409E-01
         21   -1    0    0  501  502  0.00000000000E+00  0.00000000000E+00  0.53724562373E+03  0.53724562373E+03  0.00000000000E+00 0. -1.
          2   -1    0    0  503    0 -0.00000000000E+00 -0.00000000000E+00 -0.95949500174E+03  0.95949500174E+03  0.00000000000E+00 0.  1.
         25    1    1    2    0    0  0.30268211375E+03  0.13201935081E+02 -0.30764958247E+03  0.44951531527E+03  0.12500000000E+03 0.  0.
         21    1    1    2  503  502  0.23298433106E+03 -0.27838117576E+03 -0.24174535531E+03  0.43614056719E+03  0.00000000000E+00 0. -1.
          2    1    1    2  501    0 -0.53566644480E+03  0.26517924068E+03  0.12714555977E+03  0.61108474301E+03  0.00000000000E+00 0.  1.
<mgrwt>
<rscale>  4 0.69465930E+03</rscale>
<asrwt>0</asrwt>
<pdfrwt beam="1">  1       21 0.82653173E-01 0.69465930E+03</pdfrwt>
<pdfrwt beam="2">  1        2 0.14761461E+00 0.69465930E+03</pdfrwt>
<totfact> 0.37993185E+02</totfact>
</mgrwt>
</event>
<event>
 5    0  0.3188794E-002  0.4355306E+03  0.7546771E-02  0.1032127E+00
          1   -1    0    0  502    0 -0.00000000000E+00  0.00000000000E+00  0.32390499021E+04  0.32390499021E+04  0.00000000000E+00 0. -1.
         21   -1    0    0  503  502  0.00000000000E+00 -0.00000000000E+00 -0.32188715340E+02  0.32188715340E+02  0.00000000000E+00 0. -1.
         25    1    1    2    0    0  0.20542007216E+03  0.10649964072E+03  0.18965722389E+04  0.19147195191E+04  0.12500000000E+03 0.  0.
         21    1    1    2  503  501  0.44623510246E+01 -0.10968833668E+03  0.21618045622E+03  0.24245707544E+03  0.00000000000E+00 0.  1.
          1    1    1    2  501    0 -0.20988242318E+03  0.31886959657E+01  0.10941084916E+04  0.11140620228E+04  0.00000000000E+00 0. -1.
<mgrwt>
<rscale>  4 0.43553061E+03</rscale>
<asrwt>0</asrwt>
<pdfrwt beam="1">  1       21 0.49521126E-02 0.43553061E+03</pdfrwt>
<pdfrwt beam="2">  1        1 0.49831511E+00 0.43553061E+03</pdfrwt>
<totfact> 0.14034271E+03</totfact>
</mgrwt>
</event>
<event>
 5    0  0.3188794E-002  0.5481219E+03  0.7546771E-02  0.1001930E+00
          1   -1    0    0  503    0 -0.00000000000E+00  0.00000000000E+00  0.37494397581E+03  0.37494397581E+03  0.00000000000E+00 0. -1.
         21   -1    0    0  501  502  0.00000000000E+00 -0.00000000000E+00 -0.42204987304E+03  0.42204987304E+03  0.00000000000E+00 0.  1.
         25    1    1    2    0    0  0.29133351230E+03  0.66938515888E+02 -0.49100590400E+01  0.32404488729E+03  0.12500000000E+03 0.  0.
         21    1    1    2  503  502 -0.19176581092E+03  0.43600012503E+02  0.13727679185E+03  0.23983328566E+03  0.00000000000E+00 0. -1.
          1    1    1    2  501    0 -0.99567701382E+02 -0.11053852839E+03 -0.17947263004E+03  0.23311567590E+03  0.00000000000E+00 0. -1.
<mgrwt>
<rscale>  4 0.54812192E+03</rscale>
<asrwt>0</asrwt>
<pdfrwt beam="1">  1       21 0.64930750E-01 0.54812192E+03</pdfrwt>
<pdfrwt beam="2">  1        1 0.57683689E-01 0.54812192E+03</pdfrwt>
<totfact> 0.14383990E+03</totfact>
</mgrwt>
</event>
<event>
 5    0  0.3188794E-002  0.4715060E+03  0.7546771E-02  0.1021496E+00
         21   -1    0    0  501  502  0.00000000000E+00  0.00000000000E+00  0.23419096907E+03  0.23419096907E+03  0.00000000000E+00 0.  1.
          2   -1    0    0  503    0 -0.00000000000E+00 -0.00000000000E+00 -0.58655884469E+03  0.58655884469E+03  0.00000000000E+00 0.  1.
         25    1    1    2    0    0 -0.54038940715E+02  0.21838856646E+03 -0.32386152883E+03  0.41367265190E+03  0.12500000000E+03 0.  0.
         21    1    1    2  503  502 -0.75330454848E+02 -0.18801061379E+03 -0.12929484460E+03  0.24029112586E+03  0.00000000000E+00 0.  1.
          2    1    1    2  501    0  0.12936939556E+03 -0.30377952665E+02  0.10078849781E+03  0.16678603601E+03  0.00000000000E+00 0.  1.
<mgrwt>
<rscale>  4 0.47150602E+03</rscale>
<asrwt>0</asrwt>
<pdfrwt beam="1">  1       21 0.36029380E-01 0.47150602E+03</pdfrwt>
<pdfrwt beam="2">  1        2 0.90239822E-01 0.47150602E+03</pdfrwt>
<totfact> 0.45397028E+03</totfact>
</mgrwt>
</event>
<event>
 5    0  0.3188794E-002  0.6457766E+03  0.7546771E-02  0.9814737E-01
          2   -1    0    0  503    0 -0.00000000000E+00  0.00000000000E+00  0.34705547928E+04  0.34705547928E+04  0.00000000000E+00 0.  1.
         21   -1    0    0  501  502  0.00000000000E+00 -0.00000000000E+00 -0.32146449798E+02  0.32146449798E+02  0.00000000000E+00 0. -1.
         25    1    1    2    0    0  0.14735762481E+03 -0.15962980887E+03  0.55176638052E+03  0.60602564643E+03  0.12500000000E+03 0.  0.
         21    1    1    2  503  502 -0.16027924528E+03  0.14212903583E+03  0.27480235776E+04  0.27563605864E+04  0.00000000000E+00 0.  1.
          2    1    1    2  501    0  0.12921620474E+02  0.17500773036E+02  0.13861838490E+03  0.14031500977E+03  0.00000000000E+00 0.  1.
<mgrwt>
<rscale>  4 0.64577660E+03</rscale>
<asrwt>0</asrwt>
<pdfrwt beam="1">  1       21 0.49456104E-02 0.64577660E+03</pdfrwt>
<pdfrwt beam="2">  1        2 0.53393121E+00 0.64577660E+03</pdfrwt>
<totfact> 0.32920202E+03</totfact>
</mgrwt>
</event>
<event>
 5    0  0.3188794E-002  0.7313567E+03  0.7546771E-02  0.9665061E-01
         -4   -1    0    0    0  501 -0.00000000000E+00  0.00000000000E+00  0.20778026655E+04  0.20778026655E+04  0.00000000000E+00 0. -1.
         21   -1    0    0  503  502  0.00000000000E+00 -0.00000000000E+00 -0.70282264375E+02  0.70282264375E+02  0.00000000000E+00 0.  1.
         25    1    1    2    0    0 -0.29997576576E+03  0.78925334700E+01  0.14485759883E+04  0.14846026896E+04  0.12500000000E+03 0.  0.
         21    1    1    2  503  501  0.32462584758E+03  0.12272978083E+02  0.49557106044E+03  0.59255653136E+03  0.00000000000E+00 0.  1.
         -4    1    1    2    0  502 -0.24650081824E+02 -0.20165511553E+02  0.63373352309E+02  0.70925708830E+02  0.00000000000E+00 0. -1.
<mgrwt>
<rscale>  4 0.73135674E+03</rscale>
<asrwt>0</asrwt>
<pdfrwt beam="1">  1       21 0.10812658E-01 0.73135674E+03</pdfrwt>
<pdfrwt beam="2">  1       -4 0.31966190E+00 0.73135674E+03</pdfrwt>
<totfact> 0.74704288E+01</totfact>
</mgrwt>
</event>
<event>
 5    0  0.3188794E-002  0.3803193E+03  0.7546771E-02  0.1050816E+00
          2   -1    0    0  502    0 -0.00000000000E+00  0.00000000000E+00  0.30640658784E+03  0.30640658784E+03  0.00000000000E+00 0.  1.
         21   -1    0    0  503  502  0.00000000000E+00 -0.00000000000E+00 -0.45824171383E+03  0.45824171383E+03  0.00000000000E+00 0.  1.
         25    1    1    2    0    0 -0.11358972580E+03  0.28162568432E+03 -0.13386736513E+03  0.35462814795E+03  0.12500000000E+03 0.  0.
         21    1    1    2  503  501 -0.39575322398E+02  0.32153373279E+02 -0.32645924516E+02  0.60545866445E+02  0.00000000000E+00 0.  1.
          2    1    1    2  501    0  0.15316504820E+03 -0.31377905759E+03  0.14678163660E+02  0.34947428727E+03  0.00000000000E+00 0.  1.
<mgrwt>
<rscale>  4 0.38031932E+03</rscale>
<asrwt>0</asrwt>
<pdfrwt beam="1">  1       21 0.70498725E-01 0.38031932E+03</pdfrwt>
<pdfrwt beam="2">  1        2 0.47139475E-01 0.38031932E+03</pdfrwt>
<totfact> 0.22879260E+03</totfact>
</mgrwt>
</event>
<event>
 5    0  0.3188794E-002  0.4002773E+03  0.7546771E-02  0.1043684E+00
         21   -1    0    0  501  502  0.00000000000E+00  0.00000000000E+00  0.43804367552E+03  0.43804367552E+03  0.00000000000E+00 0. -1.
         -2   -1    0    0    0  501 -0.00000000000E+00 -0.00000000000E+00 -0.20329029508E+03  0.20329029508E+03  0.00000000000E+00 0.  1.
         25    1    1    2    0    0  0.24778951416E+03 -0.74740178707E+02  0.23634064488E+03  0.37211239977E+03  0.12500000000E+03 0.  0.
         21    1    1    2  503  502 -0.71620619442E+02  0.63086963232E+01 -0.30370730310E+02  0.78049305174E+02  0.00000000000E+00 0.  1.
         -2    1    1    2    0  503 -0.17616889472E+03  0.68431482383E+02  0.28783465865E+02  0.19117226566E+03  0.00000000000E+00 0.  1.
<mgrwt>
<rscale>  4 0.40027735E+03</rscale>
<asrwt>0</asrwt>
<pdfrwt beam="1">  1       21 0.67391334E-01 0.40027735E+03</pdfrwt>
<pdfrwt beam="2">  1       -2 0.31275430E-01 0.40027735E+03</pdfrwt>
<totfact> 0.14567268E+03</totfact>
</mgrwt>
</event>
<event>
 5    0  0.3188794E-002  0.5544493E+03  0.7546771E-02  0.1000469E+00
         21   -1    0    0  503  502  0.00000000000E+00  0.00000000000E+00  0.13429597895E+03  0.13429597895E+03  0.00000000000E+00 0. -1.
         -2   -1    0    0    0  501 -0.00000000000E+00 -0.00000000000E+00 -0.63336614580E+03  0.63336614580E+03  0.00000000000E+00 0.  1.
         25    1    1    2    0    0  0.56899116643E+02  0.25308652297E+03 -0.30006676529E+03  0.41587902233E+03  0.12500000000E+03 0.  0.
         21    1    1    2  503  501 -0.37296417966E+02 -0.26079071824E+03 -0.19990187399E+03  0.33070164913E+03  0.00000000000E+00 0. -1.
         -2    1    1    2    0  502 -0.19602698677E+02  0.77041952629E+01  0.89847242310E+00  0.21081453289E+02  0.00000000000E+00 0.  1.
<mgrwt>
<rscale>  4 0.55444933E+03</rscale>
<asrwt>0</asrwt>
<pdfrwt beam="1">  1       21 0.20660920E-01 0.55444933E+03</pdfrwt>
<pdfrwt beam="2">  1       -2 0.97440947E-01 0.55444933E+03</pdfrwt>
<totfact> 0.15339512E+03</totfact>
</mgrwt>
</event>
<event>
 5    0  0.3188794E-002  0.4666558E+03  0.7546771E-02  0.1022868E+00
         21   -1    0    0  503  502  0.00000000000E+00  0.00000000000E+00  0.25917071476E+04  0.25917071476E+04  0.00000000000E+00 0. -1.
          1   -1    0    0  502    0 -0.00000000000E+00 -0.00000000000E+00 -0.29144533056E+02  0.29144533056E+02  0.00000000000E+00 0.  1.
         25    1    1    2    0    0 -0.31377093951E+02 -0.24207010760E+03  0.95851746392E+03  0.99697702464E+03  0.12500000000E+03 0.  0.
         21    1    1    2  503  501  0.45548326590E+02  0.17419574025E+03  0.10251345477E+04  0.10408264250E+04  0.00000000000E+00 0.  1.
          1    1    1    2  501    0 -0.14171232639E+02  0.67874367356E+02  0.57891060292E+03  0.58304823107E+03  0.00000000000E+00 0.  1.
<mgrwt>
<rscale>  4 0.46665576E+03</rscale>
<asrwt>0</asrwt>
<pdfrwt beam="1">  1       21 0.39872400E+00 0.46665576E+03</pdfrwt>
<pdfrwt beam="2">  1        1 0.44837763E-02 0.46665576E+03</pdfrwt>
<totfact> 0.14763091E+02</totfact>
</mgrwt>
</event>
<event>
 5    0  0.3188794E-002  0.3977780E+03  0.7546771E-02  0.1044552E+00
          2   -1    0    0  503    0 -0.00000000000E+00  0.00000000000E+00  0.24231726269E+03  0.24231726269E+03  0.00000000000E+00 0. -1.
         21   -1    0    0  501  502  0.00000000000E+00 -0.00000000000E+00 -0.30521987447E+03  0.30521987447E+03  0.00000000000E+00 0.  1.
         25    1    1    2    0    0 -0.14973111420E+03  0.18343637778E+03  0.23937112200E+02  0.26882391373E+03  0.12500000000E+03 0.  0.
         21    1    1    2  503  502  0.40656789787E+02 -0.12275833611E+03 -0.49084551561E+01  0.12940895090E+03  0.00000000000E+00 0. -1.
          2    1    1    2  501    0  0.10907432441E+03 -0.60678041669E+02 -0.81931268817E+02  0.14930427253E+03  0.00000000000E+00 0. -1.
<mgrwt>
<rscale>  4 0.39777798E+03</rscale>
<asrwt>0</asrwt>
<pdfrwt beam="1">  1       21 0.46956903E-01 0.39777798E+03</pdfrwt>
<pdfrwt beam="2">  1        2 0.37279579E-01 0.39777798E+03</pdfrwt>
<totfact> 0.71245702E+03</totfact>
</mgrwt>
</event>
<event>
 5    0  0.3188794E-002  0.4271348E+03  0.7546771E-02  0.1034769E+00
          2   -1    0    0  503    0 -0.00000000000E+00  0.00000000000E+00  0.18387827608E+04  0.18387827608E+04  0.00000000000E+00 0. -1.
         21   -1    0    0  501  502  0.00000000000E+00 -0.00000000000E+00 -0.33515567674E+02  0.33515567674E+02  0.00000000000E+00 0.  1.
         25    1    1    2    0    0  0.44650084579E+02  0.19757223301E+03  0.11026797571E+04  0.11280762670E+04  0.12500000000E+03 0.  0.
         21    1    1    2  503  502 -0.60184916233E+02 -0.17665734527E+03  0.69090904540E+03  0.71567125889E+03  0.00000000000E+00 0.  1.
          2    1    1    2  501    0  0.15534831654E+02 -0.20914887745E+02  0.11678390610E+02  0.28550802636E+02  0.00000000000E+00 0. -1.
<mgrwt>
<rscale>  4 0.42713481E+03</rscale>
<asrwt>0</asrwt>
<pdfrwt beam="1">  1       21 0.51562426E-02 0.42713481E+03</pdfrwt>
<pdfrwt beam="2">  1        2 0.28288958E+00 0.42713481E+03</pdfrwt>
<totfact> 0.28438926E+04</totfact>
</mgrwt>
</event>
<event>
 5    0  0.3188794E-002  0.4804128E+03  0.7546771E-02  0.1019022E+00
         21   -1    0    0  501  502  0.00000000000E+00  0.00000000000E+00  0.89871629113E+03  0.89871629113E+03  0.00000000000E+00 0.  1.
         -4   -1    0    0    0  501 -0.00000000000E+00 -0.00000000000E+00 -0.10784826211E+03  0.10784826211E+03  0.00000000000E+00 0.  1.
         25    1    1    2    0    0 -0.22300909548E+03 -0.63608130145E+02  0.13675549906E+03  0.29682674645E+03  0.12500000000E+03 0.  0.
         21    1    1    2  503  502  0.17098251168E+03  0.68694068359E+02  0.30207772590E+03  0.35384296914E+03  0.00000000000E+00 0. -1.
         -4    1    1    2    0  503  0.52026583798E+02 -0.50859382135E+01  0.35203480406E+03  0.35589483764E+03  0.00000000000E+00 0.  1.
<mgrwt>
<rscale>  4 0.48041282E+03</rscale>
<asrwt>0</asrwt>
<pdfrwt beam="1">  1       21 0.13826404E+00 0.48041282E+03</pdfrwt>
<pdfrwt beam="2">  1       -4 0.16592041E-01 0.48041282E+03</pdfrwt>
<totfact> 0.47043258E+02</totfact>
</mgrwt>
</event>
<event>
 5    0  0.3188794E-002  0.5728546E+03  0.7546771E-02  0.9963382E-01
          2   -1    0    0  503    0 -0.00000000000E+00  0.00000000000E+00  0.72109149513E+03  0.72109149513E+03  0.00000000000E+00 0.  1.
         21   -1    0    0  501  502  0.00000000000E+00 -0.00000000000E+00 -0.67808474893E+03  0.67808474893E+03  0.00000000000E+00 0.  1.
         25    1    1    2    0    0 -0.22102794123E+02  0.25810248363E+03  0.39798754308E+03  0.49104430554E+03  0.12500000000E+03 0.  0.
         21    1    1    2  503  502 -0.23950314119E+02 -0.27151863738E+03  0.20815041099E+03  0.34296148703E+03  0.00000000000E+00 0. -1.
          2    1    1    2  501    0  0.46053108242E+02  0.13416153755E+02 -0.56313120787E+03  0.56517045149E+03  0.00000000000E+00 0.  1.
<mgrwt>
<rscale>  4 0.57285464E+03</rscale>
<asrwt>0</asrwt>
<pdfrwt beam="1">  1       21 0.10432073E+00 0.57285464E+03</pdfrwt>
<pdfrwt beam="2">  1        2 0.11093715E+00 0.57285464E+03</pdfrwt>
<totfact> 0.32634853E+02</totfact>
</mgrwt>
</event>
<event>
 5    0  0.3188794E-002  0.4189801E+03  0.7546771E-02  0.1037399E+00
         21   -1    0    0  501  502  0.00000000000E+00  0.00000000000E+00  0.14307778503E+04  0.14307778503E+04  0.00000000000E+00 0.  1.
          2   -1    0    0  503    0 -0.00000000000E+00 -0.00000000000E+00 -0.79293903377E+02  0.79293903377E+02  0.00000000000E+00 0. -1.
         25    1    1    2    0    0 -0.22838902220E+02  0.21105175557E+03  0.50997832512E+03  0.56636326777E+03  0.12500000000E+03 0.  0.
         21    1    1    2  503  502  0.21910536148E+02 -0.90967235364E+02 -0.10968270879E+00  0.93568806418E+02  0.00000000000E+00 0. -1.
          2    1    1    2  501    0  0.92836607186E+00 -0.12008452021E+03  0.84161530451E+03  0.85013967949E+03  0.00000000000E+00 0. -1.
<mgrwt>
<rscale>  4 0.41898008E+03</rscale>
<asrwt>0</asrwt>
<pdfrwt beam="1">  1       21 0.22011965E+00 0.41898008E+03</pdfrwt>
<pdfrwt beam="2">  1        2 0.12199063E-01 0.41898008E+03</pdfrwt>
<totfact> 0.54590640E+02</totfact>
</mgrwt>
</event>
<event>
 5    0  0.3188794E-002  0.4395545E+03  0.7546771E-02  0.1030884E+00
         21   -1    0    0  503  502  0.00000000000E+00  0.00000000000E+00  0.10626172873E+04  0.10626172873E+04  0.00000000000E+00 0. -1.
         -2   -1    0    0    0  501 -0.00000000000E+00 -0.00000000000E+00 -0.17073563827E+03  0.17073563827E+03  0.00000000000E+00 0. -1.
         25    1    1    2    0    0  0.20706739677E+03  0.30383367400E+02  0.21880990648E+03  0.32757110830E+03  0.12500000000E+03 0.  0.
         21    1    1    2  503  501 -0.44944273209E+02  0.11656879837E+03 -0.61545077083E+02  0.13926977045E+03  0.00000000000E+00 0.  1.
         -2    1    1    2    0  502 -0.16212312356E+03 -0.14695216577E+03  0.73461681961E+03  0.76651204679E+03  0.00000000000E+00 0. -1.
<mgrwt>
<rscale>  4 0.43955452E+03</rscale>
<asrwt>0</asrwt>
<pdfrwt beam="1">  1       21 0.16347958E+00 0.43955452E+03</pdfrwt>
<pdfrwt beam="2">  1       -2 0.26267022E-01 0.43955452E+03</pdfrwt>
<totfact> 0.22229779E+02</totfact>
</mgrwt>
</event>
<event>
 5    0  0.3188794E-002  0.4393621E+03  0.7546771E-02  0.1030943E+00
         21   -1    0    0  501  502  0.00000000000E+00  0.00000000000E+00  0.11299480195E+03  0.11299480195E+03  0.00000000000E+00 0. -1.
          2   -1    0    0  503    0 -0.00000000000E+00 -0.00000000000E+00 -0.11296796128E+04  0.11296796128E+04  0.00000000000E+00 0. -1.
         25    1    1    2    0    0 -0.19550210264E+03 -0.12254651146E+03 -0.83617144227E+03  0.87638256514E+03  0.12500000000E+03 0.  0.
         21    1    1    2  503  502  0.11378780950E+03  0.10222841176E+03 -0.22421554482E+03  0.27142388307E+03  0.00000000000E+00 0.  1.
          2    1    1    2  501    0  0.81714293137E+02  0.20318099702E+02  0.43702176199E+02  0.94867966580E+02  0.00000000000E+00 0. -1.
<mgrwt>
<rscale>  4 0.43936213E+03</rscale>
<asrwt>0</asrwt>
<pdfrwt beam="1">  1       21 0.17383815E-01 0.43936213E+03</pdfrwt>
<pdfrwt beam="2">  1        2 0.17379687E+00 0.43936213E+03</pdfrwt>
<totfact> 0.79054534E+03</totfact>
</mgrwt>
</event>
<event>
 5    0  0.3188794E-002  0.3874393E+03  0.7546771E-02  0.1048218E+00
         21   -1    0    0  501  502  0.00000000000E+00  0.00000000000E+00  0.13509479089E+03  0.13509479089E+03  0.00000000000E+00 0.  1.
          2   -1    0    0  503    0 -0.00000000000E+00 -0.00000000000E+00 -0.11599181095E+04  0.11599181095E+04  0.00000000000E+00 0.  1.
         25    1    1    2    0    0 -0.59536673864E+02  0.19891242204E+03 -0.89642570427E+03  0.92860907300E+03  0.12500000000E+03 0.  0.
         21    1    1    2  503  502  0.10491128064E+03 -0.50102073199E+02 -0.16945473372E+03  0.20550304457E+03  0.00000000000E+00 0. -1.
          2    1    1    2  501    0 -0.45374606780E+02 -0.14881034885E+03  0.41057119371E+02  0.16090078283E+03  0.00000000000E+00 0.  1.
<mgrwt>
<rscale>  4 0.38743927E+03</rscale>
<asrwt>0</asrwt>
<pdfrwt beam="1">  1       21 0.20783815E-01 0.38743927E+03</pdfrwt>
<pdfrwt beam="2">  1        2 0.17844894E+00 0.38743927E+03</pdfrwt>
<totfact> 0.54648687E+03</totfact>
</mgrwt>
</event>
<event>
 5    0  0.3188794E-002  0.4051648E+03  0.7546771E-02  0.1042006E+00
         21   -1    0    0  501  502  0.00000000000E+00  0.00000000000E+00  0.81785599892E+02  0.81785599892E+02  0.00000000000E+00 0. -1.
          2   -1    0    0  503    0 -0.00000000000E+00 -0.00000000000E+00 -0.12227674015E+04  0.12227674015E+04  0.00000000000E+00 0.  1.
         25    1    1    2    0    0 -0.19882744999E+03  0.27676061005E+02 -0.85454859806E+03  0.88666601698E+03  0.12500000000E+03 0.  0.
         21    1    1    2  503  502  0.12401101359E+02 -0.10072398427E+03 -0.71513531377E+02  0.12415028591E+03  0.00000000000E+00 0. -1.
          2    1    1    2  501    0  0.18642634863E+03  0.73047923264E+02 -0.21491967215E+03  0.29373669848E+03  0.00000000000E+00 0.  1.
<mgrwt>
<rscale>  4 0.40516482E+03</rscale>
<asrwt>0</asrwt>
<pdfrwt beam="1">  1       21 0.12582400E-01 0.40516482E+03</pdfrwt>
<pdfrwt beam="2">  1        2 0.18811806E+00 0.40516482E+03</pdfrwt>
<totfact> 0.12757249E+04</totfact>
</mgrwt>
</event>
<event>
 5    0  0.3188794E-002  0.6673488E+03  0.7546771E-02  0.9774759E-01
          1   -1    0    0  503    0 -0.00000000000E+00  0.00000000000E+00  0.53846315902E+03  0.53846315902E+03  0.00000000000E+00 0. -1.
         21   -1    0    0  501  502  0.00000000000E+00 -0.00000000000E+00 -0.45373178496E+03  0.45373178496E+03  0.00000000000E+00 0. -1.
         25    1    1    2    0    0 -0.22648144103E+03 -0.14989693585E+03 -0.97630156134E+01  0.29913751183E+03  0.12500000000E+03 0.  0.
         21    1    1    2  503  502  0.25616892610E+03  0.13144474533E+03  0.33973888024E+03  0.44533442099E+03  0.00000000000E+00 0. -1.
          1    1    1    2  501    0 -0.29687485069E+02  0.18452190522E+02 -0.24524449056E+03  0.24772301116E+03  0.00000000000E+00 0. -1.
<mgrwt>
<rscale>  4 0.66734878E+03</rscale>
<asrwt>0</asrwt>
<pdfrwt beam="1">  1       21 0.69804890E-01 0.66734878E+03</pdfrwt>
<pdfrwt beam="2">  1        1 0.82840486E-01 0.66734878E+03</pdfrwt>
<totfact> 0.73733565E+02</totfact>
</mgrwt>
</event>
<event>
 5    0  0.3188794E-002  0.5084774E+03  0.7546771E-02  0.1011590E+00
         21   -1    0    0  501  502  0.00000000000E+00  0.00000000000E+00  0.50708950152E+03  0.50708950152E+03  0.00000000000E+00 0.  1.
          1   -1    0    0  503    0 -0.00000000000E+00 -0.00000000000E+00 -0.38907854811E+03  0.38907854811E+03  0.00000000000E+00 0.  1.
         25    1    1    2    0    0  0.18018822366E+03 -0.15409446322E+03 -0.14223757269E+03  0.30342944258E+03  0.12500000000E+03 0.  0.
         21    1    1    2  503  502 -0.99087741818E+02 -0.16991593024E+03  0.72862516768E+02  0.20975879071E+03  0.00000000000E+00 0. -1.
          1    1    1    2  501    0 -0.81100481840E+02  0.32401039346E+03  0.18738600934E+03  0.38297981634E+03  0.00000000000E+00 0.  1.
<mgrwt>
<rscale>  4 0.50847740E+03</rscale>
<asrwt>0</asrwt>
<pdfrwt beam="1">  1       21 0.78013770E-01 0.50847740E+03</pdfrwt>
<pdfrwt beam="2">  1        1 0.59858238E-01 0.50847740E+03</pdfrwt>
<totfact> 0.91026208E+02</totfact>
</mgrwt>
</event>
<event>
 5    0  0.3188794E-002  0.5316098E+03  0.7546771E-02  0.1005842E+00
          2   -1    0    0  503    0 -0.00000000000E+00  0.00000000000E+00  0.26080195046E+04  0.26080195046E+04  0.00000000000E+00 0. -1.
         21   -1    0    0  501  502  0.00000000000E+00 -0.00000000000E+00 -0.73354449655E+02  0.73354449655E+02  0.00000000000E+00 0.  1.
         25    1    1    2    0    0 -0.18467766086E+03  0.10177630175E+03  0.46685118827E+03  0.52729430682E+03  0.12500000000E+03 0.  0.
         21    1    1    2  503  502  0.12583574367E+03  0.23205876057E+03  0.95038934739E+03  0.98637001900E+03  0.00000000000E+00 0. -1.
          2    1    1    2  501    0  0.58841917183E+02 -0.33383506231E+03  0.11174245193E+04  0.11677096285E+04  0.00000000000E+00 0. -1.
<mgrwt>
<rscale>  4 0.53160978E+03</rscale>
<asrwt>0</asrwt>
<pdfrwt beam="1">  1       21 0.11285302E-01 0.53160978E+03</pdfrwt>
<pdfrwt beam="2">  1        2 0.40123370E+00 0.53160978E+03</pdfrwt>
<totfact> 0.26453383E+03</totfact>
</mgrwt>
</event>
<event>
 5    0  0.3188794E-002  0.5527332E+03  0.7546771E-02  0.1000863E+00
         21   -1    0    0  503  502  0.00000000000E+00  0.00000000000E+00  0.19143189959E+03  0.19143189959E+03  0.00000000000E+00 0. -1.
         -3   -1    0    0    0  501 -0.00000000000E+00 -0.00000000000E+00 -0.13792508193E+04  0.13792508193E+04  0.00000000000E+00 0. -1.
         25    1    1    2    0    0  0.62039247582E+02 -0.25572772750E+03 -0.70338614704E+03  0.76132950206E+03  0.12500000000E+03 0.  0.
         21    1    1    2  503  501 -0.99804239817E+02  0.24157464936E+03 -0.61737618385E+03  0.67042713988E+03  0.00000000000E+00 0. -1.
         -3    1    1    2    0  502  0.37764992235E+02  0.14153078145E+02  0.13294341122E+03  0.13892607691E+03  0.00000000000E+00 0. -1.
<mgrwt>
<rscale>  4 0.55273316E+03</rscale>
<asrwt>0</asrwt>
<pdfrwt beam="1">  1       21 0.29451060E-01 0.55273316E+03</pdfrwt>
<pdfrwt beam="2">  1       -3 0.21219244E+00 0.55273316E+03</pdfrwt>
<totfact> 0.67463733E+01</totfact>
</mgrwt>
</event>
<event>
 5    0  0.3188794E-002  0.4170049E+03  0.7546771E-02  0.1038046E+00
          2   -1    0    0  503    0 -0.00000000000E+00  0.00000000000E+00  0.17007351185E+04  0.17007351185E+04  0.00000000000E+00 0. -1.
         21   -1    0    0  501  502  0.00000000000E+00 -0.00000000000E+00 -0.17588689620E+03  0.17588689620E+03  0.00000000000E+00 0. -1.
         25    1    1    2    0    0  0.88029090037E+02  0.19463590004E+03  0.11223863786E+04  0.11493513114E+04  0.12500000000E+03 0.  0.
         21    1    1    2  503  502  0.15394171085E+03 -0.21363983592E+02  0.40055801198E+03  0.42965240730E+03  0.00000000000E+00 0.  1.
          2    1    1    2  501    0 -0.24197080089E+03 -0.17327191645E+03  0.19038317363E+01  0.29761829596E+03  0.00000000000E+00 0. -1.
<mgrwt>
<rscale>  4 0.41700495E+03</rscale>
<asrwt>0</asrwt>
<pdfrwt beam="1">  1       21 0.27059524E-01 0.41700495E+03</pdfrwt>
<pdfrwt beam="2">  1        2 0.26165154E+00 0.41700495E+03</pdfrwt>
<totfact> 0.16358942E+03</totfact>
</mgrwt>
</event>
<event>
 5    0  0.3188794E-002  0.5040830E+03  0.7546771E-02  0.1012719E+00
         21   -1    0    0  501  502  0.00000000000E+00  0.00000000000E+00  0.21109622512E+03  0.21109622512E+03  0.00000000000E+00 0.  1.
          1   -1    0    0  503    0 -0.00000000000E+00 -0.00000000000E+00 -0.14512329626E+04  0.14512329626E+04  0.00000000000E+00 0.  1.
         25    1    1    2    0    0  0.23227822790E+03 -0.89486513845E+02 -0.84780514508E+03  0.89238981131E+03  0.12500000000E+03 0.  0.
         21    1    1    2  503  502 -0.22033885900E+03  0.36218427332E+02 -0.55506381713E+03  0.59829493426E+03  0.00000000000E+00 0. -1.
          1    1    1    2  501    0 -0.11939368893E+02  0.53268086513E+02  0.16273222471E+03  0.17164444217E+03  0.00000000000E+00 0.  1.
<mgrwt>
<rscale>  4 0.50408301E+03</rscale>
<asrwt>0</asrwt>
<pdfrwt beam="1">  1       21 0.32476343E-01 0.50408301E+03</pdfrwt>
<pdfrwt beam="2">  1        1 0.22326660E+00 0.50408301E+03</pdfrwt>
<totfact> 0.70723385E+02</totfact>
</mgrwt>
</event>
<event>
 5    0  0.3188794E-002  0.5058488E+03  0.7546771E-02  0.1012263E+00
         21   -1    0    0  503  502  0.00000000000E+00  0.00000000000E+00  0.22190829199E+03  0.22190829199E+03  0.00000000000E+00 0. -1.
          2   -1    0    0  502    0 -0.00000000000E+00 -0.00000000000E+00 -0.49464251067E+03  0.49464251067E+03  0.00000000000E+00 0.  1.
         25    1    1    2    0    0 -0.29037236238E+03 -0.55425565612E+02 -0.21835930955E+03  0.38819310945E+03  0.12500000000E+03 0.  0.
         21    1    1    2  503  501  0.14328905750E+03  0.10361577094E+02  0.38410927212E+02  0.14870950073E+03  0.00000000000E+00 0.  1.
          2    1    1    2  501    0  0.14708330488E+03  0.45063988518E+02 -0.92785836338E+02  0.17964819248E+03  0.00000000000E+00 0.  1.
<mgrwt>
<rscale>  4 0.50584878E+03</rscale>
<asrwt>0</asrwt>
<pdfrwt beam="1">  1       21 0.34139738E-01 0.50584878E+03</pdfrwt>
<pdfrwt beam="2">  1        2 0.76098847E-01 0.50584878E+03</pdfrwt>
<totfact> 0.61453609E+03</totfact>
</mgrwt>
</event>
<event>
 5    0  0.3188794E-002  0.8718027E+03  0.7546771E-02  0.9461532E-01
         21   -1    0    0  501  502  0.00000000000E+00  0.00000000000E+00  0.74031827467E+03  0.74031827467E+03  0.00000000000E+00 0. -1.
          1   -1    0    0  503    0 -0.00000000000E+00 -0.00000000000E+00 -0.56435150473E+03  0.56435150473E+03  0.00000000000E+00 0. -1.
         25    1    1    2    0    0  0.37496894440E+03 -0.74020089756E+02  0.18620686340E+03  0.44314634031E+03  0.12500000000E+03 0.  0.
         21    1    1    2  503  502 -0.24068739111E+03 -0.10928670398E+03 -0.35866593106E+03  0.44555050669E+03  0.00000000000E+00 0. -1.
          1    1    1    2  501    0 -0.13428155329E+03  0.18330679374E+03  0.34842583760E+03  0.41597293240E+03  0.00000000000E+00 0. -1.
<mgrwt>
<rscale>  4 0.87180270E+03</rscale>
<asrwt>0</asrwt>
<pdfrwt beam="1">  1       21 0.11389512E+00 0.87180270E+03</pdfrwt>
<pdfrwt beam="2">  1        1 0.86823308E-01 0.87180270E+03</pdfrwt>
<totfact> 0.20647824E+02</totfact>
</mgrwt>
</event>
<event>
 5    0  0.3188794E-002  0.4511332E+03  0.7546771E-02  0.1027385E+00
         21   -1    0    0  503  502  0.00000000000E+00  0.00000000000E+00  0.16953790918E+03  0.16953790918E+03  0.00000000000E+00 0. -1.
          1   -1    0    0  502    0 -0.00000000000E+00 -0.00000000000E+00 -0.42011022940E+03  0.42011022940E+03  0.00000000000E+00 0.  1.
         25    1    1    2    0    0 -0.23745810161E+03  0.16727918649E+02 -0.61069451637E+02  0.27571842739E+03  0.12500000000E+03 0.  0.
         21    1    1    2  503  501  0.16403033497E+03  0.20909753838E+02 -0.14632328376E+03  0.22080233686E+03  0.00000000000E+00 0. -1.
          1    1    1    2  501    0  0.73427766639E+02 -0.37637672488E+02 -0.43179584826E+02  0.93127374330E+02  0.00000000000E+00 0.  1.
<mgrwt>
<rscale>  4 0.45113315E+03</rscale>
<asrwt>0</asrwt>
<pdfrwt beam="1">  1       21 0.26082755E-01 0.45113315E+03</pdfrwt>
<pdfrwt beam="2">  1        1 0.64632343E-01 0.45113315E+03</pdfrwt>
<totfact> 0.83696380E+03</totfact>
</mgrwt>
</event>
<event>
 5    0  0.3188794E-002  0.4433318E+03  0.7546771E-02  0.1029729E+00
         21   -1    0    0  501  502  0.00000000000E+00  0.00000000000E+00  0.10538045713E+03  0.10538045713E+03  0.00000000000E+00 0.  1.
          1   -1    0    0  503    0 -0.00000000000E+00 -0.00000000000E+00 -0.92667297673E+03  0.92667297673E+03  0.00000000000E+00 0.  1.
         25    1    1    2    0    0 -0.22011570098E+03 -0.36905754159E+02 -0.23515585879E+03  0.34747119943E+03  0.12500000000E+03 0.  0.
         21    1    1    2  503  502  0.76964575671E+02  0.59596348370E+02 -0.51315626131E+03  0.52230701620E+03  0.00000000000E+00 0.  1.
          1    1    1    2  501    0  0.14315112531E+03 -0.22690594211E+02 -0.72980399501E+02  0.16227521824E+03  0.00000000000E+00 0.  1.
<mgrwt>
<rscale>  4 0.44333183E+03</rscale>
<asrwt>0</asrwt>
<pdfrwt beam="1">  1       21 0.16212377E-01 0.44333183E+03</pdfrwt>
<pdfrwt beam="2">  1        1 0.14256508E+00 0.44333183E+03</pdfrwt>
<totfact> 0.65661380E+03</totfact>
</mgrwt>
</event>
<event>
 5    0  0.3188794E-002  0.4813312E+03  0.7546771E-02  0.1018770E+00
          2   -1    0    0  503    0 -0.00000000000E+00  0.00000000000E+00  0.56185898439E+03  0.56185898439E+03  0.00000000000E+00 0.  1.
         21   -1    0    0  501  502  0.00000000000E+00 -0.00000000000E+00 -0.34533464569E+03  0.34533464569E+03  0.00000000000E+00 0.  1.
         25    1    1    2    0    0  0.75028784406E+02  0.19824523524E+03  0.44774315238E+03  0.51091038577E+03  0.12500000000E+03 0.  0.
         21    1    1    2  503  502  0.81998199263E+02 -0.80315290541E+02 -0.38309782350E+02  0.12100367763E+03  0.00000000000E+00 0. -1.
          2    1    1    2  501    0 -0.15702698367E+03 -0.11792994470E+03 -0.19290903133E+03  0.27527956667E+03  0.00000000000E+00 0.  1.
<mgrwt>
<rscale>  4 0.48133117E+03</rscale>
<asrwt>0</asrwt>
<pdfrwt beam="1">  1       21 0.53128407E-01 0.48133117E+03</pdfrwt>
<pdfrwt beam="2">  1        2 0.86439844E-01 0.48133117E+03</pdfrwt>
<totfact> 0.21176506E+03</totfact>
</mgrwt>
</event>
<event>
 5    0  0.3188794E-002  0.1174159E+04  0.7546771E-02  0.9135781E-01
         21   -1    0    0  501  502  0.00000000000E+00  0.00000000000E+00  0.80399078375E+03  0.80399078375E+03  0.00000000000E+00 0. -1.
          1   -1    0    0  503    0 -0.00000000000E+00 -0.00000000000E+00 -0.10075592516E+04  0.10075592516E+04  0.00000000000E+00 0. -1.
         25    1    1    2    0    0 -0.24873629751E+03  0.58193306394E+03 -0.67896842396E+03  0.93655696962E+03  0.12500000000E+03 0.  0.
         21    1    1    2  503  502  0.20400215882E+03 -0.32395413731E+03  0.65192233556E+02  0.38834674094E+03  0.00000000000E+00 0.  1.
          1    1    1    2  501    0  0.44734138696E+02 -0.25797892663E+03  0.41020772258E+03  0.48664632477E+03  0.00000000000E+00 0. -1.
<mgrwt>
<rscale>  4 0.11741587E+04</rscale>
<asrwt>0</asrwt>
<pdfrwt beam="1">  1       21 0.12369089E+00 0.11741587E+04</pdfrwt>
<pdfrwt beam="2">  1        1 0.15500912E+00 0.11741587E+04</pdfrwt>
<totfact> 0.63712739E+01</totfact>
</mgrwt>
</event>
<event>
 5    0  0.3188794E-002  0.5721761E+03  0.7546771E-02  0.9964875E-01
         21   -1    0    0  501  502  0.00000000000E+00  0.00000000000E+00  0.46232384187E+03  0.46232384187E+03  0.00000000000E+00 0. -1.
          1   -1    0    0  503    0 -0.00000000000E+00 -0.00000000000E+00 -0.58589399331E+03  0.58589399331E+03  0.00000000000E+00 0.  1.
         25    1    1    2    0    0  0.22479804592E+03  0.31454659023E+03 -0.66554311518E+02  0.41173801774E+03  0.12500000000E+03 0.  0.
         21    1    1    2  503  502 -0.99929528447E+02  0.12413616623E+03 -0.82908615321E+02  0.17963723700E+03  0.00000000000E+00 0.  1.
          1    1    1    2  501    0 -0.12486851747E+03 -0.43868275646E+03  0.25892775396E+02  0.45684258043E+03  0.00000000000E+00 0.  1.
<mgrwt>
<rscale>  4 0.57217613E+03</rscale>
<asrwt>0</asrwt>
<pdfrwt beam="1">  1       21 0.71126745E-01 0.57217613E+03</pdfrwt>
<pdfrwt beam="2">  1        1 0.90137537E-01 0.57217613E+03</pdfrwt>
<totfact> 0.63798339E+02</totfact>
</mgrwt>
</event>
<event>
 5    0  0.3188794E-002  0.3613242E+03  0.7546771E-02  0.1058061E+00
         21   -1    0    0  501  502  0.00000000000E+00  0.00000000000E+00  0.12594819458E+03  0.12594819458E+03  0.00000000000E+00 0.  1.
          1   -1    0    0  503    0 -0.00000000000E+00 -0.00000000000E+00 -0.44904489341E+03  0.44904489341E+03  0.00000000000E+00 0. -1.
         25    1    1    2    0    0 -0.20723689801E+03 -0.90584108035E+01 -0.21779091251E+03  0.32571009851E+03  0.12500000000E+03 0.  0.
         21    1    1    2  503  502  0.11254876430E+03 -0.34781056985E+02 -0.78469298108E+02  0.14154284516E+03  0.00000000000E+00 0. -1.
          1    1    1    2  501    0  0.94688133704E+02  0.43839467788E+02 -0.26836488216E+02  0.10774014433E+03  0.00000000000E+00 0. -1.
<mgrwt>
<rscale>  4 0.36132423E+03</rscale>
<asrwt>0</asrwt>
<pdfrwt beam="1">  1       21 0.19376645E-01 0.36132423E+03</pdfrwt>
<pdfrwt beam="2">  1        1 0.69083829E-01 0.36132423E+03</pdfrwt>
<totfact> 0.13712561E+04</totfact>
</mgrwt>
</event>
<event>
 5    0  0.3188794E-002  0.8247441E+03  0.7546771E-02  0.9524876E-01
         21   -1    0    0  501  502  0.00000000000E+00  0.00000000000E+00  0.11507628441E+03  0.11507628441E+03  0.00000000000E+00 0. -1.
          1   -1    0    0  503    0 -0.00000000000E+00 -0.00000000000E+00 -0.22980215095E+04  0.22980215095E+04  0.00000000000E+00 0.  1.
         25    1    1    2    0    0 -0.23042017860E+03 -0.18498430914E+03 -0.19933929388E+04  0.20190475631E+04  0.12500000000E+03 0.  0.
         21    1    1    2  503  502  0.20948808389E+03  0.16216048390E+03 -0.22457648609E+03  0.34729796708E+03  0.00000000000E+00 0. -1.
          1    1    1    2  501    0  0.20932094709E+02  0.22823825240E+02  0.35024199870E+02  0.46752263731E+02  0.00000000000E+00 0.  1.
<mgrwt>
<rscale>  4 0.82474408E+03</rscale>
<asrwt>0</asrwt>
<pdfrwt beam="1">  1       21 0.17704044E-01 0.82474408E+03</pdfrwt>
<pdfrwt beam="2">  1        1 0.35354177E+00 0.82474408E+03</pdfrwt>
<totfact> 0.58816987E+02</totfact>
</mgrwt>
</event>
<event>
 5    0  0.3188794E-002  0.3557385E+03  0.7546771E-02  0.1060284E+00
          2   -1    0    0  503    0 -0.00000000000E+00  0.00000000000E+00  0.14950953954E+04  0.14950953954E+04  0.00000000000E+00 0.  1.
         21   -1    0    0  501  502  0.00000000000E+00 -0.00000000000E+00 -0.75344984762E+02  0.75344984762E+02  0.00000000000E+00 0. -1.
         25    1    1    2    0    0 -0.72182424229E+02  0.21069194223E+03  0.88894861406E+03  0.92490866323E+03  0.12500000000E+03 0.  0.
         21    1    1    2  503  502  0.89608637211E+02 -0.40069638345E+02  0.44127665872E+03  0.45206235556E+03  0.00000000000E+00 0.  1.
          2    1    1    2  501    0 -0.17426212982E+02 -0.17062230388E+03  0.89525137864E+02  0.19346936138E+03  0.00000000000E+00 0.  1.
<mgrwt>
<rscale>  4 0.35573854E+03</rscale>
<asrwt>0</asrwt>
<pdfrwt beam="1">  1       21 0.11591537E-01 0.35573854E+03</pdfrwt>
<pdfrwt beam="2">  1        2 0.23001465E+00 0.35573854E+03</pdfrwt>
<totfact> 0.10538117E+04</totfact>
</mgrwt>
</event>
<event>
 5    0  0.3188794E-002  0.3705545E+03  0.7546771E-02  0.1054481E+00
         21   -1    0    0  501  502  0.00000000000E+00  0.00000000000E+00  0.69567729428E+02  0.69567729428E+02  0.00000000000E+00 0.  1.
          2   -1    0    0  503    0 -0.00000000000E+00 -0.00000000000E+00 -0.16914512226E+04  0.16914512226E+04  0.00000000000E+00 0.  1.
         25    1    1    2    0    0 -0.18783105998E+02  0.20809686944E+03 -0.10220080253E+04  0.10506105444E+04  0.12500000000E+03 0.  0.
         21    1    1    2  503  502 -0.66499754844E+02 -0.10818598297E+03 -0.55839815315E+03  0.57265602393E+03  0.00000000000E+00 0. -1.
          2    1    1    2  501    0  0.85282860842E+02 -0.99910886474E+02 -0.41477314725E+02  0.13775238374E+03  0.00000000000E+00 0.  1.
<mgrwt>
<rscale>  4 0.37055453E+03</rscale>
<asrwt>0</asrwt>
<pdfrwt beam="1">  1       21 0.10702728E-01 0.37055453E+03</pdfrwt>
<pdfrwt beam="2">  1        2 0.26022325E+00 0.37055453E+03</pdfrwt>
<totfact> 0.95139584E+03</totfact>
</mgrwt>
</event>
<event>
 5    0  0.3188794E-002  0.4373877E+03  0.7546771E-02  0.1031551E+00
          2   -1    0    0  502    0 -0.00000000000E+00  0.00000000000E+00  0.26476203206E+03  0.26476203206E+03  0.00000000000E+00 0. -1.
         21   -1    0    0  503  502  0.00000000000E+00 -0.00000000000E+00 -0.45854161407E+03  0.45854161407E+03  0.00000000000E+00 0. -1.
         25    1    1    2    0    0 -0.20285723583E+03 -0.11339434997E+03  0.11897620075E+03  0.28946445910E+03  0.12500000000E+03 0.  0.
         21    1    1    2  503  501 -0.13503706605E+02  0.37097764991E+02 -0.14325634291E+03  0.14859668248E+03  0.00000000000E+00 0.  1.
          2    1    1    2  501    0  0.21636094244E+03  0.76296584981E+02 -0.16949943984E+03  0.28524250455E+03  0.00000000000E+00 0. -1.
<mgrwt>
<rscale>  4 0.43738774E+03</rscale>
<asrwt>0</asrwt>
<pdfrwt beam="1">  1       21 0.70544864E-01 0.43738774E+03</pdfrwt>
<pdfrwt beam="2">  1        2 0.40732620E-01 0.43738774E+03</pdfrwt>
<totfact> 0.26514048E+03</totfact>
</mgrwt>
</event>
<event>
 5    0  0.3188794E-002  0.5574701E+03  0.7546771E-02  0.9997795E-01
         21   -1    0    0  501  502  0.00000000000E+00  0.00000000000E+00  0.51150530213E+02  0.51150530213E+02  0.00000000000E+00 0.  1.
          2   -1    0    0  503    0 -0.00000000000E+00 -0.00000000000E+00 -0.20556508505E+04  0.20556508505E+04  0.00000000000E+00 0. -1.
         25    1    1    2    0    0 -0.14054990418E+03 -0.24355149258E+03 -0.12761017753E+04  0.13126813574E+04  0.12500000000E+03 0.  0.
         21    1    1    2  503  502  0.13748465692E+03  0.19884623203E+03 -0.70119621197E+03  0.74169938827E+03  0.00000000000E+00 0. -1.
          2    1    1    2  501    0  0.30652472586E+01  0.44705260545E+02 -0.27202333080E+02  0.52420635117E+02  0.00000000000E+00 0. -1.
<mgrwt>
<rscale>  4 0.55747010E+03</rscale>
<asrwt>0</asrwt>
<pdfrwt beam="1">  1       21 0.78693142E-02 0.55747010E+03</pdfrwt>
<pdfrwt beam="2">  1        2 0.31625390E+00 0.55747010E+03</pdfrwt>
<totfact> 0.10166964E+04</totfact>
</mgrwt>
</event>
<event>
 5    0  0.3188794E-002  0.3765818E+03  0.7546771E-02  0.1052204E+00
          2   -1    0    0  502    0 -0.00000000000E+00  0.00000000000E+00  0.30729909598E+04  0.30729909598E+04  0.00000000000E+00 0. -1.
         21   -1    0    0  503  502  0.00000000000E+00 -0.00000000000E+00 -0.25022628531E+02  0.25022628531E+02  0.00000000000E+00 0. -1.
         25    1    1    2    0    0 -0.20948206524E+03 -0.60916895580E+02  0.15703094822E+04  0.15903114392E+04  0.12500000000E+03 0.  0.
         21    1    1    2  503  501  0.38825428978E+02  0.10543511705E+03  0.39096816979E+03  0.40679243802E+03  0.00000000000E+00 0.  1.
          2    1    1    2  501    0  0.17065663626E+03 -0.44518221474E+02  0.10866906794E+04  0.11009097112E+04  0.00000000000E+00 0. -1.
<mgrwt>
<rscale>  4 0.37658182E+03</rscale>
<asrwt>0</asrwt>
<pdfrwt beam="1">  1       21 0.38496376E-02 0.37658182E+03</pdfrwt>
<pdfrwt beam="2">  1        2 0.47276754E+00 0.37658182E+03</pdfrwt>
<totfact> 0.96844938E+03</totfact>
</mgrwt>
</event>
<event>
 5    0  0.3188794E-002  0.3527495E+03  0.7546771E-02  0.1061492E+00
          2   -1    0    0  503    0 -0.00000000000E+00  0.00000000000E+00  0.85684368106E+02  0.85684368106E+02  0.00000000000E+00 0.  1.
         21   -1    0    0  501  502  0.00000000000E+00 -0.00000000000E+00 -0.88402489440E+03  0.88402489440E+03  0.00000000000E+00 0. -1.
         25    1    1    2    0    0 -0.53462342506E+02  0.21603415586E+03 -0.24302699463E+03  0.35244304318E+03  0.12500000000E+03 0.  0.
         21    1    1    2  503  502 -0.18943993280E+02 -0.95624354358E+02 -0.95505836750E+02  0.13647071803E+03  0.00000000000E+00 0.  1.
          2    1    1    2  501    0  0.72406335786E+02 -0.12040980151E+03 -0.45980769491E+03  0.48079550129E+03  0.00000000000E+00 0.  1.
<mgrwt>
<rscale>  4 0.35274947E+03</rscale>
<asrwt>0</asrwt>
<pdfrwt beam="1">  1       21 0.13600382E+00 0.35274947E+03</pdfrwt>
<pdfrwt beam="2">  1        2 0.13182211E-01 0.35274947E+03</pdfrwt>
<totfact> 0.20215051E+03</totfact>
</mgrwt>
</event>
<event>
 5    0  0.3188794E-002  0.5771394E+03  0.7546771E-02  0.9954004E-01
         21   -1    0    0  503  502  0.00000000000E+00  0.00000000000E+00  0.42792269715E+03  0.42792269715E+03  0.00000000000E+00 0.  1.
         -4   -1    0    0    0  501 -0.00000000000E+00 -0.00000000000E+00 -0.23959535698E+03  0.23959535698E+03  0.00000000000E+00 0. -1.
         25    1    1    2    0    0 -0.19708101933E+03 -0.50573213802E+02 -0.62217441591E+02  0.24676828843E+03  0.12500000000E+03 0.  0.
         21    1    1    2  503  501  0.25904398803E+03  0.62666158757E+02  0.23594712668E+03  0.35595207792E+03  0.00000000000E+00 0.  1.
         -4    1    1    2    0  502 -0.61962968696E+02 -0.12092944955E+02  0.14597655075E+02  0.64797687775E+02  0.00000000000E+00 0. -1.
<mgrwt>
<rscale>  4 0.57713936E+03</rscale>
<asrwt>0</asrwt>
<pdfrwt beam="1">  1       21 0.65834261E-01 0.57713936E+03</pdfrwt>
<pdfrwt beam="2">  1       -4 0.36860824E-01 0.57713936E+03</pdfrwt>
<totfact> 0.62059419E+02</totfact>
</mgrwt>
</event>
<event>
 5    0  0.3188794E-002  0.4974592E+03  0.7546771E-02  0.1014444E+00
         21   -1    0    0  501  502  0.00000000000E+00  0.00000000000E+00  0.80088746285E+02  0.80088746285E+02  0.00000000000E+00 0. -1.
          2   -1    0    0  503    0 -0.00000000000E+00 -0.00000000000E+00 -0.99003949079E+03  0.99003949079E+03  0.00000000000E+00 0.  1.
         25    1    1    2    0    0  0.23324821628E+03  0.89406656472E+01 -0.63806524935E+03  0.69082336985E+03  0.12500000000E+03 0.  0.
         21    1    1    2  503  502 -0.21534650241E+03  0.84360372634E+01 -0.27975900421E+03  0.35314357315E+03  0.00000000000E+00 0.  1.
          2    1    1    2  501    0 -0.17901713864E+02 -0.17376702911E+02  0.78735090450E+01  0.26161294081E+02  0.00000000000E+00 0.  1.
<mgrwt>
<rscale>  4 0.49745916E+03</rscale>
<asrwt>0</asrwt>
<pdfrwt beam="1">  1       21 0.12321346E-01 0.49745916E+03</pdfrwt>
<pdfrwt beam="2">  1        2 0.15231376E+00 0.49745916E+03</pdfrwt>
<totfact> 0.18073101E+04</totfact>
</mgrwt>
</event>
