<event>
 5    0  0.6041737E-002  0.5229190E+03  0.7546771E-02  0.1007964E+00
         -1   -1    0    0    0  501 -0.00000000000E+00  0.00000000000E+00  0.24852807863E+03  0.24852807863E+03  0.00000000000E+00 0. -1.
          1   -1    0    0  503    0  0.00000000000E+00 -0.00000000000E+00 -0.27506377778E+03  0.27506377778E+03  0.00000000000E+00 0.  1.
         25    1    1    2    0    0  0.15895901317E+03 -0.13629867805E+03 -0.13573429891E+03  0.27909514042E+03  0.12500000000E+03 0.  0.
         21    1    1    2  502  501 -0.49930000056E+02  0.69036200797E+02  0.70744978571E+02  0.11074228605E+03  0.00000000000E+00 0. -1.
         21    1    1    2  503  502 -0.10902901312E+03  0.67262477250E+02  0.38453621188E+02  0.13375442994E+03  0.00000000000E+00 0. -1.
<mgrwt>
<rscale>  4 0.52291901E+03</rscale>
<asrwt>0</asrwt>
<pdfrwt beam="1">  1        1 0.42317504E-01 0.52291901E+03</pdfrwt>
<pdfrwt beam="2">  1       -1 0.38235089E-01 0.52291901E+03</pdfrwt>
<totfact> 0.65477307E+02</totfact>
</mgrwt>
</event>
<event>
 5    0  0.6041737E-002  0.4985628E+03  0.7546771E-02  0.1014155E+00
          2   -1    0    0  503    0  0.00000000000E+00  0.00000000000E+00  0.13032193892E+03  0.13032193892E+03  0.00000000000E+00 0.  1.
         -2   -1    0    0    0  501 -0.00000000000E+00 -0.00000000000E+00 -0.47682845793E+03  0.47682845793E+03  0.00000000000E+00 0. -1.
         25    1    1    2    0    0 -0.17893169710E+03  0.11899167138E+03 -0.91060991930E+02  0.26475021121E+03  0.12500000000E+03 0.  0.
         21    1    1    2  502  501  0.14337861583E+03 -0.97488905237E+02 -0.24395317777E+03  0.29929027226E+03  0.00000000000E+00 0. -1.
         21    1    1    2  503  502  0.35553081272E+02 -0.21502766146E+02 -0.11492349306E+02  0.43109913389E+02  0.00000000000E+00 0. -1.
<mgrwt>
<rscale>  4 0.49856277E+03</rscale>
<asrwt>0</asrwt>
<pdfrwt beam="1">  1        2 0.20049529E-01 0.49856277E+03</pdfrwt>
<pdfrwt beam="2">  1       -2 0.73358225E-01 0.49856277E+03</pdfrwt>
<totfact> 0.47935349E+02</totfact>
</mgrwt>
</event>
<event>
 5    0  0.6041737E-002  0.5786256E+03  0.7546771E-02  0.9950771E-01
         -1   -1    0    0    0  501 -0.00000000000E+00  0.00000000000E+00  0.27226269918E+03  0.27226269918E+03  0.00000000000E+00 0. -1.
          1   -1    0    0  503    0  0.00000000000E+00 -0.00000000000E+00 -0.30743066005E+03  0.30743066005E+03  0.00000000000E+00 0.  1.
         25    1    1    2    0    0 -0.24322608451E+03  0.10666649655E+03 -0.83882225003E+02  0.30528330669E+03  0.12500000000E+03 0.  0.
         21    1    1    2  502  501  0.63048669122E+02 -0.29969810961E+02 -0.86887371120E+01  0.70347838628E+02  0.00000000000E+00 0. -1.
         21    1    1    2  503  502  0.18017741539E+03 -0.76696685586E+02  0.57403001241E+02  0.20406221392E+03  0.00000000000E+00 0. -1.
<mgrwt>
<rscale>  4 0.57862562E+03</rscale>
<asrwt>0</asrwt>
<pdfrwt beam="1">  1        1 0.47297025E-01 0.57862562E+03</pdfrwt>
<pdfrwt beam="2">  1       -1 0.41886569E-01 0.57862562E+03</pdfrwt>
<totfact> 0.48060721E+02</totfact>
</mgrwt>
</event>
<event>
 5    0  0.6041737E-002  0.4007220E+03  0.7546771E-02  0.1043530E+00
         -2   -1    0    0    0  501 -0.00000000000E+00  0.00000000000E+00  0.48885115157E+02  0.48885115157E+02  0.00000000000E+00 0. -1.
          2   -1    0    0  503    0  0.00000000000E+00 -0.00000000000E+00 -0.14859165428E+04  0.14859165428E+04  0.00000000000E+00 0.  1.
         25    1    1    2    0    0 -0.13099107976E+03 -0.15698548459E+03 -0.69667373381E+03  0.73673767158E+03  0.12500000000E+03 0.  0.
         21    1    1    2  502  501 -0.27398271290E+02  0.12801103980E+03 -0.25409145943E+03  0.28583205093E+03  0.00000000000E+00 0.  1.
         21    1    1    2  503  502  0.15838935105E+03  0.28974444792E+02 -0.48626623440E+03  0.51223193545E+03  0.00000000000E+00 0. -1.
<mgrwt>
<rscale>  4 0.40072199E+03</rscale>
<asrwt>0</asrwt>
<pdfrwt beam="1">  1        2 0.22860249E+00 0.40072199E+03</pdfrwt>
<pdfrwt beam="2">  1       -2 0.75207888E-02 0.40072199E+03</pdfrwt>
<totfact> 0.14388250E+03</totfact>
</mgrwt>
</event>
<event>
 5    0  0.6041737E-002  0.6499518E+03  0.7546771E-02  0.9806870E-01
          2   -1    0    0  503    0  0.00000000000E+00  0.00000000000E+00  0.10430498679E+04  0.10430498679E+04  0.00000000000E+00 0.  1.
         -2   -1    0    0    0  501 -0.00000000000E+00 -0.00000000000E+00 -0.10125050837E+03  0.10125050837E+03  0.00000000000E+00 0. -1.
         25    1    1    2    0    0  0.25806826153E+03  0.12204254802E+03  0.69489644259E+03  0.76157709857E+03  0.12500000000E+03 0.  0.
         21    1    1    2  502  501 -0.23315970673E+03 -0.12831776034E+03  0.23176411026E+03  0.35290721056E+03  0.00000000000E+00 0.  1.
         21    1    1    2  503  502 -0.24908554800E+02  0.62752123175E+01  0.15138806676E+02  0.29816067135E+02  0.00000000000E+00 0. -1.
<mgrwt>
<rscale>  4 0.64995178E+03</rscale>
<asrwt>0</asrwt>
<pdfrwt beam="1">  1        2 0.16046920E+00 0.64995178E+03</pdfrwt>
<pdfrwt beam="2">  1       -2 0.15577002E-01 0.64995178E+03</pdfrwt>
<totfact> 0.78346893E+02</totfact>
</mgrwt>
</event>
<event>
 5    0  0.6041737E-002  0.1169614E+04  0.7546771E-02  0.9139877E-01
          2   -1    0    0  503    0  0.00000000000E+00  0.00000000000E+00  0.12235112297E+04  0.12235112297E+04  0.00000000000E+00 0. -1.
         -2   -1    0    0    0  501 -0.00000000000E+00 -0.00000000000E+00 -0.27952278027E+03  0.27952278027E+03  0.00000000000E+00 0.  1.
         25    1    1    2    0    0  0.15517763774E+03 -0.38810673489E+03  0.98338824078E+03  0.10758180000E+04  0.12500000000E+03 0.  0.
         21    1    1    2  502  501 -0.20723475935E+02  0.15513806979E+02  0.10578672443E+02  0.27965138521E+02  0.00000000000E+00 0. -1.
         21    1    1    2  503  502 -0.13445416181E+03  0.37259292791E+03 -0.49978463780E+02  0.39925087150E+03  0.00000000000E+00 0.  1.
<mgrwt>
<rscale>  4 0.11696141E+04</rscale>
<asrwt>0</asrwt>
<pdfrwt beam="1">  1        2 0.18823249E+00 0.11696141E+04</pdfrwt>
<pdfrwt beam="2">  1       -2 0.43003505E-01 0.11696141E+04</pdfrwt>
<totfact> 0.92900882E+01</totfact>
</mgrwt>
</event>
<event>
 5    0  0.6041737E-002  0.4658434E+03  0.7546771E-02  0.1023100E+00
          2   -1    0    0  503    0  0.00000000000E+00  0.00000000000E+00  0.26252258016E+02  0.26252258016E+02  0.00000000000E+00 0.  1.
         -2   -1    0    0    0  501 -0.00000000000E+00 -0.00000000000E+00 -0.20665848176E+04  0.20665848176E+04  0.00000000000E+00 0. -1.
         25    1    1    2    0    0 -0.19530402754E+03 -0.87306607355E+02 -0.10023017972E+04  0.10324727597E+04  0.12500000000E+03 0.  0.
         21    1    1    2  502  501  0.17526131797E+03  0.88616031949E+02 -0.93937018940E+03  0.95967999011E+03  0.00000000000E+00 0.  1.
         21    1    1    2  503  502  0.20042709564E+02 -0.13094245944E+01 -0.98660573030E+02  0.10068432584E+03  0.00000000000E+00 0. -1.
<mgrwt>
<rscale>  4 0.46584340E+03</rscale>
<asrwt>0</asrwt>
<pdfrwt beam="1">  1        2 0.40388086E-02 0.46584340E+03</pdfrwt>
<pdfrwt beam="2">  1       -2 0.31793615E+00 0.46584340E+03</pdfrwt>
<totfact> 0.58640953E+01</totfact>
</mgrwt>
</event>
<event>
 5    0  0.6041737E-002  0.6455641E+03  0.7546771E-02  0.9815139E-01
         -2   -1    0    0    0  501 -0.00000000000E+00  0.00000000000E+00  0.28270701195E+03  0.28270701195E+03  0.00000000000E+00 0. -1.
          2   -1    0    0  503    0  0.00000000000E+00 -0.00000000000E+00 -0.36853793398E+03  0.36853793398E+03  0.00000000000E+00 0.  1.
         25    1    1    2    0    0 -0.45552135700E+02  0.24197685149E+03 -0.21483794361E+03  0.34986874073E+03  0.12500000000E+03 0.  0.
         21    1    1    2  502  501  0.28339003958E+02 -0.14450169755E+03  0.13822406471E+03  0.20196467960E+03  0.00000000000E+00 0. -1.
         21    1    1    2  503  502  0.17213131742E+02 -0.97475153933E+02 -0.92170431267E+01  0.99411525602E+02  0.00000000000E+00 0.  1.
<mgrwt>
<rscale>  4 0.64556412E+03</rscale>
<asrwt>0</asrwt>
<pdfrwt beam="1">  1        2 0.56698143E-01 0.64556412E+03</pdfrwt>
<pdfrwt beam="2">  1       -2 0.43493387E-01 0.64556412E+03</pdfrwt>
<totfact> 0.44091338E+02</totfact>
</mgrwt>
</event>
<event>
 5    0  0.6041737E-002  0.3848558E+03  0.7546771E-02  0.1049153E+00
          2   -1    0    0  503    0  0.00000000000E+00  0.00000000000E+00  0.12485666719E+04  0.12485666719E+04  0.00000000000E+00 0. -1.
         -2   -1    0    0    0  501 -0.00000000000E+00 -0.00000000000E+00 -0.53002303557E+02  0.53002303557E+02  0.00000000000E+00 0.  1.
         25    1    1    2    0    0  0.14186868743E+03 -0.15965111155E+03  0.52758518584E+03  0.58274036261E+03  0.12500000000E+03 0.  0.
         21    1    1    2  502  501 -0.13659163972E+02  0.12750624205E+03  0.25876671746E+03  0.28879859520E+03  0.00000000000E+00 0. -1.
         21    1    1    2  503  502 -0.12820952345E+03  0.32144869493E+02  0.40921246505E+03  0.43003001767E+03  0.00000000000E+00 0. -1.
<mgrwt>
<rscale>  4 0.38485582E+03</rscale>
<asrwt>0</asrwt>
<pdfrwt beam="1">  1        2 0.19208716E+00 0.38485582E+03</pdfrwt>
<pdfrwt beam="2">  1       -2 0.81542015E-02 0.38485582E+03</pdfrwt>
<totfact> 0.17171643E+03</totfact>
</mgrwt>
</event>
<event>
 5    0  0.6041737E-002  0.4742993E+03  0.7546771E-02  0.1020714E+00
         -2   -1    0    0    0  501 -0.00000000000E+00  0.00000000000E+00  0.65125795080E+02  0.65125795080E+02  0.00000000000E+00 0. -1.
          2   -1    0    0  503    0  0.00000000000E+00 -0.00000000000E+00 -0.86355900120E+03  0.86355900120E+03  0.00000000000E+00 0.  1.
         25    1    1    2    0    0  0.20770525284E+03  0.58056479391E+02 -0.34308994017E+03  0.42408458343E+03  0.12500000000E+03 0.  0.
         21    1    1    2  502  501 -0.18982366252E+03 -0.48765554685E+02 -0.39439834632E+03  0.44041021532E+03  0.00000000000E+00 0.  1.
         21    1    1    2  503  502 -0.17881590328E+02 -0.92909247060E+01 -0.60944919628E+02  0.64189997531E+02  0.00000000000E+00 0.  1.
<mgrwt>
<rscale>  4 0.47429934E+03</rscale>
<asrwt>0</asrwt>
<pdfrwt beam="1">  1        2 0.13285522E+00 0.47429934E+03</pdfrwt>
<pdfrwt beam="2">  1       -2 0.10019354E-01 0.47429934E+03</pdfrwt>
<totfact> 0.21294663E+03</totfact>
</mgrwt>
</event>
<event>
 5    0  0.6041737E-002  0.4906379E+03  0.7546771E-02  0.1016252E+00
         -2   -1    0    0    0  501 -0.00000000000E+00  0.00000000000E+00  0.46143414662E+02  0.46143414662E+02  0.00000000000E+00 0. -1.
          2   -1    0    0  503    0  0.00000000000E+00 -0.00000000000E+00 -0.13042250958E+04  0.13042250958E+04  0.00000000000E+00 0.  1.
         25    1    1    2    0    0  0.16694306088E+03 -0.12074165473E+03 -0.44737785437E+03  0.50815398979E+03  0.12500000000E+03 0.  0.
         21    1    1    2  502  501 -0.74633450155E+02  0.29189293640E+02 -0.48404424430E+03  0.49063326140E+03  0.00000000000E+00 0.  1.
         21    1    1    2  503  502 -0.92309610724E+02  0.91552361090E+02 -0.32665958243E+03  0.35158125924E+03  0.00000000000E+00 0.  1.
<mgrwt>
<rscale>  4 0.49063795E+03</rscale>
<asrwt>0</asrwt>
<pdfrwt beam="1">  1        2 0.20064998E+00 0.49063795E+03</pdfrwt>
<pdfrwt beam="2">  1       -2 0.70989881E-02 0.49063795E+03</pdfrwt>
<totfact> 0.19831688E+03</totfact>
</mgrwt>
</event>
<event>
 5    0  0.6041737E-002  0.5856346E+03  0.7546771E-02  0.9935666E-01
         -2   -1    0    0    0  501 -0.00000000000E+00  0.00000000000E+00  0.52654203774E+02  0.52654203774E+02  0.00000000000E+00 0. -1.
          2   -1    0    0  503    0  0.00000000000E+00 -0.00000000000E+00 -0.16283974664E+04  0.16283974664E+04  0.00000000000E+00 0.  1.
         25    1    1    2    0    0  0.13369528914E+03  0.19423765420E+03 -0.40721882241E+03  0.48688280518E+03  0.12500000000E+03 0.  0.
         21    1    1    2  502  501 -0.48603853984E+02 -0.10050134572E+03 -0.39997497554E+03  0.41526237029E+03  0.00000000000E+00 0.  1.
         21    1    1    2  503  502 -0.85091435158E+02 -0.93736308472E+02 -0.76854946463E+03  0.77890649468E+03  0.00000000000E+00 0.  1.
<mgrwt>
<rscale>  4 0.58563460E+03</rscale>
<asrwt>0</asrwt>
<pdfrwt beam="1">  1        2 0.25052272E+00 0.58563460E+03</pdfrwt>
<pdfrwt beam="2">  1       -2 0.81006456E-02 0.58563460E+03</pdfrwt>
<totfact> 0.10602683E+03</totfact>
</mgrwt>
</event>
<event>
 5    0  0.6041737E-002  0.4858016E+03  0.7546771E-02  0.1017553E+00
         -2   -1    0    0    0  501 -0.00000000000E+00  0.00000000000E+00  0.21158220519E+02  0.21158220519E+02  0.00000000000E+00 0.  1.
          2   -1    0    0  503    0  0.00000000000E+00 -0.00000000000E+00 -0.31670005740E+04  0.31670005740E+04  0.00000000000E+00 0. -1.
         25    1    1    2    0    0  0.16193486471E+03  0.17435850003E+03 -0.16898750317E+04  0.17111184674E+04  0.12500000000E+03 0.  0.
         21    1    1    2  502  501 -0.19432918035E+02 -0.10750457500E+02 -0.54075769049E+02  0.58458527505E+02  0.00000000000E+00 0. -1.
         21    1    1    2  503  502 -0.14250194667E+03 -0.16360804253E+03 -0.14018915527E+04  0.14185817995E+04  0.00000000000E+00 0.  1.
<mgrwt>
<rscale>  4 0.48580155E+03</rscale>
<asrwt>0</asrwt>
<pdfrwt beam="1">  1        2 0.48723078E+00 0.48580155E+03</pdfrwt>
<pdfrwt beam="2">  1       -2 0.32551114E-02 0.48580155E+03</pdfrwt>
<totfact> 0.59638947E+02</totfact>
</mgrwt>
</event>
<event>
 5    0  0.6041737E-002  0.4518698E+03  0.7546771E-02  0.1027166E+00
          1   -1    0    0  503    0  0.00000000000E+00  0.00000000000E+00  0.32366568536E+03  0.32366568536E+03  0.00000000000E+00 0. -1.
         -1   -1    0    0    0  501 -0.00000000000E+00 -0.00000000000E+00 -0.15771390365E+03  0.15771390365E+03  0.00000000000E+00 0.  1.
         25    1    1    2    0    0  0.11376428545E+03 -0.16806449909E+03  0.12167794705E+03  0.26761635095E+03  0.12500000000E+03 0.  0.
         21    1    1    2  502  501 -0.89505099663E+02  0.11128766398E+03  0.10045161573E+02  0.14316777672E+03  0.00000000000E+00 0.  1.
         21    1    1    2  503  502 -0.24259185789E+02  0.56776835117E+02  0.34228673090E+02  0.70595461345E+02  0.00000000000E+00 0.  1.
<mgrwt>
<rscale>  4 0.45186980E+03</rscale>
<asrwt>0</asrwt>
<pdfrwt beam="1">  1        1 0.49794721E-01 0.45186980E+03</pdfrwt>
<pdfrwt beam="2">  1       -1 0.24263678E-01 0.45186980E+03</pdfrwt>
<totfact> 0.11693410E+03</totfact>
</mgrwt>
</event>
<event>
 5    0  0.6041737E-002  0.5903415E+03  0.7546771E-02  0.9925650E-01
          2   -1    0    0  503    0  0.00000000000E+00  0.00000000000E+00  0.41864335910E+04  0.41864335910E+04  0.00000000000E+00 0.  1.
         -2   -1    0    0    0  501 -0.00000000000E+00 -0.00000000000E+00 -0.20811452088E+02  0.20811452088E+02  0.00000000000E+00 0. -1.
         25    1    1    2    0    0 -0.21156312547E+03  0.92491943168E+01  0.85634331224E+03  0.89095082472E+03  0.12500000000E+03 0.  0.
         21    1    1    2  502  501  0.16279930828E+03 -0.69127793455E+01  0.27789212356E+04  0.27836944220E+04  0.00000000000E+00 0.  1.
         21    1    1    2  503  502  0.48763817197E+02 -0.23364149713E+01  0.53035759112E+03  0.53259979643E+03  0.00000000000E+00 0. -1.
<mgrwt>
<rscale>  4 0.59034147E+03</rscale>
<asrwt>0</asrwt>
<pdfrwt beam="1">  1        2 0.64406603E+00 0.59034147E+03</pdfrwt>
<pdfrwt beam="2">  1       -2 0.32017652E-02 0.59034147E+03</pdfrwt>
<totfact> 0.11208327E+02</totfact>
</mgrwt>
</event>
<event>
 5    0  0.6041737E-002  0.8270353E+03  0.7546771E-02  0.9521688E-01
          2   -1    0    0  503    0  0.00000000000E+00  0.00000000000E+00  0.46365787619E+04  0.46365787619E+04  0.00000000000E+00 0. -1.
         -2   -1    0    0    0  501 -0.00000000000E+00 -0.00000000000E+00 -0.36879965432E+02  0.36879965432E+02  0.00000000000E+00 0.  1.
         25    1    1    2    0    0 -0.54140178891E+02  0.24322340636E+03  0.55666237661E+03  0.62256468411E+03  0.12500000000E+03 0.  0.
         21    1    1    2  502  501  0.56003372004E+02 -0.20339770800E+03  0.32317682168E+04  0.32386467564E+04  0.00000000000E+00 0. -1.
         21    1    1    2  503  502 -0.18631931128E+01 -0.39825698357E+02  0.81126820301E+03  0.81224728682E+03  0.00000000000E+00 0. -1.
<mgrwt>
<rscale>  4 0.82703534E+03</rscale>
<asrwt>0</asrwt>
<pdfrwt beam="1">  1        2 0.71331935E+00 0.82703534E+03</pdfrwt>
<pdfrwt beam="2">  1       -2 0.56738445E-02 0.82703534E+03</pdfrwt>
<totfact> 0.17084781E+01</totfact>
</mgrwt>
</event>
<event>
 5    0  0.6041737E-002  0.6568178E+03  0.7546771E-02  0.9794069E-01
         -1   -1    0    0    0  501 -0.00000000000E+00  0.00000000000E+00  0.12752672366E+04  0.12752672366E+04  0.00000000000E+00 0. -1.
          1   -1    0    0  503    0  0.00000000000E+00 -0.00000000000E+00 -0.84572400700E+02  0.84572400700E+02  0.00000000000E+00 0.  1.
         25    1    1    2    0    0 -0.12145021718E+03 -0.28038132805E+03  0.52277443063E+03  0.61828953549E+03  0.12500000000E+03 0.  0.
         21    1    1    2  502  501  0.33994025994E+02  0.20101678712E+03  0.43469600225E+03  0.48012910438E+03  0.00000000000E+00 0. -1.
         21    1    1    2  503  502  0.87456191182E+02  0.79364540933E+02  0.23322440303E+03  0.26142099744E+03  0.00000000000E+00 0. -1.
<mgrwt>
<rscale>  4 0.65681782E+03</rscale>
<asrwt>0</asrwt>
<pdfrwt beam="1">  1        1 0.13011140E-01 0.65681782E+03</pdfrwt>
<pdfrwt beam="2">  1       -1 0.19619494E+00 0.65681782E+03</pdfrwt>
<totfact> 0.76924059E+01</totfact>
</mgrwt>
</event>
<event>
 5    0  0.6041737E-002  0.5084671E+03  0.7546771E-02  0.1011592E+00
         -2   -1    0    0    0  501 -0.00000000000E+00  0.00000000000E+00  0.77827905121E+02  0.77827905121E+02  0.00000000000E+00 0.  1.
          2   -1    0    0  503    0  0.00000000000E+00 -0.00000000000E+00 -0.83048235438E+03  0.83048235438E+03  0.00000000000E+00 0. -1.
         25    1    1    2    0    0  0.29844034160E+01  0.21595011137E+03 -0.57023940837E+03  0.62244786137E+03  0.12500000000E+03 0.  0.
         21    1    1    2  502  501  0.40990089253E+01 -0.78081210612E+02 -0.41201622220E+02  0.88380150477E+02  0.00000000000E+00 0.  1.
         21    1    1    2  503  502 -0.70834123413E+01 -0.13786890076E+03 -0.14121341867E+03  0.19748224765E+03  0.00000000000E+00 0.  1.
<mgrwt>
<rscale>  4 0.50846712E+03</rscale>
<asrwt>0</asrwt>
<pdfrwt beam="1">  1        2 0.12776651E+00 0.50846712E+03</pdfrwt>
<pdfrwt beam="2">  1       -2 0.11973524E-01 0.50846712E+03</pdfrwt>
<totfact> 0.16788378E+03</totfact>
</mgrwt>
</event>
<event>
 5    0  0.6041737E-002  0.6507222E+03  0.7546771E-02  0.9805425E-01
         -2   -1    0    0    0  501 -0.00000000000E+00  0.00000000000E+00  0.32712094177E+03  0.32712094177E+03  0.00000000000E+00 0.  1.
          2   -1    0    0  503    0  0.00000000000E+00 -0.00000000000E+00 -0.55211935483E+03  0.55211935483E+03  0.00000000000E+00 0. -1.
         25    1    1    2    0    0 -0.29686218266E+02 -0.20956326560E+03 -0.47011371079E+03  0.53049970303E+03  0.12500000000E+03 0.  0.
         21    1    1    2  502  501  0.64060975699E+02  0.53179868033E+02  0.11740593585E+03  0.14393074982E+03  0.00000000000E+00 0.  1.
         21    1    1    2  503  502 -0.34374757432E+02  0.15638339756E+03  0.12770936188E+03  0.20480984374E+03  0.00000000000E+00 0.  1.
<mgrwt>
<rscale>  4 0.65072221E+03</rscale>
<asrwt>0</asrwt>
<pdfrwt beam="1">  1        2 0.84941440E-01 0.65072221E+03</pdfrwt>
<pdfrwt beam="2">  1       -2 0.50326299E-01 0.65072221E+03</pdfrwt>
<totfact> 0.20745743E+02</totfact>
</mgrwt>
</event>
<event>
 5    0  0.6041737E-002  0.4053506E+03  0.7546771E-02  0.1041943E+00
         -2   -1    0    0    0  501 -0.00000000000E+00  0.00000000000E+00  0.70976848916E+02  0.70976848916E+02  0.00000000000E+00 0.  1.
          2   -1    0    0  503    0  0.00000000000E+00 -0.00000000000E+00 -0.12244083620E+04  0.12244083620E+04  0.00000000000E+00 0. -1.
         25    1    1    2    0    0  0.21755797530E+03  0.78344110084E+02 -0.37406877926E+03  0.45718893667E+03  0.12500000000E+03 0.  0.
         21    1    1    2  502  501 -0.91548130943E+02 -0.10917661827E+03 -0.20686566727E+03  0.25118518776E+03  0.00000000000E+00 0. -1.
         21    1    1    2  503  502 -0.12600984436E+03  0.30832508185E+02 -0.57249706652E+03  0.58701108645E+03  0.00000000000E+00 0. -1.
<mgrwt>
<rscale>  4 0.40535055E+03</rscale>
<asrwt>0</asrwt>
<pdfrwt beam="1">  1        2 0.18837051E+00 0.40535055E+03</pdfrwt>
<pdfrwt beam="2">  1       -2 0.10919515E-01 0.40535055E+03</pdfrwt>
<totfact> 0.11097992E+03</totfact>
</mgrwt>
</event>
<event>
 5    0  0.6041737E-002  0.4886011E+03  0.7546771E-02  0.1016798E+00
         -2   -1    0    0    0  501 -0.00000000000E+00  0.00000000000E+00  0.10795905328E+04  0.10795905328E+04  0.00000000000E+00 0. -1.
          2   -1    0    0  503    0  0.00000000000E+00 -0.00000000000E+00 -0.76433314204E+02  0.76433314204E+02  0.00000000000E+00 0.  1.
         25    1    1    2    0    0 -0.42956729511E+02 -0.20547624871E+03  0.22234265174E+03  0.33034379694E+03  0.12500000000E+03 0.  0.
         21    1    1    2  502  501 -0.11362206970E+02  0.20470609531E+03  0.51378311194E+03  0.55317878784E+03  0.00000000000E+00 0. -1.
         21    1    1    2  503  502  0.54318936480E+02  0.77015340176E+00  0.26703145488E+03  0.27250126219E+03  0.00000000000E+00 0. -1.
<mgrwt>
<rscale>  4 0.48860108E+03</rscale>
<asrwt>0</asrwt>
<pdfrwt beam="1">  1        2 0.11758972E-01 0.48860108E+03</pdfrwt>
<pdfrwt beam="2">  1       -2 0.16609084E+00 0.48860108E+03</pdfrwt>
<totfact> 0.12595757E+02</totfact>
</mgrwt>
</event>
<event>
 5    0  0.6041737E-002  0.4772474E+03  0.7546771E-02  0.1019894E+00
         -2   -1    0    0    0  501 -0.00000000000E+00  0.00000000000E+00  0.24371453574E+03  0.24371453574E+03  0.00000000000E+00 0.  1.
          2   -1    0    0  503    0  0.00000000000E+00 -0.00000000000E+00 -0.23363920410E+03  0.23363920410E+03  0.00000000000E+00 0. -1.
         25    1    1    2    0    0 -0.67300694467E+02 -0.20515614717E+03  0.53179120628E+02  0.25509105642E+03  0.12500000000E+03 0.  0.
         21    1    1    2  502  501  0.14111888633E+02  0.17343409868E+02  0.86222807535E-02  0.22359323357E+02  0.00000000000E+00 0.  1.
         21    1    1    2  503  502  0.53188805834E+02  0.18781273730E+03 -0.43112411266E+02  0.19990336006E+03  0.00000000000E+00 0. -1.
<mgrwt>
<rscale>  4 0.47724740E+03</rscale>
<asrwt>0</asrwt>
<pdfrwt beam="1">  1        2 0.35944493E-01 0.47724740E+03</pdfrwt>
<pdfrwt beam="2">  1       -2 0.37494544E-01 0.47724740E+03</pdfrwt>
<totfact> 0.97524777E+02</totfact>
</mgrwt>
</event>
<event>
 5    0  0.6041737E-002  0.8012078E+03  0.7546771E-02  0.9558271E-01
         -2   -1    0    0    0  501 -0.00000000000E+00  0.00000000000E+00  0.67136591618E+03  0.67136591618E+03  0.00000000000E+00 0. -1.
          2   -1    0    0  503    0  0.00000000000E+00 -0.00000000000E+00 -0.34619812041E+03  0.34619812041E+03  0.00000000000E+00 0.  1.
         25    1    1    2    0    0 -0.28715029019E+03 -0.15275894253E+03 -0.12725980823E+03  0.37095908463E+03  0.12500000000E+03 0.  0.
         21    1    1    2  502  501  0.20049093144E+03  0.25719131902E+03  0.31189986095E+03  0.45124883538E+03  0.00000000000E+00 0. -1.
         21    1    1    2  503  502  0.86659358757E+02 -0.10443237649E+03  0.14052774305E+03  0.19535611658E+03  0.00000000000E+00 0. -1.
<mgrwt>
<rscale>  4 0.80120778E+03</rscale>
<asrwt>0</asrwt>
<pdfrwt beam="1">  1        2 0.53261249E-01 0.80120778E+03</pdfrwt>
<pdfrwt beam="2">  1       -2 0.10328706E+00 0.80120778E+03</pdfrwt>
<totfact> 0.72090255E+01</totfact>
</mgrwt>
</event>
<event>
 5    0  0.6041737E-002  0.4497831E+03  0.7546771E-02  0.1027787E+00
         -2   -1    0    0    0  501 -0.00000000000E+00  0.00000000000E+00  0.30783532462E+02  0.30783532462E+02  0.00000000000E+00 0. -1.
          2   -1    0    0  503    0  0.00000000000E+00 -0.00000000000E+00 -0.26652006917E+04  0.26652006917E+04  0.00000000000E+00 0.  1.
         25    1    1    2    0    0  0.44503508784E+02  0.23047168070E+03 -0.16591822769E+04  0.16803596597E+04  0.12500000000E+03 0.  0.
         21    1    1    2  502  501  0.28656011599E+02 -0.17518180474E+03 -0.77974486415E+03  0.79969486986E+03  0.00000000000E+00 0. -1.
         21    1    1    2  503  502 -0.73159520383E+02 -0.55289875965E+02 -0.19549001814E+03  0.21592969458E+03  0.00000000000E+00 0. -1.
<mgrwt>
<rscale>  4 0.44978314E+03</rscale>
<asrwt>0</asrwt>
<pdfrwt beam="1">  1        2 0.41003085E+00 0.44978314E+03</pdfrwt>
<pdfrwt beam="2">  1       -2 0.47359283E-02 0.44978314E+03</pdfrwt>
<totfact> 0.67225593E+02</totfact>
</mgrwt>
</event>
<event>
 5    0  0.6041737E-002  0.5068681E+03  0.7546771E-02  0.1012002E+00
          2   -1    0    0  503    0  0.00000000000E+00  0.00000000000E+00  0.54821076825E+03  0.54821076825E+03  0.00000000000E+00 0.  1.
         -2   -1    0    0    0  501 -0.00000000000E+00 -0.00000000000E+00 -0.14047252666E+03  0.14047252666E+03  0.00000000000E+00 0. -1.
         25    1    1    2    0    0  0.13261404222E+03  0.20039609203E+03  0.18730652810E+03  0.32932326575E+03  0.12500000000E+03 0.  0.
         21    1    1    2  502  501 -0.43509467739E+02  0.17121341963E+02  0.21692464838E+02  0.51543934312E+02  0.00000000000E+00 0.  1.
         21    1    1    2  503  502 -0.89104574486E+02 -0.21751743400E+03  0.19873924866E+03  0.30781609484E+03  0.00000000000E+00 0. -1.
<mgrwt>
<rscale>  4 0.50686805E+03</rscale>
<asrwt>0</asrwt>
<pdfrwt beam="1">  1        2 0.84340117E-01 0.50686805E+03</pdfrwt>
<pdfrwt beam="2">  1       -2 0.21611158E-01 0.50686805E+03</pdfrwt>
<totfact> 0.10318448E+03</totfact>
</mgrwt>
</event>
<event>
 5    0  0.6041737E-002  0.1188215E+04  0.7546771E-02  0.9123235E-01
          3   -1    0    0  503    0  0.00000000000E+00  0.00000000000E+00  0.44246505579E+03  0.44246505579E+03  0.00000000000E+00 0. -1.
         -3   -1    0    0    0  501 -0.00000000000E+00 -0.00000000000E+00 -0.79772081797E+03  0.79772081797E+03  0.00000000000E+00 0.  1.
         25    1    1    2    0    0 -0.16194263673E+03 -0.31227665697E+03 -0.66614615594E+03  0.76362152219E+03  0.12500000000E+03 0.  0.
         21    1    1    2  502  501  0.14394478358E+03  0.20919311341E+03  0.19315300901E+03  0.31904536402E+03  0.00000000000E+00 0. -1.
         21    1    1    2  503  502  0.17997853153E+02  0.10308354356E+03  0.11773738475E+03  0.15751898756E+03  0.00000000000E+00 0.  1.
<mgrwt>
<rscale>  4 0.11882148E+04</rscale>
<asrwt>0</asrwt>
<pdfrwt beam="1">  1        3 0.68071548E-01 0.11882148E+04</pdfrwt>
<pdfrwt beam="2">  1       -3 0.12272628E+00 0.11882148E+04</pdfrwt>
<totfact> 0.28718868E+00</totfact>
</mgrwt>
</event>
<event>
 5    0  0.6041737E-002  0.5918543E+03  0.7546771E-02  0.9922451E-01
         -2   -1    0    0    0  501 -0.00000000000E+00  0.00000000000E+00  0.32137315093E+03  0.32137315093E+03  0.00000000000E+00 0. -1.
          2   -1    0    0  503    0  0.00000000000E+00 -0.00000000000E+00 -0.27249590610E+03  0.27249590610E+03  0.00000000000E+00 0.  1.
         25    1    1    2    0    0 -0.17472837435E+03  0.19845178237E+03 -0.13422645869E+02  0.29277684702E+03  0.12500000000E+03 0.  0.
         21    1    1    2  502  501  0.99369847575E+02 -0.91189419386E+02  0.96234025727E+02  0.16568302424E+03  0.00000000000E+00 0. -1.
         21    1    1    2  503  502  0.75358526772E+02 -0.10726236298E+03 -0.33934135035E+02  0.13540918577E+03  0.00000000000E+00 0. -1.
<mgrwt>
<rscale>  4 0.59185427E+03</rscale>
<asrwt>0</asrwt>
<pdfrwt beam="1">  1        2 0.41922447E-01 0.59185427E+03</pdfrwt>
<pdfrwt beam="2">  1       -2 0.49442023E-01 0.59185427E+03</pdfrwt>
<totfact> 0.47734062E+02</totfact>
</mgrwt>
</event>
<event>
 5    0  0.6041737E-002  0.4396745E+03  0.7546771E-02  0.1030847E+00
          2   -1    0    0  503    0  0.00000000000E+00  0.00000000000E+00  0.16253442809E+04  0.16253442809E+04  0.00000000000E+00 0.  1.
         -2   -1    0    0    0  501 -0.00000000000E+00 -0.00000000000E+00 -0.41047333234E+02  0.41047333234E+02  0.00000000000E+00 0. -1.
         25    1    1    2    0    0 -0.37725504048E+02  0.22578915676E+03  0.77860510818E+03  0.82113024024E+03  0.12500000000E+03 0.  0.
         21    1    1    2  502  501  0.72075779073E+01 -0.17358648722E+03  0.71814503166E+03  0.73886162725E+03  0.00000000000E+00 0.  1.
         21    1    1    2  503  502  0.30517926140E+02 -0.52202669541E+02  0.87546807808E+02  0.10639974662E+03  0.00000000000E+00 0.  1.
<mgrwt>
<rscale>  4 0.43967448E+03</rscale>
<asrwt>0</asrwt>
<pdfrwt beam="1">  1        2 0.25005292E+00 0.43967448E+03</pdfrwt>
<pdfrwt beam="2">  1       -2 0.63149756E-02 0.43967448E+03</pdfrwt>
<totfact> 0.15874598E+03</totfact>
</mgrwt>
</event>
<event>
 5    0  0.6041737E-002  0.4529799E+03  0.7546771E-02  0.1026837E+00
          3   -1    0    0  503    0  0.00000000000E+00  0.00000000000E+00  0.10883156849E+03  0.10883156849E+03  0.00000000000E+00 0.  1.
         -3   -1    0    0    0  501 -0.00000000000E+00 -0.00000000000E+00 -0.47134945500E+03  0.47134945500E+03  0.00000000000E+00 0. -1.
         25    1    1    2    0    0 -0.40533688191E+02  0.19710316020E+03 -0.14414601122E+03  0.27730075404E+03  0.12500000000E+03 0.  0.
         21    1    1    2  502  501  0.11322233316E+02 -0.31553770197E+02 -0.96619294734E+01  0.34888196600E+02  0.00000000000E+00 0.  1.
         21    1    1    2  503  502  0.29211454875E+02 -0.16554939001E+03 -0.20870994581E+03  0.26799207285E+03  0.00000000000E+00 0. -1.
<mgrwt>
<rscale>  4 0.45297991E+03</rscale>
<asrwt>0</asrwt>
<pdfrwt beam="1">  1        3 0.16743318E-01 0.45297991E+03</pdfrwt>
<pdfrwt beam="2">  1       -3 0.72515301E-01 0.45297991E+03</pdfrwt>
<totfact> 0.14759712E+02</totfact>
</mgrwt>
</event>
<event>
 5    0  0.6041737E-002  0.5533255E+03  0.7546771E-02  0.1000727E+00
         -1   -1    0    0    0  501 -0.00000000000E+00  0.00000000000E+00  0.15247073282E+04  0.15247073282E+04  0.00000000000E+00 0.  1.
          1   -1    0    0  503    0  0.00000000000E+00 -0.00000000000E+00 -0.50201299671E+02  0.50201299671E+02  0.00000000000E+00 0. -1.
         25    1    1    2    0    0  0.37101269073E+02  0.21467103948E+03  0.36061778384E+03  0.43946597750E+03  0.12500000000E+03 0.  0.
         21    1    1    2  502  501 -0.24276271901E+02 -0.18490340493E+03  0.98815195657E+03  0.10055957915E+04  0.00000000000E+00 0.  1.
         21    1    1    2  503  502 -0.12824997172E+02 -0.29767634546E+02  0.12573628816E+03  0.12984685895E+03  0.00000000000E+00 0.  1.
<mgrwt>
<rscale>  4 0.55332554E+03</rscale>
<asrwt>0</asrwt>
<pdfrwt beam="1">  1        1 0.77232781E-02 0.55332554E+03</pdfrwt>
<pdfrwt beam="2">  1       -1 0.23457032E+00 0.55332554E+03</pdfrwt>
<totfact> 0.88197521E+01</totfact>
</mgrwt>
</event>
<event>
 5    0  0.6041737E-002  0.5548921E+03  0.7546771E-02  0.1000368E+00
         -2   -1    0    0    0  501 -0.00000000000E+00  0.00000000000E+00  0.27343354303E+02  0.27343354303E+02  0.00000000000E+00 0.  1.
          2   -1    0    0  503    0  0.00000000000E+00 -0.00000000000E+00 -0.28151746496E+04  0.28151746496E+04  0.00000000000E+00 0. -1.
         25    1    1    2    0    0  0.54641412858E+02  0.22873455428E+03 -0.86673749863E+03  0.90673263526E+03  0.12500000000E+03 0.  0.
         21    1    1    2  502  501  0.40693648621E+01 -0.36430465181E+02 -0.33414135233E+03  0.33614607221E+03  0.00000000000E+00 0. -1.
         21    1    1    2  503  502 -0.58710777720E+02 -0.19230408910E+03 -0.15869524443E+04  0.15996392964E+04  0.00000000000E+00 0. -1.
<mgrwt>
<rscale>  4 0.55489213E+03</rscale>
<asrwt>0</asrwt>
<pdfrwt beam="1">  1        2 0.43310351E+00 0.55489213E+03</pdfrwt>
<pdfrwt beam="2">  1       -2 0.42066727E-02 0.55489213E+03</pdfrwt>
<totfact> 0.65270747E+02</totfact>
</mgrwt>
</event>
<event>
 5    0  0.6041737E-002  0.3875072E+03  0.7546771E-02  0.1048193E+00
          2   -1    0    0  503    0  0.00000000000E+00  0.00000000000E+00  0.13748866432E+04  0.13748866432E+04  0.00000000000E+00 0. -1.
         -2   -1    0    0    0  501 -0.00000000000E+00 -0.00000000000E+00 -0.49564088892E+02  0.49564088892E+02  0.00000000000E+00 0.  1.
         25    1    1    2    0    0  0.18923951185E+03 -0.97088436087E+02  0.50443903602E+03  0.56153494844E+03  0.12500000000E+03 0.  0.
         21    1    1    2  502  501 -0.90442260677E+02  0.10791043259E+03  0.28487502311E+03  0.31777073932E+03  0.00000000000E+00 0.  1.
         21    1    1    2  503  502 -0.98797251172E+02 -0.10821996500E+02  0.53600849519E+03  0.54514504433E+03  0.00000000000E+00 0.  1.
<mgrwt>
<rscale>  4 0.38750717E+03</rscale>
<asrwt>0</asrwt>
<pdfrwt beam="1">  1        2 0.21152099E+00 0.38750717E+03</pdfrwt>
<pdfrwt beam="2">  1       -2 0.76252455E-02 0.38750717E+03</pdfrwt>
<totfact> 0.16211334E+03</totfact>
</mgrwt>
</event>
<event>
 5    0  0.6041737E-002  0.4630188E+03  0.7546771E-02  0.1023909E+00
         -2   -1    0    0    0  501 -0.00000000000E+00  0.00000000000E+00  0.51758570464E+02  0.51758570464E+02  0.00000000000E+00 0. -1.
          2   -1    0    0  503    0  0.00000000000E+00 -0.00000000000E+00 -0.10355116786E+04  0.10355116786E+04  0.00000000000E+00 0.  1.
         25    1    1    2    0    0  0.19593635050E+03 -0.42018209337E+02 -0.35468105743E+03  0.42612232500E+03  0.12500000000E+03 0.  0.
         21    1    1    2  502  501 -0.17100382074E+03  0.26743750487E+02 -0.56012092040E+03  0.58625334146E+03  0.00000000000E+00 0.  1.
         21    1    1    2  503  502 -0.24932529761E+02  0.15274458849E+02 -0.68951130265E+02  0.74894582569E+02  0.00000000000E+00 0.  1.
<mgrwt>
<rscale>  4 0.46301881E+03</rscale>
<asrwt>0</asrwt>
<pdfrwt beam="1">  1        2 0.15930949E+00 0.46301881E+03</pdfrwt>
<pdfrwt beam="2">  1       -2 0.79628571E-02 0.46301881E+03</pdfrwt>
<totfact> 0.23821363E+03</totfact>
</mgrwt>
</event>
<event>
 5    0  0.6041737E-002  0.9888446E+03  0.7546771E-02  0.9320865E-01
          2   -1    0    0  503    0  0.00000000000E+00  0.00000000000E+00  0.71721795607E+03  0.71721795607E+03  0.00000000000E+00 0. -1.
         -2   -1    0    0    0  501 -0.00000000000E+00 -0.00000000000E+00 -0.34083557840E+03  0.34083557840E+03  0.00000000000E+00 0.  1.
         25    1    1    2    0    0  0.30687669182E+02  0.22353078287E+03  0.65014948829E+03  0.69944771145E+03  0.12500000000E+03 0.  0.
         21    1    1    2  502  501 -0.10960614116E+02 -0.18161182221E+03 -0.19122392584E+03  0.26394995519E+03  0.00000000000E+00 0.  1.
         21    1    1    2  503  502 -0.19727055066E+02 -0.41918960654E+02 -0.82543184770E+02  0.94655867837E+02  0.00000000000E+00 0.  1.
<mgrwt>
<rscale>  4 0.98884457E+03</rscale>
<asrwt>0</asrwt>
<pdfrwt beam="1">  1        2 0.11034122E+00 0.98884457E+03</pdfrwt>
<pdfrwt beam="2">  1       -2 0.52436243E-01 0.98884457E+03</pdfrwt>
<totfact> 0.13622805E+02</totfact>
</mgrwt>
</event>
<event>
 5    0  0.6041737E-002  0.5187719E+03  0.7546771E-02  0.1008992E+00
          1   -1    0    0  503    0  0.00000000000E+00  0.00000000000E+00  0.90328561887E+02  0.90328561887E+02  0.00000000000E+00 0. -1.
         -1   -1    0    0    0  501 -0.00000000000E+00 -0.00000000000E+00 -0.74484820236E+03  0.74484820236E+03  0.00000000000E+00 0.  1.
         25    1    1    2    0    0  0.14853697477E+02 -0.23859340131E+03 -0.36921672752E+03  0.45726735654E+03  0.12500000000E+03 0.  0.
         21    1    1    2  502  501 -0.28691863328E+02  0.44310160519E+02 -0.53885740132E+02  0.75433986611E+02  0.00000000000E+00 0. -1.
         21    1    1    2  503  502  0.13838165852E+02  0.19428324080E+03 -0.23141717282E+03  0.30247542109E+03  0.00000000000E+00 0. -1.
<mgrwt>
<rscale>  4 0.51877188E+03</rscale>
<asrwt>0</asrwt>
<pdfrwt beam="1">  1        1 0.13896702E-01 0.51877188E+03</pdfrwt>
<pdfrwt beam="2">  1       -1 0.11459203E+00 0.51877188E+03</pdfrwt>
<totfact> 0.30190093E+02</totfact>
</mgrwt>
</event>
<event>
 5    0  0.6041737E-002  0.5438855E+03  0.7546771E-02  0.1002919E+00
          2   -1    0    0  503    0  0.00000000000E+00  0.00000000000E+00  0.11665486776E+04  0.11665486776E+04  0.00000000000E+00 0. -1.
         -2   -1    0    0    0  501 -0.00000000000E+00 -0.00000000000E+00 -0.84125408301E+02  0.84125408301E+02  0.00000000000E+00 0.  1.
         25    1    1    2    0    0  0.24598664060E+03 -0.11469130270E+03  0.69785475773E+03  0.75913752717E+03  0.12500000000E+03 0.  0.
         21    1    1    2  502  501 -0.16872673729E+03  0.12254302455E+03  0.19025992757E+03  0.28228415610E+03  0.00000000000E+00 0.  1.
         21    1    1    2  503  502 -0.77259903302E+02 -0.78517218589E+01  0.19430858402E+03  0.20925240265E+03  0.00000000000E+00 0.  1.
<mgrwt>
<rscale>  4 0.54388549E+03</rscale>
<asrwt>0</asrwt>
<pdfrwt beam="1">  1        2 0.17946902E+00 0.54388549E+03</pdfrwt>
<pdfrwt beam="2">  1       -2 0.12942371E-01 0.54388549E+03</pdfrwt>
<totfact> 0.90285243E+02</totfact>
</mgrwt>
</event>
<event>
 5    0  0.6041737E-002  0.6034768E+03  0.7546771E-02  0.9898219E-01
         -1   -1    0    0    0  501 -0.00000000000E+00  0.00000000000E+00  0.92966598931E+02  0.92966598931E+02  0.00000000000E+00 0.  1.
          1   -1    0    0  503    0  0.00000000000E+00 -0.00000000000E+00 -0.97934175494E+03  0.97934175494E+03  0.00000000000E+00 0. -1.
         25    1    1    2    0    0  0.10410405855E+03 -0.25856536002E+03 -0.58472286468E+03  0.65971170134E+03  0.12500000000E+03 0.  0.
         21    1    1    2  502  501 -0.93217307362E+01  0.20807546761E+02 -0.11016910917E+02  0.25322341761E+02  0.00000000000E+00 0. -1.
         21    1    1    2  503  502 -0.94782327814E+02  0.23775781326E+03 -0.29063538041E+03  0.38727431076E+03  0.00000000000E+00 0.  1.
<mgrwt>
<rscale>  4 0.60347683E+03</rscale>
<asrwt>0</asrwt>
<pdfrwt beam="1">  1        1 0.15066795E+00 0.60347683E+03</pdfrwt>
<pdfrwt beam="2">  1       -1 0.14302554E-01 0.60347683E+03</pdfrwt>
<totfact> 0.56622945E+02</totfact>
</mgrwt>
</event>
<event>
 5    0  0.6041737E-002  0.5009143E+03  0.7546771E-02  0.1013541E+00
         -2   -1    0    0    0  501 -0.00000000000E+00  0.00000000000E+00  0.24958289920E+03  0.24958289920E+03  0.00000000000E+00 0.  1.
          2   -1    0    0  503    0  0.00000000000E+00 -0.00000000000E+00 -0.25133449885E+03  0.25133449885E+03  0.00000000000E+00 0. -1.
         25    1    1    2    0    0 -0.46494863751E+02 -0.21052293142E+03  0.76958092614E+02  0.26082412662E+03  0.12500000000E+03 0.  0.
         21    1    1    2  502  501  0.16254793804E+02  0.60131830855E+02 -0.58342603222E+02  0.85345853762E+02  0.00000000000E+00 0. -1.
         21    1    1    2  503  502  0.30240069946E+02  0.15039110057E+03 -0.20367089041E+02  0.15474741767E+03  0.00000000000E+00 0. -1.
<mgrwt>
<rscale>  4 0.50091434E+03</rscale>
<asrwt>0</asrwt>
<pdfrwt beam="1">  1        2 0.38666846E-01 0.50091434E+03</pdfrwt>
<pdfrwt beam="2">  1       -2 0.38397369E-01 0.50091434E+03</pdfrwt>
<totfact> 0.85966898E+02</totfact>
</mgrwt>
</event>
<event>
 5    0  0.6041737E-002  0.7381279E+03  0.7546771E-02  0.9654162E-01
          2   -1    0    0  503    0  0.00000000000E+00  0.00000000000E+00  0.31423379038E+03  0.31423379038E+03  0.00000000000E+00 0. -1.
         -2   -1    0    0    0  501 -0.00000000000E+00 -0.00000000000E+00 -0.43346133374E+03  0.43346133374E+03  0.00000000000E+00 0.  1.
         25    1    1    2    0    0 -0.35215685634E+03  0.16129468320E+02 -0.64387393095E+02  0.37953306524E+03  0.12500000000E+03 0.  0.
         21    1    1    2  502  501  0.35136796290E+02  0.25361919718E+02  0.22019542286E+01  0.43389745652E+02  0.00000000000E+00 0.  1.
         21    1    1    2  503  502  0.31702006005E+03 -0.41491388038E+02 -0.57042104497E+02  0.32477231323E+03  0.00000000000E+00 0. -1.
<mgrwt>
<rscale>  4 0.73812790E+03</rscale>
<asrwt>0</asrwt>
<pdfrwt beam="1">  1        2 0.48343660E-01 0.73812790E+03</pdfrwt>
<pdfrwt beam="2">  1       -2 0.66686359E-01 0.73812790E+03</pdfrwt>
<totfact> 0.21735599E+02</totfact>
</mgrwt>
</event>
<event>
 5    0  0.6041737E-002  0.5352451E+03  0.7546771E-02  0.1004968E+00
          2   -1    0    0  503    0  0.00000000000E+00  0.00000000000E+00  0.87856741348E+03  0.87856741348E+03  0.00000000000E+00 0. -1.
         -2   -1    0    0    0  501 -0.00000000000E+00 -0.00000000000E+00 -0.81521162176E+02  0.81521162176E+02  0.00000000000E+00 0.  1.
         25    1    1    2    0    0  0.22622678833E+03 -0.18432963911E+02  0.22784680735E+03  0.34504710046E+03  0.12500000000E+03 0.  0.
         21    1    1    2  502  501 -0.15211738582E+03 -0.11778361902E+02  0.39005347403E+03  0.41883187735E+03  0.00000000000E+00 0. -1.
         21    1    1    2  503  502 -0.74109402516E+02  0.30211325813E+02  0.17914596993E+03  0.19620959785E+03  0.00000000000E+00 0. -1.
<mgrwt>
<rscale>  4 0.53524513E+03</rscale>
<asrwt>0</asrwt>
<pdfrwt beam="1">  1        2 0.13516421E+00 0.53524513E+03</pdfrwt>
<pdfrwt beam="2">  1       -2 0.12541718E-01 0.53524513E+03</pdfrwt>
<totfact> 0.14417629E+03</totfact>
</mgrwt>
</event>
<event>
 5    0  0.6041737E-002  0.4642695E+03  0.7546771E-02  0.1023550E+00
          2   -1    0    0  503    0  0.00000000000E+00  0.00000000000E+00  0.22840027817E+04  0.22840027817E+04  0.00000000000E+00 0. -1.
         -2   -1    0    0    0  501 -0.00000000000E+00 -0.00000000000E+00 -0.32956873925E+02  0.32956873925E+02  0.00000000000E+00 0.  1.
         25    1    1    2    0    0 -0.78330405527E+02  0.21072943755E+03  0.15345407951E+04  0.15559508348E+04  0.12500000000E+03 0.  0.
         21    1    1    2  502  501 -0.10588917228E+02 -0.40190574355E+02  0.39955197861E+02  0.57652625882E+02  0.00000000000E+00 0.  1.
         21    1    1    2  503  502  0.88919322754E+02 -0.17053886319E+03  0.67654991472E+03  0.70335619492E+03  0.00000000000E+00 0.  1.
<mgrwt>
<rscale>  4 0.46426946E+03</rscale>
<asrwt>0</asrwt>
<pdfrwt beam="1">  1        2 0.35138492E+00 0.46426946E+03</pdfrwt>
<pdfrwt beam="2">  1       -2 0.50702901E-02 0.46426946E+03</pdfrwt>
<totfact> 0.98517967E+02</totfact>
</mgrwt>
</event>
<event>
 5    0  0.6041737E-002  0.4793468E+03  0.7546771E-02  0.1019315E+00
          2   -1    0    0  503    0  0.00000000000E+00  0.00000000000E+00  0.15815691998E+04  0.15815691998E+04  0.00000000000E+00 0. -1.
         -2   -1    0    0    0  501 -0.00000000000E+00 -0.00000000000E+00 -0.36320478593E+02  0.36320478593E+02  0.00000000000E+00 0.  1.
         25    1    1    2    0    0  0.20903214026E+03  0.35944209770E+02  0.88073680819E+03  0.91449917833E+03  0.12500000000E+03 0.  0.
         21    1    1    2  502  501 -0.81047908726E+02 -0.50391954960E+02  0.20423844144E+03  0.22543614083E+03  0.00000000000E+00 0.  1.
         21    1    1    2  503  502 -0.12798423153E+03  0.14447745190E+02  0.46027347160E+03  0.47795435925E+03  0.00000000000E+00 0.  1.
<mgrwt>
<rscale>  4 0.47934685E+03</rscale>
<asrwt>0</asrwt>
<pdfrwt beam="1">  1        2 0.24331829E+00 0.47934685E+03</pdfrwt>
<pdfrwt beam="2">  1       -2 0.55877671E-02 0.47934685E+03</pdfrwt>
<totfact> 0.20255224E+03</totfact>
</mgrwt>
</event>
<event>
 5    0  0.6041737E-002  0.5127277E+03  0.7546771E-02  0.1010509E+00
          1   -1    0    0  503    0  0.00000000000E+00  0.00000000000E+00  0.38595476479E+03  0.38595476479E+03  0.00000000000E+00 0.  1.
         -1   -1    0    0    0  501 -0.00000000000E+00 -0.00000000000E+00 -0.28622720153E+03  0.28622720153E+03  0.00000000000E+00 0. -1.
         25    1    1    2    0    0  0.29769667596E+03  0.22427002396E+02  0.28679485204E+01  0.32366573258E+03  0.12500000000E+03 0.  0.
         21    1    1    2  502  501 -0.16118782911E+03  0.99791442152E+01  0.12646915488E+03  0.20512324761E+03  0.00000000000E+00 0.  1.
         21    1    1    2  503  502 -0.13650884685E+03 -0.32406146611E+02 -0.29609540143E+02  0.14339298614E+03  0.00000000000E+00 0.  1.
<mgrwt>
<rscale>  4 0.51272770E+03</rscale>
<asrwt>0</asrwt>
<pdfrwt beam="1">  1        1 0.59377656E-01 0.51272770E+03</pdfrwt>
<pdfrwt beam="2">  1       -1 0.44034954E-01 0.51272770E+03</pdfrwt>
<totfact> 0.32718695E+02</totfact>
</mgrwt>
</event>
<event>
 5    0  0.6041737E-002  0.6173613E+03  0.7546771E-02  0.9870027E-01
          1   -1    0    0  503    0  0.00000000000E+00  0.00000000000E+00  0.26608501919E+04  0.26608501919E+04  0.00000000000E+00 0. -1.
         -1   -1    0    0    0  501 -0.00000000000E+00 -0.00000000000E+00 -0.52758370340E+02  0.52758370340E+02  0.00000000000E+00 0.  1.
         25    1    1    2    0    0  0.56891712867E+02  0.33226322581E+03  0.14541258023E+04  0.14979126700E+04  0.12500000000E+03 0.  0.
         21    1    1    2  502  501 -0.56666011113E+02 -0.10051708569E+03  0.66072575688E+03  0.67072591059E+03  0.00000000000E+00 0.  1.
         21    1    1    2  503  502 -0.22570175475E+00 -0.23174614012E+03  0.49324026241E+03  0.54496998162E+03  0.00000000000E+00 0.  1.
<mgrwt>
<rscale>  4 0.61736127E+03</rscale>
<asrwt>0</asrwt>
<pdfrwt beam="1">  1        1 0.40936146E+00 0.61736127E+03</pdfrwt>
<pdfrwt beam="2">  1       -1 0.81166744E-02 0.61736127E+03</pdfrwt>
<totfact> 0.97524027E+01</totfact>
</mgrwt>
</event>
<event>
 5    0  0.6041737E-002  0.4381785E+03  0.7546771E-02  0.1031307E+00
          2   -1    0    0  503    0  0.00000000000E+00  0.00000000000E+00  0.12945297861E+04  0.12945297861E+04  0.00000000000E+00 0.  1.
         -2   -1    0    0    0  501 -0.00000000000E+00 -0.00000000000E+00 -0.44236683063E+02  0.44236683063E+02  0.00000000000E+00 0. -1.
         25    1    1    2    0    0 -0.19717206187E+03  0.50737487183E+02  0.48057972326E+03  0.53668704568E+03  0.12500000000E+03 0.  0.
         21    1    1    2  502  501  0.30601163777E+02  0.84082788911E+00  0.33007386556E+02  0.45018060634E+02  0.00000000000E+00 0.  1.
         21    1    1    2  503  502  0.16657089809E+03 -0.51578315072E+02  0.73670599320E+03  0.75706136283E+03  0.00000000000E+00 0.  1.
<mgrwt>
<rscale>  4 0.43817854E+03</rscale>
<asrwt>0</asrwt>
<pdfrwt beam="1">  1        2 0.19915840E+00 0.43817854E+03</pdfrwt>
<pdfrwt beam="2">  1       -2 0.68056445E-02 0.43817854E+03</pdfrwt>
<totfact> 0.21478966E+03</totfact>
</mgrwt>
</event>
<event>
 5    0  0.6041737E-002  0.6185828E+03  0.7546771E-02  0.9867585E-01
          2   -1    0    0  503    0  0.00000000000E+00  0.00000000000E+00  0.28309216085E+04  0.28309216085E+04  0.00000000000E+00 0. -1.
         -2   -1    0    0    0  501 -0.00000000000E+00 -0.00000000000E+00 -0.33791524627E+02  0.33791524627E+02  0.00000000000E+00 0.  1.
         25    1    1    2    0    0  0.87699677882E+02 -0.22690836549E+03  0.22290747542E+04  0.22457911522E+04  0.12500000000E+03 0.  0.
         21    1    1    2  502  501 -0.65265666268E+01  0.22716899473E+02  0.33804121639E+02  0.41247693673E+02  0.00000000000E+00 0.  1.
         21    1    1    2  503  502 -0.81173111255E+02  0.20419146602E+03  0.53425120812E+03  0.57767428726E+03  0.00000000000E+00 0.  1.
<mgrwt>
<rscale>  4 0.61858276E+03</rscale>
<asrwt>0</asrwt>
<pdfrwt beam="1">  1        2 0.43552622E+00 0.61858276E+03</pdfrwt>
<pdfrwt beam="2">  1       -2 0.51986983E-02 0.61858276E+03</pdfrwt>
<totfact> 0.45745815E+02</totfact>
</mgrwt>
</event>
<event>
 5    0  0.6041737E-002  0.4741673E+03  0.7546771E-02  0.1020751E+00
         -1   -1    0    0    0  501 -0.00000000000E+00  0.00000000000E+00  0.42621640146E+03  0.42621640146E+03  0.00000000000E+00 0.  1.
          1   -1    0    0  503    0  0.00000000000E+00 -0.00000000000E+00 -0.43437507239E+03  0.43437507239E+03  0.00000000000E+00 0. -1.
         25    1    1    2    0    0  0.28680041659E+02  0.21371154853E+03 -0.32895207693E+03  0.41271011580E+03  0.12500000000E+03 0.  0.
         21    1    1    2  502  501 -0.19711639010E+02 -0.68963500298E+02  0.29115321245E+03  0.29985780998E+03  0.00000000000E+00 0.  1.
         21    1    1    2  503  502 -0.89684026491E+01 -0.14474804823E+03  0.29640193556E+02  0.14802354808E+03  0.00000000000E+00 0.  1.
<mgrwt>
<rscale>  4 0.47416731E+03</rscale>
<asrwt>0</asrwt>
<pdfrwt beam="1">  1        1 0.66826935E-01 0.47416731E+03</pdfrwt>
<pdfrwt beam="2">  1       -1 0.65571754E-01 0.47416731E+03</pdfrwt>
<totfact> 0.13125897E+02</totfact>
</mgrwt>
</event>
<event>
 5    0  0.6041737E-002  0.7445881E+03  0.7546771E-02  0.9643879E-01
         -1   -1    0    0    0  501 -0.00000000000E+00  0.00000000000E+00  0.28361197857E+03  0.28361197857E+03  0.00000000000E+00 0. -1.
          1   -1    0    0  503    0  0.00000000000E+00 -0.00000000000E+00 -0.48870595481E+03  0.48870595481E+03  0.00000000000E+00 0.  1.
         25    1    1    2    0    0 -0.28584554052E+03 -0.20848438701E+03 -0.54265284626E+02  0.37913471719E+03  0.12500000000E+03 0.  0.
         21    1    1    2  502  501  0.26904622708E+03  0.16710904980E+03 -0.14433675445E+03  0.34805804906E+03  0.00000000000E+00 0. -1.
         21    1    1    2  503  502  0.16799313447E+02  0.41375337202E+02 -0.64919371556E+01  0.45125167134E+02  0.00000000000E+00 0. -1.
<mgrwt>
<rscale>  4 0.74458811E+03</rscale>
<asrwt>0</asrwt>
<pdfrwt beam="1">  1        1 0.75185530E-01 0.74458811E+03</pdfrwt>
<pdfrwt beam="2">  1       -1 0.43632613E-01 0.74458811E+03</pdfrwt>
<totfact> 0.24024011E+02</totfact>
</mgrwt>
</event>
<event>
 5    0  0.6041737E-002  0.4484954E+03  0.7546771E-02  0.1028172E+00
          2   -1    0    0  503    0  0.00000000000E+00  0.00000000000E+00  0.23333054584E+03  0.23333054584E+03  0.00000000000E+00 0. -1.
         -2   -1    0    0    0  501 -0.00000000000E+00 -0.00000000000E+00 -0.29692294066E+03  0.29692294066E+03  0.00000000000E+00 0.  1.
         25    1    1    2    0    0  0.81196621136E+02  0.21795859190E+03 -0.66411680150E+02  0.27227623901E+03  0.12500000000E+03 0.  0.
         21    1    1    2  502  501 -0.70555897547E+02 -0.17041026984E+03 -0.44848534110E+02  0.18981355525E+03  0.00000000000E+00 0.  1.
         21    1    1    2  503  502 -0.10640723589E+02 -0.47548322065E+02  0.47667819443E+02  0.68163692242E+02  0.00000000000E+00 0.  1.
<mgrwt>
<rscale>  4 0.44849542E+03</rscale>
<asrwt>0</asrwt>
<pdfrwt beam="1">  1        2 0.35897007E-01 0.44849542E+03</pdfrwt>
<pdfrwt beam="2">  1       -2 0.45680452E-01 0.44849542E+03</pdfrwt>
<totfact> 0.66461915E+02</totfact>
</mgrwt>
</event>
<event>
 5    0  0.6041737E-002  0.4624212E+03  0.7546771E-02  0.1024081E+00
         -2   -1    0    0    0  501 -0.00000000000E+00  0.00000000000E+00  0.56871602352E+02  0.56871602352E+02  0.00000000000E+00 0. -1.
          2   -1    0    0  503    0  0.00000000000E+00 -0.00000000000E+00 -0.93998320328E+03  0.93998320328E+03  0.00000000000E+00 0.  1.
         25    1    1    2    0    0 -0.19287477005E+03  0.71575292270E+02 -0.36527872818E+03  0.43746685434E+03  0.12500000000E+03 0.  0.
         21    1    1    2  502  501  0.17824198458E+03 -0.50604895637E+02 -0.46880192560E+03  0.50408958130E+03  0.00000000000E+00 0. -1.
         21    1    1    2  503  502  0.14632785467E+02 -0.20970396633E+02 -0.49030947151E+02  0.55298369994E+02  0.00000000000E+00 0. -1.
<mgrwt>
<rscale>  4 0.46242124E+03</rscale>
<asrwt>0</asrwt>
<pdfrwt beam="1">  1        2 0.14461278E+00 0.46242124E+03</pdfrwt>
<pdfrwt beam="2">  1       -2 0.87494783E-02 0.46242124E+03</pdfrwt>
<totfact> 0.23560325E+03</totfact>
</mgrwt>
</event>
<event>
 5    0  0.6041737E-002  0.5134834E+03  0.7546771E-02  0.1010318E+00
          2   -1    0    0  503    0  0.00000000000E+00  0.00000000000E+00  0.17943685397E+04  0.17943685397E+04  0.00000000000E+00 0.  1.
         -2   -1    0    0    0  501 -0.00000000000E+00 -0.00000000000E+00 -0.36735098233E+02  0.36735098233E+02  0.00000000000E+00 0. -1.
         25    1    1    2    0    0 -0.21424899715E+03  0.94253414616E+02  0.77028993715E+03  0.81471340127E+03  0.12500000000E+03 0.  0.
         21    1    1    2  502  501  0.54563911784E+02 -0.45033793910E+01  0.16333289862E+03  0.17226472845E+03  0.00000000000E+00 0. -1.
         21    1    1    2  503  502  0.15968508536E+03 -0.89750035225E+02  0.82401060574E+03  0.84412550825E+03  0.00000000000E+00 0.  1.
<mgrwt>
<rscale>  4 0.51348342E+03</rscale>
<asrwt>0</asrwt>
<pdfrwt beam="1">  1        2 0.27605663E+00 0.51348342E+03</pdfrwt>
<pdfrwt beam="2">  1       -2 0.56515550E-02 0.51348342E+03</pdfrwt>
<totfact> 0.15252639E+03</totfact>
</mgrwt>
</event>
<event>
 5    0  0.6041737E-002  0.7098117E+03  0.7546771E-02  0.9700599E-01
         -1   -1    0    0    0  501 -0.00000000000E+00  0.00000000000E+00  0.17177815438E+03  0.17177815438E+03  0.00000000000E+00 0. -1.
          1   -1    0    0  503    0  0.00000000000E+00 -0.00000000000E+00 -0.84000249389E+03  0.84000249389E+03  0.00000000000E+00 0.  1.
         25    1    1    2    0    0  0.43825440713E+02  0.33741949349E+03 -0.33989736881E+03  0.49691830834E+03  0.12500000000E+03 0.  0.
         21    1    1    2  502  501 -0.88842970803E+02 -0.33569613226E+03 -0.31235005721E+03  0.46706265630E+03  0.00000000000E+00 0.  1.
         21    1    1    2  503  502  0.45017530089E+02 -0.17233612360E+01 -0.15976913490E+02  0.47799683618E+02  0.00000000000E+00 0.  1.
<mgrwt>
<rscale>  4 0.70981166E+03</rscale>
<asrwt>0</asrwt>
<pdfrwt beam="1">  1        1 0.12923115E+00 0.70981166E+03</pdfrwt>
<pdfrwt beam="2">  1       -1 0.26427408E-01 0.70981166E+03</pdfrwt>
<totfact> 0.26336794E+02</totfact>
</mgrwt>
</event>
<event>
 5    0  0.6041737E-002  0.4786379E+03  0.7546771E-02  0.1019510E+00
          2   -1    0    0  503    0  0.00000000000E+00  0.00000000000E+00  0.25059475327E+04  0.25059475327E+04  0.00000000000E+00 0. -1.
         -2   -1    0    0    0  501 -0.00000000000E+00 -0.00000000000E+00 -0.22855048350E+02  0.22855048350E+02  0.00000000000E+00 0.  1.
         25    1    1    2    0    0  0.10251877173E+03  0.19042938541E+03  0.13694854006E+04  0.13920807131E+04  0.12500000000E+03 0.  0.
         21    1    1    2  502  501  0.97390917731E+01 -0.33105600149E+02  0.19039600712E+03  0.19349798499E+03  0.00000000000E+00 0. -1.
         21    1    1    2  503  502 -0.11225786350E+03 -0.15732378527E+03  0.92321107668E+03  0.94322388298E+03  0.00000000000E+00 0. -1.
<mgrwt>
<rscale>  4 0.47863787E+03</rscale>
<asrwt>0</asrwt>
<pdfrwt beam="1">  1        2 0.38553017E+00 0.47863787E+03</pdfrwt>
<pdfrwt beam="2">  1       -2 0.35161633E-02 0.47863787E+03</pdfrwt>
<totfact> 0.12999817E+03</totfact>
</mgrwt>
</event>
<event>
 5    0  0.6041737E-002  0.5020215E+03  0.7546771E-02  0.1013253E+00
         -2   -1    0    0    0  501 -0.00000000000E+00  0.00000000000E+00  0.10540905618E+03  0.10540905618E+03  0.00000000000E+00 0. -1.
          2   -1    0    0  503    0  0.00000000000E+00 -0.00000000000E+00 -0.59773227120E+03  0.59773227120E+03  0.00000000000E+00 0.  1.
         25    1    1    2    0    0 -0.15104584340E+03 -0.14645502787E+03 -0.39691930720E+03  0.46629803605E+03  0.12500000000E+03 0.  0.
         21    1    1    2  502  501  0.13289058278E+03  0.11961700318E+03 -0.98775439210E+02  0.20426630126E+03  0.00000000000E+00 0. -1.
         21    1    1    2  503  502  0.18155260623E+02  0.26838024697E+02  0.33715313839E+01  0.32576990066E+02  0.00000000000E+00 0. -1.
<mgrwt>
<rscale>  4 0.50202149E+03</rscale>
<asrwt>0</asrwt>
<pdfrwt beam="1">  1        2 0.91958813E-01 0.50202149E+03</pdfrwt>
<pdfrwt beam="2">  1       -2 0.16216778E-01 0.50202149E+03</pdfrwt>
<totfact> 0.15286209E+03</totfact>
</mgrwt>
</event>
<event>
 5    0  0.6041737E-002  0.5958006E+03  0.7546771E-02  0.9914157E-01
         -2   -1    0    0    0  501 -0.00000000000E+00  0.00000000000E+00  0.49554640844E+02  0.49554640844E+02  0.00000000000E+00 0. -1.
          2   -1    0    0  503    0  0.00000000000E+00 -0.00000000000E+00 -0.17908433461E+04  0.17908433461E+04  0.00000000000E+00 0.  1.
         25    1    1    2    0    0  0.22815403652E+03 -0.32505211905E+02 -0.39520516435E+03  0.47426045071E+03  0.12500000000E+03 0.  0.
         21    1    1    2  502  501 -0.32421921714E+02 -0.47382298972E+01 -0.14646447867E+03  0.15008489378E+03  0.00000000000E+00 0.  1.
         21    1    1    2  503  502 -0.19573211480E+03  0.37243441802E+02 -0.11996190622E+04  0.12160526424E+04  0.00000000000E+00 0.  1.
<mgrwt>
<rscale>  4 0.59580063E+03</rscale>
<asrwt>0</asrwt>
<pdfrwt beam="1">  1        2 0.27551432E+00 0.59580063E+03</pdfrwt>
<pdfrwt beam="2">  1       -2 0.76237921E-02 0.59580063E+03</pdfrwt>
<totfact> 0.95269140E+02</totfact>
</mgrwt>
</event>
<event>
 5    0  0.6041737E-002  0.7691718E+03  0.7546771E-02  0.9605744E-01
          2   -1    0    0  503    0  0.00000000000E+00  0.00000000000E+00  0.18677289529E+04  0.18677289529E+04  0.00000000000E+00 0. -1.
         -2   -1    0    0    0  501 -0.00000000000E+00 -0.00000000000E+00 -0.87764512134E+02  0.87764512134E+02  0.00000000000E+00 0.  1.
         25    1    1    2    0    0 -0.28000994047E+01 -0.35274619802E+03  0.51277786850E+03  0.63482585266E+03  0.12500000000E+03 0.  0.
         21    1    1    2  502  501 -0.11353314021E+02  0.34422037906E+02  0.45831735551E+02  0.58432203591E+02  0.00000000000E+00 0.  1.
         21    1    1    2  503  502  0.14153413425E+02  0.31832416012E+03  0.12213548367E+04  0.12622354088E+04  0.00000000000E+00 0.  1.
<mgrwt>
<rscale>  4 0.76917176E+03</rscale>
<asrwt>0</asrwt>
<pdfrwt beam="1">  1        2 0.28734289E+00 0.76917176E+03</pdfrwt>
<pdfrwt beam="2">  1       -2 0.13502234E-01 0.76917176E+03</pdfrwt>
<totfact> 0.33722304E+02</totfact>
</mgrwt>
</event>
<event>
 5    0  0.6041737E-002  0.5672881E+03  0.7546771E-02  0.9975698E-01
         -2   -1    0    0    0  501 -0.00000000000E+00  0.00000000000E+00  0.47312940444E+02  0.47312940444E+02  0.00000000000E+00 0. -1.
          2   -1    0    0  503    0  0.00000000000E+00 -0.00000000000E+00 -0.35563695750E+04  0.35563695750E+04  0.00000000000E+00 0.  1.
         25    1    1    2    0    0 -0.24007661071E+03  0.13629153221E+03 -0.67444682279E+03  0.73940224340E+03  0.12500000000E+03 0.  0.
         21    1    1    2  502  501  0.22833541179E+03  0.99673206823E+01 -0.11009977307E+04  0.11244698354E+04  0.00000000000E+00 0.  1.
         21    1    1    2  503  502  0.11741198921E+02 -0.14625885290E+03 -0.17336120810E+04  0.17398104366E+04  0.00000000000E+00 0.  1.
<mgrwt>
<rscale>  4 0.56728808E+03</rscale>
<asrwt>0</asrwt>
<pdfrwt beam="1">  1        2 0.54713380E+00 0.56728808E+03</pdfrwt>
<pdfrwt beam="2">  1       -2 0.72789136E-02 0.56728808E+03</pdfrwt>
<totfact> 0.94297162E+01</totfact>
</mgrwt>
</event>
<event>
 5    0  0.6041737E-002  0.5064321E+03  0.7546771E-02  0.1012114E+00
         -1   -1    0    0    0  501 -0.00000000000E+00  0.00000000000E+00  0.29016829216E+02  0.29016829216E+02  0.00000000000E+00 0. -1.
          1   -1    0    0  503    0  0.00000000000E+00 -0.00000000000E+00 -0.22096962120E+04  0.22096962120E+04  0.00000000000E+00 0.  1.
         25    1    1    2    0    0  0.20751117290E+03  0.36599124663E+02 -0.15601936978E+04  0.15793130650E+04  0.12500000000E+03 0.  0.
         21    1    1    2  502  501 -0.45092112334E+02  0.67815817164E+01 -0.22653659153E+03  0.23108032315E+03  0.00000000000E+00 0. -1.
         21    1    1    2  503  502 -0.16241906057E+03 -0.43380706380E+02 -0.39394909349E+03  0.42831965304E+03  0.00000000000E+00 0. -1.
<mgrwt>
<rscale>  4 0.50643214E+03</rscale>
<asrwt>0</asrwt>
<pdfrwt beam="1">  1        1 0.33995331E+00 0.50643214E+03</pdfrwt>
<pdfrwt beam="2">  1       -1 0.44641270E-02 0.50643214E+03</pdfrwt>
<totfact> 0.49985808E+02</totfact>
</mgrwt>
</event>
<event>
 5    0  0.6041737E-002  0.5067129E+03  0.7546771E-02  0.1012041E+00
         -1   -1    0    0    0  501 -0.00000000000E+00  0.00000000000E+00  0.14803082124E+03  0.14803082124E+03  0.00000000000E+00 0.  1.
          1   -1    0    0  503    0  0.00000000000E+00 -0.00000000000E+00 -0.43362245012E+03  0.43362245012E+03  0.00000000000E+00 0. -1.
         25    1    1    2    0    0  0.22437774774E+03  0.95692123221E+01 -0.67677289501E+02  0.26578592705E+03  0.12500000000E+03 0.  0.
         21    1    1    2  502  501 -0.16197922236E+03 -0.25194667808E+02 -0.14784270473E+03  0.22074760498E+03  0.00000000000E+00 0. -1.
         21    1    1    2  503  502 -0.62398525375E+02  0.15625455486E+02 -0.70071634650E+02  0.95119739332E+02  0.00000000000E+00 0. -1.
<mgrwt>
<rscale>  4 0.50671289E+03</rscale>
<asrwt>0</asrwt>
<pdfrwt beam="1">  1        1 0.66711146E-01 0.50671289E+03</pdfrwt>
<pdfrwt beam="2">  1       -1 0.22773972E-01 0.50671289E+03</pdfrwt>
<totfact> 0.88843016E+02</totfact>
</mgrwt>
</event>
<event>
 5    0  0.6041737E-002  0.4572146E+03  0.7546771E-02  0.1025592E+00
         -1   -1    0    0    0  501 -0.00000000000E+00  0.00000000000E+00  0.89715108506E+03  0.89715108506E+03  0.00000000000E+00 0. -1.
          1   -1    0    0  503    0  0.00000000000E+00 -0.00000000000E+00 -0.58252511324E+02  0.58252511324E+02  0.00000000000E+00 0.  1.
         25    1    1    2    0    0 -0.18819735320E+03  0.75544127310E+02  0.53984666055E+03  0.59007167008E+03  0.12500000000E+03 0.  0.
         21    1    1    2  502  501  0.10570927138E+03 -0.41028495141E+02  0.11943958627E+03  0.16469244742E+03  0.00000000000E+00 0.  1.
         21    1    1    2  503  502  0.82488081819E+02 -0.34515632169E+02  0.17961232691E+03  0.20063947888E+03  0.00000000000E+00 0.  1.
<mgrwt>
<rscale>  4 0.45721463E+03</rscale>
<asrwt>0</asrwt>
<pdfrwt beam="1">  1        1 0.89619254E-02 0.45721463E+03</pdfrwt>
<pdfrwt beam="2">  1       -1 0.13802323E+00 0.45721463E+03</pdfrwt>
<totfact> 0.34745451E+02</totfact>
</mgrwt>
</event>
<event>
 5    0  0.6041737E-002  0.5213681E+03  0.7546771E-02  0.1008347E+00
          1   -1    0    0  503    0  0.00000000000E+00  0.00000000000E+00  0.28522217238E+03  0.28522217238E+03  0.00000000000E+00 0.  1.
         -1   -1    0    0    0  501 -0.00000000000E+00 -0.00000000000E+00 -0.27959447217E+03  0.27959447217E+03  0.00000000000E+00 0. -1.
         25    1    1    2    0    0  0.19164573232E+03  0.15465507836E+03 -0.18453083757E+01  0.27617871957E+03  0.12500000000E+03 0.  0.
         21    1    1    2  502  501 -0.18535388654E+02  0.16139462931E+02 -0.33990765470E+02  0.41945381552E+02  0.00000000000E+00 0.  1.
         21    1    1    2  503  502 -0.17311034367E+03 -0.17079454129E+03  0.41463774053E+02  0.24669254342E+03  0.00000000000E+00 0. -1.
<mgrwt>
<rscale>  4 0.52136814E+03</rscale>
<asrwt>0</asrwt>
<pdfrwt beam="1">  1        1 0.43880334E-01 0.52136814E+03</pdfrwt>
<pdfrwt beam="2">  1       -1 0.43014534E-01 0.52136814E+03</pdfrwt>
<totfact> 0.50495270E+02</totfact>
</mgrwt>
</event>
<event>
 5    0  0.6041737E-002  0.7045106E+03  0.7546771E-02  0.9709549E-01
         -2   -1    0    0    0  501 -0.00000000000E+00  0.00000000000E+00  0.49147721210E+02  0.49147721210E+02  0.00000000000E+00 0.  1.
          2   -1    0    0  503    0  0.00000000000E+00 -0.00000000000E+00 -0.25247110882E+04  0.25247110882E+04  0.00000000000E+00 0. -1.
         25    1    1    2    0    0 -0.31517933940E+03 -0.10942823549E+03 -0.10750513918E+04  0.11325515661E+04  0.12500000000E+03 0.  0.
         21    1    1    2  502  501  0.25240197410E+02 -0.44621035361E+01 -0.17290361572E+03  0.17479312991E+03  0.00000000000E+00 0. -1.
         21    1    1    2  503  502  0.28993914199E+03  0.11389033903E+03 -0.12276083594E+04  0.12665141134E+04  0.00000000000E+00 0. -1.
<mgrwt>
<rscale>  4 0.70451060E+03</rscale>
<asrwt>0</asrwt>
<pdfrwt beam="1">  1        2 0.38841715E+00 0.70451060E+03</pdfrwt>
<pdfrwt beam="2">  1       -2 0.75611867E-02 0.70451060E+03</pdfrwt>
<totfact> 0.37823790E+02</totfact>
</mgrwt>
</event>
<event>
 5    0  0.6041737E-002  0.3972485E+03  0.7546771E-02  0.1044737E+00
         -3   -1    0    0    0  501 -0.00000000000E+00  0.00000000000E+00  0.24003439519E+03  0.24003439519E+03  0.00000000000E+00 0.  1.
          3   -1    0    0  503    0  0.00000000000E+00 -0.00000000000E+00 -0.23508565367E+03  0.23508565367E+03  0.00000000000E+00 0. -1.
         25    1    1    2    0    0  0.17067084170E+03  0.11009030329E+03  0.14450160375E+02  0.23891885279E+03  0.12500000000E+03 0.  0.
         21    1    1    2  502  501 -0.11503662186E+03 -0.10696583692E+03  0.39527606785E+02  0.16198008006E+03  0.00000000000E+00 0. -1.
         21    1    1    2  503  502 -0.55634219841E+02 -0.31244663651E+01 -0.49029025640E+02  0.74221116016E+02  0.00000000000E+00 0. -1.
<mgrwt>
<rscale>  4 0.39724848E+03</rscale>
<asrwt>0</asrwt>
<pdfrwt beam="1">  1        3 0.36167023E-01 0.39724848E+03</pdfrwt>
<pdfrwt beam="2">  1       -3 0.36928369E-01 0.39724848E+03</pdfrwt>
<totfact> 0.14119974E+02</totfact>
</mgrwt>
</event>
<event>
 5    0  0.6041737E-002  0.5993545E+03  0.7546771E-02  0.9906746E-01
          1   -1    0    0  503    0  0.00000000000E+00  0.00000000000E+00  0.86748754857E+03  0.86748754857E+03  0.00000000000E+00 0.  1.
         -1   -1    0    0    0  501 -0.00000000000E+00 -0.00000000000E+00 -0.10352476254E+03  0.10352476254E+03  0.00000000000E+00 0. -1.
         25    1    1    2    0    0  0.14797999829E+03 -0.22196877129E+03  0.54314112376E+03  0.61789602333E+03  0.12500000000E+03 0.  0.
         21    1    1    2  502  501 -0.80316041932E+02  0.69231190754E+02  0.10914241939E+03  0.15216994472E+03  0.00000000000E+00 0. -1.
         21    1    1    2  503  502 -0.67663956357E+02  0.15273758054E+03  0.11167924287E+03  0.20094634305E+03  0.00000000000E+00 0. -1.
<mgrwt>
<rscale>  4 0.59935446E+03</rscale>
<asrwt>0</asrwt>
<pdfrwt beam="1">  1        1 0.13345962E+00 0.59935446E+03</pdfrwt>
<pdfrwt beam="2">  1       -1 0.15926887E-01 0.59935446E+03</pdfrwt>
<totfact> 0.58445963E+02</totfact>
</mgrwt>
</event>
<event>
 5    0  0.6041737E-002  0.4750794E+03  0.7546771E-02  0.1020496E+00
         -2   -1    0    0    0  501 -0.00000000000E+00  0.00000000000E+00  0.51319716513E+02  0.51319716513E+02  0.00000000000E+00 0.  1.
          2   -1    0    0  503    0  0.00000000000E+00 -0.00000000000E+00 -0.10994821135E+04  0.10994821135E+04  0.00000000000E+00 0. -1.
         25    1    1    2    0    0 -0.11082852817E+03 -0.18568000486E+03 -0.61037182346E+03  0.65949889290E+03  0.12500000000E+03 0.  0.
         21    1    1    2  502  501  0.33438310565E+02  0.10233968826E+03 -0.24216063861E+03  0.26501567369E+03  0.00000000000E+00 0.  1.
         21    1    1    2  503  502  0.77390217610E+02  0.83340316599E+02 -0.19562993488E+03  0.22628726339E+03  0.00000000000E+00 0.  1.
<mgrwt>
<rscale>  4 0.47507941E+03</rscale>
<asrwt>0</asrwt>
<pdfrwt beam="1">  1        2 0.16915108E+00 0.47507941E+03</pdfrwt>
<pdfrwt beam="2">  1       -2 0.78953416E-02 0.47507941E+03</pdfrwt>
<totfact> 0.22071886E+03</totfact>
</mgrwt>
</event>
<event>
 5    0  0.6041737E-002  0.9068507E+03  0.7546771E-02  0.9417058E-01
          1   -1    0    0  503    0  0.00000000000E+00  0.00000000000E+00  0.90627827626E+03  0.90627827626E+03  0.00000000000E+00 0. -1.
         -1   -1    0    0    0  501 -0.00000000000E+00 -0.00000000000E+00 -0.22685587260E+03  0.22685587260E+03  0.00000000000E+00 0.  1.
         25    1    1    2    0    0  0.34067517904E+02  0.39401437767E+03  0.12260090349E+03  0.43250885207E+03  0.12500000000E+03 0.  0.
         21    1    1    2  502  501  0.54623313432E+02 -0.21427923936E+03  0.24593187795E+03  0.33072917528E+03  0.00000000000E+00 0. -1.
         21    1    1    2  503  502 -0.88690831336E+02 -0.17973513830E+03  0.31088962222E+03  0.36989612151E+03  0.00000000000E+00 0. -1.
<mgrwt>
<rscale>  4 0.90685070E+03</rscale>
<asrwt>0</asrwt>
<pdfrwt beam="1">  1        1 0.13942743E+00 0.90685070E+03</pdfrwt>
<pdfrwt beam="2">  1       -1 0.34900904E-01 0.90685070E+03</pdfrwt>
<totfact> 0.14110086E+02</totfact>
</mgrwt>
</event>
<event>
 5    0  0.6041737E-002  0.5038227E+03  0.7546771E-02  0.1012786E+00
         -2   -1    0    0    0  501 -0.00000000000E+00  0.00000000000E+00  0.88958495629E+02  0.88958495629E+02  0.00000000000E+00 0. -1.
          2   -1    0    0  503    0  0.00000000000E+00 -0.00000000000E+00 -0.71335871173E+03  0.71335871173E+03  0.00000000000E+00 0.  1.
         25    1    1    2    0    0 -0.19346827684E+03 -0.11786281044E+03 -0.23472477845E+03  0.34934558513E+03  0.12500000000E+03 0.  0.
         21    1    1    2  502  501  0.12923042086E+03  0.10166598608E+03 -0.26764877495E+03  0.31412153879E+03  0.00000000000E+00 0. -1.
         21    1    1    2  503  502  0.64237855985E+02  0.16196824368E+02 -0.12202666270E+03  0.13885008344E+03  0.00000000000E+00 0. -1.
<mgrwt>
<rscale>  4 0.50382266E+03</rscale>
<asrwt>0</asrwt>
<pdfrwt beam="1">  1        2 0.10974749E+00 0.50382266E+03</pdfrwt>
<pdfrwt beam="2">  1       -2 0.13685923E-01 0.50382266E+03</pdfrwt>
<totfact> 0.16375980E+03</totfact>
</mgrwt>
</event>
<event>
 5    0  0.6041737E-002  0.5892474E+03  0.7546771E-02  0.9927969E-01
          1   -1    0    0  503    0  0.00000000000E+00  0.00000000000E+00  0.18638438753E+04  0.18638438753E+04  0.00000000000E+00 0.  1.
         -1   -1    0    0    0  501 -0.00000000000E+00 -0.00000000000E+00 -0.58285522430E+02  0.58285522430E+02  0.00000000000E+00 0. -1.
         25    1    1    2    0    0  0.23418090385E+03  0.12906320869E+03  0.47890722545E+03  0.56256123058E+03  0.12500000000E+03 0.  0.
         21    1    1    2  502  501 -0.17429009286E+03 -0.10101828670E+03  0.11989823255E+04  0.12157879534E+04  0.00000000000E+00 0.  1.
         21    1    1    2  503  502 -0.59890810981E+02 -0.28044921984E+02  0.12766880193E+03  0.14378021378E+03  0.00000000000E+00 0.  1.
<mgrwt>
<rscale>  4 0.58924738E+03</rscale>
<asrwt>0</asrwt>
<pdfrwt beam="1">  1        1 0.28674517E+00 0.58924738E+03</pdfrwt>
<pdfrwt beam="2">  1       -1 0.89670049E-02 0.58924738E+03</pdfrwt>
<totfact> 0.28722683E+02</totfact>
</mgrwt>
</event>
<event>
 5    0  0.6041737E-002  0.2304855E+04  0.7546771E-02  0.8476009E-01
         -2   -1    0    0    0  501 -0.00000000000E+00  0.00000000000E+00  0.84885558256E+03  0.84885558256E+03  0.00000000000E+00 0.  1.
          2   -1    0    0  503    0  0.00000000000E+00 -0.00000000000E+00 -0.15645647299E+04  0.15645647299E+04  0.00000000000E+00 0. -1.
         25    1    1    2    0    0 -0.46937443096E+03 -0.80931975702E+03  0.33264093844E+03  0.10007925956E+04  0.12500000000E+03 0.  0.
         21    1    1    2  502  501  0.31838281929E+02  0.50647888724E+02 -0.22831702763E+02  0.64032581390E+02  0.00000000000E+00 0.  1.
         21    1    1    2  503  502  0.43753614903E+03  0.75867186829E+03 -0.10255183831E+04  0.13485951355E+04  0.00000000000E+00 0. -1.
<mgrwt>
<rscale>  4 0.23048553E+04</rscale>
<asrwt>0</asrwt>
<pdfrwt beam="1">  1        2 0.24070227E+00 0.23048553E+04</pdfrwt>
<pdfrwt beam="2">  1       -2 0.13059317E+00 0.23048553E+04</pdfrwt>
<totfact> 0.45427629E+00</totfact>
</mgrwt>
</event>
<event>
 5    0  0.6041737E-002  0.5711561E+03  0.7546771E-02  0.9967124E-01
         -2   -1    0    0    0  501 -0.00000000000E+00  0.00000000000E+00  0.93853517425E+03  0.93853517425E+03  0.00000000000E+00 0. -1.
          2   -1    0    0  503    0  0.00000000000E+00 -0.00000000000E+00 -0.86895864598E+02  0.86895864598E+02  0.00000000000E+00 0.  1.
         25    1    1    2    0    0  0.17916683888E+03  0.90167806541E+02  0.11951485323E+03  0.26483917692E+03  0.12500000000E+03 0.  0.
         21    1    1    2  502  501 -0.54175549583E+02 -0.51519956110E+02  0.24008042732E+03  0.25145160097E+03  0.00000000000E+00 0. -1.
         21    1    1    2  503  502 -0.12499128930E+03 -0.38647850431E+02  0.49204402911E+03  0.50914026095E+03  0.00000000000E+00 0.  1.
<mgrwt>
<rscale>  4 0.57115611E+03</rscale>
<asrwt>0</asrwt>
<pdfrwt beam="1">  1        2 0.13368595E-01 0.57115611E+03</pdfrwt>
<pdfrwt beam="2">  1       -2 0.14439002E+00 0.57115611E+03</pdfrwt>
<totfact> 0.15552887E+02</totfact>
</mgrwt>
</event>
<event>
 5    0  0.6041737E-002  0.6007377E+03  0.7546771E-02  0.9903877E-01
          1   -1    0    0  503    0  0.00000000000E+00  0.00000000000E+00  0.18821725805E+04  0.18821725805E+04  0.00000000000E+00 0.  1.
         -1   -1    0    0    0  501 -0.00000000000E+00 -0.00000000000E+00 -0.47934739423E+02  0.47934739423E+02  0.00000000000E+00 0. -1.
         25    1    1    2    0    0 -0.15765358090E+03 -0.23025850389E+03  0.88494349697E+03  0.93628180747E+03  0.12500000000E+03 0.  0.
         21    1    1    2  502  501  0.13879618152E+03  0.17796442833E+03  0.61845155869E+03  0.65834493102E+03  0.00000000000E+00 0. -1.
         21    1    1    2  503  502  0.18857399375E+02  0.52294075564E+02  0.33084278540E+03  0.33548058141E+03  0.00000000000E+00 0. -1.
<mgrwt>
<rscale>  4 0.60073772E+03</rscale>
<asrwt>0</asrwt>
<pdfrwt beam="1">  1        1 0.28956496E+00 0.60073772E+03</pdfrwt>
<pdfrwt beam="2">  1       -1 0.73745767E-02 0.60073772E+03</pdfrwt>
<totfact> 0.37855043E+02</totfact>
</mgrwt>
</event>
<event>
 5    0  0.6041737E-002  0.4580948E+03  0.7546771E-02  0.1025335E+00
         -1   -1    0    0    0  501 -0.00000000000E+00  0.00000000000E+00  0.49467837221E+03  0.49467837221E+03  0.00000000000E+00 0.  1.
          1   -1    0    0  503    0  0.00000000000E+00 -0.00000000000E+00 -0.17687418989E+03  0.17687418989E+03  0.00000000000E+00 0. -1.
         25    1    1    2    0    0 -0.21766717687E+03 -0.24981369604E+02 -0.51225558121E+01  0.25229805646E+03  0.12500000000E+03 0.  0.
         21    1    1    2  502  501  0.17416348889E+03 -0.25434940967E+02  0.14100014508E+03  0.22552360852E+03  0.00000000000E+00 0.  1.
         21    1    1    2  503  502  0.43503687975E+02  0.50416310571E+02  0.18192659306E+03  0.19373089713E+03  0.00000000000E+00 0.  1.
<mgrwt>
<rscale>  4 0.45809478E+03</rscale>
<asrwt>0</asrwt>
<pdfrwt beam="1">  1        1 0.27211414E-01 0.45809478E+03</pdfrwt>
<pdfrwt beam="2">  1       -1 0.76104365E-01 0.45809478E+03</pdfrwt>
<totfact> 0.30909784E+02</totfact>
</mgrwt>
</event>
<event>
 5    0  0.6041737E-002  0.5709634E+03  0.7546771E-02  0.9967549E-01
         -1   -1    0    0    0  501 -0.00000000000E+00  0.00000000000E+00  0.11180940757E+03  0.11180940757E+03  0.00000000000E+00 0.  1.
          1   -1    0    0  503    0  0.00000000000E+00 -0.00000000000E+00 -0.72891722870E+03  0.72891722870E+03  0.00000000000E+00 0. -1.
         25    1    1    2    0    0 -0.21921460470E+03 -0.12491075728E+03 -0.45892534521E+03  0.53841917933E+03  0.12500000000E+03 0.  0.
         21    1    1    2  502  501  0.19735100488E+03  0.94047811474E+02 -0.14464795542E+03  0.26213630229E+03  0.00000000000E+00 0.  1.
         21    1    1    2  503  502  0.21863599814E+02  0.30862945810E+02 -0.13534520495E+02  0.40171154650E+02  0.00000000000E+00 0.  1.
<mgrwt>
<rscale>  4 0.57096341E+03</rscale>
<asrwt>0</asrwt>
<pdfrwt beam="1">  1        1 0.11214111E+00 0.57096341E+03</pdfrwt>
<pdfrwt beam="2">  1       -1 0.17201448E-01 0.57096341E+03</pdfrwt>
<totfact> 0.67941172E+02</totfact>
</mgrwt>
</event>
<event>
 5    0  0.6041737E-002  0.9022266E+03  0.7546771E-02  0.9422802E-01
          2   -1    0    0  503    0  0.00000000000E+00  0.00000000000E+00  0.19177619137E+04  0.19177619137E+04  0.00000000000E+00 0.  1.
         -2   -1    0    0    0  501 -0.00000000000E+00 -0.00000000000E+00 -0.10611494740E+03  0.10611494740E+03  0.00000000000E+00 0. -1.
         25    1    1    2    0    0  0.29513727127E+03  0.77659491972E+02  0.20684317646E+03  0.38928923082E+03  0.12500000000E+03 0.  0.
         21    1    1    2  502  501 -0.34585493216E+02  0.20468308368E+01  0.11627901592E+03  0.12133076857E+03  0.00000000000E+00 0. -1.
         21    1    1    2  503  502 -0.26055177806E+03 -0.79706322808E+02  0.14885247740E+04  0.15132568617E+04  0.00000000000E+00 0.  1.
<mgrwt>
<rscale>  4 0.90222659E+03</rscale>
<asrwt>0</asrwt>
<pdfrwt beam="1">  1        2 0.29504027E+00 0.90222659E+03</pdfrwt>
<pdfrwt beam="2">  1       -2 0.16325378E-01 0.90222659E+03</pdfrwt>
<totfact> 0.22742936E+02</totfact>
</mgrwt>
</event>
<event>
 5    0  0.6041737E-002  0.5858097E+03  0.7546771E-02  0.9935292E-01
          1   -1    0    0  503    0  0.00000000000E+00  0.00000000000E+00  0.28725342772E+03  0.28725342772E+03  0.00000000000E+00 0. -1.
         -1   -1    0    0    0  501 -0.00000000000E+00 -0.00000000000E+00 -0.39758130830E+03  0.39758130830E+03  0.00000000000E+00 0.  1.
         25    1    1    2    0    0 -0.22750626286E+03  0.20165387245E+03 -0.76794486828E+02  0.33755855362E+03  0.12500000000E+03 0.  0.
         21    1    1    2  502  501 -0.14808600701E+01 -0.89887031183E+02 -0.20074906060E+02  0.92113371313E+02  0.00000000000E+00 0. -1.
         21    1    1    2  503  502  0.22898712293E+03 -0.11176684127E+03 -0.13458487690E+02  0.25516281109E+03  0.00000000000E+00 0. -1.
<mgrwt>
<rscale>  4 0.58580971E+03</rscale>
<asrwt>0</asrwt>
<pdfrwt beam="1">  1        1 0.44192835E-01 0.58580971E+03</pdfrwt>
<pdfrwt beam="2">  1       -1 0.61166355E-01 0.58580971E+03</pdfrwt>
<totfact> 0.25616923E+02</totfact>
</mgrwt>
</event>
<event>
 5    0  0.6041737E-002  0.4777731E+03  0.7546771E-02  0.1019749E+00
          1   -1    0    0  503    0  0.00000000000E+00  0.00000000000E+00  0.17622505011E+04  0.17622505011E+04  0.00000000000E+00 0. -1.
         -1   -1    0    0    0  501 -0.00000000000E+00 -0.00000000000E+00 -0.32382894419E+02  0.32382894419E+02  0.00000000000E+00 0.  1.
         25    1    1    2    0    0  0.15535737388E+03 -0.14932926988E+03  0.78983388628E+03  0.82818941817E+03  0.12500000000E+03 0.  0.
         21    1    1    2  502  501  0.40128509256E+00  0.21621705067E+02  0.64070028468E+02  0.67621207529E+02  0.00000000000E+00 0.  1.
         21    1    1    2  503  502 -0.15575865897E+03  0.12770756481E+03  0.87596369195E+03  0.89882276983E+03  0.00000000000E+00 0. -1.
<mgrwt>
<rscale>  4 0.47777305E+03</rscale>
<asrwt>0</asrwt>
<pdfrwt beam="1">  1        1 0.27111539E+00 0.47777305E+03</pdfrwt>
<pdfrwt beam="2">  1       -1 0.49819851E-02 0.47777305E+03</pdfrwt>
<totfact> 0.83849209E+02</totfact>
</mgrwt>
</event>
<event>
 5    0  0.6041737E-002  0.4989709E+03  0.7546771E-02  0.1014048E+00
          2   -1    0    0  503    0  0.00000000000E+00  0.00000000000E+00  0.33220678831E+04  0.33220678831E+04  0.00000000000E+00 0.  1.
         -2   -1    0    0    0  501 -0.00000000000E+00 -0.00000000000E+00 -0.18736215032E+02  0.18736215032E+02  0.00000000000E+00 0. -1.
         25    1    1    2    0    0  0.15406504994E+03  0.17140345559E+03  0.18879778489E+04  0.19060956277E+04  0.12500000000E+03 0.  0.
         21    1    1    2  502  501 -0.14158943699E+03 -0.15062257570E+03  0.11663911472E+04  0.11845687136E+04  0.00000000000E+00 0. -1.
         21    1    1    2  503  502 -0.12475612952E+02 -0.20780879889E+02  0.24896267199E+03  0.25013975680E+03  0.00000000000E+00 0. -1.
<mgrwt>
<rscale>  4 0.49897085E+03</rscale>
<asrwt>0</asrwt>
<pdfrwt beam="1">  1        2 0.51108690E+00 0.49897085E+03</pdfrwt>
<pdfrwt beam="2">  1       -2 0.28824973E-02 0.49897085E+03</pdfrwt>
<totfact> 0.57044369E+02</totfact>
</mgrwt>
</event>
<event>
 5    0  0.6041737E-002  0.8130580E+03  0.7546771E-02  0.9541306E-01
          3   -1    0    0  503    0  0.00000000000E+00  0.00000000000E+00  0.29486287642E+04  0.29486287642E+04  0.00000000000E+00 0. -1.
         -3   -1    0    0    0  501 -0.00000000000E+00 -0.00000000000E+00 -0.56048368911E+02  0.56048368911E+02  0.00000000000E+00 0.  1.
         25    1    1    2    0    0  0.29504384769E+03 -0.16108938945E+03  0.22463825862E+04  0.22748319470E+04  0.12500000000E+03 0.  0.
         21    1    1    2  502  501 -0.27369804595E+03  0.15723422073E+03  0.62085551607E+03  0.69648746749E+03  0.00000000000E+00 0.  1.
         21    1    1    2  503  502 -0.21345801741E+02  0.38551687165E+01  0.25342293027E+02  0.33357718652E+02  0.00000000000E+00 0. -1.
<mgrwt>
<rscale>  4 0.81305801E+03</rscale>
<asrwt>0</asrwt>
<pdfrwt beam="1">  1        3 0.45363507E+00 0.81305801E+03</pdfrwt>
<pdfrwt beam="2">  1       -3 0.86228283E-02 0.81305801E+03</pdfrwt>
<totfact> 0.15942269E+00</totfact>
</mgrwt>
</event>
<event>
 5    0  0.6041737E-002  0.4934930E+03  0.7546771E-02  0.1015491E+00
          2   -1    0    0  503    0  0.00000000000E+00  0.00000000000E+00  0.54886842399E+03  0.54886842399E+03  0.00000000000E+00 0. -1.
         -2   -1    0    0    0  501 -0.00000000000E+00 -0.00000000000E+00 -0.11092611598E+03  0.11092611598E+03  0.00000000000E+00 0.  1.
         25    1    1    2    0    0  0.20910335186E+03 -0.77147403675E+02  0.26249065655E+03  0.36633629145E+03  0.12500000000E+03 0.  0.
         21    1    1    2  502  501 -0.14093533299E+03  0.80021704418E+02  0.14940465650E+03  0.22042684194E+03  0.00000000000E+00 0.  1.
         21    1    1    2  503  502 -0.68168018870E+02 -0.28743007428E+01  0.26046994956E+02  0.73031406584E+02  0.00000000000E+00 0.  1.
<mgrwt>
<rscale>  4 0.49349303E+03</rscale>
<asrwt>0</asrwt>
<pdfrwt beam="1">  1        2 0.84441294E-01 0.49349303E+03</pdfrwt>
<pdfrwt beam="2">  1       -2 0.17065557E-01 0.49349303E+03</pdfrwt>
<totfact> 0.15499315E+03</totfact>
</mgrwt>
</event>
<event>
 5    0  0.6041737E-002  0.5663949E+03  0.7546771E-02  0.9977688E-01
         -1   -1    0    0    0  501 -0.00000000000E+00  0.00000000000E+00  0.29988031619E+03  0.29988031619E+03  0.00000000000E+00 0. -1.
          1   -1    0    0  503    0  0.00000000000E+00 -0.00000000000E+00 -0.26744270262E+03  0.26744270262E+03  0.00000000000E+00 0.  1.
         25    1    1    2    0    0 -0.24111195590E+03  0.13234293098E+02  0.12749422885E+03  0.30031633353E+03  0.12500000000E+03 0.  0.
         21    1    1    2  502  501  0.12348031897E+03 -0.36421136641E+02 -0.60392790312E+02  0.14220118666E+03  0.00000000000E+00 0.  1.
         21    1    1    2  503  502  0.11763163694E+03  0.23186843543E+02 -0.34663824974E+02  0.12480549861E+03  0.00000000000E+00 0.  1.
<mgrwt>
<rscale>  4 0.56639492E+03</rscale>
<asrwt>0</asrwt>
<pdfrwt beam="1">  1        1 0.41145031E-01 0.56639492E+03</pdfrwt>
<pdfrwt beam="2">  1       -1 0.46135433E-01 0.56639492E+03</pdfrwt>
<totfact> 0.48155076E+02</totfact>
</mgrwt>
</event>
<event>
 5    0  0.6041737E-002  0.5616280E+03  0.7546771E-02  0.9988378E-01
          2   -1    0    0  503    0  0.00000000000E+00  0.00000000000E+00  0.52275563622E+03  0.52275563622E+03  0.00000000000E+00 0.  1.
         -2   -1    0    0    0  501 -0.00000000000E+00 -0.00000000000E+00 -0.15084774925E+03  0.15084774925E+03  0.00000000000E+00 0. -1.
         25    1    1    2    0    0  0.19881715272E+03 -0.10238369963E+03  0.28698955151E+02  0.25779703682E+03  0.12500000000E+03 0.  0.
         21    1    1    2  502  501 -0.17454956002E+03  0.11313220502E+03  0.30948771448E+03  0.37289286682E+03  0.00000000000E+00 0.  1.
         21    1    1    2  503  502 -0.24267592695E+02 -0.10748505389E+02  0.33721217349E+02  0.42913481830E+02  0.00000000000E+00 0.  1.
<mgrwt>
<rscale>  4 0.56162803E+03</rscale>
<asrwt>0</asrwt>
<pdfrwt beam="1">  1        2 0.80423943E-01 0.56162803E+03</pdfrwt>
<pdfrwt beam="2">  1       -2 0.23207346E-01 0.56162803E+03</pdfrwt>
<totfact> 0.96130591E+02</totfact>
</mgrwt>
</event>
<event>
 5    0  0.6041737E-002  0.5420143E+03  0.7546771E-02  0.1003359E+00
         -2   -1    0    0    0  501 -0.00000000000E+00  0.00000000000E+00  0.50771971625E+02  0.50771971625E+02  0.00000000000E+00 0. -1.
          2   -1    0    0  503    0  0.00000000000E+00 -0.00000000000E+00 -0.18938056415E+04  0.18938056415E+04  0.00000000000E+00 0.  1.
         25    1    1    2    0    0  0.25926465414E+03  0.86292677737E+02 -0.11474384749E+04  0.11861301113E+04  0.12500000000E+03 0.  0.
         21    1    1    2  502  501 -0.33723671743E+02 -0.15168341843E+02 -0.18715521085E+02  0.41444364630E+02  0.00000000000E+00 0.  1.
         21    1    1    2  503  502 -0.22554098240E+03 -0.71124335895E+02 -0.67687967381E+03  0.71700313718E+03  0.00000000000E+00 0.  1.
<mgrwt>
<rscale>  4 0.54201426E+03</rscale>
<asrwt>0</asrwt>
<pdfrwt beam="1">  1        2 0.29135467E+00 0.54201426E+03</pdfrwt>
<pdfrwt beam="2">  1       -2 0.78110737E-02 0.54201426E+03</pdfrwt>
<totfact> 0.80929554E+02</totfact>
</mgrwt>
</event>
<event>
 5    0  0.6041737E-002  0.4715355E+03  0.7546771E-02  0.1021488E+00
          1   -1    0    0  503    0  0.00000000000E+00  0.00000000000E+00  0.36565328159E+03  0.36565328159E+03  0.00000000000E+00 0. -1.
         -1   -1    0    0    0  501 -0.00000000000E+00 -0.00000000000E+00 -0.15201948584E+03  0.15201948584E+03  0.00000000000E+00 0.  1.
         25    1    1    2    0    0 -0.13232220110E+03  0.16917714280E+03  0.12038233369E+03  0.27612855125E+03  0.12500000000E+03 0.  0.
         21    1    1    2  502  501  0.18544392643E+02 -0.19500530030E+02 -0.79043840412E+01  0.28047182693E+02  0.00000000000E+00 0. -1.
         21    1    1    2  503  502  0.11377780846E+03 -0.14967661277E+03  0.10115584611E+03  0.21349703349E+03  0.00000000000E+00 0.  1.
<mgrwt>
<rscale>  4 0.47153547E+03</rscale>
<asrwt>0</asrwt>
<pdfrwt beam="1">  1        1 0.56254351E-01 0.47153547E+03</pdfrwt>
<pdfrwt beam="2">  1       -1 0.23387613E-01 0.47153547E+03</pdfrwt>
<totfact> 0.10626502E+03</totfact>
</mgrwt>
</event>
<event>
 5    0  0.6041737E-002  0.4845885E+03  0.7546771E-02  0.1017882E+00
         -2   -1    0    0    0  501 -0.00000000000E+00  0.00000000000E+00  0.20465791799E+03  0.20465791799E+03  0.00000000000E+00 0. -1.
          2   -1    0    0  503    0  0.00000000000E+00 -0.00000000000E+00 -0.28685181321E+03  0.28685181321E+03  0.00000000000E+00 0.  1.
         25    1    1    2    0    0 -0.19972984963E+03 -0.59660340764E+02  0.19765778933E+02  0.24385867857E+03  0.12500000000E+03 0.  0.
         21    1    1    2  502  501  0.33574313178E+02  0.48124483802E+02 -0.19764710697E+02  0.61918044506E+02  0.00000000000E+00 0.  1.
         21    1    1    2  503  502  0.16615553646E+03  0.11535856962E+02 -0.82194963456E+02  0.18573300813E+03  0.00000000000E+00 0. -1.
<mgrwt>
<rscale>  4 0.48458846E+03</rscale>
<asrwt>0</asrwt>
<pdfrwt beam="1">  1        2 0.44131048E-01 0.48458846E+03</pdfrwt>
<pdfrwt beam="2">  1       -2 0.31485834E-01 0.48458846E+03</pdfrwt>
<totfact> 0.10810954E+03</totfact>
</mgrwt>
</event>
<event>
 5    0  0.6041737E-002  0.4335338E+03  0.7546771E-02  0.1032749E+00
         -1   -1    0    0    0  501 -0.00000000000E+00  0.00000000000E+00  0.19770950457E+03  0.19770950457E+03  0.00000000000E+00 0. -1.
          1   -1    0    0  503    0  0.00000000000E+00 -0.00000000000E+00 -0.29481213064E+03  0.29481213064E+03  0.00000000000E+00 0.  1.
         25    1    1    2    0    0 -0.18561398447E+03  0.80417802091E+02  0.24968063396E+02  0.23909826080E+03  0.12500000000E+03 0.  0.
         21    1    1    2  502  501  0.14460111117E+03 -0.65508368162E+02 -0.13448251356E+03  0.20805377695E+03  0.00000000000E+00 0.  1.
         21    1    1    2  503  502  0.41012873303E+02 -0.14909433929E+02  0.12411824097E+02  0.45369597465E+02  0.00000000000E+00 0.  1.
<mgrwt>
<rscale>  4 0.43353377E+03</rscale>
<asrwt>0</asrwt>
<pdfrwt beam="1">  1        1 0.45355712E-01 0.43353377E+03</pdfrwt>
<pdfrwt beam="2">  1       -1 0.30416847E-01 0.43353377E+03</pdfrwt>
<totfact> 0.89657700E+02</totfact>
</mgrwt>
</event>
<event>
 5    0  0.6041737E-002  0.1031958E+04  0.7546771E-02  0.9274172E-01
          2   -1    0    0  503    0  0.00000000000E+00  0.00000000000E+00  0.63804910467E+03  0.63804910467E+03  0.00000000000E+00 0.  1.
         -2   -1    0    0    0  501 -0.00000000000E+00 -0.00000000000E+00 -0.41726286411E+03  0.41726286411E+03  0.00000000000E+00 0. -1.
         25    1    1    2    0    0 -0.44631421914E+03  0.99592256817E+02  0.32968555647E+03  0.57743620078E+03  0.12500000000E+03 0.  0.
         21    1    1    2  502  501  0.22147523485E+02  0.48451917275E+01 -0.23723548505E+02  0.32814561296E+02  0.00000000000E+00 0. -1.
         21    1    1    2  503  502  0.42416669565E+03 -0.10443744854E+03 -0.85175767414E+02  0.44506120671E+03  0.00000000000E+00 0. -1.
<mgrwt>
<rscale>  4 0.10319577E+04</rscale>
<asrwt>0</asrwt>
<pdfrwt beam="1">  1        2 0.98161400E-01 0.10319577E+04</pdfrwt>
<pdfrwt beam="2">  1       -2 0.64194287E-01 0.10319577E+04</pdfrwt>
<totfact> 0.10289233E+02</totfact>
</mgrwt>
</event>
<event>
 5    0  0.6041737E-002  0.4557612E+03  0.7546771E-02  0.1026018E+00
          2   -1    0    0  503    0  0.00000000000E+00  0.00000000000E+00  0.61779124708E+03  0.61779124708E+03  0.00000000000E+00 0.  1.
         -2   -1    0    0    0  501 -0.00000000000E+00 -0.00000000000E+00 -0.84056808050E+02  0.84056808050E+02  0.00000000000E+00 0. -1.
         25    1    1    2    0    0 -0.15056337861E+03  0.13286875467E+03  0.37655276406E+03  0.44468013342E+03  0.12500000000E+03 0.  0.
         21    1    1    2  502  501  0.10342780035E+02 -0.22813153685E+02  0.15389332644E+02  0.29398038015E+02  0.00000000000E+00 0. -1.
         21    1    1    2  503  502  0.14022059857E+03 -0.11005560098E+03  0.14179234233E+03  0.22776988369E+03  0.00000000000E+00 0.  1.
<mgrwt>
<rscale>  4 0.45576117E+03</rscale>
<asrwt>0</asrwt>
<pdfrwt beam="1">  1        2 0.95044804E-01 0.45576117E+03</pdfrwt>
<pdfrwt beam="2">  1       -2 0.12931817E-01 0.45576117E+03</pdfrwt>
<totfact> 0.21440672E+03</totfact>
</mgrwt>
</event>
<event>
 5    0  0.6041737E-002  0.5084351E+03  0.7546771E-02  0.1011600E+00
         -1   -1    0    0    0  501 -0.00000000000E+00  0.00000000000E+00  0.97973561007E+02  0.97973561007E+02  0.00000000000E+00 0.  1.
          1   -1    0    0  503    0  0.00000000000E+00 -0.00000000000E+00 -0.65963265184E+03  0.65963265184E+03  0.00000000000E+00 0. -1.
         25    1    1    2    0    0  0.21181988354E+03  0.11364409077E+02 -0.13628681403E+03  0.28141767630E+03  0.12500000000E+03 0.  0.
         21    1    1    2  502  501 -0.23459431246E+02 -0.98521189788E+01 -0.43795882456E+02  0.50650651357E+02  0.00000000000E+00 0. -1.
         21    1    1    2  503  502 -0.18836045229E+03 -0.15122900980E+01 -0.38157639434E+03  0.42553788519E+03  0.00000000000E+00 0. -1.
<mgrwt>
<rscale>  4 0.50843509E+03</rscale>
<asrwt>0</asrwt>
<pdfrwt beam="1">  1        1 0.10148195E+00 0.50843509E+03</pdfrwt>
<pdfrwt beam="2">  1       -1 0.15072856E-01 0.50843509E+03</pdfrwt>
<totfact> 0.97898816E+02</totfact>
</mgrwt>
</event>
<event>
 5    0  0.6041737E-002  0.7418779E+03  0.7546771E-02  0.9648179E-01
          2   -1    0    0  503    0  0.00000000000E+00  0.00000000000E+00  0.14451781337E+04  0.14451781337E+04  0.00000000000E+00 0. -1.
         -2   -1    0    0    0  501 -0.00000000000E+00 -0.00000000000E+00 -0.15519241903E+03  0.15519241903E+03  0.00000000000E+00 0.  1.
         25    1    1    2    0    0 -0.33299449383E+03  0.24618460235E+03  0.50171782735E+03  0.66244846565E+03  0.12500000000E+03 0.  0.
         21    1    1    2  502  501  0.23652574494E+03 -0.19396044841E+03  0.26946161621E+03  0.40764524550E+03  0.00000000000E+00 0. -1.
         21    1    1    2  503  502  0.96468748891E+02 -0.52224153941E+02  0.51880627108E+03  0.53027684155E+03  0.00000000000E+00 0. -1.
<mgrwt>
<rscale>  4 0.74187790E+03</rscale>
<asrwt>0</asrwt>
<pdfrwt beam="1">  1        2 0.22233509E+00 0.74187790E+03</pdfrwt>
<pdfrwt beam="2">  1       -2 0.23875758E-01 0.74187790E+03</pdfrwt>
<totfact> 0.21542692E+02</totfact>
</mgrwt>
</event>
<event>
 5    0  0.6041737E-002  0.5206652E+03  0.7546771E-02  0.1008521E+00
         -2   -1    0    0    0  501 -0.00000000000E+00  0.00000000000E+00  0.27761972534E+03  0.27761972534E+03  0.00000000000E+00 0. -1.
          2   -1    0    0  503    0  0.00000000000E+00 -0.00000000000E+00 -0.28813246235E+03  0.28813246235E+03  0.00000000000E+00 0.  1.
         25    1    1    2    0    0 -0.20166595024E+03 -0.70994410427E+02 -0.14633265894E+03  0.28765884111E+03  0.12500000000E+03 0.  0.
         21    1    1    2  502  501  0.20548099325E+03  0.39508793623E+02  0.10600777723E+03  0.23456562450E+03  0.00000000000E+00 0. -1.
         21    1    1    2  503  502 -0.38150430119E+01  0.31485616804E+02  0.29812144692E+02  0.43527722084E+02  0.00000000000E+00 0. -1.
<mgrwt>
<rscale>  4 0.52066524E+03</rscale>
<asrwt>0</asrwt>
<pdfrwt beam="1">  1        2 0.44328071E-01 0.52066524E+03</pdfrwt>
<pdfrwt beam="2">  1       -2 0.42710727E-01 0.52066524E+03</pdfrwt>
<totfact> 0.60125309E+02</totfact>
</mgrwt>
</event>
<event>
 5    0  0.6041737E-002  0.4958865E+03  0.7546771E-02  0.1014858E+00
         -1   -1    0    0    0  501 -0.00000000000E+00  0.00000000000E+00  0.71615795118E+03  0.71615795118E+03  0.00000000000E+00 0. -1.
          1   -1    0    0  503    0  0.00000000000E+00 -0.00000000000E+00 -0.15584978483E+03  0.15584978483E+03  0.00000000000E+00 0.  1.
         25    1    1    2    0    0  0.15377544147E+02  0.27993748615E+03  0.24886731499E+03  0.39517262745E+03  0.12500000000E+03 0.  0.
         21    1    1    2  502  501  0.14999625649E+02 -0.11150906406E+03  0.28141718008E+03  0.30307571559E+03  0.00000000000E+00 0. -1.
         21    1    1    2  503  502 -0.30377169796E+02 -0.16842842209E+03  0.30023671281E+02  0.17375939298E+03  0.00000000000E+00 0. -1.
<mgrwt>
<rscale>  4 0.49588654E+03</rscale>
<asrwt>0</asrwt>
<pdfrwt beam="1">  1        1 0.23976890E-01 0.49588654E+03</pdfrwt>
<pdfrwt beam="2">  1       -1 0.11017814E+00 0.49588654E+03</pdfrwt>
<totfact> 0.16114960E+02</totfact>
</mgrwt>
</event>
<event>
 5    0  0.6041737E-002  0.5571429E+03  0.7546771E-02  0.9998540E-01
          2   -1    0    0  503    0  0.00000000000E+00  0.00000000000E+00  0.17271387204E+04  0.17271387204E+04  0.00000000000E+00 0. -1.
         -2   -1    0    0    0  501 -0.00000000000E+00 -0.00000000000E+00 -0.44930992256E+02  0.44930992256E+02  0.00000000000E+00 0.  1.
         25    1    1    2    0    0  0.12037515771E+02 -0.24495324225E+03  0.11648747011E+04  0.11969565831E+04  0.12500000000E+03 0.  0.
         21    1    1    2  502  501 -0.35998308126E+01  0.16378617796E+03  0.39945825319E+03  0.43174734153E+03  0.00000000000E+00 0.  1.
         21    1    1    2  503  502 -0.84376849585E+01  0.81167064295E+02  0.11787477386E+03  0.14336578799E+03  0.00000000000E+00 0.  1.
<mgrwt>
<rscale>  4 0.55714291E+03</rscale>
<asrwt>0</asrwt>
<pdfrwt beam="1">  1        2 0.26571360E+00 0.55714291E+03</pdfrwt>
<pdfrwt beam="2">  1       -2 0.69124617E-02 0.55714291E+03</pdfrwt>
<totfact> 0.12069260E+03</totfact>
</mgrwt>
</event>
<event>
 5    0  0.6041737E-002  0.7227688E+03  0.7546771E-02  0.9679068E-01
         -1   -1    0    0    0  501 -0.00000000000E+00  0.00000000000E+00  0.24771900260E+03  0.24771900260E+03  0.00000000000E+00 0. -1.
          1   -1    0    0  503    0  0.00000000000E+00 -0.00000000000E+00 -0.52720501387E+03  0.52720501387E+03  0.00000000000E+00 0.  1.
         25    1    1    2    0    0 -0.28070484708E+03  0.97090042719E+02 -0.33120270176E+03  0.46210595886E+03  0.12500000000E+03 0.  0.
         21    1    1    2  502  501  0.68725026337E+02 -0.33402514072E+02  0.50283867688E+02  0.91473080964E+02  0.00000000000E+00 0. -1.
         21    1    1    2  503  502  0.21197982074E+03 -0.63687528647E+02  0.14328227987E+01  0.22134497665E+03  0.00000000000E+00 0. -1.
<mgrwt>
<rscale>  4 0.72276884E+03</rscale>
<asrwt>0</asrwt>
<pdfrwt beam="1">  1        1 0.81108464E-01 0.72276884E+03</pdfrwt>
<pdfrwt beam="2">  1       -1 0.38110616E-01 0.72276884E+03</pdfrwt>
<totfact> 0.27726705E+02</totfact>
</mgrwt>
</event>
<event>
 5    0  0.6041737E-002  0.5055361E+03  0.7546771E-02  0.1012344E+00
          2   -1    0    0  503    0  0.00000000000E+00  0.00000000000E+00  0.89502278041E+03  0.89502278041E+03  0.00000000000E+00 0. -1.
         -2   -1    0    0    0  501 -0.00000000000E+00 -0.00000000000E+00 -0.71385554225E+02  0.71385554225E+02  0.00000000000E+00 0.  1.
         25    1    1    2    0    0 -0.58024520234E+02 -0.21718844912E+03  0.38108216788E+03  0.45976764355E+03  0.12500000000E+03 0.  0.
         21    1    1    2  502  501 -0.15536385815E+02  0.99137898144E+02  0.12754244310E+03  0.16228609591E+03  0.00000000000E+00 0.  1.
         21    1    1    2  503  502  0.73560906049E+02  0.11805055097E+03  0.31501261520E+03  0.34435459518E+03  0.00000000000E+00 0.  1.
<mgrwt>
<rscale>  4 0.50553614E+03</rscale>
<asrwt>0</asrwt>
<pdfrwt beam="1">  1        2 0.13769580E+00 0.50553614E+03</pdfrwt>
<pdfrwt beam="2">  1       -2 0.10982394E-01 0.50553614E+03</pdfrwt>
<totfact> 0.17479033E+03</totfact>
</mgrwt>
</event>
<event>
 5    0  0.6041737E-002  0.5933015E+03  0.7546771E-02  0.9919402E-01
          2   -1    0    0  503    0  0.00000000000E+00  0.00000000000E+00  0.41682992969E+03  0.41682992969E+03  0.00000000000E+00 0.  1.
         -2   -1    0    0    0  501 -0.00000000000E+00 -0.00000000000E+00 -0.23821666241E+03  0.23821666241E+03  0.00000000000E+00 0. -1.
         25    1    1    2    0    0 -0.19614997468E+03 -0.12181827389E+03  0.26121774973E+03  0.37037037840E+03  0.12500000000E+03 0.  0.
         21    1    1    2  502  501  0.22810442843E+02  0.92129888761E+01  0.38068848830E+02  0.45325850438E+02  0.00000000000E+00 0.  1.
         21    1    1    2  503  502  0.17333953184E+03  0.11260528502E+03 -0.12067333129E+03  0.23935036326E+03  0.00000000000E+00 0. -1.
<mgrwt>
<rscale>  4 0.59330148E+03</rscale>
<asrwt>0</asrwt>
<pdfrwt beam="1">  1        2 0.64127681E-01 0.59330148E+03</pdfrwt>
<pdfrwt beam="2">  1       -2 0.36648717E-01 0.59330148E+03</pdfrwt>
<totfact> 0.53643183E+02</totfact>
</mgrwt>
</event>
<event>
 5    0  0.6041737E-002  0.8774263E+03  0.7546771E-02  0.9454248E-01
         -2   -1    0    0    0  501 -0.00000000000E+00  0.00000000000E+00  0.41526127308E+03  0.41526127308E+03  0.00000000000E+00 0. -1.
          2   -1    0    0  503    0  0.00000000000E+00 -0.00000000000E+00 -0.46348952289E+03  0.46348952289E+03  0.00000000000E+00 0.  1.
         25    1    1    2    0    0  0.22305164284E+03  0.26348088903E+03 -0.27627943902E+03  0.45948834880E+03  0.12500000000E+03 0.  0.
         21    1    1    2  502  501 -0.46197420501E+02 -0.26785817576E+02  0.16586073171E+02  0.55917613570E+02  0.00000000000E+00 0.  1.
         21    1    1    2  503  502 -0.17685422234E+03 -0.23669507145E+03  0.21146511603E+03  0.36334483361E+03  0.00000000000E+00 0. -1.
<mgrwt>
<rscale>  4 0.87742635E+03</rscale>
<asrwt>0</asrwt>
<pdfrwt beam="1">  1        2 0.71306080E-01 0.87742635E+03</pdfrwt>
<pdfrwt beam="2">  1       -2 0.63886350E-01 0.87742635E+03</pdfrwt>
<totfact> 0.15307767E+02</totfact>
</mgrwt>
</event>
<event>
 5    0  0.6041737E-002  0.4655538E+03  0.7546771E-02  0.1023183E+00
         -2   -1    0    0    0  501 -0.00000000000E+00  0.00000000000E+00  0.25792514484E+02  0.25792514484E+02  0.00000000000E+00 0. -1.
          2   -1    0    0  503    0  0.00000000000E+00 -0.00000000000E+00 -0.21008066188E+04  0.21008066188E+04  0.00000000000E+00 0.  1.
         25    1    1    2    0    0  0.17668234668E+03 -0.95213487231E+02 -0.13107884478E+04  0.13319435478E+04  0.12500000000E+03 0.  0.
         21    1    1    2  502  501 -0.89750591817E+02  0.17740017399E+02 -0.22284584952E+03  0.24089447813E+03  0.00000000000E+00 0. -1.
         21    1    1    2  503  502 -0.86931754861E+02  0.77473469832E+02 -0.54137980704E+03  0.55376110734E+03  0.00000000000E+00 0. -1.
<mgrwt>
<rscale>  4 0.46555380E+03</rscale>
<asrwt>0</asrwt>
<pdfrwt beam="1">  1        2 0.32320090E+00 0.46555380E+03</pdfrwt>
<pdfrwt beam="2">  1       -2 0.39680806E-02 0.46555380E+03</pdfrwt>
<totfact> 0.18043918E+03</totfact>
</mgrwt>
</event>
<event>
 5    0  0.6041737E-002  0.4892690E+03  0.7546771E-02  0.1016618E+00
          3   -1    0    0  503    0  0.00000000000E+00  0.00000000000E+00  0.24802158008E+03  0.24802158008E+03  0.00000000000E+00 0. -1.
         -3   -1    0    0    0  501 -0.00000000000E+00 -0.00000000000E+00 -0.24129371078E+03  0.24129371078E+03  0.00000000000E+00 0.  1.
         25    1    1    2    0    0 -0.21168348022E+03 -0.76084395316E+02 -0.11575742367E+02  0.25759993948E+03  0.12500000000E+03 0.  0.
         21    1    1    2  502  501  0.17252762239E+03  0.82613026589E+02  0.15883473976E+02  0.19194524583E+03  0.00000000000E+00 0.  1.
         21    1    1    2  503  502  0.39155857831E+02 -0.65286312734E+01  0.24201376927E+01  0.39770105547E+02  0.00000000000E+00 0.  1.
<mgrwt>
<rscale>  4 0.48926904E+03</rscale>
<asrwt>0</asrwt>
<pdfrwt beam="1">  1        3 0.38157166E-01 0.48926904E+03</pdfrwt>
<pdfrwt beam="2">  1       -3 0.37122109E-01 0.48926904E+03</pdfrwt>
<totfact> 0.12765558E+02</totfact>
</mgrwt>
</event>
<event>
 5    0  0.6041737E-002  0.6185591E+03  0.7546771E-02  0.9867633E-01
          2   -1    0    0  503    0  0.00000000000E+00  0.00000000000E+00  0.15325619282E+04  0.15325619282E+04  0.00000000000E+00 0. -1.
         -2   -1    0    0    0  501 -0.00000000000E+00 -0.00000000000E+00 -0.62414333568E+02  0.62414333568E+02  0.00000000000E+00 0.  1.
         25    1    1    2    0    0  0.20155485928E+03 -0.17550442562E+03  0.10657225244E+04  0.11058099582E+04  0.12500000000E+03 0.  0.
         21    1    1    2  502  501 -0.29064568865E+02  0.36241767200E+02  0.34374148571E+02  0.57790976312E+02  0.00000000000E+00 0. -1.
         21    1    1    2  503  502 -0.17249029041E+03  0.13926265842E+03  0.37005092167E+03  0.43137532723E+03  0.00000000000E+00 0.  1.
<mgrwt>
<rscale>  4 0.61855907E+03</rscale>
<asrwt>0</asrwt>
<pdfrwt beam="1">  1        2 0.23577873E+00 0.61855907E+03</pdfrwt>
<pdfrwt beam="2">  1       -2 0.96022063E-02 0.61855907E+03</pdfrwt>
<totfact> 0.90911558E+02</totfact>
</mgrwt>
</event>
<event>
 5    0  0.6041737E-002  0.4936010E+03  0.7546771E-02  0.1015463E+00
          2   -1    0    0  503    0  0.00000000000E+00  0.00000000000E+00  0.25605356287E+03  0.25605356287E+03  0.00000000000E+00 0.  1.
         -2   -1    0    0    0  501 -0.00000000000E+00 -0.00000000000E+00 -0.23788178838E+03  0.23788178838E+03  0.00000000000E+00 0. -1.
         25    1    1    2    0    0 -0.17998089765E+03  0.11346054596E+03 -0.72126744019E+02  0.25708692346E+03  0.12500000000E+03 0.  0.
         21    1    1    2  502  501  0.45669789078E+02 -0.45710894309E+02  0.48275259865E+02  0.80658020110E+02  0.00000000000E+00 0.  1.
         21    1    1    2  503  502  0.13431110858E+03 -0.67749651655E+02  0.42023258646E+02  0.15619040769E+03  0.00000000000E+00 0.  1.
<mgrwt>
<rscale>  4 0.49360097E+03</rscale>
<asrwt>0</asrwt>
<pdfrwt beam="1">  1        2 0.39392856E-01 0.49360097E+03</pdfrwt>
<pdfrwt beam="2">  1       -2 0.36597198E-01 0.49360097E+03</pdfrwt>
<totfact> 0.92322930E+02</totfact>
</mgrwt>
</event>
<event>
 5    0  0.6041737E-002  0.9127525E+03  0.7546771E-02  0.9409779E-01
         -2   -1    0    0    0  501 -0.00000000000E+00  0.00000000000E+00  0.51155681536E+03  0.51155681536E+03  0.00000000000E+00 0.  1.
          2   -1    0    0  503    0  0.00000000000E+00 -0.00000000000E+00 -0.40714786477E+03  0.40714786477E+03  0.00000000000E+00 0. -1.
         25    1    1    2    0    0 -0.17058409617E+03 -0.32243552292E+03  0.29720401618E+03  0.48684579442E+03  0.12500000000E+03 0.  0.
         21    1    1    2  502  501  0.53835476492E+01  0.11396073486E+03 -0.94981055630E+02  0.14845010139E+03  0.00000000000E+00 0. -1.
         21    1    1    2  503  502  0.16520054852E+03  0.20847478806E+03 -0.97814009958E+02  0.28340878432E+03  0.00000000000E+00 0. -1.
<mgrwt>
<rscale>  4 0.91275246E+03</rscale>
<asrwt>0</asrwt>
<pdfrwt beam="1">  1        2 0.62638133E-01 0.91275246E+03</pdfrwt>
<pdfrwt beam="2">  1       -2 0.78701049E-01 0.91275246E+03</pdfrwt>
<totfact> 0.11215613E+02</totfact>
</mgrwt>
</event>
<event>
 5    0  0.6041737E-002  0.7478111E+03  0.7546771E-02  0.9638791E-01
          1   -1    0    0  503    0  0.00000000000E+00  0.00000000000E+00  0.93716475085E+03  0.93716475085E+03  0.00000000000E+00 0. -1.
         -1   -1    0    0    0  501 -0.00000000000E+00 -0.00000000000E+00 -0.18293028373E+03  0.18293028373E+03  0.00000000000E+00 0.  1.
         25    1    1    2    0    0 -0.29324111052E+03 -0.10450363736E+03  0.76496788346E+02  0.34407574420E+03  0.12500000000E+03 0.  0.
         21    1    1    2  502  501  0.24362770767E+03  0.56806648914E+02  0.65871239079E+03  0.70461583086E+03  0.00000000000E+00 0. -1.
         21    1    1    2  503  502  0.49613402851E+02  0.47696988444E+02  0.19025287976E+02  0.71403459521E+02  0.00000000000E+00 0.  1.
<mgrwt>
<rscale>  4 0.74781113E+03</rscale>
<asrwt>0</asrwt>
<pdfrwt beam="1">  1        1 0.14417919E+00 0.74781113E+03</pdfrwt>
<pdfrwt beam="2">  1       -1 0.28143121E-01 0.74781113E+03</pdfrwt>
<totfact> 0.19632711E+02</totfact>
</mgrwt>
</event>
<event>
 5    0  0.6041737E-002  0.5199663E+03  0.7546771E-02  0.1008695E+00
          2   -1    0    0  503    0  0.00000000000E+00  0.00000000000E+00  0.16444530143E+04  0.16444530143E+04  0.00000000000E+00 0.  1.
         -2   -1    0    0    0  501 -0.00000000000E+00 -0.00000000000E+00 -0.41102569874E+02  0.41102569874E+02  0.00000000000E+00 0. -1.
         25    1    1    2    0    0  0.63823713613E+02  0.22583289423E+03  0.10487101608E+04  0.10818927692E+04  0.12500000000E+03 0.  0.
         21    1    1    2  502  501 -0.26252830062E+02 -0.35529412695E+02  0.11109136515E+03  0.11955267318E+03  0.00000000000E+00 0. -1.
         21    1    1    2  503  502 -0.37570883550E+02 -0.19030348154E+03  0.44354891845E+03  0.48411014184E+03  0.00000000000E+00 0. -1.
<mgrwt>
<rscale>  4 0.51996633E+03</rscale>
<asrwt>0</asrwt>
<pdfrwt beam="1">  1        2 0.25299272E+00 0.51996633E+03</pdfrwt>
<pdfrwt beam="2">  1       -2 0.63234736E-02 0.51996633E+03</pdfrwt>
<totfact> 0.15416979E+03</totfact>
</mgrwt>
</event>
<event>
 5    0  0.6041737E-002  0.4744176E+03  0.7546771E-02  0.1020681E+00
          1   -1    0    0  503    0  0.00000000000E+00  0.00000000000E+00  0.60848759234E+03  0.60848759234E+03  0.00000000000E+00 0. -1.
         -1   -1    0    0    0  501 -0.00000000000E+00 -0.00000000000E+00 -0.12197518615E+03  0.12197518615E+03  0.00000000000E+00 0.  1.
         25    1    1    2    0    0  0.12350465329E+03 -0.17011212043E+03  0.29480698077E+03  0.38305050426E+03  0.12500000000E+03 0.  0.
         21    1    1    2  502  501 -0.64882465023E+02  0.20162428016E+03  0.10032950652E+03  0.23436743480E+03  0.00000000000E+00 0.  1.
         21    1    1    2  503  502 -0.58622188272E+02 -0.31512159722E+02  0.91375918891E+02  0.11304483943E+03  0.00000000000E+00 0. -1.
<mgrwt>
<rscale>  4 0.47441761E+03</rscale>
<asrwt>0</asrwt>
<pdfrwt beam="1">  1        1 0.93613474E-01 0.47441761E+03</pdfrwt>
<pdfrwt beam="2">  1       -1 0.18765414E-01 0.47441761E+03</pdfrwt>
<totfact> 0.77045794E+02</totfact>
</mgrwt>
</event>
<event>
 5    0  0.6041737E-002  0.5756166E+03  0.7546771E-02  0.9957326E-01
         -1   -1    0    0    0  501 -0.00000000000E+00  0.00000000000E+00  0.10789345847E+03  0.10789345847E+03  0.00000000000E+00 0.  1.
          1   -1    0    0  503    0  0.00000000000E+00 -0.00000000000E+00 -0.92894194781E+03  0.92894194781E+03  0.00000000000E+00 0. -1.
         25    1    1    2    0    0 -0.15843281516E+03 -0.23668792305E+03 -0.46616256059E+03  0.56040580184E+03  0.12500000000E+03 0.  0.
         21    1    1    2  502  501  0.92412895603E+01  0.18526492040E+02  0.12250415787E+02  0.24056288720E+02  0.00000000000E+00 0. -1.
         21    1    1    2  503  502  0.14919152560E+03  0.21816143101E+03 -0.36713634454E+03  0.45237331572E+03  0.00000000000E+00 0.  1.
<mgrwt>
<rscale>  4 0.57561660E+03</rscale>
<asrwt>0</asrwt>
<pdfrwt beam="1">  1        1 0.14291415E+00 0.57561660E+03</pdfrwt>
<pdfrwt beam="2">  1       -1 0.16598993E-01 0.57561660E+03</pdfrwt>
<totfact> 0.48779225E+02</totfact>
</mgrwt>
</event>
<event>
 5    0  0.6041737E-002  0.6170858E+03  0.7546771E-02  0.9870579E-01
         -2   -1    0    0    0  501 -0.00000000000E+00  0.00000000000E+00  0.17571442368E+03  0.17571442368E+03  0.00000000000E+00 0.  1.
          2   -1    0    0  503    0  0.00000000000E+00 -0.00000000000E+00 -0.54178088804E+03  0.54178088804E+03  0.00000000000E+00 0. -1.
         25    1    1    2    0    0  0.21117017714E+03 -0.22115258770E+01  0.40172751120E+02  0.24866962921E+03  0.12500000000E+03 0.  0.
         21    1    1    2  502  501 -0.48482507316E+02  0.44479116500E+02 -0.12169219710E+03  0.13833992973E+03  0.00000000000E+00 0.  1.
         21    1    1    2  503  502 -0.16268766983E+03 -0.42267590623E+02 -0.28454701837E+03  0.33048575279E+03  0.00000000000E+00 0. -1.
<mgrwt>
<rscale>  4 0.61708578E+03</rscale>
<asrwt>0</asrwt>
<pdfrwt beam="1">  1        2 0.83350904E-01 0.61708578E+03</pdfrwt>
<pdfrwt beam="2">  1       -2 0.27032989E-01 0.61708578E+03</pdfrwt>
<totfact> 0.70038797E+02</totfact>
</mgrwt>
</event>
<event>
 5    0  0.6041737E-002  0.5648872E+03  0.7546771E-02  0.9981057E-01
         -1   -1    0    0    0  501 -0.00000000000E+00  0.00000000000E+00  0.14347210610E+03  0.14347210610E+03  0.00000000000E+00 0. -1.
          1   -1    0    0  503    0  0.00000000000E+00 -0.00000000000E+00 -0.55602709767E+03  0.55602709767E+03  0.00000000000E+00 0.  1.
         25    1    1    2    0    0 -0.14729755907E+03 -0.16094138975E+03 -0.25291914213E+02  0.25271205505E+03  0.12500000000E+03 0.  0.
         21    1    1    2  502  501  0.12286920994E+03  0.11928237713E+03 -0.26708495899E+03  0.31726881909E+03  0.00000000000E+00 0.  1.
         21    1    1    2  503  502  0.24428349133E+02  0.41659012626E+02 -0.12017811837E+03  0.12951832962E+03  0.00000000000E+00 0.  1.
<mgrwt>
<rscale>  4 0.56488717E+03</rscale>
<asrwt>0</asrwt>
<pdfrwt beam="1">  1        1 0.85542630E-01 0.56488717E+03</pdfrwt>
<pdfrwt beam="2">  1       -1 0.22072632E-01 0.56488717E+03</pdfrwt>
<totfact> 0.66711203E+02</totfact>
</mgrwt>
</event>
<event>
 5    0  0.6041737E-002  0.5330510E+03  0.7546771E-02  0.1005495E+00
          1   -1    0    0  503    0  0.00000000000E+00  0.00000000000E+00  0.19531489980E+03  0.19531489980E+03  0.00000000000E+00 0.  1.
         -1   -1    0    0    0  501 -0.00000000000E+00 -0.00000000000E+00 -0.41843543756E+03  0.41843543756E+03  0.00000000000E+00 0. -1.
         25    1    1    2    0    0  0.29791289025E+02  0.23930196560E+03 -0.58227970002E+00  0.27162159467E+03  0.12500000000E+03 0.  0.
         21    1    1    2  502  501 -0.31381734661E+02 -0.20562380339E+03 -0.22726499144E+03  0.30808332984E+03  0.00000000000E+00 0. -1.
         21    1    1    2  503  502  0.15904456370E+01 -0.33678162212E+02  0.47267333882E+01  0.34045412845E+02  0.00000000000E+00 0. -1.
<mgrwt>
<rscale>  4 0.53305105E+03</rscale>
<asrwt>0</asrwt>
<pdfrwt beam="1">  1        1 0.30048447E-01 0.53305105E+03</pdfrwt>
<pdfrwt beam="2">  1       -1 0.64374682E-01 0.53305105E+03</pdfrwt>
<totfact> 0.38105646E+02</totfact>
</mgrwt>
</event>
<event>
 5    0  0.6041737E-002  0.5414587E+03  0.7546771E-02  0.1003490E+00
          3   -1    0    0  503    0  0.00000000000E+00  0.00000000000E+00  0.91079224707E+03  0.91079224707E+03  0.00000000000E+00 0. -1.
         -3   -1    0    0    0  501 -0.00000000000E+00 -0.00000000000E+00 -0.80473217600E+02  0.80473217600E+02  0.00000000000E+00 0.  1.
         25    1    1    2    0    0  0.99088237719E+02  0.22473828019E+03  0.56025308874E+03  0.62436711707E+03  0.12500000000E+03 0.  0.
         21    1    1    2  502  501 -0.95939183140E+02 -0.19044656548E+03  0.24133350348E+03  0.32204981147E+03  0.00000000000E+00 0.  1.
         21    1    1    2  503  502 -0.31490545787E+01 -0.34291714716E+02  0.28732437249E+02  0.44848536132E+02  0.00000000000E+00 0.  1.
<mgrwt>
<rscale>  4 0.54145871E+03</rscale>
<asrwt>0</asrwt>
<pdfrwt beam="1">  1        3 0.14012188E+00 0.54145871E+03</pdfrwt>
<pdfrwt beam="2">  1       -3 0.12380496E-01 0.54145871E+03</pdfrwt>
<totfact> 0.54220791E+01</totfact>
</mgrwt>
</event>
<event>
 5    0  0.6041737E-002  0.8481197E+03  0.7546771E-02  0.9492864E-01
         -1   -1    0    0    0  501 -0.00000000000E+00  0.00000000000E+00  0.24039827709E+04  0.24039827709E+04  0.00000000000E+00 0.  1.
          1   -1    0    0  503    0  0.00000000000E+00 -0.00000000000E+00 -0.86440797322E+02  0.86440797322E+02  0.00000000000E+00 0. -1.
         25    1    1    2    0    0 -0.11911163840E+03  0.34411993848E+03  0.14029820008E+04  0.14548503734E+04  0.12500000000E+03 0.  0.
         21    1    1    2  502  501  0.17064088207E+03 -0.37709432949E+03  0.70765404633E+03  0.81981259642E+03  0.00000000000E+00 0. -1.
         21    1    1    2  503  502 -0.51529243675E+02  0.32974391006E+02  0.20690592647E+03  0.21576059841E+03  0.00000000000E+00 0. -1.
<mgrwt>
<rscale>  4 0.84811975E+03</rscale>
<asrwt>0</asrwt>
<pdfrwt beam="1">  1        1 0.13298586E-01 0.84811975E+03</pdfrwt>
<pdfrwt beam="2">  1       -1 0.36984345E+00 0.84811975E+03</pdfrwt>
<totfact> 0.54289032E+00</totfact>
</mgrwt>
</event>
<event>
 5    0  0.6041737E-002  0.5114940E+03  0.7546771E-02  0.1010822E+00
          2   -1    0    0  503    0  0.00000000000E+00  0.00000000000E+00  0.55167910187E+03  0.55167910187E+03  0.00000000000E+00 0.  1.
         -2   -1    0    0    0  501 -0.00000000000E+00 -0.00000000000E+00 -0.11855903229E+03  0.11855903229E+03  0.00000000000E+00 0. -1.
         25    1    1    2    0    0  0.13468012132E+03 -0.19027612415E+03  0.27157360306E+03  0.37910547396E+03  0.12500000000E+03 0.  0.
         21    1    1    2  502  501 -0.70380890564E+02  0.49911586448E+02  0.73863374486E+02  0.11358007884E+03  0.00000000000E+00 0. -1.
         21    1    1    2  503  502 -0.64299230757E+02  0.14036453770E+03  0.87683092038E+02  0.17755258137E+03  0.00000000000E+00 0. -1.
<mgrwt>
<rscale>  4 0.51149405E+03</rscale>
<asrwt>0</asrwt>
<pdfrwt beam="1">  1        2 0.84873706E-01 0.51149405E+03</pdfrwt>
<pdfrwt beam="2">  1       -2 0.18239851E-01 0.51149405E+03</pdfrwt>
<totfact> 0.13751230E+03</totfact>
</mgrwt>
</event>
<event>
 5    0  0.6041737E-002  0.5060353E+03  0.7546771E-02  0.1012216E+00
          2   -1    0    0  503    0  0.00000000000E+00  0.00000000000E+00  0.50741593244E+03  0.50741593244E+03  0.00000000000E+00 0. -1.
         -2   -1    0    0    0  501 -0.00000000000E+00 -0.00000000000E+00 -0.15070899665E+03  0.15070899665E+03  0.00000000000E+00 0.  1.
         25    1    1    2    0    0 -0.15581597809E+03 -0.17812694797E+03  0.10694719414E+03  0.28821958808E+03  0.12500000000E+03 0.  0.
         21    1    1    2  502  501  0.13523893274E+03  0.16389662964E+03  0.26571712788E+03  0.34023119520E+03  0.00000000000E+00 0. -1.
         21    1    1    2  503  502  0.20577045344E+02  0.14230318328E+02 -0.15957386218E+02  0.29674145813E+02  0.00000000000E+00 0. -1.
<mgrwt>
<rscale>  4 0.50603527E+03</rscale>
<asrwt>0</asrwt>
<pdfrwt beam="1">  1        2 0.78063989E-01 0.50603527E+03</pdfrwt>
<pdfrwt beam="2">  1       -2 0.23186000E-01 0.50603527E+03</pdfrwt>
<totfact> 0.99690796E+02</totfact>
</mgrwt>
</event>
<event>
 5    0  0.6041737E-002  0.5102540E+03  0.7546771E-02  0.1011137E+00
          2   -1    0    0  503    0  0.00000000000E+00  0.00000000000E+00  0.21016747313E+03  0.21016747313E+03  0.00000000000E+00 0.  1.
         -2   -1    0    0    0  501 -0.00000000000E+00 -0.00000000000E+00 -0.30970432577E+03  0.30970432577E+03  0.00000000000E+00 0. -1.
         25    1    1    2    0    0  0.18260376307E+03  0.11334939987E+03  0.44411469475E+02  0.25256602970E+03  0.12500000000E+03 0.  0.
         21    1    1    2  502  501 -0.16967205348E+03 -0.78069501917E+02 -0.11057111323E+03  0.21704705468E+03  0.00000000000E+00 0. -1.
         21    1    1    2  503  502 -0.12931709582E+02 -0.35279897953E+02 -0.33377208884E+02  0.50258714520E+02  0.00000000000E+00 0. -1.
<mgrwt>
<rscale>  4 0.51025396E+03</rscale>
<asrwt>0</asrwt>
<pdfrwt beam="1">  1        2 0.32333457E-01 0.51025396E+03</pdfrwt>
<pdfrwt beam="2">  1       -2 0.47646819E-01 0.51025396E+03</pdfrwt>
<totfact> 0.68645847E+02</totfact>
</mgrwt>
</event>
<event>
 5    0  0.6041737E-002  0.5908463E+03  0.7546771E-02  0.9924581E-01
          2   -1    0    0  503    0  0.00000000000E+00  0.00000000000E+00  0.11003132523E+04  0.11003132523E+04  0.00000000000E+00 0. -1.
         -2   -1    0    0    0  501 -0.00000000000E+00 -0.00000000000E+00 -0.79318181334E+02  0.79318181334E+02  0.00000000000E+00 0.  1.
         25    1    1    2    0    0 -0.16973638341E+03  0.11962856337E+03  0.90311672296E+03  0.93507553081E+03  0.12500000000E+03 0.  0.
         21    1    1    2  502  501  0.16207269004E+03 -0.93645713546E+02  0.10289981219E+03  0.21360114202E+03  0.00000000000E+00 0.  1.
         21    1    1    2  503  502  0.76636933662E+01 -0.25982849829E+02  0.14978535812E+02  0.30954760802E+02  0.00000000000E+00 0. -1.
<mgrwt>
<rscale>  4 0.59084633E+03</rscale>
<asrwt>0</asrwt>
<pdfrwt beam="1">  1        2 0.16927895E+00 0.59084633E+03</pdfrwt>
<pdfrwt beam="2">  1       -2 0.12202798E-01 0.59084633E+03</pdfrwt>
<totfact> 0.10885394E+03</totfact>
</mgrwt>
</event>
<event>
 5    0  0.6041737E-002  0.5267901E+03  0.7546771E-02  0.1007014E+00
          2   -1    0    0  503    0  0.00000000000E+00  0.00000000000E+00  0.10091817675E+04  0.10091817675E+04  0.00000000000E+00 0. -1.
         -2   -1    0    0    0  501 -0.00000000000E+00 -0.00000000000E+00 -0.68745741081E+02  0.68745741081E+02  0.00000000000E+00 0.  1.
         25    1    1    2    0    0 -0.11195515189E+03 -0.20914098869E+03  0.55742596954E+03  0.61856496886E+03  0.12500000000E+03 0.  0.
         21    1    1    2  502  501  0.17766101966E+02  0.10383672153E+03  0.21809459674E+03  0.24220436049E+03  0.00000000000E+00 0. -1.
         21    1    1    2  503  502  0.94189049927E+02  0.10530426716E+03  0.16491546011E+03  0.21715817920E+03  0.00000000000E+00 0.  1.
<mgrwt>
<rscale>  4 0.52679009E+03</rscale>
<asrwt>0</asrwt>
<pdfrwt beam="1">  1        2 0.15525872E+00 0.52679009E+03</pdfrwt>
<pdfrwt beam="2">  1       -2 0.10576269E-01 0.52679009E+03</pdfrwt>
<totfact> 0.15680219E+03</totfact>
</mgrwt>
</event>
<event>
 5    0  0.6041737E-002  0.6259078E+03  0.7546771E-02  0.9853067E-01
          2   -1    0    0  503    0  0.00000000000E+00  0.00000000000E+00  0.28993188080E+03  0.28993188080E+03  0.00000000000E+00 0. -1.
         -2   -1    0    0    0  501 -0.00000000000E+00 -0.00000000000E+00 -0.33780402676E+03  0.33780402676E+03  0.00000000000E+00 0.  1.
         25    1    1    2    0    0 -0.94495687965E+02  0.25939082338E+03 -0.14118781715E+03  0.33432324779E+03  0.12500000000E+03 0.  0.
         21    1    1    2  502  501  0.14488297754E+02 -0.20018597643E+02  0.16031181949E+02  0.29455964049E+02  0.00000000000E+00 0. -1.
         21    1    1    2  503  502  0.80007390211E+02 -0.23937222574E+03  0.77284489239E+02  0.26395669573E+03  0.00000000000E+00 0. -1.
<mgrwt>
<rscale>  4 0.62590784E+03</rscale>
<asrwt>0</asrwt>
<pdfrwt beam="1">  1        2 0.44604905E-01 0.62590784E+03</pdfrwt>
<pdfrwt beam="2">  1       -2 0.51969850E-01 0.62590784E+03</pdfrwt>
<totfact> 0.40245960E+02</totfact>
</mgrwt>
</event>
<event>
 5    0  0.6041737E-002  0.6365192E+03  0.7546771E-02  0.9832409E-01
         -1   -1    0    0    0  501 -0.00000000000E+00  0.00000000000E+00  0.64090186574E+02  0.64090186574E+02  0.00000000000E+00 0.  1.
          1   -1    0    0  503    0  0.00000000000E+00 -0.00000000000E+00 -0.15804163517E+04  0.15804163517E+04  0.00000000000E+00 0. -1.
         25    1    1    2    0    0 -0.20958837360E+03 -0.15566316465E+03 -0.11856153587E+04  0.12204372520E+04  0.12500000000E+03 0.  0.
         21    1    1    2  502  501  0.19719341585E+03  0.12907650766E+03 -0.30132968268E+03  0.38255138968E+03  0.00000000000E+00 0.  1.
         21    1    1    2  503  502  0.12394957755E+02  0.26586656984E+02 -0.29381123700E+02  0.41517896590E+02  0.00000000000E+00 0.  1.
<mgrwt>
<rscale>  4 0.63651922E+03</rscale>
<asrwt>0</asrwt>
<pdfrwt beam="1">  1        1 0.24314098E+00 0.63651922E+03</pdfrwt>
<pdfrwt beam="2">  1       -1 0.98600284E-02 0.63651922E+03</pdfrwt>
<totfact> 0.38140167E+02</totfact>
</mgrwt>
</event>
<event>
 5    0  0.6041737E-002  0.9283506E+03  0.7546771E-02  0.9390820E-01
         -2   -1    0    0    0  501 -0.00000000000E+00  0.00000000000E+00  0.52347873928E+03  0.52347873928E+03  0.00000000000E+00 0.  1.
          2   -1    0    0  503    0  0.00000000000E+00 -0.00000000000E+00 -0.41159021524E+03  0.41159021524E+03  0.00000000000E+00 0. -1.
         25    1    1    2    0    0 -0.15667806072E+03  0.14415016583E+03  0.45837856413E+03  0.52063729513E+03  0.12500000000E+03 0.  0.
         21    1    1    2  502  501  0.11900549442E+03 -0.13210150471E+03 -0.32223830566E+03  0.36803619507E+03  0.00000000000E+00 0. -1.
         21    1    1    2  503  502  0.37672566304E+02 -0.12048661120E+02 -0.24251734426E+02  0.46395464319E+02  0.00000000000E+00 0. -1.
<mgrwt>
<rscale>  4 0.92835064E+03</rscale>
<asrwt>0</asrwt>
<pdfrwt beam="1">  1        2 0.63321571E-01 0.92835064E+03</pdfrwt>
<pdfrwt beam="2">  1       -2 0.80535191E-01 0.92835064E+03</pdfrwt>
<totfact> 0.10511501E+02</totfact>
</mgrwt>
</event>
<event>
 5    0  0.6041737E-002  0.5170101E+03  0.7546771E-02  0.1009432E+00
          2   -1    0    0  503    0  0.00000000000E+00  0.00000000000E+00  0.11580443224E+04  0.11580443224E+04  0.00000000000E+00 0.  1.
         -2   -1    0    0    0  501 -0.00000000000E+00 -0.00000000000E+00 -0.57704918060E+02  0.57704918060E+02  0.00000000000E+00 0. -1.
         25    1    1    2    0    0 -0.62701682612E+02  0.21840329469E+03  0.43216460193E+03  0.50400668974E+03  0.12500000000E+03 0.  0.
         21    1    1    2  502  501 -0.14465336402E+02 -0.52883078218E+02  0.24117793767E+03  0.24733108081E+03  0.00000000000E+00 0.  1.
         21    1    1    2  503  502  0.77167019014E+02 -0.16552021648E+03  0.42699686473E+03  0.46441146990E+03  0.00000000000E+00 0.  1.
<mgrwt>
<rscale>  4 0.51701007E+03</rscale>
<asrwt>0</asrwt>
<pdfrwt beam="1">  1        2 0.17816065E+00 0.51701007E+03</pdfrwt>
<pdfrwt beam="2">  1       -2 0.88776805E-02 0.51701007E+03</pdfrwt>
<totfact> 0.16885841E+03</totfact>
</mgrwt>
</event>
<event>
 5    0  0.6041737E-002  0.4176725E+03  0.7546771E-02  0.1037827E+00
         -2   -1    0    0    0  501 -0.00000000000E+00  0.00000000000E+00  0.95765530958E+02  0.95765530958E+02  0.00000000000E+00 0. -1.
          2   -1    0    0  503    0  0.00000000000E+00 -0.00000000000E+00 -0.53395952889E+03  0.53395952889E+03  0.00000000000E+00 0.  1.
         25    1    1    2    0    0  0.19743133265E+03  0.33692011090E+02 -0.25723700859E+03  0.34915635653E+03  0.12500000000E+03 0.  0.
         21    1    1    2  502  501 -0.17465906081E+03 -0.48442929013E+02 -0.17665060175E+03  0.25309670087E+03  0.00000000000E+00 0.  1.
         21    1    1    2  503  502 -0.22772271838E+02  0.14750917923E+02 -0.43063876043E+01  0.27472002447E+02  0.00000000000E+00 0.  1.
<mgrwt>
<rscale>  4 0.41767246E+03</rscale>
<asrwt>0</asrwt>
<pdfrwt beam="1">  1        2 0.82147618E-01 0.41767246E+03</pdfrwt>
<pdfrwt beam="2">  1       -2 0.14733159E-01 0.41767246E+03</pdfrwt>
<totfact> 0.20473205E+03</totfact>
</mgrwt>
</event>
<event>
 5    0  0.6041737E-002  0.4894128E+03  0.7546771E-02  0.1016580E+00
          1   -1    0    0  503    0  0.00000000000E+00  0.00000000000E+00  0.25486530576E+03  0.25486530576E+03  0.00000000000E+00 0.  1.
         -1   -1    0    0    0  501 -0.00000000000E+00 -0.00000000000E+00 -0.23495243739E+03  0.23495243739E+03  0.00000000000E+00 0. -1.
         25    1    1    2    0    0  0.14913638282E+03  0.14778580807E+03 -0.75829139665E+02  0.25584636829E+03  0.12500000000E+03 0.  0.
         21    1    1    2  502  501 -0.11856011462E+03 -0.12083398547E+03  0.92931214201E+02  0.19311541470E+03  0.00000000000E+00 0.  1.
         21    1    1    2  503  502 -0.30576268197E+02 -0.26951822602E+02  0.28107938350E+01  0.40855960158E+02  0.00000000000E+00 0. -1.
<mgrwt>
<rscale>  4 0.48941281E+03</rscale>
<asrwt>0</asrwt>
<pdfrwt beam="1">  1        1 0.39210047E-01 0.48941281E+03</pdfrwt>
<pdfrwt beam="2">  1       -1 0.36146529E-01 0.48941281E+03</pdfrwt>
<totfact> 0.79837851E+02</totfact>
</mgrwt>
</event>
<event>
 5    0  0.6041737E-002  0.8390395E+03  0.7546771E-02  0.9505167E-01
         -1   -1    0    0    0  501 -0.00000000000E+00  0.00000000000E+00  0.42363372172E+03  0.42363372172E+03  0.00000000000E+00 0. -1.
          1   -1    0    0  503    0  0.00000000000E+00 -0.00000000000E+00 -0.41544573259E+03  0.41544573259E+03  0.00000000000E+00 0.  1.
         25    1    1    2    0    0  0.55523810671E+02  0.38610614522E+03 -0.84059712541E+02  0.41815294355E+03  0.12500000000E+03 0.  0.
         21    1    1    2  502  501 -0.93019933442E+02 -0.31995604837E+03  0.88690956118E+02  0.34480525896E+03  0.00000000000E+00 0.  1.
         21    1    1    2  503  502  0.37496122770E+02 -0.66150096849E+02  0.35567455499E+01  0.76121251795E+02  0.00000000000E+00 0.  1.
<mgrwt>
<rscale>  4 0.83903950E+03</rscale>
<asrwt>0</asrwt>
<pdfrwt beam="1">  1        1 0.63914728E-01 0.83903950E+03</pdfrwt>
<pdfrwt beam="2">  1       -1 0.65174419E-01 0.83903950E+03</pdfrwt>
<totfact> 0.13760052E+02</totfact>
</mgrwt>
</event>
<event>
 5    0  0.6041737E-002  0.7553968E+03  0.7546771E-02  0.9626922E-01
         -1   -1    0    0    0  501 -0.00000000000E+00  0.00000000000E+00  0.85832942089E+02  0.85832942089E+02  0.00000000000E+00 0.  1.
          1   -1    0    0  503    0  0.00000000000E+00 -0.00000000000E+00 -0.16620200212E+04  0.16620200212E+04  0.00000000000E+00 0. -1.
         25    1    1    2    0    0 -0.11922575117E+03  0.33859699264E+03 -0.68495621102E+03  0.78335988804E+03  0.12500000000E+03 0.  0.
         21    1    1    2  502  501  0.64015530503E+02 -0.92100021294E+02 -0.34282433645E+03  0.36070615150E+03  0.00000000000E+00 0. -1.
         21    1    1    2  503  502  0.55210220664E+02 -0.24649697135E+03 -0.54840653166E+03  0.60378692378E+03  0.00000000000E+00 0. -1.
<mgrwt>
<rscale>  4 0.75539677E+03</rscale>
<asrwt>0</asrwt>
<pdfrwt beam="1">  1        1 0.25569540E+00 0.75539677E+03</pdfrwt>
<pdfrwt beam="2">  1       -1 0.13205068E-01 0.75539677E+03</pdfrwt>
<totfact> 0.20902981E+02</totfact>
</mgrwt>
</event>
<event>
 5    0  0.6041737E-002  0.7535428E+03  0.7546771E-02  0.9629809E-01
          2   -1    0    0  503    0  0.00000000000E+00  0.00000000000E+00  0.12449713656E+04  0.12449713656E+04  0.00000000000E+00 0.  1.
         -2   -1    0    0    0  501 -0.00000000000E+00 -0.00000000000E+00 -0.11402406347E+03  0.11402406347E+03  0.00000000000E+00 0. -1.
         25    1    1    2    0    0  0.10969278075E+03  0.19821803166E+03  0.62424381369E+02  0.26616667262E+03  0.12500000000E+03 0.  0.
         21    1    1    2  502  501 -0.91615550668E+02 -0.16889340903E+03  0.83796264190E+03  0.85970912637E+03  0.00000000000E+00 0.  1.
         21    1    1    2  503  502 -0.18077230086E+02 -0.29324622632E+02  0.23056027887E+03  0.23311963009E+03  0.00000000000E+00 0.  1.
<mgrwt>
<rscale>  4 0.75354282E+03</rscale>
<asrwt>0</asrwt>
<pdfrwt beam="1">  1        2 0.19153405E+00 0.75354282E+03</pdfrwt>
<pdfrwt beam="2">  1       -2 0.17542164E-01 0.75354282E+03</pdfrwt>
<totfact> 0.48140386E+02</totfact>
</mgrwt>
</event>
<event>
 5    0  0.6041737E-002  0.4745105E+03  0.7546771E-02  0.1020655E+00
         -2   -1    0    0    0  501 -0.00000000000E+00  0.00000000000E+00  0.57409655304E+02  0.57409655304E+02  0.00000000000E+00 0. -1.
          2   -1    0    0  503    0  0.00000000000E+00 -0.00000000000E+00 -0.13961383491E+04  0.13961383491E+04  0.00000000000E+00 0.  1.
         25    1    1    2    0    0 -0.62933249212E+02 -0.19918072654E+03 -0.93530366052E+03  0.96646339458E+03  0.12500000000E+03 0.  0.
         21    1    1    2  502  501 -0.36878401753E+02  0.81315283488E+02 -0.26515590665E+03  0.27978535822E+03  0.00000000000E+00 0.  1.
         21    1    1    2  503  502  0.99811650965E+02  0.11786544305E+03 -0.13826912661E+03  0.20729925158E+03  0.00000000000E+00 0.  1.
<mgrwt>
<rscale>  4 0.47451051E+03</rscale>
<asrwt>0</asrwt>
<pdfrwt beam="1">  1        2 0.21479051E+00 0.47451051E+03</pdfrwt>
<pdfrwt beam="2">  1       -2 0.88322550E-02 0.47451051E+03</pdfrwt>
<totfact> 0.12455047E+03</totfact>
</mgrwt>
</event>
<event>
 5    0  0.6041737E-002  0.4599320E+03  0.7546771E-02  0.1024801E+00
         -2   -1    0    0    0  501 -0.00000000000E+00  0.00000000000E+00  0.96279208367E+02  0.96279208367E+02  0.00000000000E+00 0. -1.
          2   -1    0    0  503    0  0.00000000000E+00 -0.00000000000E+00 -0.54928120910E+03  0.54928120910E+03  0.00000000000E+00 0.  1.
         25    1    1    2    0    0 -0.20258258322E+03  0.47211764816E+00 -0.15850325262E+03  0.28598637557E+03  0.12500000000E+03 0.  0.
         21    1    1    2  502  501  0.27562791248E+02 -0.60980779105E+01 -0.65274807906E+02  0.71117470165E+02  0.00000000000E+00 0.  1.
         21    1    1    2  503  502  0.17501979197E+03  0.56259602623E+01 -0.22922394021E+03  0.28845657174E+03  0.00000000000E+00 0.  1.
<mgrwt>
<rscale>  4 0.45993199E+03</rscale>
<asrwt>0</asrwt>
<pdfrwt beam="1">  1        2 0.84504802E-01 0.45993199E+03</pdfrwt>
<pdfrwt beam="2">  1       -2 0.14812186E-01 0.45993199E+03</pdfrwt>
<totfact> 0.19657274E+03</totfact>
</mgrwt>
</event>
<event>
 5    0  0.6041737E-002  0.5944412E+03  0.7546771E-02  0.9917006E-01
          2   -1    0    0  503    0  0.00000000000E+00  0.00000000000E+00  0.17362306555E+04  0.17362306555E+04  0.00000000000E+00 0.  1.
         -2   -1    0    0    0  501 -0.00000000000E+00 -0.00000000000E+00 -0.50880382681E+02  0.50880382681E+02  0.00000000000E+00 0. -1.
         25    1    1    2    0    0  0.12079948931E+02 -0.21814263818E+03  0.14196842426E+04  0.14418254001E+04  0.12500000000E+03 0.  0.
         21    1    1    2  502  501  0.68856248981E+01  0.29088172062E+02  0.45853674601E+02  0.54736578799E+02  0.00000000000E+00 0.  1.
         21    1    1    2  503  502 -0.18965573829E+02  0.18905446612E+03  0.21981235561E+03  0.29054905925E+03  0.00000000000E+00 0. -1.
<mgrwt>
<rscale>  4 0.59444118E+03</rscale>
<asrwt>0</asrwt>
<pdfrwt beam="1">  1        2 0.26711236E+00 0.59444118E+03</pdfrwt>
<pdfrwt beam="2">  1       -2 0.78277525E-02 0.59444118E+03</pdfrwt>
<totfact> 0.97797486E+02</totfact>
</mgrwt>
</event>
<event>
 5    0  0.6041737E-002  0.4472634E+03  0.7546771E-02  0.1028541E+00
         -2   -1    0    0    0  501 -0.00000000000E+00  0.00000000000E+00  0.60607001193E+02  0.60607001193E+02  0.00000000000E+00 0. -1.
          2   -1    0    0  503    0  0.00000000000E+00 -0.00000000000E+00 -0.10905971055E+04  0.10905971055E+04  0.00000000000E+00 0.  1.
         25    1    1    2    0    0 -0.19268523159E+03 -0.10404880528E+03 -0.69804723260E+03  0.74219181570E+03  0.12500000000E+03 0.  0.
         21    1    1    2  502  501  0.20762135665E+02  0.37746201231E+02 -0.21852093011E+02  0.48304823296E+02  0.00000000000E+00 0. -1.
         21    1    1    2  503  502  0.17192309592E+03  0.66302604051E+02 -0.31009077867E+03  0.36070746767E+03  0.00000000000E+00 0. -1.
<mgrwt>
<rscale>  4 0.44726343E+03</rscale>
<asrwt>0</asrwt>
<pdfrwt beam="1">  1        2 0.16778416E+00 0.44726343E+03</pdfrwt>
<pdfrwt beam="2">  1       -2 0.93241546E-02 0.44726343E+03</pdfrwt>
<totfact> 0.17142851E+03</totfact>
</mgrwt>
</event>
<event>
 5    0  0.6041737E-002  0.9253926E+03  0.7546771E-02  0.9394385E-01
         -1   -1    0    0    0  501 -0.00000000000E+00  0.00000000000E+00  0.12618617068E+03  0.12618617068E+03  0.00000000000E+00 0. -1.
          1   -1    0    0  503    0  0.00000000000E+00 -0.00000000000E+00 -0.16966032171E+04  0.16966032171E+04  0.00000000000E+00 0.  1.
         25    1    1    2    0    0  0.81937577055E+02 -0.30393015061E+03 -0.15626313522E+03  0.37300197106E+03  0.12500000000E+03 0.  0.
         21    1    1    2  502  501 -0.16644402339E+02  0.12547717190E+02 -0.94007350704E+02  0.96290515225E+02  0.00000000000E+00 0. -1.
         21    1    1    2  503  502 -0.65293174716E+02  0.29138243342E+03 -0.13201465605E+04  0.13534969015E+04  0.00000000000E+00 0.  1.
<mgrwt>
<rscale>  4 0.92539259E+03</rscale>
<asrwt>0</asrwt>
<pdfrwt beam="1">  1        1 0.26101587E+00 0.92539259E+03</pdfrwt>
<pdfrwt beam="2">  1       -1 0.19413258E-01 0.92539259E+03</pdfrwt>
<totfact> 0.10397632E+02</totfact>
</mgrwt>
</event>
<event>
 5    0  0.6041737E-002  0.4813521E+03  0.7546771E-02  0.1018764E+00
         -2   -1    0    0    0  501 -0.00000000000E+00  0.00000000000E+00  0.86469086624E+02  0.86469086624E+02  0.00000000000E+00 0. -1.
          2   -1    0    0  503    0  0.00000000000E+00 -0.00000000000E+00 -0.83831372125E+03  0.83831372125E+03  0.00000000000E+00 0.  1.
         25    1    1    2    0    0 -0.19844724655E+03 -0.11483784056E+03 -0.40957969026E+03  0.48574639675E+03  0.12500000000E+03 0.  0.
         21    1    1    2  502  501  0.42905900790E+02 -0.37628784591E+02 -0.75795100192E+02  0.94877494515E+02  0.00000000000E+00 0.  1.
         21    1    1    2  503  502  0.15554134576E+03  0.15246662515E+03 -0.26646984418E+03  0.34415891661E+03  0.00000000000E+00 0.  1.
<mgrwt>
<rscale>  4 0.48135211E+03</rscale>
<asrwt>0</asrwt>
<pdfrwt beam="1">  1        2 0.12897134E+00 0.48135211E+03</pdfrwt>
<pdfrwt beam="2">  1       -2 0.13302936E-01 0.48135211E+03</pdfrwt>
<totfact> 0.13938652E+03</totfact>
</mgrwt>
</event>
<event>
 5    0  0.6041737E-002  0.5038520E+03  0.7546771E-02  0.1012778E+00
         -1   -1    0    0    0  501 -0.00000000000E+00  0.00000000000E+00  0.69993904259E+02  0.69993904259E+02  0.00000000000E+00 0.  1.
          1   -1    0    0  503    0  0.00000000000E+00 -0.00000000000E+00 -0.90674629653E+03  0.90674629653E+03  0.00000000000E+00 0. -1.
         25    1    1    2    0    0 -0.22720416942E+03 -0.39483631533E+02 -0.51672366742E+03  0.57949032798E+03  0.12500000000E+03 0.  0.
         21    1    1    2  502  501  0.17832056209E+03  0.15090689874E+02 -0.22333050185E+03  0.28618606682E+03  0.00000000000E+00 0.  1.
         21    1    1    2  503  502  0.48883607328E+02  0.24392941659E+02 -0.96698223000E+02  0.11106380598E+03  0.00000000000E+00 0.  1.
<mgrwt>
<rscale>  4 0.50385202E+03</rscale>
<asrwt>0</asrwt>
<pdfrwt beam="1">  1        1 0.13949943E+00 0.50385202E+03</pdfrwt>
<pdfrwt beam="2">  1       -1 0.10768293E-01 0.50385202E+03</pdfrwt>
<totfact> 0.10198375E+03</totfact>
</mgrwt>
</event>
<event>
 5    0  0.6041737E-002  0.4784390E+03  0.7546771E-02  0.1019565E+00
         -2   -1    0    0    0  501 -0.00000000000E+00  0.00000000000E+00  0.23125881304E+02  0.23125881304E+02  0.00000000000E+00 0.  1.
          2   -1    0    0  503    0  0.00000000000E+00 -0.00000000000E+00 -0.24745420313E+04  0.24745420313E+04  0.00000000000E+00 0. -1.
         25    1    1    2    0    0 -0.11178276128E+03 -0.18989062010E+03 -0.12874632640E+04  0.13121510925E+04  0.12500000000E+03 0.  0.
         21    1    1    2  502  501  0.96482083191E+02  0.13796757250E+03 -0.95130383682E+03  0.96608634883E+03  0.00000000000E+00 0. -1.
         21    1    1    2  503  502  0.15300678093E+02  0.51923047601E+02 -0.21264904915E+03  0.21943047128E+03  0.00000000000E+00 0.  1.
<mgrwt>
<rscale>  4 0.47843898E+03</rscale>
<asrwt>0</asrwt>
<pdfrwt beam="1">  1        2 0.38069852E+00 0.47843898E+03</pdfrwt>
<pdfrwt beam="2">  1       -2 0.35578303E-02 0.47843898E+03</pdfrwt>
<totfact> 0.13295231E+03</totfact>
</mgrwt>
</event>
<event>
 5    0  0.6041737E-002  0.7123882E+03  0.7546771E-02  0.9696278E-01
         -1   -1    0    0    0  501 -0.00000000000E+00  0.00000000000E+00  0.13424050051E+03  0.13424050051E+03  0.00000000000E+00 0.  1.
          1   -1    0    0  503    0  0.00000000000E+00 -0.00000000000E+00 -0.10481052657E+04  0.10481052657E+04  0.00000000000E+00 0. -1.
         25    1    1    2    0    0  0.16479187915E+03 -0.13480900844E+03 -0.11244488826E+02  0.24714625371E+03  0.12500000000E+03 0.  0.
         21    1    1    2  502  501 -0.15497304913E+03  0.98320694896E+02 -0.85465189717E+03  0.87413584204E+03  0.00000000000E+00 0. -1.
         21    1    1    2  503  502 -0.98188300226E+01  0.36488313545E+02 -0.47968379223E+02  0.61063670489E+02  0.00000000000E+00 0.  1.
<mgrwt>
<rscale>  4 0.71238823E+03</rscale>
<asrwt>0</asrwt>
<pdfrwt beam="1">  1        1 0.16124697E+00 0.71238823E+03</pdfrwt>
<pdfrwt beam="2">  1       -1 0.20652385E-01 0.71238823E+03</pdfrwt>
<totfact> 0.27282741E+02</totfact>
</mgrwt>
</event>
<event>
 5    0  0.6041737E-002  0.5413997E+03  0.7546771E-02  0.1003504E+00
         -2   -1    0    0    0  501 -0.00000000000E+00  0.00000000000E+00  0.15026717745E+03  0.15026717745E+03  0.00000000000E+00 0. -1.
          2   -1    0    0  503    0  0.00000000000E+00 -0.00000000000E+00 -0.48765406047E+03  0.48765406047E+03  0.00000000000E+00 0.  1.
         25    1    1    2    0    0  0.10816038184E+03  0.22395508017E+03 -0.14519848639E+03  0.31394608865E+03  0.12500000000E+03 0.  0.
         21    1    1    2  502  501 -0.79798255416E+02 -0.15642741175E+03 -0.87468422910E+02  0.19618364285E+03  0.00000000000E+00 0. -1.
         21    1    1    2  503  502 -0.28362126419E+02 -0.67527668416E+02 -0.10471997372E+03  0.12779150642E+03  0.00000000000E+00 0. -1.
<mgrwt>
<rscale>  4 0.54139966E+03</rscale>
<asrwt>0</asrwt>
<pdfrwt beam="1">  1        2 0.75023701E-01 0.54139966E+03</pdfrwt>
<pdfrwt beam="2">  1       -2 0.23118027E-01 0.54139966E+03</pdfrwt>
<totfact> 0.10487651E+03</totfact>
</mgrwt>
</event>
<event>
 5    0  0.6041737E-002  0.6779278E+03  0.7546771E-02  0.9755741E-01
          1   -1    0    0  503    0  0.00000000000E+00  0.00000000000E+00  0.43977546291E+03  0.43977546291E+03  0.00000000000E+00 0. -1.
         -1   -1    0    0    0  501 -0.00000000000E+00 -0.00000000000E+00 -0.26126181697E+03  0.26126181697E+03  0.00000000000E+00 0.  1.
         25    1    1    2    0    0  0.23374728253E+03  0.21149235301E+03  0.14444615434E+03  0.36858716605E+03  0.12500000000E+03 0.  0.
         21    1    1    2  502  501 -0.11638469682E+02 -0.42234067693E+02  0.30134890476E+02  0.53172192680E+02  0.00000000000E+00 0.  1.
         21    1    1    2  503  502 -0.22210881285E+03 -0.16925828531E+03  0.39326011143E+01  0.27927792115E+03  0.00000000000E+00 0.  1.
<mgrwt>
<rscale>  4 0.67792783E+03</rscale>
<asrwt>0</asrwt>
<pdfrwt beam="1">  1        1 0.67657764E-01 0.67792783E+03</pdfrwt>
<pdfrwt beam="2">  1       -1 0.40194126E-01 0.67792783E+03</pdfrwt>
<totfact> 0.32297808E+02</totfact>
</mgrwt>
</event>
<event>
 5    0  0.6041737E-002  0.4606245E+03  0.7546771E-02  0.1024600E+00
         -1   -1    0    0    0  501 -0.00000000000E+00  0.00000000000E+00  0.68384968250E+02  0.68384968250E+02  0.00000000000E+00 0. -1.
          1   -1    0    0  503    0  0.00000000000E+00 -0.00000000000E+00 -0.77566354495E+03  0.77566354495E+03  0.00000000000E+00 0.  1.
         25    1    1    2    0    0 -0.14999780145E+03 -0.13816855754E+03 -0.30330244423E+03  0.38627356033E+03  0.12500000000E+03 0.  0.
         21    1    1    2  502  501  0.33099599241E+02  0.35272761570E+02 -0.16970723778E+03  0.17646613764E+03  0.00000000000E+00 0.  1.
         21    1    1    2  503  502  0.11689820221E+03  0.10289579597E+03 -0.23426889469E+03  0.28130881523E+03  0.00000000000E+00 0.  1.
<mgrwt>
<rscale>  4 0.46062448E+03</rscale>
<asrwt>0</asrwt>
<pdfrwt beam="1">  1        1 0.11933285E+00 0.46062448E+03</pdfrwt>
<pdfrwt beam="2">  1       -1 0.10520765E-01 0.46062448E+03</pdfrwt>
<totfact> 0.13611245E+03</totfact>
</mgrwt>
</event>
<event>
 5    0  0.6041737E-002  0.4750050E+03  0.7546771E-02  0.1020517E+00
         -2   -1    0    0    0  501 -0.00000000000E+00  0.00000000000E+00  0.69144864690E+02  0.69144864690E+02  0.00000000000E+00 0.  1.
          2   -1    0    0  503    0  0.00000000000E+00 -0.00000000000E+00 -0.10081034173E+04  0.10081034173E+04  0.00000000000E+00 0. -1.
         25    1    1    2    0    0  0.12663806118E+03 -0.16572966463E+03 -0.56960066815E+03  0.61933306180E+03  0.12500000000E+03 0.  0.
         21    1    1    2  502  501 -0.84179843724E+02  0.19630780136E+03 -0.25849101746E+03  0.33532164421E+03  0.00000000000E+00 0.  1.
         21    1    1    2  503  502 -0.42458217455E+02 -0.30578136736E+02 -0.11086686703E+03  0.12259357602E+03  0.00000000000E+00 0.  1.
<mgrwt>
<rscale>  4 0.47500502E+03</rscale>
<asrwt>0</asrwt>
<pdfrwt beam="1">  1        2 0.15509283E+00 0.47500502E+03</pdfrwt>
<pdfrwt beam="2">  1       -2 0.10637672E-01 0.47500502E+03</pdfrwt>
<totfact> 0.15568019E+03</totfact>
</mgrwt>
</event>
<event>
 5    0  0.6041737E-002  0.6962256E+03  0.7546771E-02  0.9723709E-01
         -2   -1    0    0    0  501 -0.00000000000E+00  0.00000000000E+00  0.35474966090E+02  0.35474966090E+02  0.00000000000E+00 0. -1.
          2   -1    0    0  503    0  0.00000000000E+00 -0.00000000000E+00 -0.34160008883E+04  0.34160008883E+04  0.00000000000E+00 0.  1.
         25    1    1    2    0    0 -0.23937041046E+03  0.22362742483E+03 -0.19152513236E+04  0.19470798779E+04  0.12500000000E+03 0.  0.
         21    1    1    2  502  501  0.15129148993E+03 -0.18351406177E+03 -0.89998202059E+03  0.93087816774E+03  0.00000000000E+00 0.  1.
         21    1    1    2  503  502  0.88078920535E+02 -0.40113363066E+02 -0.56529257806E+03  0.57351780875E+03  0.00000000000E+00 0.  1.
<mgrwt>
<rscale>  4 0.69622558E+03</rscale>
<asrwt>0</asrwt>
<pdfrwt beam="1">  1        2 0.52553853E+00 0.69622558E+03</pdfrwt>
<pdfrwt beam="2">  1       -2 0.54576878E-02 0.69622558E+03</pdfrwt>
<totfact> 0.18084000E+02</totfact>
</mgrwt>
</event>
<event>
 5    0  0.6041737E-002  0.1150148E+04  0.7546771E-02  0.9157647E-01
          1   -1    0    0  503    0  0.00000000000E+00  0.00000000000E+00  0.95494876982E+03  0.95494876982E+03  0.00000000000E+00 0. -1.
         -1   -1    0    0    0  501 -0.00000000000E+00 -0.00000000000E+00 -0.34631194025E+03  0.34631194025E+03  0.00000000000E+00 0.  1.
         25    1    1    2    0    0 -0.22349486000E+03  0.16628987988E+03 -0.24660224163E+03  0.39247922515E+03  0.12500000000E+03 0.  0.
         21    1    1    2  502  501  0.12027460212E+03 -0.21837570491E+02  0.25413018689E+03  0.28200179306E+03  0.00000000000E+00 0. -1.
         21    1    1    2  503  502  0.10322025788E+03 -0.14445230939E+03  0.60110888431E+03  0.62677969186E+03  0.00000000000E+00 0. -1.
<mgrwt>
<rscale>  4 0.11501481E+04</rscale>
<asrwt>0</asrwt>
<pdfrwt beam="1">  1        1 0.14691519E+00 0.11501481E+04</pdfrwt>
<pdfrwt beam="2">  1       -1 0.53278761E-01 0.11501481E+04</pdfrwt>
<totfact> 0.57950895E+01</totfact>
</mgrwt>
</event>
<event>
 5    0  0.6041737E-002  0.4168966E+03  0.7546771E-02  0.1038081E+00
          2   -1    0    0  503    0  0.00000000000E+00  0.00000000000E+00  0.12656812339E+04  0.12656812339E+04  0.00000000000E+00 0.  1.
         -2   -1    0    0    0  501 -0.00000000000E+00 -0.00000000000E+00 -0.48063002445E+02  0.48063002445E+02  0.00000000000E+00 0. -1.
         25    1    1    2    0    0 -0.87200030889E+02 -0.19569614313E+03  0.61825777784E+03  0.66615951970E+03  0.12500000000E+03 0.  0.
         21    1    1    2  502  501  0.33432552382E+02  0.39904741819E+02  0.43608083497E+02  0.67910153325E+02  0.00000000000E+00 0. -1.
         21    1    1    2  503  502  0.53767478507E+02  0.15579140132E+03  0.55575237006E+03  0.57967456327E+03  0.00000000000E+00 0. -1.
<mgrwt>
<rscale>  4 0.41689655E+03</rscale>
<asrwt>0</asrwt>
<pdfrwt beam="1">  1        2 0.19472016E+00 0.41689655E+03</pdfrwt>
<pdfrwt beam="2">  1       -2 0.73943090E-02 0.41689655E+03</pdfrwt>
<totfact> 0.19583911E+03</totfact>
</mgrwt>
</event>
<event>
 5    0  0.6041737E-002  0.7686955E+03  0.7546771E-02  0.9606468E-01
          1   -1    0    0  503    0  0.00000000000E+00  0.00000000000E+00  0.14861919769E+03  0.14861919769E+03  0.00000000000E+00 0. -1.
         -1   -1    0    0    0  501 -0.00000000000E+00 -0.00000000000E+00 -0.99397116618E+03  0.99397116618E+03  0.00000000000E+00 0.  1.
         25    1    1    2    0    0 -0.18118427221E+03 -0.30717655576E+03 -0.31579526034E+03  0.49248027713E+03  0.12500000000E+03 0.  0.
         21    1    1    2  502  501  0.23713247168E+02  0.57369923967E+02 -0.19115292001E+03  0.20098026046E+03  0.00000000000E+00 0.  1.
         21    1    1    2  503  502  0.15747102504E+03  0.24980663180E+03 -0.33840378814E+03  0.44912982627E+03  0.00000000000E+00 0. -1.
<mgrwt>
<rscale>  4 0.76869551E+03</rscale>
<asrwt>0</asrwt>
<pdfrwt beam="1">  1        1 0.22864493E-01 0.76869551E+03</pdfrwt>
<pdfrwt beam="2">  1       -1 0.15291864E+00 0.76869551E+03</pdfrwt>
<totfact> 0.73941349E+01</totfact>
</mgrwt>
</event>
<event>
 5    0  0.6041737E-002  0.5048209E+03  0.7546771E-02  0.1012528E+00
         -2   -1    0    0    0  501 -0.00000000000E+00  0.00000000000E+00  0.11551454058E+03  0.11551454058E+03  0.00000000000E+00 0. -1.
          2   -1    0    0  503    0  0.00000000000E+00 -0.00000000000E+00 -0.55154130869E+03  0.55154130869E+03  0.00000000000E+00 0.  1.
         25    1    1    2    0    0  0.21935106649E+03 -0.72304754769E+02 -0.20506335848E+03  0.33319491131E+03  0.12500000000E+03 0.  0.
         21    1    1    2  502  501 -0.17128713931E+03  0.84530137954E+02 -0.19157169657E+03  0.27052604910E+03  0.00000000000E+00 0. -1.
         21    1    1    2  503  502 -0.48063927179E+02 -0.12225383186E+02 -0.39391713056E+02  0.63334888864E+02  0.00000000000E+00 0. -1.
<mgrwt>
<rscale>  4 0.50482092E+03</rscale>
<asrwt>0</asrwt>
<pdfrwt beam="1">  1        2 0.84852509E-01 0.50482092E+03</pdfrwt>
<pdfrwt beam="2">  1       -2 0.17771468E-01 0.50482092E+03</pdfrwt>
<totfact> 0.14382282E+03</totfact>
</mgrwt>
</event>
<event>
 5    0  0.6041737E-002  0.7516962E+03  0.7546771E-02  0.9632693E-01
          2   -1    0    0  503    0  0.00000000000E+00  0.00000000000E+00  0.55334480481E+03  0.55334480481E+03  0.00000000000E+00 0. -1.
         -2   -1    0    0    0  501 -0.00000000000E+00 -0.00000000000E+00 -0.25528710918E+03  0.25528710918E+03  0.00000000000E+00 0.  1.
         25    1    1    2    0    0  0.29224803475E+03 -0.64374548102E+02 -0.71184579860E+02  0.33203198741E+03  0.12500000000E+03 0.  0.
         21    1    1    2  502  501 -0.23334857334E+02  0.13204353944E+02  0.43639346747E+02  0.51217800757E+02  0.00000000000E+00 0. -1.
         21    1    1    2  503  502 -0.26891317741E+03  0.51170194158E+02  0.32560292875E+03  0.42538212582E+03  0.00000000000E+00 0. -1.
<mgrwt>
<rscale>  4 0.75169620E+03</rscale>
<asrwt>0</asrwt>
<pdfrwt beam="1">  1        2 0.85129969E-01 0.75169620E+03</pdfrwt>
<pdfrwt beam="2">  1       -2 0.39274940E-01 0.75169620E+03</pdfrwt>
<totfact> 0.33739436E+02</totfact>
</mgrwt>
</event>
<event>
 5    0  0.6041737E-002  0.5499930E+03  0.7546771E-02  0.1001496E+00
         -1   -1    0    0    0  501 -0.00000000000E+00  0.00000000000E+00  0.55342262644E+02  0.55342262644E+02  0.00000000000E+00 0. -1.
          1   -1    0    0  503    0  0.00000000000E+00 -0.00000000000E+00 -0.13664613936E+04  0.13664613936E+04  0.00000000000E+00 0.  1.
         25    1    1    2    0    0 -0.33674028929E+02  0.23257659188E+03 -0.96362883281E+03  0.99971562894E+03  0.12500000000E+03 0.  0.
         21    1    1    2  502  501  0.35533395139E+02 -0.16409259311E+03 -0.21359147362E+03  0.27168054565E+03  0.00000000000E+00 0. -1.
         21    1    1    2  503  502 -0.18593662100E+01 -0.68483998772E+02 -0.13389882457E+03  0.15040748170E+03  0.00000000000E+00 0. -1.
<mgrwt>
<rscale>  4 0.54999296E+03</rscale>
<asrwt>0</asrwt>
<pdfrwt beam="1">  1        1 0.21022480E+00 0.54999296E+03</pdfrwt>
<pdfrwt beam="2">  1       -1 0.85141954E-02 0.54999296E+03</pdfrwt>
<totfact> 0.67591843E+02</totfact>
</mgrwt>
</event>
<event>
 5    0  0.6041737E-002  0.8336021E+03  0.7546771E-02  0.9512614E-01
          1   -1    0    0  503    0  0.00000000000E+00  0.00000000000E+00  0.60122019959E+03  0.60122019959E+03  0.00000000000E+00 0. -1.
         -1   -1    0    0    0  501 -0.00000000000E+00 -0.00000000000E+00 -0.28895087803E+03  0.28895087803E+03  0.00000000000E+00 0.  1.
         25    1    1    2    0    0  0.13847242462E+03 -0.18650907050E+03  0.51096196631E+03  0.57503684819E+03  0.12500000000E+03 0.  0.
         21    1    1    2  502  501 -0.54848617386E+02  0.51805241591E+02 -0.23889974238E+02  0.79138389891E+02  0.00000000000E+00 0.  1.
         21    1    1    2  503  502 -0.83623807232E+02  0.13470382891E+03 -0.17480267051E+03  0.23599583953E+03  0.00000000000E+00 0.  1.
<mgrwt>
<rscale>  4 0.83360207E+03</rscale>
<asrwt>0</asrwt>
<pdfrwt beam="1">  1        1 0.92495415E-01 0.83360207E+03</pdfrwt>
<pdfrwt beam="2">  1       -1 0.44453981E-01 0.83360207E+03</pdfrwt>
<totfact> 0.17278942E+02</totfact>
</mgrwt>
</event>
<event>
 5    0  0.6041737E-002  0.7763468E+03  0.7546771E-02  0.9594900E-01
          2   -1    0    0  503    0  0.00000000000E+00  0.00000000000E+00  0.17105217792E+04  0.17105217792E+04  0.00000000000E+00 0. -1.
         -2   -1    0    0    0  501 -0.00000000000E+00 -0.00000000000E+00 -0.88089265769E+02  0.88089265769E+02  0.00000000000E+00 0.  1.
         25    1    1    2    0    0  0.28509132939E+03  0.23214811234E+03  0.64082185354E+03  0.74929797820E+03  0.12500000000E+03 0.  0.
         21    1    1    2  502  501 -0.19011260695E+02 -0.87507072196E+01  0.32947970573E+02  0.39032956267E+02  0.00000000000E+00 0.  1.
         21    1    1    2  503  502 -0.26608006869E+03 -0.22339740512E+03  0.94866268929E+03  0.10102801105E+04  0.00000000000E+00 0.  1.
<mgrwt>
<rscale>  4 0.77634685E+03</rscale>
<asrwt>0</asrwt>
<pdfrwt beam="1">  1        2 0.26315717E+00 0.77634685E+03</pdfrwt>
<pdfrwt beam="2">  1       -2 0.13552196E-01 0.77634685E+03</pdfrwt>
<totfact> 0.40821662E+02</totfact>
</mgrwt>
</event>
<event>
 5    0  0.6041737E-002  0.5527082E+03  0.7546771E-02  0.1000869E+00
          2   -1    0    0  503    0  0.00000000000E+00  0.00000000000E+00  0.20217704067E+03  0.20217704067E+03  0.00000000000E+00 0. -1.
         -2   -1    0    0    0  501 -0.00000000000E+00 -0.00000000000E+00 -0.37774608426E+03  0.37774608426E+03  0.00000000000E+00 0.  1.
         25    1    1    2    0    0 -0.18250147835E+03  0.17908860490E+03 -0.77511841698E+02  0.29497898842E+03  0.12500000000E+03 0.  0.
         21    1    1    2  502  501  0.71561450367E+02 -0.10991527884E+03 -0.78213084249E+02  0.15270787880E+03  0.00000000000E+00 0. -1.
         21    1    1    2  503  502  0.11094002799E+03 -0.69173326062E+02 -0.19844117644E+02  0.13223625771E+03  0.00000000000E+00 0. -1.
<mgrwt>
<rscale>  4 0.55270819E+03</rscale>
<asrwt>0</asrwt>
<pdfrwt beam="1">  1        2 0.31104160E-01 0.55270819E+03</pdfrwt>
<pdfrwt beam="2">  1       -2 0.58114782E-01 0.55270819E+03</pdfrwt>
<totfact> 0.47743519E+02</totfact>
</mgrwt>
</event>
<event>
 5    0  0.6041737E-002  0.5663168E+03  0.7546771E-02  0.9977862E-01
          2   -1    0    0  503    0  0.00000000000E+00  0.00000000000E+00  0.23491987795E+04  0.23491987795E+04  0.00000000000E+00 0.  1.
         -2   -1    0    0    0  501 -0.00000000000E+00 -0.00000000000E+00 -0.34130219530E+02  0.34130219530E+02  0.00000000000E+00 0. -1.
         25    1    1    2    0    0  0.12449117219E+03 -0.22236537839E+03  0.14925239289E+04  0.15192751863E+04  0.12500000000E+03 0.  0.
         21    1    1    2  502  501 -0.22038882314E+02  0.42450441378E+01  0.50245339980E+02  0.55030236444E+02  0.00000000000E+00 0. -1.
         21    1    1    2  503  502 -0.10245228988E+03  0.21812033426E+03  0.77229929110E+03  0.80902357626E+03  0.00000000000E+00 0. -1.
<mgrwt>
<rscale>  4 0.56631677E+03</rscale>
<asrwt>0</asrwt>
<pdfrwt beam="1">  1        2 0.36141507E+00 0.56631677E+03</pdfrwt>
<pdfrwt beam="2">  1       -2 0.52508048E-02 0.56631677E+03</pdfrwt>
<totfact> 0.85188261E+02</totfact>
</mgrwt>
</event>
<event>
 5    0  0.6041737E-002  0.5050683E+03  0.7546771E-02  0.1012464E+00
         -2   -1    0    0    0  501 -0.00000000000E+00  0.00000000000E+00  0.33020597588E+02  0.33020597588E+02  0.00000000000E+00 0.  1.
          2   -1    0    0  503    0  0.00000000000E+00 -0.00000000000E+00 -0.19313248831E+04  0.19313248831E+04  0.00000000000E+00 0. -1.
         25    1    1    2    0    0 -0.91756314595E+02 -0.21554938442E+03 -0.88956115996E+03  0.92834520288E+03  0.12500000000E+03 0.  0.
         21    1    1    2  502  501  0.78962758985E+00  0.21792669855E+02 -0.10717926186E+03  0.10937521723E+03  0.00000000000E+00 0. -1.
         21    1    1    2  503  502  0.90966687005E+02  0.19375671457E+03 -0.90156386370E+03  0.92662506059E+03  0.00000000000E+00 0. -1.
<mgrwt>
<rscale>  4 0.50506832E+03</rscale>
<asrwt>0</asrwt>
<pdfrwt beam="1">  1        2 0.29712691E+00 0.50506832E+03</pdfrwt>
<pdfrwt beam="2">  1       -2 0.50800918E-02 0.50506832E+03</pdfrwt>
<totfact> 0.15194971E+03</totfact>
</mgrwt>
</event>
<event>
 5    0  0.6041737E-002  0.5534703E+03  0.7546771E-02  0.1000694E+00
          1   -1    0    0  503    0  0.00000000000E+00  0.00000000000E+00  0.31732106065E+03  0.31732106065E+03  0.00000000000E+00 0. -1.
         -1   -1    0    0    0  501 -0.00000000000E+00 -0.00000000000E+00 -0.41000204935E+03  0.41000204935E+03  0.00000000000E+00 0.  1.
         25    1    1    2    0    0 -0.17808239604E+03 -0.17516564613E+03  0.19186365380E+02  0.27998117790E+03  0.12500000000E+03 0.  0.
         21    1    1    2  502  501  0.48482522933E+02  0.12211954850E+02  0.12341876986E+03  0.13316110402E+03  0.00000000000E+00 0. -1.
         21    1    1    2  503  502  0.12959987311E+03  0.16295369128E+03 -0.23528612394E+03  0.31418082807E+03  0.00000000000E+00 0. -1.
<mgrwt>
<rscale>  4 0.55347031E+03</rscale>
<asrwt>0</asrwt>
<pdfrwt beam="1">  1        1 0.48818625E-01 0.55347031E+03</pdfrwt>
<pdfrwt beam="2">  1       -1 0.63077238E-01 0.55347031E+03</pdfrwt>
<totfact> 0.21236084E+02</totfact>
</mgrwt>
</event>
<event>
 5    0  0.6041737E-002  0.6393145E+03  0.7546771E-02  0.9827039E-01
          2   -1    0    0  503    0  0.00000000000E+00  0.00000000000E+00  0.89160081755E+03  0.89160081755E+03  0.00000000000E+00 0. -1.
         -2   -1    0    0    0  501 -0.00000000000E+00 -0.00000000000E+00 -0.11460372291E+03  0.11460372291E+03  0.00000000000E+00 0.  1.
         25    1    1    2    0    0  0.74930365972E+02 -0.28168804514E+03  0.26316122208E+03  0.41211836082E+03  0.12500000000E+03 0.  0.
         21    1    1    2  502  501 -0.38627098170E+02  0.22948340219E+03  0.42915900277E+03  0.48819272245E+03  0.00000000000E+00 0. -1.
         21    1    1    2  503  502 -0.36303267802E+02  0.52204642941E+02  0.84676869787E+02  0.10589345719E+03  0.00000000000E+00 0.  1.
<mgrwt>
<rscale>  4 0.63931455E+03</rscale>
<asrwt>0</asrwt>
<pdfrwt beam="1">  1        2 0.13716935E+00 0.63931455E+03</pdfrwt>
<pdfrwt beam="2">  1       -2 0.17631343E-01 0.63931455E+03</pdfrwt>
<totfact> 0.79474291E+02</totfact>
</mgrwt>
</event>
<event>
 5    0  0.6041737E-002  0.4833184E+03  0.7546771E-02  0.1018227E+00
         -1   -1    0    0    0  501 -0.00000000000E+00  0.00000000000E+00  0.91810689661E+02  0.91810689661E+02  0.00000000000E+00 0. -1.
          1   -1    0    0  503    0  0.00000000000E+00 -0.00000000000E+00 -0.63608255478E+03  0.63608255478E+03  0.00000000000E+00 0.  1.
         25    1    1    2    0    0  0.19943942469E+03  0.88281390231E+02 -0.29511660232E+03  0.38767060366E+03  0.12500000000E+03 0.  0.
         21    1    1    2  502  501 -0.12097941628E+03 -0.14385537732E+02 -0.10945863882E+03  0.16378081839E+03  0.00000000000E+00 0.  1.
         21    1    1    2  503  502 -0.78460008407E+02 -0.73895852499E+02 -0.13969662398E+03  0.17644182238E+03  0.00000000000E+00 0.  1.
<mgrwt>
<rscale>  4 0.48331844E+03</rscale>
<asrwt>0</asrwt>
<pdfrwt beam="1">  1        1 0.97858850E-01 0.48331844E+03</pdfrwt>
<pdfrwt beam="2">  1       -1 0.14124722E-01 0.48331844E+03</pdfrwt>
<totfact> 0.11463560E+03</totfact>
</mgrwt>
</event>
<event>
 5    0  0.6041737E-002  0.6166152E+03  0.7546771E-02  0.9871522E-01
          2   -1    0    0  503    0  0.00000000000E+00  0.00000000000E+00  0.40755667400E+03  0.40755667400E+03  0.00000000000E+00 0.  1.
         -2   -1    0    0    0  501 -0.00000000000E+00 -0.00000000000E+00 -0.23322788105E+03  0.23322788105E+03  0.00000000000E+00 0. -1.
         25    1    1    2    0    0  0.28252645280E+03 -0.61603439156E+02  0.56763114957E+02  0.32009878392E+03  0.12500000000E+03 0.  0.
         21    1    1    2  502  501 -0.24282183590E+03  0.28154001097E+02  0.82327045338E+02  0.25793959402E+03  0.00000000000E+00 0. -1.
         21    1    1    2  503  502 -0.39704616903E+02  0.33449438058E+02  0.35238632662E+02  0.62746177108E+02  0.00000000000E+00 0. -1.
<mgrwt>
<rscale>  4 0.61661521E+03</rscale>
<asrwt>0</asrwt>
<pdfrwt beam="1">  1        2 0.62701027E-01 0.61661521E+03</pdfrwt>
<pdfrwt beam="2">  1       -2 0.35881213E-01 0.61661521E+03</pdfrwt>
<totfact> 0.57261895E+02</totfact>
</mgrwt>
</event>
<event>
 5    0  0.6041737E-002  0.6577049E+03  0.7546771E-02  0.9792428E-01
         -2   -1    0    0    0  501 -0.00000000000E+00  0.00000000000E+00  0.22447148570E+03  0.22447148570E+03  0.00000000000E+00 0.  1.
          2   -1    0    0  503    0  0.00000000000E+00 -0.00000000000E+00 -0.48177137361E+03  0.48177137361E+03  0.00000000000E+00 0. -1.
         25    1    1    2    0    0 -0.19780271808E+03 -0.33255024388E+02 -0.39241588916E+03  0.45809064823E+03  0.12500000000E+03 0.  0.
         21    1    1    2  502  501  0.10990061488E+03  0.34665086087E+02  0.49440383749E+02  0.12539603219E+03  0.00000000000E+00 0.  1.
         21    1    1    2  503  502  0.87902103210E+02 -0.14100616995E+01  0.85675617504E+02  0.12275617890E+03  0.00000000000E+00 0.  1.
<mgrwt>
<rscale>  4 0.65770491E+03</rscale>
<asrwt>0</asrwt>
<pdfrwt beam="1">  1        2 0.74118673E-01 0.65770491E+03</pdfrwt>
<pdfrwt beam="2">  1       -2 0.34534075E-01 0.65770491E+03</pdfrwt>
<totfact> 0.50891683E+02</totfact>
</mgrwt>
</event>
<event>
 5    0  0.6041737E-002  0.1258042E+04  0.7546771E-02  0.9063516E-01
          1   -1    0    0  503    0  0.00000000000E+00  0.00000000000E+00  0.34567805214E+03  0.34567805214E+03  0.00000000000E+00 0. -1.
         -1   -1    0    0    0  501 -0.00000000000E+00 -0.00000000000E+00 -0.11446124495E+04  0.11446124495E+04  0.00000000000E+00 0.  1.
         25    1    1    2    0    0 -0.31086526067E+03  0.53758234887E+03 -0.37415375647E+03  0.73569560661E+03  0.12500000000E+03 0.  0.
         21    1    1    2  502  501  0.29673987830E+03 -0.52095976055E+03 -0.42065049896E+03  0.73239365765E+03  0.00000000000E+00 0.  1.
         21    1    1    2  503  502  0.14125382363E+02 -0.16622588320E+02 -0.41301419303E+01  0.22201237392E+02  0.00000000000E+00 0.  1.
<mgrwt>
<rscale>  4 0.12580420E+04</rscale>
<asrwt>0</asrwt>
<pdfrwt beam="1">  1        1 0.53181238E-01 0.12580420E+04</pdfrwt>
<pdfrwt beam="2">  1       -1 0.17609422E+00 0.12580420E+04</pdfrwt>
<totfact> 0.15933894E+01</totfact>
</mgrwt>
</event>
<event>
 5    0  0.6041737E-002  0.6813783E+03  0.7546771E-02  0.9749619E-01
          1   -1    0    0  503    0  0.00000000000E+00  0.00000000000E+00  0.14026649152E+04  0.14026649152E+04  0.00000000000E+00 0. -1.
         -1   -1    0    0    0  501 -0.00000000000E+00 -0.00000000000E+00 -0.82748993080E+02  0.82748993080E+02  0.00000000000E+00 0.  1.
         25    1    1    2    0    0  0.17265896800E+03  0.18491820890E+03  0.23571132678E+03  0.36768286985E+03  0.12500000000E+03 0.  0.
         21    1    1    2  502  501 -0.81970711153E+02 -0.12581595418E+03  0.79224682005E+03  0.80635220326E+03  0.00000000000E+00 0. -1.
         21    1    1    2  503  502 -0.90688256846E+02 -0.59102254713E+02  0.29195777533E+03  0.31137883522E+03  0.00000000000E+00 0. -1.
<mgrwt>
<rscale>  4 0.68137834E+03</rscale>
<asrwt>0</asrwt>
<pdfrwt beam="1">  1        1 0.21579458E+00 0.68137834E+03</pdfrwt>
<pdfrwt beam="2">  1       -1 0.12730615E-01 0.68137834E+03</pdfrwt>
<totfact> 0.33492869E+02</totfact>
</mgrwt>
</event>
<event>
 5    0  0.6041737E-002  0.7335749E+03  0.7546771E-02  0.9661477E-01
         -1   -1    0    0    0  501 -0.00000000000E+00  0.00000000000E+00  0.48466979735E+02  0.48466979735E+02  0.00000000000E+00 0. -1.
          1   -1    0    0  503    0  0.00000000000E+00 -0.00000000000E+00 -0.27757671797E+04  0.27757671797E+04  0.00000000000E+00 0.  1.
         25    1    1    2    0    0  0.22676695350E+03 -0.11046519180E+03 -0.23261801332E+04  0.23431527526E+04  0.12500000000E+03 0.  0.
         21    1    1    2  502  501 -0.41883976952E+02  0.48918526854E+02 -0.14990445038E+03  0.16315218061E+03  0.00000000000E+00 0. -1.
         21    1    1    2  503  502 -0.18488297654E+03  0.61546664951E+02 -0.25121561634E+03  0.31792922621E+03  0.00000000000E+00 0. -1.
<mgrwt>
<rscale>  4 0.73357495E+03</rscale>
<asrwt>0</asrwt>
<pdfrwt beam="1">  1        1 0.42704115E+00 0.73357495E+03</pdfrwt>
<pdfrwt beam="2">  1       -1 0.74564576E-02 0.73357495E+03</pdfrwt>
<totfact> 0.91359818E+01</totfact>
</mgrwt>
</event>
<event>
 5    0  0.6041737E-002  0.5179191E+03  0.7546771E-02  0.1009205E+00
         -2   -1    0    0    0  501 -0.00000000000E+00  0.00000000000E+00  0.12623905317E+04  0.12623905317E+04  0.00000000000E+00 0. -1.
          2   -1    0    0  503    0  0.00000000000E+00 -0.00000000000E+00 -0.53121478484E+02  0.53121478484E+02  0.00000000000E+00 0.  1.
         25    1    1    2    0    0  0.76362818673E+02 -0.20946838123E+03  0.41132834450E+03  0.48427707957E+03  0.12500000000E+03 0.  0.
         21    1    1    2  502  501  0.98086839783E+01  0.30798346994E+02  0.15730707351E+03  0.16059347383E+03  0.00000000000E+00 0.  1.
         21    1    1    2  503  502 -0.86171502651E+02  0.17867003423E+03  0.64063363521E+03  0.67064145679E+03  0.00000000000E+00 0. -1.
<mgrwt>
<rscale>  4 0.51791911E+03</rscale>
<asrwt>0</asrwt>
<pdfrwt beam="1">  1        2 0.81725361E-02 0.51791911E+03</pdfrwt>
<pdfrwt beam="2">  1       -2 0.19421391E+00 0.51791911E+03</pdfrwt>
<totfact> 0.12856615E+02</totfact>
</mgrwt>
</event>
<event>
 5    0  0.6041737E-002  0.5621809E+03  0.7546771E-02  0.9987132E-01
          2   -1    0    0  503    0  0.00000000000E+00  0.00000000000E+00  0.53791147872E+03  0.53791147872E+03  0.00000000000E+00 0. -1.
         -2   -1    0    0    0  501 -0.00000000000E+00 -0.00000000000E+00 -0.14688633527E+03  0.14688633527E+03  0.00000000000E+00 0.  1.
         25    1    1    2    0    0  0.16427488098E+03  0.15267983877E+03  0.37664693448E+03  0.45583471011E+03  0.12500000000E+03 0.  0.
         21    1    1    2  502  501 -0.50591175723E+02 -0.21769380010E+02  0.55677122080E+01  0.55356773626E+02  0.00000000000E+00 0. -1.
         21    1    1    2  503  502 -0.11368370525E+03 -0.13091045876E+03  0.88104967607E+01  0.17360633026E+03  0.00000000000E+00 0.  1.
<mgrwt>
<rscale>  4 0.56218092E+03</rscale>
<asrwt>0</asrwt>
<pdfrwt beam="1">  1        2 0.82755611E-01 0.56218092E+03</pdfrwt>
<pdfrwt beam="2">  1       -2 0.22597898E-01 0.56218092E+03</pdfrwt>
<totfact> 0.97476951E+02</totfact>
</mgrwt>
</event>
<event>
 5    0  0.6041737E-002  0.7336939E+03  0.7546771E-02  0.9661285E-01
         -2   -1    0    0    0  501 -0.00000000000E+00  0.00000000000E+00  0.26921327625E+03  0.26921327625E+03  0.00000000000E+00 0.  1.
          2   -1    0    0  503    0  0.00000000000E+00 -0.00000000000E+00 -0.53769644622E+03  0.53769644622E+03  0.00000000000E+00 0. -1.
         25    1    1    2    0    0  0.14928026357E+03 -0.22822530890E+03 -0.38446500944E+03  0.48765739223E+03  0.12500000000E+03 0.  0.
         21    1    1    2  502  501 -0.12388501627E+03  0.23625646494E+03  0.11964108105E+03  0.29236723954E+03  0.00000000000E+00 0.  1.
         21    1    1    2  503  502 -0.25395247297E+02 -0.80311560461E+01 -0.36592415794E+01  0.26885090694E+02  0.00000000000E+00 0.  1.
<mgrwt>
<rscale>  4 0.73369388E+03</rscale>
<asrwt>0</asrwt>
<pdfrwt beam="1">  1        2 0.82722530E-01 0.73369388E+03</pdfrwt>
<pdfrwt beam="2">  1       -2 0.41417427E-01 0.73369388E+03</pdfrwt>
<totfact> 0.31481110E+02</totfact>
</mgrwt>
</event>
<event>
 5    0  0.6041737E-002  0.5489367E+03  0.7546771E-02  0.1001740E+00
         -1   -1    0    0    0  501 -0.00000000000E+00  0.00000000000E+00  0.49437382167E+02  0.49437382167E+02  0.00000000000E+00 0. -1.
          1   -1    0    0  503    0  0.00000000000E+00 -0.00000000000E+00 -0.15238041161E+04  0.15238041161E+04  0.00000000000E+00 0.  1.
         25    1    1    2    0    0 -0.23037232517E+03  0.62971779445E+02 -0.48920681841E+03  0.55855632159E+03  0.12500000000E+03 0.  0.
         21    1    1    2  502  501  0.73476659773E+02 -0.13888837572E+02 -0.23046318530E+03  0.24229114536E+03  0.00000000000E+00 0.  1.
         21    1    1    2  503  502  0.15689566540E+03 -0.49082941872E+02 -0.75469673022E+03  0.77239403131E+03  0.00000000000E+00 0.  1.
<mgrwt>
<rscale>  4 0.54893674E+03</rscale>
<asrwt>0</asrwt>
<pdfrwt beam="1">  1        1 0.23443142E+00 0.54893674E+03</pdfrwt>
<pdfrwt beam="2">  1       -1 0.76057505E-02 0.54893674E+03</pdfrwt>
<totfact> 0.62898374E+02</totfact>
</mgrwt>
</event>
<event>
 5    0  0.6041737E-002  0.4214859E+03  0.7546771E-02  0.1036584E+00
          1   -1    0    0  503    0  0.00000000000E+00  0.00000000000E+00  0.10926297820E+04  0.10926297820E+04  0.00000000000E+00 0.  1.
         -1   -1    0    0    0  501 -0.00000000000E+00 -0.00000000000E+00 -0.63183479913E+02  0.63183479913E+02  0.00000000000E+00 0. -1.
         25    1    1    2    0    0  0.99775710843E+02 -0.20272794404E+03  0.58390976125E+03  0.63845862908E+03  0.12500000000E+03 0.  0.
         21    1    1    2  502  501  0.23268208067E+02  0.99892434051E+02  0.16919364018E+03  0.19785448128E+03  0.00000000000E+00 0.  1.
         21    1    1    2  503  502 -0.12304391891E+03  0.10283550999E+03  0.27634290071E+03  0.31950015159E+03  0.00000000000E+00 0.  1.
<mgrwt>
<rscale>  4 0.42148592E+03</rscale>
<asrwt>0</asrwt>
<pdfrwt beam="1">  1        1 0.16809688E+00 0.42148592E+03</pdfrwt>
<pdfrwt beam="2">  1       -1 0.97205361E-02 0.42148592E+03</pdfrwt>
<totfact> 0.86553710E+02</totfact>
</mgrwt>
</event>
<event>
 5    0  0.6041737E-002  0.4769575E+03  0.7546771E-02  0.1019975E+00
          2   -1    0    0  503    0  0.00000000000E+00  0.00000000000E+00  0.40628217957E+04  0.40628217957E+04  0.00000000000E+00 0.  1.
         -2   -1    0    0    0  501 -0.00000000000E+00 -0.00000000000E+00 -0.13998179684E+02  0.13998179684E+02  0.00000000000E+00 0. -1.
         25    1    1    2    0    0  0.19715253161E+03  0.92683228179E+02  0.18324433893E+04  0.18495764586E+04  0.12500000000E+03 0.  0.
         21    1    1    2  502  501 -0.18218910897E+03 -0.76846405538E+02  0.19671994766E+04  0.19771120409E+04  0.00000000000E+00 0.  1.
         21    1    1    2  503  502 -0.14963422645E+02 -0.15836822641E+02  0.24918075011E+03  0.25013147581E+03  0.00000000000E+00 0.  1.
<mgrwt>
<rscale>  4 0.47695748E+03</rscale>
<asrwt>0</asrwt>
<pdfrwt beam="1">  1        2 0.62504857E+00 0.47695748E+03</pdfrwt>
<pdfrwt beam="2">  1       -2 0.21535693E-02 0.47695748E+03</pdfrwt>
<totfact> 0.26287978E+02</totfact>
</mgrwt>
</event>
<event>
 5    0  0.6041737E-002  0.5387178E+03  0.7546771E-02  0.1004140E+00
         -2   -1    0    0    0  501 -0.00000000000E+00  0.00000000000E+00  0.70989920930E+03  0.70989920930E+03  0.00000000000E+00 0. -1.
          2   -1    0    0  503    0  0.00000000000E+00 -0.00000000000E+00 -0.10220354569E+03  0.10220354569E+03  0.00000000000E+00 0.  1.
         25    1    1    2    0    0 -0.20957136424E+03 -0.28277477035E+02  0.52872763529E+03  0.58300744827E+03  0.12500000000E+03 0.  0.
         21    1    1    2  502  501  0.17400809051E+03  0.87093971213E+01  0.59771962306E+02  0.18419380185E+03  0.00000000000E+00 0.  1.
         21    1    1    2  503  502  0.35563273725E+02  0.19568079914E+02  0.19196066014E+02  0.44901504874E+02  0.00000000000E+00 0. -1.
<mgrwt>
<rscale>  4 0.53871780E+03</rscale>
<asrwt>0</asrwt>
<pdfrwt beam="1">  1        2 0.15723623E-01 0.53871780E+03</pdfrwt>
<pdfrwt beam="2">  1       -2 0.10921526E+00 0.53871780E+03</pdfrwt>
<totfact> 0.25645796E+02</totfact>
</mgrwt>
</event>
<event>
 5    0  0.6041737E-002  0.6627363E+03  0.7546771E-02  0.9783170E-01
          1   -1    0    0  503    0  0.00000000000E+00  0.00000000000E+00  0.15943513066E+04  0.15943513066E+04  0.00000000000E+00 0. -1.
         -1   -1    0    0    0  501 -0.00000000000E+00 -0.00000000000E+00 -0.84835472924E+02  0.84835472924E+02  0.00000000000E+00 0.  1.
         25    1    1    2    0    0 -0.12175184425E+03 -0.18105957566E+03  0.12786891984E+04  0.13031796298E+04  0.12500000000E+03 0.  0.
         21    1    1    2  502  501  0.58990053410E+02  0.15197737977E+03  0.32859450427E+02  0.16630301815E+03  0.00000000000E+00 0.  1.
         21    1    1    2  503  502  0.62761790837E+02  0.29082195883E+02  0.19796718481E+03  0.20970413150E+03  0.00000000000E+00 0. -1.
<mgrwt>
<rscale>  4 0.66273629E+03</rscale>
<asrwt>0</asrwt>
<pdfrwt beam="1">  1        1 0.24528479E+00 0.66273629E+03</pdfrwt>
<pdfrwt beam="2">  1       -1 0.13051612E-01 0.66273629E+03</pdfrwt>
<totfact> 0.23835123E+02</totfact>
</mgrwt>
</event>
<event>
 5    0  0.6041737E-002  0.5061266E+03  0.7546771E-02  0.1012192E+00
          1   -1    0    0  503    0  0.00000000000E+00  0.00000000000E+00  0.14118809942E+04  0.14118809942E+04  0.00000000000E+00 0. -1.
         -1   -1    0    0    0  501 -0.00000000000E+00 -0.00000000000E+00 -0.45358664240E+02  0.45358664240E+02  0.00000000000E+00 0.  1.
         25    1    1    2    0    0  0.60015962075E+02 -0.21892009285E+03  0.90237404994E+03  0.93884601973E+03  0.12500000000E+03 0.  0.
         21    1    1    2  502  501 -0.34267939402E+02  0.56852875258E+02  0.14752367841E+03  0.16177075381E+03  0.00000000000E+00 0.  1.
         21    1    1    2  503  502 -0.25748022673E+02  0.16206721760E+03  0.31662460160E+03  0.35662288489E+03  0.00000000000E+00 0.  1.
<mgrwt>
<rscale>  4 0.50612661E+03</rscale>
<asrwt>0</asrwt>
<pdfrwt beam="1">  1        1 0.21721243E+00 0.50612661E+03</pdfrwt>
<pdfrwt beam="2">  1       -1 0.69782571E-02 0.50612661E+03</pdfrwt>
<totfact> 0.85855774E+02</totfact>
</mgrwt>
</event>
<event>
 5    0  0.6041737E-002  0.4958726E+03  0.7546771E-02  0.1014862E+00
          1   -1    0    0  503    0  0.00000000000E+00  0.00000000000E+00  0.29698799100E+03  0.29698799100E+03  0.00000000000E+00 0. -1.
         -1   -1    0    0    0  501 -0.00000000000E+00 -0.00000000000E+00 -0.20698617484E+03  0.20698617484E+03  0.00000000000E+00 0.  1.
         25    1    1    2    0    0 -0.19969960598E+03 -0.91981104057E+02 -0.97673465266E+01  0.25310246382E+03  0.12500000000E+03 0.  0.
         21    1    1    2  502  501  0.26039667272E+02  0.36080687455E+00  0.35994343634E+02  0.44427325227E+02  0.00000000000E+00 0. -1.
         21    1    1    2  503  502  0.17365993871E+03  0.91620297182E+02  0.63774819048E+02  0.20644437680E+03  0.00000000000E+00 0.  1.
<mgrwt>
<rscale>  4 0.49587260E+03</rscale>
<asrwt>0</asrwt>
<pdfrwt beam="1">  1        1 0.45690460E-01 0.49587260E+03</pdfrwt>
<pdfrwt beam="2">  1       -1 0.31844027E-01 0.49587260E+03</pdfrwt>
<totfact> 0.82008281E+02</totfact>
</mgrwt>
</event>
<event>
 5    0  0.6041737E-002  0.6194401E+03  0.7546771E-02  0.9865875E-01
         -2   -1    0    0    0  501 -0.00000000000E+00  0.00000000000E+00  0.22564409063E+03  0.22564409063E+03  0.00000000000E+00 0. -1.
          2   -1    0    0  503    0  0.00000000000E+00 -0.00000000000E+00 -0.49463304070E+03  0.49463304070E+03  0.00000000000E+00 0.  1.
         25    1    1    2    0    0  0.11906413957E+03 -0.17260101493E+03  0.11079840487E+03  0.26808331952E+03  0.12500000000E+03 0.  0.
         21    1    1    2  502  501 -0.47187432075E+02  0.11938561439E+02 -0.21912537721E+02  0.53379231022E+02  0.00000000000E+00 0.  1.
         21    1    1    2  503  502 -0.71876707497E+02  0.16066245349E+03 -0.35787481722E+03  0.39881458078E+03  0.00000000000E+00 0.  1.
<mgrwt>
<rscale>  4 0.61944011E+03</rscale>
<asrwt>0</asrwt>
<pdfrwt beam="1">  1        2 0.76097390E-01 0.61944011E+03</pdfrwt>
<pdfrwt beam="2">  1       -2 0.34714476E-01 0.61944011E+03</pdfrwt>
<totfact> 0.48929416E+02</totfact>
</mgrwt>
</event>
<event>
 5    0  0.6041737E-002  0.6564200E+03  0.7546771E-02  0.9794806E-01
         -2   -1    0    0    0  501 -0.00000000000E+00  0.00000000000E+00  0.48523901787E+03  0.48523901787E+03  0.00000000000E+00 0. -1.
          2   -1    0    0  503    0  0.00000000000E+00 -0.00000000000E+00 -0.22199744042E+03  0.22199744042E+03  0.00000000000E+00 0.  1.
         25    1    1    2    0    0  0.28302664296E+03 -0.12557978106E+03  0.15840174500E+03  0.36958148608E+03  0.12500000000E+03 0.  0.
         21    1    1    2  502  501 -0.10726318175E+03  0.45525918607E+01  0.40804208224E+02  0.11485251265E+03  0.00000000000E+00 0.  1.
         21    1    1    2  503  502 -0.17576346120E+03  0.12102718919E+03  0.64035624231E+02  0.22280245957E+03  0.00000000000E+00 0.  1.
<mgrwt>
<rscale>  4 0.65642005E+03</rscale>
<asrwt>0</asrwt>
<pdfrwt beam="1">  1        2 0.34153453E-01 0.65642005E+03</pdfrwt>
<pdfrwt beam="2">  1       -2 0.74652156E-01 0.65642005E+03</pdfrwt>
<totfact> 0.25064461E+02</totfact>
</mgrwt>
</event>
<event>
 5    0  0.6041737E-002  0.7100456E+03  0.7546771E-02  0.9700205E-01
          2   -1    0    0  503    0  0.00000000000E+00  0.00000000000E+00  0.52077049421E+03  0.52077049421E+03  0.00000000000E+00 0.  1.
         -2   -1    0    0    0  501 -0.00000000000E+00 -0.00000000000E+00 -0.24202830815E+03  0.24202830815E+03  0.00000000000E+00 0. -1.
         25    1    1    2    0    0  0.10352209781E+02  0.32796108467E+03  0.24176896282E+03  0.42631311578E+03  0.12500000000E+03 0.  0.
         21    1    1    2  502  501 -0.21073020952E+02 -0.30061434118E+03  0.18784296793E+02  0.30193692080E+03  0.00000000000E+00 0.  1.
         21    1    1    2  503  502  0.10720811171E+02 -0.27346743490E+02  0.18188926450E+02  0.34548765782E+02  0.00000000000E+00 0.  1.
<mgrwt>
<rscale>  4 0.71004564E+03</rscale>
<asrwt>0</asrwt>
<pdfrwt beam="1">  1        2 0.80118537E-01 0.71004564E+03</pdfrwt>
<pdfrwt beam="2">  1       -2 0.37235124E-01 0.71004564E+03</pdfrwt>
<totfact> 0.40221710E+02</totfact>
</mgrwt>
</event>
<event>
 5    0  0.6041737E-002  0.8151129E+03  0.7546771E-02  0.9538396E-01
         -1   -1    0    0    0  501 -0.00000000000E+00  0.00000000000E+00  0.63613507501E+02  0.63613507501E+02  0.00000000000E+00 0. -1.
          1   -1    0    0  503    0  0.00000000000E+00 -0.00000000000E+00 -0.33076416726E+04  0.33076416726E+04  0.00000000000E+00 0.  1.
         25    1    1    2    0    0 -0.29040400413E+03 -0.14860978999E+03 -0.25329777199E+04  0.25569553154E+04  0.12500000000E+03 0.  0.
         21    1    1    2  502  501  0.31591699054E+03  0.96267279035E+02 -0.65463152629E+03  0.73322122796E+03  0.00000000000E+00 0. -1.
         21    1    1    2  503  502 -0.25512986408E+02  0.52342510953E+02 -0.56418918903E+02  0.81078636757E+02  0.00000000000E+00 0. -1.
<mgrwt>
<rscale>  4 0.81511286E+03</rscale>
<asrwt>0</asrwt>
<pdfrwt beam="1">  1        1 0.50886814E+00 0.81511286E+03</pdfrwt>
<pdfrwt beam="2">  1       -1 0.97866899E-02 0.81511286E+03</pdfrwt>
<totfact> 0.24346096E+01</totfact>
</mgrwt>
</event>
<event>
 5    0  0.6041737E-002  0.5927281E+03  0.7546771E-02  0.9920609E-01
         -1   -1    0    0    0  501 -0.00000000000E+00  0.00000000000E+00  0.25440484277E+03  0.25440484277E+03  0.00000000000E+00 0. -1.
          1   -1    0    0  503    0  0.00000000000E+00 -0.00000000000E+00 -0.34524365534E+03  0.34524365534E+03  0.00000000000E+00 0.  1.
         25    1    1    2    0    0  0.19952988787E+03 -0.16776181144E+03  0.16511000672E+02  0.28957523145E+03  0.12500000000E+03 0.  0.
         21    1    1    2  502  501 -0.11279352681E+03  0.94765588857E+02 -0.12762072973E+03  0.19491010025E+03  0.00000000000E+00 0.  1.
         21    1    1    2  503  502 -0.86736361054E+02  0.72996222581E+02  0.20270916489E+02  0.11516316640E+03  0.00000000000E+00 0.  1.
<mgrwt>
<rscale>  4 0.59272813E+03</rscale>
<asrwt>0</asrwt>
<pdfrwt beam="1">  1        1 0.53114408E-01 0.59272813E+03</pdfrwt>
<pdfrwt beam="2">  1       -1 0.39139207E-01 0.59272813E+03</pdfrwt>
<totfact> 0.46756227E+02</totfact>
</mgrwt>
</event>
<event>
 5    0  0.6041737E-002  0.4942712E+03  0.7546771E-02  0.1015285E+00
         -2   -1    0    0    0  501 -0.00000000000E+00  0.00000000000E+00  0.14712713776E+03  0.14712713776E+03  0.00000000000E+00 0. -1.
          2   -1    0    0  503    0  0.00000000000E+00 -0.00000000000E+00 -0.54719172924E+03  0.54719172924E+03  0.00000000000E+00 0.  1.
         25    1    1    2    0    0 -0.23293074215E+03  0.78864203088E+01 -0.34333369496E+03  0.43338430101E+03  0.12500000000E+03 0.  0.
         21    1    1    2  502  501  0.20254588399E+03  0.76448998458E+01 -0.81818450249E+02  0.21858073661E+03  0.00000000000E+00 0.  1.
         21    1    1    2  503  502  0.30384858160E+02 -0.15531320155E+02  0.25087553731E+02  0.42353829382E+02  0.00000000000E+00 0. -1.
<mgrwt>
<rscale>  4 0.49427125E+03</rscale>
<asrwt>0</asrwt>
<pdfrwt beam="1">  1        2 0.84183344E-01 0.49427125E+03</pdfrwt>
<pdfrwt beam="2">  1       -2 0.22634944E-01 0.49427125E+03</pdfrwt>
<totfact> 0.95322199E+02</totfact>
</mgrwt>
</event>
<event>
 5    0  0.6041737E-002  0.5885410E+03  0.7546771E-02  0.9929469E-01
         -3   -1    0    0    0  501 -0.00000000000E+00  0.00000000000E+00  0.31672592183E+03  0.31672592183E+03  0.00000000000E+00 0. -1.
          3   -1    0    0  503    0  0.00000000000E+00 -0.00000000000E+00 -0.27340717240E+03  0.27340717240E+03  0.00000000000E+00 0.  1.
         25    1    1    2    0    0  0.55328326690E+02  0.26499799206E+03 -0.48187276726E+02  0.30204664072E+03  0.12500000000E+03 0.  0.
         21    1    1    2  502  501 -0.49768216937E+01 -0.28620818531E+02  0.22508381490E+02  0.36749792446E+02  0.00000000000E+00 0.  1.
         21    1    1    2  503  502 -0.50351504996E+02 -0.23637717353E+03  0.68997644665E+02  0.25133666106E+03  0.00000000000E+00 0. -1.
<mgrwt>
<rscale>  4 0.58854104E+03</rscale>
<asrwt>0</asrwt>
<pdfrwt beam="1">  1        3 0.42062642E-01 0.58854104E+03</pdfrwt>
<pdfrwt beam="2">  1       -3 0.48727065E-01 0.58854104E+03</pdfrwt>
<totfact> 0.61747911E+01</totfact>
</mgrwt>
</event>
<event>
 5    0  0.6041737E-002  0.5275071E+03  0.7546771E-02  0.1006839E+00
         -1   -1    0    0    0  501 -0.00000000000E+00  0.00000000000E+00  0.81365585641E+02  0.81365585641E+02  0.00000000000E+00 0.  1.
          1   -1    0    0  503    0  0.00000000000E+00 -0.00000000000E+00 -0.85497969470E+03  0.85497969470E+03  0.00000000000E+00 0. -1.
         25    1    1    2    0    0  0.13829836528E+03  0.14631696211E+03 -0.66217390091E+03  0.70330247141E+03  0.12500000000E+03 0.  0.
         21    1    1    2  502  501 -0.97707342332E+02 -0.12455961210E+03 -0.80901897982E+02  0.17778340420E+03  0.00000000000E+00 0.  1.
         21    1    1    2  503  502 -0.40591022951E+02 -0.21757350020E+02 -0.30538310171E+02  0.55259404740E+02  0.00000000000E+00 0.  1.
<mgrwt>
<rscale>  4 0.52750706E+03</rscale>
<asrwt>0</asrwt>
<pdfrwt beam="1">  1        1 0.13153533E+00 0.52750706E+03</pdfrwt>
<pdfrwt beam="2">  1       -1 0.12517783E-01 0.52750706E+03</pdfrwt>
<totfact> 0.88435937E+02</totfact>
</mgrwt>
</event>
<event>
 5    0  0.6041737E-002  0.4874693E+03  0.7546771E-02  0.1017102E+00
         -1   -1    0    0    0  501 -0.00000000000E+00  0.00000000000E+00  0.10377537428E+03  0.10377537428E+03  0.00000000000E+00 0.  1.
          1   -1    0    0  503    0  0.00000000000E+00 -0.00000000000E+00 -0.57245354619E+03  0.57245354619E+03  0.00000000000E+00 0. -1.
         25    1    1    2    0    0  0.18676734341E+03  0.11427647879E+03 -0.32672506281E+03  0.41269288925E+03  0.12500000000E+03 0.  0.
         21    1    1    2  502  501 -0.22124442684E+02 -0.29470856535E+01 -0.22284922020E+02  0.31540355536E+02  0.00000000000E+00 0.  1.
         21    1    1    2  503  502 -0.16464290072E+03 -0.11132939314E+03 -0.11966818708E+03  0.23199567568E+03  0.00000000000E+00 0. -1.
<mgrwt>
<rscale>  4 0.48746931E+03</rscale>
<asrwt>0</asrwt>
<pdfrwt beam="1">  1        1 0.88069776E-01 0.48746931E+03</pdfrwt>
<pdfrwt beam="2">  1       -1 0.15965442E-01 0.48746931E+03</pdfrwt>
<totfact> 0.10930006E+03</totfact>
</mgrwt>
</event>
<event>
 5    0  0.6041737E-002  0.5150866E+03  0.7546771E-02  0.1009914E+00
         -2   -1    0    0    0  501 -0.00000000000E+00  0.00000000000E+00  0.61392508154E+02  0.61392508154E+02  0.00000000000E+00 0. -1.
          2   -1    0    0  503    0  0.00000000000E+00 -0.00000000000E+00 -0.10804014175E+04  0.10804014175E+04  0.00000000000E+00 0.  1.
         25    1    1    2    0    0 -0.16125574130E+03 -0.17169635241E+03 -0.63121594244E+03  0.68523106871E+03  0.12500000000E+03 0.  0.
         21    1    1    2  502  501  0.70574700540E+02  0.10994698906E+03 -0.22689666593E+03  0.26182289007E+03  0.00000000000E+00 0. -1.
         21    1    1    2  503  502  0.90681040759E+02  0.61749363351E+02 -0.16089630097E+03  0.19473996687E+03  0.00000000000E+00 0. -1.
<mgrwt>
<rscale>  4 0.51508661E+03</rscale>
<asrwt>0</asrwt>
<pdfrwt beam="1">  1        2 0.16621560E+00 0.51508661E+03</pdfrwt>
<pdfrwt beam="2">  1       -2 0.94450012E-02 0.51508661E+03</pdfrwt>
<totfact> 0.17017583E+03</totfact>
</mgrwt>
</event>
<event>
 5    0  0.6041737E-002  0.6046503E+03  0.7546771E-02  0.9895805E-01
         -1   -1    0    0    0  501 -0.00000000000E+00  0.00000000000E+00  0.89926488609E+02  0.89926488609E+02  0.00000000000E+00 0.  1.
          1   -1    0    0  503    0  0.00000000000E+00 -0.00000000000E+00 -0.10163913832E+04  0.10163913832E+04  0.00000000000E+00 0. -1.
         25    1    1    2    0    0 -0.16646832428E+03 -0.17377896531E+03 -0.77200080758E+03  0.81824267713E+03  0.12500000000E+03 0.  0.
         21    1    1    2  502  501  0.20259532518E+02  0.71640937183E+01 -0.13179444974E+02  0.25208543522E+02  0.00000000000E+00 0.  1.
         21    1    1    2  503  502  0.14620879176E+03  0.16661487160E+03 -0.14128464207E+03  0.26286665119E+03  0.00000000000E+00 0.  1.
<mgrwt>
<rscale>  4 0.60465034E+03</rscale>
<asrwt>0</asrwt>
<pdfrwt beam="1">  1        1 0.15636791E+00 0.60465034E+03</pdfrwt>
<pdfrwt beam="2">  1       -1 0.13834844E-01 0.60465034E+03</pdfrwt>
<totfact> 0.55935202E+02</totfact>
</mgrwt>
</event>
<event>
 5    0  0.6041737E-002  0.7712411E+03  0.7546771E-02  0.9602603E-01
         -1   -1    0    0    0  501 -0.00000000000E+00  0.00000000000E+00  0.35434196021E+03  0.35434196021E+03  0.00000000000E+00 0. -1.
          1   -1    0    0  503    0  0.00000000000E+00 -0.00000000000E+00 -0.41966017022E+03  0.41966017022E+03  0.00000000000E+00 0.  1.
         25    1    1    2    0    0  0.90159399598E+02  0.36133232227E+03 -0.37718901791E+02  0.39463588282E+03  0.12500000000E+03 0.  0.
         21    1    1    2  502  501 -0.96024421253E+02 -0.32865805325E+03 -0.11800187711E+02  0.34260188247E+03  0.00000000000E+00 0. -1.
         21    1    1    2  503  502  0.58650216556E+01 -0.32674269028E+02 -0.15799120509E+02  0.36764365143E+02  0.00000000000E+00 0. -1.
<mgrwt>
<rscale>  4 0.77124110E+03</rscale>
<asrwt>0</asrwt>
<pdfrwt beam="1">  1        1 0.64563103E-01 0.77124110E+03</pdfrwt>
<pdfrwt beam="2">  1       -1 0.54514148E-01 0.77124110E+03</pdfrwt>
<totfact> 0.19366935E+02</totfact>
</mgrwt>
</event>
<event>
 5    0  0.6041737E-002  0.5730154E+03  0.7546771E-02  0.9963028E-01
         -2   -1    0    0    0  501 -0.00000000000E+00  0.00000000000E+00  0.30603431625E+02  0.30603431625E+02  0.00000000000E+00 0.  1.
          2   -1    0    0  503    0  0.00000000000E+00 -0.00000000000E+00 -0.33839093003E+04  0.33839093003E+04  0.00000000000E+00 0. -1.
         25    1    1    2    0    0  0.27837580344E+03 -0.87242308744E+02 -0.15710021416E+04  0.16027404773E+04  0.12500000000E+03 0.  0.
         21    1    1    2  502  501 -0.46457209035E+02 -0.28282429051E+01 -0.90443935043E+02  0.10171714022E+03  0.00000000000E+00 0. -1.
         21    1    1    2  503  502 -0.23191859440E+03  0.90070551649E+02 -0.16918597919E+04  0.17100551144E+04  0.00000000000E+00 0.  1.
<mgrwt>
<rscale>  4 0.57301539E+03</rscale>
<asrwt>0</asrwt>
<pdfrwt beam="1">  1        2 0.52060135E+00 0.57301539E+03</pdfrwt>
<pdfrwt beam="2">  1       -2 0.47082210E-02 0.57301539E+03</pdfrwt>
<totfact> 0.24309264E+02</totfact>
</mgrwt>
</event>
<event>
 5    0  0.6041737E-002  0.6418016E+03  0.7546771E-02  0.9822286E-01
         -2   -1    0    0    0  501 -0.00000000000E+00  0.00000000000E+00  0.52333828834E+02  0.52333828834E+02  0.00000000000E+00 0.  1.
          2   -1    0    0  503    0  0.00000000000E+00 -0.00000000000E+00 -0.19677008681E+04  0.19677008681E+04  0.00000000000E+00 0. -1.
         25    1    1    2    0    0 -0.24262725538E+03 -0.15310794203E+03 -0.65545785100E+03  0.72633327158E+03  0.12500000000E+03 0.  0.
         21    1    1    2  502  501  0.68697448803E+02  0.30772987148E+02 -0.45463170344E+03  0.46082133412E+03  0.00000000000E+00 0. -1.
         21    1    1    2  503  502  0.17392980658E+03  0.12233495488E+03 -0.80527748487E+03  0.83288009127E+03  0.00000000000E+00 0. -1.
<mgrwt>
<rscale>  4 0.64180159E+03</rscale>
<asrwt>0</asrwt>
<pdfrwt beam="1">  1        2 0.30272318E+00 0.64180159E+03</pdfrwt>
<pdfrwt beam="2">  1       -2 0.80513590E-02 0.64180159E+03</pdfrwt>
<totfact> 0.69850635E+02</totfact>
</mgrwt>
</event>
<event>
 5    0  0.6041737E-002  0.4622346E+03  0.7546771E-02  0.1024135E+00
         -2   -1    0    0    0  501 -0.00000000000E+00  0.00000000000E+00  0.11937073822E+03  0.11937073822E+03  0.00000000000E+00 0. -1.
          2   -1    0    0  503    0  0.00000000000E+00 -0.00000000000E+00 -0.44747327431E+03  0.44747327431E+03  0.00000000000E+00 0.  1.
         25    1    1    2    0    0  0.19794571273E+03 -0.74560445368E+02 -0.18972972536E+03  0.31042573007E+03  0.12500000000E+03 0.  0.
         21    1    1    2  502  501 -0.78377506303E+02  0.17454637743E+02 -0.31769576699E+02  0.86353945345E+02  0.00000000000E+00 0.  1.
         21    1    1    2  503  502 -0.11956820643E+03  0.57105807626E+02 -0.10660323404E+03  0.17006433712E+03  0.00000000000E+00 0. -1.
<mgrwt>
<rscale>  4 0.46223464E+03</rscale>
<asrwt>0</asrwt>
<pdfrwt beam="1">  1        2 0.68842042E-01 0.46223464E+03</pdfrwt>
<pdfrwt beam="2">  1       -2 0.18364729E-01 0.46223464E+03</pdfrwt>
<totfact> 0.17264992E+03</totfact>
</mgrwt>
</event>
<event>
 5    0  0.6041737E-002  0.4561657E+03  0.7546771E-02  0.1025899E+00
          1   -1    0    0  503    0  0.00000000000E+00  0.00000000000E+00  0.74562494573E+03  0.74562494573E+03  0.00000000000E+00 0.  1.
         -1   -1    0    0    0  501 -0.00000000000E+00 -0.00000000000E+00 -0.16715444630E+03  0.16715444630E+03  0.00000000000E+00 0. -1.
         25    1    1    2    0    0 -0.41875255930E+02  0.22118557935E+03  0.59699339461E+03  0.65015591267E+03  0.12500000000E+03 0.  0.
         21    1    1    2  502  501 -0.27290804723E+01 -0.95154977824E+02 -0.71255388162E+02  0.11890857003E+03  0.00000000000E+00 0. -1.
         21    1    1    2  503  502  0.44604336402E+02 -0.12603060152E+03  0.52732492982E+02  0.14371490933E+03  0.00000000000E+00 0. -1.
<mgrwt>
<rscale>  4 0.45616571E+03</rscale>
<asrwt>0</asrwt>
<pdfrwt beam="1">  1        1 0.11471153E+00 0.45616571E+03</pdfrwt>
<pdfrwt beam="2">  1       -1 0.25716069E-01 0.45616571E+03</pdfrwt>
<totfact> 0.33806526E+02</totfact>
</mgrwt>
</event>
<event>
 5    0  0.6041737E-002  0.5792082E+03  0.7546771E-02  0.9949507E-01
          2   -1    0    0  503    0  0.00000000000E+00  0.00000000000E+00  0.13407128788E+03  0.13407128788E+03  0.00000000000E+00 0.  1.
         -2   -1    0    0    0  501 -0.00000000000E+00 -0.00000000000E+00 -0.62556667857E+03  0.62556667857E+03  0.00000000000E+00 0. -1.
         25    1    1    2    0    0  0.87906120102E+02  0.23938519271E+03 -0.14517319348E+03  0.31895612950E+03  0.12500000000E+03 0.  0.
         21    1    1    2  502  501  0.17704550791E+01 -0.11843208752E+03 -0.18793223382E+03  0.22214368858E+03  0.00000000000E+00 0. -1.
         21    1    1    2  503  502 -0.89676575181E+02 -0.12095310518E+03 -0.15838996340E+03  0.21853814838E+03  0.00000000000E+00 0. -1.
<mgrwt>
<rscale>  4 0.57920818E+03</rscale>
<asrwt>0</asrwt>
<pdfrwt beam="1">  1        2 0.20626352E-01 0.57920818E+03</pdfrwt>
<pdfrwt beam="2">  1       -2 0.96241029E-01 0.57920818E+03</pdfrwt>
<totfact> 0.25072697E+02</totfact>
</mgrwt>
</event>
<event>
 5    0  0.6041737E-002  0.5667072E+03  0.7546771E-02  0.9976992E-01
          1   -1    0    0  503    0  0.00000000000E+00  0.00000000000E+00  0.37424408581E+03  0.37424408581E+03  0.00000000000E+00 0.  1.
         -1   -1    0    0    0  501 -0.00000000000E+00 -0.00000000000E+00 -0.21453713272E+03  0.21453713272E+03  0.00000000000E+00 0. -1.
         25    1    1    2    0    0 -0.23946635284E+03  0.91890693574E+02  0.14981180388E+03  0.32226791695E+03  0.12500000000E+03 0.  0.
         21    1    1    2  502  501  0.28316180540E+02 -0.10194741872E+02 -0.22805627593E+02  0.37760236918E+02  0.00000000000E+00 0. -1.
         21    1    1    2  503  502  0.21115017230E+03 -0.81695951701E+02  0.32700776797E+02  0.22875306466E+03  0.00000000000E+00 0. -1.
<mgrwt>
<rscale>  4 0.56670717E+03</rscale>
<asrwt>0</asrwt>
<pdfrwt beam="1">  1        1 0.57576013E-01 0.56670717E+03</pdfrwt>
<pdfrwt beam="2">  1       -1 0.33005713E-01 0.56670717E+03</pdfrwt>
<totfact> 0.57039038E+02</totfact>
</mgrwt>
</event>
<event>
 5    0  0.6041737E-002  0.6860216E+03  0.7546771E-02  0.9741440E-01
          2   -1    0    0  503    0  0.00000000000E+00  0.00000000000E+00  0.63232440688E+03  0.63232440688E+03  0.00000000000E+00 0. -1.
         -2   -1    0    0    0  501 -0.00000000000E+00 -0.00000000000E+00 -0.18606969806E+03  0.18606969806E+03  0.00000000000E+00 0.  1.
         25    1    1    2    0    0  0.11555760850E+03 -0.20603277537E+03  0.50118546397E+03  0.56799201993E+03  0.12500000000E+03 0.  0.
         21    1    1    2  502  501 -0.34138458747E+02  0.12339249120E+03 -0.34627589804E+02  0.13262809366E+03  0.00000000000E+00 0.  1.
         21    1    1    2  503  502 -0.81419149758E+02  0.82640284163E+02 -0.20303165348E+02  0.11777399134E+03  0.00000000000E+00 0.  1.
<mgrwt>
<rscale>  4 0.68602161E+03</rscale>
<asrwt>0</asrwt>
<pdfrwt beam="1">  1        2 0.97280677E-01 0.68602161E+03</pdfrwt>
<pdfrwt beam="2">  1       -2 0.28626108E-01 0.68602161E+03</pdfrwt>
<totfact> 0.52351097E+02</totfact>
</mgrwt>
</event>
<event>
 5    0  0.6041737E-002  0.6485884E+03  0.7546771E-02  0.9809432E-01
         -2   -1    0    0    0  501 -0.00000000000E+00  0.00000000000E+00  0.10270939246E+03  0.10270939246E+03  0.00000000000E+00 0.  1.
          2   -1    0    0  503    0  0.00000000000E+00 -0.00000000000E+00 -0.10239251795E+04  0.10239251795E+04  0.00000000000E+00 0. -1.
         25    1    1    2    0    0 -0.16610751750E+03  0.20037897431E+03 -0.18554664346E+03  0.34321421535E+03  0.12500000000E+03 0.  0.
         21    1    1    2  502  501  0.75491973711E+02 -0.13328627187E+03 -0.36102486675E+03  0.39217753986E+03  0.00000000000E+00 0. -1.
         21    1    1    2  503  502  0.90615543790E+02 -0.67092702444E+02 -0.37464427685E+03  0.39124281677E+03  0.00000000000E+00 0. -1.
<mgrwt>
<rscale>  4 0.64858842E+03</rscale>
<asrwt>0</asrwt>
<pdfrwt beam="1">  1        2 0.15752694E+00 0.64858842E+03</pdfrwt>
<pdfrwt beam="2">  1       -2 0.15801446E-01 0.64858842E+03</pdfrwt>
<totfact> 0.78608329E+02</totfact>
</mgrwt>
</event>
<event>
 5    0  0.6041737E-002  0.5379328E+03  0.7546771E-02  0.1004326E+00
         -2   -1    0    0    0  501 -0.00000000000E+00  0.00000000000E+00  0.35273198878E+02  0.35273198878E+02  0.00000000000E+00 0.  1.
          2   -1    0    0  503    0  0.00000000000E+00 -0.00000000000E+00 -0.20509316360E+04  0.20509316360E+04  0.00000000000E+00 0. -1.
         25    1    1    2    0    0 -0.22370441477E+03  0.11282997874E+03 -0.94634551434E+03  0.98689872926E+03  0.12500000000E+03 0.  0.
         21    1    1    2  502  501  0.19974799250E+02  0.27134599506E+01 -0.10864641045E+03  0.11050066957E+03  0.00000000000E+00 0.  1.
         21    1    1    2  503  502  0.20372961552E+03 -0.11554343870E+03 -0.96066651230E+03  0.98880543603E+03  0.00000000000E+00 0. -1.
<mgrwt>
<rscale>  4 0.53793278E+03</rscale>
<asrwt>0</asrwt>
<pdfrwt beam="1">  1        2 0.31552808E+00 0.53793278E+03</pdfrwt>
<pdfrwt beam="2">  1       -2 0.54266436E-02 0.53793278E+03</pdfrwt>
<totfact> 0.11801528E+03</totfact>
</mgrwt>
</event>
<event>
 5    0  0.6041737E-002  0.7143456E+03  0.7546771E-02  0.9693009E-01
         -2   -1    0    0    0  501 -0.00000000000E+00  0.00000000000E+00  0.11622357527E+03  0.11622357527E+03  0.00000000000E+00 0. -1.
          2   -1    0    0  503    0  0.00000000000E+00 -0.00000000000E+00 -0.10976466066E+04  0.10976466066E+04  0.00000000000E+00 0.  1.
         25    1    1    2    0    0  0.24358504646E+03  0.19871065496E+03 -0.73319350516E+03  0.80747589144E+03  0.12500000000E+03 0.  0.
         21    1    1    2  502  501 -0.20965631642E+03 -0.15844377059E+03 -0.17321378873E+03  0.31474309533E+03  0.00000000000E+00 0. -1.
         21    1    1    2  503  502 -0.33928730036E+02 -0.40266884371E+02 -0.75015737493E+02  0.91651195139E+02  0.00000000000E+00 0. -1.
<mgrwt>
<rscale>  4 0.71434561E+03</rscale>
<asrwt>0</asrwt>
<pdfrwt beam="1">  1        2 0.16886871E+00 0.71434561E+03</pdfrwt>
<pdfrwt beam="2">  1       -2 0.17880550E-01 0.71434561E+03</pdfrwt>
<totfact> 0.57139716E+02</totfact>
</mgrwt>
</event>
<event>
 5    0  0.6041737E-002  0.5343954E+03  0.7546771E-02  0.1005172E+00
          2   -1    0    0  503    0  0.00000000000E+00  0.00000000000E+00  0.23357632450E+03  0.23357632450E+03  0.00000000000E+00 0.  1.
         -2   -1    0    0    0  501 -0.00000000000E+00 -0.00000000000E+00 -0.30565860133E+03  0.30565860133E+03  0.00000000000E+00 0. -1.
         25    1    1    2    0    0 -0.19745992260E+03 -0.14979919173E+03 -0.22193362003E+02  0.27847399195E+03  0.12500000000E+03 0.  0.
         21    1    1    2  502  501  0.95058403923E+02  0.53603454285E+02  0.66054865433E+01  0.10933006412E+03  0.00000000000E+00 0.  1.
         21    1    1    2  503  502  0.10240151868E+03  0.96195737447E+02 -0.56494401366E+02  0.15143086976E+03  0.00000000000E+00 0.  1.
<mgrwt>
<rscale>  4 0.53439541E+03</rscale>
<asrwt>0</asrwt>
<pdfrwt beam="1">  1        2 0.35934819E-01 0.53439541E+03</pdfrwt>
<pdfrwt beam="2">  1       -2 0.47024400E-01 0.53439541E+03</pdfrwt>
<totfact> 0.62659663E+02</totfact>
</mgrwt>
</event>
<event>
 5    0  0.6041737E-002  0.4716117E+03  0.7546771E-02  0.1021466E+00
          3   -1    0    0  503    0  0.00000000000E+00  0.00000000000E+00  0.36722461672E+02  0.36722461672E+02  0.00000000000E+00 0. -1.
         -3   -1    0    0    0  501 -0.00000000000E+00 -0.00000000000E+00 -0.15141796221E+04  0.15141796221E+04  0.00000000000E+00 0.  1.
         25    1    1    2    0    0 -0.51926380006E+01 -0.20237540334E+03 -0.53579906529E+03  0.58624943986E+03  0.12500000000E+03 0.  0.
         21    1    1    2  502  501  0.20886381581E+02  0.14663172492E+03 -0.59293890526E+03  0.61115763029E+03  0.00000000000E+00 0. -1.
         21    1    1    2  503  502 -0.15693743580E+02  0.55743678416E+02 -0.34871918990E+03  0.35349501365E+03  0.00000000000E+00 0. -1.
<mgrwt>
<rscale>  4 0.47161172E+03</rscale>
<asrwt>0</asrwt>
<pdfrwt beam="1">  1        3 0.56496104E-02 0.47161172E+03</pdfrwt>
<pdfrwt beam="2">  1       -3 0.23295067E+00 0.47161172E+03</pdfrwt>
<totfact> 0.48899474E+01</totfact>
</mgrwt>
</event>
<event>
 5    0  0.6041737E-002  0.4153917E+03  0.7546771E-02  0.1038577E+00
          2   -1    0    0  503    0  0.00000000000E+00  0.00000000000E+00  0.31901387684E+03  0.31901387684E+03  0.00000000000E+00 0.  1.
         -2   -1    0    0    0  501 -0.00000000000E+00 -0.00000000000E+00 -0.20066857494E+03  0.20066857494E+03  0.00000000000E+00 0. -1.
         25    1    1    2    0    0 -0.24060348399E+02  0.20687840820E+03  0.78627223366E+02  0.25531317318E+03  0.12500000000E+03 0.  0.
         21    1    1    2  502  501  0.84641397080E+02 -0.15027718658E+03  0.52933674093E+02  0.18041444720E+03  0.00000000000E+00 0. -1.
         21    1    1    2  503  502 -0.60581048681E+02 -0.56601221619E+02 -0.13215595556E+02  0.83954831392E+02  0.00000000000E+00 0.  1.
<mgrwt>
<rscale>  4 0.41539173E+03</rscale>
<asrwt>0</asrwt>
<pdfrwt beam="1">  1        2 0.49079058E-01 0.41539173E+03</pdfrwt>
<pdfrwt beam="2">  1       -2 0.30872089E-01 0.41539173E+03</pdfrwt>
<totfact> 0.99680020E+02</totfact>
</mgrwt>
</event>
<event>
 5    0  0.6041737E-002  0.6305390E+03  0.7546771E-02  0.9843998E-01
         -2   -1    0    0    0  501 -0.00000000000E+00  0.00000000000E+00  0.10504960259E+03  0.10504960259E+03  0.00000000000E+00 0.  1.
          2   -1    0    0  503    0  0.00000000000E+00 -0.00000000000E+00 -0.94617068740E+03  0.94617068740E+03  0.00000000000E+00 0. -1.
         25    1    1    2    0    0 -0.66323805434E+02  0.19549378201E+03 -0.80375917220E+03  0.83920824166E+03  0.12500000000E+03 0.  0.
         21    1    1    2  502  501  0.15423372708E+02 -0.19932209883E+02 -0.10308866269E+02  0.27229508631E+02  0.00000000000E+00 0.  1.
         21    1    1    2  503  502  0.50900432726E+02 -0.17556157213E+03 -0.27053046344E+02  0.18478253970E+03  0.00000000000E+00 0.  1.
<mgrwt>
<rscale>  4 0.63053899E+03</rscale>
<asrwt>0</asrwt>
<pdfrwt beam="1">  1        2 0.14556472E+00 0.63053899E+03</pdfrwt>
<pdfrwt beam="2">  1       -2 0.16161477E-01 0.63053899E+03</pdfrwt>
<totfact> 0.84881574E+02</totfact>
</mgrwt>
</event>
<event>
 5    0  0.6041737E-002  0.5577679E+03  0.7546771E-02  0.9997118E-01
         -4   -1    0    0    0  501 -0.00000000000E+00  0.00000000000E+00  0.12849047208E+04  0.12849047208E+04  0.00000000000E+00 0.  1.
          4   -1    0    0  503    0  0.00000000000E+00 -0.00000000000E+00 -0.60530764501E+02  0.60530764501E+02  0.00000000000E+00 0. -1.
         25    1    1    2    0    0  0.16493418974E+02  0.25499284556E+03  0.52050565873E+03  0.59316483790E+03  0.12500000000E+03 0.  0.
         21    1    1    2  502  501  0.72172454364E+01 -0.35393692369E+02  0.18258420813E+03  0.18612306453E+03  0.00000000000E+00 0.  1.
         21    1    1    2  503  502 -0.23710664411E+02 -0.21959915319E+03  0.52128408947E+03  0.56614758290E+03  0.00000000000E+00 0. -1.
<mgrwt>
<rscale>  4 0.55776793E+03</rscale>
<asrwt>0</asrwt>
<pdfrwt beam="1">  1        4 0.93124263E-02 0.55776793E+03</pdfrwt>
<pdfrwt beam="2">  1       -4 0.19767763E+00 0.55776793E+03</pdfrwt>
<totfact> 0.24422435E+01</totfact>
</mgrwt>
</event>
<event>
 5    0  0.6041737E-002  0.4640631E+03  0.7546771E-02  0.1023609E+00
          2   -1    0    0  503    0  0.00000000000E+00  0.00000000000E+00  0.12517913237E+04  0.12517913237E+04  0.00000000000E+00 0.  1.
         -2   -1    0    0    0  501 -0.00000000000E+00 -0.00000000000E+00 -0.43009282555E+02  0.43009282555E+02  0.00000000000E+00 0. -1.
         25    1    1    2    0    0  0.20269375421E+03 -0.59023425859E+02  0.70133996778E+03  0.74301498854E+03  0.12500000000E+03 0.  0.
         21    1    1    2  502  501 -0.90819683958E+02  0.24939801911E+01  0.23241338911E+03  0.24954041430E+03  0.00000000000E+00 0.  1.
         21    1    1    2  503  502 -0.11187407025E+03  0.56529445668E+02  0.27502868428E+03  0.30224520343E+03  0.00000000000E+00 0. -1.
<mgrwt>
<rscale>  4 0.46406313E+03</rscale>
<asrwt>0</asrwt>
<pdfrwt beam="1">  1        2 0.19258325E+00 0.46406313E+03</pdfrwt>
<pdfrwt beam="2">  1       -2 0.66168137E-02 0.46406313E+03</pdfrwt>
<totfact> 0.23736970E+03</totfact>
</mgrwt>
</event>
<event>
 5    0  0.6041737E-002  0.5231873E+03  0.7546771E-02  0.1007898E+00
         -1   -1    0    0    0  501 -0.00000000000E+00  0.00000000000E+00  0.33665952204E+02  0.33665952204E+02  0.00000000000E+00 0.  1.
          1   -1    0    0  503    0  0.00000000000E+00 -0.00000000000E+00 -0.20326542103E+04  0.20326542103E+04  0.00000000000E+00 0. -1.
         25    1    1    2    0    0 -0.20455667481E+03 -0.98486760690E+01 -0.52673284538E+03  0.57880300624E+03  0.12500000000E+03 0.  0.
         21    1    1    2  502  501  0.23415156364E+02 -0.17634334875E+02 -0.19863193202E+03  0.20078317592E+03  0.00000000000E+00 0.  1.
         21    1    1    2  503  502  0.18114151845E+03  0.27483010944E+02 -0.12736234807E+04  0.12867339803E+04  0.00000000000E+00 0.  1.
<mgrwt>
<rscale>  4 0.52318731E+03</rscale>
<asrwt>0</asrwt>
<pdfrwt beam="1">  1        1 0.31271610E+00 0.52318731E+03</pdfrwt>
<pdfrwt beam="2">  1       -1 0.51793762E-02 0.52318731E+03</pdfrwt>
<totfact> 0.52166485E+02</totfact>
</mgrwt>
</event>
<event>
 5    0  0.6041737E-002  0.4730567E+03  0.7546771E-02  0.1021061E+00
          2   -1    0    0  503    0  0.00000000000E+00  0.00000000000E+00  0.55014453345E+03  0.55014453345E+03  0.00000000000E+00 0.  1.
         -2   -1    0    0    0  501 -0.00000000000E+00 -0.00000000000E+00 -0.10169264121E+03  0.10169264121E+03  0.00000000000E+00 0. -1.
         25    1    1    2    0    0  0.63141935760E+01 -0.21435769232E+03  0.25786603455E+03  0.35792314967E+03  0.12500000000E+03 0.  0.
         21    1    1    2  502  501  0.26608714506E+02  0.10292709606E+03  0.10656196278E+03  0.15052396056E+03  0.00000000000E+00 0.  1.
         21    1    1    2  503  502 -0.32922908082E+02  0.11143059626E+03  0.84023894914E+02  0.14339006443E+03  0.00000000000E+00 0. -1.
<mgrwt>
<rscale>  4 0.47305666E+03</rscale>
<asrwt>0</asrwt>
<pdfrwt beam="1">  1        2 0.84637619E-01 0.47305666E+03</pdfrwt>
<pdfrwt beam="2">  1       -2 0.15645022E-01 0.47305666E+03</pdfrwt>
<totfact> 0.17903599E+03</totfact>
</mgrwt>
</event>
<event>
 5    0  0.6041737E-002  0.7416601E+03  0.7546771E-02  0.9648526E-01
         -1   -1    0    0    0  501 -0.00000000000E+00  0.00000000000E+00  0.27908350699E+03  0.27908350699E+03  0.00000000000E+00 0. -1.
          1   -1    0    0  503    0  0.00000000000E+00 -0.00000000000E+00 -0.49273760216E+03  0.49273760216E+03  0.00000000000E+00 0.  1.
         25    1    1    2    0    0  0.29396756285E+03 -0.13796350144E+03  0.31470311357E+02  0.34937978795E+03  0.12500000000E+03 0.  0.
         21    1    1    2  502  501 -0.81657179303E+02  0.11788478277E+02 -0.11987806505E+03  0.14552530238E+03  0.00000000000E+00 0.  1.
         21    1    1    2  503  502 -0.21231038354E+03  0.12617502316E+03 -0.12524634147E+03  0.27691601882E+03  0.00000000000E+00 0.  1.
<mgrwt>
<rscale>  4 0.74166013E+03</rscale>
<asrwt>0</asrwt>
<pdfrwt beam="1">  1        1 0.75805785E-01 0.74166013E+03</pdfrwt>
<pdfrwt beam="2">  1       -1 0.42935924E-01 0.74166013E+03</pdfrwt>
<totfact> 0.24474120E+02</totfact>
</mgrwt>
</event>
<event>
 5    0  0.6041737E-002  0.4165098E+03  0.7546771E-02  0.1038208E+00
         -2   -1    0    0    0  501 -0.00000000000E+00  0.00000000000E+00  0.33939928932E+02  0.33939928932E+02  0.00000000000E+00 0.  1.
          2   -1    0    0  503    0  0.00000000000E+00 -0.00000000000E+00 -0.16670291811E+04  0.16670291811E+04  0.00000000000E+00 0. -1.
         25    1    1    2    0    0  0.11468225212E+02  0.19974987778E+03 -0.10316849338E+04  0.10583148570E+04  0.12500000000E+03 0.  0.
         21    1    1    2  502  501 -0.32755927909E+02 -0.25878879589E+02 -0.56248012333E+02  0.70046456822E+02  0.00000000000E+00 0.  1.
         21    1    1    2  503  502  0.21287702697E+02 -0.17387099819E+03 -0.54515630600E+03  0.57260779620E+03  0.00000000000E+00 0. -1.
<mgrwt>
<rscale>  4 0.41650979E+03</rscale>
<asrwt>0</asrwt>
<pdfrwt beam="1">  1        2 0.25646607E+00 0.41650979E+03</pdfrwt>
<pdfrwt beam="2">  1       -2 0.52215267E-02 0.41650979E+03</pdfrwt>
<totfact> 0.20268303E+03</totfact>
</mgrwt>
</event>
<event>
 5    0  0.6041737E-002  0.4772862E+03  0.7546771E-02  0.1019884E+00
          2   -1    0    0  503    0  0.00000000000E+00  0.00000000000E+00  0.40606105159E+04  0.40606105159E+04  0.00000000000E+00 0.  1.
         -2   -1    0    0    0  501 -0.00000000000E+00 -0.00000000000E+00 -0.14025115180E+02  0.14025115180E+02  0.00000000000E+00 0. -1.
         25    1    1    2    0    0  0.14170462601E+03  0.15582380830E+03  0.15974198968E+04  0.16160868129E+04  0.12500000000E+03 0.  0.
         21    1    1    2  502  501 -0.11746676819E+03 -0.11529911689E+03  0.20507415075E+04  0.20573363990E+04  0.00000000000E+00 0.  1.
         21    1    1    2  503  502 -0.24237857819E+02 -0.40524691407E+02  0.39842399639E+03  0.40121241913E+03  0.00000000000E+00 0.  1.
<mgrwt>
<rscale>  4 0.47728620E+03</rscale>
<asrwt>0</asrwt>
<pdfrwt beam="1">  1        2 0.62470837E+00 0.47728620E+03</pdfrwt>
<pdfrwt beam="2">  1       -2 0.21577133E-02 0.47728620E+03</pdfrwt>
<totfact> 0.26317076E+02</totfact>
</mgrwt>
</event>
<event>
 5    0  0.6041737E-002  0.5517511E+03  0.7546771E-02  0.1001089E+00
          2   -1    0    0  503    0  0.00000000000E+00  0.00000000000E+00  0.28368543422E+03  0.28368543422E+03  0.00000000000E+00 0.  1.
         -2   -1    0    0    0  501 -0.00000000000E+00 -0.00000000000E+00 -0.33518830165E+03  0.33518830165E+03  0.00000000000E+00 0. -1.
         25    1    1    2    0    0 -0.25618983129E+03  0.86273976848E+02 -0.82855340773E+02  0.30913821542E+03  0.12500000000E+03 0.  0.
         21    1    1    2  502  501  0.28302644804E+02  0.18692224385E+02  0.47443338716E+02  0.58320745399E+02  0.00000000000E+00 0. -1.
         21    1    1    2  503  502  0.22788718649E+03 -0.10496620123E+03 -0.16090865366E+02  0.25141477505E+03  0.00000000000E+00 0.  1.
<mgrwt>
<rscale>  4 0.55175112E+03</rscale>
<asrwt>0</asrwt>
<pdfrwt beam="1">  1        2 0.43643913E-01 0.55175112E+03</pdfrwt>
<pdfrwt beam="2">  1       -2 0.51567431E-01 0.55175112E+03</pdfrwt>
<totfact> 0.41941610E+02</totfact>
</mgrwt>
</event>
<event>
 5    0  0.6041737E-002  0.3888732E+03  0.7546771E-02  0.1047702E+00
          2   -1    0    0  503    0  0.00000000000E+00  0.00000000000E+00  0.73084435232E+03  0.73084435232E+03  0.00000000000E+00 0.  1.
         -2   -1    0    0    0  501 -0.00000000000E+00 -0.00000000000E+00 -0.15373500706E+03  0.15373500706E+03  0.00000000000E+00 0. -1.
         25    1    1    2    0    0 -0.15261049166E+03 -0.14925287019E+03  0.21621265847E+01  0.24737836651E+03  0.12500000000E+03 0.  0.
         21    1    1    2  502  501  0.75005999878E+02  0.62658831573E+02  0.47163639021E+03  0.48165642709E+03  0.00000000000E+00 0.  1.
         21    1    1    2  503  502  0.77604491782E+02  0.86594038614E+02  0.10331082847E+03  0.15554456579E+03  0.00000000000E+00 0.  1.
<mgrwt>
<rscale>  4 0.38887317E+03</rscale>
<asrwt>0</asrwt>
<pdfrwt beam="1">  1        2 0.11243759E+00 0.38887317E+03</pdfrwt>
<pdfrwt beam="2">  1       -2 0.23651540E-01 0.38887317E+03</pdfrwt>
<totfact> 0.62347041E+02</totfact>
</mgrwt>
</event>
<event>
 5    0  0.6041737E-002  0.4532034E+03  0.7546771E-02  0.1026771E+00
         -2   -1    0    0    0  501 -0.00000000000E+00  0.00000000000E+00  0.49349738084E+03  0.49349738084E+03  0.00000000000E+00 0.  1.
          2   -1    0    0  503    0  0.00000000000E+00 -0.00000000000E+00 -0.10404983591E+03  0.10404983591E+03  0.00000000000E+00 0. -1.
         25    1    1    2    0    0 -0.12644738951E+03 -0.16254830191E+03  0.24267215281E+03  0.34194395231E+03  0.12500000000E+03 0.  0.
         21    1    1    2  502  501  0.77190975298E+01  0.22665072646E+02  0.28876216817E+02  0.37511676614E+02  0.00000000000E+00 0. -1.
         21    1    1    2  503  502  0.11872829198E+03  0.13988322926E+03  0.11789917530E+03  0.21809158783E+03  0.00000000000E+00 0. -1.
<mgrwt>
<rscale>  4 0.45320336E+03</rscale>
<asrwt>0</asrwt>
<pdfrwt beam="1">  1        2 0.16007667E-01 0.45320336E+03</pdfrwt>
<pdfrwt beam="2">  1       -2 0.75922672E-01 0.45320336E+03</pdfrwt>
<totfact> 0.57994977E+02</totfact>
</mgrwt>
</event>
<event>
 5    0  0.6041737E-002  0.5556412E+03  0.7546771E-02  0.1000197E+00
         -1   -1    0    0    0  501 -0.00000000000E+00  0.00000000000E+00  0.21887243987E+03  0.21887243987E+03  0.00000000000E+00 0.  1.
          1   -1    0    0  503    0  0.00000000000E+00 -0.00000000000E+00 -0.35264504621E+03  0.35264504621E+03  0.00000000000E+00 0. -1.
         25    1    1    2    0    0  0.23228104419E+03 -0.38957491911E+02 -0.18511113474E+03  0.32459713780E+03  0.12500000000E+03 0.  0.
         21    1    1    2  502  501 -0.20693932974E+03  0.32130962633E+02  0.62283382633E+02  0.21848456400E+03  0.00000000000E+00 0.  1.
         21    1    1    2  503  502 -0.25341714449E+02  0.68265292781E+01 -0.10944854240E+02  0.28435784278E+02  0.00000000000E+00 0.  1.
<mgrwt>
<rscale>  4 0.55564119E+03</rscale>
<asrwt>0</asrwt>
<pdfrwt beam="1">  1        1 0.54253084E-01 0.55564119E+03</pdfrwt>
<pdfrwt beam="2">  1       -1 0.33672683E-01 0.55564119E+03</pdfrwt>
<totfact> 0.59519239E+02</totfact>
</mgrwt>
</event>
<event>
 5    0  0.6041737E-002  0.5338932E+03  0.7546771E-02  0.1005292E+00
          2   -1    0    0  503    0  0.00000000000E+00  0.00000000000E+00  0.73473172248E+03  0.73473172248E+03  0.00000000000E+00 0. -1.
         -2   -1    0    0    0  501 -0.00000000000E+00 -0.00000000000E+00 -0.96988435656E+02  0.96988435656E+02  0.00000000000E+00 0.  1.
         25    1    1    2    0    0  0.75796580056E+02 -0.21370094687E+03  0.18102898983E+03  0.31592675006E+03  0.12500000000E+03 0.  0.
         21    1    1    2  502  501 -0.28160271359E+02  0.12225897427E+02  0.84086906451E+02  0.89515815850E+02  0.00000000000E+00 0. -1.
         21    1    1    2  503  502 -0.47636308697E+02  0.20147504944E+03  0.37262739054E+03  0.42627759223E+03  0.00000000000E+00 0. -1.
<mgrwt>
<rscale>  4 0.53389317E+03</rscale>
<asrwt>0</asrwt>
<pdfrwt beam="1">  1        2 0.11303565E+00 0.53389317E+03</pdfrwt>
<pdfrwt beam="2">  1       -2 0.14921298E-01 0.53389317E+03</pdfrwt>
<totfact> 0.13653890E+03</totfact>
</mgrwt>
</event>
<event>
 5    0  0.6041737E-002  0.6509954E+03  0.7546771E-02  0.9804913E-01
         -2   -1    0    0    0  501 -0.00000000000E+00  0.00000000000E+00  0.28219871071E+03  0.28219871071E+03  0.00000000000E+00 0. -1.
          2   -1    0    0  503    0  0.00000000000E+00 -0.00000000000E+00 -0.37544029370E+03  0.37544029370E+03  0.00000000000E+00 0.  1.
         25    1    1    2    0    0 -0.14480811865E+03 -0.26189414793E+03 -0.13111370867E+03  0.34981958285E+03  0.12500000000E+03 0.  0.
         21    1    1    2  502  501 -0.23124639117E+01  0.30389104137E+02 -0.24451216191E+01  0.30574887723E+02  0.00000000000E+00 0. -1.
         21    1    1    2  503  502  0.14712058256E+03  0.23150504379E+03  0.40317247296E+02  0.27724453384E+03  0.00000000000E+00 0. -1.
<mgrwt>
<rscale>  4 0.65099544E+03</rscale>
<asrwt>0</asrwt>
<pdfrwt beam="1">  1        2 0.57760045E-01 0.65099544E+03</pdfrwt>
<pdfrwt beam="2">  1       -2 0.43415186E-01 0.65099544E+03</pdfrwt>
<totfact> 0.43336323E+02</totfact>
</mgrwt>
</event>
<event>
 5    0  0.6041737E-002  0.8181248E+03  0.7546771E-02  0.9534146E-01
          2   -1    0    0  503    0  0.00000000000E+00  0.00000000000E+00  0.50167939648E+03  0.50167939648E+03  0.00000000000E+00 0. -1.
         -2   -1    0    0    0  501 -0.00000000000E+00 -0.00000000000E+00 -0.40807165612E+03  0.40807165612E+03  0.00000000000E+00 0.  1.
         25    1    1    2    0    0  0.28678705647E+03  0.55896838988E+02 -0.27071692740E+03  0.41747326519E+03  0.12500000000E+03 0.  0.
         21    1    1    2  502  501 -0.20132317663E+03 -0.65353733121E+02  0.34403088623E+03  0.40392992284E+03  0.00000000000E+00 0. -1.
         21    1    1    2  503  502 -0.85463879842E+02  0.94568941331E+01  0.20293781534E+02  0.88347864565E+02  0.00000000000E+00 0.  1.
<mgrwt>
<rscale>  4 0.81812484E+03</rscale>
<asrwt>0</asrwt>
<pdfrwt beam="1">  1        2 0.77181446E-01 0.81812484E+03</pdfrwt>
<pdfrwt beam="2">  1       -2 0.62780255E-01 0.81812484E+03</pdfrwt>
<totfact> 0.14532652E+02</totfact>
</mgrwt>
</event>
<event>
 5    0  0.6041737E-002  0.9034457E+03  0.7546771E-02  0.9421284E-01
          2   -1    0    0  503    0  0.00000000000E+00  0.00000000000E+00  0.12644812022E+04  0.12644812022E+04  0.00000000000E+00 0.  1.
         -2   -1    0    0    0  501 -0.00000000000E+00 -0.00000000000E+00 -0.17240520525E+03  0.17240520525E+03  0.00000000000E+00 0. -1.
         25    1    1    2    0    0 -0.33346669751E+03 -0.28813518991E+03  0.63861461610E+03  0.78592337662E+03  0.12500000000E+03 0.  0.
         21    1    1    2  502  501  0.23765878536E+02 -0.18260342656E+02  0.42933110975E+02  0.52359422404E+02  0.00000000000E+00 0. -1.
         21    1    1    2  503  502  0.30970081898E+03  0.30639553257E+03  0.41052826985E+03  0.59860360841E+03  0.00000000000E+00 0.  1.
<mgrwt>
<rscale>  4 0.90344572E+03</rscale>
<asrwt>0</asrwt>
<pdfrwt beam="1">  1        2 0.19453556E+00 0.90344572E+03</pdfrwt>
<pdfrwt beam="2">  1       -2 0.26523879E-01 0.90344572E+03</pdfrwt>
<totfact> 0.22369414E+02</totfact>
</mgrwt>
</event>
<event>
 5    0  0.6041737E-002  0.4699356E+03  0.7546771E-02  0.1021938E+00
          2   -1    0    0  503    0  0.00000000000E+00  0.00000000000E+00  0.41994832782E+03  0.41994832782E+03  0.00000000000E+00 0.  1.
         -2   -1    0    0    0  501 -0.00000000000E+00 -0.00000000000E+00 -0.25481369212E+03  0.25481369212E+03  0.00000000000E+00 0. -1.
         25    1    1    2    0    0  0.79863090791E+02  0.20414070967E+03  0.29355590533E+03  0.38710671935E+03  0.12500000000E+03 0.  0.
         21    1    1    2  502  501  0.22207264967E+02 -0.12688516298E+03 -0.54819346594E+02  0.13999345686E+03  0.00000000000E+00 0. -1.
         21    1    1    2  503  502 -0.10207035576E+03 -0.77255546682E+02 -0.73601923032E+02  0.14766184372E+03  0.00000000000E+00 0. -1.
<mgrwt>
<rscale>  4 0.46993558E+03</rscale>
<asrwt>0</asrwt>
<pdfrwt beam="1">  1        2 0.64607435E-01 0.46993558E+03</pdfrwt>
<pdfrwt beam="2">  1       -2 0.39202107E-01 0.46993558E+03</pdfrwt>
<totfact> 0.46863747E+02</totfact>
</mgrwt>
</event>
