<event>
 5    0  0.1911311E+001  0.1873422E+03  0.7546771E-02  0.1160881E+00
         21   -1    0    0  502  501  0.00000000000E+00  0.00000000000E+00  0.16090819383E+04  0.16090819383E+04  0.00000000000E+00 0. -1.
         21   -1    0    0  504  502 -0.00000000000E+00 -0.00000000000E+00 -0.14141666243E+03  0.14141666243E+03  0.00000000000E+00 0.  1.
         25    1    1    2    0    0 -0.11454285857E+03  0.17169397773E+03  0.19141084306E+02  0.24205426984E+03  0.12500000000E+03 0.  0.
         21    1    1    2  503  501  0.71374405447E+02 -0.11760405235E+03  0.14302732040E+04  0.14368738487E+04  0.00000000000E+00 0. -1.
         21    1    1    2  504  503  0.43168453125E+02 -0.54089925386E+02  0.18250987518E+02  0.71570482176E+02  0.00000000000E+00 0.  1.
<mgrwt>
<rscale>  4 0.18734217E+03</rscale>
<asrwt>0</asrwt>
<pdfrwt beam="1">  1       21 0.24755105E+00 0.18734217E+03</pdfrwt>
<pdfrwt beam="2">  1       21 0.21756411E-01 0.18734217E+03</pdfrwt>
<totfact> 0.13637630E+03</totfact>
</mgrwt>
</event>
<event>
 5    0  0.1911311E+001  0.2584525E+03  0.7546771E-02  0.1108077E+00
         21   -1    0    0  503  501  0.00000000000E+00  0.00000000000E+00  0.39387733426E+03  0.39387733426E+03  0.00000000000E+00 0.  1.
         21   -1    0    0  504  502 -0.00000000000E+00 -0.00000000000E+00 -0.47929927690E+03  0.47929927690E+03  0.00000000000E+00 0.  1.
         25    1    1    2    0    0  0.17589777272E+03  0.19478592768E+03 -0.19930194251E+03  0.35245971168E+03  0.12500000000E+03 0.  0.
         21    1    1    2  503  502 -0.17995135406E+03 -0.99852968090E+02 -0.14048954752E+03  0.24917948957E+03  0.00000000000E+00 0.  1.
         21    1    1    2  504  501  0.40535813326E+01 -0.94932959589E+02  0.25436954739E+03  0.27153740990E+03  0.00000000000E+00 0.  1.
<mgrwt>
<rscale>  4 0.25845249E+03</rscale>
<asrwt>0</asrwt>
<pdfrwt beam="1">  1       21 0.60596513E-01 0.25845249E+03</pdfrwt>
<pdfrwt beam="2">  1       21 0.73738350E-01 0.25845249E+03</pdfrwt>
<totfact> 0.39961191E+03</totfact>
</mgrwt>
</event>
<event>
 5    0  0.1911311E+001  0.2533685E+03  0.7546771E-02  0.1111194E+00
         21   -1    0    0  504  501  0.00000000000E+00  0.00000000000E+00  0.81602894549E+02  0.81602894549E+02  0.00000000000E+00 0. -1.
         21   -1    0    0  503  502 -0.00000000000E+00 -0.00000000000E+00 -0.85435254452E+03  0.85435254452E+03  0.00000000000E+00 0. -1.
         25    1    1    2    0    0  0.96477845465E+00 -0.20136513375E+03 -0.31560265580E+03  0.39468833811E+03  0.12500000000E+03 0.  0.
         21    1    1    2  503  501 -0.38270661895E+02 -0.33106319683E+02 -0.59231764631E+02  0.77904261155E+02  0.00000000000E+00 0. -1.
         21    1    1    2  504  502  0.37305883440E+02  0.23447145343E+03 -0.39791522954E+03  0.46336283981E+03  0.00000000000E+00 0. -1.
<mgrwt>
<rscale>  4 0.25336855E+03</rscale>
<asrwt>0</asrwt>
<pdfrwt beam="1">  1       21 0.12554291E-01 0.25336855E+03</pdfrwt>
<pdfrwt beam="2">  1       21 0.13143885E+00 0.25336855E+03</pdfrwt>
<totfact> 0.21970173E+04</totfact>
</mgrwt>
</event>
