<event>
 5    0  0.1856407E+000  0.2432597E+03  0.7546771E-02  0.1117640E+00
         21   -1    0    0  502  501  0.00000000000E+00  0.00000000000E+00  0.20501648089E+03  0.20501648089E+03  0.00000000000E+00 0.  1.
         21   -1    0    0  503  502 -0.00000000000E+00 -0.00000000000E+00 -0.36065147613E+03  0.36065147613E+03  0.00000000000E+00 0. -1.
         25    1    1    2    0    0 -0.18972048227E+03 -0.86927697491E+02  0.72408886680E+02  0.25380766902E+03  0.12500000000E+03 0.  0.
         21    1    1    2  503  504  0.49836810910E+02  0.29200760922E+02 -0.38938466968E+02  0.69660579742E+02  0.00000000000E+00 0. -1.
         21    1    1    2  504  501  0.13988367136E+03  0.57726936569E+02 -0.18910541495E+03  0.24219970826E+03  0.00000000000E+00 0. -1.
<mgrwt>
<rscale>  4 0.24325971E+03</rscale>
<asrwt>0</asrwt>
<pdfrwt beam="1">  1       21 0.31540998E-01 0.24325971E+03</pdfrwt>
<pdfrwt beam="2">  1       21 0.55484842E-01 0.24325971E+03</pdfrwt>
<totfact> 0.28825442E+04</totfact>
</mgrwt>
</event>
<event>
 5    0  0.1856407E+000  0.4641909E+03  0.7546771E-02  0.1023573E+00
         21   -1    0    0  502  501  0.00000000000E+00  0.00000000000E+00  0.10912113747E+04  0.10912113747E+04  0.00000000000E+00 0.  1.
         21   -1    0    0  503  502 -0.00000000000E+00 -0.00000000000E+00 -0.20661622740E+03  0.20661622740E+03  0.00000000000E+00 0.  1.
         25    1    1    2    0    0 -0.16325221517E+03 -0.41616936402E+03  0.59434039673E+03  0.75413111094E+03  0.12500000000E+03 0.  0.
         21    1    1    2  503  504  0.13247418104E+03  0.36861718723E+03  0.28945993187E+03  0.48704731959E+03  0.00000000000E+00 0.  1.
         21    1    1    2  504  501  0.30778034129E+02  0.47552176790E+02  0.79481870076E+00  0.56649171565E+02  0.00000000000E+00 0.  1.
<mgrwt>
<rscale>  4 0.46419094E+03</rscale>
<asrwt>0</asrwt>
<pdfrwt beam="1">  1       21 0.16787867E+00 0.46419094E+03</pdfrwt>
<pdfrwt beam="2">  1       21 0.31787112E-01 0.46419094E+03</pdfrwt>
<totfact> 0.17782105E+03</totfact>
</mgrwt>
</event>
<event>
 5    0  0.1856407E+000  0.2905022E+03  0.7546771E-02  0.1090087E+00
         21   -1    0    0  502  501  0.00000000000E+00  0.00000000000E+00  0.44722058991E+03  0.44722058991E+03  0.00000000000E+00 0. -1.
         21   -1    0    0  503  502 -0.00000000000E+00 -0.00000000000E+00 -0.66328592401E+03  0.66328592401E+03  0.00000000000E+00 0.  1.
         25    1    1    2    0    0 -0.30601851691E+02 -0.26044200704E+03  0.36650922240E+03  0.46767565948E+03  0.12500000000E+03 0.  0.
         21    1    1    2  503  504  0.42037708409E+02  0.24127398682E+03 -0.55936441931E+03  0.61062988728E+03  0.00000000000E+00 0.  1.
         21    1    1    2  504  501 -0.11435856717E+02  0.19168020227E+02 -0.23210137189E+02  0.32200967169E+02  0.00000000000E+00 0.  1.
<mgrwt>
<rscale>  4 0.29050217E+03</rscale>
<asrwt>0</asrwt>
<pdfrwt beam="1">  1       21 0.68803168E-01 0.29050217E+03</pdfrwt>
<pdfrwt beam="2">  1       21 0.10204399E+00 0.29050217E+03</pdfrwt>
<totfact> 0.13938856E+03</totfact>
</mgrwt>
</event>
<event>
 5    0  0.1856407E+000  0.2423094E+03  0.7546771E-02  0.1118264E+00
         21   -1    0    0  502  501  0.00000000000E+00  0.00000000000E+00  0.15501602812E+02  0.15501602812E+02  0.00000000000E+00 0.  1.
         21   -1    0    0  503  502 -0.00000000000E+00 -0.00000000000E+00 -0.34748641208E+04  0.34748641208E+04  0.00000000000E+00 0.  1.
         25    1    1    2    0    0 -0.15916408244E+03 -0.13325029689E+03 -0.16048403528E+04  0.16230300073E+04  0.12500000000E+03 0.  0.
         21    1    1    2  503  504  0.10375369116E+03  0.76822529258E+02 -0.85522811595E+03  0.86491714039E+03  0.00000000000E+00 0.  1.
         21    1    1    2  504  501  0.55410391281E+02  0.56427767636E+02 -0.99929404930E+03  0.10024185759E+04  0.00000000000E+00 0.  1.
<mgrwt>
<rscale>  4 0.24230940E+03</rscale>
<asrwt>0</asrwt>
<pdfrwt beam="1">  1       21 0.23848607E-02 0.24230940E+03</pdfrwt>
<pdfrwt beam="2">  1       21 0.53459477E+00 0.24230940E+03</pdfrwt>
<totfact> 0.91916605E+02</totfact>
</mgrwt>
</event>
<event>
 5    0  0.1856407E+000  0.2809528E+03  0.7546771E-02  0.1095170E+00
         21   -1    0    0  502  501  0.00000000000E+00  0.00000000000E+00  0.14277733933E+04  0.14277733933E+04  0.00000000000E+00 0. -1.
         21   -1    0    0  503  502 -0.00000000000E+00 -0.00000000000E+00 -0.11328546407E+03  0.11328546407E+03  0.00000000000E+00 0. -1.
         25    1    1    2    0    0 -0.13960457504E+02 -0.25122615582E+03  0.12350611030E+04  0.12666137548E+04  0.12500000000E+03 0.  0.
         21    1    1    2  503  504 -0.22129853737E+02  0.74541403319E+02  0.48042303315E+02  0.91401390268E+02  0.00000000000E+00 0. -1.
         21    1    1    2  504  501  0.36090311242E+02  0.17668475250E+03  0.31384522919E+02  0.18304371230E+03  0.00000000000E+00 0. -1.
<mgrwt>
<rscale>  4 0.28095280E+03</rscale>
<asrwt>0</asrwt>
<pdfrwt beam="1">  1       21 0.21965743E+00 0.28095280E+03</pdfrwt>
<pdfrwt beam="2">  1       21 0.17428534E-01 0.28095280E+03</pdfrwt>
<totfact> 0.27902855E+03</totfact>
</mgrwt>
</event>
<event>
 5    0  0.1856407E+000  0.6310876E+03  0.7546771E-02  0.9842929E-01
         21   -1    0    0  502  501  0.00000000000E+00  0.00000000000E+00  0.37624008462E+03  0.37624008462E+03  0.00000000000E+00 0. -1.
         21   -1    0    0  503  502 -0.00000000000E+00 -0.00000000000E+00 -0.10646129314E+04  0.10646129314E+04  0.00000000000E+00 0. -1.
         25    1    1    2    0    0  0.13840255312E+03 -0.60290236680E+03 -0.28113878816E+03  0.69087665239E+03  0.12500000000E+03 0.  0.
         21    1    1    2  503  504 -0.78240102294E+02  0.50885539094E+03 -0.30382827463E+03  0.59780175892E+03  0.00000000000E+00 0. -1.
         21    1    1    2  504  501 -0.60162450825E+02  0.94046975859E+02 -0.10340578401E+03  0.15217460473E+03  0.00000000000E+00 0. -1.
<mgrwt>
<rscale>  4 0.63108758E+03</rscale>
<asrwt>0</asrwt>
<pdfrwt beam="1">  1       21 0.57883091E-01 0.63108758E+03</pdfrwt>
<pdfrwt beam="2">  1       21 0.16378660E+00 0.63108758E+03</pdfrwt>
<totfact> 0.51301889E+02</totfact>
</mgrwt>
</event>
<event>
 5    0  0.1874658E+000  0.3231698E+03  0.7546771E-02  0.1074200E+00
         21   -1    0    0  502  501  0.00000000000E+00  0.00000000000E+00  0.78312357928E+02  0.78312357928E+02  0.00000000000E+00 0. -1.
         21   -1    0    0  503  502 -0.00000000000E+00 -0.00000000000E+00 -0.16505268861E+04  0.16505268861E+04  0.00000000000E+00 0. -1.
         25    1    1    2    0    0  0.29431701461E+03 -0.13038701129E+03 -0.82009495492E+03  0.88983369957E+03  0.12500000000E+03 0.  0.
         21    1    1    2  503  504 -0.67864197830E+02 -0.44056228763E+02 -0.22910381600E+03  0.24297131342E+03  0.00000000000E+00 0. -1.
         21    1    1    2  504  501 -0.22645281678E+03  0.17444324006E+03 -0.52301575722E+03  0.59603423100E+03  0.00000000000E+00 0. -1.
<mgrwt>
<rscale>  4 0.32316983E+03</rscale>
<asrwt>0</asrwt>
<pdfrwt beam="1">  1       21 0.12048056E-01 0.32316983E+03</pdfrwt>
<pdfrwt beam="2">  1       21 0.25392720E+00 0.32316983E+03</pdfrwt>
<totfact> 0.32932784E+03</totfact>
</mgrwt>
</event>
