<event>
 5    0  0.1856407E+000  0.3386051E+03  0.7546771E-02  0.1067392E+00
         21   -1    0    0  502  501  0.00000000000E+00  0.00000000000E+00  0.34667212130E+03  0.34667212130E+03  0.00000000000E+00 0.  1.
         21   -1    0    0  503  502 -0.00000000000E+00 -0.00000000000E+00 -0.50722622288E+03  0.50722622288E+03  0.00000000000E+00 0. -1.
         25    1    1    2    0    0  0.30070223429E+03 -0.92771703284E+02  0.18221415685E+03  0.38451972848E+03  0.12500000000E+03 0.  0.
         21    1    1    2  503  504 -0.26148412958E+02  0.15392355649E+02 -0.12073502724E+02  0.32656294656E+02  0.00000000000E+00 0.  1.
         21    1    1    2  504  501 -0.27455382133E+03  0.77379347635E+02 -0.33069475571E+03  0.43672232105E+03  0.00000000000E+00 0. -1.
<mgrwt>
<rscale>  4 0.33860511E+03</rscale>
<asrwt>0</asrwt>
<pdfrwt beam="1">  1       21 0.53334173E-01 0.33860511E+03</pdfrwt>
<pdfrwt beam="2">  1       21 0.78034803E-01 0.33860511E+03</pdfrwt>
<totfact> 0.44339610E+03</totfact>
</mgrwt>
</event>
<event>
 5    0  0.1860167E+000  0.2882330E+03  0.7546771E-02  0.1091275E+00
         21   -1    0    0  502  501  0.00000000000E+00  0.00000000000E+00  0.17133496500E+03  0.17133496500E+03  0.00000000000E+00 0. -1.
         21   -1    0    0  503  502 -0.00000000000E+00 -0.00000000000E+00 -0.54142036824E+03  0.54142036824E+03  0.00000000000E+00 0. -1.
         25    1    1    2    0    0  0.25316892662E+03 -0.57954667888E+02 -0.48237296889E+02  0.29224148533E+03  0.12500000000E+03 0.  0.
         21    1    1    2  503  504 -0.86916022295E+02  0.36694855910E+02 -0.67886710094E+02  0.11623042970E+03  0.00000000000E+00 0. -1.
         21    1    1    2  504  501 -0.16625290433E+03  0.21259811978E+02 -0.25396139626E+03  0.30428341820E+03  0.00000000000E+00 0. -1.
<mgrwt>
<rscale>  4 0.28823298E+03</rscale>
<asrwt>0</asrwt>
<pdfrwt beam="1">  1       21 0.26359226E-01 0.28823298E+03</pdfrwt>
<pdfrwt beam="2">  1       21 0.83295441E-01 0.28823298E+03</pdfrwt>
<totfact> 0.16324074E+04</totfact>
</mgrwt>
</event>
<event>
 5    0  0.2665860E+000  0.2639275E+03  0.7546771E-02  0.1104806E+00
         21   -1    0    0  502  501  0.00000000000E+00  0.00000000000E+00  0.16374152442E+03  0.16374152442E+03  0.00000000000E+00 0. -1.
         21   -1    0    0  503  502 -0.00000000000E+00 -0.00000000000E+00 -0.52065484115E+03  0.52065484115E+03  0.00000000000E+00 0. -1.
         25    1    1    2    0    0 -0.21516170134E+03 -0.15026686321E+03 -0.19528418972E+03  0.35019366451E+03  0.12500000000E+03 0.  0.
         21    1    1    2  503  504  0.20109606515E+03  0.80658626376E+02 -0.94150454652E+02  0.23624087187E+03  0.00000000000E+00 0. -1.
         21    1    1    2  504  501  0.14065636189E+02  0.69608236831E+02 -0.67478672358E+02  0.97961829195E+02  0.00000000000E+00 0. -1.
<mgrwt>
<rscale>  4 0.26392752E+03</rscale>
<asrwt>0</asrwt>
<pdfrwt beam="1">  1       21 0.25191003E-01 0.26392752E+03</pdfrwt>
<pdfrwt beam="2">  1       21 0.80100746E-01 0.26392752E+03</pdfrwt>
<totfact> 0.19702752E+04</totfact>
</mgrwt>
</event>
<event>
 5    0  0.1856407E+000  0.2839350E+03  0.7546771E-02  0.1093559E+00
         21   -1    0    0  502  501  0.00000000000E+00  0.00000000000E+00  0.68030244556E+03  0.68030244556E+03  0.00000000000E+00 0. -1.
         21   -1    0    0  503  502 -0.00000000000E+00 -0.00000000000E+00 -0.73916396180E+03  0.73916396180E+03  0.00000000000E+00 0.  1.
         25    1    1    2    0    0  0.26316875091E+02  0.25357736476E+03  0.62474815040E+03  0.68624289378E+03  0.12500000000E+03 0.  0.
         21    1    1    2  503  504  0.74302414919E+01 -0.13860202360E+03 -0.28516660634E+03  0.31715252294E+03  0.00000000000E+00 0.  1.
         21    1    1    2  504  501 -0.33747116583E+02 -0.11497534116E+03 -0.39844306029E+03  0.41607099064E+03  0.00000000000E+00 0. -1.
<mgrwt>
<rscale>  4 0.28393495E+03</rscale>
<asrwt>0</asrwt>
<pdfrwt beam="1">  1       21 0.10466191E+00 0.28393495E+03</pdfrwt>
<pdfrwt beam="2">  1       21 0.11371753E+00 0.28393495E+03</pdfrwt>
<totfact> 0.40688162E+02</totfact>
</mgrwt>
</event>
<event>
 5    0  0.1856407E+000  0.2203187E+03  0.7546771E-02  0.1133646E+00
         21   -1    0    0  502  501  0.00000000000E+00  0.00000000000E+00  0.52361604465E+03  0.52361604465E+03  0.00000000000E+00 0. -1.
         21   -1    0    0  503  502 -0.00000000000E+00 -0.00000000000E+00 -0.29841423286E+03  0.29841423286E+03  0.00000000000E+00 0. -1.
         25    1    1    2    0    0 -0.15368664648E+03 -0.23599422310E+03  0.23039791101E+03  0.38473504655E+03  0.12500000000E+03 0.  0.
         21    1    1    2  503  504  0.77350831188E+02  0.11198681766E+03 -0.16974049966E+03  0.21756846196E+03  0.00000000000E+00 0. -1.
         21    1    1    2  504  501  0.76335815288E+02  0.12400740544E+03  0.16454440044E+03  0.21972676901E+03  0.00000000000E+00 0. -1.
<mgrwt>
<rscale>  4 0.22031872E+03</rscale>
<asrwt>0</asrwt>
<pdfrwt beam="1">  1       21 0.80556315E-01 0.22031872E+03</pdfrwt>
<pdfrwt beam="2">  1       21 0.45909882E-01 0.22031872E+03</pdfrwt>
<totfact> 0.60338664E+03</totfact>
</mgrwt>
</event>
<event>
 5    0  0.1856407E+000  0.2424195E+03  0.7546771E-02  0.1118191E+00
         21   -1    0    0  502  501  0.00000000000E+00  0.00000000000E+00  0.85236118788E+03  0.85236118788E+03  0.00000000000E+00 0. -1.
         21   -1    0    0  503  502 -0.00000000000E+00 -0.00000000000E+00 -0.12117919222E+03  0.12117919222E+03  0.00000000000E+00 0. -1.
         25    1    1    2    0    0 -0.16317580598E+03  0.12851403996E+03  0.71244183823E+03  0.75255602781E+03  0.12500000000E+03 0.  0.
         21    1    1    2  503  504  0.30525909466E+02 -0.47537521492E+02 -0.21498086419E+02  0.60446793281E+02  0.00000000000E+00 0. -1.
         21    1    1    2  504  501  0.13264989651E+03 -0.80976518464E+02  0.40238243846E+02  0.16053755902E+03  0.00000000000E+00 0. -1.
<mgrwt>
<rscale>  4 0.24241948E+03</rscale>
<asrwt>0</asrwt>
<pdfrwt beam="1">  1       21 0.13113249E+00 0.24241948E+03</pdfrwt>
<pdfrwt beam="2">  1       21 0.18642953E-01 0.24241948E+03</pdfrwt>
<totfact> 0.10762876E+04</totfact>
</mgrwt>
</event>
<event>
 5    0  0.1856407E+000  0.4644321E+03  0.7546771E-02  0.1023504E+00
         21   -1    0    0  502  501  0.00000000000E+00  0.00000000000E+00  0.25806428272E+04  0.25806428272E+04  0.00000000000E+00 0.  1.
         21   -1    0    0  503  502 -0.00000000000E+00 -0.00000000000E+00 -0.25553391300E+03  0.25553391300E+03  0.00000000000E+00 0.  1.
         25    1    1    2    0    0  0.18517324177E+03 -0.40716464800E+03  0.23366241610E+04  0.23823328168E+04  0.12500000000E+03 0.  0.
         21    1    1    2  503  504 -0.17420209256E+03  0.37926778249E+03 -0.30313486692E+02  0.41846066406E+03  0.00000000000E+00 0.  1.
         21    1    1    2  504  501 -0.10971149210E+02  0.27896865511E+02  0.18798239871E+02  0.35383259355E+02  0.00000000000E+00 0. -1.
<mgrwt>
<rscale>  4 0.46443210E+03</rscale>
<asrwt>0</asrwt>
<pdfrwt beam="1">  1       21 0.39702196E+00 0.46443210E+03</pdfrwt>
<pdfrwt beam="2">  1       21 0.39312911E-01 0.46443210E+03</pdfrwt>
<totfact> 0.41586909E+01</totfact>
</mgrwt>
</event>
<event>
 5    0  0.1856407E+000  0.2616293E+03  0.7546771E-02  0.1106168E+00
         21   -1    0    0  502  501  0.00000000000E+00  0.00000000000E+00  0.22264372309E+03  0.22264372309E+03  0.00000000000E+00 0.  1.
         21   -1    0    0  503  502 -0.00000000000E+00 -0.00000000000E+00 -0.28349057356E+03  0.28349057356E+03  0.00000000000E+00 0. -1.
         25    1    1    2    0    0  0.14282192498E+03 -0.18007445285E+03  0.13838780630E+02  0.26199508139E+03  0.12500000000E+03 0.  0.
         21    1    1    2  503  504 -0.84598280463E+01  0.28906260102E+02 -0.11656232005E+02  0.32295639152E+02  0.00000000000E+00 0.  1.
         21    1    1    2  504  501 -0.13436209693E+03  0.15116819274E+03 -0.63029399090E+02  0.21184357611E+03  0.00000000000E+00 0. -1.
<mgrwt>
<rscale>  4 0.26162934E+03</rscale>
<asrwt>0</asrwt>
<pdfrwt beam="1">  1       21 0.34252881E-01 0.26162934E+03</pdfrwt>
<pdfrwt beam="2">  1       21 0.43613934E-01 0.26162934E+03</pdfrwt>
<totfact> 0.40210277E+04</totfact>
</mgrwt>
</event>
<event>
 5    0  0.1856407E+000  0.5070558E+03  0.7546771E-02  0.1012024E+00
         21   -1    0    0  502  501  0.00000000000E+00  0.00000000000E+00  0.64489695943E+03  0.64489695943E+03  0.00000000000E+00 0. -1.
         21   -1    0    0  503  502 -0.00000000000E+00 -0.00000000000E+00 -0.47118339819E+03  0.47118339819E+03  0.00000000000E+00 0. -1.
         25    1    1    2    0    0  0.14626732429E+03  0.46794983542E+03 -0.13342417255E+03  0.52325728704E+03  0.12500000000E+03 0.  0.
         21    1    1    2  503  504 -0.11709851264E+03 -0.28736040593E+03  0.25762814067E+03  0.40331169512E+03  0.00000000000E+00 0. -1.
         21    1    1    2  504  501 -0.29168811657E+02 -0.18058942949E+03  0.49509593119E+02  0.18951137545E+03  0.00000000000E+00 0. -1.
<mgrwt>
<rscale>  4 0.50678181E+03</rscale>
<asrwt>0</asrwt>
<pdfrwt beam="1">  1       21 0.99214917E-01 0.50705582E+03</pdfrwt>
<pdfrwt beam="2">  1       21 0.72489753E-01 0.50705582E+03</pdfrwt>
<totfact> 0.11987232E+03</totfact>
</mgrwt>
</event>
<event>
 5    0  0.1856407E+000  0.2499556E+03  0.7546771E-02  0.1113333E+00
         21   -1    0    0  502  501  0.00000000000E+00  0.00000000000E+00  0.39629146429E+03  0.39629146429E+03  0.00000000000E+00 0. -1.
         21   -1    0    0  503  502 -0.00000000000E+00 -0.00000000000E+00 -0.19410247183E+03  0.19410247183E+03  0.00000000000E+00 0. -1.
         25    1    1    2    0    0 -0.14028791393E+03 -0.16483956260E+03 -0.51441324695E+02  0.25519402438E+03  0.12500000000E+03 0.  0.
         21    1    1    2  503  504  0.97293075244E+01  0.20237830594E+02  0.41472929861E+02  0.47161776083E+02  0.00000000000E+00 0. -1.
         21    1    1    2  504  501  0.13055860640E+03  0.14460173201E+03  0.21215738729E+03  0.28803813565E+03  0.00000000000E+00 0. -1.
<mgrwt>
<rscale>  4 0.24995556E+03</rscale>
<asrwt>0</asrwt>
<pdfrwt beam="1">  1       21 0.60967917E-01 0.24995556E+03</pdfrwt>
<pdfrwt beam="2">  1       21 0.29861919E-01 0.24995556E+03</pdfrwt>
<totfact> 0.26132882E+04</totfact>
</mgrwt>
</event>
<event>
 5    0  0.1927680E+000  0.2804862E+03  0.7546771E-02  0.1095424E+00
         21   -1    0    0  502  501  0.00000000000E+00  0.00000000000E+00  0.25988545066E+03  0.25988545066E+03  0.00000000000E+00 0. -1.
         21   -1    0    0  503  502 -0.00000000000E+00 -0.00000000000E+00 -0.30910277981E+03  0.30910277981E+03  0.00000000000E+00 0.  1.
         25    1    1    2    0    0 -0.10387238141E+03 -0.22860022825E+03  0.69081598339E+02  0.28886814155E+03  0.12500000000E+03 0.  0.
         21    1    1    2  503  504  0.84637562324E+02  0.19379472395E+03 -0.11366945456E+03  0.24008468691E+03  0.00000000000E+00 0.  1.
         21    1    1    2  504  501  0.19234819091E+02  0.34805504297E+02 -0.46294729319E+01  0.40035402014E+02  0.00000000000E+00 0. -1.
<mgrwt>
<rscale>  4 0.28048625E+03</rscale>
<asrwt>0</asrwt>
<pdfrwt beam="1">  1       21 0.39982377E-01 0.28048625E+03</pdfrwt>
<pdfrwt beam="2">  1       21 0.47554274E-01 0.28048625E+03</pdfrwt>
<totfact> 0.24418672E+04</totfact>
</mgrwt>
</event>
