<event>
 5    0  0.1856407E+000  0.2428368E+03  0.7546771E-02  0.1117917E+00
         21   -1    0    0  502  501  0.00000000000E+00  0.00000000000E+00  0.17055917694E+03  0.17055917694E+03  0.00000000000E+00 0. -1.
         21   -1    0    0  503  502 -0.00000000000E+00 -0.00000000000E+00 -0.37024422825E+03  0.37024422825E+03  0.00000000000E+00 0. -1.
         25    1    1    2    0    0 -0.21605813021E+02 -0.19918937549E+03 -0.22019664882E+02  0.23717732629E+03  0.12500000000E+03 0.  0.
         21    1    1    2  503  504  0.40216220049E+02  0.20806106448E+03 -0.18543883117E+03  0.28159245553E+03  0.00000000000E+00 0. -1.
         21    1    1    2  504  501 -0.18610407028E+02 -0.88716889936E+01  0.77734447399E+01  0.22033623362E+02  0.00000000000E+00 0. -1.
<mgrwt>
<rscale>  4 0.24283682E+03</rscale>
<asrwt>0</asrwt>
<pdfrwt beam="1">  1       21 0.26239874E-01 0.24283682E+03</pdfrwt>
<pdfrwt beam="2">  1       21 0.56960650E-01 0.24283682E+03</pdfrwt>
<totfact> 0.39028589E+04</totfact>
</mgrwt>
</event>
<event>
 5    0  0.1856407E+000  0.4231647E+03  0.7546771E-02  0.1036505E+00
         21   -1    0    0  502  501  0.00000000000E+00  0.00000000000E+00  0.19457849609E+04  0.19457849609E+04  0.00000000000E+00 0.  1.
         21   -1    0    0  503  502 -0.00000000000E+00 -0.00000000000E+00 -0.16346113548E+03  0.16346113548E+03  0.00000000000E+00 0.  1.
         25    1    1    2    0    0  0.34939304445E+03  0.19120891666E+03  0.15909757397E+04  0.16448298252E+04  0.12500000000E+03 0.  0.
         21    1    1    2  503  504 -0.13552761185E+03 -0.15531599466E+03  0.99931866734E+02  0.22907895966E+03  0.00000000000E+00 0.  1.
         21    1    1    2  504  501 -0.21386543260E+03 -0.35892922000E+02  0.91416218905E+02  0.23533731151E+03  0.00000000000E+00 0.  1.
<mgrwt>
<rscale>  4 0.42172780E+03</rscale>
<asrwt>0</asrwt>
<pdfrwt beam="1">  1       21 0.29935152E+00 0.42316472E+03</pdfrwt>
<pdfrwt beam="2">  1       21 0.25147868E-01 0.42316472E+03</pdfrwt>
<totfact> 0.41620036E+02</totfact>
</mgrwt>
</event>
<event>
 5    0  0.1988379E+000  0.2421248E+03  0.7546771E-02  0.1118385E+00
         21   -1    0    0  502  501  0.00000000000E+00  0.00000000000E+00  0.33195560224E+03  0.33195560224E+03  0.00000000000E+00 0.  1.
         21   -1    0    0  503  502 -0.00000000000E+00 -0.00000000000E+00 -0.25541023400E+03  0.25541023400E+03  0.00000000000E+00 0.  1.
         25    1    1    2    0    0 -0.21960501297E+03 -0.45604093389E+02  0.17978948028E+03  0.31345709798E+03  0.12500000000E+03 0.  0.
         21    1    1    2  503  504  0.46332483707E+02  0.56150099651E+02 -0.17423857394E+01  0.72818738285E+02  0.00000000000E+00 0.  1.
         21    1    1    2  504  501  0.17327252926E+03 -0.10546006262E+02 -0.10150172630E+03  0.20108999997E+03  0.00000000000E+00 0.  1.
<mgrwt>
<rscale>  4 0.24212478E+03</rscale>
<asrwt>0</asrwt>
<pdfrwt beam="1">  1       21 0.51070092E-01 0.24212478E+03</pdfrwt>
<pdfrwt beam="2">  1       21 0.39293882E-01 0.24212478E+03</pdfrwt>
<totfact> 0.22159481E+04</totfact>
</mgrwt>
</event>
<event>
 5    0  0.2015059E+000  0.2822587E+03  0.7546771E-02  0.1094462E+00
         21   -1    0    0  502  501  0.00000000000E+00  0.00000000000E+00  0.12788779743E+03  0.12788779743E+03  0.00000000000E+00 0. -1.
         21   -1    0    0  503  502 -0.00000000000E+00 -0.00000000000E+00 -0.65708204348E+03  0.65708204348E+03  0.00000000000E+00 0. -1.
         25    1    1    2    0    0 -0.23528439705E+03  0.93200002678E+02 -0.17336495337E+03  0.33124823780E+03  0.12500000000E+03 0.  0.
         21    1    1    2  503  504  0.87326807025E+02  0.72095183066E+01 -0.19266705219E+03  0.21165665919E+03  0.00000000000E+00 0. -1.
         21    1    1    2  504  501  0.14795759002E+03 -0.10040952098E+03 -0.16316224049E+03  0.24206494391E+03  0.00000000000E+00 0. -1.
<mgrwt>
<rscale>  4 0.28225873E+03</rscale>
<asrwt>0</asrwt>
<pdfrwt beam="1">  1       21 0.19675045E-01 0.28225873E+03</pdfrwt>
<pdfrwt beam="2">  1       21 0.10108955E+00 0.28225873E+03</pdfrwt>
<totfact> 0.18144326E+04</totfact>
</mgrwt>
</event>
<event>
 5    0  0.1856407E+000  0.4859903E+03  0.7546771E-02  0.1017502E+00
         21   -1    0    0  502  501  0.00000000000E+00  0.00000000000E+00  0.19245756983E+04  0.19245756983E+04  0.00000000000E+00 0. -1.
         21   -1    0    0  503  502 -0.00000000000E+00 -0.00000000000E+00 -0.12171801858E+03  0.12171801858E+03  0.00000000000E+00 0. -1.
         25    1    1    2    0    0  0.46464254069E+03 -0.68329133285E+02  0.10397178245E+04  0.11476932150E+04  0.12500000000E+03 0.  0.
         21    1    1    2  503  504 -0.44166442610E+03  0.74353374808E+02  0.74254351289E+03  0.86716016869E+03  0.00000000000E+00 0. -1.
         21    1    1    2  504  501 -0.22978114588E+02 -0.60242415230E+01  0.20596342266E+02  0.31440333183E+02  0.00000000000E+00 0. -1.
<mgrwt>
<rscale>  4 0.48599029E+03</rscale>
<asrwt>0</asrwt>
<pdfrwt beam="1">  1       21 0.29608855E+00 0.48599029E+03</pdfrwt>
<pdfrwt beam="2">  1       21 0.18725850E-01 0.48599029E+03</pdfrwt>
<totfact> 0.74030589E+02</totfact>
</mgrwt>
</event>
<event>
 5    0  0.1856407E+000  0.2599190E+03  0.7546771E-02  0.1107192E+00
         21   -1    0    0  502  501  0.00000000000E+00  0.00000000000E+00  0.27776163827E+03  0.27776163827E+03  0.00000000000E+00 0. -1.
         21   -1    0    0  503  502 -0.00000000000E+00 -0.00000000000E+00 -0.29579827681E+03  0.29579827681E+03  0.00000000000E+00 0. -1.
         25    1    1    2    0    0  0.22113047341E+03  0.55083646896E+02  0.13678419297E+03  0.29371382309E+03  0.12500000000E+03 0.  0.
         21    1    1    2  503  504 -0.68844366688E+02  0.53667263576E+01 -0.51517113607E+02  0.86153128619E+02  0.00000000000E+00 0. -1.
         21    1    1    2  504  501 -0.15228610672E+03 -0.60450373253E+02 -0.10330371790E+03  0.19369296337E+03  0.00000000000E+00 0. -1.
<mgrwt>
<rscale>  4 0.25991902E+03</rscale>
<asrwt>0</asrwt>
<pdfrwt beam="1">  1       21 0.42732560E-01 0.25991902E+03</pdfrwt>
<pdfrwt beam="2">  1       21 0.45507427E-01 0.25991902E+03</pdfrwt>
<totfact> 0.23560540E+04</totfact>
</mgrwt>
</event>
<event>
 5    0  0.1856407E+000  0.2376988E+03  0.7546771E-02  0.1121335E+00
         21   -1    0    0  502  501  0.00000000000E+00  0.00000000000E+00  0.71044853343E+03  0.71044853343E+03  0.00000000000E+00 0.  1.
         21   -1    0    0  503  502 -0.00000000000E+00 -0.00000000000E+00 -0.15692111905E+03  0.15692111905E+03  0.00000000000E+00 0. -1.
         25    1    1    2    0    0  0.94679398118E+02 -0.17937061111E+03  0.57449220492E+03  0.62193592762E+03  0.12500000000E+03 0.  0.
         21    1    1    2  503  504 -0.56363355422E+02  0.19452437638E+03 -0.24863012173E+02  0.20404590223E+03  0.00000000000E+00 0. -1.
         21    1    1    2  504  501 -0.38316042697E+02 -0.15153765274E+02  0.38982216414E+01  0.41387822628E+02  0.00000000000E+00 0. -1.
<mgrwt>
<rscale>  4 0.23769881E+03</rscale>
<asrwt>0</asrwt>
<pdfrwt beam="1">  1       21 0.10929977E+00 0.23769881E+03</pdfrwt>
<pdfrwt beam="2">  1       21 0.24141711E-01 0.23769881E+03</pdfrwt>
<totfact> 0.10424177E+04</totfact>
</mgrwt>
</event>
<event>
 5    0  0.1856407E+000  0.2996097E+03  0.7546771E-02  0.1085436E+00
         21   -1    0    0  502  501  0.00000000000E+00  0.00000000000E+00  0.55229340535E+03  0.55229340535E+03  0.00000000000E+00 0.  1.
         21   -1    0    0  503  502 -0.00000000000E+00 -0.00000000000E+00 -0.16972077449E+03  0.16972077449E+03  0.00000000000E+00 0.  1.
         25    1    1    2    0    0  0.26960672677E+03  0.38120680282E+02  0.30707393455E+03  0.42902258060E+03  0.12500000000E+03 0.  0.
         21    1    1    2  503  504 -0.19092101090E+03 -0.84427946330E+00  0.77113532402E+02  0.20590784854E+03  0.00000000000E+00 0.  1.
         21    1    1    2  504  501 -0.78685715863E+02 -0.37276400819E+02 -0.16148360912E+01  0.87083750692E+02  0.00000000000E+00 0.  1.
<mgrwt>
<rscale>  4 0.29960970E+03</rscale>
<asrwt>0</asrwt>
<pdfrwt beam="1">  1       21 0.84968215E-01 0.29960970E+03</pdfrwt>
<pdfrwt beam="2">  1       21 0.26110889E-01 0.29960970E+03</pdfrwt>
<totfact> 0.15802907E+04</totfact>
</mgrwt>
</event>
<event>
 5    0  0.1856407E+000  0.2439095E+03  0.7546771E-02  0.1117215E+00
         21   -1    0    0  502  501  0.00000000000E+00  0.00000000000E+00  0.40608398365E+03  0.40608398365E+03  0.00000000000E+00 0. -1.
         21   -1    0    0  503  502 -0.00000000000E+00 -0.00000000000E+00 -0.43334775037E+03  0.43334775037E+03  0.00000000000E+00 0. -1.
         25    1    1    2    0    0 -0.17010545256E+03 -0.12979742179E+03  0.31903026788E+03  0.40396602273E+03  0.12500000000E+03 0.  0.
         21    1    1    2  503  504  0.10326552626E+03  0.15988205272E+03 -0.23906446772E+03  0.30557791055E+03  0.00000000000E+00 0. -1.
         21    1    1    2  504  501  0.66839926303E+02 -0.30084630928E+02 -0.10722956689E+03  0.12988780074E+03  0.00000000000E+00 0. -1.
<mgrwt>
<rscale>  4 0.24390951E+03</rscale>
<asrwt>0</asrwt>
<pdfrwt beam="1">  1       21 0.62474459E-01 0.24390951E+03</pdfrwt>
<pdfrwt beam="2">  1       21 0.66668885E-01 0.24390951E+03</pdfrwt>
<totfact> 0.47209561E+03</totfact>
</mgrwt>
</event>
<event>
 5    0  0.1856407E+000  0.2997109E+03  0.7546771E-02  0.1085385E+00
         21   -1    0    0  502  501  0.00000000000E+00  0.00000000000E+00  0.19402771348E+03  0.19402771348E+03  0.00000000000E+00 0. -1.
         21   -1    0    0  503  502 -0.00000000000E+00 -0.00000000000E+00 -0.67612600807E+03  0.67612600807E+03  0.00000000000E+00 0.  1.
         25    1    1    2    0    0  0.17796901016E+03  0.20622476532E+03  0.12946935003E+02  0.29999040907E+03  0.12500000000E+03 0.  0.
         21    1    1    2  503  504 -0.11053069106E+03 -0.15501480453E+03 -0.39916681165E+03  0.44224514335E+03  0.00000000000E+00 0.  1.
         21    1    1    2  504  501 -0.67438319098E+02 -0.51209960788E+02 -0.95878417934E+02  0.12791816912E+03  0.00000000000E+00 0.  1.
<mgrwt>
<rscale>  4 0.29971090E+03</rscale>
<asrwt>0</asrwt>
<pdfrwt beam="1">  1       21 0.29850418E-01 0.29971090E+03</pdfrwt>
<pdfrwt beam="2">  1       21 0.10401939E+00 0.29971090E+03</pdfrwt>
<totfact> 0.75355924E+03</totfact>
</mgrwt>
</event>
<event>
 5    0  0.1856407E+000  0.3379356E+03  0.7546771E-02  0.1067679E+00
         21   -1    0    0  502  501  0.00000000000E+00  0.00000000000E+00  0.13680377011E+04  0.13680377011E+04  0.00000000000E+00 0. -1.
         21   -1    0    0  503  502 -0.00000000000E+00 -0.00000000000E+00 -0.14392622724E+03  0.14392622724E+03  0.00000000000E+00 0. -1.
         25    1    1    2    0    0 -0.34132258875E+03  0.16438255713E+02  0.17908752426E+03  0.40554736738E+03  0.12500000000E+03 0.  0.
         21    1    1    2  503  504  0.34822455584E+02  0.17683602876E+02  0.43373469221E+02  0.58365838089E+02  0.00000000000E+00 0. -1.
         21    1    1    2  504  501  0.30650013317E+03 -0.34121858589E+02  0.10016504804E+04  0.10480507229E+04  0.00000000000E+00 0. -1.
<mgrwt>
<rscale>  4 0.33793560E+03</rscale>
<asrwt>0</asrwt>
<pdfrwt beam="1">  1       21 0.21046733E+00 0.33793560E+03</pdfrwt>
<pdfrwt beam="2">  1       21 0.22142497E-01 0.33793560E+03</pdfrwt>
<totfact> 0.19584466E+03</totfact>
</mgrwt>
</event>
<event>
 5    0  0.1856407E+000  0.2792982E+03  0.7546771E-02  0.1096073E+00
         21   -1    0    0  502  501  0.00000000000E+00  0.00000000000E+00  0.17702459304E+04  0.17702459304E+04  0.00000000000E+00 0. -1.
         21   -1    0    0  503  502 -0.00000000000E+00 -0.00000000000E+00 -0.46601971890E+02  0.46601971890E+02  0.00000000000E+00 0. -1.
         25    1    1    2    0    0  0.47804564256E+02  0.24514726603E+03  0.59806010976E+03  0.66006314341E+03  0.12500000000E+03 0.  0.
         21    1    1    2  503  504 -0.69483828577E+02 -0.16846131454E+03  0.87726868679E+03  0.89599529338E+03  0.00000000000E+00 0. -1.
         21    1    1    2  504  501  0.21679264321E+02 -0.76685951483E+02  0.24831516192E+03  0.26078946546E+03  0.00000000000E+00 0. -1.
<mgrwt>
<rscale>  4 0.27929815E+03</rscale>
<asrwt>0</asrwt>
<pdfrwt beam="1">  1       21 0.27234548E+00 0.27929815E+03</pdfrwt>
<pdfrwt beam="2">  1       21 0.71695355E-02 0.27929815E+03</pdfrwt>
<totfact> 0.66240756E+03</totfact>
</mgrwt>
</event>
