<event>
 5    0  0.6782640E+000  0.2485270E+03  0.7546771E-02  0.1114239E+00
         21   -1    0    0  502  501  0.00000000000E+00  0.00000000000E+00  0.78923199440E+02  0.78923199440E+02  0.00000000000E+00 0.  1.
         21   -1    0    0  503  502 -0.00000000000E+00 -0.00000000000E+00 -0.71754371072E+03  0.71754371072E+03  0.00000000000E+00 0.  1.
         25    1    1    2    0    0 -0.21474204466E+03  0.51502941556E+01 -0.25843669020E+03  0.35854594422E+03  0.12500000000E+03 0.  0.
         21    1    1    2  503  504  0.18257804491E+03 -0.97096183319E+01 -0.34185457575E+03  0.38767714677E+03  0.00000000000E+00 0.  1.
         21    1    1    2  504  501  0.32163999749E+02  0.45593241763E+01 -0.38329245334E+02  0.50243819169E+02  0.00000000000E+00 0. -1.
<mgrwt>
<rscale>  4 0.24852700E+03</rscale>
<asrwt>0</asrwt>
<pdfrwt beam="1">  1       21 0.12142031E-01 0.24852700E+03</pdfrwt>
<pdfrwt beam="2">  1       21 0.11039134E+00 0.24852700E+03</pdfrwt>
<totfact> 0.36158104E+04</totfact>
</mgrwt>
</event>
<event>
 5    0  0.1856407E+000  0.3037351E+03  0.7546771E-02  0.1083388E+00
         21   -1    0    0  502  501  0.00000000000E+00  0.00000000000E+00  0.17387737045E+03  0.17387737045E+03  0.00000000000E+00 0.  1.
         21   -1    0    0  503  502 -0.00000000000E+00 -0.00000000000E+00 -0.66280503161E+03  0.66280503161E+03  0.00000000000E+00 0. -1.
         25    1    1    2    0    0 -0.16111151229E+03 -0.22510684204E+03 -0.42470596942E+02  0.30669000853E+03  0.12500000000E+03 0.  0.
         21    1    1    2  503  504  0.75377940337E+02  0.16280542359E+03 -0.27069420652E+03  0.32475035532E+03  0.00000000000E+00 0. -1.
         21    1    1    2  504  501  0.85733571955E+02  0.62301418457E+02 -0.17576285770E+03  0.20524203821E+03  0.00000000000E+00 0. -1.
<mgrwt>
<rscale>  4 0.30373510E+03</rscale>
<asrwt>0</asrwt>
<pdfrwt beam="1">  1       21 0.26750365E-01 0.30373510E+03</pdfrwt>
<pdfrwt beam="2">  1       21 0.10197000E+00 0.30373510E+03</pdfrwt>
<totfact> 0.97814481E+03</totfact>
</mgrwt>
</event>
<event>
 5    0  0.5021230E+000  0.2663710E+03  0.7546771E-02  0.1103375E+00
         21   -1    0    0  502  501  0.00000000000E+00  0.00000000000E+00  0.10301361482E+03  0.10301361482E+03  0.00000000000E+00 0. -1.
         21   -1    0    0  503  502 -0.00000000000E+00 -0.00000000000E+00 -0.65719341137E+03  0.65719341137E+03  0.00000000000E+00 0. -1.
         25    1    1    2    0    0  0.13312975008E+03  0.19391998929E+03 -0.20884587089E+03  0.33848203851E+03  0.12500000000E+03 0.  0.
         21    1    1    2  503  504 -0.13610335848E+03 -0.17017351232E+03 -0.30541517122E+03  0.37518205620E+03  0.00000000000E+00 0. -1.
         21    1    1    2  504  501  0.29736083986E+01 -0.23746476974E+02 -0.39918754433E+02  0.46542931484E+02  0.00000000000E+00 0. -1.
<mgrwt>
<rscale>  4 0.26637097E+03</rscale>
<asrwt>0</asrwt>
<pdfrwt beam="1">  1       21 0.15848248E-01 0.26637097E+03</pdfrwt>
<pdfrwt beam="2">  1       21 0.10110668E+00 0.26637097E+03</pdfrwt>
<totfact> 0.27320926E+04</totfact>
</mgrwt>
</event>
<event>
 5    0  0.1856407E+000  0.4070811E+03  0.7546771E-02  0.1041355E+00
         21   -1    0    0  502  501  0.00000000000E+00  0.00000000000E+00  0.28069172860E+04  0.28069172860E+04  0.00000000000E+00 0. -1.
         21   -1    0    0  503  502 -0.00000000000E+00 -0.00000000000E+00 -0.22432215365E+03  0.22432215365E+03  0.00000000000E+00 0. -1.
         25    1    1    2    0    0 -0.30014411553E+03 -0.24265240518E+03  0.23585260879E+04  0.23931646386E+04  0.12500000000E+03 0.  0.
         21    1    1    2  503  504  0.22413013240E+03  0.34913290272E+03  0.27492765898E+03  0.49770806472E+03  0.00000000000E+00 0. -1.
         21    1    1    2  504  501  0.76013983135E+02 -0.10648049754E+03 -0.50858614604E+02  0.14036673633E+03  0.00000000000E+00 0. -1.
<mgrwt>
<rscale>  4 0.40708113E+03</rscale>
<asrwt>0</asrwt>
<pdfrwt beam="1">  1       21 0.43183340E+00 0.40708113E+03</pdfrwt>
<pdfrwt beam="2">  1       21 0.34511102E-01 0.40708113E+03</pdfrwt>
<totfact> 0.33644625E+01</totfact>
</mgrwt>
</event>
<event>
 5    0  0.1856407E+000  0.3163495E+03  0.7546771E-02  0.1077342E+00
         21   -1    0    0  502  501  0.00000000000E+00  0.00000000000E+00  0.23851228058E+03  0.23851228058E+03  0.00000000000E+00 0. -1.
         21   -1    0    0  503  502 -0.00000000000E+00 -0.00000000000E+00 -0.22202216773E+04  0.22202216773E+04  0.00000000000E+00 0.  1.
         25    1    1    2    0    0 -0.27124851835E+03  0.10217395102E+03  0.11374993823E+03  0.33552842416E+03  0.12500000000E+03 0.  0.
         21    1    1    2  503  504  0.29175052667E+03 -0.89272452047E+02 -0.20399626986E+04  0.20626526010E+04  0.00000000000E+00 0.  1.
         21    1    1    2  504  501 -0.20502008321E+02 -0.12901498972E+02 -0.55496636287E+02  0.60552932713E+02  0.00000000000E+00 0. -1.
<mgrwt>
<rscale>  4 0.31634952E+03</rscale>
<asrwt>0</asrwt>
<pdfrwt beam="1">  1       21 0.36694197E-01 0.31634952E+03</pdfrwt>
<pdfrwt beam="2">  1       21 0.34157257E+00 0.31634952E+03</pdfrwt>
<totfact> 0.11962136E+02</totfact>
</mgrwt>
</event>
<event>
 5    0  0.3151062E+000  0.2980156E+03  0.7546771E-02  0.1086237E+00
         21   -1    0    0  502  501  0.00000000000E+00  0.00000000000E+00  0.14797224283E+03  0.14797224283E+03  0.00000000000E+00 0.  1.
         21   -1    0    0  503  502 -0.00000000000E+00 -0.00000000000E+00 -0.98596132249E+03  0.98596132249E+03  0.00000000000E+00 0.  1.
         25    1    1    2    0    0  0.23297128894E+03 -0.13922422426E+03 -0.60913264659E+02  0.30494988425E+03  0.12500000000E+03 0.  0.
         21    1    1    2  503  504 -0.21857878920E+03  0.15435022596E+03 -0.72954169070E+03  0.77706612190E+03  0.00000000000E+00 0.  1.
         21    1    1    2  504  501 -0.14392499740E+02 -0.15126001694E+02 -0.47534124305E+02  0.51917559164E+02  0.00000000000E+00 0.  1.
<mgrwt>
<rscale>  4 0.29801559E+03</rscale>
<asrwt>0</asrwt>
<pdfrwt beam="1">  1       21 0.22764961E-01 0.29801559E+03</pdfrwt>
<pdfrwt beam="2">  1       21 0.15168635E+00 0.29801559E+03</pdfrwt>
<totfact> 0.48840647E+03</totfact>
</mgrwt>
</event>
<event>
 5    0  0.1856407E+000  0.2468429E+03  0.7546771E-02  0.1115316E+00
         21   -1    0    0  502  501  0.00000000000E+00  0.00000000000E+00  0.56518870796E+02  0.56518870796E+02  0.00000000000E+00 0.  1.
         21   -1    0    0  503  502 -0.00000000000E+00 -0.00000000000E+00 -0.14727969156E+04  0.14727969156E+04  0.00000000000E+00 0. -1.
         25    1    1    2    0    0  0.57711156646E+02  0.20662376003E+03 -0.37666426599E+03  0.45113736831E+03  0.12500000000E+03 0.  0.
         21    1    1    2  503  504 -0.12066445454E+02 -0.21295520783E+03 -0.61231547736E+03  0.64840247028E+03  0.00000000000E+00 0. -1.
         21    1    1    2  504  501 -0.45644711192E+02  0.63314477976E+01 -0.42729830145E+03  0.42977594781E+03  0.00000000000E+00 0.  1.
<mgrwt>
<rscale>  4 0.24684293E+03</rscale>
<asrwt>0</asrwt>
<pdfrwt beam="1">  1       21 0.86952104E-02 0.24684293E+03</pdfrwt>
<pdfrwt beam="2">  1       21 0.22658415E+00 0.24684293E+03</pdfrwt>
<totfact> 0.91025405E+03</totfact>
</mgrwt>
</event>
<event>
 5    0  0.2037275E+000  0.3029626E+03  0.7546771E-02  0.1083769E+00
         21   -1    0    0  502  501  0.00000000000E+00  0.00000000000E+00  0.48697808907E+03  0.48697808907E+03  0.00000000000E+00 0.  1.
         21   -1    0    0  503  502 -0.00000000000E+00 -0.00000000000E+00 -0.19294128475E+03  0.19294128475E+03  0.00000000000E+00 0.  1.
         25    1    1    2    0    0  0.26529435954E+03  0.76028076011E+02  0.49419960721E+02  0.30696693317E+03  0.12500000000E+03 0.  0.
         21    1    1    2  503  504 -0.23822679426E+03 -0.48917294957E+02  0.21274182724E+03  0.32311606631E+03  0.00000000000E+00 0.  1.
         21    1    1    2  504  501 -0.27067565276E+02 -0.27110781055E+02  0.31875016362E+02  0.49836374341E+02  0.00000000000E+00 0.  1.
<mgrwt>
<rscale>  4 0.30296265E+03</rscale>
<asrwt>0</asrwt>
<pdfrwt beam="1">  1       21 0.74919706E-01 0.30296265E+03</pdfrwt>
<pdfrwt beam="2">  1       21 0.29683275E-01 0.30296265E+03</pdfrwt>
<totfact> 0.16381821E+04</totfact>
</mgrwt>
</event>
<event>
 5    0  0.1856407E+000  0.3069688E+03  0.7546771E-02  0.1081808E+00
         21   -1    0    0  502  501  0.00000000000E+00  0.00000000000E+00  0.23970802773E+03  0.23970802773E+03  0.00000000000E+00 0.  1.
         21   -1    0    0  503  502 -0.00000000000E+00 -0.00000000000E+00 -0.16568208175E+04  0.16568208175E+04  0.00000000000E+00 0.  1.
         25    1    1    2    0    0 -0.22307760885E+03 -0.16896744877E+03  0.11821096098E+03  0.32850030382E+03  0.12500000000E+03 0.  0.
         21    1    1    2  503  504 -0.20128414371E+02  0.13618592621E+02 -0.59824453326E+02  0.64572318727E+02  0.00000000000E+00 0. -1.
         21    1    1    2  504  501  0.24320602322E+03  0.15534885615E+03 -0.14754992974E+04  0.15034562227E+04  0.00000000000E+00 0.  1.
<mgrwt>
<rscale>  4 0.30696884E+03</rscale>
<asrwt>0</asrwt>
<pdfrwt beam="1">  1       21 0.36878157E-01 0.30696884E+03</pdfrwt>
<pdfrwt beam="2">  1       21 0.25489552E+00 0.30696884E+03</pdfrwt>
<totfact> 0.39077614E+02</totfact>
</mgrwt>
</event>
<event>
 5    0  0.1856407E+000  0.2716706E+03  0.7546771E-02  0.1100327E+00
         21   -1    0    0  502  501  0.00000000000E+00  0.00000000000E+00  0.49963472399E+03  0.49963472399E+03  0.00000000000E+00 0.  1.
         21   -1    0    0  503  502 -0.00000000000E+00 -0.00000000000E+00 -0.16931965580E+03  0.16931965580E+03  0.00000000000E+00 0. -1.
         25    1    1    2    0    0 -0.24050894870E+03  0.18313299065E+02  0.32320919626E+03  0.42221927463E+03  0.12500000000E+03 0.  0.
         21    1    1    2  503  504  0.14828467865E+03 -0.28843744220E+02  0.22219339963E+02  0.15268924838E+03  0.00000000000E+00 0. -1.
         21    1    1    2  504  501  0.92224270048E+02  0.10530445155E+02 -0.15113468028E+02  0.94045856777E+02  0.00000000000E+00 0. -1.
<mgrwt>
<rscale>  4 0.27167063E+03</rscale>
<asrwt>0</asrwt>
<pdfrwt beam="1">  1       21 0.76866880E-01 0.27167063E+03</pdfrwt>
<pdfrwt beam="2">  1       21 0.26049178E-01 0.27167063E+03</pdfrwt>
<totfact> 0.20211140E+04</totfact>
</mgrwt>
</event>
<event>
 5    0  0.1856407E+000  0.5162659E+03  0.7546771E-02  0.1009618E+00
         21   -1    0    0  502  501  0.00000000000E+00  0.00000000000E+00  0.15646467933E+04  0.15646467933E+04  0.00000000000E+00 0.  1.
         21   -1    0    0  503  502 -0.00000000000E+00 -0.00000000000E+00 -0.25832013540E+03  0.25832013540E+03  0.00000000000E+00 0.  1.
         25    1    1    2    0    0 -0.15827088437E+03 -0.47344856981E+03  0.11660992300E+04  0.12746041093E+04  0.12500000000E+03 0.  0.
         21    1    1    2  503  504  0.18079424432E+03  0.47402776786E+03  0.13770338717E+03  0.52569107499E+03  0.00000000000E+00 0.  1.
         21    1    1    2  504  501 -0.22523359952E+02 -0.57919805126E+00  0.25240406905E+01  0.22671744426E+02  0.00000000000E+00 0.  1.
<mgrwt>
<rscale>  4 0.51626587E+03</rscale>
<asrwt>0</asrwt>
<pdfrwt beam="1">  1       21 0.24071489E+00 0.51626587E+03</pdfrwt>
<pdfrwt beam="2">  1       21 0.39741560E-01 0.51626587E+03</pdfrwt>
<totfact> 0.36017258E+02</totfact>
</mgrwt>
</event>
<event>
 5    0  0.1856407E+000  0.2805392E+03  0.7546771E-02  0.1095395E+00
         21   -1    0    0  502  501  0.00000000000E+00  0.00000000000E+00  0.10590304717E+04  0.10590304717E+04  0.00000000000E+00 0.  1.
         21   -1    0    0  503  502 -0.00000000000E+00 -0.00000000000E+00 -0.14648156789E+04  0.14648156789E+04  0.00000000000E+00 0. -1.
         25    1    1    2    0    0 -0.23254594867E+03  0.15372134071E+03  0.10079222470E+04  0.10532046928E+04  0.12500000000E+03 0.  0.
         21    1    1    2  503  504  0.21828542242E+03 -0.12362783704E+03 -0.14152428926E+04  0.14373047042E+04  0.00000000000E+00 0. -1.
         21    1    1    2  504  501  0.14260526245E+02 -0.30093503665E+02  0.15354383750E+01  0.33336753631E+02  0.00000000000E+00 0. -1.
<mgrwt>
<rscale>  4 0.28053917E+03</rscale>
<asrwt>0</asrwt>
<pdfrwt beam="1">  1       21 0.16292777E+00 0.28053917E+03</pdfrwt>
<pdfrwt beam="2">  1       21 0.22535626E+00 0.28053917E+03</pdfrwt>
<totfact> 0.19680540E+01</totfact>
</mgrwt>
</event>
<event>
 5    0  0.1856407E+000  0.2598425E+03  0.7546771E-02  0.1107238E+00
         21   -1    0    0  502  501  0.00000000000E+00  0.00000000000E+00  0.11861868926E+04  0.11861868926E+04  0.00000000000E+00 0. -1.
         21   -1    0    0  503  502 -0.00000000000E+00 -0.00000000000E+00 -0.24967105320E+03  0.24967105320E+03  0.00000000000E+00 0. -1.
         25    1    1    2    0    0 -0.22110041970E+03  0.54842745443E+02  0.11137694154E+04  0.11436784657E+04  0.12500000000E+03 0.  0.
         21    1    1    2  503  504  0.43085963997E+02 -0.46644294062E+01 -0.56869060628E+02  0.71499980783E+02  0.00000000000E+00 0. -1.
         21    1    1    2  504  501  0.17801445570E+03 -0.50178316036E+02 -0.12038451540E+03  0.22067949925E+03  0.00000000000E+00 0. -1.
<mgrwt>
<rscale>  4 0.25984250E+03</rscale>
<asrwt>0</asrwt>
<pdfrwt beam="1">  1       21 0.18249029E+00 0.25984250E+03</pdfrwt>
<pdfrwt beam="2">  1       21 0.38410932E-01 0.25984250E+03</pdfrwt>
<totfact> 0.10735725E+03</totfact>
</mgrwt>
</event>
<event>
 5    0  0.2929258E+000  0.2578356E+03  0.7546771E-02  0.1108451E+00
         21   -1    0    0  502  501  0.00000000000E+00  0.00000000000E+00  0.10535132192E+04  0.10535132192E+04  0.00000000000E+00 0. -1.
         21   -1    0    0  503  502 -0.00000000000E+00 -0.00000000000E+00 -0.73474441047E+02  0.73474441047E+02  0.00000000000E+00 0. -1.
         25    1    1    2    0    0 -0.21181981505E+03  0.77372987449E+02  0.76266182007E+03  0.80506662148E+03  0.12500000000E+03 0.  0.
         21    1    1    2  503  504  0.29669350216E+02 -0.32020165280E+02  0.15663270188E+02  0.46377789509E+02  0.00000000000E+00 0. -1.
         21    1    1    2  504  501  0.18215046484E+03 -0.45352822169E+02  0.20171368786E+03  0.27554324922E+03  0.00000000000E+00 0. -1.
<mgrwt>
<rscale>  4 0.25783563E+03</rscale>
<asrwt>0</asrwt>
<pdfrwt beam="1">  1       21 0.16207895E+00 0.25783563E+03</pdfrwt>
<pdfrwt beam="2">  1       21 0.11303761E-01 0.25783563E+03</pdfrwt>
<totfact> 0.15217013E+04</totfact>
</mgrwt>
</event>
<event>
 5    0  0.1856407E+000  0.2407853E+03  0.7546771E-02  0.1119271E+00
         21   -1    0    0  502  501  0.00000000000E+00  0.00000000000E+00  0.13834600180E+03  0.13834600180E+03  0.00000000000E+00 0.  1.
         21   -1    0    0  503  502 -0.00000000000E+00 -0.00000000000E+00 -0.95521945809E+03  0.95521945809E+03  0.00000000000E+00 0.  1.
         25    1    1    2    0    0  0.15440732127E+03 -0.13605487859E+03  0.88538067586E+01  0.24094800423E+03  0.12500000000E+03 0.  0.
         21    1    1    2  503  504 -0.58206158860E+02  0.81562763628E+02 -0.44627070302E+03  0.45738165869E+03  0.00000000000E+00 0.  1.
         21    1    1    2  504  501 -0.96201162412E+02  0.54492114960E+02 -0.37945656004E+03  0.39523579696E+03  0.00000000000E+00 0.  1.
<mgrwt>
<rscale>  4 0.24078528E+03</rscale>
<asrwt>0</asrwt>
<pdfrwt beam="1">  1       21 0.21284001E-01 0.24078528E+03</pdfrwt>
<pdfrwt beam="2">  1       21 0.14695683E+00 0.24078528E+03</pdfrwt>
<totfact> 0.62514006E+03</totfact>
</mgrwt>
</event>
