<event>
 5    0  0.9662576E-001  0.2731066E+03  0.7546771E-02  0.1099515E+00
          2   -1    0    0  503    0 -0.00000000000E+00  0.00000000000E+00  0.12507823676E+04  0.12507823676E+04  0.00000000000E+00 0. -1.
         21   -1    0    0  501  502  0.00000000000E+00 -0.00000000000E+00 -0.13881894962E+03  0.13881894962E+03  0.00000000000E+00 0. -1.
         25    1    1    2    0    0  0.11534457949E+03  0.18569166793E+03  0.10062252613E+03  0.27117459380E+03  0.12500000000E+03 0.  0.
         21    1    1    2  503  502 -0.15829038548E+02  0.12313138227E+03  0.48051115430E+03  0.49628909435E+03  0.00000000000E+00 0. -1.
          2    1    1    2  501    0 -0.99515540943E+02 -0.30882305020E+03  0.53082973752E+03  0.62213762904E+03  0.00000000000E+00 0. -1.
<mgrwt>
<rscale>  4 0.27310661E+03</rscale>
<asrwt>0</asrwt>
<pdfrwt beam="1">  1       21 0.21356762E-01 0.27310661E+03</pdfrwt>
<pdfrwt beam="2">  1        2 0.19242805E+00 0.27310661E+03</pdfrwt>
<totfact> 0.47390928E+03</totfact>
</mgrwt>
</event>
<event>
 5    0  0.9662576E-001  0.3387628E+03  0.7546771E-02  0.1067324E+00
          1   -1    0    0  503    0 -0.00000000000E+00  0.00000000000E+00  0.67272486322E+03  0.67272486322E+03  0.00000000000E+00 0. -1.
         21   -1    0    0  501  502  0.00000000000E+00 -0.00000000000E+00 -0.23416782007E+03  0.23416782007E+03  0.00000000000E+00 0. -1.
         25    1    1    2    0    0 -0.13709461971E+03  0.27625583025E+03 -0.72830780403E+01  0.33285171132E+03  0.12500000000E+03 0.  0.
         21    1    1    2  503  502  0.13849550399E+00  0.27947899360E+02  0.36570586697E+02  0.46027297021E+02  0.00000000000E+00 0.  1.
          1    1    1    2  501    0  0.13695612421E+03 -0.30420372961E+03  0.40926953450E+03  0.52801367495E+03  0.00000000000E+00 0. -1.
<mgrwt>
<rscale>  4 0.33876281E+03</rscale>
<asrwt>0</asrwt>
<pdfrwt beam="1">  1       21 0.36025819E-01 0.33876281E+03</pdfrwt>
<pdfrwt beam="2">  1        1 0.10349613E+00 0.33876281E+03</pdfrwt>
<totfact> 0.23534880E+03</totfact>
</mgrwt>
</event>
<event>
 5    0  0.9662576E-001  0.2422713E+03  0.7546771E-02  0.1118289E+00
         21   -1    0    0  503  502  0.00000000000E+00  0.00000000000E+00  0.20991878099E+04  0.20991878099E+04  0.00000000000E+00 0.  1.
         -2   -1    0    0    0  501 -0.00000000000E+00 -0.00000000000E+00 -0.14143130674E+03  0.14143130674E+03  0.00000000000E+00 0. -1.
         25    1    1    2    0    0 -0.59475222972E+02  0.19942260264E+03  0.19899652815E+04  0.20047178101E+04  0.12500000000E+03 0.  0.
         21    1    1    2  503  501 -0.25506799807E+02 -0.18084489006E+02  0.64881581757E+01  0.31933395928E+02  0.00000000000E+00 0.  1.
         -2    1    1    2    0  502  0.84982022779E+02 -0.18133811363E+03 -0.38696936527E+02  0.20396791058E+03  0.00000000000E+00 0. -1.
<mgrwt>
<rscale>  4 0.24227133E+03</rscale>
<asrwt>0</asrwt>
<pdfrwt beam="1">  1       21 0.32295195E+00 0.24227133E+03</pdfrwt>
<pdfrwt beam="2">  1       -2 0.21758664E-01 0.24227133E+03</pdfrwt>
<totfact> 0.34464998E+01</totfact>
</mgrwt>
</event>
<event>
 5    0  0.9662576E-001  0.5612207E+03  0.7546771E-02  0.9989296E-01
         21   -1    0    0  503  502  0.00000000000E+00  0.00000000000E+00  0.12592867883E+04  0.12592867883E+04  0.00000000000E+00 0. -1.
         -2   -1    0    0    0  501 -0.00000000000E+00 -0.00000000000E+00 -0.57083545259E+03  0.57083545259E+03  0.00000000000E+00 0. -1.
         25    1    1    2    0    0  0.52642784581E+03 -0.15759360117E+03  0.10261461109E+04  0.11707104086E+04  0.12500000000E+03 0.  0.
         21    1    1    2  503  501 -0.23513914142E+02 -0.13993935730E+02  0.39978602432E+01  0.27653522055E+02  0.00000000000E+00 0. -1.
         -2    1    1    2    0  502 -0.50291393167E+03  0.17158753690E+03 -0.34169263539E+03  0.63175831025E+03  0.00000000000E+00 0. -1.
<mgrwt>
<rscale>  4 0.56122073E+03</rscale>
<asrwt>0</asrwt>
<pdfrwt beam="1">  1       21 0.19373643E+00 0.56122073E+03</pdfrwt>
<pdfrwt beam="2">  1       -2 0.87820839E-01 0.56122073E+03</pdfrwt>
<totfact> 0.11401235E+01</totfact>
</mgrwt>
</event>
<event>
 5    0  0.9662576E-001  0.4149093E+03  0.7546771E-02  0.1040681E+00
         21   -1    0    0  501  502  0.00000000000E+00  0.00000000000E+00  0.16343471581E+04  0.16343471581E+04  0.00000000000E+00 0.  1.
          2   -1    0    0  503    0 -0.00000000000E+00 -0.00000000000E+00 -0.48806528775E+03  0.48806528775E+03  0.00000000000E+00 0.  1.
         25    1    1    2    0    0 -0.17063604579E+02 -0.37122323526E+03  0.15164884727E+04  0.15663524970E+04  0.12500000000E+03 0.  0.
         21    1    1    2  503  502 -0.73450998370E+02  0.11975063524E+03 -0.80546517248E+02  0.16193518840E+03  0.00000000000E+00 0.  1.
          2    1    1    2  501    0  0.90514602949E+02  0.25147260003E+03 -0.28966008509E+03  0.39412476046E+03  0.00000000000E+00 0.  1.
<mgrwt>
<rscale>  4 0.40907901E+03</rscale>
<asrwt>0</asrwt>
<pdfrwt beam="1">  1       21 0.25143802E+00 0.41490931E+03</pdfrwt>
<pdfrwt beam="2">  1        2 0.75086968E-01 0.41490931E+03</pdfrwt>
<totfact> 0.44049526E+01</totfact>
</mgrwt>
</event>
<event>
 5    0  0.9662576E-001  0.2759332E+03  0.7546771E-02  0.1097931E+00
          1   -1    0    0  503    0 -0.00000000000E+00  0.00000000000E+00  0.55998801504E+03  0.55998801504E+03  0.00000000000E+00 0.  1.
         21   -1    0    0  501  502  0.00000000000E+00 -0.00000000000E+00 -0.35345922018E+03  0.35345922018E+03  0.00000000000E+00 0.  1.
         25    1    1    2    0    0  0.21390809169E+03 -0.11705648489E+03 -0.23522036251E+03  0.36112672469E+03  0.12500000000E+03 0.  0.
         21    1    1    2  503  502 -0.16781220946E+02 -0.58452666217E+02  0.13225033365E+03  0.14556261304E+03  0.00000000000E+00 0. -1.
          1    1    1    2  501    0 -0.19712687075E+03  0.17550915110E+03  0.30949882371E+03  0.40675789749E+03  0.00000000000E+00 0.  1.
<mgrwt>
<rscale>  4 0.27593317E+03</rscale>
<asrwt>0</asrwt>
<pdfrwt beam="1">  1       21 0.54378342E-01 0.27593317E+03</pdfrwt>
<pdfrwt beam="2">  1        1 0.86152002E-01 0.27593317E+03</pdfrwt>
<totfact> 0.13231557E+03</totfact>
</mgrwt>
</event>
<event>
 5    0  0.9662576E-001  0.2874092E+03  0.7546771E-02  0.1091710E+00
         21   -1    0    0  501  502  0.00000000000E+00  0.00000000000E+00  0.41562908459E+03  0.41562908459E+03  0.00000000000E+00 0. -1.
          3   -1    0    0  503    0 -0.00000000000E+00 -0.00000000000E+00 -0.46100796587E+03  0.46100796587E+03  0.00000000000E+00 0. -1.
         25    1    1    2    0    0 -0.40316613977E+02  0.22621501874E+03 -0.45357014340E+02  0.26548243410E+03  0.12500000000E+03 0.  0.
         21    1    1    2  503  502 -0.64275757507E+02  0.24767428444E+02 -0.23926435596E+03  0.24898239003E+03  0.00000000000E+00 0. -1.
          3    1    1    2  501    0  0.10459237148E+03 -0.25098244718E+03  0.23924248903E+03  0.36217222633E+03  0.00000000000E+00 0. -1.
<mgrwt>
<rscale>  4 0.28740923E+03</rscale>
<asrwt>0</asrwt>
<pdfrwt beam="1">  1       21 0.63942936E-01 0.28740923E+03</pdfrwt>
<pdfrwt beam="2">  1        3 0.70924303E-01 0.28740923E+03</pdfrwt>
<totfact> 0.21095961E+02</totfact>
</mgrwt>
</event>
<event>
 5    0  0.9662576E-001  0.2606688E+03  0.7546771E-02  0.1106742E+00
          1   -1    0    0  503    0 -0.00000000000E+00  0.00000000000E+00  0.40306014224E+03  0.40306014224E+03  0.00000000000E+00 0. -1.
         21   -1    0    0  501  502  0.00000000000E+00 -0.00000000000E+00 -0.11694751079E+04  0.11694751079E+04  0.00000000000E+00 0.  1.
         25    1    1    2    0    0 -0.23401271323E+03 -0.50832695927E+02 -0.10118596889E+04  0.10472969698E+04  0.12500000000E+03 0.  0.
         21    1    1    2  503  502  0.45704647073E+02  0.27276459328E+02  0.31773354527E+03  0.32216071422E+03  0.00000000000E+00 0.  1.
          1    1    1    2  501    0  0.18830806616E+03  0.23556236599E+02 -0.72288822018E+02  0.20307756609E+03  0.00000000000E+00 0. -1.
<mgrwt>
<rscale>  4 0.26066877E+03</rscale>
<asrwt>0</asrwt>
<pdfrwt beam="1">  1       21 0.17991924E+00 0.26066877E+03</pdfrwt>
<pdfrwt beam="2">  1        1 0.62009254E-01 0.26066877E+03</pdfrwt>
<totfact> 0.11404913E+02</totfact>
</mgrwt>
</event>
<event>
 5    0  0.1203604E+000  0.2456464E+03  0.7546771E-02  0.1116087E+00
          2   -1    0    0  503    0 -0.00000000000E+00  0.00000000000E+00  0.31842294339E+03  0.31842294339E+03  0.00000000000E+00 0.  1.
         21   -1    0    0  501  502  0.00000000000E+00 -0.00000000000E+00 -0.25867249006E+03  0.25867249006E+03  0.00000000000E+00 0.  1.
         25    1    1    2    0    0 -0.11968724416E+03  0.16598000649E+03 -0.10593251172E+03  0.26214708850E+03  0.12500000000E+03 0.  0.
         21    1    1    2  503  502 -0.20577413511E+02  0.12771881766E+02  0.59314821635E+02  0.64068705124E+02  0.00000000000E+00 0.  1.
          2    1    1    2  501    0  0.14026465767E+03 -0.17875188826E+03  0.10636814341E+03  0.25087963983E+03  0.00000000000E+00 0.  1.
<mgrwt>
<rscale>  4 0.24564643E+03</rscale>
<asrwt>0</asrwt>
<pdfrwt beam="1">  1       21 0.39795768E-01 0.24564643E+03</pdfrwt>
<pdfrwt beam="2">  1        2 0.48988145E-01 0.24564643E+03</pdfrwt>
<totfact> 0.76450406E+03</totfact>
</mgrwt>
</event>
<event>
 5    0  0.9662576E-001  0.3145077E+03  0.7546771E-02  0.1078205E+00
          2   -1    0    0  503    0 -0.00000000000E+00  0.00000000000E+00  0.60434894817E+03  0.60434894817E+03  0.00000000000E+00 0. -1.
         21   -1    0    0  501  502  0.00000000000E+00 -0.00000000000E+00 -0.26792439141E+03  0.26792439141E+03  0.00000000000E+00 0.  1.
         25    1    1    2    0    0 -0.19906799959E+03 -0.20759077248E+03 -0.90291243243E+02  0.32634262039E+03  0.12500000000E+03 0.  0.
         21    1    1    2  503  502 -0.18000493659E+02  0.11948661278E+02  0.12139120394E+03  0.12329887539E+03  0.00000000000E+00 0. -1.
          2    1    1    2  501    0  0.21706849324E+03  0.19564211120E+03  0.30532459607E+03  0.42263184381E+03  0.00000000000E+00 0. -1.
<mgrwt>
<rscale>  4 0.31450772E+03</rscale>
<asrwt>0</asrwt>
<pdfrwt beam="1">  1       21 0.41219137E-01 0.31450772E+03</pdfrwt>
<pdfrwt beam="2">  1        2 0.92976761E-01 0.31450772E+03</pdfrwt>
<totfact> 0.34313883E+03</totfact>
</mgrwt>
</event>
<event>
 5    0  0.9662576E-001  0.2417394E+03  0.7546771E-02  0.1118640E+00
         21   -1    0    0  503  502  0.00000000000E+00  0.00000000000E+00  0.46611473804E+03  0.46611473804E+03  0.00000000000E+00 0. -1.
         -2   -1    0    0    0  501 -0.00000000000E+00 -0.00000000000E+00 -0.16192483347E+04  0.16192483347E+04  0.00000000000E+00 0. -1.
         25    1    1    2    0    0  0.95120106021E+02  0.18457560363E+03  0.41978118545E+03  0.48472387158E+03  0.12500000000E+03 0.  0.
         21    1    1    2  503  501 -0.53993273721E+02 -0.11045815339E+02 -0.80208060386E+02  0.97317093024E+02  0.00000000000E+00 0. -1.
         -2    1    1    2    0  502 -0.41126832300E+02 -0.17352978829E+03 -0.14927067217E+04  0.15033221081E+04  0.00000000000E+00 0. -1.
<mgrwt>
<rscale>  4 0.24173936E+03</rscale>
<asrwt>0</asrwt>
<pdfrwt beam="1">  1       21 0.71709961E-01 0.24173936E+03</pdfrwt>
<pdfrwt beam="2">  1       -2 0.24911512E+00 0.24173936E+03</pdfrwt>
<totfact> 0.10264103E+01</totfact>
</mgrwt>
</event>
<event>
 5    0  0.9662576E-001  0.2749222E+03  0.7546771E-02  0.1098495E+00
          2   -1    0    0  503    0 -0.00000000000E+00  0.00000000000E+00  0.15955495655E+04  0.15955495655E+04  0.00000000000E+00 0.  1.
         21   -1    0    0  501  502  0.00000000000E+00 -0.00000000000E+00 -0.47051390303E+03  0.47051390303E+03  0.00000000000E+00 0. -1.
         25    1    1    2    0    0  0.17187021933E+03  0.17792655436E+03 -0.40588167674E+03  0.49148974206E+03  0.12500000000E+03 0.  0.
         21    1    1    2  503  502 -0.90776449804E+02 -0.31822031037E+02  0.11999873591E+03  0.15379435009E+03  0.00000000000E+00 0. -1.
          2    1    1    2  501    0 -0.81093769527E+02 -0.14610452333E+03  0.14109186033E+04  0.14207793764E+04  0.00000000000E+00 0.  1.
<mgrwt>
<rscale>  4 0.27492223E+03</rscale>
<asrwt>0</asrwt>
<pdfrwt beam="1">  1       21 0.72386756E-01 0.27492223E+03</pdfrwt>
<pdfrwt beam="2">  1        2 0.24546916E+00 0.27492223E+03</pdfrwt>
<totfact> 0.25369623E+02</totfact>
</mgrwt>
</event>
<event>
 5    0  0.9662576E-001  0.3224323E+03  0.7546771E-02  0.1074535E+00
          2   -1    0    0  503    0 -0.00000000000E+00  0.00000000000E+00  0.20632379927E+04  0.20632379927E+04  0.00000000000E+00 0. -1.
         21   -1    0    0  501  502  0.00000000000E+00 -0.00000000000E+00 -0.10554991637E+03  0.10554991637E+03  0.00000000000E+00 0. -1.
         25    1    1    2    0    0 -0.73624575437E+02  0.28628942086E+03  0.23678280944E+03  0.39883995468E+03  0.12500000000E+03 0.  0.
         21    1    1    2  503  502 -0.82141173148E+02 -0.13426597272E+02  0.19480790518E+03  0.21184325753E+03  0.00000000000E+00 0.  1.
          2    1    1    2  501    0  0.15576574858E+03 -0.27286282359E+03  0.15260973617E+04  0.15581046968E+04  0.00000000000E+00 0. -1.
<mgrwt>
<rscale>  4 0.32243231E+03</rscale>
<asrwt>0</asrwt>
<pdfrwt beam="1">  1       21 0.16238450E-01 0.32243231E+03</pdfrwt>
<pdfrwt beam="2">  1        2 0.31742120E+00 0.32243231E+03</pdfrwt>
<totfact> 0.28583545E+03</totfact>
</mgrwt>
</event>
<event>
 5    0  0.9662576E-001  0.2483152E+03  0.7546771E-02  0.1114374E+00
          2   -1    0    0  503    0 -0.00000000000E+00  0.00000000000E+00  0.49950779147E+03  0.49950779147E+03  0.00000000000E+00 0.  1.
         21   -1    0    0  501  502  0.00000000000E+00 -0.00000000000E+00 -0.43644537038E+03  0.43644537038E+03  0.00000000000E+00 0.  1.
         25    1    1    2    0    0  0.13291233699E+03  0.16177041844E+03 -0.31153827413E+03  0.39562160438E+03  0.12500000000E+03 0.  0.
         21    1    1    2  503  502  0.94551811386E+02 -0.99276537625E+01  0.28568880909E+02  0.99271266245E+02  0.00000000000E+00 0.  1.
          2    1    1    2  501    0 -0.22746414838E+03 -0.15184276468E+03  0.34603181431E+03  0.44106029123E+03  0.00000000000E+00 0.  1.
<mgrwt>
<rscale>  4 0.24831517E+03</rscale>
<asrwt>0</asrwt>
<pdfrwt beam="1">  1       21 0.67145442E-01 0.24831517E+03</pdfrwt>
<pdfrwt beam="2">  1        2 0.76847352E-01 0.24831517E+03</pdfrwt>
<totfact> 0.15463846E+03</totfact>
</mgrwt>
</event>
<event>
 5    0  0.9662576E-001  0.2518543E+03  0.7546771E-02  0.1112139E+00
          2   -1    0    0  503    0 -0.00000000000E+00  0.00000000000E+00  0.37315353629E+04  0.37315353629E+04  0.00000000000E+00 0.  1.
         21   -1    0    0  501  502  0.00000000000E+00 -0.00000000000E+00 -0.11203909583E+03  0.11203909583E+03  0.00000000000E+00 0. -1.
         25    1    1    2    0    0  0.19255981328E+03  0.10681248677E+03  0.40944828617E+02  0.25649496684E+03  0.12500000000E+03 0.  0.
         21    1    1    2  503  502 -0.44312592700E+02  0.20164154688E+02  0.97921264536E+03  0.98042215593E+03  0.00000000000E+00 0.  1.
          2    1    1    2  501    0 -0.14824722058E+03 -0.12697664146E+03  0.25993387931E+04  0.26066573360E+04  0.00000000000E+00 0.  1.
<mgrwt>
<rscale>  4 0.25185430E+03</rscale>
<asrwt>0</asrwt>
<pdfrwt beam="1">  1       21 0.17236787E-01 0.25185430E+03</pdfrwt>
<pdfrwt beam="2">  1        2 0.57408227E+00 0.25185430E+03</pdfrwt>
<totfact> 0.27137172E+02</totfact>
</mgrwt>
</event>
<event>
 5    0  0.9662576E-001  0.2573857E+03  0.7546771E-02  0.1108724E+00
          2   -1    0    0  503    0 -0.00000000000E+00  0.00000000000E+00  0.15722287558E+03  0.15722287558E+03  0.00000000000E+00 0.  1.
         21   -1    0    0  501  502  0.00000000000E+00 -0.00000000000E+00 -0.70933635962E+03  0.70933635962E+03  0.00000000000E+00 0. -1.
         25    1    1    2    0    0  0.93076666459E+02  0.21260188340E+03 -0.53647165309E+03  0.59773711716E+03  0.12500000000E+03 0.  0.
         21    1    1    2  503  502 -0.32318393244E+02 -0.14052956785E+02  0.40541856378E+02  0.53717839261E+02  0.00000000000E+00 0. -1.
          2    1    1    2  501    0 -0.60758273215E+02 -0.19854892662E+03 -0.56183687325E+02  0.21510427878E+03  0.00000000000E+00 0.  1.
<mgrwt>
<rscale>  4 0.25738571E+03</rscale>
<asrwt>0</asrwt>
<pdfrwt beam="1">  1       21 0.10912867E+00 0.25738571E+03</pdfrwt>
<pdfrwt beam="2">  1        2 0.24188134E-01 0.25738571E+03</pdfrwt>
<totfact> 0.17776141E+03</totfact>
</mgrwt>
</event>
<event>
 5    0  0.9662576E-001  0.3121565E+03  0.7546771E-02  0.1079317E+00
          1   -1    0    0  503    0 -0.00000000000E+00  0.00000000000E+00  0.28815518313E+04  0.28815518313E+04  0.00000000000E+00 0. -1.
         21   -1    0    0  501  502  0.00000000000E+00 -0.00000000000E+00 -0.54984128061E+02  0.54984128061E+02  0.00000000000E+00 0. -1.
         25    1    1    2    0    0  0.10330922465E+03 -0.26723773348E+03  0.56057981410E+03  0.64184385178E+03  0.12500000000E+03 0.  0.
         21    1    1    2  503  502  0.22768105906E+02  0.10881580244E+02  0.83948140820E+03  0.83986060161E+03  0.00000000000E+00 0. -1.
          1    1    1    2  501    0 -0.12607733055E+03  0.25635615323E+03  0.14265064809E+04  0.14548315059E+04  0.00000000000E+00 0. -1.
<mgrwt>
<rscale>  4 0.31215653E+03</rscale>
<asrwt>0</asrwt>
<pdfrwt beam="1">  1       21 0.84590989E-02 0.31215653E+03</pdfrwt>
<pdfrwt beam="2">  1        1 0.44331555E+00 0.31215653E+03</pdfrwt>
<totfact> 0.10351143E+03</totfact>
</mgrwt>
</event>
<event>
 5    0  0.9662576E-001  0.2478749E+03  0.7546771E-02  0.1114655E+00
         21   -1    0    0  501  502  0.00000000000E+00  0.00000000000E+00  0.22971370541E+02  0.22971370541E+02  0.00000000000E+00 0.  1.
          2   -1    0    0  503    0 -0.00000000000E+00 -0.00000000000E+00 -0.25716529532E+04  0.25716529532E+04  0.00000000000E+00 0.  1.
         25    1    1    2    0    0  0.20677227135E+03 -0.55337171070E+02 -0.12015245165E+04  0.12268264501E+04  0.12500000000E+03 0.  0.
         21    1    1    2  503  502 -0.96785020996E+02 -0.15117521258E+02 -0.40765594762E+03  0.41926036227E+03  0.00000000000E+00 0.  1.
          2    1    1    2  501    0 -0.10998725036E+03  0.70454692328E+02 -0.93950111850E+03  0.94853751142E+03  0.00000000000E+00 0.  1.
<mgrwt>
<rscale>  4 0.24787492E+03</rscale>
<asrwt>0</asrwt>
<pdfrwt beam="1">  1       21 0.35340599E-02 0.24787492E+03</pdfrwt>
<pdfrwt beam="2">  1        2 0.39563859E+00 0.24787492E+03</pdfrwt>
<totfact> 0.22655332E+04</totfact>
</mgrwt>
</event>
