<LesHouchesEvents version="3.0">
  <!--
  <scalesfunctionalform>
    muR  H_T/2 := sum_i mT(i)/2, i=final state
    muF1 H_T/2 := sum_i mT(i)/2, i=final state
    muF2 H_T/2 := sum_i mT(i)/2, i=final state
    QES  H_T/2 := sum_i mT(i)/2, i=final state
  </scalesfunctionalform>
HERWIG6   
  -->
  <header>
       29
  </header>
  <init>
   2212   2212 0.65000000D+04 0.65000000D+04 -1 -1   244800   244800 -4   1
 0.30962302D-04 0.19737965D-05 0.19854216D-05     66
  </init>
  <event>
  5     66 0.19854216E-05 0.63044990E+02 0.75467711E-02 0.92705056E-01
        1 -1    0    0  502    0 0.00000000E+00 0.00000000E+00 0.25226173E+04 0.25226173E+04 0.32000000E+00 0.0000E+00 0.9000E+01
       -2 -1    0    0    0  501 0.00000000E+00 0.00000000E+00 -.22285453E+03 0.22285476E+03 0.32000000E+00 0.0000E+00 0.9000E+01
       25  1    1    2    0    0 0.45203767E+02 0.52890639E+03 0.13638040E+04 0.14687994E+04 0.12500000E+03 0.0000E+00 0.9000E+01
        1  1    1    2  502    0 -.62432564E+02 0.92459896E+01 0.67570306E+03 0.67864427E+03 0.32000000E+00 0.0000E+00 0.9000E+01
       -2  1    1    2    0  501 0.17228797E+02 -.53815238E+03 0.26025567E+03 0.59802837E+03 0.32000000E+00 0.0000E+00 0.9000E+01
#aMCatNLO 1  0  0  1  4 0.39530816D+02 0.00000000D+00  -5  6  0 0.00000000D+00 0.00000000D+00 0.00000000D+00 0.00000000D+00 0.00000000D+00
  <mgrwgt>
 0.4606604379D-03   11    2    0
 0.749784652243126D+03 0.000000000000000D+00 0.000000000000000D+00 0.749784652243126D+03
 0.749784652243126D+03 0.000000000000000D+00 0.000000000000000D+00 -.749784652243126D+03
 0.597756184921495D+03 0.451511343435750D+02 0.529026726125329D+03 0.244498578164588D+03
 0.205996555977138D+03 -.623647972705373D+02 0.923595363027701D+01 0.196111984071311D+03
 0.695816563587619D+03 0.172136629269623D+02 -.538262679755606D+03 -.440610562235898D+03
 0.000000000000000D+00 0.000000000000000D+00 -.000000000000000D+00 0.000000000000000D+00
 0.148366486404965D+04 0.000000000000000D+00 0.000000000000000D+00 0.148366486404965D+04
 0.750577655064057D+03 0.000000000000000D+00 0.000000000000000D+00 -.750577655064057D+03
 0.604675234178633D+03 0.319419840137192D+02 0.537779967795144D+03 0.244498578164588D+03
 0.207573049870971D+03 -.669080111359860D+02 0.122465824692905D+02 0.196111984071311D+03
 0.687841974695830D+03 0.201366619779114D+01 -.528190173846569D+03 -.440610562235898D+03
 0.734152260368276D+03 0.329523609244757D+02 -.218363764178660D+02 0.733087208985595D+03
0.652106839072D-05 0.000000000000D+00 0.000000000000D+00 0.467719518730D-06 0.000000000000D+00  6 1 -2 25 1 -2 21 0 0.38809498D+00 0.34285331D-01 0.32893013D+06 0.32893013D+06 0.32893013D+06 0.10816061D+01  1  2  2  1  6  1        1 0.761276978046D-05 0.100000000000D+01
0.131829312831D-05 0.000000000000D+00 -.250426196571D-07 0.467719518730D-06 0.000000000000D+00  6 1 -2 25 1 -2 21 2 0.38809498D+00 0.34285331D-01 0.32893013D+06 0.32893013D+06 0.32893013D+06 0.10816061D+01  1  2  3  1  6  1        1 0.180042157973D-05 0.100000000000D+01
-.443486559158D-05 0.000000000000D+00 0.000000000000D+00 0.467719518730D-06 0.000000000000D+00  6 1 -2 25 1 -2 21 2 0.38809498D+00 0.34285331D-01 0.32893013D+06 0.32893013D+06 0.32893013D+06 0.10816061D+01  1  2 15  1  6  1        1 -.605679233458D-05 0.100000000000D+01
0.289122915748D-06 0.000000000000D+00 0.000000000000D+00 0.467719518730D-06 0.000000000000D+00  6 1 -2 25 1 -2 21 2 0.76796361D+00 0.34285331D-01 0.35330173D+06 0.35330173D+06 0.35330173D+06 0.10793359D+01  1  2 12  1  6  1        1 0.201360819703D-08 0.100000000000D+01
0.102518677187D-02 0.000000000000D+00 0.000000000000D+00 0.467719518730D-06 0.000000000000D+00  6 1 -2 25 1 -2 21 2 0.80704670D+00 0.34285331D-01 0.35330173D+06 0.35330173D+06 0.35330173D+06 0.10793359D+01  1  2 12  1  6  1        1 0.289318228073D-05 0.100000000000D+01
-.587654842106D-03 0.000000000000D+00 0.000000000000D+00 0.467719518730D-06 0.000000000000D+00  6 1 -2 25 1 -2 21 2 0.38809498D+00 0.34285331D-01 0.32893013D+06 0.32893013D+06 0.32893013D+06 0.10816061D+01  1  2  4  1  6  1        1 -.802572991120D-03 0.100000000000D+01
-.114770869679D-02 0.000000000000D+00 -.329548559401D-05 0.467719518730D-06 0.000000000000D+00  6 1 -2 25 1 -2 21 2 0.76802103D+00 0.34285331D-01 0.32893013D+06 0.32893013D+06 0.32893013D+06 0.10816061D+01  1  2  5  1  6  1        1 -.808338656615D-05 0.100000000000D+01
0.926308963374D-03 0.000000000000D+00 0.265308234401D-05 0.467719518730D-06 0.000000000000D+00  6 1 -2 25 1 -2 21 2 0.38809498D+00 0.34285331D-01 0.32893013D+06 0.32893013D+06 0.32893013D+06 0.10816061D+01  1  2  6  1  6  1        1 0.126508028552D-02 0.100000000000D+01
0.213623779386D-07 0.000000000000D+00 0.000000000000D+00 0.467719518730D-06 0.000000000000D+00  6 21 -2 25 1 -2 -1 2 0.76796361D+00 0.34285331D-01 0.35330173D+06 0.35330173D+06 0.35330173D+06 0.10793359D+01  1  2 12  5  6  1        1 0.546869075211D-11 0.100000000000D+01
0.811630409497D-04 0.000000000000D+00 0.000000000000D+00 0.467719518730D-06 0.000000000000D+00  6 21 -2 25 1 -2 -1 2 0.80704670D+00 0.34285331D-01 0.35330173D+06 0.35330173D+06 0.35330173D+06 0.10793359D+01  1  2 12  5  6  1        1 0.686856454207D-08 0.100000000000D+01
-.846134923825D-04 0.000000000000D+00 -.243518620519D-06 0.467719518730D-06 0.000000000000D+00  6 21 -2 25 1 -2 -1 2 0.76802103D+00 0.34285331D-01 0.32893013D+06 0.32893013D+06 0.32893013D+06 0.10816061D+01  1  2  5  5  6  1        1 -.219389256365D-07 0.100000000000D+01
  </mgrwgt>
  </event>
  <event>
  5     66 -.19854216E-05 0.14509958E+03 0.75467711E-02 0.94999013E-01
        1 -1    0    0  502    0 0.00000000E+00 0.00000000E+00 0.16008698E+04 0.16008698E+04 0.32000000E+00 0.0000E+00 0.9000E+01
       -2 -1    0    0    0  501 0.00000000E+00 0.00000000E+00 -.53650904E+03 0.53650913E+03 0.32000000E+00 0.0000E+00 0.9000E+01
       25  1    1    2    0    0 0.32744213E+03 0.33740775E+03 0.53414405E+03 0.72249374E+03 0.12500000E+03 0.0000E+00 0.9000E+01
        1  1    1    2  502    0 -.17452535E+03 -.10861183E+03 0.91724315E+03 0.93999507E+03 0.32000000E+00 0.0000E+00 0.9000E+01
       -2  1    1    2    0  501 -.15291677E+03 -.22879592E+03 -.38702643E+03 0.47489017E+03 0.32000000E+00 0.0000E+00 0.9000E+01
#aMCatNLO 1  0  0  5  2 0.71838932D+01 0.00000000D+00  -5  6  0 0.00000000D+00 0.00000000D+00 0.00000000D+00 0.00000000D+00 0.00000000D+00
  <mgrwgt>
 -.2458255263D-02    9    2    0
 0.926758468889593D+03 0.000000000000000D+00 0.000000000000000D+00 0.926758468889593D+03
 0.926758468889593D+03 -.000000000000000D+00 -.000000000000000D+00 -.926758468889593D+03
 0.526476905183847D+03 0.327434709453020D+03 0.337424173594171D+03 0.201207280712374D+03
 0.557123200881685D+03 -.174489766732702D+03 -.108589681906196D+03 0.517829955921568D+03
 0.769916831713654D+03 -.152944942720319D+03 -.228834491687975D+03 -.719037236633942D+03
 0.000000000000000D+00 0.000000000000000D+00 0.000000000000000D+00 -.000000000000000D+00
 0.926758468889593D+03 0.000000000000000D+00 0.000000000000000D+00 0.926758468889593D+03
 0.926758468889593D+03 -.000000000000000D+00 -.000000000000000D+00 -.926758468889593D+03
 0.526382572280815D+03 0.327406777243054D+03 0.337382381737861D+03 0.201075963529142D+03
 0.557011927796414D+03 -.174519324576851D+03 -.108633906017964D+03 0.517690996174357D+03
 0.713656336091090D+03 -.141543018870039D+03 -.218957727988934D+03 -.664325562661892D+03
 0.564661016108672D+02 -.113444337961644D+02 -.979074773096363D+01 -.544413970416066D+02
0.116116967109D-04 0.000000000000D+00 0.000000000000D+00 0.292870659752D-05 0.000000000000D+00  6 1 -2 25 1 -2 21 0 0.24628767D+00 0.82539862D-01 0.23390380D+06 0.23390380D+06 0.23390380D+06 0.10926401D+01  1  2  2  4  6  5       -2 0.973920269097D-05 0.100000000000D+01
0.105622388574D-05 0.000000000000D+00 -.445919727998D-07 0.292870659752D-05 0.000000000000D+00  6 1 -2 25 1 -2 21 2 0.24628767D+00 0.82539862D-01 0.23390380D+06 0.23390380D+06 0.23390380D+06 0.10926401D+01  1  2  3  4  6  5       -2 0.105764032808D-05 0.100000000000D+01
-.745470366708D-05 0.000000000000D+00 0.000000000000D+00 0.292870659752D-05 0.000000000000D+00  6 1 -2 25 1 -2 21 2 0.24628767D+00 0.82539862D-01 0.23390380D+06 0.23390380D+06 0.23390380D+06 0.10926401D+01  1  2 15  4  6  5       -2 -.746470075015D-05 0.100000000000D+01
0.258429586693D-07 0.000000000000D+00 0.000000000000D+00 0.292870659752D-05 0.000000000000D+00  6 1 -2 25 1 -2 21 2 0.24628767D+00 0.82539862D-01 0.23413071D+06 0.23413071D+06 0.23413071D+06 0.10926083D+01  1  2 12  4  6  5       -2 0.258745884326D-07 0.100000000000D+01
0.272517473244D-02 0.000000000000D+00 0.000000000000D+00 0.292870659752D-05 0.000000000000D+00  6 1 -2 25 1 -2 21 2 0.24628767D+00 0.82539862D-01 0.23413071D+06 0.23413071D+06 0.23413071D+06 0.10926083D+01  1  2 12  4  6  5       -2 0.272851013349D-02 0.100000000000D+01
-.562671883750D-02 0.000000000000D+00 0.000000000000D+00 0.292870659752D-05 0.000000000000D+00  6 1 -2 25 1 -2 21 2 0.24628767D+00 0.82539862D-01 0.23390380D+06 0.23390380D+06 0.23390380D+06 0.10926401D+01  1  2  4  4  6  5       -2 -.563426451311D-02 0.100000000000D+01
-.300122679259D-02 0.000000000000D+00 0.000000000000D+00 0.292870659752D-05 0.000000000000D+00  6 1 -2 25 1 -2 21 2 0.24628767D+00 0.82539862D-01 0.23390380D+06 0.23390380D+06 0.23390380D+06 0.10926401D+01  1  2  5  4  6  5       -2 -.300525156875D-02 0.100000000000D+01
0.322938651876D-02 0.000000000000D+00 -.000000000000D+00 0.292870659752D-05 0.000000000000D+00  6 1 -2 25 1 -2 21 2 0.24628767D+00 0.82539862D-01 0.23390380D+06 0.23390380D+06 0.23390380D+06 0.10926401D+01  1  2  6  4  6  5       -2 0.323371726708D-02 0.100000000000D+01
0.215411754486D-03 0.000000000000D+00 0.000000000000D+00 0.292870659752D-05 0.570674940564D-06  6 1 -2 25 1 -2 21 2 0.24628767D+00 0.82539862D-01 0.23413071D+06 0.23413071D+06 0.23413071D+06 0.10926083D+01  1  2 11  4  6  5       -2 0.215675401652D-03 0.100000000000D+01
  </mgrwgt>
  </event>
  <event>
  6     66 0.19854216E-05 0.37530926E+03 0.75467711E-02 0.90989027E-01
        1 -1    0    0  502    0 0.00000000E+00 0.00000000E+00 0.14971473E+04 0.14971474E+04 0.32000000E+00 0.0000E+00 0.9000E+01
       -2 -1    0    0    0  503 0.00000000E+00 0.00000000E+00 -.57473209E+03 0.57473218E+03 0.32000000E+00 0.0000E+00 0.9000E+01
       25  1    1    2    0    0 0.53353305E+03 0.55103702E+02 0.23195845E+03 0.59759824E+03 0.12500000E+03 0.0000E+00 0.9000E+01
        1  1    1    2  502    0 -.27065516E+03 -.35510962E+03 0.90395550E+03 0.10082126E+04 0.32000000E+00 0.0000E+00 0.9000E+01
       -2  1    1    2    0  501 -.25306724E+03 0.28766733E+03 -.16881755E+03 0.41868244E+03 0.32000000E+00 0.0000E+00 0.9000E+01
       21  1    1    2  501  503 -.98106480E+01 0.12338585E+02 -.44681144E+02 0.47386249E+02 0.75000000E+00 0.0000E+00 0.9000E+01
#aMCatNLO 2  0  0  2  5 0.15763549D+02 0.00000000D+00  -5  6  0 0.00000000D+00 0.00000000D+00 0.00000000D+00 0.00000000D+00 0.00000000D+00
  <mgrwgt>
 0.9419802176D-04    6    2    0
 0.889248169627095D+03 0.000000000000000D+00 0.000000000000000D+00 0.889248169627095D+03
 0.889248169627095D+03 0.000000000000000D+00 0.000000000000000D+00 -.889248169627095D+03
 0.551573223478353D+03 0.530509327528686D+03 0.588806904089617D+02 -.608353397321578D+02
 0.655083266136057D+03 -.274243886149073D+03 -.350525717074925D+03 0.480682949718885D+03
 0.571839849639779D+03 -.256265441379613D+03 0.291645026665963D+03 -.419847609986727D+03
 0.000000000000000D+00 -.000000000000000D+00 0.000000000000000D+00 -.000000000000000D+00
 0.890085425138659D+03 0.000000000000000D+00 0.000000000000000D+00 0.890085425138659D+03
 0.966710895995695D+03 0.000000000000000D+00 0.000000000000000D+00 -.966710895995695D+03
 0.554112822594320D+03 0.533558893430585D+03 0.550453344457723D+02 -.608353397321578D+02
 0.656028021458060D+03 -.270627741864316D+03 -.355073643236371D+03 0.480682949718885D+03
 0.568425353262013D+03 -.253120503542835D+03 0.287689724018254D+03 -.419847609986727D+03
 0.782301238199613D+02 -.981064802343365D+01 0.123385847723443D+02 -.766254708570358D+02
-.263560023750D-06 0.000000000000D+00 0.000000000000D+00 0.167494221674D-07 0.000000000000D+00  6 1 -2 25 1 -2 21 2 0.23011325D+00 0.88456550D-01 0.48732037D+06 0.48732037D+06 0.48732037D+06 0.10692997D+01  1  2 13  2  6  2       -2 -.242768292459D-06 0.100000000000D+01
-.138546414124D-03 0.000000000000D+00 0.000000000000D+00 0.167494221674D-07 0.000000000000D+00  6 1 -2 25 1 -2 21 2 0.23011325D+00 0.88880988D-01 0.48732037D+06 0.48732037D+06 0.48732037D+06 0.10692997D+01  1  2 13  2  6  2       -2 -.126199359334D-03 0.100000000000D+01
-.135966999269D-04 0.000000000000D+00 0.000000000000D+00 0.167494221674D-07 0.000000000000D+00  6 1 -2 25 1 -2 21 2 0.23011325D+00 0.81335029D-01 0.47713948D+06 0.47713948D+06 0.47713948D+06 0.10699498D+01  1  2  8  2  6  2       -2 -.152297733619D-04 0.100000000000D+01
-.747742303930D-05 0.000000000000D+00 0.000000000000D+00 0.167494221674D-07 0.000000000000D+00  6 1 -2 25 1 -2 21 2 0.23011325D+00 0.88457861D-01 0.47713948D+06 0.47713948D+06 0.47713948D+06 0.10699498D+01  1  2  9  2  6  2       -2 -.690417365350D-05 0.100000000000D+01
0.745115155084D-05 0.000000000000D+00 0.000000000000D+00 0.167494221674D-07 0.000000000000D+00  6 1 -2 25 1 -2 21 2 0.23011325D+00 0.81335029D-01 0.47713948D+06 0.47713948D+06 0.47713948D+06 0.10699498D+01  1  2 10  2  6  2       -2 0.834609500941D-05 0.100000000000D+01
0.254821455105D-03 0.000000000000D+00 0.000000000000D+00 0.167494221674D-07 0.755355190464D-09  6 1 -2 25 1 -2 21 2 0.23032991D+00 0.88420153D-01 0.48732037D+06 0.48732037D+06 0.48732037D+06 0.10692997D+01  1  2  1  2  6  2       -2 0.234428001388D-03 0.100000000000D+01
  </mgrwgt>
  </event>
  <event>
  5     66 -.19854216E-05 0.35156973E+03 0.75467711E-02 0.90977935E-01
        1 -1    0    0  502    0 0.00000000E+00 0.00000000E+00 0.21380139E+04 0.21380139E+04 0.32000000E+00 0.0000E+00 0.9000E+01
       -2 -1    0    0    0  501 0.00000000E+00 0.00000000E+00 -.18379589E+04 0.18379589E+04 0.32000000E+00 0.0000E+00 0.9000E+01
       25  1    1    2    0    0 0.41554749E+03 0.25202726E+03 0.30614418E+03 0.58783222E+03 0.12500000E+03 0.0000E+00 0.9000E+01
        1  1    1    2  502    0 -.13891068E+03 -.50363517E+03 0.16290567E+04 0.17107806E+04 0.32000000E+00 0.0000E+00 0.9000E+01
       -2  1    1    2    0  501 -.27663681E+03 0.25160791E+03 -.16351458E+04 0.16773600E+04 0.32000000E+00 0.0000E+00 0.9000E+01
#aMCatNLO 1  0  0  4  1 0.96612046D+02 0.00000000D+00  -5  6  0 0.00000000D+00 0.00000000D+00 0.00000000D+00 0.00000000D+00 0.00000000D+00
  <mgrwgt>
 -.1975603785D-04    8    2    0
 0.198231724581626D+04 0.000000000000000D+00 0.000000000000000D+00 0.198231724581626D+04
 0.198231724581626D+04 -.000000000000000D+00 -.000000000000000D+00 -.198231724581626D+04
 0.566373377489230D+03 0.415562951756690D+03 0.251994598677151D+03 0.262602281203661D+03
 0.159232689363417D+04 -.138905922523736D+03 -.503617917005679D+03 0.150418718068907D+04
 0.180593422050912D+04 -.276657029232954D+03 0.251623318328528D+03 -.176678946189273D+04
 0.000000000000000D+00 0.000000000000000D+00 0.000000000000000D+00 0.000000000000000D+00
 0.198231724581626D+04 0.000000000000000D+00 0.000000000000000D+00 0.198231724581626D+04
 0.198231724581626D+04 -.000000000000000D+00 -.000000000000000D+00 -.198231724581626D+04
 0.566769295867286D+03 0.415415776979951D+03 0.251461001166329D+03 0.264196010315203D+03
 0.743876488808031D+03 -.619526013270473D+02 -.324930780084532D+03 0.666283793847512D+03
 0.180080723589944D+04 -.277125479835939D+03 0.249924901784371D+03 -.176171669480696D+04
 0.853181471057755D+03 -.763376958169644D+02 -.176455122866168D+03 0.831236890644248D+03
0.101761510284D-02 0.000000000000D+00 0.000000000000D+00 0.190545030472D-05 0.000000000000D+00  6 1 -2 25 1 -2 21 0 0.32892522D+00 0.28276291D+00 0.48874669D+06 0.48874669D+06 0.48874669D+06 0.10692098D+01  1  2  2  3  6  4        1 0.973376650887D-05 0.100000000000D+01
0.762673719116D-04 0.000000000000D+00 -.390790993913D-05 0.190545030472D-05 0.000000000000D+00  6 1 -2 25 1 -2 21 2 0.32892522D+00 0.28276291D+00 0.48874669D+06 0.48874669D+06 0.48874669D+06 0.10692098D+01  1  2  3  3  6  4        1 0.833992264848D-06 0.100000000000D+01
-.704761312667D-03 0.000000000000D+00 0.000000000000D+00 0.190545030472D-05 0.000000000000D+00  6 1 -2 25 1 -2 21 2 0.32892522D+00 0.28276291D+00 0.48874669D+06 0.48874669D+06 0.48874669D+06 0.10692098D+01  1  2 15  3  6  4        1 -.770664398939D-05 0.100000000000D+01
0.300072441889D-08 0.000000000000D+00 0.000000000000D+00 0.190545030472D-05 0.000000000000D+00  6 1 -2 25 1 -2 21 2 0.32892522D+00 0.28276291D+00 0.48835410D+06 0.48835410D+06 0.48835410D+06 0.10692345D+01  1  2 12  3  6  4        1 0.328175634804D-10 0.100000000000D+01
0.733003348235D-02 0.000000000000D+00 0.000000000000D+00 0.190545030472D-05 0.000000000000D+00  6 1 -2 25 1 -2 21 2 0.32892522D+00 0.28276291D+00 0.48835410D+06 0.48835410D+06 0.48835410D+06 0.10692345D+01  1  2 12  3  6  4        1 0.801652552983D-04 0.100000000000D+01
-.146181152609D-01 0.000000000000D+00 0.000000000000D+00 0.190545030472D-05 0.000000000000D+00  6 1 -2 25 1 -2 21 2 0.32892522D+00 0.28276291D+00 0.48874669D+06 0.48874669D+06 0.48874669D+06 0.10692098D+01  1  2  4  3  6  4        1 -.159850729725D-03 0.100000000000D+01
-.808556077165D-02 0.000000000000D+00 0.000000000000D+00 0.190545030472D-05 0.000000000000D+00  6 1 -2 25 1 -2 21 2 0.32892522D+00 0.28276291D+00 0.48874669D+06 0.48874669D+06 0.48874669D+06 0.10692098D+01  1  2  5  3  6  4        1 -.884165137923D-04 0.100000000000D+01
0.133043722680D-01 0.000000000000D+00 -.000000000000D+00 0.190545030472D-05 0.000000000000D+00  6 1 -2 25 1 -2 21 2 0.32892522D+00 0.28276291D+00 0.48874669D+06 0.48874669D+06 0.48874669D+06 0.10692098D+01  1  2  6  3  6  4        1 0.145484802768D-03 0.100000000000D+01
  </mgrwgt>
  </event>
  <event>
  5     66 0.19854216E-05 0.11111847E+03 0.75467711E-02 0.91113580E-01
        1 -1    0    0  502    0 0.00000000E+00 0.00000000E+00 0.16881116E+04 0.16881116E+04 0.32000000E+00 0.0000E+00 0.9000E+01
       -2 -1    0    0    0  501 0.00000000E+00 0.00000000E+00 -.15642557E+04 0.15642557E+04 0.32000000E+00 0.0000E+00 0.9000E+01
       25  1    1    2    0    0 0.42019271E+03 0.45596583E+03 0.36228652E+03 0.72893297E+03 0.12500000E+03 0.0000E+00 0.9000E+01
        1  1    1    2  502    0 -.49221952E+03 -.37136523E+03 0.10567569E+04 0.12234898E+04 0.32000000E+00 0.0000E+00 0.9000E+01
       -2  1    1    2    0  501 0.72026815E+02 -.84600607E+02 -.12951875E+04 0.12999445E+04 0.32000000E+00 0.0000E+00 0.9000E+01
#aMCatNLO 1  0  0  1  2 0.29575230D+02 0.00000000D+00  -5  6  0 0.00000000D+00 0.00000000D+00 0.00000000D+00 0.00000000D+00 0.00000000D+00
  <mgrwgt>
 0.1305262404D-02    9    2    0
 0.162500407644814D+04 0.000000000000000D+00 0.000000000000000D+00 0.162500407644814D+04
 0.162500407644814D+04 0.000000000000000D+00 0.000000000000000D+00 -.162500407644814D+04
 0.715678700519397D+03 0.420154449012253D+03 0.455949316975930D+03 0.334890223359127D+03
 0.118402806075163D+04 -.492187320122934D+03 -.371340929973711D+03 0.101083134314470D+04
 0.135030139162525D+04 0.720328711106810D+02 -.846083870022189D+02 -.134572156650383D+04
 0.000000000000000D+00 0.000000000000000D+00 -.000000000000000D+00 0.000000000000000D+00
 0.164560223613155D+04 0.000000000000000D+00 0.000000000000000D+00 0.164560223613155D+04
 0.163572231973615D+04 0.000000000000000D+00 0.000000000000000D+00 -.163572231973615D+04
 0.715643186060641D+03 0.415314690791047D+03 0.460306871192073D+03 0.334890223359127D+03
 0.118514455301099D+04 -.500198252354474D+03 -.364128158193535D+03 0.101083134314470D+04
 0.134935497904855D+04 0.629044673344922D+02 -.763894817297813D+02 -.134572156650383D+04
 0.311818377475220D+02 0.219790942289347D+02 -.197892312687570D+02 0.987991639539752D+01
0.623135091690D-02 0.000000000000D+00 0.000000000000D+00 0.133122892062D-04 0.000000000000D+00  6 1 -2 25 1 -2 21 0 0.25970948D+00 0.24065472D+00 0.46251298D+06 0.46251298D+06 0.46251298D+06 0.10709107D+01  1  2  2  1  6  1        1 0.224485045729D-03 0.100000000000D+01
0.193543360709D-02 0.000000000000D+00 -.239300282733D-04 0.133122892062D-04 0.000000000000D+00  6 1 -2 25 1 -2 21 2 0.25970948D+00 0.24065472D+00 0.46251298D+06 0.46251298D+06 0.46251298D+06 0.10709107D+01  1  2  3  1  6  1        1 0.799631703732D-04 0.100000000000D+01
-.425402197726D-02 0.000000000000D+00 0.000000000000D+00 0.133122892062D-04 0.000000000000D+00  6 1 -2 25 1 -2 21 2 0.25970948D+00 0.24065472D+00 0.46251298D+06 0.46251298D+06 0.46251298D+06 0.10709107D+01  1  2 15  1  6  1        1 -.175756524478D-03 0.100000000000D+01
0.132046763302D-08 0.000000000000D+00 0.000000000000D+00 0.133122892062D-04 0.000000000000D+00  6 1 -2 25 1 -2 21 2 0.26384971D+00 0.24065472D+00 0.47587942D+06 0.47587942D+06 0.47587942D+06 0.10700313D+01  1  2 12  1  6  1        1 0.521200892229D-10 0.100000000000D+01
-.413596430927D-03 0.000000000000D+00 0.000000000000D+00 0.133122892062D-04 0.000000000000D+00  6 1 -2 25 1 -2 21 2 0.25970948D+00 0.24065472D+00 0.46251298D+06 0.46251298D+06 0.46251298D+06 0.10709107D+01  1  2  4  1  6  1        1 -.170878927342D-04 0.100000000000D+01
-.699099508529D+00 0.000000000000D+00 -.958035847086D-01 0.133122892062D-04 0.000000000000D+00  6 1 -2 25 1 -2 21 2 0.26388927D+00 0.24065472D+00 0.46251298D+06 0.46251298D+06 0.46251298D+06 0.10709107D+01  1  2  5  1  6  1        1 -.276993827252D-01 0.100000000000D+01
0.700552020257D+00 0.000000000000D+00 0.957913753139D-01 0.133122892062D-04 0.000000000000D+00  6 1 -2 25 1 -2 21 2 0.25970948D+00 0.24065472D+00 0.46251298D+06 0.46251298D+06 0.46251298D+06 0.10709107D+01  1  2  6  1  6  1        1 0.289435712731D-01 0.100000000000D+01
0.734459307717D-10 0.000000000000D+00 0.000000000000D+00 0.133122892062D-04 0.000000000000D+00  6 21 -2 25 1 -2 -1 2 0.26384971D+00 0.24065472D+00 0.47587942D+06 0.47587942D+06 0.47587942D+06 0.10700313D+01  1  2 12  5  6  1        1 0.181531348179D-11 0.100000000000D+01
-.203462126846D-02 0.000000000000D+00 -.280051654866D-03 0.133122892062D-04 0.000000000000D+00  6 21 -2 25 1 -2 -1 2 0.26388927D+00 0.24065472D+00 0.46251298D+06 0.46251298D+06 0.46251298D+06 0.10709107D+01  1  2  5  5  6  1        1 -.505299966343D-04 0.100000000000D+01
  </mgrwgt>
  </event>
  <event>
  5     66 0.19854216E-05 0.50304057E+02 0.75467711E-02 0.92810488E-01
        1 -1    0    0  502    0 0.00000000E+00 0.00000000E+00 0.77503258E+03 0.77503265E+03 0.32000000E+00 0.0000E+00 0.9000E+01
       -2 -1    0    0    0  501 0.00000000E+00 0.00000000E+00 -.81977896E+03 0.81977902E+03 0.32000000E+00 0.0000E+00 0.9000E+01
       25  1    1    2    0    0 0.49699931E+03 -.72238611E+02 -.30996052E+03 0.60326383E+03 0.12500000E+03 0.0000E+00 0.9000E+01
        1  1    1    2  502    0 -.12007976E+02 0.48861800E+02 0.46411452E+03 0.46683408E+03 0.32000000E+00 0.0000E+00 0.9000E+01
       -2  1    1    2    0  501 -.48499133E+03 0.23376811E+02 -.19890038E+03 0.52471376E+03 0.32000000E+00 0.0000E+00 0.9000E+01
#aMCatNLO 1  0  0  1  2 0.97648959D+02 0.00000000D+00  -5  6  0 0.00000000D+00 0.00000000D+00 0.00000000D+00 0.00000000D+00 0.00000000D+00
  <mgrwgt>
 0.4698817163D-03    7    2    0
 0.797091904567543D+03 0.000000000000000D+00 0.000000000000000D+00 0.797091904567543D+03
 0.797091904567543D+03 0.000000000000000D+00 0.000000000000000D+00 -.797091904567543D+03
 0.594845930965229D+03 0.497086629041656D+03 -.722419874171543D+02 -.293091555777222D+03
 0.479934011685137D+03 -.120052035520854D+02 0.488505190978259D+02 0.477290433010903D+03
 0.519403866484720D+03 -.485081425489571D+03 0.233914683193284D+02 -.184198877233682D+03
 0.000000000000000D+00 0.000000000000000D+00 -.000000000000000D+00 0.000000000000000D+00
 0.913540251775679D+03 0.000000000000000D+00 0.000000000000000D+00 0.913540251775679D+03
 0.818837645876684D+03 0.000000000000000D+00 0.000000000000000D+00 -.818837645876684D+03
 0.583836992240590D+03 0.487758654933824D+03 -.378083056718225D+02 -.293091555777222D+03
 0.483861139222559D+03 -.196325781716050D+02 0.770065353093669D+02 0.477290433010903D+03
 0.529409122536590D+03 -.493381622440707D+03 0.540311696022694D+02 -.184198877233682D+03
 0.135270643652624D+03 0.252555456784878D+02 -.932293992398138D+02 0.947026058989950D+02
0.119401418254D-03 0.000000000000D+00 0.000000000000D+00 0.137349743994D-05 0.000000000000D+00  6 1 -2 25 1 -2 21 0 0.11923579D+00 0.12611985D+00 0.27750634D+06 0.27750634D+06 0.27750634D+06 0.10870650D+01  1  2  2  1  6  1        1 0.142459175044D-03 0.100000000000D+01
0.454591137966D-04 0.000000000000D+00 -.458532885210D-06 0.137349743994D-05 0.000000000000D+00  6 1 -2 25 1 -2 21 2 0.11923579D+00 0.12611985D+00 0.27750634D+06 0.27750634D+06 0.27750634D+06 0.10870650D+01  1  2  3  1  6  1        1 0.640933478129D-04 0.100000000000D+01
-.646866849076D-04 0.000000000000D+00 0.000000000000D+00 0.137349743994D-05 0.000000000000D+00  6 1 -2 25 1 -2 21 2 0.11923579D+00 0.12611985D+00 0.27750634D+06 0.27750634D+06 0.27750634D+06 0.10870650D+01  1  2 15  1  6  1        1 -.912025301064D-04 0.100000000000D+01
-.266646559562D-04 0.000000000000D+00 0.000000000000D+00 0.137349743994D-05 0.000000000000D+00  6 1 -2 25 1 -2 21 2 0.11923579D+00 0.12611985D+00 0.27750634D+06 0.27750634D+06 0.27750634D+06 0.10870650D+01  1  2  4  1  6  1        1 -.375948170957D-04 0.100000000000D+01
-.131313888521D-02 0.000000000000D+00 -.248746883549D-03 0.137349743994D-05 0.000000000000D+00  6 1 -2 25 1 -2 21 2 0.13875199D+00 0.12611985D+00 0.27750634D+06 0.27750634D+06 0.27750634D+06 0.10870650D+01  1  2  5  1  6  1        1 -.144730731787D-02 0.100000000000D+01
0.133827107029D-02 0.000000000000D+00 0.245916132418D-03 0.137349743994D-05 0.000000000000D+00  6 1 -2 25 1 -2 21 2 0.11923579D+00 0.12611985D+00 0.27750634D+06 0.27750634D+06 0.27750634D+06 0.10870650D+01  1  2  6  1  6  1        1 0.188684437536D-02 0.100000000000D+01
-.284503867365D-04 0.000000000000D+00 -.572260134907D-05 0.137349743994D-05 0.000000000000D+00  6 21 -2 25 1 -2 -1 2 0.13875199D+00 0.12611985D+00 0.27750634D+06 0.27750634D+06 0.27750634D+06 0.10870650D+01  1  2  5  5  6  1        1 -.474105168878D-04 0.100000000000D+01
  </mgrwgt>
  </event>
  <event>
  5     66 0.19854216E-05 0.90225697E+02 0.75467711E-02 0.93788047E-01
        1 -1    0    0  502    0 0.00000000E+00 0.00000000E+00 0.12003039E+04 0.12003040E+04 0.32000000E+00 0.0000E+00 0.9000E+01
       -2 -1    0    0    0  501 0.00000000E+00 0.00000000E+00 -.31047733E+03 0.31047750E+03 0.32000000E+00 0.0000E+00 0.9000E+01
       25  1    1    2    0    0 -.18185104E+03 0.41982021E+03 0.21677606E+03 0.52147452E+03 0.12500000E+03 0.0000E+00 0.9000E+01
        1  1    1    2  502    0 0.49600037E+02 0.75467326E+02 0.39684909E+03 0.40699482E+03 0.32000000E+00 0.0000E+00 0.9000E+01
       -2  1    1    2    0  501 0.13225101E+03 -.49528754E+03 0.27620145E+03 0.58231213E+03 0.32000000E+00 0.0000E+00 0.9000E+01
#aMCatNLO 1  0  0  1  1 0.10325404D+04 0.00000000D+00  -5  6  0 0.00000000D+00 0.00000000D+00 0.00000000D+00 0.00000000D+00 0.00000000D+00
  <mgrwgt>
 0.4480676867D-03    3    2    0
 0.610464838346216D+03 0.000000000000000D+00 0.000000000000000D+00 0.610464838346216D+03
 0.610464838346216D+03 0.000000000000000D+00 0.000000000000000D+00 -.610464838346216D+03
 0.487409467831344D+03 -.181870398785338D+03 0.419967792238177D+03 -.111772988060116D+03
 0.214193644569780D+03 0.495549972172251D+02 0.753987978491893D+02 0.194263328777676D+03
 0.519326564291309D+03 0.132315401568113D+03 -.495366590087366D+03 -.824903407175594D+02
 0.000000000000000D+00 -.000000000000000D+00 0.000000000000000D+00 -.000000000000000D+00
 0.298477616358703D+04 0.000000000000000D+00 0.000000000000000D+00 0.298477616358703D+04
 0.433443852750484D+04 0.000000000000000D+00 0.000000000000000D+00 -.433443852750484D+04
 0.191853890041202D+03 -.798623443326551D+02 -.480803517223740D+02 -.111772988060116D+03
 0.460949657040139D+03 0.150944324163537D+03 -.389810410867195D+03 0.194263328777676D+03
 0.298419760127580D+04 0.658455490997933D+03 -.290947882506871D+04 -.824903407175594D+02
 0.368221354273473D+04 -.729537470828814D+03 0.334736958765828D+04 -.134966236391781D+04
0.205483297721D-03 0.000000000000D+00 0.000000000000D+00 0.443165836370D-07 0.000000000000D+00  6 1 -2 25 1 -2 21 0 0.18466216D+00 0.47765760D-01 0.29018663D+06 0.29018663D+06 0.29018663D+06 0.10856221D+01  1  2  2  1  6  1        1 0.101166806760D-02 0.100000000000D+01
0.253064072330D-04 0.000000000000D+00 -.789109968242D-06 0.443165836370D-07 0.000000000000D+00  6 1 -2 25 1 -2 21 2 0.18466216D+00 0.47765760D-01 0.29018663D+06 0.29018663D+06 0.29018663D+06 0.10856221D+01  1  2  3  1  6  1        1 0.146841686491D-03 0.100000000000D+01
-.122436187595D-03 0.000000000000D+00 0.000000000000D+00 0.443165836370D-07 0.000000000000D+00  6 1 -2 25 1 -2 21 2 0.18466216D+00 0.47765760D-01 0.29018663D+06 0.29018663D+06 0.29018663D+06 0.10856221D+01  1  2 15  1  6  1        1 -.710442067431D-03 0.100000000000D+01
  </mgrwgt>
  </event>
  <event>
  5     66 0.19854216E-05 0.83136141E+02 0.75467711E-02 0.90971690E-01
        1 -1    0    0  502    0 0.00000000E+00 0.00000000E+00 0.59572532E+03 0.59572540E+03 0.32000000E+00 0.0000E+00 0.9000E+01
       -2 -1    0    0    0  501 -.00000000E+00 -.00000000E+00 -.18331352E+04 0.18331353E+04 0.32000000E+00 0.0000E+00 0.9000E+01
       25  1    1    2    0    0 -.44578170E+03 0.28129867E+03 -.12159339E+04 0.13311538E+04 0.12500000E+03 0.0000E+00 0.9000E+01
        1  1    1    2  502    0 0.81781751E+02 -.14983012E+02 0.44273407E+03 0.45047342E+03 0.32000000E+00 0.0000E+00 0.9000E+01
       -2  1    1    2    0  501 0.36399995E+03 -.26631566E+03 -.46421009E+03 0.64723342E+03 0.32000000E+00 0.0000E+00 0.9000E+01
#aMCatNLO 1  0  0  4  1 0.13178713D+02 0.00000000D+00  -5  6  0 0.00000000D+00 0.00000000D+00 0.00000000D+00 0.00000000D+00 0.00000000D+00
  <mgrwgt>
 0.3075538193D-04    4    2    0
 0.104500967196043D+04 0.000000000000000D+00 0.000000000000000D+00 0.104500967196043D+04
 0.104500967196043D+04 -.000000000000000D+00 -.000000000000000D+00 -.104500967196043D+04
 0.827072546371946D+03 -.445831673788877D+03 0.281333243120111D+03 -.624907770734453D+03
 0.785565284613397D+03 0.817750810435361D+02 -.149817898381409D+02 0.781153761101677D+03
 0.477381512935513D+03 0.364056592745341D+03 -.266351453281970D+03 -.156245990367224D+03
 0.000000000000000D+00 -.000000000000000D+00 0.000000000000000D+00 0.000000000000000D+00
 0.104500967196043D+04 0.000000000000000D+00 0.000000000000000D+00 0.104500967196043D+04
 0.104500967196043D+04 -.000000000000000D+00 -.000000000000000D+00 -.104500967196043D+04
 0.760702763659737D+03 -.437145517650678D+03 0.279741876115601D+03 -.541933551078734D+03
 0.691107290940703D+03 0.237485483759340D+03 -.249391890792180D+02 0.648542958826214D+03
 0.468179910441398D+03 0.369229424259861D+03 -.267299153652666D+03 -.106832688154025D+03
 0.170029378879017D+03 -.169569390368523D+03 0.124964666162828D+02 0.223280406544955D+00
0.599112305927D-03 0.000000000000D+00 0.000000000000D+00 0.112556983810D-05 0.000000000000D+00  6 1 -2 25 1 -2 21 0 0.91650057D-01 0.28202082D+00 0.28945298D+06 0.28945298D+06 0.28945298D+06 0.10857037D+01  1  2  2  3  6  4        1 0.838021950446D-04 0.100000000000D+01
0.169968673899D-03 0.000000000000D+00 -.230074900465D-05 0.112556983810D-05 0.000000000000D+00  6 1 -2 25 1 -2 21 2 0.91650057D-01 0.28202082D+00 0.28945298D+06 0.28945298D+06 0.28945298D+06 0.10857037D+01  1  2  3  3  6  4        1 0.280245517149D-04 0.100000000000D+01
-.428332766883D-03 0.000000000000D+00 0.000000000000D+00 0.112556983810D-05 0.000000000000D+00  6 1 -2 25 1 -2 21 2 0.91650057D-01 0.28202082D+00 0.28945298D+06 0.28945298D+06 0.28945298D+06 0.10857037D+01  1  2 15  3  6  4        1 -.706238008533D-04 0.100000000000D+01
-.633643889195D-04 0.000000000000D+00 0.000000000000D+00 0.112556983810D-05 0.000000000000D+00  6 1 -2 25 1 -2 21 2 0.91650057D-01 0.28202082D+00 0.28945298D+06 0.28945298D+06 0.28945298D+06 0.10857037D+01  1  2  4  3  6  4        1 -.104475639742D-04 0.100000000000D+01
  </mgrwgt>
  </event>
  <event>
  6     66 0.19854216E-05 0.75173741E+02 0.75467711E-02 0.94080708E-01
        1 -1    0    0  502    0 0.00000000E+00 0.00000000E+00 0.10752802E+04 0.10752802E+04 0.32000000E+00 0.0000E+00 0.9000E+01
       -2 -1    0    0    0  501 0.00000000E+00 0.00000000E+00 -.77275068E+03 0.77275075E+03 0.32000000E+00 0.0000E+00 0.9000E+01
       25  1    1    2    0    0 0.50557749E+03 -.34420657E+02 0.18438037E+02 0.52226271E+03 0.12500000E+03 0.0000E+00 0.9000E+01
        1  1    1    2  503    0 -.12440512E+03 -.38008145E+02 0.27744147E+03 0.30642312E+03 0.32000000E+00 0.0000E+00 0.9000E+01
       -2  1    1    2    0  501 -.89286556E+01 0.19796906E+02 -.43716420E+03 0.43770342E+03 0.32000000E+00 0.0000E+00 0.9000E+01
       21  1    1    2  502  503 -.37224372E+03 0.52631896E+02 0.44381418E+03 0.58164172E+03 0.75000000E+00 0.0000E+00 0.9000E+01
#aMCatNLO 2  0  0  4  1 0.15279212D+02 0.00000000D+00  -5  6  0 0.00000000D+00 0.00000000D+00 0.00000000D+00 0.00000000D+00 0.00000000D+00
  <mgrwgt>
 0.2055649556D-03    1    2    0
 0.911550101650948D+03 0.000000000000000D+00 0.000000000000000D+00 0.911550101650948D+03
 0.911550101650948D+03 -.000000000000000D+00 -.000000000000000D+00 -.911550101650948D+03
 0.529146756682881D+03 0.508118003329835D+03 -.345059283160844D+02 -.706875216085472D+02
 0.774467136526023D+03 -.501761061902340D+03 0.147742804462436D+02 0.589760038451868D+03
 0.519486310092992D+03 -.635694142749484D+01 0.197316478698408D+02 -.519072516843321D+03
 0.000000000000000D+00 0.000000000000000D+00 0.000000000000000D+00 0.000000000000000D+00
 0.911550101650948D+03 0.000000000000000D+00 0.000000000000000D+00 0.911550101650948D+03
 0.911550101650948D+03 -.000000000000000D+00 -.000000000000000D+00 -.911550101650948D+03
 0.526219281101208D+03 0.505495711634908D+03 -.344287153239765D+02 -.676053317611153D+02
 0.264128939044938D+03 -.124159257874060D+03 -.379739545868702D+02 0.230014247163521D+03
 0.516504129620938D+03 -.893109013876994D+01 0.198074432988973D+02 -.516046913307673D+03
 0.516247853534812D+03 -.372405363622078D+03 0.525952266119495D+02 0.353637997905268D+03
0.217688731540D-03 0.000000000000D+00 0.000000000000D+00 0.179461580741D-04 0.316761187407D-08  6 1 -2 25 1 -2 21 2 0.16542773D+00 0.11888473D+00 0.27537514D+06 0.27537514D+06 0.27537514D+06 0.10873146D+01  1  2  1  3  6  4        1 0.205564955605D-03 0.100000000000D+01
  </mgrwgt>
  </event>
  <event>
  5     66 -.19854216E-05 0.76113225E+02 0.75467711E-02 0.94369913E-01
        1 -1    0    0  502    0 0.00000000E+00 0.00000000E+00 0.11789043E+04 0.11789044E+04 0.32000000E+00 0.0000E+00 0.9000E+01
       -2 -1    0    0    0  501 -.00000000E+00 -.00000000E+00 -.22315858E+04 0.22315858E+04 0.32000000E+00 0.0000E+00 0.9000E+01
       25  1    1    2    0    0 -.42327491E+03 -.24781161E+03 0.37727495E+03 0.63129520E+03 0.12500000E+03 0.0000E+00 0.9000E+01
        1  1    1    2  502    0 0.35034826E+03 0.22604408E+03 0.60942015E+03 0.73839885E+03 0.32000000E+00 0.0000E+00 0.9000E+01
       -2  1    1    2    0  501 0.72926645E+02 0.21767527E+02 -.20393765E+04 0.20407961E+04 0.32000000E+00 0.0000E+00 0.9000E+01
#aMCatNLO 1  0  0  5  4 0.40707134D+02 0.00000000D+00  -5  6  0 0.00000000D+00 0.00000000D+00 0.00000000D+00 0.00000000D+00 0.00000000D+00
  <mgrwgt>
 -.3751847531D-03    5    2    0
 0.162198220257441D+04 0.000000000000000D+00 0.000000000000000D+00 0.162198220257441D+04
 0.162198220257441D+04 -.000000000000000D+00 -.000000000000000D+00 -.162198220257441D+04
 0.786212940638935D+03 -.423238641298304D+03 -.247785844107976D+03 0.601645257605995D+03
 0.973943336295401D+03 0.350305068310030D+03 0.226016209672202D+03 0.880209437802126D+03
 0.148380812821449D+04 0.729335729882746D+02 0.217696344357749D+02 -.148185469540812D+04
 0.000000000000000D+00 0.000000000000000D+00 0.000000000000000D+00 -.000000000000000D+00
 0.162198220257441D+04 0.000000000000000D+00 0.000000000000000D+00 0.162198220257441D+04
 0.162198220257441D+04 -.000000000000000D+00 -.000000000000000D+00 -.162198220257441D+04
 0.785535989656015D+03 -.423196793459935D+03 -.247773353123291D+03 0.600794998757583D+03
 0.973013831293135D+03 0.350356906073231D+03 0.226031682507394D+03 0.879156204981467D+03
 0.295645793981666D+03 0.287766006521950D+02 0.423565985434704D+02 -.291177370882047D+03
 0.118976879021801D+04 0.440632867345094D+02 -.206149279275731D+02 -.118877383285700D+04
0.153433978025D-02 0.000000000000D+00 0.000000000000D+00 0.103089258057D-03 0.000000000000D+00  6 1 -2 25 1 -2 21 0 0.18136990D+00 0.34332089D+00 0.24955981D+06 0.24955981D+06 0.24955981D+06 0.10905167D+01  1  2  2  4  6  5       -2 0.282258054528D-04 0.100000000000D+01
0.535454210987D-03 0.000000000000D+00 -.589226875708D-05 0.103089258057D-03 0.000000000000D+00  6 1 -2 25 1 -2 21 2 0.18136990D+00 0.34332089D+00 0.24955981D+06 0.24955981D+06 0.24955981D+06 0.10905167D+01  1  2  3  4  6  5       -2 0.117141767102D-04 0.100000000000D+01
-.931808034768D-03 0.000000000000D+00 0.000000000000D+00 0.103089258057D-03 0.000000000000D+00  6 1 -2 25 1 -2 21 2 0.18136990D+00 0.34332089D+00 0.24955981D+06 0.24955981D+06 0.24955981D+06 0.10905167D+01  1  2 15  4  6  5       -2 -.203852425760D-04 0.100000000000D+01
0.392231367938D-09 0.000000000000D+00 0.000000000000D+00 0.103089258057D-03 0.000000000000D+00  6 1 -2 25 1 -2 21 2 0.18136990D+00 0.34332089D+00 0.26156637D+06 0.26156637D+06 0.26156637D+06 0.10889845D+01  1  2 12  4  6  5       -2 0.851682575440D-11 0.100000000000D+01
-.180435154234D-01 0.000000000000D+00 0.000000000000D+00 0.103089258057D-03 0.000000000000D+00  6 1 -2 25 1 -2 21 2 0.18136990D+00 0.34332089D+00 0.24955981D+06 0.24955981D+06 0.24955981D+06 0.10905167D+01  1  2  5  4  6  5       -2 -.394739501168D-03 0.100000000000D+01
  </mgrwgt>
  </event>
  <event>
  5     66 0.19854216E-05 0.56074250E+02 0.75467711E-02 0.92841706E-01
        1 -1    0    0  502    0 0.00000000E+00 0.00000000E+00 0.11668985E+04 0.11668986E+04 0.32000000E+00 0.0000E+00 0.9000E+01
       -2 -1    0    0    0  501 0.00000000E+00 0.00000000E+00 -.55029246E+03 0.55029256E+03 0.32000000E+00 0.0000E+00 0.9000E+01
       25  1    1    2    0    0 -.41650275E+03 -.34694315E+03 0.35194457E+03 0.65828115E+03 0.12500000E+03 0.0000E+00 0.9000E+01
        1  1    1    2  502    0 0.27787234E+02 0.48735782E+02 0.50855040E+03 0.51163554E+03 0.32000000E+00 0.0000E+00 0.9000E+01
       -2  1    1    2    0  501 0.38871552E+03 0.29820736E+03 -.24388892E+03 0.54727443E+03 0.32000000E+00 0.0000E+00 0.9000E+01
#aMCatNLO 1  0  0  4  1 0.37799912D+02 0.00000000D+00  -5  6  0 0.00000000D+00 0.00000000D+00 0.00000000D+00 0.00000000D+00 0.00000000D+00
  <mgrwgt>
 0.2695488548D-03    4    2    0
 0.801333621135779D+03 0.000000000000000D+00 0.000000000000000D+00 0.801333621135779D+03
 0.801333621135779D+03 -.000000000000000D+00 -.000000000000000D+00 -.801333621135779D+03
 0.570019759920748D+03 -.416567901024510D+03 -.346984305726970D+03 0.123978232425349D+03
 0.352370389199451D+03 0.277740522680108D+02 0.487126627530912D+02 0.347880108216452D+03
 0.680277093151359D+03 0.388793848756499D+03 0.298271642973879D+03 -.471858340641801D+03
 0.000000000000000D+00 0.000000000000000D+00 0.000000000000000D+00 -.000000000000000D+00
 0.801333621135779D+03 0.000000000000000D+00 0.000000000000000D+00 0.801333621135779D+03
 0.801333621135779D+03 -.000000000000000D+00 -.000000000000000D+00 -.801333621135779D+03
 0.572548327737973D+03 -.414489457622527D+03 -.343338942367126D+03 0.150011492124957D+03
 0.452347168183326D+02 -.333622821981864D+02 -.237804057416494D+02 -.191736807871062D+02
 0.662807794178425D+03 0.391237051881570D+03 0.302556755161341D+03 -.441256332719348D+03
 0.322076403536828D+03 0.566146879391438D+02 0.645625929474351D+02 0.310418521381497D+03
0.290178102927D-03 0.000000000000D+00 0.000000000000D+00 0.271089932963D-05 0.000000000000D+00  6 1 -2 25 1 -2 21 0 0.17952286D+00 0.84660389D-01 0.30386296D+06 0.30386296D+06 0.30386296D+06 0.10841410D+01  1  2  2  3  6  4        1 0.449136372158D-03 0.100000000000D+01
0.877989370348D-04 0.000000000000D+00 -.111436032089D-05 0.271089932963D-05 0.000000000000D+00  6 1 -2 25 1 -2 21 2 0.17952286D+00 0.84660389D-01 0.30386296D+06 0.30386296D+06 0.30386296D+06 0.10841410D+01  1  2  3  3  6  4        1 0.159725550459D-03 0.100000000000D+01
-.176558348764D-03 0.000000000000D+00 0.000000000000D+00 0.271089932963D-05 0.000000000000D+00  6 1 -2 25 1 -2 21 2 0.17952286D+00 0.84660389D-01 0.30386296D+06 0.30386296D+06 0.30386296D+06 0.10841410D+01  1  2 15  3  6  4        1 -.321198415343D-03 0.100000000000D+01
-.995737520656D-05 0.000000000000D+00 0.000000000000D+00 0.271089932963D-05 0.000000000000D+00  6 1 -2 25 1 -2 21 2 0.17952286D+00 0.84660389D-01 0.30386296D+06 0.30386296D+06 0.30386296D+06 0.10841410D+01  1  2  4  3  6  4        1 -.181146525198D-04 0.100000000000D+01
  </mgrwgt>
  </event>
  <event>
  5     66 0.19854216E-05 0.14185695E+03 0.75467711E-02 0.91971493E-01
        1 -1    0    0  502    0 0.00000000E+00 0.00000000E+00 0.15039331E+04 0.15039331E+04 0.32000000E+00 0.0000E+00 0.9000E+01
       -2 -1    0    0    0  501 0.00000000E+00 0.00000000E+00 -.93347343E+03 0.93347348E+03 0.32000000E+00 0.0000E+00 0.9000E+01
       25  1    1    2    0    0 0.27487700E+03 0.39248695E+03 0.22449402E+03 0.54371494E+03 0.12500000E+03 0.0000E+00 0.9000E+01
        1  1    1    2  502    0 0.13417997E+03 -.46080996E+02 0.10215128E+04 0.10313178E+04 0.32000000E+00 0.0000E+00 0.9000E+01
       -2  1    1    2    0  501 -.40905697E+03 -.34640596E+03 -.67554719E+03 0.86237393E+03 0.32000000E+00 0.0000E+00 0.9000E+01
#aMCatNLO 1  0  0  1  4 0.78190493D+02 0.00000000D+00  -5  6  0 0.00000000D+00 0.00000000D+00 0.00000000D+00 0.00000000D+00 0.00000000D+00
  <mgrwgt>
 0.8913846409D-03   11    2    0
 0.118485514307027D+04 0.000000000000000D+00 0.000000000000000D+00 0.118485514307027D+04
 0.118485514307027D+04 0.000000000000000D+00 0.000000000000000D+00 -.118485514307027D+04
 0.505279628511124D+03 0.274934844739012D+03 0.392525835395151D+03 0.100083978158412D+03
 0.814783586289916D+03 0.134165543620908D+03 -.460760409301780D+02 0.802339639955901D+03
 0.104964707133950D+04 -.409100388359920D+03 -.346449794464973D+03 -.902423618114313D+03
 0.000000000000000D+00 -.000000000000000D+00 0.000000000000000D+00 0.000000000000000D+00
 0.216939920586559D+04 0.000000000000000D+00 0.000000000000000D+00 0.216939920586559D+04
 0.118705340715846D+04 0.000000000000000D+00 0.000000000000000D+00 -.118705340715846D+04
 0.501547249780404D+03 0.285677940838765D+03 0.379863074273344D+03 0.100083978158412D+03
 0.819250244645969D+03 0.151601095704876D+03 -.666271212720163D+02 0.802339639955901D+03
 0.105020241984602D+04 -.386694465986154D+03 -.372859391856482D+03 -.902423618114313D+03
 0.985452698751662D+03 -.505845705574861D+02 0.596234388551539D+02 0.982345798707122D+03
0.614890298562D-04 0.000000000000D+00 0.000000000000D+00 0.364913362399D-05 0.000000000000D+00  6 1 -2 25 1 -2 21 0 0.23137433D+00 0.14361130D+00 0.34410747D+06 0.34410747D+06 0.34410747D+06 0.10801717D+01  1  2  2  1  6  1        1 0.147499780397D-04 0.100000000000D+01
0.105250944166D-04 0.000000000000D+00 -.236134065081D-06 0.364913362399D-05 0.000000000000D+00  6 1 -2 25 1 -2 21 2 0.23137433D+00 0.14361130D+00 0.34410747D+06 0.34410747D+06 0.34410747D+06 0.10801717D+01  1  2  3  1  6  1        1 0.294581417449D-05 0.100000000000D+01
-.375046209369D-04 0.000000000000D+00 0.000000000000D+00 0.364913362399D-05 0.000000000000D+00  6 1 -2 25 1 -2 21 2 0.23137433D+00 0.14361130D+00 0.34410747D+06 0.34410747D+06 0.34410747D+06 0.10801717D+01  1  2 15  1  6  1        1 -.104969741450D-04 0.100000000000D+01
0.131285768495D-07 0.000000000000D+00 0.000000000000D+00 0.364913362399D-05 0.000000000000D+00  6 1 -2 25 1 -2 21 2 0.42367973D+00 0.14361130D+00 0.40476397D+06 0.40476397D+06 0.40476397D+06 0.10750571D+01  1  2 12  1  6  1        1 0.506882191801D-09 0.100000000000D+01
0.548015305109D-02 0.000000000000D+00 0.000000000000D+00 0.364913362399D-05 0.000000000000D+00  6 1 -2 25 1 -2 21 2 0.47094766D+00 0.14361130D+00 0.40476397D+06 0.40476397D+06 0.40476397D+06 0.10750571D+01  1  2 12  1  6  1        1 0.125688112247D-03 0.100000000000D+01
-.221938077598D-02 0.000000000000D+00 0.000000000000D+00 0.364913362399D-05 0.000000000000D+00  6 1 -2 25 1 -2 21 2 0.23137433D+00 0.14361130D+00 0.34410747D+06 0.34410747D+06 0.34410747D+06 0.10801717D+01  1  2  4  1  6  1        1 -.621170992838D-03 0.100000000000D+01
-.702077532438D-02 0.000000000000D+00 -.407005718116D-04 0.364913362399D-05 0.000000000000D+00  6 1 -2 25 1 -2 21 2 0.42379339D+00 0.14361130D+00 0.34410747D+06 0.34410747D+06 0.34410747D+06 0.10801717D+01  1  2  5  1  6  1        1 -.277584812134D-03 0.100000000000D+01
0.593193545037D-02 0.000000000000D+00 0.342367504315D-04 0.364913362399D-05 0.000000000000D+00  6 1 -2 25 1 -2 21 2 0.23137433D+00 0.14361130D+00 0.34410747D+06 0.34410747D+06 0.34410747D+06 0.10801717D+01  1  2  6  1  6  1        1 0.166025869605D-02 0.100000000000D+01
0.867955693784D-09 0.000000000000D+00 0.000000000000D+00 0.364913362399D-05 0.000000000000D+00  6 21 -2 25 1 -2 -1 2 0.42367973D+00 0.14361130D+00 0.40476397D+06 0.40476397D+06 0.40476397D+06 0.10750571D+01  1  2 12  5  6  1        1 0.908541457026D-11 0.100000000000D+01
0.421201394713D-03 0.000000000000D+00 0.000000000000D+00 0.364913362399D-05 0.000000000000D+00  6 21 -2 25 1 -2 -1 2 0.47094766D+00 0.14361130D+00 0.40476397D+06 0.40476397D+06 0.40476397D+06 0.10750571D+01  1  2 12  5  6  1        1 0.198604447612D-05 0.100000000000D+01
-.462119992648D-03 0.000000000000D+00 -.269184973891D-05 0.364913362399D-05 0.000000000000D+00  6 21 -2 25 1 -2 -1 2 0.42379339D+00 0.14361130D+00 0.34410747D+06 0.34410747D+06 0.34410747D+06 0.10801717D+01  1  2  5  5  6  1        1 -.499174093302D-05 0.100000000000D+01
  </mgrwgt>
  </event>
  <event>
  6     66 0.19854216E-05 0.46399781E+02 0.75467711E-02 0.90778911E-01
        1 -1    0    0  503    0 0.00000000E+00 0.00000000E+00 0.24485819E+04 0.24485819E+04 0.32000000E+00 0.0000E+00 0.9000E+01
       -2 -1    0    0    0  501 0.00000000E+00 0.00000000E+00 -.28655247E+03 0.28655264E+03 0.32000000E+00 0.0000E+00 0.9000E+01
       25  1    1    2    0    0 0.25812340E+03 0.62069113E+03 0.94161538E+03 0.11636794E+04 0.12500000E+03 0.0000E+00 0.9000E+01
        1  1    1    2  502    0 -.19567201E+03 -.64269793E+03 0.10954875E+04 0.12850841E+04 0.32000000E+00 0.0000E+00 0.9000E+01
       -2  1    1    2    0  501 -.95178528E+01 0.11676081E+02 -.76437475E+02 0.77908346E+02 0.32000000E+00 0.0000E+00 0.9000E+01
       21  1    1    2  503  502 -.52933536E+02 0.10330716E+02 0.20136400E+03 0.20846272E+03 0.75000000E+00 0.0000E+00 0.9000E+01
#aMCatNLO 2  0  0  1  1 0.53932207D+02 0.00000000D+00  -5  6  0 0.00000000D+00 0.00000000D+00 0.00000000D+00 0.00000000D+00 0.00000000D+00
  <mgrwgt>
 0.3862336187D-03    2    2    0
 0.796390762597953D+03 0.000000000000000D+00 0.000000000000000D+00 0.796390762597953D+03
 0.796390762597953D+03 0.000000000000000D+00 0.000000000000000D+00 -.796390762597953D+03
 0.682309142900627D+03 0.235380903806730D+03 0.625111303479486D+03 0.612572842288471D+02
 0.692367760039087D+03 -.218624716194679D+03 -.638200658963360D+03 0.155808432085920D+03
 0.218104622256192D+03 -.167561876120510D+02 0.130893554838740D+02 -.217065716314767D+03
 0.000000000000000D+00 -.000000000000000D+00 0.000000000000000D+00 0.000000000000000D+00
 0.869621091968202D+03 0.000000000000000D+00 0.000000000000000D+00 0.869621091968202D+03
 0.806839361928802D+03 0.000000000000000D+00 0.000000000000000D+00 -.806839361928802D+03
 0.686468233342686D+03 0.258118947107752D+03 0.620673657940725D+03 0.612572842288471D+02
 0.689638257357359D+03 -.195666919542546D+03 -.642681192426348D+03 0.155808432085920D+03
 0.217587855754099D+03 -.951849169241392D+01 0.116768184162170D+02 -.217065716314767D+03
 0.827661074428598D+02 -.529335358727921D+02 0.103307160694064D+02 0.627817300394004D+02
-.621490415707D-06 0.000000000000D+00 0.000000000000D+00 0.470487959071D-06 0.000000000000D+00  6 1 -2 25 1 -2 21 2 0.34498208D+00 0.43514017D-01 0.47294854D+06 0.47294854D+06 0.47294854D+06 0.10702218D+01  1  2  8  1  6  1        1 -.810190361057D-06 0.100000000000D+01
0.425285716144D-03 0.000000000000D+00 0.000000000000D+00 0.470487959071D-06 0.102274145236D-08  6 1 -2 25 1 -2 21 2 0.37670414D+00 0.44084918D-01 0.50732405D+06 0.50732405D+06 0.50732405D+06 0.10680643D+01  1  2  1  1  6  1        1 0.387043809034D-03 0.100000000000D+01
  </mgrwgt>
  </event>
  <event>
  5     66 0.19854216E-05 0.39772201E+02 0.75467711E-02 0.89530181E-01
        1 -1    0    0  502    0 0.00000000E+00 0.00000000E+00 0.14920058E+04 0.14920058E+04 0.32000000E+00 0.0000E+00 0.9000E+01
       -2 -1    0    0    0  501 0.00000000E+00 0.00000000E+00 -.64456924E+03 0.64456932E+03 0.32000000E+00 0.0000E+00 0.9000E+01
       25  1    1    2    0    0 0.27664349E+03 0.73261845E+03 0.22128420E+02 0.79333226E+03 0.12500000E+03 0.0000E+00 0.9000E+01
        1  1    1    2  502    0 0.32067212E+02 -.23568163E+02 0.50439332E+03 0.50596096E+03 0.32000000E+00 0.0000E+00 0.9000E+01
       -2  1    1    2    0  501 -.30871070E+03 -.70905028E+03 0.32091480E+03 0.83728192E+03 0.32000000E+00 0.0000E+00 0.9000E+01
#aMCatNLO 1  0  0  4  1 0.42440398D+01 0.00000000D+00  -5  6  0 0.00000000D+00 0.00000000D+00 0.00000000D+00 0.00000000D+00 0.00000000D+00
  <mgrwgt>
 0.1821210072D-04    9    2    0
 0.980663628162322D+03 0.000000000000000D+00 0.000000000000000D+00 0.980663628162322D+03
 0.980663628162322D+03 -.000000000000000D+00 -.000000000000000D+00 -.980663628162322D+03
 0.854735253493461D+03 0.276697848166181D+03 0.732727728374786D+03 -.318583945696360D+03
 0.333030752176929D+03 0.320476022616583D+02 -.235537509756178D+02 0.330647325559709D+03
 0.773561250654254D+03 -.308745450427840D+03 -.709173977399169D+03 -.120633798633491D+02
 0.000000000000000D+00 0.000000000000000D+00 0.000000000000000D+00 0.000000000000000D+00
 0.980663628162322D+03 0.000000000000000D+00 0.000000000000000D+00 0.980663628162322D+03
 0.980663628162322D+03 -.000000000000000D+00 -.000000000000000D+00 -.980663628162322D+03
 0.854685562318089D+03 0.276709818277734D+03 0.732718930804710D+03 -.318460445493775D+03
 0.297656880614939D+03 0.327148409577305D+02 -.199031284629980D+02 0.295183372221255D+03
 0.773562491381381D+03 -.308734616791319D+03 -.709181939703951D+03 -.119516051067772D+02
 0.354223220102353D+02 -.690042444145528D+00 -.363386263776098D+01 0.352286783792972D+02
0.129163212286D-05 0.000000000000D+00 0.000000000000D+00 0.194160626301D-06 0.000000000000D+00  6 1 -2 25 1 -2 21 0 0.22953936D+00 0.99164507D-01 0.64511650D+06 0.64511650D+06 0.64511650D+06 0.10607758D+01  1  2  2  3  6  4        1 0.784459228898D-06 0.100000000000D+01
0.578293103915D-06 0.000000000000D+00 -.496020744633D-08 0.194160626301D-06 0.000000000000D+00  6 1 -2 25 1 -2 21 2 0.22953936D+00 0.99164507D-01 0.64511650D+06 0.64511650D+06 0.64511650D+06 0.10607758D+01  1  2  3  3  6  4        1 0.395208915588D-06 0.100000000000D+01
-.882757063616D-06 0.000000000000D+00 0.000000000000D+00 0.194160626301D-06 0.000000000000D+00  6 1 -2 25 1 -2 21 2 0.22953936D+00 0.99164507D-01 0.64511650D+06 0.64511650D+06 0.64511650D+06 0.10607758D+01  1  2 15  3  6  4        1 -.603281380113D-06 0.100000000000D+01
0.317999390192D-08 0.000000000000D+00 0.000000000000D+00 0.194160626301D-06 0.000000000000D+00  6 1 -2 25 1 -2 21 2 0.22953936D+00 0.99164507D-01 0.64690014D+06 0.64690014D+06 0.64690014D+06 0.10606929D+01  1  2 12  3  6  4        1 0.217252873036D-08 0.100000000000D+01
0.757093927078D-05 0.000000000000D+00 0.000000000000D+00 0.194160626301D-06 0.000000000000D+00  6 1 -2 25 1 -2 21 2 0.22953936D+00 0.99164507D-01 0.64690014D+06 0.64690014D+06 0.64690014D+06 0.10606929D+01  1  2 12  3  6  4        1 0.517236308900D-05 0.100000000000D+01
-.222141769341D-03 0.000000000000D+00 0.000000000000D+00 0.194160626301D-06 0.000000000000D+00  6 1 -2 25 1 -2 21 2 0.22953936D+00 0.99164507D-01 0.64511650D+06 0.64511650D+06 0.64511650D+06 0.10607758D+01  1  2  4  3  6  4        1 -.151812994438D-03 0.100000000000D+01
-.221999301588D-03 0.000000000000D+00 0.000000000000D+00 0.194160626301D-06 0.000000000000D+00  6 1 -2 25 1 -2 21 2 0.22953936D+00 0.99164507D-01 0.64511650D+06 0.64511650D+06 0.64511650D+06 0.10607758D+01  1  2  5  3  6  4        1 -.151715631136D-03 0.100000000000D+01
0.258337723227D-03 0.000000000000D+00 -.000000000000D+00 0.194160626301D-06 0.000000000000D+00  6 1 -2 25 1 -2 21 2 0.22953936D+00 0.99164507D-01 0.64511650D+06 0.64511650D+06 0.64511650D+06 0.10607758D+01  1  2  6  3  6  4        1 0.176549522657D-03 0.100000000000D+01
0.204102821695D-03 0.000000000000D+00 0.000000000000D+00 0.194160626301D-06 0.673195164638D-07  6 1 -2 25 1 -2 21 2 0.22953936D+00 0.99164507D-01 0.64690014D+06 0.64690014D+06 0.64690014D+06 0.10606929D+01  1  2 11  3  6  4        1 0.139440281257D-03 0.100000000000D+01
  </mgrwgt>
  </event>
  <event>
  5     66 -.19854216E-05 0.73396623E+02 0.75467711E-02 0.91723712E-01
        1 -1    0    0  502    0 0.00000000E+00 0.00000000E+00 0.13531571E+04 0.13531571E+04 0.32000000E+00 0.0000E+00 0.9000E+01
       -2 -1    0    0    0  501 0.00000000E+00 0.00000000E+00 -.51448858E+03 0.51448868E+03 0.32000000E+00 0.0000E+00 0.9000E+01
       25  1    1    2    0    0 0.19411739E+03 0.56067663E+03 0.59620982E+03 0.85037109E+03 0.12500000E+03 0.0000E+00 0.9000E+01
        1  1    1    2  502    0 -.57627921E+02 0.45563682E+02 0.37479284E+03 0.38192512E+03 0.32000000E+00 0.0000E+00 0.9000E+01
       -2  1    1    2    0  501 -.13648947E+03 -.60624031E+03 -.13233413E+03 0.63534960E+03 0.32000000E+00 0.0000E+00 0.9000E+01
#aMCatNLO 1  0  0  4  1 0.12325539D+02 0.00000000D+00  -5  6  0 0.00000000D+00 0.00000000D+00 0.00000000D+00 0.00000000D+00 0.00000000D+00
  <mgrwgt>
 -.6813987437D-03    8    2    0
 0.834376414160662D+03 0.000000000000000D+00 0.000000000000000D+00 0.834376414160662D+03
 0.834376414160662D+03 -.000000000000000D+00 -.000000000000000D+00 -.834376414160662D+03
 0.652259050703712D+03 0.194106409328567D+03 0.560819970446679D+03 0.240042770836081D+03
 0.238864106512068D+03 -.575747101509349D+02 0.455216107860680D+02 0.227308154456205D+03
 0.777629671105544D+03 -.136531699177632D+03 -.606341581232747D+03 -.467350925292286D+03
 0.000000000000000D+00 0.000000000000000D+00 0.000000000000000D+00 0.000000000000000D+00
 0.834376414160662D+03 0.000000000000000D+00 0.000000000000000D+00 0.834376414160662D+03
 0.834376414160662D+03 -.000000000000000D+00 -.000000000000000D+00 -.834376414160662D+03
 0.652484340751242D+03 0.193983734188090D+03 0.560916963900633D+03 0.240527099106366D+03
 0.102438595662228D+03 -.364046146930657D+02 0.201010539710477D+02 0.936179338564562D+02
 0.777218465279433D+03 -.136677889773270D+03 -.606225995216287D+03 -.466773756698537D+03
 0.136611426628421D+03 -.209012297217540D+02 0.252079773446059D+02 0.132628723735715D+03
0.146986733419D-04 0.000000000000D+00 0.000000000000D+00 0.287749739534D-06 0.000000000000D+00  6 1 -2 25 1 -2 21 0 0.20817803D+00 0.79152099D-01 0.42341213D+06 0.42341213D+06 0.42341213D+06 0.10736513D+01  1  2  2  3  6  4        1 0.192716981610D-04 0.100000000000D+01
0.294703449965D-05 0.000000000000D+00 -.564467758823D-07 0.287749739534D-06 0.000000000000D+00  6 1 -2 25 1 -2 21 2 0.20817803D+00 0.79152099D-01 0.42341213D+06 0.42341213D+06 0.42341213D+06 0.10736513D+01  1  2  3  3  6  4        1 0.445403449853D-05 0.100000000000D+01
-.911117233879D-05 0.000000000000D+00 0.000000000000D+00 0.287749739534D-06 0.000000000000D+00  6 1 -2 25 1 -2 21 2 0.20817803D+00 0.79152099D-01 0.42341213D+06 0.42341213D+06 0.42341213D+06 0.10736513D+01  1  2 15  3  6  4        1 -.137702751440D-04 0.100000000000D+01
0.339787047705D-07 0.000000000000D+00 0.000000000000D+00 0.287749739534D-06 0.000000000000D+00  6 1 -2 25 1 -2 21 2 0.20817803D+00 0.79152099D-01 0.42400101D+06 0.42400101D+06 0.42400101D+06 0.10736080D+01  1  2 12  3  6  4        1 0.513461274183D-07 0.100000000000D+01
0.139037692592D-03 0.000000000000D+00 0.000000000000D+00 0.287749739534D-06 0.000000000000D+00  6 1 -2 25 1 -2 21 2 0.20817803D+00 0.79152099D-01 0.42400101D+06 0.42400101D+06 0.42400101D+06 0.10736080D+01  1  2 12  3  6  4        1 0.210103567161D-03 0.100000000000D+01
-.771045785949D-03 0.000000000000D+00 0.000000000000D+00 0.287749739534D-06 0.000000000000D+00  6 1 -2 25 1 -2 21 2 0.20817803D+00 0.79152099D-01 0.42341213D+06 0.42341213D+06 0.42341213D+06 0.10736513D+01  1  2  4  3  6  4        1 -.116532891996D-02 0.100000000000D+01
-.141994469001D-03 0.000000000000D+00 0.000000000000D+00 0.287749739534D-06 0.000000000000D+00  6 1 -2 25 1 -2 21 2 0.20817803D+00 0.79152099D-01 0.42341213D+06 0.42341213D+06 0.42341213D+06 0.10736513D+01  1  2  5  3  6  4        1 -.214604974461D-03 0.100000000000D+01
0.316552180376D-03 0.000000000000D+00 -.000000000000D+00 0.287749739534D-06 0.000000000000D+00  6 1 -2 25 1 -2 21 2 0.20817803D+00 0.79152099D-01 0.42341213D+06 0.42341213D+06 0.42341213D+06 0.10736513D+01  1  2  6  3  6  4        1 0.478424779943D-03 0.100000000000D+01
  </mgrwgt>
  </event>
  <event>
  5     66 0.19854216E-05 0.40759111E+02 0.75467711E-02 0.95089840E-01
        1 -1    0    0  502    0 0.00000000E+00 0.00000000E+00 0.37888517E+03 0.37888530E+03 0.32000000E+00 0.0000E+00 0.9000E+01
       -2 -1    0    0    0  501 -.00000000E+00 -.00000000E+00 -.19746623E+04 0.19746623E+04 0.32000000E+00 0.0000E+00 0.9000E+01
       25  1    1    2    0    0 -.33175372E+03 0.33382234E+03 -.51381130E+03 0.70790179E+03 0.12500000E+03 0.0000E+00 0.9000E+01
        1  1    1    2  502    0 0.28696348E+02 -.28954719E+02 0.24624884E+03 0.24960058E+03 0.32000000E+00 0.0000E+00 0.9000E+01
       -2  1    1    2    0  501 0.30305737E+03 -.30486762E+03 -.13282146E+04 0.13960452E+04 0.32000000E+00 0.0000E+00 0.9000E+01
#aMCatNLO 1  0  0  5  2 0.25054310D+02 0.00000000D+00  -5  6  0 0.00000000D+00 0.00000000D+00 0.00000000D+00 0.00000000D+00 0.00000000D+00
  <mgrwgt>
 0.8128895686D-04    8    2    0
 0.864968453011181D+03 0.000000000000000D+00 0.000000000000000D+00 0.864968453011181D+03
 0.864968453011181D+03 -.000000000000000D+00 -.000000000000000D+00 -.864968453011181D+03
 0.489179479308037D+03 -.331800631594550D+03 0.333869527271465D+03 -.459460837185104D+02
 0.566634774963714D+03 0.286915902848010D+02 -.289499189463388D+02 0.565166933779842D+03
 0.674122651750611D+03 0.303109041309749D+03 -.304919608325126D+03 -.519220850061332D+03
 0.000000000000000D+00 0.000000000000000D+00 0.000000000000000D+00 0.000000000000000D+00
 0.864968453011181D+03 0.000000000000000D+00 0.000000000000000D+00 0.864968453011181D+03
 0.864968453011181D+03 -.000000000000000D+00 -.000000000000000D+00 -.864968453011181D+03
 0.488873587776584D+03 -.331546371427607D+03 0.333613748327419D+03 -.463816272425392D+02
 0.566161856434797D+03 0.289860784575856D+02 -.292461661909405D+02 0.564662480337129D+03
 0.425301047027446D+03 0.171864280220751D+03 -.208252781028826D+03 -.328594627132893D+03
 0.249600414783535D+03 0.130696012749270D+03 -.961148011076524D+02 -.189686225961696D+03
0.665003560024D-04 0.000000000000D+00 0.000000000000D+00 0.167155166620D-04 0.000000000000D+00  6 1 -2 25 1 -2 21 0 0.58290038D-01 0.30379421D+00 0.22930650D+06 0.22930650D+06 0.22930650D+06 0.10932933D+01  1  2  2  4  6  5       -2 0.128658369390D-04 0.100000000000D+01
0.309153264978D-04 0.000000000000D+00 -.255378876995D-06 0.167155166620D-04 0.000000000000D+00  6 1 -2 25 1 -2 21 2 0.58290038D-01 0.30379421D+00 0.22930650D+06 0.22930650D+06 0.22930650D+06 0.10932933D+01  1  2  3  4  6  5       -2 0.714926284308D-05 0.100000000000D+01
-.455438191657D-04 0.000000000000D+00 0.000000000000D+00 0.167155166620D-04 0.000000000000D+00  6 1 -2 25 1 -2 21 2 0.58290038D-01 0.30379421D+00 0.22930650D+06 0.22930650D+06 0.22930650D+06 0.10932933D+01  1  2 15  4  6  5       -2 -.105321460576D-04 0.100000000000D+01
0.529296695601D-08 0.000000000000D+00 0.000000000000D+00 0.167155166620D-04 0.000000000000D+00  6 1 -2 25 1 -2 21 2 0.58290038D-01 0.30379421D+00 0.23044331D+06 0.23044331D+06 0.23044331D+06 0.10931304D+01  1  2 12  4  6  5       -2 0.122324207393D-08 0.100000000000D+01
0.263456036401D-02 0.000000000000D+00 0.000000000000D+00 0.167155166620D-04 0.000000000000D+00  6 1 -2 25 1 -2 21 2 0.58290038D-01 0.30379421D+00 0.23044331D+06 0.23044331D+06 0.23044331D+06 0.10931304D+01  1  2 12  4  6  5       -2 0.608865521049D-03 0.100000000000D+01
-.347025519930D-02 0.000000000000D+00 0.000000000000D+00 0.167155166620D-04 0.000000000000D+00  6 1 -2 25 1 -2 21 2 0.58290038D-01 0.30379421D+00 0.22930650D+06 0.22930650D+06 0.22930650D+06 0.10932933D+01  1  2  4  4  6  5       -2 -.802507020397D-03 0.100000000000D+01
-.265661137907D-02 0.000000000000D+00 0.000000000000D+00 0.167155166620D-04 0.000000000000D+00  6 1 -2 25 1 -2 21 2 0.58290038D-01 0.30379421D+00 0.22930650D+06 0.22930650D+06 0.22930650D+06 0.10932933D+01  1  2  5  4  6  5       -2 -.614349423812D-03 0.100000000000D+01
0.380447215443D-02 0.000000000000D+00 -.000000000000D+00 0.167155166620D-04 0.000000000000D+00  6 1 -2 25 1 -2 21 2 0.58290038D-01 0.30379421D+00 0.22930650D+06 0.22930650D+06 0.22930650D+06 0.10932933D+01  1  2  6  4  6  5       -2 0.879795703053D-03 0.100000000000D+01
  </mgrwgt>
  </event>
  <event>
  5     66 0.19854216E-05 0.16282781E+03 0.75467711E-02 0.91493892E-01
        1 -1    0    0  502    0 0.00000000E+00 0.00000000E+00 0.19038029E+04 0.19038029E+04 0.32000000E+00 0.0000E+00 0.9000E+01
       -2 -1    0    0    0  501 0.00000000E+00 0.00000000E+00 -.91579328E+03 0.91579334E+03 0.32000000E+00 0.0000E+00 0.9000E+01
       25  1    1    2    0    0 -.47304658E+03 -.32733362E+03 -.30068597E+03 0.66102755E+03 0.12500000E+03 0.0000E+00 0.9000E+01
        1  1    1    2  502    0 0.38059675E+03 0.19330835E+03 0.16807173E+04 0.17340798E+04 0.32000000E+00 0.0000E+00 0.9000E+01
       -2  1    1    2    0  501 0.92449825E+02 0.13402527E+03 -.39202170E+03 0.42448894E+03 0.32000000E+00 0.0000E+00 0.9000E+01
#aMCatNLO 1  0  0  2  1 0.18300368D+03 0.00000000D+00  -5  6  0 0.00000000D+00 0.00000000D+00 0.00000000D+00 0.00000000D+00 0.00000000D+00
  <mgrwgt>
 0.4112058955D-03    7    4    0
 0.132041281611131D+04 0.000000000000000D+00 0.000000000000000D+00 0.132041281611131D+04
 0.132041281611131D+04 0.000000000000000D+00 0.000000000000000D+00 -.132041281611131D+04
 0.818249499823756D+03 -.473050062830115D+03 -.327339645173621D+03 -.568312976022771D+03
 0.122265411194103D+04 0.380593973738358D+03 0.193306939444626D+03 0.114571537991026D+04
 0.599922020457846D+03 0.924560890917566D+02 0.134032705728995D+03 -.577402403887484D+03
 0.000000000000000D+00 0.000000000000000D+00 0.000000000000000D+00 -.000000000000000D+00
 0.134552075295387D+04 0.000000000000000D+00 0.000000000000000D+00 0.134552075295387D+04
 0.170516989838362D+04 0.000000000000000D+00 0.000000000000000D+00 -.170516989838362D+04
 0.843684759131858D+03 -.474446031042195D+03 -.384838014889162D+03 -.568312976022771D+03
 0.121155435225678D+04 0.378549321478929D+03 0.109089999162583D+03 0.114571537991026D+04
 0.591919812291898D+03 0.914549825176663D+02 0.927982453569243D+02 -.577402403887484D+03
 0.403531727656949D+03 0.444172704560029D+01 0.182949770369654D+03 -.359649145429744D+03
 0.132041281611131D+04 0.000000000000000D+00 0.000000000000000D+00 0.132041281611131D+04
 0.132041281611131D+04 0.000000000000000D+00 0.000000000000000D+00 -.132041281611131D+04
 0.818249499823756D+03 -.473050062830115D+03 -.327339645173621D+03 -.568312976022771D+03
 0.122265411194103D+04 0.380593973738358D+03 0.193306939444626D+03 0.114571537991026D+04
 0.000000000000000D+00 0.000000000000000D+00 0.000000000000000D+00 -.000000000000000D+00
 0.599922020457846D+03 0.924560890917566D+02 0.134032705728995D+03 -.577402403887484D+03
 0.134552075295387D+04 0.000000000000000D+00 0.000000000000000D+00 0.134552075295387D+04
 0.170516989838362D+04 0.000000000000000D+00 0.000000000000000D+00 -.170516989838362D+04
 0.843684759131858D+03 -.474446031042195D+03 -.384838014889162D+03 -.568312976022771D+03
 0.121155435225678D+04 0.378549321478929D+03 0.109089999162583D+03 0.114571537991026D+04
 0.403531727656949D+03 0.444172704560029D+01 0.182949770369654D+03 -.359649145429744D+03
 0.591919812291898D+03 0.914549825176663D+02 0.927982453569243D+02 -.577402403887484D+03
0.719958246144D-03 0.000000000000D+00 0.000000000000D+00 0.350973118902D-05 0.000000000000D+00  6 1 -2 25 1 -2 21 0 0.29289276D+00 0.14089128D+00 0.34714873D+06 0.34714873D+06 0.34714873D+06 0.10798926D+01  1  2  2  2  6  2       -2 0.983171036358D-04 0.100000000000D+01
0.700510296079D-04 0.000000000000D+00 -.276482923455D-05 0.350973118902D-05 0.000000000000D+00  6 1 -2 25 1 -2 21 2 0.29289276D+00 0.14089128D+00 0.34714873D+06 0.34714873D+06 0.34714873D+06 0.10798926D+01  1  2  3  2  6  2       -2 0.111557153297D-04 0.100000000000D+01
-.483352663378D-03 0.000000000000D+00 0.000000000000D+00 0.350973118902D-05 0.000000000000D+00  6 1 -2 25 1 -2 21 2 0.29289276D+00 0.14089128D+00 0.34714873D+06 0.34714873D+06 0.34714873D+06 0.10798926D+01  1  2 15  2  6  2       -2 -.769745248099D-04 0.100000000000D+01
-.303247235537D-03 0.000000000000D+00 0.000000000000D+00 0.350973118902D-05 0.000000000000D+00  6 1 -2 25 1 -2 21 2 0.29289276D+00 0.14089128D+00 0.34714873D+06 0.34714873D+06 0.34714873D+06 0.10798926D+01  1  2  4  2  6  2       -2 -.482925069498D-04 0.100000000000D+01
-.660418709336D-02 0.000000000000D+00 -.859665668643D-03 0.350973118902D-05 0.000000000000D+00  6 1 -2 25 1 -2 21 2 0.29289276D+00 0.18337173D+00 0.34714873D+06 0.34714873D+06 0.34714873D+06 0.10798926D+01  1  2  5  2  6  2       -2 -.497183696683D-03 0.100000000000D+01
0.662825318426D-02 0.000000000000D+00 0.830655344570D-03 0.350973118902D-05 0.000000000000D+00  6 1 -2 25 1 -2 21 2 0.29289276D+00 0.14089128D+00 0.34714873D+06 0.34714873D+06 0.34714873D+06 0.10798926D+01  1  2  6  2  6  2       -2 0.105555772800D-02 0.100000000000D+01
-.216635359458D-03 0.000000000000D+00 -.302426173835D-04 0.350973118902D-05 0.000000000000D+00  6 1 21 25 1 2 -2 2 0.29289276D+00 0.18337173D+00 0.34714873D+06 0.34714873D+06 0.34714873D+06 0.10798926D+01  3  4  5  6  5  2       -2 -.131373923020D-03 0.100000000000D+01
  </mgrwgt>
  </event>
  <event>
  5     66 -.19854216E-05 0.11657433E+03 0.75467711E-02 0.93153195E-01
        1 -1    0    0  502    0 0.00000000E+00 0.00000000E+00 0.15102796E+04 0.15102796E+04 0.32000000E+00 0.0000E+00 0.9000E+01
       -2 -1    0    0    0  501 0.00000000E+00 0.00000000E+00 -.45749043E+03 0.45749055E+03 0.32000000E+00 0.0000E+00 0.9000E+01
       25  1    1    2    0    0 0.48773492E+03 -.89790100E+02 0.36326401E+03 0.62732237E+03 0.12500000E+03 0.0000E+00 0.9000E+01
        1  1    1    2  502    0 0.23637828E+02 0.11418700E+03 0.80684081E+03 0.81522366E+03 0.32000000E+00 0.0000E+00 0.9000E+01
       -2  1    1    2    0  501 -.51137275E+03 -.24396902E+02 -.11731569E+03 0.52522411E+03 0.32000000E+00 0.0000E+00 0.9000E+01
#aMCatNLO 1  0  0  5  2 0.15876876D+02 0.00000000D+00  -5  6  0 0.00000000D+00 0.00000000D+00 0.00000000D+00 0.00000000D+00 0.00000000D+00
  <mgrwgt>
 -.9781074446D-03    8    2    0
 0.831227161896864D+03 0.000000000000000D+00 0.000000000000000D+00 0.831227161896864D+03
 0.831227161896864D+03 -.000000000000000D+00 -.000000000000000D+00 -.831227161896864D+03
 0.512578794392613D+03 0.487829642827293D+03 -.897682172980537D+02 0.328013292887690D+02
 0.453860073965427D+03 0.236310092752717D+02 0.114154064240787D+03 0.438633550652302D+03
 0.696015455435687D+03 -.511460652102565D+03 -.243858469427335D+02 -.471434879941071D+03
 0.000000000000000D+00 0.000000000000000D+00 0.000000000000000D+00 -.000000000000000D+00
 0.831227161896864D+03 0.000000000000000D+00 0.000000000000000D+00 0.831227161896864D+03
 0.831227161896864D+03 -.000000000000000D+00 -.000000000000000D+00 -.831227161896864D+03
 0.511915489965052D+03 0.487167532404956D+03 -.897997859502108D+02 0.321910341542770D+02
 0.453300604732847D+03 0.230447292449470D+02 0.114126111093216D+03 0.438093151592136D+03
 0.649666175030253D+03 -.483452503822890D+03 -.353787894218355D+02 -.432536884883664D+03
 0.475720540655763D+02 -.267597578270127D+02 0.110524642788303D+02 -.377473008627495D+02
0.417921730583D-04 0.000000000000D+00 0.000000000000D+00 0.654271952545D-06 0.000000000000D+00  6 1 -2 25 1 -2 21 0 0.23235071D+00 0.70383155D-01 0.32498220D+06 0.32498220D+06 0.32498220D+06 0.10819911D+01  1  2  2  4  6  5       -2 0.563128358047D-04 0.100000000000D+01
0.675639841236D-05 0.000000000000D+00 -.160492948676D-06 0.654271952545D-06 0.000000000000D+00  6 1 -2 25 1 -2 21 2 0.23235071D+00 0.70383155D-01 0.32498220D+06 0.32498220D+06 0.32498220D+06 0.10819911D+01  1  2  3  4  6  5       -2 0.106579840655D-04 0.100000000000D+01
-.303109712056D-04 0.000000000000D+00 0.000000000000D+00 0.654271952545D-06 0.000000000000D+00  6 1 -2 25 1 -2 21 2 0.23235071D+00 0.70383155D-01 0.32498220D+06 0.32498220D+06 0.32498220D+06 0.10819911D+01  1  2 15  4  6  5       -2 -.478145053625D-04 0.100000000000D+01
0.954149667823D-07 0.000000000000D+00 0.000000000000D+00 0.654271952545D-06 0.000000000000D+00  6 1 -2 25 1 -2 21 2 0.23235071D+00 0.70383155D-01 0.32548709D+06 0.32548709D+06 0.32548709D+06 0.10819416D+01  1  2 12  4  6  5       -2 0.150487294361D-06 0.100000000000D+01
0.142495457965D-02 0.000000000000D+00 0.000000000000D+00 0.654271952545D-06 0.000000000000D+00  6 1 -2 25 1 -2 21 2 0.23235071D+00 0.70383155D-01 0.32548709D+06 0.32548709D+06 0.32548709D+06 0.10819416D+01  1  2 12  4  6  5       -2 0.224742057259D-02 0.100000000000D+01
-.220937779662D-02 0.000000000000D+00 0.000000000000D+00 0.654271952545D-06 0.000000000000D+00  6 1 -2 25 1 -2 21 2 0.23235071D+00 0.70383155D-01 0.32498220D+06 0.32498220D+06 0.32498220D+06 0.10819911D+01  1  2  4  4  6  5       -2 -.348521681432D-02 0.100000000000D+01
-.215601183048D-02 0.000000000000D+00 0.000000000000D+00 0.654271952545D-06 0.000000000000D+00  6 1 -2 25 1 -2 21 2 0.23235071D+00 0.70383155D-01 0.32498220D+06 0.32498220D+06 0.32498220D+06 0.10819911D+01  1  2  5  4  6  5       -2 -.340103385440D-02 0.100000000000D+01
0.230839679575D-02 0.000000000000D+00 -.000000000000D+00 0.654271952545D-06 0.000000000000D+00  6 1 -2 25 1 -2 21 2 0.23235071D+00 0.70383155D-01 0.32498220D+06 0.32498220D+06 0.32498220D+06 0.10819911D+01  1  2  6  4  6  5       -2 0.364141584975D-02 0.100000000000D+01
  </mgrwgt>
  </event>
  <event>
  5     66 0.19854216E-05 0.17660269E+03 0.75467711E-02 0.90370005E-01
        1 -1    0    0  502    0 0.00000000E+00 0.00000000E+00 0.36994018E+04 0.36994018E+04 0.32000000E+00 0.0000E+00 0.9000E+01
       -2 -1    0    0    0  501 0.00000000E+00 0.00000000E+00 -.63473598E+03 0.63473606E+03 0.32000000E+00 0.0000E+00 0.9000E+01
       25  1    1    2    0    0 0.31197416E+03 0.34748212E+03 0.61676437E+03 0.78364213E+03 0.12500000E+03 0.0000E+00 0.9000E+01
        1  1    1    2  502    0 -.10540695E+03 0.14170744E+03 0.28679795E+04 0.28734122E+04 0.32000000E+00 0.0000E+00 0.9000E+01
       -2  1    1    2    0  501 -.20656721E+03 -.48918956E+03 -.42007801E+03 0.67708351E+03 0.32000000E+00 0.0000E+00 0.9000E+01
#aMCatNLO 1  0  0  1  2 0.16842515D+02 0.00000000D+00  -5  6  0 0.00000000D+00 0.00000000D+00 0.00000000D+00 0.00000000D+00 0.00000000D+00
  <mgrwgt>
 0.5275727368D-03    7    2    0
 0.153236537521565D+04 0.000000000000000D+00 0.000000000000000D+00 0.153236537521565D+04
 0.153236537521565D+04 0.000000000000000D+00 0.000000000000000D+00 -.153236537521565D+04
 0.491526783709284D+03 0.311989769467779D+03 0.347530192418677D+03 0.886494681793016D+02
 0.119559710745272D+04 -.105401686111181D+03 0.141700367390219D+03 0.118248210717783D+04
 0.137760685926928D+04 -.206588083356598D+03 -.489230559808896D+03 -.127113157535713D+04
 0.000000000000000D+00 0.000000000000000D+00 -.000000000000000D+00 0.000000000000000D+00
 0.165354743680953D+04 0.000000000000000D+00 0.000000000000000D+00 0.165354743680953D+04
 0.164634453323664D+04 0.000000000000000D+00 0.000000000000000D+00 -.164634453323664D+04
 0.493628063656134D+03 0.285456646247546D+03 0.372423737338981D+03 0.886494681793016D+02
 0.121171913281515D+04 -.170237806649908D+03 0.202530027950431D+03 0.118248210717783D+04
 0.136775487609607D+04 -.280528765274131D+03 -.419858941870289D+03 -.127113157535713D+04
 0.226789897478828D+03 0.165309925676493D+03 -.155094823419124D+03 0.720290357288877D+01
0.886986262958D-02 0.000000000000D+00 0.000000000000D+00 0.841776382676D-05 0.000000000000D+00  6 1 -2 25 1 -2 21 0 0.56913875D+00 0.97651697D-01 0.35469744D+06 0.35469744D+06 0.35469744D+06 0.10792112D+01  1  2  2  1  6  1        1 0.146694553053D-03 0.100000000000D+01
0.137174083989D-02 0.000000000000D+00 -.340626079861D-04 0.841776382676D-05 0.000000000000D+00  6 1 -2 25 1 -2 21 2 0.56913875D+00 0.97651697D-01 0.35469744D+06 0.35469744D+06 0.35469744D+06 0.10792112D+01  1  2  3  1  6  1        1 0.264229931450D-04 0.100000000000D+01
-.636689176993D-02 0.000000000000D+00 0.000000000000D+00 0.841776382676D-05 0.000000000000D+00  6 1 -2 25 1 -2 21 2 0.56913875D+00 0.97651697D-01 0.35469744D+06 0.35469744D+06 0.35469744D+06 0.10792112D+01  1  2 15  1  6  1        1 -.122641487881D-03 0.100000000000D+01
-.301279652677D-03 0.000000000000D+00 0.000000000000D+00 0.841776382676D-05 0.000000000000D+00  6 1 -2 25 1 -2 21 2 0.56913875D+00 0.97651697D-01 0.35469744D+06 0.35469744D+06 0.35469744D+06 0.10792112D+01  1  2  4  1  6  1        1 -.580336311781D-05 0.100000000000D+01
-.453295519461D-01 0.000000000000D+00 -.142054076134D-01 0.841776382676D-05 0.000000000000D+00  6 1 -2 25 1 -2 21 2 0.62465118D+00 0.97651697D-01 0.35469744D+06 0.35469744D+06 0.35469744D+06 0.10792112D+01  1  2  5  1  6  1        1 -.412415246714D-03 0.100000000000D+01
0.465036859346D-01 0.000000000000D+00 0.145782742765D-01 0.841776382676D-05 0.000000000000D+00  6 1 -2 25 1 -2 21 2 0.56913875D+00 0.97651697D-01 0.35469744D+06 0.35469744D+06 0.35469744D+06 0.10792112D+01  1  2  6  1  6  1        1 0.895771663958D-03 0.100000000000D+01
-.650796635581D-03 0.000000000000D+00 -.216781529417D-03 0.841776382676D-05 0.000000000000D+00  6 21 -2 25 1 -2 -1 2 0.62465118D+00 0.97651697D-01 0.35469744D+06 0.35469744D+06 0.35469744D+06 0.10792112D+01  1  2  5  5  6  1        1 -.456375611695D-06 0.100000000000D+01
  </mgrwgt>
  </event>
  <event>
  5     66 -.19854216E-05 0.59275040E+02 0.75467711E-02 0.92020387E-01
        1 -1    0    0  502    0 0.00000000E+00 0.00000000E+00 0.11476899E+04 0.11476899E+04 0.32000000E+00 0.0000E+00 0.9000E+01
       -2 -1    0    0    0  501 0.00000000E+00 0.00000000E+00 -.42504354E+03 0.42504366E+03 0.32000000E+00 0.0000E+00 0.9000E+01
       25  1    1    2    0    0 -.50076807E+03 -.27973729E+03 0.83226454E+02 0.59293613E+03 0.12500000E+03 0.0000E+00 0.9000E+01
        1  1    1    2  502    0 0.51374741E+03 0.22189672E+03 0.69922230E+03 0.89559282E+03 0.32000000E+00 0.0000E+00 0.9000E+01
       -2  1    1    2    0  501 -.12979341E+02 0.57840573E+02 -.59802397E+02 0.84204657E+02 0.32000000E+00 0.0000E+00 0.9000E+01
#aMCatNLO 1  0  0  2  1 0.57391130D+02 0.00000000D+00  -5  6  0 0.00000000D+00 0.00000000D+00 0.00000000D+00 0.00000000D+00 0.00000000D+00
  <mgrwgt>
 -.4129501377D-04    9    4    0
 0.698439910673049D+03 0.000000000000000D+00 0.000000000000000D+00 0.698439910673049D+03
 0.698439910673049D+03 0.000000000000000D+00 0.000000000000000D+00 -.698439910673049D+03
 0.624533462152995D+03 -.500772554882464D+03 -.279735181236093D+03 -.213054270091231D+03
 0.646616808372713D+03 0.513751745254273D+03 0.221898592635458D+03 0.323934338569880D+03
 0.125729550820388D+03 -.129791903718096D+02 0.578365886006349D+02 -.110880068478649D+03
 0.000000000000000D+00 -.000000000000000D+00 -.000000000000000D+00 -.000000000000000D+00
 0.701392138956386D+03 0.000000000000000D+00 0.000000000000000D+00 0.701392138956386D+03
 0.104750025108051D+04 0.000000000000000D+00 0.000000000000000D+00 -.104750025108051D+04
 0.602494556279364D+03 -.476167313867697D+03 -.274312335752847D+03 -.213054270091231D+03
 0.669737433035360D+03 0.540148219404910D+03 0.227716215008491D+03 0.323934338569880D+03
 0.125826298831747D+03 -.793481305003249D+01 0.589483386850485D+02 -.110880068478649D+03
 0.350834101890429D+03 -.560460924871805D+02 -.123522179406920D+02 -.346108112124128D+03
 0.698439910673049D+03 0.000000000000000D+00 0.000000000000000D+00 0.698439910673049D+03
 0.698439910673049D+03 0.000000000000000D+00 0.000000000000000D+00 -.698439910673049D+03
 0.624533462152995D+03 -.500772554882464D+03 -.279735181236093D+03 -.213054270091231D+03
 0.646616808372713D+03 0.513751745254273D+03 0.221898592635458D+03 0.323934338569880D+03
 0.000000000000000D+00 -.000000000000000D+00 -.000000000000000D+00 -.000000000000000D+00
 0.125729550820388D+03 -.129791903718096D+02 0.578365886006349D+02 -.110880068478649D+03
 0.701392138956386D+03 0.000000000000000D+00 0.000000000000000D+00 0.701392138956386D+03
 0.104750025108051D+04 0.000000000000000D+00 0.000000000000000D+00 -.104750025108051D+04
 0.602494556279364D+03 -.476167313867697D+03 -.274312335752847D+03 -.213054270091231D+03
 0.669737433035360D+03 0.540148219404910D+03 0.227716215008491D+03 0.323934338569880D+03
 0.350834101890429D+03 -.560460924871805D+02 -.123522179406920D+02 -.346108112124128D+03
 0.125826298831747D+03 -.793481305003249D+01 0.589483386850485D+02 -.110880068478649D+03
0.306398394879D-05 0.000000000000D+00 0.000000000000D+00 0.906552825439D-07 0.000000000000D+00  6 1 -2 25 1 -2 21 0 0.17656769D+00 0.65391327D-01 0.36359013D+06 0.36359013D+06 0.36359013D+06 0.10784284D+01  1  2  2  2  6  2       -2 0.858458830047D-05 0.100000000000D+01
0.580079625123D-06 0.000000000000D+00 -.117665051289D-07 0.906552825439D-07 0.000000000000D+00  6 1 -2 25 1 -2 21 2 0.17656769D+00 0.65391327D-01 0.36359013D+06 0.36359013D+06 0.36359013D+06 0.10784284D+01  1  2  3  2  6  2       -2 0.189018018514D-05 0.100000000000D+01
-.224596708590D-05 0.000000000000D+00 0.000000000000D+00 0.906552825439D-07 0.000000000000D+00  6 1 -2 25 1 -2 21 2 0.17656769D+00 0.65391327D-01 0.36359013D+06 0.36359013D+06 0.36359013D+06 0.10784284D+01  1  2 15  2  6  2       -2 -.731844784473D-05 0.100000000000D+01
0.492141093456D-06 0.000000000000D+00 0.000000000000D+00 0.906552825439D-07 0.000000000000D+00  6 1 -2 25 1 -2 21 2 0.17656769D+00 0.98154999D-01 0.40108445D+06 0.40108445D+06 0.40108445D+06 0.10753429D+01  1  2 12  2  6  2       -2 0.633526221684D-06 0.100000000000D+01
-.663507553823D-04 0.000000000000D+00 0.000000000000D+00 0.906552825439D-07 0.000000000000D+00  6 1 -2 25 1 -2 21 2 0.17656769D+00 0.65391327D-01 0.36359013D+06 0.36359013D+06 0.36359013D+06 0.10784284D+01  1  2  4  2  6  2       -2 -.216202875711D-03 0.100000000000D+01
-.146145104923D-03 0.000000000000D+00 -.288870072585D-05 0.906552825439D-07 0.000000000000D+00  6 1 -2 25 1 -2 21 2 0.17656769D+00 0.98230041D-01 0.36359013D+06 0.36359013D+06 0.36359013D+06 0.10784284D+01  1  2  5  2  6  2       -2 -.189854011934D-03 0.100000000000D+01
0.136118284600D-03 0.000000000000D+00 0.266499636766D-05 0.906552825439D-07 0.000000000000D+00  6 1 -2 25 1 -2 21 2 0.17656769D+00 0.65391327D-01 0.36359013D+06 0.36359013D+06 0.36359013D+06 0.10784284D+01  1  2  6  2  6  2       -2 0.443539254343D-03 0.100000000000D+01
0.236903998765D-07 0.000000000000D+00 0.000000000000D+00 0.906552825439D-07 0.000000000000D+00  6 1 21 25 1 2 -2 2 0.17656769D+00 0.98154999D-01 0.40108445D+06 0.40108445D+06 0.40108445D+06 0.10753429D+01  3  4 12  6  5  2       -2 0.279262589551D-06 0.100000000000D+01
-.694388859959D-05 0.000000000000D+00 -.139247241758D-06 0.906552825439D-07 0.000000000000D+00  6 1 21 25 1 2 -2 2 0.17656769D+00 0.98230041D-01 0.36359013D+06 0.36359013D+06 0.36359013D+06 0.10784284D+01  3  4  5  6  5  2       -2 -.828464899213D-04 0.100000000000D+01
  </mgrwgt>
  </event>
  <event>
  5     66 0.19854216E-05 0.72557049E+02 0.75467711E-02 0.93266138E-01
        1 -1    0    0  502    0 0.00000000E+00 0.00000000E+00 0.24723324E+04 0.24723324E+04 0.32000000E+00 0.0000E+00 0.9000E+01
       -2 -1    0    0    0  501 0.00000000E+00 0.00000000E+00 -.16758976E+03 0.16759007E+03 0.32000000E+00 0.0000E+00 0.9000E+01
       25  1    1    2    0    0 0.41690665E+03 -.30157380E+03 0.84509459E+03 0.99728020E+03 0.12500000E+03 0.0000E+00 0.9000E+01
        1  1    1    2  502    0 -.35258191E+03 0.33512349E+03 0.14874341E+04 0.15649543E+04 0.32000000E+00 0.0000E+00 0.9000E+01
       -2  1    1    2    0  501 -.64324740E+02 -.33549689E+02 -.27786046E+02 0.77687969E+02 0.32000000E+00 0.0000E+00 0.9000E+01
#aMCatNLO 1  0  0  1  4 0.45762726D+02 0.00000000D+00  -5  6  0 0.00000000D+00 0.00000000D+00 0.00000000D+00 0.00000000D+00 0.00000000D+00
  <mgrwgt>
 0.5627794632D-03   11    2    0
 0.643690944121454D+03 0.000000000000000D+00 0.000000000000000D+00 0.643690944121454D+03
 0.643690944121454D+03 0.000000000000000D+00 0.000000000000000D+00 -.643690944121454D+03
 0.532085584139248D+03 0.416902896011060D+03 -.301559606479215D+03 -.523817514645842D+02
 0.546209760202221D+03 -.352569543126905D+03 0.335111732161090D+03 0.248475242966874D+03
 0.209086543901439D+03 -.643333528841552D+02 -.335521256818759D+02 -.196093491502290D+03
 0.000000000000000D+00 -.000000000000000D+00 -.000000000000000D+00 0.000000000000000D+00
 0.690874172497267D+03 0.000000000000000D+00 0.000000000000000D+00 0.690874172497267D+03
 0.655290188187446D+03 0.000000000000000D+00 0.000000000000000D+00 -.655290188187446D+03
 0.541802629965759D+03 0.434432366156427D+03 -.294023402447907D+03 -.523817514645842D+02
 0.539745767152757D+03 -.334843093813156D+03 0.342732620737370D+03 0.248475242966874D+03
 0.206646601020533D+03 -.575471886850977D+02 -.306346434322728D+02 -.196093491502290D+03
 0.579693625456636D+02 -.420420836581737D+02 -.180745748571903D+02 0.355839843098203D+02
0.366049463298D-04 0.000000000000D+00 0.000000000000D+00 0.201108204170D-06 0.000000000000D+00  6 1 -2 25 1 -2 21 0 0.38035886D+00 0.25783065D-01 0.29619648D+06 0.29619648D+06 0.29619648D+06 0.10849621D+01  1  2  2  1  6  1        1 0.773216323545D-04 0.100000000000D+01
0.650616615825D-05 0.000000000000D+00 -.140572632210D-06 0.201108204170D-06 0.000000000000D+00  6 1 -2 25 1 -2 21 2 0.38035886D+00 0.25783065D-01 0.29619648D+06 0.29619648D+06 0.29619648D+06 0.10849621D+01  1  2  3  1  6  1        1 0.161776526841D-04 0.100000000000D+01
-.252083658712D-04 0.000000000000D+00 0.000000000000D+00 0.201108204170D-06 0.000000000000D+00  6 1 -2 25 1 -2 21 2 0.38035886D+00 0.25783065D-01 0.29619648D+06 0.29619648D+06 0.29619648D+06 0.10849621D+01  1  2 15  1  6  1        1 -.626808750161D-04 0.100000000000D+01
0.365518320633D-06 0.000000000000D+00 0.000000000000D+00 0.201108204170D-06 0.000000000000D+00  6 1 -2 25 1 -2 21 2 0.41150083D+00 0.25783065D-01 0.31886993D+06 0.31886993D+06 0.31886993D+06 0.10825973D+01  1  2 12  1  6  1        1 0.650355276053D-06 0.100000000000D+01
0.192431351560D-03 0.000000000000D+00 0.000000000000D+00 0.201108204170D-06 0.000000000000D+00  6 1 -2 25 1 -2 21 2 0.42279121D+00 0.25783065D-01 0.31886993D+06 0.31886993D+06 0.31886993D+06 0.10825973D+01  1  2 12  1  6  1        1 0.303540825930D-03 0.100000000000D+01
-.948008225513D-04 0.000000000000D+00 0.000000000000D+00 0.201108204170D-06 0.000000000000D+00  6 1 -2 25 1 -2 21 2 0.38035886D+00 0.25783065D-01 0.29619648D+06 0.29619648D+06 0.29619648D+06 0.10849621D+01  1  2  4  1  6  1        1 -.235723272985D-03 0.100000000000D+01
-.668536380570D-03 0.000000000000D+00 -.101474405180D-03 0.201108204170D-06 0.000000000000D+00  6 1 -2 25 1 -2 21 2 0.41063692D+00 0.25783065D-01 0.29619648D+06 0.29619648D+06 0.29619648D+06 0.10849621D+01  1  2  5  1  6  1        1 -.121095302947D-02 0.100000000000D+01
0.674625795524D-03 0.000000000000D+00 0.101177472148D-03 0.201108204170D-06 0.000000000000D+00  6 1 -2 25 1 -2 21 2 0.38035886D+00 0.25783065D-01 0.29619648D+06 0.29619648D+06 0.29619648D+06 0.10849621D+01  1  2  6  1  6  1        1 0.167746435401D-02 0.100000000000D+01
0.496624326010D-08 0.000000000000D+00 0.000000000000D+00 0.201108204170D-06 0.000000000000D+00  6 21 -2 25 1 -2 -1 2 0.41150083D+00 0.25783065D-01 0.31886993D+06 0.31886993D+06 0.31886993D+06 0.10825973D+01  1  2 12  5  6  1        1 0.259140549471D-08 0.100000000000D+01
0.338551043714D-05 0.000000000000D+00 0.000000000000D+00 0.201108204170D-06 0.000000000000D+00  6 21 -2 25 1 -2 -1 2 0.42279121D+00 0.25783065D-01 0.31886993D+06 0.31886993D+06 0.31886993D+06 0.10825973D+01  1  2 12  5  6  1        1 0.147266398620D-05 0.100000000000D+01
-.838772339861D-05 0.000000000000D+00 -.130386940679D-05 0.201108204170D-06 0.000000000000D+00  6 21 -2 25 1 -2 -1 2 0.41063692D+00 0.25783065D-01 0.29619648D+06 0.29619648D+06 0.29619648D+06 0.10849621D+01  1  2  5  5  6  1        1 -.449343496230D-05 0.100000000000D+01
  </mgrwgt>
  </event>
  <event>
  5     66 0.19854216E-05 0.11067506E+03 0.75467711E-02 0.91647340E-01
        1 -1    0    0  502    0 0.00000000E+00 0.00000000E+00 0.57681232E+03 0.57681241E+03 0.32000000E+00 0.0000E+00 0.9000E+01
       -2 -1    0    0    0  501 0.00000000E+00 0.00000000E+00 -.22700268E+04 0.22700268E+04 0.32000000E+00 0.0000E+00 0.9000E+01
       25  1    1    2    0    0 0.37912536E+03 0.33394895E+03 0.55507518E+01 0.52049376E+03 0.12500000E+03 0.0000E+00 0.9000E+01
        1  1    1    2  502    0 -.40769751E+03 -.44085882E+03 0.23105443E+02 0.60092239E+03 0.32000000E+00 0.0000E+00 0.9000E+01
       -2  1    1    2    0  501 0.28572146E+02 0.10690986E+03 -.17218707E+04 0.17254231E+04 0.32000000E+00 0.0000E+00 0.9000E+01
#aMCatNLO 1  0  0  1  4 0.61007956D+02 0.00000000D+00  -5  6  0 0.00000000D+00 0.00000000D+00 0.00000000D+00 0.00000000D+00 0.00000000D+00
  <mgrwgt>
 0.4348240934D-03   11    2    0
 0.114428125280656D+04 0.000000000000000D+00 0.000000000000000D+00 0.114428125280656D+04
 0.114428125280656D+04 0.000000000000000D+00 0.000000000000000D+00 -.114428125280656D+04
 0.651586992828028D+03 0.379072458297408D+03 0.333882175507611D+03 0.392131831736901D+03
 0.764513584113352D+03 -.407647502378872D+03 -.440804741441734D+03 0.473281854734150D+03
 0.872461928671738D+03 0.285750440814637D+02 0.106922565934123D+03 -.865413686471051D+03
 0.000000000000000D+00 0.000000000000000D+00 -.000000000000000D+00 0.000000000000000D+00
 0.122164540939872D+04 0.000000000000000D+00 0.000000000000000D+00 0.122164540939872D+04
 0.115677873566714D+04 0.000000000000000D+00 0.000000000000000D+00 -.115677873566714D+04
 0.660393543616957D+03 0.378517080789042D+03 0.351357479699189D+03 0.392131831736901D+03
 0.753385428806142D+03 -.408290047712685D+03 -.420586646549305D+03 0.473281854734150D+03
 0.875596556571942D+03 0.278350694103124D+02 0.130206336482334D+03 -.865413686471051D+03
 0.890486160708131D+02 0.193789751333038D+01 -.609771696322174D+02 0.648666737315757D+02
0.140222670815D-02 0.000000000000D+00 0.000000000000D+00 0.156088172802D-05 0.000000000000D+00  6 1 -2 25 1 -2 21 0 0.88740365D-01 0.34923490D+00 0.37912474D+06 0.37912474D+06 0.37912474D+06 0.10771097D+01  1  2  2  1  6  1        1 0.733203083662D-04 0.100000000000D+01
0.346689622988D-03 0.000000000000D+00 -.538491977408D-05 0.156088172802D-05 0.000000000000D+00  6 1 -2 25 1 -2 21 2 0.88740365D-01 0.34923490D+00 0.37912474D+06 0.37912474D+06 0.37912474D+06 0.10771097D+01  1  2  3  1  6  1        1 0.210313325451D-04 0.100000000000D+01
-.106548223631D-02 0.000000000000D+00 0.000000000000D+00 0.156088172802D-05 0.000000000000D+00  6 1 -2 25 1 -2 21 2 0.88740365D-01 0.34923490D+00 0.37912474D+06 0.37912474D+06 0.37912474D+06 0.10771097D+01  1  2 15  1  6  1        1 -.646356560651D-04 0.100000000000D+01
0.129897796404D-06 0.000000000000D+00 0.000000000000D+00 0.156088172802D-05 0.000000000000D+00  6 1 -2 25 1 -2 21 2 0.95204317D-01 0.34923490D+00 0.43013490D+06 0.43013490D+06 0.43013490D+06 0.10731610D+01  1  2 12  1  6  1        1 0.698346139664D-08 0.100000000000D+01
0.129588225700D-01 0.000000000000D+00 0.000000000000D+00 0.156088172802D-05 0.000000000000D+00  6 1 -2 25 1 -2 21 2 0.98488644D-01 0.34923490D+00 0.43013490D+06 0.43013490D+06 0.43013490D+06 0.10731610D+01  1  2 12  1  6  1        1 0.662485000892D-03 0.100000000000D+01
-.816672784026D-02 0.000000000000D+00 0.000000000000D+00 0.156088172802D-05 0.000000000000D+00  6 1 -2 25 1 -2 21 2 0.88740365D-01 0.34923490D+00 0.37912474D+06 0.37912474D+06 0.37912474D+06 0.10771097D+01  1  2  4  1  6  1        1 -.495420565327D-03 0.100000000000D+01
-.413668770684D-01 0.000000000000D+00 -.605191373123D-02 0.156088172802D-05 0.000000000000D+00  6 1 -2 25 1 -2 21 2 0.95381392D-01 0.34923490D+00 0.37912474D+06 0.37912474D+06 0.37912474D+06 0.10771097D+01  1  2  5  1  6  1        1 -.225820731537D-02 0.100000000000D+01
0.417106931360D-01 0.000000000000D+00 0.603618773107D-02 0.156088172802D-05 0.000000000000D+00  6 1 -2 25 1 -2 21 2 0.88740365D-01 0.34923490D+00 0.37912474D+06 0.37912474D+06 0.37912474D+06 0.10771097D+01  1  2  6  1  6  1        1 0.253030780232D-02 0.100000000000D+01
0.174775542232D-08 0.000000000000D+00 0.000000000000D+00 0.156088172802D-05 0.000000000000D+00  6 21 -2 25 1 -2 -1 2 0.95204317D-01 0.34923490D+00 0.43013490D+06 0.43013490D+06 0.43013490D+06 0.10731610D+01  1  2 12  5  6  1        1 0.215743117654D-09 0.100000000000D+01
0.246629157091D-03 0.000000000000D+00 0.000000000000D+00 0.156088172802D-05 0.000000000000D+00  6 21 -2 25 1 -2 -1 2 0.98488644D-01 0.34923490D+00 0.43013490D+06 0.43013490D+06 0.43013490D+06 0.10731610D+01  1  2 12  5  6  1        1 0.278972267366D-04 0.100000000000D+01
-.493158021522D-03 0.000000000000D+00 -.737256483892D-04 0.156088172802D-05 0.000000000000D+00  6 21 -2 25 1 -2 -1 2 0.95381392D-01 0.34923490D+00 0.37912474D+06 0.37912474D+06 0.37912474D+06 0.10771097D+01  1  2  5  5  6  1        1 -.619612398659D-04 0.100000000000D+01
  </mgrwgt>
  </event>
  <event>
  5     66 -.19854216E-05 0.45992683E+02 0.75467711E-02 0.85585724E-01
        1 -1    0    0  502    0 0.00000000E+00 0.00000000E+00 0.30917605E+04 0.30917605E+04 0.32000000E+00 0.0000E+00 0.9000E+01
       -2 -1    0    0    0  501 0.00000000E+00 0.00000000E+00 -.20059416E+04 0.20059416E+04 0.32000000E+00 0.0000E+00 0.9000E+01
       25  1    1    2    0    0 -.10170721E+04 0.62951659E+03 0.67218390E+03 0.13777456E+04 0.12500000E+03 0.0000E+00 0.9000E+01
        1  1    1    2  502    0 0.42796948E+02 0.16855085E+02 0.18597493E+04 0.18603181E+04 0.32000000E+00 0.0000E+00 0.9000E+01
       -2  1    1    2    0  501 0.97427517E+03 -.64637168E+03 -.14461143E+04 0.18596384E+04 0.32000000E+00 0.0000E+00 0.9000E+01
#aMCatNLO 1  0  0  4  2 0.16559397D+03 0.00000000D+00  -5  6  0 0.00000000D+00 0.00000000D+00 0.00000000D+00 0.00000000D+00 0.00000000D+00
  <mgrwgt>
 -.9994296291D-05    1    2    0
 0.249035963760669D+04 0.000000000000000D+00 0.000000000000000D+00 0.249035963760669D+04
 0.249035963760669D+04 -.000000000000000D+00 -.000000000000000D+00 -.249035963760669D+04
 0.126366500035572D+04 -.101713001610863D+04 0.629557610806252D+03 0.387721521366571D+03
 0.149845552730822D+04 0.427934509281971D+02 0.168537077177375D+02 0.149774952525928D+04
 0.221859874754943D+04 0.974336565180429D+03 -.646411318523990D+03 -.188547104662585D+04
 0.000000000000000D+00 0.000000000000000D+00 0.000000000000000D+00 0.000000000000000D+00
 0.249035963760669D+04 0.000000000000000D+00 0.000000000000000D+00 0.249035963760669D+04
 0.249035963760669D+04 -.000000000000000D+00 -.000000000000000D+00 -.249035963760669D+04
 0.126561140036290D+04 -.101693946416372D+04 0.629632657494820D+03 0.394390744783593D+03
 0.147853184522058D+04 0.159325812888391D+02 0.786025644854286D+01 0.147842510346429D+04
 0.220879474880566D+04 0.974670118461269D+03 -.646279952406474D+03 -.187379684748578D+04
 0.277812808242322D+02 0.263367644136087D+02 0.878703846311038D+01 0.980999237893913D+00
-.780535675819D-02 0.000000000000D+00 0.000000000000D+00 0.292759686306D-04 0.000000000000D+00  6 1 -2 25 1 -2 21 2 0.47565547D+00 0.30860640D+00 0.14616462D+07 0.14616462D+07 0.14616462D+07 0.10370641D+01  1  2 14  3  6  4        1 -.999429629059D-05 0.100000000000D+01
  </mgrwgt>
  </event>
  <event>
  5     66 0.19854216E-05 0.27125025E+02 0.75467711E-02 0.95214432E-01
        3 -1    0    0  502    0 0.00000000E+00 0.00000000E+00 0.11551261E+04 0.11551262E+04 0.50000000E+00 0.0000E+00 0.9000E+01
       -4 -1    0    0    0  501 0.00000000E+00 0.00000000E+00 -.60494973E+03 0.60495171E+03 0.15500000E+01 0.0000E+00 0.9000E+01
       25  1    1    2    0    0 -.45148905E+03 0.19242302E+02 -.19712197E+02 0.46928264E+03 0.12500000E+03 0.0000E+00 0.9000E+01
        3  1    1    2  502    0 0.45160641E+03 -.46376954E+02 0.87431774E+03 0.98515528E+03 0.50000000E+00 0.0000E+00 0.9000E+01
       -4  1    1    2    0  501 -.11735941E+00 0.27134652E+02 -.30442915E+03 0.30564001E+03 0.15500000E+01 0.0000E+00 0.9000E+01
#aMCatNLO 1  0  0  4  1 0.16845238D+02 0.00000000D+00  -5  6  0 0.00000000D+00 0.00000000D+00 0.00000000D+00 0.00000000D+00 0.00000000D+00
  <mgrwgt>
 0.3818337091D-04    8    2    0
 0.835939634361928D+03 0.000000000000000D+00 0.000000000000000D+00 0.835939634361928D+03
 0.835939634361928D+03 -.000000000000000D+00 -.000000000000000D+00 -.835939634361928D+03
 0.500631062332919D+03 -.451526336052113D+03 0.192556347926222D+02 -.175384289355332D+03
 0.749464700551409D+03 0.451640173020101D+03 -.463804212230637D+02 0.596294682195102D+03
 0.421783505839527D+03 -.113836967987766D+00 0.271247864304415D+02 -.420910392839770D+03
 0.000000000000000D+00 0.000000000000000D+00 0.000000000000000D+00 0.000000000000000D+00
 0.835939634361928D+03 0.000000000000000D+00 0.000000000000000D+00 0.835939634361928D+03
 0.835939634361928D+03 -.000000000000000D+00 -.000000000000000D+00 -.835939634361928D+03
 0.500387529286670D+03 -.451348345906976D+03 0.192373563966819D+02 -.175149291267543D+03
 0.555398255420414D+03 0.321452942407060D+03 -.389685148285608D+02 0.451239052824486D+03
 0.421584923219827D+03 0.361215546103540D-01 0.271093866944136D+02 -.420712404540862D+03
 0.194508560796944D+03 0.129859281945306D+03 -.737822826253469D+01 0.144622642983918D+03
0.217868535550D-04 0.000000000000D+00 0.000000000000D+00 0.177336221128D-04 0.000000000000D+00  6 3 -4 25 3 -4 21 0 0.17771187D+00 0.93069350D-01 0.22564654D+06 0.22564654D+06 0.22564654D+06 0.10938236D+01  1  2  2  3  6  4        3 0.104877294313D-05 0.100000000000D+01
0.116030787284D-04 0.000000000000D+00 -.836672542615D-07 0.177336221128D-04 0.000000000000D+00  6 3 -4 25 3 -4 21 2 0.17771187D+00 0.93069350D-01 0.22564654D+06 0.22564654D+06 0.22564654D+06 0.10938236D+01  1  2  3  3  6  4        3 0.668274282398D-06 0.100000000000D+01
-.170521353654D-04 0.000000000000D+00 0.000000000000D+00 0.177336221128D-04 0.000000000000D+00  6 3 -4 25 3 -4 21 2 0.17771187D+00 0.93069350D-01 0.22564654D+06 0.22564654D+06 0.22564654D+06 0.10938236D+01  1  2 15  3  6  4        3 -.982110333934D-06 0.100000000000D+01
0.444409928003D-08 0.000000000000D+00 0.000000000000D+00 0.177336221128D-04 0.000000000000D+00  6 3 -4 25 3 -4 21 2 0.17771187D+00 0.93069350D-01 0.22549070D+06 0.22549070D+06 0.22549070D+06 0.10938463D+01  1  2 12  3  6  4        3 0.255973211329D-09 0.100000000000D+01
0.194931726096D-02 0.000000000000D+00 0.000000000000D+00 0.177336221128D-04 0.000000000000D+00  6 3 -4 25 3 -4 21 2 0.17771187D+00 0.93069350D-01 0.22549070D+06 0.22549070D+06 0.22549070D+06 0.10938463D+01  1  2 12  3  6  4        3 0.112277644523D-03 0.100000000000D+01
-.187293018919D-02 0.000000000000D+00 0.000000000000D+00 0.177336221128D-04 0.000000000000D+00  6 3 -4 25 3 -4 21 2 0.17771187D+00 0.93069350D-01 0.22564654D+06 0.22564654D+06 0.22564654D+06 0.10938236D+01  1  2  4  3  6  4        3 -.107870601196D-03 0.100000000000D+01
-.196640653644D-02 0.000000000000D+00 0.000000000000D+00 0.177336221128D-04 0.000000000000D+00  6 3 -4 25 3 -4 21 2 0.17771187D+00 0.93069350D-01 0.22564654D+06 0.22564654D+06 0.22564654D+06 0.10938236D+01  1  2  5  3  6  4        3 -.113254330837D-03 0.100000000000D+01
0.254009147015D-02 0.000000000000D+00 -.000000000000D+00 0.177336221128D-04 0.000000000000D+00  6 3 -4 25 3 -4 21 2 0.17771187D+00 0.93069350D-01 0.22564654D+06 0.22564654D+06 0.22564654D+06 0.10938236D+01  1  2  6  3  6  4        3 0.146295465554D-03 0.100000000000D+01
  </mgrwgt>
  </event>
  <event>
  5     66 0.19854216E-05 0.18890910E+02 0.75467711E-02 0.94706541E-01
        1 -1    0    0  502    0 0.00000000E+00 0.00000000E+00 0.28600480E+04 0.28600480E+04 0.32000000E+00 0.0000E+00 0.9000E+01
       -2 -1    0    0    0  501 0.00000000E+00 0.00000000E+00 -.48359171E+03 0.48359182E+03 0.32000000E+00 0.0000E+00 0.9000E+01
       25  1    1    2    0    0 0.41221939E+03 -.22440222E+03 0.18913880E+03 0.52122900E+03 0.12500000E+03 0.0000E+00 0.9000E+01
        1  1    1    2  502    0 0.16067030E+02 -.99373820E+01 0.23171577E+04 0.23172347E+04 0.32000000E+00 0.0000E+00 0.9000E+01
       -2  1    1    2    0  501 -.42828642E+03 0.23433960E+03 -.12984022E+03 0.50517610E+03 0.32000000E+00 0.0000E+00 0.9000E+01
#aMCatNLO 1  0  0  2  1 0.20089998D+03 0.00000000D+00  -5  6  0 0.00000000D+00 0.00000000D+00 0.00000000D+00 0.00000000D+00 0.00000000D+00
  <mgrwgt>
 0.2536659177D-02    7    4    0
 0.117605089729236D+04 0.000000000000000D+00 0.000000000000000D+00 0.117605089729236D+04
 0.117605089729236D+04 0.000000000000000D+00 0.000000000000000D+00 -.117605089729236D+04
 0.549888631142408D+03 0.412264995263611D+03 -.224427166742794D+03 -.257725682010481D+03
 0.952877881942586D+03 0.160662527861250D+02 -.993690109271490D+01 0.952690606342623D+03
 0.849335281499733D+03 -.428331248049736D+03 0.234364067835509D+03 -.694964924332141D+03
 0.000000000000000D+00 0.000000000000000D+00 0.000000000000000D+00 -.000000000000000D+00
 0.123463791802266D+04 0.000000000000000D+00 0.000000000000000D+00 0.123463791802266D+04
 0.139197381072404D+04 0.000000000000000D+00 0.000000000000000D+00 -.139197381072404D+04
 0.517533044021729D+03 0.364369015581313D+03 -.230278407522142D+03 -.257725682010481D+03
 0.955444538202355D+03 -.695615492242483D+02 -.203976723368238D+02 0.952690606342623D+03
 0.888756606876297D+03 -.506320683442103D+03 0.224836442181893D+03 -.694964924332141D+03
 0.264877539646314D+03 0.211513217085038D+03 0.258396376770723D+02 -.157335892701380D+03
 0.117605089729236D+04 0.000000000000000D+00 0.000000000000000D+00 0.117605089729236D+04
 0.117605089729236D+04 0.000000000000000D+00 0.000000000000000D+00 -.117605089729236D+04
 0.549888631142408D+03 0.412264995263611D+03 -.224427166742794D+03 -.257725682010481D+03
 0.952877881942586D+03 0.160662527861250D+02 -.993690109271490D+01 0.952690606342623D+03
 0.000000000000000D+00 0.000000000000000D+00 0.000000000000000D+00 -.000000000000000D+00
 0.849335281499733D+03 -.428331248049736D+03 0.234364067835509D+03 -.694964924332141D+03
 0.123463791802266D+04 0.000000000000000D+00 0.000000000000000D+00 0.123463791802266D+04
 0.139197381072404D+04 0.000000000000000D+00 0.000000000000000D+00 -.139197381072404D+04
 0.517533044021729D+03 0.364369015581313D+03 -.230278407522142D+03 -.257725682010481D+03
 0.955444538202355D+03 -.695615492242483D+02 -.203976723368238D+02 0.952690606342623D+03
 0.264877539646314D+03 0.211513217085038D+03 0.258396376770723D+02 -.157335892701380D+03
 0.888756606876297D+03 -.506320683442103D+03 0.224836442181893D+03 -.694964924332141D+03
0.730375232096D-02 0.000000000000D+00 0.000000000000D+00 0.575969861944D-04 0.000000000000D+00  6 1 -2 25 1 -2 21 0 0.44000739D+00 0.74398735D-01 0.24646218D+06 0.24646218D+06 0.24646218D+06 0.10909251D+01  1  2  2  2  6  2       -2 0.106952504257D-02 0.100000000000D+01
0.651070837781D-02 0.000000000000D+00 -.280483320346D-04 0.575969861944D-04 0.000000000000D+00  6 1 -2 25 1 -2 21 2 0.44000739D+00 0.74398735D-01 0.24646218D+06 0.24646218D+06 0.24646218D+06 0.10909251D+01  1  2  3  2  6  2       -2 0.113465283721D-02 0.100000000000D+01
-.507476740077D-02 0.000000000000D+00 0.000000000000D+00 0.575969861944D-04 0.000000000000D+00  6 1 -2 25 1 -2 21 2 0.44000739D+00 0.74398735D-01 0.24646218D+06 0.24646218D+06 0.24646218D+06 0.10909251D+01  1  2 15  2  6  2       -2 -.884404414284D-03 0.100000000000D+01
-.248236934712D-02 0.000000000000D+00 0.000000000000D+00 0.575969861944D-04 0.000000000000D+00  6 1 -2 25 1 -2 21 2 0.44000739D+00 0.74398735D-01 0.24646218D+06 0.24646218D+06 0.24646218D+06 0.10909251D+01  1  2  4  2  6  2       -2 -.432614588039D-03 0.100000000000D+01
-.318565440901D-01 0.000000000000D+00 -.111091740751D-01 0.575969861944D-04 0.000000000000D+00  6 1 -2 25 1 -2 21 2 0.44000739D+00 0.92275518D-01 0.24646218D+06 0.24646218D+06 0.24646218D+06 0.10909251D+01  1  2  5  2  6  2       -2 -.340363518616D-02 0.100000000000D+01
0.337167124180D-01 0.000000000000D+00 0.108564853004D-01 0.575969861944D-04 0.000000000000D+00  6 1 -2 25 1 -2 21 2 0.44000739D+00 0.74398735D-01 0.24646218D+06 0.24646218D+06 0.24646218D+06 0.10909251D+01  1  2  6  2  6  2       -2 0.587597557538D-02 0.100000000000D+01
-.819269897297D-03 0.000000000000D+00 -.336317754853D-03 0.575969861944D-04 0.000000000000D+00  6 1 21 25 1 2 -2 2 0.44000739D+00 0.92275518D-01 0.24646218D+06 0.24646218D+06 0.24646218D+06 0.10909251D+01  3  4  5  6  5  2       -2 -.822840090160D-03 0.100000000000D+01
  </mgrwgt>
  </event>
  <event>
  5     66 0.19854216E-05 0.17208544E+03 0.75467711E-02 0.94388699E-01
        1 -1    0    0  502    0 0.00000000E+00 0.00000000E+00 0.97900605E+03 0.97900610E+03 0.32000000E+00 0.0000E+00 0.9000E+01
       -2 -1    0    0    0  501 0.00000000E+00 0.00000000E+00 -.57871838E+03 0.57871847E+03 0.32000000E+00 0.0000E+00 0.9000E+01
       25  1    1    2    0    0 0.44118403E+03 0.17855339E+03 0.14289464E+03 0.51241442E+03 0.12500000E+03 0.0000E+00 0.9000E+01
        1  1    1    2  502    0 -.85499468E+02 -.14939066E+03 0.55471562E+03 0.58080741E+03 0.32000000E+00 0.0000E+00 0.9000E+01
       -2  1    1    2    0  501 -.35568456E+03 -.29162724E+02 -.29732258E+03 0.46450274E+03 0.32000000E+00 0.0000E+00 0.9000E+01
#aMCatNLO 1  0  0  4  1 0.93074869D+02 0.00000000D+00  -5  6  0 0.00000000D+00 0.00000000D+00 0.00000000D+00 0.00000000D+00 0.00000000D+00
  <mgrwgt>
 0.1385075784D-03    4    2    0
 0.752707716065022D+03 0.000000000000000D+00 0.000000000000000D+00 0.752707716065022D+03
 0.752707716065022D+03 -.000000000000000D+00 -.000000000000000D+00 -.752707716065022D+03
 0.492269146554032D+03 0.441238333382114D+03 0.178535726154848D+03 0.117320198418983D+02
 0.453381068977080D+03 -.854787885517634D+02 -.149354530146966D+03 0.419453209236860D+03
 0.559765216598933D+03 -.355759544830351D+03 -.291811960078822D+02 -.431185229078759D+03
 0.000000000000000D+00 0.000000000000000D+00 0.000000000000000D+00 -.000000000000000D+00
 0.752707716065022D+03 0.000000000000000D+00 0.000000000000000D+00 0.752707716065022D+03
 0.752707716065022D+03 -.000000000000000D+00 -.000000000000000D+00 -.752707716065022D+03
 0.475327968479505D+03 0.421870811228707D+03 0.144695434073715D+03 0.106770443523970D+03
 0.263711800921920D+03 0.779163283432849D+02 0.153441727956014D+03 0.199821409876060D+03
 0.503327545649159D+03 -.377038517559877D+03 -.663613084998127D+02 -.326767120775101D+03
 0.263048117079461D+03 -.122748622012115D+03 -.231775853529916D+03 0.201752673750716D+02
0.224370307773D-03 0.000000000000D+00 0.000000000000D+00 0.499743176285D-06 0.000000000000D+00  6 1 -2 25 1 -2 21 0 0.15061633D+00 0.89033608D-01 0.26069658D+06 0.26069658D+06 0.26069658D+06 0.10890929D+01  1  2  2  3  6  4        1 0.429623533743D-03 0.100000000000D+01
0.206619164412D-04 0.000000000000D+00 -.861641059909D-06 0.499743176285D-06 0.000000000000D+00  6 1 -2 25 1 -2 21 2 0.15061633D+00 0.89033608D-01 0.26069658D+06 0.26069658D+06 0.26069658D+06 0.10890929D+01  1  2  3  3  6  4        1 0.469270383005D-04 0.100000000000D+01
-.129849672590D-03 0.000000000000D+00 0.000000000000D+00 0.499743176285D-06 0.000000000000D+00  6 1 -2 25 1 -2 21 2 0.15061633D+00 0.89033608D-01 0.26069658D+06 0.26069658D+06 0.26069658D+06 0.10890929D+01  1  2 15  3  6  4        1 -.294912651316D-03 0.100000000000D+01
-.189902359560D-04 0.000000000000D+00 0.000000000000D+00 0.499743176285D-06 0.000000000000D+00  6 1 -2 25 1 -2 21 2 0.15061633D+00 0.89033608D-01 0.26069658D+06 0.26069658D+06 0.26069658D+06 0.10890929D+01  1  2  4  3  6  4        1 -.431303423656D-04 0.100000000000D+01
  </mgrwgt>
  </event>
  <event>
  5     66 0.19854216E-05 0.12252641E+03 0.75467711E-02 0.94748013E-01
        1 -1    0    0  502    0 0.00000000E+00 0.00000000E+00 0.12717302E+04 0.12717303E+04 0.32000000E+00 0.0000E+00 0.9000E+01
       -2 -1    0    0    0  501 0.00000000E+00 0.00000000E+00 -.49598552E+03 0.49598563E+03 0.32000000E+00 0.0000E+00 0.9000E+01
       25  1    1    2    0    0 0.31018459E+03 -.33083954E+03 -.73519802E+02 0.47612965E+03 0.12500000E+03 0.0000E+00 0.9000E+01
        1  1    1    2  502    0 -.12236927E+03 -.65013826E+01 0.89449102E+03 0.90284594E+03 0.32000000E+00 0.0000E+00 0.9000E+01
       -2  1    1    2    0  501 -.18781532E+03 0.33734092E+03 -.45226503E+02 0.38874031E+03 0.32000000E+00 0.0000E+00 0.9000E+01
#aMCatNLO 1  0  0  2  5 0.97886646D+01 0.00000000D+00  -5  6  0 0.00000000D+00 0.00000000D+00 0.00000000D+00 0.00000000D+00 0.00000000D+00
  <mgrwgt>
 0.4999191230D-03   13    4    0
 0.794203948827663D+03 0.000000000000000D+00 0.000000000000000D+00 0.794203948827663D+03
 0.794203948827663D+03 0.000000000000000D+00 0.000000000000000D+00 -.794203948827663D+03
 0.565802072482728D+03 0.310216270176955D+03 -.330895320110545D+03 -.314294667584718D+03
 0.567841936842891D+03 -.122353846876036D+03 -.650056327110007D+01 0.554465277604720D+03
 0.454763888329707D+03 -.187862423300919D+03 0.337395883381645D+03 -.240170610020002D+03
 0.000000000000000D+00 0.000000000000000D+00 -.000000000000000D+00 -.000000000000000D+00
 0.794371644161685D+03 0.000000000000000D+00 0.000000000000000D+00 0.794371644161685D+03
 0.951179629098930D+03 0.000000000000000D+00 0.000000000000000D+00 -.951179629098930D+03
 0.563477470101983D+03 0.309622795605009D+03 -.327466709272991D+03 -.314294667584718D+03
 0.567941849491491D+03 -.122950739647931D+03 -.305220486904186D+01 0.554465277604720D+03
 0.457018739409203D+03 -.188341595892203D+03 0.340164150831000D+03 -.240170610020002D+03
 0.157113214257937D+03 0.166953993512419D+01 -.964523668896703D+01 -.156807984937245D+03
 0.794203948827663D+03 0.000000000000000D+00 0.000000000000000D+00 0.794203948827663D+03
 0.794203948827663D+03 0.000000000000000D+00 0.000000000000000D+00 -.794203948827663D+03
 0.565802072482728D+03 0.310216270176955D+03 -.330895320110545D+03 -.314294667584718D+03
 0.567841936842891D+03 -.122353846876036D+03 -.650056327110007D+01 0.554465277604720D+03
 0.000000000000000D+00 0.000000000000000D+00 -.000000000000000D+00 -.000000000000000D+00
 0.454763888329707D+03 -.187862423300919D+03 0.337395883381645D+03 -.240170610020002D+03
 0.794371644161685D+03 0.000000000000000D+00 0.000000000000000D+00 0.794371644161685D+03
 0.951179629098930D+03 0.000000000000000D+00 0.000000000000000D+00 -.951179629098930D+03
 0.563477470101983D+03 0.309622795605009D+03 -.327466709272991D+03 -.314294667584718D+03
 0.567941849491491D+03 -.122950739647931D+03 -.305220486904186D+01 0.554465277604720D+03
 0.157113214257937D+03 0.166953993512419D+01 -.964523668896703D+01 -.156807984937245D+03
 0.457018739409203D+03 -.188341595892203D+03 0.340164150831000D+03 -.240170610020002D+03
0.328016536808D-05 0.000000000000D+00 0.000000000000D+00 0.680654404109D-06 0.000000000000D+00  6 1 -2 25 1 -2 21 0 0.19565082D+00 0.76305476D-01 0.23969694D+06 0.23969694D+06 0.23969694D+06 0.10918368D+01  1  2  2  2  6  2       -2 0.547606407506D-05 0.100000000000D+01
0.497706641159D-06 0.000000000000D+00 -.125966987008D-07 0.680654404109D-06 0.000000000000D+00  6 1 -2 25 1 -2 21 2 0.19565082D+00 0.76305476D-01 0.23969694D+06 0.23969694D+06 0.23969694D+06 0.10918368D+01  1  2  3  2  6  2       -2 0.990516384807D-06 0.100000000000D+01
-.189609686573D-05 0.000000000000D+00 0.000000000000D+00 0.680654404109D-06 0.000000000000D+00  6 1 -2 25 1 -2 21 2 0.19565082D+00 0.76305476D-01 0.23969694D+06 0.23969694D+06 0.23969694D+06 0.10918368D+01  1  2 15  2  6  2       -2 -.377353817967D-05 0.100000000000D+01
0.263486988458D-06 0.000000000000D+00 0.000000000000D+00 0.680654404109D-06 0.000000000000D+00  6 1 -2 25 1 -2 21 2 0.19565082D+00 0.91394420D-01 0.24467003D+06 0.24467003D+06 0.24467003D+06 0.10911639D+01  1  2 12  2  6  2       -2 0.346906774044D-06 0.100000000000D+01
0.248530128980D-02 0.000000000000D+00 0.000000000000D+00 0.680654404109D-06 0.000000000000D+00  6 1 -2 25 1 -2 21 2 0.19565082D+00 0.91450587D-01 0.24467003D+06 0.24467003D+06 0.24467003D+06 0.10911639D+01  1  2 12  2  6  2       -2 0.326744291087D-02 0.100000000000D+01
-.219329140473D-02 0.000000000000D+00 0.000000000000D+00 0.680654404109D-06 0.000000000000D+00  6 1 -2 25 1 -2 21 2 0.19565082D+00 0.76305476D-01 0.23969694D+06 0.23969694D+06 0.23969694D+06 0.10918368D+01  1  2  4  2  6  2       -2 -.436500318337D-02 0.100000000000D+01
-.250499372362D-02 0.000000000000D+00 -.580251910914D-05 0.680654404109D-06 0.000000000000D+00  6 1 -2 25 1 -2 21 2 0.19565082D+00 0.91395389D-01 0.23969694D+06 0.23969694D+06 0.23969694D+06 0.10918368D+01  1  2  5  2  6  2       -2 -.330579976549D-02 0.100000000000D+01
0.246587759048D-02 0.000000000000D+00 0.570931237426D-05 0.680654404109D-06 0.000000000000D+00  6 1 -2 25 1 -2 21 2 0.19565082D+00 0.76305476D-01 0.23969694D+06 0.23969694D+06 0.23969694D+06 0.10918368D+01  1  2  6  2  6  2       -2 0.490749360027D-02 0.100000000000D+01
0.587282885173D-09 0.000000000000D+00 0.000000000000D+00 0.680654404109D-06 0.402577093733D-07  6 1 -2 25 1 -2 21 2 0.19569213D+00 0.91387375D-01 0.24467003D+06 0.24467003D+06 0.24467003D+06 0.10911639D+01  1  2 11  2  6  2       -2 0.773022862721D-09 0.100000000000D+01
0.696245072497D-08 0.000000000000D+00 0.000000000000D+00 0.680654404109D-06 0.000000000000D+00  6 1 21 25 1 2 -2 2 0.19565082D+00 0.91394420D-01 0.24467003D+06 0.24467003D+06 0.24467003D+06 0.10911639D+01  3  4 12  6  5  2       -2 0.863359203744D-07 0.100000000000D+01
0.658470255516D-04 0.000000000000D+00 0.000000000000D+00 0.680654404109D-06 0.000000000000D+00  6 1 21 25 1 2 -2 2 0.19565082D+00 0.91450587D-01 0.24467003D+06 0.24467003D+06 0.24467003D+06 0.10911639D+01  3  4 12  6  5  2       -2 0.815256071672D-03 0.100000000000D+01
-.661397674377D-04 0.000000000000D+00 -.153334366983D-06 0.680654404109D-06 0.000000000000D+00  6 1 21 25 1 2 -2 2 0.19565082D+00 0.91395389D-01 0.23969694D+06 0.23969694D+06 0.23969694D+06 0.10918368D+01  3  4  5  6  5  2       -2 -.822597784528D-03 0.100000000000D+01
0.173906002461D-10 0.000000000000D+00 0.000000000000D+00 0.680654404109D-06 0.119124746404D-08  6 1 21 25 1 2 -2 2 0.19569213D+00 0.91387375D-01 0.24467003D+06 0.24467003D+06 0.24467003D+06 0.10911639D+01  3  4 11  6  5  2       -2 0.215596262500D-09 0.100000000000D+01
  </mgrwgt>
  </event>
  <event>
  5     66 0.19854216E-05 0.44618619E+02 0.75467711E-02 0.91627113E-01
        1 -1    0    0  502    0 0.00000000E+00 0.00000000E+00 0.18617196E+04 0.18617196E+04 0.32000000E+00 0.0000E+00 0.9000E+01
       -2 -1    0    0    0  501 0.00000000E+00 0.00000000E+00 -.17656833E+04 0.17656834E+04 0.32000000E+00 0.0000E+00 0.9000E+01
       25  1    1    2    0    0 0.65563627E+03 0.13970831E+03 0.11986365E+04 0.13790329E+04 0.12500000E+03 0.0000E+00 0.9000E+01
        1  1    1    2  502    0 -.67836810E+03 -.10131894E+03 0.36712683E+03 0.77796595E+03 0.32000000E+00 0.0000E+00 0.9000E+01
       -2  1    1    2    0  501 0.22731835E+02 -.38389368E+02 -.14697271E+04 0.14704041E+04 0.32000000E+00 0.0000E+00 0.9000E+01
#aMCatNLO 1  0  0  4  1 0.11294697D+03 0.00000000D+00  -5  6  0 0.00000000D+00 0.00000000D+00 0.00000000D+00 0.00000000D+00 0.00000000D+00
  <mgrwgt>
 0.2899832954D-03    6    2    0
 0.181306575028724D+04 0.000000000000000D+00 0.000000000000000D+00 0.181306575028724D+04
 0.181306575028724D+04 -.000000000000000D+00 -.000000000000000D+00 -.181306575028724D+04
 0.134784885123180D+04 0.655475940593144D+03 0.139687967131271D+03 0.116271668471264D+04
 0.768336023445593D+03 -.678209670901718D+03 -.101295276560342D+03 0.346570561597682D+03
 0.150994662589709D+04 0.227337303085740D+02 -.383926905709292D+02 -.150928724631032D+04
 0.000000000000000D+00 -.000000000000000D+00 0.000000000000000D+00 0.000000000000000D+00
 0.181306575028724D+04 0.000000000000000D+00 0.000000000000000D+00 0.181306575028724D+04
 0.181306575028724D+04 -.000000000000000D+00 -.000000000000000D+00 -.181306575028724D+04
 0.134638796552614D+04 0.623590336299668D+03 0.134925632939093D+03 0.117901048331356D+04
 0.303215603903912D+03 -.131249989544879D+03 -.338283988008144D+02 0.271235657924720D+03
 0.149182857501864D+04 -.127915121790342D+02 -.436986297473361D+02 -.149113356350681D+04
 0.484699356125792D+03 -.479548834575755D+03 -.573986043909425D+02 0.408874222685259D+02
0.136596380019D-01 0.000000000000D+00 0.000000000000D+00 0.611073489505D-05 0.000000000000D+00  6 1 -2 25 1 -2 21 0 0.28641841D+00 0.27164359D+00 0.49850916D+06 0.49850916D+06 0.49850916D+06 0.10686021D+01  1  2  2  3  6  4        1 0.235680954524D-03 0.100000000000D+01
0.884969408143D-02 0.000000000000D+00 -.524566065926D-04 0.611073489505D-05 0.000000000000D+00  6 1 -2 25 1 -2 21 2 0.28641841D+00 0.27164359D+00 0.49850916D+06 0.49850916D+06 0.49850916D+06 0.10686021D+01  1  2  3  3  6  4        1 0.174359483320D-03 0.100000000000D+01
-.889671345735D-02 0.000000000000D+00 0.000000000000D+00 0.611073489505D-05 0.000000000000D+00  6 1 -2 25 1 -2 21 2 0.28641841D+00 0.27164359D+00 0.49850916D+06 0.49850916D+06 0.49850916D+06 0.10686021D+01  1  2 15  3  6  4        1 -.175285873997D-03 0.100000000000D+01
-.217281960187D-02 0.000000000000D+00 0.000000000000D+00 0.611073489505D-05 0.000000000000D+00  6 1 -2 25 1 -2 21 2 0.28641841D+00 0.27164359D+00 0.49850916D+06 0.49850916D+06 0.49850916D+06 0.10686021D+01  1  2  4  3  6  4        1 -.428095818502D-04 0.100000000000D+01
-.527234041589D-02 0.000000000000D+00 0.000000000000D+00 0.611073489505D-05 0.000000000000D+00  6 1 -2 25 1 -2 21 2 0.28641841D+00 0.27164359D+00 0.49850916D+06 0.49850916D+06 0.49850916D+06 0.10686021D+01  1  2  5  3  6  4        1 -.103877325288D-03 0.100000000000D+01
0.102483191552D-01 0.000000000000D+00 -.000000000000D+00 0.611073489505D-05 0.000000000000D+00  6 1 -2 25 1 -2 21 2 0.28641841D+00 0.27164359D+00 0.49850916D+06 0.49850916D+06 0.49850916D+06 0.10686021D+01  1  2  6  3  6  4        1 0.201915638705D-03 0.100000000000D+01
  </mgrwgt>
  </event>
  <event>
  5     66 0.19854216E-05 0.67610786E+02 0.75467711E-02 0.94572904E-01
        1 -1    0    0  502    0 0.00000000E+00 0.00000000E+00 0.11153896E+04 0.11153896E+04 0.32000000E+00 0.0000E+00 0.9000E+01
       -2 -1    0    0    0  501 0.00000000E+00 0.00000000E+00 -.10149907E+04 0.10149907E+04 0.32000000E+00 0.0000E+00 0.9000E+01
       25  1    1    2    0    0 0.42435672E+03 -.21542546E+03 0.57288090E+03 0.75518493E+03 0.12500000E+03 0.0000E+00 0.9000E+01
        1  1    1    2  502    0 -.44330091E+02 0.51094620E+02 0.40199920E+03 0.40765092E+03 0.32000000E+00 0.0000E+00 0.9000E+01
       -2  1    1    2    0  501 -.38002662E+03 0.16433084E+03 -.87448119E+03 0.96754448E+03 0.32000000E+00 0.0000E+00 0.9000E+01
#aMCatNLO 1  0  0  2  5 0.23489640D+02 0.00000000D+00  -5  6  0 0.00000000D+00 0.00000000D+00 0.00000000D+00 0.00000000D+00 0.00000000D+00
  <mgrwgt>
 0.1600114987D-02   11    4    0
 0.106400662803026D+04 0.000000000000000D+00 0.000000000000000D+00 0.106400662803026D+04
 0.106400662803026D+04 0.000000000000000D+00 0.000000000000000D+00 -.106400662803026D+04
 0.729162610823289D+03 0.424392029064106D+03 -.215426043165992D+03 0.538085623869781D+03
 0.388942465275332D+03 -.443078091970702D+02 0.510689380198192D+02 0.383020917063464D+03
 0.100990817996191D+04 -.380084219867036D+03 0.164357105146173D+03 -.921106540933245D+03
 0.000000000000000D+00 0.000000000000000D+00 -.000000000000000D+00 -.000000000000000D+00
 0.106530208510523D+04 0.000000000000000D+00 0.000000000000000D+00 0.106530208510523D+04
 0.117616033162323D+04 0.000000000000000D+00 0.000000000000000D+00 -.117616033162323D+04
 0.724134254770861D+03 0.418430232556076D+03 -.210060516995191D+03 0.538085623869781D+03
 0.389706796073446D+03 -.475020281878278D+02 0.539436865234112D+02 0.383020917063464D+03
 0.101430184406961D+04 -.388388048588126D+03 0.171830424683471D+03 -.921106540933245D+03
 0.113319521814548D+03 0.174598442198772D+02 -.157135942116911D+02 -.110858246518001D+03
 0.106400662803026D+04 0.000000000000000D+00 0.000000000000000D+00 0.106400662803026D+04
 0.106400662803026D+04 0.000000000000000D+00 0.000000000000000D+00 -.106400662803026D+04
 0.729162610823289D+03 0.424392029064106D+03 -.215426043165992D+03 0.538085623869781D+03
 0.388942465275332D+03 -.443078091970702D+02 0.510689380198192D+02 0.383020917063464D+03
 0.000000000000000D+00 0.000000000000000D+00 -.000000000000000D+00 -.000000000000000D+00
 0.100990817996191D+04 -.380084219867036D+03 0.164357105146173D+03 -.921106540933245D+03
 0.106530208510523D+04 0.000000000000000D+00 0.000000000000000D+00 0.106530208510523D+04
 0.117616033162323D+04 0.000000000000000D+00 0.000000000000000D+00 -.117616033162323D+04
 0.724134254770861D+03 0.418430232556076D+03 -.210060516995191D+03 0.538085623869781D+03
 0.389706796073446D+03 -.475020281878278D+02 0.539436865234112D+02 0.383020917063464D+03
 0.113319521814548D+03 0.174598442198772D+02 -.157135942116911D+02 -.110858246518001D+03
 0.101430184406961D+04 -.388388048588126D+03 0.171830424683471D+03 -.921106540933245D+03
0.713061476649D-04 0.000000000000D+00 0.000000000000D+00 0.147314063459D-04 0.000000000000D+00  6 1 -2 25 1 -2 21 0 0.17159840D+00 0.15615242D+00 0.23706585D+06 0.23706585D+06 0.23706585D+06 0.10921990D+01  1  2  2  2  6  2       -2 0.259358081734D-04 0.100000000000D+01
0.130010800845D-04 0.000000000000D+00 -.273834382373D-06 0.147314063459D-04 0.000000000000D+00  6 1 -2 25 1 -2 21 2 0.17159840D+00 0.15615242D+00 0.23706585D+06 0.23706585D+06 0.23706585D+06 0.10921990D+01  1  2  3  2  6  2       -2 0.564099589537D-05 0.100000000000D+01
-.470881516386D-04 0.000000000000D+00 0.000000000000D+00 0.147314063459D-04 0.000000000000D+00  6 1 -2 25 1 -2 21 2 0.17159840D+00 0.15615242D+00 0.23706585D+06 0.23706585D+06 0.23706585D+06 0.10921990D+01  1  2 15  2  6  2       -2 -.204309233070D-04 0.100000000000D+01
0.112590381994D-07 0.000000000000D+00 0.000000000000D+00 0.147314063459D-04 0.000000000000D+00  6 1 -2 25 1 -2 21 2 0.17159840D+00 0.17270122D+00 0.25233801D+06 0.25233801D+06 0.25233801D+06 0.10901551D+01  1  2 12  2  6  2       -2 0.363621858870D-08 0.100000000000D+01
0.716158490652D-02 0.000000000000D+00 0.000000000000D+00 0.147314063459D-04 0.000000000000D+00  6 1 -2 25 1 -2 21 2 0.17159840D+00 0.17496129D+00 0.25233801D+06 0.25233801D+06 0.25233801D+06 0.10901551D+01  1  2 12  2  6  2       -2 0.222671894048D-02 0.100000000000D+01
-.349815705709D-02 0.000000000000D+00 0.000000000000D+00 0.147314063459D-04 0.000000000000D+00  6 1 -2 25 1 -2 21 2 0.17159840D+00 0.15615242D+00 0.23706585D+06 0.23706585D+06 0.23706585D+06 0.10921990D+01  1  2  4  2  6  2       -2 -.151780386492D-02 0.100000000000D+01
-.864703351530D-02 0.000000000000D+00 -.196407531801D-03 0.147314063459D-04 0.000000000000D+00  6 1 -2 25 1 -2 21 2 0.17159840D+00 0.17269625D+00 0.23706585D+06 0.23706585D+06 0.23706585D+06 0.10921990D+01  1  2  5  2  6  2       -2 -.281505124365D-02 0.100000000000D+01
0.862403930801D-02 0.000000000000D+00 0.195415853782D-03 0.147314063459D-04 0.000000000000D+00  6 1 -2 25 1 -2 21 2 0.17159840D+00 0.15615242D+00 0.23706585D+06 0.23706585D+06 0.23706585D+06 0.10921990D+01  1  2  6  2  6  2       -2 0.374185606287D-02 0.100000000000D+01
0.184273936657D-09 0.000000000000D+00 0.000000000000D+00 0.147314063459D-04 0.000000000000D+00  6 1 21 25 1 2 -2 2 0.17159840D+00 0.17270122D+00 0.25233801D+06 0.25233801D+06 0.25233801D+06 0.10901551D+01  3  4 12  6  5  2       -2 0.492775948527D-09 0.100000000000D+01
0.130040001450D-03 0.000000000000D+00 0.000000000000D+00 0.147314063459D-04 0.000000000000D+00  6 1 21 25 1 2 -2 2 0.17159840D+00 0.17496129D+00 0.25233801D+06 0.25233801D+06 0.25233801D+06 0.10901551D+01  3  4 12  6  5  2       -2 0.333653800555D-03 0.100000000000D+01
-.140806323158D-03 0.000000000000D+00 -.320942973225D-05 0.147314063459D-04 0.000000000000D+00  6 1 21 25 1 2 -2 2 0.17159840D+00 0.17269625D+00 0.23706585D+06 0.23706585D+06 0.23706585D+06 0.10921990D+01  3  4  5  6  5  2       -2 -.380408718472D-03 0.100000000000D+01
  </mgrwgt>
  </event>
</LesHouchesEvents>
