<event>
 5    0  0.2409703E+000  0.2441986E+03  0.7546771E-02  0.1117027E+00
         21   -1    0    0  502  501  0.00000000000E+00  0.00000000000E+00  0.94453302078E+03  0.94453302078E+03  0.00000000000E+00 0.  1.
         21   -1    0    0  503  502 -0.00000000000E+00 -0.00000000000E+00 -0.58005098218E+02  0.58005098218E+02  0.00000000000E+00 0.  1.
         25    1    1    2    0    0 -0.19382770893E+03  0.80241912095E+02  0.52817284536E+03  0.58189303122E+03  0.12500000000E+03 0.  0.
         21    1    1    2  503  504  0.18261764177E+02 -0.30685547724E+02  0.82850635505E+02  0.90218194803E+02  0.00000000000E+00 0.  1.
         21    1    1    2  504  501  0.17556594475E+03 -0.49556364371E+02  0.27550444170E+03  0.33042689298E+03  0.00000000000E+00 0.  1.
<mgrwt>
<rscale>  4 0.24419858E+03</rscale>
<asrwt>0</asrwt>
<pdfrwt beam="1">  1       21 0.14531276E+00 0.24419858E+03</pdfrwt>
<pdfrwt beam="2">  1       21 0.89238620E-02 0.24419858E+03</pdfrwt>
<totfact> 0.31279845E+04</totfact>
</mgrwt>
</event>
<event>
 5    0  0.1856407E+000  0.3397101E+03  0.7546771E-02  0.1066919E+00
         21   -1    0    0  502  501  0.00000000000E+00  0.00000000000E+00  0.13657092746E+03  0.13657092746E+03  0.00000000000E+00 0. -1.
         21   -1    0    0  503  502 -0.00000000000E+00 -0.00000000000E+00 -0.22994756960E+04  0.22994756960E+04  0.00000000000E+00 0. -1.
         25    1    1    2    0    0  0.35595224537E+03 -0.14521640176E+03 -0.31823637946E+03  0.51447954044E+03  0.12500000000E+03 0.  0.
         21    1    1    2  503  504 -0.30894814683E+03  0.63253258151E+01 -0.16453947050E+04  0.16741602977E+04  0.00000000000E+00 0. -1.
         21    1    1    2  504  501 -0.47004098534E+02  0.13889107594E+03 -0.19927368414E+03  0.24740678536E+03  0.00000000000E+00 0. -1.
<mgrwt>
<rscale>  4 0.33971015E+03</rscale>
<asrwt>0</asrwt>
<pdfrwt beam="1">  1       21 0.21010912E-01 0.33971015E+03</pdfrwt>
<pdfrwt beam="2">  1       21 0.35376550E+00 0.33971015E+03</pdfrwt>
<totfact> 0.29405813E+02</totfact>
</mgrwt>
</event>
<event>
 5    0  0.3670057E+000  0.3149069E+03  0.7546771E-02  0.1078017E+00
         21   -1    0    0  502  501  0.00000000000E+00  0.00000000000E+00  0.46455351893E+03  0.46455351893E+03  0.00000000000E+00 0.  1.
         21   -1    0    0  503  502 -0.00000000000E+00 -0.00000000000E+00 -0.28531979527E+03  0.28531979527E+03  0.00000000000E+00 0.  1.
         25    1    1    2    0    0  0.20386795196E+03 -0.20488828336E+03  0.29896650936E+03  0.43422036366E+03  0.12500000000E+03 0.  0.
         21    1    1    2  503  504 -0.19119438983E+02  0.13347664597E+02  0.11901515061E+01  0.23348009719E+02  0.00000000000E+00 0.  1.
         21    1    1    2  504  501 -0.18474851298E+03  0.19154061876E+03 -0.12092293721E+03  0.29230494082E+03  0.00000000000E+00 0.  1.
<mgrwt>
<rscale>  4 0.31490689E+03</rscale>
<asrwt>0</asrwt>
<pdfrwt beam="1">  1       21 0.71469772E-01 0.31490689E+03</pdfrwt>
<pdfrwt beam="2">  1       21 0.43895353E-01 0.31490689E+03</pdfrwt>
<totfact> 0.82335593E+03</totfact>
</mgrwt>
</event>
<event>
 5    0  0.1856407E+000  0.2766923E+03  0.7546771E-02  0.1097509E+00
         21   -1    0    0  502  501  0.00000000000E+00  0.00000000000E+00  0.16291239835E+03  0.16291239835E+03  0.00000000000E+00 0.  1.
         21   -1    0    0  503  502 -0.00000000000E+00 -0.00000000000E+00 -0.52216590806E+03  0.52216590806E+03  0.00000000000E+00 0. -1.
         25    1    1    2    0    0 -0.15804220531E+03  0.18962151171E+03 -0.41919230020E+02  0.27984974219E+03  0.12500000000E+03 0.  0.
         21    1    1    2  503  504  0.13924667974E+03 -0.13836795439E+03 -0.23175377232E+03  0.30371884961E+03  0.00000000000E+00 0. -1.
         21    1    1    2  504  501  0.18795525564E+02 -0.51253557314E+02 -0.85580507372E+02  0.10150971461E+03  0.00000000000E+00 0. -1.
<mgrwt>
<rscale>  4 0.27669235E+03</rscale>
<asrwt>0</asrwt>
<pdfrwt beam="1">  1       21 0.25063446E-01 0.27669235E+03</pdfrwt>
<pdfrwt beam="2">  1       21 0.80333216E-01 0.27669235E+03</pdfrwt>
<totfact> 0.19651105E+04</totfact>
</mgrwt>
</event>
<event>
 5    0  0.1856407E+000  0.3708377E+03  0.7546771E-02  0.1054373E+00
         21   -1    0    0  502  501  0.00000000000E+00  0.00000000000E+00  0.90572895919E+03  0.90572895919E+03  0.00000000000E+00 0. -1.
         21   -1    0    0  503  502 -0.00000000000E+00 -0.00000000000E+00 -0.23415371879E+03  0.23415371879E+03  0.00000000000E+00 0. -1.
         25    1    1    2    0    0  0.34895146695E+03 -0.11333625689E+02  0.69258534824E+03  0.78561761816E+03  0.12500000000E+03 0.  0.
         21    1    1    2  503  504 -0.29395864961E+03  0.83066981698E+01  0.32226475483E+01  0.29409364898E+03  0.00000000000E+00 0. -1.
         21    1    1    2  504  501 -0.54992817343E+02  0.30269275194E+01 -0.24232755394E+02  0.60171410848E+02  0.00000000000E+00 0. -1.
<mgrwt>
<rscale>  4 0.37083767E+03</rscale>
<asrwt>0</asrwt>
<pdfrwt beam="1">  1       21 0.13934291E+00 0.37083767E+03</pdfrwt>
<pdfrwt beam="2">  1       21 0.36023650E-01 0.37083767E+03</pdfrwt>
<totfact> 0.23950242E+03</totfact>
</mgrwt>
</event>
<event>
 5    0  0.1856407E+000  0.2645687E+03  0.7546771E-02  0.1104429E+00
         21   -1    0    0  502  501  0.00000000000E+00  0.00000000000E+00  0.78620155414E+03  0.78620155414E+03  0.00000000000E+00 0. -1.
         21   -1    0    0  503  502 -0.00000000000E+00 -0.00000000000E+00 -0.19848277558E+03  0.19848277558E+03  0.00000000000E+00 0. -1.
         25    1    1    2    0    0  0.19714156318E+03  0.14210751185E+03  0.62269080969E+03  0.68002072419E+03  0.12500000000E+03 0.  0.
         21    1    1    2  503  504 -0.26280313631E+02 -0.27872407521E+02 -0.84910559108E+02  0.93152182119E+02  0.00000000000E+00 0. -1.
         21    1    1    2  504  501 -0.17086124955E+03 -0.11423510432E+03  0.49938527976E+02  0.21151142341E+03  0.00000000000E+00 0. -1.
<mgrwt>
<rscale>  4 0.26456866E+03</rscale>
<asrwt>0</asrwt>
<pdfrwt beam="1">  1       21 0.12095408E+00 0.26456866E+03</pdfrwt>
<pdfrwt beam="2">  1       21 0.30535812E-01 0.26456866E+03</pdfrwt>
<totfact> 0.50675480E+03</totfact>
</mgrwt>
</event>
<event>
 5    0  0.2102611E+000  0.2708296E+03  0.7546771E-02  0.1100806E+00
         21   -1    0    0  502  501  0.00000000000E+00  0.00000000000E+00  0.61418392143E+03  0.61418392143E+03  0.00000000000E+00 0. -1.
         21   -1    0    0  503  502 -0.00000000000E+00 -0.00000000000E+00 -0.19647724987E+03  0.19647724987E+03  0.00000000000E+00 0. -1.
         25    1    1    2    0    0 -0.61543803493E+02  0.26747835025E+03  0.35648454851E+03  0.46694597217E+03  0.12500000000E+03 0.  0.
         21    1    1    2  503  504 -0.57314849653E+02 -0.66508998874E+02  0.66546924877E+02  0.11016774543E+03  0.00000000000E+00 0. -1.
         21    1    1    2  504  501  0.11885865315E+03 -0.20096935137E+03 -0.53248018305E+01  0.23354745371E+03  0.00000000000E+00 0. -1.
<mgrwt>
<rscale>  4 0.27082957E+03</rscale>
<asrwt>0</asrwt>
<pdfrwt beam="1">  1       21 0.94489833E-01 0.27082957E+03</pdfrwt>
<pdfrwt beam="2">  1       21 0.30227269E-01 0.27082957E+03</pdfrwt>
<totfact> 0.93888649E+03</totfact>
</mgrwt>
</event>
