<event>
 5    0  0.1911311E+001  0.3978748E+03  0.7546771E-02  0.1044518E+00
         21   -1    0    0  503  501  0.00000000000E+00  0.00000000000E+00  0.55045699040E+03  0.55045699040E+03  0.00000000000E+00 0. -1.
         21   -1    0    0  504  502 -0.00000000000E+00 -0.00000000000E+00 -0.28568111310E+03  0.28568111310E+03  0.00000000000E+00 0. -1.
         25    1    1    2    0    0  0.36892254147E+03  0.81089400239E+02  0.19612768987E+03  0.44358810080E+03  0.12500000000E+03 0.  0.
         21    1    1    2  503  502 -0.25036923553E+03 -0.92660794419E+02  0.39004859814E+02  0.26980021500E+03  0.00000000000E+00 0. -1.
         21    1    1    2  504  501 -0.11855330593E+03  0.11571394180E+02  0.29643327617E+02  0.12274978771E+03  0.00000000000E+00 0. -1.
<mgrwt>
<rscale>  4 0.39787477E+03</rscale>
<asrwt>0</asrwt>
<pdfrwt beam="1">  1       21 0.84685691E-01 0.39787477E+03</pdfrwt>
<pdfrwt beam="2">  1       21 0.43950940E-01 0.39787477E+03</pdfrwt>
<totfact> 0.53882005E+03</totfact>
</mgrwt>
</event>
<event>
 5    0  0.2125217E+001  0.3354397E+03  0.7546771E-02  0.1068755E+00
         21   -1    0    0  503  501  0.00000000000E+00  0.00000000000E+00  0.23602118428E+03  0.23602118428E+03  0.00000000000E+00 0. -1.
         21   -1    0    0  504  502 -0.00000000000E+00 -0.00000000000E+00 -0.64249340608E+03  0.64249340608E+03  0.00000000000E+00 0. -1.
         25    1    1    2    0    0  0.32577422897E+03  0.55136698090E+02 -0.21012989410E+03  0.41103342460E+03  0.12500000000E+03 0.  0.
         21    1    1    2  503  502 -0.30898504362E+02  0.49794719026E+01 -0.16152887649E+03  0.16453294701E+03  0.00000000000E+00 0.  1.
         21    1    1    2  504  501 -0.29487572461E+03 -0.60116169993E+02 -0.34813451199E+02  0.30294821875E+03  0.00000000000E+00 0. -1.
<mgrwt>
<rscale>  4 0.33543967E+03</rscale>
<asrwt>0</asrwt>
<pdfrwt beam="1">  1       21 0.36310952E-01 0.33543967E+03</pdfrwt>
<pdfrwt beam="2">  1       21 0.98845137E-01 0.33543967E+03</pdfrwt>
<totfact> 0.56726079E+03</totfact>
</mgrwt>
</event>
<event>
 5    0  0.1911311E+001  0.3068489E+03  0.7546771E-02  0.1081866E+00
         21   -1    0    0  502  501  0.00000000000E+00  0.00000000000E+00  0.17021729000E+04  0.17021729000E+04  0.00000000000E+00 0. -1.
         21   -1    0    0  504  502 -0.00000000000E+00 -0.00000000000E+00 -0.72561689692E+02  0.72561689692E+02  0.00000000000E+00 0. -1.
         25    1    1    2    0    0  0.19555558941E+02 -0.28198560876E+03  0.78170489910E+03  0.84058661226E+03  0.12500000000E+03 0.  0.
         21    1    1    2  503  501  0.33547164157E+01  0.27879835719E+03  0.86273598312E+03  0.90667147009E+03  0.00000000000E+00 0. -1.
         21    1    1    2  504  503 -0.22910275357E+02  0.31872515734E+01 -0.14829671881E+02  0.27476507377E+02  0.00000000000E+00 0. -1.
<mgrwt>
<rscale>  4 0.30684885E+03</rscale>
<asrwt>0</asrwt>
<pdfrwt beam="1">  1       21 0.26187273E+00 0.30684885E+03</pdfrwt>
<pdfrwt beam="2">  1       21 0.11163338E-01 0.30684885E+03</pdfrwt>
<totfact> 0.34237897E+03</totfact>
</mgrwt>
</event>
<event>
 5    0  0.1911311E+001  0.2617961E+03  0.7546771E-02  0.1106069E+00
         21   -1    0    0  502  501  0.00000000000E+00  0.00000000000E+00  0.53953205575E+03  0.53953205575E+03  0.00000000000E+00 0. -1.
         21   -1    0    0  504  502 -0.00000000000E+00 -0.00000000000E+00 -0.36357695288E+03  0.36357695288E+03  0.00000000000E+00 0. -1.
         25    1    1    2    0    0  0.17674194573E+03 -0.10203599445E+03  0.16457681748E+03  0.29044722136E+03  0.12500000000E+03 0.  0.
         21    1    1    2  503  501 -0.88305841326E+01 -0.64652397630E+02  0.26082014532E+03  0.26885881042E+03  0.00000000000E+00 0. -1.
         21    1    1    2  504  503 -0.16791136159E+03  0.16668839208E+03 -0.24944185993E+03  0.34380297686E+03  0.00000000000E+00 0. -1.
<mgrwt>
<rscale>  4 0.26179612E+03</rscale>
<asrwt>0</asrwt>
<pdfrwt beam="1">  1       21 0.83004932E-01 0.26179612E+03</pdfrwt>
<pdfrwt beam="2">  1       21 0.55934916E-01 0.26179612E+03</pdfrwt>
<totfact> 0.36217965E+03</totfact>
</mgrwt>
</event>
