<event>
 5    0  0.2159162E+000  0.2257649E+03  0.7546771E-02  0.1129657E+00
         21   -1    0    0  502  501  0.00000000000E+00  0.00000000000E+00  0.21076298331E+03  0.21076298331E+03  0.00000000000E+00 0. -1.
         21   -1    0    0  503  502 -0.00000000000E+00 -0.00000000000E+00 -0.33458995259E+03  0.33458995259E+03  0.00000000000E+00 0. -1.
         25    1    1    2    0    0  0.82262422732E+02 -0.20249664496E+03  0.20344735770E+02  0.25260820590E+03  0.12500000000E+03 0.  0.
         21    1    1    2  503  504 -0.84727173366E+02  0.44964916043E+02 -0.40344451643E+02  0.10405869670E+03  0.00000000000E+00 0.  1.
         21    1    1    2  504  501  0.24647506337E+01  0.15753172891E+03 -0.10382725341E+03  0.18868603330E+03  0.00000000000E+00 0. -1.
<mgrwt>
<rscale>  4 0.22576486E+03</rscale>
<asrwt>0</asrwt>
<pdfrwt beam="1">  1       21 0.32425074E-01 0.22576486E+03</pdfrwt>
<pdfrwt beam="2">  1       21 0.51475377E-01 0.22576486E+03</pdfrwt>
<totfact> 0.32256550E+04</totfact>
</mgrwt>
</event>
<event>
 5    0  0.2394088E+000  0.2690628E+03  0.7546771E-02  0.1101817E+00
         21   -1    0    0  502  501  0.00000000000E+00  0.00000000000E+00  0.10921216319E+04  0.10921216319E+04  0.00000000000E+00 0.  1.
         21   -1    0    0  503  502 -0.00000000000E+00 -0.00000000000E+00 -0.14366415508E+03  0.14366415508E+03  0.00000000000E+00 0.  1.
         25    1    1    2    0    0 -0.15803125210E+03 -0.17831409100E+03  0.94695170822E+03  0.98443503055E+03  0.12500000000E+03 0.  0.
         21    1    1    2  503  504  0.30714020926E+02  0.27571569381E+02  0.31299507292E+02  0.51799630078E+02  0.00000000000E+00 0.  1.
         21    1    1    2  504  501  0.12731723118E+03  0.15074252162E+03 -0.29793738651E+02  0.19955112638E+03  0.00000000000E+00 0.  1.
<mgrwt>
<rscale>  4 0.26906280E+03</rscale>
<asrwt>0</asrwt>
<pdfrwt beam="1">  1       21 0.16801871E+00 0.26906280E+03</pdfrwt>
<pdfrwt beam="2">  1       21 0.22102178E-01 0.26906280E+03</pdfrwt>
<totfact> 0.39750293E+03</totfact>
</mgrwt>
</event>
<event>
 5    0  0.2159162E+000  0.2296752E+03  0.7546771E-02  0.1126869E+00
         21   -1    0    0  502  501  0.00000000000E+00  0.00000000000E+00  0.50462242651E+03  0.50462242651E+03  0.00000000000E+00 0.  1.
         21   -1    0    0  503  502 -0.00000000000E+00 -0.00000000000E+00 -0.77283648275E+03  0.77283648275E+03  0.00000000000E+00 0. -1.
         25    1    1    2    0    0 -0.23012005800E+03 -0.19158690201E+03  0.37111016323E+03  0.49295895911E+03  0.12500000000E+03 0.  0.
         21    1    1    2  503  504  0.94652226408E+02  0.59295242650E+02  0.61163804803E+01  0.11185874966E+03  0.00000000000E+00 0. -1.
         21    1    1    2  504  501  0.13546783159E+03  0.13229165936E+03 -0.64544059995E+03  0.67264120049E+03  0.00000000000E+00 0. -1.
<mgrwt>
<rscale>  4 0.22967516E+03</rscale>
<asrwt>0</asrwt>
<pdfrwt beam="1">  1       21 0.77634219E-01 0.22967516E+03</pdfrwt>
<pdfrwt beam="2">  1       21 0.11889792E+00 0.22967516E+03</pdfrwt>
<totfact> 0.76662339E+02</totfact>
</mgrwt>
</event>
<event>
 5    0  0.2159162E+000  0.2526433E+03  0.7546771E-02  0.1111646E+00
         21   -1    0    0  502  501  0.00000000000E+00  0.00000000000E+00  0.46504058981E+02  0.46504058981E+02  0.00000000000E+00 0. -1.
         21   -1    0    0  503  502 -0.00000000000E+00 -0.00000000000E+00 -0.12934549325E+04  0.12934549325E+04  0.00000000000E+00 0. -1.
         25    1    1    2    0    0  0.63964002150E+02 -0.21002914427E+03 -0.74203376248E+03  0.78386398034E+03  0.12500000000E+03 0.  0.
         21    1    1    2  503  504 -0.45952910425E+02  0.14298644213E+03 -0.24770989589E+03  0.28968428527E+03  0.00000000000E+00 0. -1.
         21    1    1    2  504  501 -0.18011091725E+02  0.67042702139E+02 -0.25720721511E+03  0.26641072583E+03  0.00000000000E+00 0. -1.
<mgrwt>
<rscale>  4 0.25264330E+03</rscale>
<asrwt>0</asrwt>
<pdfrwt beam="1">  1       21 0.71544703E-02 0.25264330E+03</pdfrwt>
<pdfrwt beam="2">  1       21 0.19899307E+00 0.25264330E+03</pdfrwt>
<totfact> 0.19052647E+04</totfact>
</mgrwt>
</event>
<event>
 5    0  0.2159162E+000  0.2696703E+03  0.7546771E-02  0.1101468E+00
         21   -1    0    0  502  501  0.00000000000E+00  0.00000000000E+00  0.12635884128E+04  0.12635884128E+04  0.00000000000E+00 0.  1.
         21   -1    0    0  503  502 -0.00000000000E+00 -0.00000000000E+00 -0.54657786997E+02  0.54657786997E+02  0.00000000000E+00 0.  1.
         25    1    1    2    0    0  0.23861733032E+03 -0.12603134809E+02  0.62938647293E+03  0.68472578573E+03  0.12500000000E+03 0.  0.
         21    1    1    2  503  504 -0.77268062863E+02  0.29287742042E+02  0.11606167594E+03  0.14247258681E+03  0.00000000000E+00 0.  1.
         21    1    1    2  504  501 -0.16134926745E+03 -0.16684607233E+02  0.46348247697E+03  0.49104782729E+03  0.00000000000E+00 0.  1.
<mgrwt>
<rscale>  4 0.26967030E+03</rscale>
<asrwt>0</asrwt>
<pdfrwt beam="1">  1       21 0.19439820E+00 0.26967030E+03</pdfrwt>
<pdfrwt beam="2">  1       21 0.84088913E-02 0.26967030E+03</pdfrwt>
<totfact> 0.15242579E+04</totfact>
</mgrwt>
</event>
<event>
 5    0  0.2679394E+000  0.2426258E+03  0.7546771E-02  0.1118056E+00
         21   -1    0    0  502  501  0.00000000000E+00  0.00000000000E+00  0.12012543712E+03  0.12012543712E+03  0.00000000000E+00 0. -1.
         21   -1    0    0  503  502 -0.00000000000E+00 -0.00000000000E+00 -0.44272855839E+03  0.44272855839E+03  0.00000000000E+00 0. -1.
         25    1    1    2    0    0  0.14479508296E+03 -0.14925373527E+03 -0.14916705460E+03  0.28481240092E+03  0.12500000000E+03 0.  0.
         21    1    1    2  503  504 -0.14308028888E+01  0.24272557255E+02 -0.69865577310E+01  0.25298541885E+02  0.00000000000E+00 0. -1.
         21    1    1    2  504  501 -0.14336428007E+03  0.12498117801E+03 -0.16644950894E+03  0.25274305270E+03  0.00000000000E+00 0. -1.
<mgrwt>
<rscale>  4 0.24262583E+03</rscale>
<asrwt>0</asrwt>
<pdfrwt beam="1">  1       21 0.18480837E-01 0.24262583E+03</pdfrwt>
<pdfrwt beam="2">  1       21 0.68112085E-01 0.24262583E+03</pdfrwt>
<totfact> 0.51434175E+04</totfact>
</mgrwt>
</event>
<event>
 5    0  0.2159162E+000  0.4237835E+03  0.7546771E-02  0.1035842E+00
         21   -1    0    0  502  501  0.00000000000E+00  0.00000000000E+00  0.93368418598E+03  0.93368418598E+03  0.00000000000E+00 0.  1.
         21   -1    0    0  503  502 -0.00000000000E+00 -0.00000000000E+00 -0.32292592845E+03  0.32292592845E+03  0.00000000000E+00 0. -1.
         25    1    1    2    0    0 -0.14023209846E+03 -0.37987161057E+03  0.71881654742E+03  0.83443975864E+03  0.12500000000E+03 0.  0.
         21    1    1    2  503  504 -0.19813355478E+01  0.25498111622E+02 -0.12915267535E+02  0.28651064942E+02  0.00000000000E+00 0. -1.
         21    1    1    2  504  501  0.14221343401E+03  0.35437349895E+03 -0.95143022352E+02  0.39351929085E+03  0.00000000000E+00 0. -1.
<mgrwt>
<rscale>  4 0.42378353E+03</rscale>
<asrwt>0</asrwt>
<pdfrwt beam="1">  1       21 0.14364372E+00 0.42378353E+03</pdfrwt>
<pdfrwt beam="2">  1       21 0.49680912E-01 0.42378353E+03</pdfrwt>
<totfact> 0.11077259E+03</totfact>
</mgrwt>
</event>
<event>
 5    0  0.2159162E+000  0.2459729E+03  0.7546771E-02  0.1115877E+00
         21   -1    0    0  502  501  0.00000000000E+00  0.00000000000E+00  0.52482845643E+03  0.52482845643E+03  0.00000000000E+00 0.  1.
         21   -1    0    0  503  502 -0.00000000000E+00 -0.00000000000E+00 -0.15459736501E+03  0.15459736501E+03  0.00000000000E+00 0.  1.
         25    1    1    2    0    0 -0.20221474307E+03  0.63141644985E+02  0.39231549427E+03  0.46304871957E+03  0.12500000000E+03 0.  0.
         21    1    1    2  503  504  0.39707224961E+02 -0.24920774692E+02  0.53941580174E+01  0.47189041801E+02  0.00000000000E+00 0.  1.
         21    1    1    2  504  501  0.16250751811E+03 -0.38220870293E+02 -0.27478560870E+02  0.16918806008E+03  0.00000000000E+00 0.  1.
<mgrwt>
<rscale>  4 0.24597290E+03</rscale>
<asrwt>0</asrwt>
<pdfrwt beam="1">  1       21 0.80742839E-01 0.24597290E+03</pdfrwt>
<pdfrwt beam="2">  1       21 0.23784210E-01 0.24597290E+03</pdfrwt>
<totfact> 0.21786155E+04</totfact>
</mgrwt>
</event>
