<event>
 5    0  0.2465569E-003  0.5779411E+03  0.7546771E-02  0.9952259E-01
         -1   -1    0    0    0  501 -0.00000000000E+00  0.00000000000E+00  0.23253208612E+03  0.23253208612E+03  0.00000000000E+00 0. -1.
          1   -1    0    0  502    0  0.00000000000E+00 -0.00000000000E+00 -0.70277646278E+03  0.70277646278E+03  0.00000000000E+00 0.  1.
         25    1    1    2    0    0 -0.22099639976E+03 -0.13575716585E+03 -0.64976133634E+02  0.29515473015E+03  0.12500000000E+03 0.  0.
         21    1    1    2  502  503  0.12874833685E+03  0.54221723336E+02 -0.47742905543E+03  0.49744812040E+03  0.00000000000E+00 0.  1.
         21    1    1    2  503  501  0.92248062909E+02  0.81535442516E+02  0.72160812395E+02  0.14270569835E+03  0.00000000000E+00 0.  1.
<mgrwt>
<rscale>  4 0.57794108E+03</rscale>
<asrwt>0</asrwt>
<pdfrwt beam="1">  1        1 0.10811945E+00 0.57794108E+03</pdfrwt>
<pdfrwt beam="2">  1       -1 0.35774168E-01 0.57794108E+03</pdfrwt>
<totfact> 0.20684131E+02</totfact>
</mgrwt>
</event>
<event>
 5    0  0.2465569E-003  0.7291603E+03  0.7546771E-02  0.9668624E-01
          2   -1    0    0  502    0  0.00000000000E+00  0.00000000000E+00  0.37619106832E+03  0.37619106832E+03  0.00000000000E+00 0.  1.
         -2   -1    0    0    0  501 -0.00000000000E+00 -0.00000000000E+00 -0.74252045854E+03  0.74252045854E+03  0.00000000000E+00 0. -1.
         25    1    1    2    0    0 -0.20623263787E+03  0.69129818288E+02 -0.14603784951E+02  0.25129485318E+03  0.12500000000E+03 0.  0.
         21    1    1    2  502  503 -0.11205504392E+03  0.19611101770E+03  0.10644705073E+03  0.24969348959E+03  0.00000000000E+00 0.  1.
         21    1    1    2  503  501  0.31828768179E+03 -0.26524083599E+03 -0.45817265600E+03  0.61772318409E+03  0.00000000000E+00 0. -1.
<mgrwt>
<rscale>  4 0.72916033E+03</rscale>
<asrwt>0</asrwt>
<pdfrwt beam="1">  1        2 0.57875549E-01 0.72916033E+03</pdfrwt>
<pdfrwt beam="2">  1       -2 0.11423392E+00 0.72916033E+03</pdfrwt>
<totfact> 0.51702086E+01</totfact>
</mgrwt>
</event>
<event>
 5    0  0.2465569E-003  0.5010198E+03  0.7546771E-02  0.1013513E+00
         -2   -1    0    0    0  501 -0.00000000000E+00  0.00000000000E+00  0.10540880516E+03  0.10540880516E+03  0.00000000000E+00 0. -1.
          2   -1    0    0  503    0  0.00000000000E+00 -0.00000000000E+00 -0.23397397966E+04  0.23397397966E+04  0.00000000000E+00 0.  1.
         25    1    1    2    0    0 -0.15724581642E+03 -0.13585119663E+03 -0.58119202539E+03  0.62975468620E+03  0.12500000000E+03 0.  0.
         21    1    1    2  502  501  0.14324517024E+02  0.11811674940E+03  0.32716424484E+02  0.12339822814E+03  0.00000000000E+00 0. -1.
         21    1    1    2  503  502  0.14292129940E+03  0.17734447221E+02 -0.16858553905E+04  0.16919956874E+04  0.00000000000E+00 0. -1.
<mgrwt>
<rscale>  4 0.50101977E+03</rscale>
<asrwt>0</asrwt>
<pdfrwt beam="1">  1        2 0.35995995E+00 0.50101977E+03</pdfrwt>
<pdfrwt beam="2">  1       -2 0.16216740E-01 0.50101977E+03</pdfrwt>
<totfact> 0.14090305E+02</totfact>
</mgrwt>
</event>
<event>
 5    0  0.2465569E-003  0.5349745E+03  0.7546771E-02  0.1005033E+00
          2   -1    0    0  503    0  0.00000000000E+00  0.00000000000E+00  0.21211688387E+04  0.21211688387E+04  0.00000000000E+00 0.  1.
         -2   -1    0    0    0  501 -0.00000000000E+00 -0.00000000000E+00 -0.33731137708E+02  0.33731137708E+02  0.00000000000E+00 0. -1.
         25    1    1    2    0    0 -0.21325378399E+03  0.11893970496E+03  0.98964958720E+03  0.10269640380E+04  0.12500000000E+03 0.  0.
         21    1    1    2  502  501  0.46979085654E+02  0.89197467111E+01  0.16089537731E+03  0.16785088266E+03  0.00000000000E+00 0.  1.
         21    1    1    2  503  502  0.16627469833E+03 -0.12785945167E+03  0.93689273643E+03  0.96008505575E+03  0.00000000000E+00 0. -1.
<mgrwt>
<rscale>  4 0.53497453E+03</rscale>
<asrwt>0</asrwt>
<pdfrwt beam="1">  1        2 0.32633356E+00 0.53497453E+03</pdfrwt>
<pdfrwt beam="2">  1       -2 0.51894075E-02 0.53497453E+03</pdfrwt>
<totfact> 0.11591115E+03</totfact>
</mgrwt>
</event>
<event>
 5    0  0.2465569E-003  0.4524230E+03  0.7546771E-02  0.1027002E+00
         -1   -1    0    0    0  501 -0.00000000000E+00  0.00000000000E+00  0.11699695544E+03  0.11699695544E+03  0.00000000000E+00 0. -1.
          1   -1    0    0  503    0  0.00000000000E+00 -0.00000000000E+00 -0.77058770436E+03  0.77058770436E+03  0.00000000000E+00 0.  1.
         25    1    1    2    0    0  0.18312537913E+03  0.13167935619E+03 -0.36139475191E+03  0.44396567890E+03  0.12500000000E+03 0.  0.
         21    1    1    2  502  501 -0.85653621275E+02 -0.10585899492E+03 -0.17661533123E+01  0.13618292455E+03  0.00000000000E+00 0. -1.
         21    1    1    2  503  502 -0.97471757858E+02 -0.25820361276E+02 -0.29042984369E+03  0.30743605635E+03  0.00000000000E+00 0. -1.
<mgrwt>
<rscale>  4 0.45242299E+03</rscale>
<asrwt>0</asrwt>
<pdfrwt beam="1">  1        1 0.11855195E+00 0.45242299E+03</pdfrwt>
<pdfrwt beam="2">  1       -1 0.17999532E-01 0.45242299E+03</pdfrwt>
<totfact> 0.58181382E+02</totfact>
</mgrwt>
</event>
<event>
 5    0  0.2465569E-003  0.8450478E+03  0.7546771E-02  0.9497008E-01
          2   -1    0    0  503    0  0.00000000000E+00  0.00000000000E+00  0.45533556570E+03  0.45533556570E+03  0.00000000000E+00 0. -1.
         -2   -1    0    0    0  501 -0.00000000000E+00 -0.00000000000E+00 -0.57519484898E+03  0.57519484898E+03  0.00000000000E+00 0.  1.
         25    1    1    2    0    0 -0.35249939975E+03 -0.98544423874E+02 -0.42186047958E+02  0.38906489554E+03  0.12500000000E+03 0.  0.
         21    1    1    2  502  501 -0.96275847146E+02  0.54250280949E+02 -0.14836954034E+03  0.18500176277E+03  0.00000000000E+00 0. -1.
         21    1    1    2  503  502  0.44877524690E+03  0.44294142925E+02  0.70696305018E+02  0.45646375636E+03  0.00000000000E+00 0. -1.
<mgrwt>
<rscale>  4 0.84504785E+03</rscale>
<asrwt>0</asrwt>
<pdfrwt beam="1">  1        2 0.70051626E-01 0.84504785E+03</pdfrwt>
<pdfrwt beam="2">  1       -2 0.88491515E-01 0.84504785E+03</pdfrwt>
<totfact> 0.75843715E+01</totfact>
</mgrwt>
</event>
<event>
 5    0  0.2465569E-003  0.4761448E+03  0.7546771E-02  0.1020200E+00
         -1   -1    0    0    0  501 -0.00000000000E+00  0.00000000000E+00  0.14176598348E+03  0.14176598348E+03  0.00000000000E+00 0. -1.
          1   -1    0    0  502    0  0.00000000000E+00 -0.00000000000E+00 -0.78181776728E+03  0.78181776728E+03  0.00000000000E+00 0.  1.
         25    1    1    2    0    0  0.21614316521E+03 -0.10668291141E+03 -0.25577261798E+03  0.37301976296E+03  0.12500000000E+03 0.  0.
         21    1    1    2  502  503 -0.15218084061E+03 -0.82525757457E+02 -0.26918704252E+03  0.32004870372E+03  0.00000000000E+00 0. -1.
         21    1    1    2  503  501 -0.63962324601E+02  0.18920866887E+03 -0.11509212331E+03  0.23051528407E+03  0.00000000000E+00 0.  1.
<mgrwt>
<rscale>  4 0.47614483E+03</rscale>
<asrwt>0</asrwt>
<pdfrwt beam="1">  1        1 0.12027966E+00 0.47614483E+03</pdfrwt>
<pdfrwt beam="2">  1       -1 0.21810151E-01 0.47614483E+03</pdfrwt>
<totfact> 0.41390536E+02</totfact>
</mgrwt>
</event>
<event>
 5    0  0.2465569E-003  0.5701966E+03  0.7546771E-02  0.9969244E-01
         -2   -1    0    0    0  501 -0.00000000000E+00  0.00000000000E+00  0.52585006754E+02  0.52585006754E+02  0.00000000000E+00 0.  1.
          2   -1    0    0  503    0  0.00000000000E+00 -0.00000000000E+00 -0.33027477671E+04  0.33027477671E+04  0.00000000000E+00 0. -1.
         25    1    1    2    0    0  0.22017062006E+03  0.42469643917E+02 -0.10161092126E+04  0.10480370721E+04  0.12500000000E+03 0.  0.
         21    1    1    2  502  501  0.21590243334E+02  0.11225430006E+03 -0.93770617922E+02  0.14785159883E+03  0.00000000000E+00 0.  1.
         21    1    1    2  503  502 -0.24176086339E+03 -0.15472394398E+03 -0.21402829298E+04  0.21594441029E+04  0.00000000000E+00 0. -1.
<mgrwt>
<rscale>  4 0.57019657E+03</rscale>
<asrwt>0</asrwt>
<pdfrwt beam="1">  1        2 0.50811484E+00 0.57019657E+03</pdfrwt>
<pdfrwt beam="2">  1       -2 0.80900043E-02 0.57019657E+03</pdfrwt>
<totfact> 0.11754882E+02</totfact>
</mgrwt>
</event>
<event>
 5    0  0.2465569E-003  0.4659704E+03  0.7546771E-02  0.1023064E+00
         -4   -1    0    0    0  501 -0.00000000000E+00  0.00000000000E+00  0.41221956169E+03  0.41221956169E+03  0.00000000000E+00 0.  1.
          4   -1    0    0  502    0  0.00000000000E+00 -0.00000000000E+00 -0.27023389498E+03  0.27023389498E+03  0.00000000000E+00 0. -1.
         25    1    1    2    0    0 -0.12842017002E+03  0.17730287689E+03  0.82758768144E+02  0.26533387256E+03  0.12500000000E+03 0.  0.
         21    1    1    2  502  503 -0.64828606657E+02 -0.19044873914E+03 -0.30800945020E+02  0.20352436880E+03  0.00000000000E+00 0. -1.
         21    1    1    2  503  501  0.19324877668E+03  0.13145862248E+02  0.90027843592E+02  0.21359521531E+03  0.00000000000E+00 0. -1.
<mgrwt>
<rscale>  4 0.46597042E+03</rscale>
<asrwt>0</asrwt>
<pdfrwt beam="1">  1        4 0.41574445E-01 0.46597042E+03</pdfrwt>
<pdfrwt beam="2">  1       -4 0.63418394E-01 0.46597042E+03</pdfrwt>
<totfact> 0.25382510E+01</totfact>
</mgrwt>
</event>
<event>
 5    0  0.2465569E-003  0.7290749E+03  0.7546771E-02  0.9668763E-01
         -2   -1    0    0    0  501 -0.00000000000E+00  0.00000000000E+00  0.18657181165E+03  0.18657181165E+03  0.00000000000E+00 0. -1.
          2   -1    0    0  503    0  0.00000000000E+00 -0.00000000000E+00 -0.27234836464E+04  0.27234836464E+04  0.00000000000E+00 0.  1.
         25    1    1    2    0    0 -0.76606753227E+02  0.21280743044E+03 -0.48234281552E+03  0.54720671484E+03  0.12500000000E+03 0.  0.
         21    1    1    2  502  501 -0.17756019143E+03 -0.32441352464E+03 -0.92471502519E+02  0.38121219200E+03  0.00000000000E+00 0. -1.
         21    1    1    2  503  502  0.25416694466E+03  0.11160609420E+03 -0.19620975167E+04  0.19816365512E+04  0.00000000000E+00 0. -1.
<mgrwt>
<rscale>  4 0.72907487E+03</rscale>
<asrwt>0</asrwt>
<pdfrwt beam="1">  1        2 0.41899748E+00 0.72907487E+03</pdfrwt>
<pdfrwt beam="2">  1       -2 0.28703356E-01 0.72907487E+03</pdfrwt>
<totfact> 0.30116193E+01</totfact>
</mgrwt>
</event>
<event>
 5    0  0.2465569E-003  0.5052088E+03  0.7546771E-02  0.1012428E+00
         -2   -1    0    0    0  501 -0.00000000000E+00  0.00000000000E+00  0.19692963500E+02  0.19692963500E+02  0.00000000000E+00 0. -1.
          2   -1    0    0  503    0  0.00000000000E+00 -0.00000000000E+00 -0.39810938845E+04  0.39810938845E+04  0.00000000000E+00 0.  1.
         25    1    1    2    0    0  0.68461760924E+02  0.21429692690E+03 -0.12667227481E+04  0.12926026869E+04  0.12500000000E+03 0.  0.
         21    1    1    2  502  501 -0.12601588922E+02 -0.32435523260E+02 -0.88860306083E+02  0.95430693226E+02  0.00000000000E+00 0.  1.
         21    1    1    2  503  502 -0.55860172002E+02 -0.18186140364E+03 -0.26058178668E+04  0.26127534679E+04  0.00000000000E+00 0.  1.
<mgrwt>
<rscale>  4 0.50520875E+03</rscale>
<asrwt>0</asrwt>
<pdfrwt beam="1">  1        2 0.61247638E+00 0.50520875E+03</pdfrwt>
<pdfrwt beam="2">  1       -2 0.30296847E-02 0.50520875E+03</pdfrwt>
<totfact> 0.18130023E+02</totfact>
</mgrwt>
</event>
<event>
 5    0  0.2465569E-003  0.1010268E+04  0.7546771E-02  0.9297355E-01
          2   -1    0    0  502    0  0.00000000000E+00  0.00000000000E+00  0.21919757715E+03  0.21919757715E+03  0.00000000000E+00 0. -1.
         -2   -1    0    0    0  501 -0.00000000000E+00 -0.00000000000E+00 -0.20148320694E+04  0.20148320694E+04  0.00000000000E+00 0.  1.
         25    1    1    2    0    0 -0.21469431644E+03  0.18235606912E+03 -0.58829986333E+02  0.31374090066E+03  0.12500000000E+03 0.  0.
         21    1    1    2  502  503  0.21528278879E+03  0.77965860692E+02 -0.79063048955E+02  0.24223195556E+03  0.00000000000E+00 0. -1.
         21    1    1    2  503  501 -0.58847235720E+00 -0.26032192981E+03 -0.16577414570E+04  0.16780567904E+04  0.00000000000E+00 0.  1.
<mgrwt>
<rscale>  4 0.10102675E+04</rscale>
<asrwt>0</asrwt>
<pdfrwt beam="1">  1        2 0.33722704E-01 0.10102675E+04</pdfrwt>
<pdfrwt beam="2">  1       -2 0.30997417E+00 0.10102675E+04</pdfrwt>
<totfact> 0.43550733E+00</totfact>
</mgrwt>
</event>
<event>
 5    0  0.2465569E-003  0.5836613E+03  0.7546771E-02  0.9939896E-01
         -2   -1    0    0    0  501 -0.00000000000E+00  0.00000000000E+00  0.28792464849E+03  0.28792464849E+03  0.00000000000E+00 0.  1.
          2   -1    0    0  502    0  0.00000000000E+00 -0.00000000000E+00 -0.47972040503E+03  0.47972040503E+03  0.00000000000E+00 0. -1.
         25    1    1    2    0    0 -0.17070611907E+03  0.14957665341E+03  0.93031551504E+02  0.27530641821E+03  0.12500000000E+03 0.  0.
         21    1    1    2  502  503  0.12530920562E+03  0.89882441530E+02 -0.78680274747E+02  0.17312375904E+03  0.00000000000E+00 0.  1.
         21    1    1    2  503  501  0.45396913445E+02 -0.23945909494E+03 -0.20614703330E+03  0.31921487628E+03  0.00000000000E+00 0. -1.
<mgrwt>
<rscale>  4 0.58366125E+03</rscale>
<asrwt>0</asrwt>
<pdfrwt beam="1">  1        2 0.73803139E-01 0.58366125E+03</pdfrwt>
<pdfrwt beam="2">  1       -2 0.44296100E-01 0.58366125E+03</pdfrwt>
<totfact> 0.31642836E+02</totfact>
</mgrwt>
</event>
<event>
 5    0  0.2465569E-003  0.9810153E+03  0.7546771E-02  0.9329615E-01
         -2   -1    0    0    0  501 -0.00000000000E+00  0.00000000000E+00  0.61428347304E+03  0.61428347304E+03  0.00000000000E+00 0.  1.
          2   -1    0    0  503    0  0.00000000000E+00 -0.00000000000E+00 -0.62439179858E+03  0.62439179858E+03  0.00000000000E+00 0. -1.
         25    1    1    2    0    0  0.32129654953E+03  0.16678144362E+03  0.34724256129E+03  0.51696220272E+03  0.12500000000E+03 0.  0.
         21    1    1    2  502  501 -0.45736868324E+02  0.17275387444E+03 -0.16771566547E+03  0.24508020464E+03  0.00000000000E+00 0. -1.
         21    1    1    2  503  502 -0.27555968120E+03 -0.33953531806E+03 -0.18963522135E+03  0.47663286426E+03  0.00000000000E+00 0.  1.
<mgrwt>
<rscale>  4 0.98101533E+03</rscale>
<asrwt>0</asrwt>
<pdfrwt beam="1">  1        2 0.96060276E-01 0.98101533E+03</pdfrwt>
<pdfrwt beam="2">  1       -2 0.94505150E-01 0.98101533E+03</pdfrwt>
<totfact> 0.44462935E+01</totfact>
</mgrwt>
</event>
<event>
 5    0  0.2465569E-003  0.1004960E+04  0.7546771E-02  0.9303122E-01
          1   -1    0    0  502    0  0.00000000000E+00  0.00000000000E+00  0.81878011862E+03  0.81878011862E+03  0.00000000000E+00 0. -1.
         -1   -1    0    0    0  501 -0.00000000000E+00 -0.00000000000E+00 -0.40639502537E+03  0.40639502537E+03  0.00000000000E+00 0.  1.
         25    1    1    2    0    0  0.35416542784E+03 -0.24695419442E+03  0.15222382303E+03  0.47456992817E+03  0.12500000000E+03 0.  0.
         21    1    1    2  502  503 -0.49043626979E+03  0.25621456987E+03  0.26589356763E+03  0.61389985327E+03  0.00000000000E+00 0. -1.
         21    1    1    2  503  501  0.13627084194E+03 -0.92603754454E+01 -0.57322974151E+01  0.13670536255E+03  0.00000000000E+00 0.  1.
<mgrwt>
<rscale>  4 0.10049599E+04</rscale>
<asrwt>0</asrwt>
<pdfrwt beam="1">  1        1 0.12596617E+00 0.10049599E+04</pdfrwt>
<pdfrwt beam="2">  1       -1 0.62522312E-01 0.10049599E+04</pdfrwt>
<totfact> 0.55382123E+01</totfact>
</mgrwt>
</event>
<event>
 5    0  0.2465569E-003  0.7886662E+03  0.7546771E-02  0.9576569E-01
          1   -1    0    0  503    0  0.00000000000E+00  0.00000000000E+00  0.60773585680E+03  0.60773585680E+03  0.00000000000E+00 0. -1.
         -1   -1    0    0    0  501 -0.00000000000E+00 -0.00000000000E+00 -0.25586543270E+03  0.25586543270E+03  0.00000000000E+00 0.  1.
         25    1    1    2    0    0  0.12884832001E+03  0.35022568828E+03  0.10936073471E+03  0.40846626862E+03  0.12500000000E+03 0.  0.
         21    1    1    2  502  501 -0.91716664385E+02 -0.33009672179E+03  0.21005497992E+03  0.40186924099E+03  0.00000000000E+00 0.  1.
         21    1    1    2  503  502 -0.37131655626E+02 -0.20128966495E+02  0.32454709472E+02  0.53265779902E+02  0.00000000000E+00 0. -1.
<mgrwt>
<rscale>  4 0.78866621E+03</rscale>
<asrwt>0</asrwt>
<pdfrwt beam="1">  1        1 0.93497824E-01 0.78866621E+03</pdfrwt>
<pdfrwt beam="2">  1       -1 0.39363913E-01 0.78866621E+03</pdfrwt>
<totfact> 0.21315623E+02</totfact>
</mgrwt>
</event>
<event>
 5    0  0.2465569E-003  0.7674942E+03  0.7546771E-02  0.9608298E-01
          2   -1    0    0  502    0  0.00000000000E+00  0.00000000000E+00  0.22381277494E+04  0.22381277494E+04  0.00000000000E+00 0. -1.
         -2   -1    0    0    0  501 -0.00000000000E+00 -0.00000000000E+00 -0.10424743666E+03  0.10424743666E+03  0.00000000000E+00 0.  1.
         25    1    1    2    0    0  0.45236481496E+02  0.31725127805E+03  0.42191378030E+03  0.54436288512E+03  0.12500000000E+03 0.  0.
         21    1    1    2  502  503 -0.17304062216E+03  0.31509045608E+02  0.62835257638E+03  0.65250504758E+03  0.00000000000E+00 0. -1.
         21    1    1    2  503  501  0.12780414067E+03 -0.34876032366E+03  0.10836139560E+04  0.11455072533E+04  0.00000000000E+00 0.  1.
<mgrwt>
<rscale>  4 0.76749418E+03</rscale>
<asrwt>0</asrwt>
<pdfrwt beam="1">  1        2 0.34432731E+00 0.76749418E+03</pdfrwt>
<pdfrwt beam="2">  1       -2 0.16038069E-01 0.76749418E+03</pdfrwt>
<totfact> 0.15804122E+02</totfact>
</mgrwt>
</event>
<event>
 5    0  0.2465569E-003  0.1086193E+04  0.7546771E-02  0.9218754E-01
          2   -1    0    0  503    0  0.00000000000E+00  0.00000000000E+00  0.24276321505E+04  0.24276321505E+04  0.00000000000E+00 0.  1.
         -2   -1    0    0    0  501 -0.00000000000E+00 -0.00000000000E+00 -0.23893812279E+03  0.23893812279E+03  0.00000000000E+00 0. -1.
         25    1    1    2    0    0 -0.28555645068E+02 -0.27224086056E+03  0.14764015044E+03  0.33519117686E+03  0.12500000000E+03 0.  0.
         21    1    1    2  502  501 -0.33385776507E+03 -0.24535473399E+03  0.41297464200E+03  0.58498547651E+03  0.00000000000E+00 0.  1.
         21    1    1    2  503  502  0.36241341014E+03  0.51759559455E+03  0.16280792353E+04  0.17463936199E+04  0.00000000000E+00 0. -1.
<mgrwt>
<rscale>  4 0.10861933E+04</rscale>
<asrwt>0</asrwt>
<pdfrwt beam="1">  1        2 0.37348185E+00 0.10861933E+04</pdfrwt>
<pdfrwt beam="2">  1       -2 0.36759713E-01 0.10861933E+04</pdfrwt>
<totfact> 0.26763271E+01</totfact>
</mgrwt>
</event>
<event>
 5    0  0.2465569E-003  0.4421975E+03  0.7546771E-02  0.1030075E+00
          2   -1    0    0  503    0  0.00000000000E+00  0.00000000000E+00  0.19312398220E+04  0.19312398220E+04  0.00000000000E+00 0. -1.
         -2   -1    0    0    0  501 -0.00000000000E+00 -0.00000000000E+00 -0.76815110448E+02  0.76815110448E+02  0.00000000000E+00 0.  1.
         25    1    1    2    0    0 -0.23899997530E+03 -0.10837767191E+02  0.41742521318E+03  0.49709883724E+03  0.12500000000E+03 0.  0.
         21    1    1    2  502  501  0.14689086034E+03 -0.80030427008E+02  0.17407356017E+03  0.24141954860E+03  0.00000000000E+00 0. -1.
         21    1    1    2  503  502  0.92109114960E+02  0.90868194199E+02  0.12629259382E+04  0.12695365466E+04  0.00000000000E+00 0. -1.
<mgrwt>
<rscale>  4 0.44219748E+03</rscale>
<asrwt>0</asrwt>
<pdfrwt beam="1">  1        2 0.29711378E+00 0.44219748E+03</pdfrwt>
<pdfrwt beam="2">  1       -2 0.11817711E-01 0.44219748E+03</pdfrwt>
<totfact> 0.40022971E+02</totfact>
</mgrwt>
</event>
<event>
 5    0  0.2465569E-003  0.4615787E+03  0.7546771E-02  0.1024324E+00
         -2   -1    0    0    0  501 -0.00000000000E+00  0.00000000000E+00  0.53902536738E+02  0.53902536738E+02  0.00000000000E+00 0. -1.
          2   -1    0    0  503    0  0.00000000000E+00 -0.00000000000E+00 -0.17944944327E+04  0.17944944327E+04  0.00000000000E+00 0.  1.
         25    1    1    2    0    0  0.18790022693E+03 -0.16290804365E+03 -0.78083040975E+03  0.82895515847E+03  0.12500000000E+03 0.  0.
         21    1    1    2  502  501 -0.13800423166E+02  0.13901537531E+03 -0.23242574825E+03  0.27117790231E+03  0.00000000000E+00 0.  1.
         21    1    1    2  503  502 -0.17409980377E+03  0.23892668339E+02 -0.72733573794E+03  0.74826390863E+03  0.00000000000E+00 0.  1.
<mgrwt>
<rscale>  4 0.46157866E+03</rscale>
<asrwt>0</asrwt>
<pdfrwt beam="1">  1        2 0.27607611E+00 0.46157866E+03</pdfrwt>
<pdfrwt beam="2">  1       -2 0.82926965E-02 0.46157866E+03</pdfrwt>
<totfact> 0.83706700E+02</totfact>
</mgrwt>
</event>
<event>
 5    0  0.2465569E-003  0.4936594E+03  0.7546771E-02  0.1015447E+00
          2   -1    0    0  503    0  0.00000000000E+00  0.00000000000E+00  0.36866844150E+04  0.36866844150E+04  0.00000000000E+00 0.  1.
         -2   -1    0    0    0  501 -0.00000000000E+00 -0.00000000000E+00 -0.40621062910E+02  0.40621062910E+02  0.00000000000E+00 0. -1.
         25    1    1    2    0    0 -0.99962282250E+01  0.20131619848E+03  0.13499650209E+04  0.13706417089E+04  0.12500000000E+03 0.  0.
         21    1    1    2  502  501 -0.13209085346E+03 -0.11161672521E+03  0.25176951592E+03  0.30544095348E+03  0.00000000000E+00 0. -1.
         21    1    1    2  503  502  0.14208708168E+03 -0.89699473268E+02  0.20443288152E+04  0.20512228155E+04  0.00000000000E+00 0. -1.
<mgrwt>
<rscale>  4 0.49365936E+03</rscale>
<asrwt>0</asrwt>
<pdfrwt beam="1">  1        2 0.56718195E+00 0.49365936E+03</pdfrwt>
<pdfrwt beam="2">  1       -2 0.62493972E-02 0.49365936E+03</pdfrwt>
<totfact> 0.98684757E+01</totfact>
</mgrwt>
</event>
<event>
 5    0  0.2465569E-003  0.8280317E+03  0.7546771E-02  0.9520306E-01
          1   -1    0    0  502    0  0.00000000000E+00  0.00000000000E+00  0.92868357344E+03  0.92868357344E+03  0.00000000000E+00 0.  1.
         -1   -1    0    0    0  501 -0.00000000000E+00 -0.00000000000E+00 -0.30623937793E+03  0.30623937793E+03  0.00000000000E+00 0. -1.
         25    1    1    2    0    0 -0.25047466699E+03 -0.21017616761E+03  0.33456168293E+03  0.48421906191E+03  0.12500000000E+03 0.  0.
         21    1    1    2  502  503  0.42466945736E+03  0.20931545573E+03  0.32282299251E+03  0.57303733955E+03  0.00000000000E+00 0.  1.
         21    1    1    2  503  501 -0.17419479037E+03  0.86071188438E+00 -0.34940479937E+02  0.17766654991E+03  0.00000000000E+00 0. -1.
<mgrwt>
<rscale>  4 0.82803169E+03</rscale>
<asrwt>0</asrwt>
<pdfrwt beam="1">  1        1 0.14287439E+00 0.82803169E+03</pdfrwt>
<pdfrwt beam="2">  1       -1 0.47113751E-01 0.82803169E+03</pdfrwt>
<totfact> 0.78573828E+01</totfact>
</mgrwt>
</event>
