<event>
 5    0  0.2159162E+000  0.3647452E+03  0.7546771E-02  0.1056721E+00
         21   -1    0    0  502  501  0.00000000000E+00  0.00000000000E+00  0.46543992171E+03  0.46543992171E+03  0.00000000000E+00 0. -1.
         21   -1    0    0  503  502 -0.00000000000E+00 -0.00000000000E+00 -0.32050920832E+03  0.32050920832E+03  0.00000000000E+00 0. -1.
         25    1    1    2    0    0 -0.33362519604E+03  0.78155486603E+02  0.22781257159E+03  0.43004374114E+03  0.12500000000E+03 0.  0.
         21    1    1    2  503  504  0.29273372383E+03 -0.52614434457E+02 -0.64714464465E+02  0.30438343203E+03  0.00000000000E+00 0. -1.
         21    1    1    2  504  501  0.40891472207E+02 -0.25541052147E+02 -0.18167393734E+02  0.51521956864E+02  0.00000000000E+00 0. -1.
<mgrwt>
<rscale>  4 0.36474519E+03</rscale>
<asrwt>0</asrwt>
<pdfrwt beam="1">  1       21 0.71606142E-01 0.36474519E+03</pdfrwt>
<pdfrwt beam="2">  1       21 0.49309109E-01 0.36474519E+03</pdfrwt>
<totfact> 0.62949869E+03</totfact>
</mgrwt>
</event>
<event>
 5    0  0.2159162E+000  0.2526432E+03  0.7546771E-02  0.1111646E+00
         21   -1    0    0  502  501  0.00000000000E+00  0.00000000000E+00  0.19927403989E+03  0.19927403989E+03  0.00000000000E+00 0.  1.
         21   -1    0    0  503  502 -0.00000000000E+00 -0.00000000000E+00 -0.53400170020E+03  0.53400170020E+03  0.00000000000E+00 0.  1.
         25    1    1    2    0    0 -0.11730074669E+03  0.18559133004E+03  0.68793448279E+02  0.26184183296E+03  0.12500000000E+03 0.  0.
         21    1    1    2  503  504  0.98320142034E+01 -0.73709489027E+02 -0.21378307681E+03  0.22634699293E+03  0.00000000000E+00 0.  1.
         21    1    1    2  504  501  0.10746873248E+03 -0.11188184101E+03 -0.18973803178E+03  0.24508691420E+03  0.00000000000E+00 0.  1.
<mgrwt>
<rscale>  4 0.25264324E+03</rscale>
<asrwt>0</asrwt>
<pdfrwt beam="1">  1       21 0.30657545E-01 0.25264324E+03</pdfrwt>
<pdfrwt beam="2">  1       21 0.82154107E-01 0.25264324E+03</pdfrwt>
<totfact> 0.12761512E+04</totfact>
</mgrwt>
</event>
<event>
 5    0  0.2159162E+000  0.2452775E+03  0.7546771E-02  0.1116326E+00
         21   -1    0    0  502  501  0.00000000000E+00  0.00000000000E+00  0.20228992053E+03  0.20228992053E+03  0.00000000000E+00 0.  1.
         21   -1    0    0  503  502 -0.00000000000E+00 -0.00000000000E+00 -0.87244632090E+03  0.87244632090E+03  0.00000000000E+00 0.  1.
         25    1    1    2    0    0 -0.10135882985E+03 -0.18510119366E+03  0.10769844491E+03  0.26788060646E+03  0.12500000000E+03 0.  0.
         21    1    1    2  503  504  0.49180808040E+01  0.27893043962E+02 -0.14180799860E+03  0.14460884443E+03  0.00000000000E+00 0.  1.
         21    1    1    2  504  501  0.96440749046E+02  0.15720814969E+03 -0.63604684668E+03  0.66224679054E+03  0.00000000000E+00 0.  1.
<mgrwt>
<rscale>  4 0.24527753E+03</rscale>
<asrwt>0</asrwt>
<pdfrwt beam="1">  1       21 0.31121526E-01 0.24527753E+03</pdfrwt>
<pdfrwt beam="2">  1       21 0.13422251E+00 0.24527753E+03</pdfrwt>
<totfact> 0.37955798E+03</totfact>
</mgrwt>
</event>
<event>
 5    0  0.2159162E+000  0.2554596E+03  0.7546771E-02  0.1109902E+00
         21   -1    0    0  502  501  0.00000000000E+00  0.00000000000E+00  0.80254001092E+02  0.80254001092E+02  0.00000000000E+00 0. -1.
         21   -1    0    0  503  502 -0.00000000000E+00 -0.00000000000E+00 -0.91051828663E+03  0.91051828663E+03  0.00000000000E+00 0. -1.
         25    1    1    2    0    0 -0.16120408550E+03 -0.15377855093E+03 -0.20910728848E+03  0.33012945643E+03  0.12500000000E+03 0.  0.
         21    1    1    2  503  504  0.14603821450E+03  0.12964068454E+03 -0.51684627258E+03  0.55250695621E+03  0.00000000000E+00 0. -1.
         21    1    1    2  504  501  0.15165871008E+02  0.24137866390E+02 -0.10431072449E+03  0.10813587509E+03  0.00000000000E+00 0. -1.
<mgrwt>
<rscale>  4 0.25545959E+03</rscale>
<asrwt>0</asrwt>
<pdfrwt beam="1">  1       21 0.12346769E-01 0.25545959E+03</pdfrwt>
<pdfrwt beam="2">  1       21 0.14007974E+00 0.25545959E+03</pdfrwt>
<totfact> 0.19191703E+04</totfact>
</mgrwt>
</event>
<event>
 5    0  0.2159162E+000  0.2521530E+03  0.7546771E-02  0.1111952E+00
         21   -1    0    0  502  501  0.00000000000E+00  0.00000000000E+00  0.33038427496E+03  0.33038427496E+03  0.00000000000E+00 0.  1.
         21   -1    0    0  503  502 -0.00000000000E+00 -0.00000000000E+00 -0.13716972389E+04  0.13716972389E+04  0.00000000000E+00 0. -1.
         25    1    1    2    0    0  0.75196778003E+02 -0.23129909567E+03  0.25456299240E+03  0.37360559977E+03  0.12500000000E+03 0.  0.
         21    1    1    2  503  504 -0.64661828948E+02  0.20847971406E+03 -0.12805882938E+04  0.12990578592E+04  0.00000000000E+00 0. -1.
         21    1    1    2  504  501 -0.10534949055E+02  0.22819381615E+02 -0.15287662588E+02  0.29418054937E+02  0.00000000000E+00 0.  1.
<mgrwt>
<rscale>  4 0.25215300E+03</rscale>
<asrwt>0</asrwt>
<pdfrwt beam="1">  1       21 0.50828349E-01 0.25215300E+03</pdfrwt>
<pdfrwt beam="2">  1       21 0.21103035E+00 0.25215300E+03</pdfrwt>
<totfact> 0.39390859E+02</totfact>
</mgrwt>
</event>
<event>
 5    0  0.3127996E+000  0.3024898E+03  0.7546771E-02  0.1084003E+00
         21   -1    0    0  502  501  0.00000000000E+00  0.00000000000E+00  0.48319286229E+02  0.48319286229E+02  0.00000000000E+00 0. -1.
         21   -1    0    0  503  502 -0.00000000000E+00 -0.00000000000E+00 -0.18103532632E+04  0.18103532632E+04  0.00000000000E+00 0. -1.
         25    1    1    2    0    0  0.27253739785E+03 -0.39980945370E+02 -0.77833175775E+03  0.83504516905E+03  0.12500000000E+03 0.  0.
         21    1    1    2  503  504 -0.30009309562E+02  0.15760525765E+02 -0.20149151763E+03  0.20432274594E+03  0.00000000000E+00 0. -1.
         21    1    1    2  504  501 -0.24252808829E+03  0.24220419605E+02 -0.78221070157E+03  0.81930463442E+03  0.00000000000E+00 0. -1.
<mgrwt>
<rscale>  4 0.30248985E+03</rscale>
<asrwt>0</asrwt>
<pdfrwt beam="1">  1       21 0.74337359E-02 0.30248985E+03</pdfrwt>
<pdfrwt beam="2">  1       21 0.27851590E+00 0.30248985E+03</pdfrwt>
<totfact> 0.56257377E+03</totfact>
</mgrwt>
</event>
<event>
 5    0  0.2159162E+000  0.2670072E+03  0.7546771E-02  0.1103005E+00
         21   -1    0    0  502  501  0.00000000000E+00  0.00000000000E+00  0.49909509379E+02  0.49909509379E+02  0.00000000000E+00 0. -1.
         21   -1    0    0  503  502 -0.00000000000E+00 -0.00000000000E+00 -0.20795247994E+04  0.20795247994E+04  0.00000000000E+00 0. -1.
         25    1    1    2    0    0 -0.29832825275E+02  0.23404669921E+03 -0.40123213743E+03  0.48195444077E+03  0.12500000000E+03 0.  0.
         21    1    1    2  503  504  0.34266521615E+02 -0.13446969424E+03 -0.11811681360E+04  0.11892915785E+04  0.00000000000E+00 0. -1.
         21    1    1    2  504  501 -0.44336963397E+01 -0.99577004965E+02 -0.44721501662E+03  0.45818828953E+03  0.00000000000E+00 0.  1.
<mgrwt>
<rscale>  4 0.26700722E+03</rscale>
<asrwt>0</asrwt>
<pdfrwt beam="1">  1       21 0.76783888E-02 0.26700722E+03</pdfrwt>
<pdfrwt beam="2">  1       21 0.31992678E+00 0.26700722E+03</pdfrwt>
<totfact> 0.31185706E+03</totfact>
</mgrwt>
</event>
<event>
 5    0  0.2159162E+000  0.2439748E+03  0.7546771E-02  0.1117173E+00
         21   -1    0    0  502  501  0.00000000000E+00  0.00000000000E+00  0.10379763062E+04  0.10379763062E+04  0.00000000000E+00 0.  1.
         21   -1    0    0  503  502 -0.00000000000E+00 -0.00000000000E+00 -0.59408333487E+02  0.59408333487E+02  0.00000000000E+00 0.  1.
         25    1    1    2    0    0  0.20814495867E+03 -0.23966128481E+02  0.70113944390E+03  0.74237471598E+03  0.12500000000E+03 0.  0.
         21    1    1    2  503  504 -0.11670842412E+03 -0.16896426719E+02  0.11865481224E+03  0.16728810467E+03  0.00000000000E+00 0.  1.
         21    1    1    2  504  501 -0.91436534550E+02  0.40862555200E+02  0.15877371658E+03  0.18772181905E+03  0.00000000000E+00 0.  1.
<mgrwt>
<rscale>  4 0.24397479E+03</rscale>
<asrwt>0</asrwt>
<pdfrwt beam="1">  1       21 0.15968865E+00 0.24397479E+03</pdfrwt>
<pdfrwt beam="2">  1       21 0.91397444E-02 0.24397479E+03</pdfrwt>
<totfact> 0.23307029E+04</totfact>
</mgrwt>
</event>
