<event>
 5    0  0.1911311E+001  0.2446124E+03  0.7546771E-02  0.1116758E+00
         21   -1    0    0  504  501  0.00000000000E+00  0.00000000000E+00  0.73267539139E+03  0.73267539139E+03  0.00000000000E+00 0. -1.
         21   -1    0    0  503  502 -0.00000000000E+00 -0.00000000000E+00 -0.36240756407E+03  0.36240756407E+03  0.00000000000E+00 0. -1.
         25    1    1    2    0    0  0.14621959033E+03  0.14757463809E+03  0.51306055151E+03  0.56746327804E+03  0.12500000000E+03 0.  0.
         21    1    1    2  503  501  0.74362997359E+02 -0.69654104746E+02 -0.25023684054E+03  0.27018516992E+03  0.00000000000E+00 0. -1.
         21    1    1    2  504  502 -0.22058258769E+03 -0.77920533347E+02  0.10744411635E+03  0.25743450749E+03  0.00000000000E+00 0. -1.
<mgrwt>
<rscale>  4 0.24461236E+03</rscale>
<asrwt>0</asrwt>
<pdfrwt beam="1">  1       21 0.11271929E+00 0.24461236E+03</pdfrwt>
<pdfrwt beam="2">  1       21 0.55755010E-01 0.24461236E+03</pdfrwt>
<totfact> 0.17850921E+03</totfact>
</mgrwt>
</event>
<event>
 5    0  0.1911311E+001  0.2136550E+03  0.7546771E-02  0.1138704E+00
         21   -1    0    0  504  501  0.00000000000E+00  0.00000000000E+00  0.39765581315E+03  0.39765581315E+03  0.00000000000E+00 0. -1.
         21   -1    0    0  503  502 -0.00000000000E+00 -0.00000000000E+00 -0.28048561048E+03  0.28048561048E+03  0.00000000000E+00 0. -1.
         25    1    1    2    0    0  0.23320936162E+02 -0.21422174466E+03 -0.13214799768E+03  0.28199807666E+03  0.12500000000E+03 0.  0.
         21    1    1    2  503  501  0.15349353622E+01  0.47425915965E+02 -0.39471161022E+02  0.61721520429E+02  0.00000000000E+00 0. -1.
         21    1    1    2  504  502 -0.24855871525E+02  0.16679582870E+03  0.28878936138E+03  0.33442182654E+03  0.00000000000E+00 0. -1.
<mgrwt>
<rscale>  4 0.21365503E+03</rscale>
<asrwt>0</asrwt>
<pdfrwt beam="1">  1       21 0.61177818E-01 0.21365503E+03</pdfrwt>
<pdfrwt beam="2">  1       21 0.43151632E-01 0.21365503E+03</pdfrwt>
<totfact> 0.12658914E+04</totfact>
</mgrwt>
</event>
<event>
 5    0  0.1911311E+001  0.2406253E+03  0.7546771E-02  0.1119377E+00
         21   -1    0    0  503  501  0.00000000000E+00  0.00000000000E+00  0.18654668144E+04  0.18654668144E+04  0.00000000000E+00 0. -1.
         21   -1    0    0  504  502 -0.00000000000E+00 -0.00000000000E+00 -0.60937082990E+02  0.60937082990E+02  0.00000000000E+00 0. -1.
         25    1    1    2    0    0 -0.20665687654E+03  0.75811300125E+02  0.28507822352E+03  0.38124665425E+03  0.12500000000E+03 0.  0.
         21    1    1    2  503  502  0.16916778937E+03 -0.54704725579E+02  0.62838859953E+03  0.65305633752E+03  0.00000000000E+00 0. -1.
         21    1    1    2  504  501  0.37489087173E+02 -0.21106574546E+02  0.89106290838E+03  0.89210090564E+03  0.00000000000E+00 0. -1.
<mgrwt>
<rscale>  4 0.24062532E+03</rscale>
<asrwt>0</asrwt>
<pdfrwt beam="1">  1       21 0.28699485E+00 0.24062532E+03</pdfrwt>
<pdfrwt beam="2">  1       21 0.93749373E-02 0.24062532E+03</pdfrwt>
<totfact> 0.35052831E+03</totfact>
</mgrwt>
</event>
