<event>
 5    0  0.1911311E+001  0.1785095E+03  0.7546771E-02  0.1169253E+00
         21   -1    0    0  502  501  0.00000000000E+00  0.00000000000E+00  0.61567743300E+03  0.61567743300E+03  0.00000000000E+00 0.  1.
         21   -1    0    0  504  502 -0.00000000000E+00 -0.00000000000E+00 -0.10031037539E+04  0.10031037539E+04  0.00000000000E+00 0. -1.
         25    1    1    2    0    0  0.18861639853E+02  0.20856267694E+03 -0.20444830231E+03  0.31824245472E+03  0.12500000000E+03 0.  0.
         21    1    1    2  503  501 -0.10581762554E+02 -0.12478072856E+03  0.54932185629E+03  0.56341521608E+03  0.00000000000E+00 0.  1.
         21    1    1    2  504  503 -0.82798772995E+01 -0.83781948381E+02 -0.73229987488E+03  0.73712351610E+03  0.00000000000E+00 0. -1.
<mgrwt>
<rscale>  4 0.17850953E+03</rscale>
<asrwt>0</asrwt>
<pdfrwt beam="1">  1       21 0.94719606E-01 0.17850953E+03</pdfrwt>
<pdfrwt beam="2">  1       21 0.15432365E+00 0.17850953E+03</pdfrwt>
<totfact> 0.26340021E+02</totfact>
</mgrwt>
</event>
<event>
 5    0  0.1911311E+001  0.2566377E+03  0.7546771E-02  0.1109180E+00
         21   -1    0    0  502  501  0.00000000000E+00  0.00000000000E+00  0.63931841306E+02  0.63931841306E+02  0.00000000000E+00 0.  1.
         21   -1    0    0  504  502 -0.00000000000E+00 -0.00000000000E+00 -0.11329415982E+04  0.11329415982E+04  0.00000000000E+00 0.  1.
         25    1    1    2    0    0 -0.21680027142E+03 -0.24078212101E+02 -0.40952422370E+03  0.48053845609E+03  0.12500000000E+03 0.  0.
         21    1    1    2  503  501 -0.16292758098E+01 -0.46329691275E+02 -0.72207397216E+02  0.85807942791E+02  0.00000000000E+00 0.  1.
         21    1    1    2  504  503  0.21842954723E+03  0.70407903377E+02 -0.58727813597E+03  0.63052704062E+03  0.00000000000E+00 0.  1.
<mgrwt>
<rscale>  4 0.25663766E+03</rscale>
<asrwt>0</asrwt>
<pdfrwt beam="1">  1       21 0.98356681E-02 0.25663766E+03</pdfrwt>
<pdfrwt beam="2">  1       21 0.17429870E+00 0.25663766E+03</pdfrwt>
<totfact> 0.15952923E+04</totfact>
</mgrwt>
</event>
<event>
 5    0  0.1911311E+001  0.2035878E+03  0.7546771E-02  0.1146747E+00
         21   -1    0    0  502  501  0.00000000000E+00  0.00000000000E+00  0.74105251455E+03  0.74105251455E+03  0.00000000000E+00 0. -1.
         21   -1    0    0  504  502 -0.00000000000E+00 -0.00000000000E+00 -0.21763343986E+03  0.21763343986E+03  0.00000000000E+00 0. -1.
         25    1    1    2    0    0  0.46218330833E+02  0.20703347343E+03 -0.81554244907E+01  0.24635442796E+03  0.12500000000E+03 0.  0.
         21    1    1    2  503  501 -0.63019804284E+02 -0.14368007908E+03  0.59846081251E+03  0.61868473795E+03  0.00000000000E+00 0. -1.
         21    1    1    2  504  503  0.16801473452E+02 -0.63353394354E+02 -0.66886313327E+02  0.93646788503E+02  0.00000000000E+00 0. -1.
<mgrwt>
<rscale>  4 0.20358780E+03</rscale>
<asrwt>0</asrwt>
<pdfrwt beam="1">  1       21 0.11400808E+00 0.20358780E+03</pdfrwt>
<pdfrwt beam="2">  1       21 0.33482068E-01 0.20358780E+03</pdfrwt>
<totfact> 0.50995305E+03</totfact>
</mgrwt>
</event>
<event>
 5    0  0.1911311E+001  0.2725374E+03  0.7546771E-02  0.1099836E+00
         21   -1    0    0  502  501  0.00000000000E+00  0.00000000000E+00  0.85597594026E+03  0.85597594026E+03  0.00000000000E+00 0. -1.
         21   -1    0    0  504  502 -0.00000000000E+00 -0.00000000000E+00 -0.17967647162E+03  0.17967647162E+03  0.00000000000E+00 0. -1.
         25    1    1    2    0    0  0.95991033438E+02 -0.26375051550E+03  0.53666507932E+03  0.61839552092E+03  0.12500000000E+03 0.  0.
         21    1    1    2  503  501 -0.80561121753E+02  0.18834651296E+03  0.22366891770E+03  0.30330230469E+03  0.00000000000E+00 0. -1.
         21    1    1    2  504  503 -0.15429911686E+02  0.75404002540E+02 -0.84034528381E+02  0.11395458628E+03  0.00000000000E+00 0. -1.
<mgrwt>
<rscale>  4 0.27253740E+03</rscale>
<asrwt>0</asrwt>
<pdfrwt beam="1">  1       21 0.13168860E+00 0.27253740E+03</pdfrwt>
<pdfrwt beam="2">  1       21 0.27642535E-01 0.27253740E+03</pdfrwt>
<totfact> 0.49396768E+03</totfact>
</mgrwt>
</event>
<event>
 5    0  0.1911311E+001  0.2669677E+03  0.7546771E-02  0.1103028E+00
         21   -1    0    0  504  501  0.00000000000E+00  0.00000000000E+00  0.37081687005E+03  0.37081687005E+03  0.00000000000E+00 0.  1.
         21   -1    0    0  503  502 -0.00000000000E+00 -0.00000000000E+00 -0.15646435290E+04  0.15646435290E+04  0.00000000000E+00 0. -1.
         25    1    1    2    0    0 -0.11709032221E+03  0.22732595324E+03 -0.14026541008E+04  0.14312409856E+04  0.12500000000E+03 0.  0.
         21    1    1    2  503  501 -0.25056453668E+01 -0.24614656862E+02 -0.10729012783E+03  0.11010599948E+03  0.00000000000E+00 0. -1.
         21    1    1    2  504  502  0.11959596758E+03 -0.20271129638E+03  0.31611756969E+03  0.39411341389E+03  0.00000000000E+00 0.  1.
<mgrwt>
<rscale>  4 0.26696770E+03</rscale>
<asrwt>0</asrwt>
<pdfrwt beam="1">  1       21 0.57048749E-01 0.26696770E+03</pdfrwt>
<pdfrwt beam="2">  1       21 0.24071439E+00 0.26696770E+03</pdfrwt>
<totfact> 0.19911896E+02</totfact>
</mgrwt>
</event>
