<event>
 5    0  0.2159162E+000  0.2830246E+03  0.7546771E-02  0.1094048E+00
         21   -1    0    0  502  501  0.00000000000E+00  0.00000000000E+00  0.35112686902E+03  0.35112686902E+03  0.00000000000E+00 0.  1.
         21   -1    0    0  503  502 -0.00000000000E+00 -0.00000000000E+00 -0.35389569794E+03  0.35389569794E+03  0.00000000000E+00 0.  1.
         25    1    1    2    0    0 -0.24993476319E+03 -0.44839160538E+02  0.22198276288E+03  0.35969331824E+03  0.12500000000E+03 0.  0.
         21    1    1    2  503  504  0.13925032204E+03  0.52635823196E+02 -0.15133163613E+03  0.21227917036E+03  0.00000000000E+00 0.  1.
         21    1    1    2  504  501  0.11068444115E+03 -0.77966626581E+01 -0.73419955674E+02  0.13305007836E+03  0.00000000000E+00 0.  1.
<mgrwt>
<rscale>  4 0.28302462E+03</rscale>
<asrwt>0</asrwt>
<pdfrwt beam="1">  1       21 0.54019518E-01 0.28302462E+03</pdfrwt>
<pdfrwt beam="2">  1       21 0.54445492E-01 0.28302462E+03</pdfrwt>
<totfact> 0.97945616E+03</totfact>
</mgrwt>
</event>
<event>
 5    0  0.2159162E+000  0.6561979E+03  0.7546771E-02  0.9795218E-01
         21   -1    0    0  502  501  0.00000000000E+00  0.00000000000E+00  0.22893437438E+04  0.22893437438E+04  0.00000000000E+00 0.  1.
         21   -1    0    0  503  502 -0.00000000000E+00 -0.00000000000E+00 -0.45625402190E+03  0.45625402190E+03  0.00000000000E+00 0. -1.
         25    1    1    2    0    0 -0.16670721660E+03 -0.63007041075E+03  0.19231336453E+04  0.20344158956E+04  0.12500000000E+03 0.  0.
         21    1    1    2  503  504  0.67757254330E+02  0.43638105805E+02  0.56801891832E+02  0.98599111093E+02  0.00000000000E+00 0. -1.
         21    1    1    2  504  501  0.98949962274E+02  0.58643230495E+03 -0.14684581514E+03  0.61258275910E+03  0.00000000000E+00 0. -1.
<mgrwt>
<rscale>  4 0.65619794E+03</rscale>
<asrwt>0</asrwt>
<pdfrwt beam="1">  1       21 0.35220672E+00 0.65619794E+03</pdfrwt>
<pdfrwt beam="2">  1       21 0.70192928E-01 0.65619794E+03</pdfrwt>
<totfact> 0.20385069E+01</totfact>
</mgrwt>
</event>
<event>
 5    0  0.3170175E+000  0.2803994E+03  0.7546771E-02  0.1095471E+00
         21   -1    0    0  502  501  0.00000000000E+00  0.00000000000E+00  0.27499220321E+03  0.27499220321E+03  0.00000000000E+00 0. -1.
         21   -1    0    0  503  502 -0.00000000000E+00 -0.00000000000E+00 -0.28470171567E+03  0.28470171567E+03  0.00000000000E+00 0. -1.
         25    1    1    2    0    0 -0.98278476195E+02 -0.23095484042E+03  0.79666110771E+02  0.29149697495E+03  0.12500000000E+03 0.  0.
         21    1    1    2  503  504  0.66538144512E+01  0.21846468846E+02  0.49821895758E+00  0.22842715905E+02  0.00000000000E+00 0. -1.
         21    1    1    2  504  501  0.91624661744E+02  0.20910837158E+03 -0.89873842185E+02  0.24535422803E+03  0.00000000000E+00 0. -1.
<mgrwt>
<rscale>  4 0.28039935E+03</rscale>
<asrwt>0</asrwt>
<pdfrwt beam="1">  1       21 0.42306493E-01 0.28039935E+03</pdfrwt>
<pdfrwt beam="2">  1       21 0.43800264E-01 0.28039935E+03</pdfrwt>
<totfact> 0.25803431E+04</totfact>
</mgrwt>
</event>
<event>
 5    0  0.2159162E+000  0.2588076E+03  0.7546771E-02  0.1107862E+00
         21   -1    0    0  502  501  0.00000000000E+00  0.00000000000E+00  0.12694961582E+03  0.12694961582E+03  0.00000000000E+00 0.  1.
         21   -1    0    0  503  502 -0.00000000000E+00 -0.00000000000E+00 -0.77219425925E+03  0.77219425925E+03  0.00000000000E+00 0. -1.
         25    1    1    2    0    0  0.43771115311E+02  0.22235217333E+03 -0.57279625635E+02  0.26507047183E+03  0.12500000000E+03 0.  0.
         21    1    1    2  503  504  0.60249750343E+00 -0.16275099889E+03 -0.38820262746E+03  0.42093886802E+03  0.00000000000E+00 0. -1.
         21    1    1    2  504  501 -0.44373612815E+02 -0.59601174448E+02 -0.19976239033E+03  0.21313453521E+03  0.00000000000E+00 0. -1.
<mgrwt>
<rscale>  4 0.25880765E+03</rscale>
<asrwt>0</asrwt>
<pdfrwt beam="1">  1       21 0.19530711E-01 0.25880765E+03</pdfrwt>
<pdfrwt beam="2">  1       21 0.11879911E+00 0.25880765E+03</pdfrwt>
<totfact> 0.12542697E+04</totfact>
</mgrwt>
</event>
<event>
 5    0  0.2159162E+000  0.4961963E+03  0.7546771E-02  0.1014777E+00
         21   -1    0    0  502  501  0.00000000000E+00  0.00000000000E+00  0.25531058791E+03  0.25531058791E+03  0.00000000000E+00 0.  1.
         21   -1    0    0  503  502 -0.00000000000E+00 -0.00000000000E+00 -0.23465197691E+04  0.23465197691E+04  0.00000000000E+00 0.  1.
         25    1    1    2    0    0 -0.47320341007E+03  0.81634997338E+02 -0.44654972020E+02  0.49820157227E+03  0.12500000000E+03 0.  0.
         21    1    1    2  503  504  0.20649791313E+02  0.32706444961E+01 -0.42571530684E+02  0.47428327205E+02  0.00000000000E+00 0. -1.
         21    1    1    2  504  501  0.45255361875E+03 -0.84905641834E+02 -0.20039826785E+04  0.20562004575E+04  0.00000000000E+00 0.  1.
<mgrwt>
<rscale>  4 0.49619627E+03</rscale>
<asrwt>0</asrwt>
<pdfrwt beam="1">  1       21 0.39278551E-01 0.49619627E+03</pdfrwt>
<pdfrwt beam="2">  1       21 0.36100305E+00 0.49619627E+03</pdfrwt>
<totfact> 0.68751594E+01</totfact>
</mgrwt>
</event>
<event>
 5    0  0.2159162E+000  0.4400503E+03  0.7546771E-02  0.1030731E+00
         21   -1    0    0  502  501  0.00000000000E+00  0.00000000000E+00  0.10187940996E+03  0.10187940996E+03  0.00000000000E+00 0.  1.
         21   -1    0    0  503  502 -0.00000000000E+00 -0.00000000000E+00 -0.24478972822E+04  0.24478972822E+04  0.00000000000E+00 0.  1.
         25    1    1    2    0    0 -0.24158806069E+02 -0.42381819576E+03 -0.59553857822E+03  0.74195465435E+03  0.12500000000E+03 0.  0.
         21    1    1    2  503  504  0.50581291343E+02  0.41341751001E+03 -0.15358556559E+04  0.15913280932E+04  0.00000000000E+00 0.  1.
         21    1    1    2  504  501 -0.26422485274E+02  0.10400685741E+02 -0.21462363817E+03  0.21649394461E+03  0.00000000000E+00 0. -1.
<mgrwt>
<rscale>  4 0.44005034E+03</rscale>
<asrwt>0</asrwt>
<pdfrwt beam="1">  1       21 0.15673758E-01 0.44005034E+03</pdfrwt>
<pdfrwt beam="2">  1       21 0.37659952E+00 0.44005034E+03</pdfrwt>
<totfact> 0.34209280E+02</totfact>
</mgrwt>
</event>
<event>
 5    0  0.2159162E+000  0.3933552E+03  0.7546771E-02  0.1046105E+00
         21   -1    0    0  502  501  0.00000000000E+00  0.00000000000E+00  0.46283910708E+03  0.46283910708E+03  0.00000000000E+00 0.  1.
         21   -1    0    0  503  502 -0.00000000000E+00 -0.00000000000E+00 -0.14280898959E+04  0.14280898959E+04  0.00000000000E+00 0. -1.
         25    1    1    2    0    0 -0.27641207853E+03 -0.25039908805E+03  0.34643601850E+03  0.52416243224E+03  0.12500000000E+03 0.  0.
         21    1    1    2  503  504  0.28980941711E+02  0.26593264923E+02 -0.27281995404E+03  0.27564075179E+03  0.00000000000E+00 0. -1.
         21    1    1    2  504  501  0.24743113682E+03  0.22380582313E+03 -0.10388668533E+04  0.10911258190E+04  0.00000000000E+00 0. -1.
<mgrwt>
<rscale>  4 0.39335523E+03</rscale>
<asrwt>0</asrwt>
<pdfrwt beam="1">  1       21 0.71206018E-01 0.39335523E+03</pdfrwt>
<pdfrwt beam="2">  1       21 0.21970613E+00 0.39335523E+03</pdfrwt>
<totfact> 0.14896633E+02</totfact>
</mgrwt>
</event>
<event>
 5    0  0.2159162E+000  0.2337470E+03  0.7546771E-02  0.1124030E+00
         21   -1    0    0  502  501  0.00000000000E+00  0.00000000000E+00  0.18560638364E+04  0.18560638364E+04  0.00000000000E+00 0.  1.
         21   -1    0    0  503  502 -0.00000000000E+00 -0.00000000000E+00 -0.59600621569E+03  0.59600621569E+03  0.00000000000E+00 0.  1.
         25    1    1    2    0    0  0.16053766282E+03 -0.12069994620E+03  0.18164352995E+04  0.18317759185E+04  0.12500000000E+03 0.  0.
         21    1    1    2  503  504 -0.57241329677E+02  0.37784140137E+02 -0.43583009582E+03  0.44119392957E+03  0.00000000000E+00 0.  1.
         21    1    1    2  504  501 -0.10329633315E+03  0.82915806068E+02 -0.12054758297E+03  0.17910020407E+03  0.00000000000E+00 0.  1.
<mgrwt>
<rscale>  4 0.23374703E+03</rscale>
<asrwt>0</asrwt>
<pdfrwt beam="1">  1       21 0.28554828E+00 0.23374703E+03</pdfrwt>
<pdfrwt beam="2">  1       21 0.91693264E-01 0.23374703E+03</pdfrwt>
<totfact> 0.38957376E+01</totfact>
</mgrwt>
</event>
