<event>
 5    0  0.2159162E+000  0.2422433E+03  0.7546771E-02  0.1118307E+00
         21   -1    0    0  502  501  0.00000000000E+00  0.00000000000E+00  0.62490903105E+03  0.62490903105E+03  0.00000000000E+00 0. -1.
         21   -1    0    0  503  502 -0.00000000000E+00 -0.00000000000E+00 -0.22360625871E+03  0.22360625871E+03  0.00000000000E+00 0. -1.
         25    1    1    2    0    0 -0.20683334135E+03 -0.16637021518E+02  0.53642810159E+03  0.58858893105E+03  0.12500000000E+03 0.  0.
         21    1    1    2  503  504  0.59152056563E+02 -0.13470933152E+02 -0.77837573688E+02  0.98686978438E+02  0.00000000000E+00 0. -1.
         21    1    1    2  504  501  0.14768128479E+03  0.30107954669E+02 -0.57287755573E+02  0.16123938027E+03  0.00000000000E+00 0. -1.
<mgrwt>
<rscale>  4 0.24224331E+03</rscale>
<asrwt>0</asrwt>
<pdfrwt beam="1">  1       21 0.96139850E-01 0.24224331E+03</pdfrwt>
<pdfrwt beam="2">  1       21 0.34400963E-01 0.24224331E+03</pdfrwt>
<totfact> 0.70906124E+03</totfact>
</mgrwt>
</event>
<event>
 5    0  0.3114517E+000  0.2696652E+03  0.7546771E-02  0.1101471E+00
         21   -1    0    0  502  501  0.00000000000E+00  0.00000000000E+00  0.34797392649E+03  0.34797392649E+03  0.00000000000E+00 0.  1.
         21   -1    0    0  503  502 -0.00000000000E+00 -0.00000000000E+00 -0.24141406087E+03  0.24141406087E+03  0.00000000000E+00 0.  1.
         25    1    1    2    0    0  0.20709457338E+03 -0.11918958898E+03  0.19233626633E+03  0.33122886316E+03  0.12500000000E+03 0.  0.
         21    1    1    2  503  504 -0.15727679496E+03  0.96350518046E+02 -0.85638704222E+02  0.20335535455E+03  0.00000000000E+00 0.  1.
         21    1    1    2  504  501 -0.49817778421E+02  0.22839070936E+02 -0.13769648044E+00  0.54803769655E+02  0.00000000000E+00 0. -1.
<mgrwt>
<rscale>  4 0.26966520E+03</rscale>
<asrwt>0</asrwt>
<pdfrwt beam="1">  1       21 0.53534451E-01 0.26966520E+03</pdfrwt>
<pdfrwt beam="2">  1       21 0.37140624E-01 0.26966520E+03</pdfrwt>
<totfact> 0.22194600E+04</totfact>
</mgrwt>
</event>
<event>
 5    0  0.2159162E+000  0.2240325E+03  0.7546771E-02  0.1130912E+00
         21   -1    0    0  502  501  0.00000000000E+00  0.00000000000E+00  0.12381735855E+04  0.12381735855E+04  0.00000000000E+00 0.  1.
         21   -1    0    0  503  502 -0.00000000000E+00 -0.00000000000E+00 -0.51496149894E+03  0.51496149894E+03  0.00000000000E+00 0.  1.
         25    1    1    2    0    0 -0.15720964473E+03  0.14087459923E+03  0.11184682467E+04  0.11450575286E+04  0.12500000000E+03 0.  0.
         21    1    1    2  503  504  0.10082922369E+03  0.36348722554E+02  0.55330132053E+02  0.12062000454E+03  0.00000000000E+00 0. -1.
         21    1    1    2  504  501  0.56380421034E+02 -0.17722332178E+03 -0.45058629213E+03  0.48745755129E+03  0.00000000000E+00 0.  1.
<mgrwt>
<rscale>  4 0.22403245E+03</rscale>
<asrwt>0</asrwt>
<pdfrwt beam="1">  1       21 0.19048824E+00 0.22403245E+03</pdfrwt>
<pdfrwt beam="2">  1       21 0.79224846E-01 0.22403245E+03</pdfrwt>
<totfact> 0.20935940E+02</totfact>
</mgrwt>
</event>
<event>
 5    0  0.2159162E+000  0.2600015E+03  0.7546771E-02  0.1107142E+00
         21   -1    0    0  502  501  0.00000000000E+00  0.00000000000E+00  0.31085330444E+02  0.31085330444E+02  0.00000000000E+00 0. -1.
         21   -1    0    0  503  502 -0.00000000000E+00 -0.00000000000E+00 -0.23463584223E+04  0.23463584223E+04  0.00000000000E+00 0.  1.
         25    1    1    2    0    0 -0.33748166073E+02 -0.22547021139E+03 -0.72420625756E+03  0.76946439712E+03  0.12500000000E+03 0.  0.
         21    1    1    2  503  504 -0.10257704062E+02  0.68064231154E+02 -0.43341808384E+03  0.43884985525E+03  0.00000000000E+00 0.  1.
         21    1    1    2  504  501  0.44005870134E+02  0.15740598024E+03 -0.11576487504E+04  0.11691295003E+04  0.00000000000E+00 0.  1.
<mgrwt>
<rscale>  4 0.26000145E+03</rscale>
<asrwt>0</asrwt>
<pdfrwt beam="1">  1       21 0.47823555E-02 0.26000145E+03</pdfrwt>
<pdfrwt beam="2">  1       21 0.36097845E+00 0.26000145E+03</pdfrwt>
<totfact> 0.40459431E+03</totfact>
</mgrwt>
</event>
<event>
 5    0  0.2737812E+000  0.2714028E+03  0.7546771E-02  0.1100479E+00
         21   -1    0    0  502  501  0.00000000000E+00  0.00000000000E+00  0.72675320369E+02  0.72675320369E+02  0.00000000000E+00 0. -1.
         21   -1    0    0  503  502 -0.00000000000E+00 -0.00000000000E+00 -0.94643977628E+03  0.94643977628E+03  0.00000000000E+00 0. -1.
         25    1    1    2    0    0 -0.16069934758E+03 -0.17947204421E+03 -0.54366848870E+03  0.60764703617E+03  0.12500000000E+03 0.  0.
         21    1    1    2  503  504  0.87887999793E+02  0.12572380463E+03 -0.23069835108E+03  0.27704242410E+03  0.00000000000E+00 0. -1.
         21    1    1    2  504  501  0.72811347785E+02  0.53748239580E+02 -0.99397616131E+02  0.13442563638E+03  0.00000000000E+00 0.  1.
<mgrwt>
<rscale>  4 0.27140283E+03</rscale>
<asrwt>0</asrwt>
<pdfrwt beam="1">  1       21 0.11180818E-01 0.27140283E+03</pdfrwt>
<pdfrwt beam="2">  1       21 0.14560612E+00 0.27140283E+03</pdfrwt>
<totfact> 0.20556271E+04</totfact>
</mgrwt>
</event>
<event>
 5    0  0.4386066E+000  0.2512775E+03  0.7546771E-02  0.1112500E+00
         21   -1    0    0  502  501  0.00000000000E+00  0.00000000000E+00  0.68216181222E+03  0.68216181222E+03  0.00000000000E+00 0.  1.
         21   -1    0    0  503  502 -0.00000000000E+00 -0.00000000000E+00 -0.93662545412E+02  0.93662545412E+02  0.00000000000E+00 0.  1.
         25    1    1    2    0    0 -0.59268594055E+02 -0.20976799540E+03  0.44296284470E+03  0.50927051743E+03  0.12500000000E+03 0.  0.
         21    1    1    2  503  504  0.43138074888E+02  0.19632501906E+03  0.13961151063E+03  0.24473614468E+03  0.00000000000E+00 0.  1.
         21    1    1    2  504  501  0.16130519167E+02  0.13442976340E+02  0.59249114738E+01  0.21817695512E+02  0.00000000000E+00 0.  1.
<mgrwt>
<rscale>  4 0.25127749E+03</rscale>
<asrwt>0</asrwt>
<pdfrwt beam="1">  1       21 0.10494797E+00 0.25127749E+03</pdfrwt>
<pdfrwt beam="2">  1       21 0.14409623E-01 0.25127749E+03</pdfrwt>
<totfact> 0.29934919E+04</totfact>
</mgrwt>
</event>
<event>
 5    0  0.2159162E+000  0.2450290E+03  0.7546771E-02  0.1116487E+00
         21   -1    0    0  502  501  0.00000000000E+00  0.00000000000E+00  0.85989701097E+03  0.85989701097E+03  0.00000000000E+00 0.  1.
         21   -1    0    0  503  502 -0.00000000000E+00 -0.00000000000E+00 -0.71185010468E+02  0.71185010468E+02  0.00000000000E+00 0. -1.
         25    1    1    2    0    0  0.13681137665E+03  0.16030236866E+03  0.59315538276E+03  0.64177294293E+03  0.12500000000E+03 0.  0.
         21    1    1    2  503  504 -0.20545772142E+02 -0.96099443242E+01  0.24776322606E+02  0.33590861030E+02  0.00000000000E+00 0. -1.
         21    1    1    2  504  501 -0.11626560451E+03 -0.15069242434E+03  0.17078029514E+03  0.25571821749E+03  0.00000000000E+00 0. -1.
<mgrwt>
<rscale>  4 0.24502898E+03</rscale>
<asrwt>0</asrwt>
<pdfrwt beam="1">  1       21 0.13229184E+00 0.24502898E+03</pdfrwt>
<pdfrwt beam="2">  1       21 0.10951541E-01 0.24502898E+03</pdfrwt>
<totfact> 0.27736422E+04</totfact>
</mgrwt>
</event>
<event>
 5    0  0.2159162E+000  0.2570909E+03  0.7546771E-02  0.1108904E+00
         21   -1    0    0  502  501  0.00000000000E+00  0.00000000000E+00  0.41883449104E+02  0.41883449104E+02  0.00000000000E+00 0. -1.
         21   -1    0    0  503  502 -0.00000000000E+00 -0.00000000000E+00 -0.20755110857E+04  0.20755110857E+04  0.00000000000E+00 0. -1.
         25    1    1    2    0    0 -0.21251776396E+03  0.72848647043E+02 -0.46662287935E+03  0.53275945501E+03  0.12500000000E+03 0.  0.
         21    1    1    2  503  504  0.13939090693E+03 -0.23604896514E+02 -0.78009742155E+03  0.79280451764E+03  0.00000000000E+00 0. -1.
         21    1    1    2  504  501  0.73126857037E+02 -0.49243750528E+02 -0.78690733575E+03  0.79183056220E+03  0.00000000000E+00 0.  1.
<mgrwt>
<rscale>  4 0.25709089E+03</rscale>
<asrwt>0</asrwt>
<pdfrwt beam="1">  1       21 0.64436064E-02 0.25709089E+03</pdfrwt>
<pdfrwt beam="2">  1       21 0.31930946E+00 0.25709089E+03</pdfrwt>
<totfact> 0.43049560E+03</totfact>
</mgrwt>
</event>
<event>
 5    0  0.2159162E+000  0.2485949E+03  0.7546771E-02  0.1114196E+00
         21   -1    0    0  502  501  0.00000000000E+00  0.00000000000E+00  0.67520791321E+03  0.67520791321E+03  0.00000000000E+00 0. -1.
         21   -1    0    0  503  502 -0.00000000000E+00 -0.00000000000E+00 -0.83784701035E+02  0.83784701035E+02  0.00000000000E+00 0.  1.
         25    1    1    2    0    0  0.20074094268E+03  0.76664703112E+02  0.38319208294E+03  0.45676643397E+03  0.12500000000E+03 0.  0.
         21    1    1    2  503  504 -0.51467927544E+02 -0.18138516008E+02  0.80391291765E+02  0.97163332180E+02  0.00000000000E+00 0.  1.
         21    1    1    2  504  501 -0.14927301514E+03 -0.58526187104E+02  0.12783983746E+03  0.20506284809E+03  0.00000000000E+00 0.  1.
<mgrwt>
<rscale>  4 0.24859486E+03</rscale>
<asrwt>0</asrwt>
<pdfrwt beam="1">  1       21 0.10387814E+00 0.24859486E+03</pdfrwt>
<pdfrwt beam="2">  1       21 0.12889954E-01 0.24859486E+03</pdfrwt>
<totfact> 0.37623661E+04</totfact>
</mgrwt>
</event>
<event>
 5    0  0.2334371E+000  0.2380609E+03  0.7546771E-02  0.1121091E+00
         21   -1    0    0  502  501  0.00000000000E+00  0.00000000000E+00  0.17592256626E+04  0.17592256626E+04  0.00000000000E+00 0. -1.
         21   -1    0    0  503  502 -0.00000000000E+00 -0.00000000000E+00 -0.43102809691E+02  0.43102809691E+02  0.00000000000E+00 0. -1.
         25    1    1    2    0    0  0.93211600290E+02  0.18769689257E+03  0.13063248321E+04  0.13289198971E+04  0.12500000000E+03 0.  0.
         21    1    1    2  503  504 -0.66342915143E+02 -0.18989927639E+03  0.30621722499E+03  0.36637700043E+03  0.00000000000E+00 0. -1.
         21    1    1    2  504  501 -0.26868685148E+02  0.22023838171E+01  0.10358079578E+03  0.10703157473E+03  0.00000000000E+00 0. -1.
<mgrwt>
<rscale>  4 0.23806089E+03</rscale>
<asrwt>0</asrwt>
<pdfrwt beam="1">  1       21 0.27065005E+00 0.23806089E+03</pdfrwt>
<pdfrwt beam="2">  1       21 0.66312028E-02 0.23806089E+03</pdfrwt>
<totfact> 0.80179254E+03</totfact>
</mgrwt>
</event>
<event>
 5    0  0.2159162E+000  0.2371378E+03  0.7546771E-02  0.1121714E+00
         21   -1    0    0  502  501  0.00000000000E+00  0.00000000000E+00  0.37066352836E+03  0.37066352836E+03  0.00000000000E+00 0.  1.
         21   -1    0    0  503  502 -0.00000000000E+00 -0.00000000000E+00 -0.48878633015E+03  0.48878633015E+03  0.00000000000E+00 0. -1.
         25    1    1    2    0    0 -0.19945086811E+01  0.21244768361E+03  0.29151351509E+03  0.38176318028E+03  0.12500000000E+03 0.  0.
         21    1    1    2  503  504  0.94531318251E+00 -0.11681001000E+03 -0.33963771814E+03  0.35916465811E+03  0.00000000000E+00 0. -1.
         21    1    1    2  504  501  0.10491954986E+01 -0.95637673609E+02 -0.69998598745E+02  0.11852202011E+03  0.00000000000E+00 0.  1.
<mgrwt>
<rscale>  4 0.23713783E+03</rscale>
<asrwt>0</asrwt>
<pdfrwt beam="1">  1       21 0.57025158E-01 0.23713783E+03</pdfrwt>
<pdfrwt beam="2">  1       21 0.75197897E-01 0.23713783E+03</pdfrwt>
<totfact> 0.44183045E+03</totfact>
</mgrwt>
</event>
<event>
 5    0  0.2496614E+000  0.2865989E+03  0.7546771E-02  0.1092138E+00
         21   -1    0    0  502  501  0.00000000000E+00  0.00000000000E+00  0.27876099281E+03  0.27876099281E+03  0.00000000000E+00 0. -1.
         21   -1    0    0  503  502 -0.00000000000E+00 -0.00000000000E+00 -0.31216629508E+03  0.31216629508E+03  0.00000000000E+00 0. -1.
         25    1    1    2    0    0  0.12043700961E+03  0.22805447478E+03  0.92580149008E+02  0.30118100993E+03  0.12500000000E+03 0.  0.
         21    1    1    2  503  504 -0.10268715268E+03 -0.18806508796E+03 -0.87407614694E+02  0.23141568603E+03  0.00000000000E+00 0. -1.
         21    1    1    2  504  501 -0.17749856932E+02 -0.39989386820E+02 -0.38577836586E+02  0.58330591931E+02  0.00000000000E+00 0. -1.
<mgrwt>
<rscale>  4 0.28659888E+03</rscale>
<asrwt>0</asrwt>
<pdfrwt beam="1">  1       21 0.42886307E-01 0.28659888E+03</pdfrwt>
<pdfrwt beam="2">  1       21 0.48025584E-01 0.28659888E+03</pdfrwt>
<totfact> 0.20667004E+04</totfact>
</mgrwt>
</event>
<event>
 5    0  0.2159162E+000  0.3890095E+03  0.7546771E-02  0.1047653E+00
         21   -1    0    0  502  501  0.00000000000E+00  0.00000000000E+00  0.24630334239E+03  0.24630334239E+03  0.00000000000E+00 0. -1.
         21   -1    0    0  503  502 -0.00000000000E+00 -0.00000000000E+00 -0.76782381602E+03  0.76782381602E+03  0.00000000000E+00 0. -1.
         25    1    1    2    0    0 -0.95473632875E+02  0.36798845481E+03 -0.11902275449E+03  0.41751902176E+03  0.12500000000E+03 0.  0.
         21    1    1    2  503  504  0.91804579737E+01 -0.24620669100E+02 -0.17233168161E+03  0.17432345408E+03  0.00000000000E+00 0. -1.
         21    1    1    2  504  501  0.86293174901E+02 -0.34336778571E+03 -0.23016603753E+03  0.42228468257E+03  0.00000000000E+00 0. -1.
<mgrwt>
<rscale>  4 0.38900948E+03</rscale>
<asrwt>0</asrwt>
<pdfrwt beam="1">  1       21 0.37892822E-01 0.38900948E+03</pdfrwt>
<pdfrwt beam="2">  1       21 0.11812674E+00 0.38900948E+03</pdfrwt>
<totfact> 0.32805836E+03</totfact>
</mgrwt>
</event>
<event>
 5    0  0.2159162E+000  0.3636000E+03  0.7546771E-02  0.1057167E+00
         21   -1    0    0  502  501  0.00000000000E+00  0.00000000000E+00  0.71848353053E+03  0.71848353053E+03  0.00000000000E+00 0. -1.
         21   -1    0    0  503  502 -0.00000000000E+00 -0.00000000000E+00 -0.57705857383E+03  0.57705857383E+03  0.00000000000E+00 0. -1.
         25    1    1    2    0    0  0.15894638280E+03  0.31566627919E+03  0.57761333235E+03  0.68860098325E+03  0.12500000000E+03 0.  0.
         21    1    1    2  503  504 -0.17668536243E+03 -0.18765966205E+03 -0.39434265864E+03  0.47110508221E+03  0.00000000000E+00 0. -1.
         21    1    1    2  504  501  0.17738979632E+02 -0.12800661715E+03 -0.41845717009E+02  0.13583603890E+03  0.00000000000E+00 0. -1.
<mgrwt>
<rscale>  4 0.36360005E+03</rscale>
<asrwt>0</asrwt>
<pdfrwt beam="1">  1       21 0.11053593E+00 0.36360005E+03</pdfrwt>
<pdfrwt beam="2">  1       21 0.88778242E-01 0.36360005E+03</pdfrwt>
<totfact> 0.61349149E+02</totfact>
</mgrwt>
</event>
