<LesHouchesEvents version="3.0">
  <!--
  <scalesfunctionalform>
    muR  H_T/2 := sum_i mT(i)/2, i=final state
    muF1 H_T/2 := sum_i mT(i)/2, i=final state
    muF2 H_T/2 := sum_i mT(i)/2, i=final state
    QES  H_T/2 := sum_i mT(i)/2, i=final state
  </scalesfunctionalform>
HERWIG6   
  -->
  <header>
       42
  </header>
  <init>
   2212   2212 0.65000000D+04 0.65000000D+04 -1 -1   244800   244800 -4   1
 0.67269774D-04 0.30901081D-05 0.18476672D-05     66
  </init>
  <event>
  7     66 0.18476672E-05 0.25654938E+02 0.75467711E-02 0.94161241E-01
       -2 -1    0    0    0  501 0.00000000E+00 0.00000000E+00 0.48348549E+03 0.48348560E+03 0.32000000E+00 0.0000E+00 0.9000E+01
        2 -1    0    0  503    0 0.00000000E+00 0.00000000E+00 -.89754398E+03 0.89754404E+03 0.32000000E+00 0.0000E+00 0.9000E+01
       23  2    1    2    0    0 -.46500776E+03 0.71202451E+02 -.44001055E+03 0.65064011E+03 0.91767374E+02 0.0000E+00 0.0000E+00
       25  1    1    2    0    0 0.50576967E+03 -.60934873E+02 0.19240185E+03 0.55871235E+03 0.12500000E+03 0.0000E+00 0.9000E+01
        3  1    3    3  502    0 -.41325400E+03 0.84943946E+02 -.41405768E+03 0.59113311E+03 0.50000000E+00 0.0000E+00 0.9000E+01
       -3  1    3    3    0  502 -.51753767E+02 -.13741495E+02 -.25952873E+02 0.59506997E+02 0.50000000E+00 0.0000E+00 0.9000E+01
       21  1    1    2  503  501 -.40761909E+02 -.10267578E+02 -.16644980E+03 0.17167718E+03 0.75000000E+00 0.0000E+00 0.9000E+01
#aMCatNLO 2  0  0  0  0 0.00000000D+00 0.00000000D+00  -5  6  0 0.00000000D+00 0.00000000D+00 0.00000000D+00 0.00000000D+00 0.00000000D+00
  <mgrwgt>
 0.1881170430D-03    1    2    0
 0.591493099644948D+03 0.000000000000000D+00 0.000000000000000D+00 0.591493099644948D+03
 0.591493099644948D+03 0.000000000000000D+00 0.000000000000000D+00 -.591493099644948D+03
 0.594537830512848D+03 0.485005872408823D+03 -.661650980253922D+02 0.313435344916892D+03
 0.531158766936237D+03 -.431322807718118D+03 0.803981996680291D+02 -.299376687010735D+03
 0.572896018408094D+02 -.536830646907057D+02 -.142331016426369D+02 -.140586579061569D+02
 0.000000000000000D+00 -.000000000000000D+00 -.000000000000000D+00 -.000000000000000D+00
 0.595082378129343D+03 0.000000000000000D+00 0.000000000000000D+00 0.595082378129343D+03
 0.729223667363500D+03 0.000000000000000D+00 0.000000000000000D+00 -.729223667363500D+03
 0.611050519047448D+03 0.505769673477944D+03 -.609348732254263D+02 0.313435344916892D+03
 0.517329788150381D+03 -.413264730274844D+03 0.849468757109707D+02 -.299376687010735D+03
 0.553524768638236D+02 -.517430345675810D+02 -.137444245632876D+02 -.140586579061569D+02
 0.140573261431191D+03 -.407619086355188D+02 -.102675779222568D+02 -.134141289234157D+03
0.259848965298D-04 0.000000000000D+00 0.000000000000D+00 0.144992412432D-04 0.525743280811D-07  6 -2 2 25 3 -3 21 2 0.74382271D-01 0.13808347D+00 0.27144948D+06 0.27144948D+06 0.27144948D+06 0.10877799D+01  1  2  1  2  6  2        2 0.188117043015D-03 0.100000000000D+01
  </mgrwgt>
  </event>
  <event>
  7     66 0.18476672E-05 0.60409882E+02 0.75467711E-02 0.90664189E-01
       -2 -1    0    0    0  501 0.00000000E+00 0.00000000E+00 0.12127541E+04 0.12127541E+04 0.32000000E+00 0.0000E+00 0.9000E+01
        2 -1    0    0  503    0 0.00000000E+00 0.00000000E+00 -.65368352E+03 0.65368359E+03 0.32000000E+00 0.0000E+00 0.9000E+01
       23  2    1    2    0    0 -.77857215E+02 0.83074197E+02 -.11547473E+03 0.18569258E+03 0.90466875E+02 0.0000E+00 0.0000E+00
       25  1    1    2    0    0 0.20033832E+03 0.58095087E+03 0.77623870E+03 0.99790324E+03 0.12500000E+03 0.0000E+00 0.9000E+01
        3  1    3    3  502    0 -.26146785E+02 0.82209081E+02 -.99217584E+02 0.13147763E+03 0.50000000E+00 0.0000E+00 0.9000E+01
       -3  1    3    3    0  502 -.51710430E+02 0.86511586E+00 -.16257143E+02 0.54214958E+02 0.50000000E+00 0.0000E+00 0.9000E+01
       21  1    1    2  503  501 -.12248110E+03 -.66402507E+03 -.10169342E+03 0.68284187E+03 0.75000000E+00 0.0000E+00 0.9000E+01
#aMCatNLO 2  0  0  0  0 0.00000000D+00 0.00000000D+00  -5  6  0 0.00000000D+00 0.00000000D+00 0.00000000D+00 0.00000000D+00 0.00000000D+00
  <mgrwgt>
 0.2164225628D-03    1    2    0
 0.356496540712127D+03 0.000000000000000D+00 0.000000000000000D+00 0.356496540712127D+03
 0.356496540712127D+03 0.000000000000000D+00 0.000000000000000D+00 -.356496540712127D+03
 0.361714504924152D+03 0.125029201376029D+03 0.172666326772592D+03 0.264133340331464D+03
 0.238139888889589D+03 -.596303099454200D+02 -.993218933473092D+02 -.208062476958399D+03
 0.113138687610513D+03 -.653988914306094D+02 -.733444334252828D+02 -.560708633730651D+02
 0.000000000000000D+00 -.000000000000000D+00 -.000000000000000D+00 -.000000000000000D+00
 0.645700114802525D+03 0.000000000000000D+00 0.000000000000000D+00 0.645700114802525D+03
 0.122774813969012D+04 0.000000000000000D+00 0.000000000000000D+00 -.122774813969012D+04
 0.680463649440896D+03 0.200338318686122D+03 0.580950871246255D+03 0.264133340331464D+03
 0.225238427728135D+03 -.261460041585862D+02 0.822115653294419D+02 -.208062476958399D+03
 0.762806342086237D+02 -.517112106171821D+02 0.862631076615585D+00 -.560708633730651D+02
 0.891465543114993D+03 -.122481103910354D+03 -.664025067652312D+03 -.582048024887597D+03
0.226554283961D-03 0.000000000000D+00 0.000000000000D+00 0.250484348886D-04 0.444255102344D-09  6 -2 2 25 3 -3 21 2 0.18657752D+00 0.10056668D+00 0.51863185D+06 0.51863185D+06 0.51863185D+06 0.10673892D+01  1  2  1  2  6  2        2 0.216422562800D-03 0.100000000000D+01
  </mgrwgt>
  </event>
  <event>
  6     66 -.18476672E-05 0.12600335E+02 0.75467711E-02 0.95567776E-01
       -2 -1    0    0    0  501 0.00000000E+00 0.00000000E+00 0.23001332E+03 0.23001354E+03 0.32000000E+00 0.0000E+00 0.9000E+01
        2 -1    0    0  501    0 -.00000000E+00 -.00000000E+00 -.14028118E+04 0.14028118E+04 0.32000000E+00 0.0000E+00 0.9000E+01
       23  2    1    2    0    0 0.32453041E+03 0.31190787E+03 -.10558086E+04 0.11512466E+04 0.89612448E+02 0.0000E+00 0.0000E+00
       25  1    1    2    0    0 -.32453041E+03 -.31190787E+03 -.11698989E+03 0.48157880E+03 0.12500000E+03 0.0000E+00 0.9000E+01
        3  1    3    3  502    0 0.31192318E+03 0.31214506E+03 -.10459662E+04 0.11352428E+04 0.50000000E+00 0.0000E+00 0.9000E+01
       -3  1    3    3    0  502 0.12607235E+02 -.23718955E+00 -.98423389E+01 0.16003758E+02 0.50000000E+00 0.0000E+00 0.9000E+01
#aMCatNLO 1  0  0  5  4 0.37822989D+01 0.00000000D+00  -5  6  0 0.00000000D+00 0.00000000D+00 0.00000000D+00 0.00000000D+00 0.00000000D+00
  <mgrwgt>
 -.3288337516D-02    4    2    0
 0.568036621870052D+03 0.000000000000000D+00 0.000000000000000D+00 0.568036621870052D+03
 0.568036621870052D+03 -.000000000000000D+00 -.000000000000000D+00 -.568036621870052D+03
 0.571379104083508D+03 -.324530412697350D+03 -.311907866003325D+03 0.329002393521706D+03
 0.551869970091210D+03 0.311932497115861D+03 0.312154781435940D+03 -.331387950230868D+03
 0.128241695653877D+02 0.125979155814889D+02 -.246915432615672D+00 0.238555670916242D+01
 0.000000000000000D+00 0.000000000000000D+00 0.000000000000000D+00 -.000000000000000D+00
 0.568036621870052D+03 0.000000000000000D+00 0.000000000000000D+00 0.568036621870052D+03
 0.568036621870052D+03 -.000000000000000D+00 -.000000000000000D+00 -.568036621870052D+03
 0.570256944602369D+03 -.322016626447916D+03 -.311957135472966D+03 0.329478407161736D+03
 0.552945926322693D+03 0.314365208496830D+03 0.312107101009827D+03 -.330927289027133D+03
 0.906187420385413D+01 0.762434916876698D+01 -.324439165038264D+01 0.366889447356101D+01
 0.380849861118859D+01 0.270687823185542D-01 0.309442611352100D+01 -.222001260816431D+01
0.156150372998D-04 0.000000000000D+00 0.000000000000D+00 0.258951423240D-05 0.000000000000D+00  6 -2 2 25 3 -3 21 0 0.35386684D-01 0.21581722D+00 0.21208294D+06 0.21208294D+06 0.21208294D+06 0.10958741D+01  1  2  2  4  6  5       -3 0.213676394519D-03 0.100000000000D+01
0.672528893635D-05 0.000000000000D+00 -.599658547650D-07 0.258951423240D-05 0.000000000000D+00  6 -2 2 25 3 -3 21 2 0.35386684D-01 0.21581722D+00 0.21208294D+06 0.21208294D+06 0.21208294D+06 0.10958741D+01  1  2  3  4  6  5       -3 0.110521256634D-03 0.100000000000D+01
-.355306609102D-05 0.000000000000D+00 0.000000000000D+00 0.258951423240D-05 0.000000000000D+00  6 -2 2 25 3 -3 21 2 0.35386684D-01 0.21581722D+00 0.21208294D+06 0.21208294D+06 0.21208294D+06 0.10958741D+01  1  2 15  4  6  5       -3 -.583899566249D-04 0.100000000000D+01
-.216272002256D-03 0.000000000000D+00 0.000000000000D+00 0.258951423240D-05 0.000000000000D+00  6 -2 2 25 3 -3 21 2 0.35386684D-01 0.21581722D+00 0.21208294D+06 0.21208294D+06 0.21208294D+06 0.10958741D+01  1  2  4  4  6  5       -3 -.355414521075D-02 0.100000000000D+01
  </mgrwgt>
  </event>
  <event>
  7     66 0.18476672E-05 0.23823946E+02 0.75467711E-02 0.95025709E-01
       -2 -1    0    0    0  503 0.00000000E+00 0.00000000E+00 0.19737815E+03 0.19737841E+03 0.32000000E+00 0.0000E+00 0.9000E+01
        2 -1    0    0  501    0 0.00000000E+00 0.00000000E+00 -.18530408E+04 0.18530408E+04 0.32000000E+00 0.0000E+00 0.9000E+01
       23  2    1    2    0    0 -.33486114E+03 -.31869508E+03 -.73552825E+03 0.87354677E+03 0.91562087E+02 0.0000E+00 0.0000E+00
       25  1    1    2    0    0 0.33346763E+03 0.32867233E+03 -.99213524E+03 0.11041664E+04 0.12500000E+03 0.0000E+00 0.9000E+01
        3  1    3    3  502    0 -.74732952E+01 -.40460733E+02 -.53960041E+02 0.67859097E+02 0.50000000E+00 0.0000E+00 0.9000E+01
       -3  1    3    3    0  502 -.32738784E+03 -.27823435E+03 -.68156821E+03 0.80568767E+03 0.50000000E+00 0.0000E+00 0.9000E+01
       21  1    1    2  501  503 0.13935075E+01 -.99772491E+01 0.72000833E+02 0.72706050E+02 0.75000000E+00 0.0000E+00 0.9000E+01
#aMCatNLO 2  0  0  1  4 0.46239563D+02 0.00000000D+00  -5  6  0 0.00000000D+00 0.00000000D+00 0.00000000D+00 0.00000000D+00 0.00000000D+00
  <mgrwgt>
 0.1388304347D-02    1    2    0
 0.481255351216147D+03 0.000000000000000D+00 0.000000000000000D+00 0.481255351216147D+03
 0.481255351216147D+03 0.000000000000000D+00 0.000000000000000D+00 -.481255351216147D+03
 0.485017067477210D+03 0.334171907639710D+03 0.323629830718128D+03 -.566517833610271D+02
 0.429741433137802D+02 -.740183650424644D+01 -.408969637048389D+02 0.109283196166113D+02
 0.434519491641304D+03 -.326770071135464D+03 -.282732867013289D+03 0.457234637444158D+02
 0.000000000000000D+00 0.000000000000000D+00 -.000000000000000D+00 0.000000000000000D+00
 0.759804645106668D+03 0.000000000000000D+00 0.000000000000000D+00 0.759804645106668D+03
 0.481372804815279D+03 0.000000000000000D+00 0.000000000000000D+00 -.481372804815279D+03
 0.487914524969605D+03 0.333467629594039D+03 0.328672327906174D+03 -.566517833610271D+02
 0.425632812435453D+02 -.746375466032921D+01 -.404536414546915D+02 0.109283196166113D+02
 0.432085614897049D+03 -.327397382403327D+03 -.278241437351851D+03 0.457234637444158D+02
 0.278614028811748D+03 0.139350746961667D+01 -.997724909963172D+01 0.278431840291389D+03
0.113816462362D-03 0.000000000000D+00 0.000000000000D+00 0.123875752106D-04 0.857676341554D-06  6 -2 2 25 3 -3 21 2 0.30365859D-01 0.28508292D+00 0.23304009D+06 0.23304009D+06 0.23304009D+06 0.10927618D+01  1  2  1  1  6  1       -2 0.138830434743D-02 0.100000000000D+01
  </mgrwgt>
  </event>
  <event>
  7     66 0.18476672E-05 0.53691272E+02 0.75467711E-02 0.92171120E-01
       -2 -1    0    0    0  501 0.00000000E+00 0.00000000E+00 0.78889854E+03 0.78889860E+03 0.32000000E+00 0.0000E+00 0.9000E+01
        2 -1    0    0  503    0 0.00000000E+00 0.00000000E+00 -.33842361E+04 0.33842361E+04 0.32000000E+00 0.0000E+00 0.9000E+01
       23  2    1    2    0    0 0.60224274E+03 -.64179465E+02 -.52725946E+03 0.80849255E+03 0.94033763E+02 0.0000E+00 0.0000E+00
       25  1    1    2    0    0 -.60950960E+03 0.55329689E+02 0.49779609E+03 0.79874231E+03 0.12500000E+03 0.0000E+00 0.9000E+01
        3  1    3    3  502    0 0.43915754E+03 -.44598332E+01 -.37305720E+03 0.57623880E+03 0.50000000E+00 0.0000E+00 0.9000E+01
       -3  1    3    3    0  502 0.16308520E+03 -.59719632E+02 -.15420226E+03 0.23225375E+03 0.50000000E+00 0.0000E+00 0.9000E+01
       21  1    1    2  503  501 0.72668520E+01 0.88497760E+01 -.25658742E+04 0.25658998E+04 0.75000000E+00 0.0000E+00 0.9000E+01
#aMCatNLO 2  0  0  0  0 0.00000000D+00 0.00000000D+00  -5  6  0 0.00000000D+00 0.00000000D+00 0.00000000D+00 0.00000000D+00 0.00000000D+00
  <mgrwgt>
 0.3264528220D-02    1    2    0
 0.803461990100945D+03 0.000000000000000D+00 0.000000000000000D+00 0.803461990100945D+03
 0.803461990100945D+03 0.000000000000000D+00 0.000000000000000D+00 -.803461990100945D+03
 0.805572435819472D+03 -.605861176421521D+03 0.597728377811644D+02 0.512524528311412D+03
 0.571481243956144D+03 0.441745206358289D+03 -.131644622214555D+01 -.362560687089043D+03
 0.229870300426272D+03 0.164115970063232D+03 -.584563915590188D+02 -.149963841222369D+03
 0.000000000000000D+00 0.000000000000000D+00 0.000000000000000D+00 -.000000000000000D+00
 0.803495402200399D+03 0.000000000000000D+00 0.000000000000000D+00 0.803495402200399D+03
 0.332275538305656D+04 0.000000000000000D+00 0.000000000000000D+00 -.332275538305656D+04
 0.808003536757542D+03 -.609509596974983D+03 0.553296890218553D+02 0.512524528311412D+03
 0.569505338083004D+03 0.439165347109091D+03 -.445827108972770D+01 -.362560687089043D+03
 0.229455905053742D+03 0.163077397850149D+03 -.597211938953707D+02 -.149963841222369D+03
 0.251928600536267D+04 0.726685201574328D+01 0.884977596324313D+01 -.251925998085616D+04
0.442263854545D-01 0.000000000000D+00 0.000000000000D+00 0.335968380388D-05 0.345170649028D-06  6 -2 2 25 3 -3 21 2 0.12136900D+00 0.52065167D+00 0.38997425D+06 0.38997425D+06 0.38997425D+06 0.10762232D+01  1  2  1  2  6  2        2 0.326452821964D-02 0.100000000000D+01
  </mgrwgt>
  </event>
  <event>
  6     66 -.18476672E-05 0.10135636E+02 0.75467711E-02 0.93874985E-01
       -2 -1    0    0    0  501 0.00000000E+00 0.00000000E+00 0.25441024E+03 0.25441044E+03 0.32000000E+00 0.0000E+00 0.9000E+01
        2 -1    0    0  501    0 -.00000000E+00 -.00000000E+00 -.12712755E+04 0.12712756E+04 0.32000000E+00 0.0000E+00 0.9000E+01
       23  2    1    2    0    0 -.46136866E+03 -.25509855E+03 -.75202239E+03 0.92260801E+03 0.87929321E+02 0.0000E+00 0.0000E+00
       25  1    1    2    0    0 0.46136866E+03 0.25509855E+03 -.26484291E+03 0.60307801E+03 0.12500000E+03 0.0000E+00 0.9000E+01
        3  1    3    3  502    0 -.45245470E+03 -.25024006E+03 -.70370598E+03 0.87323405E+03 0.50000000E+00 0.0000E+00 0.9000E+01
       -3  1    3    3    0  502 -.89139621E+01 -.48584914E+01 -.48316404E+02 0.49373967E+02 0.50000000E+00 0.0000E+00 0.9000E+01
#aMCatNLO 1  0  0  5  4 0.98130736D+00 0.00000000D+00  -5  6  0 0.00000000D+00 0.00000000D+00 0.00000000D+00 0.00000000D+00 0.00000000D+00
  <mgrwgt>
 -.2729397865D-02    6    2    0
 0.568705282302442D+03 0.000000000000000D+00 0.000000000000000D+00 0.568705282302442D+03
 0.568705282302442D+03 -.000000000000000D+00 -.000000000000000D+00 -.568705282302442D+03
 0.572175196675620D+03 0.461368662794392D+03 0.255098548541127D+03 0.183910693583352D+03
 0.542219228856926D+03 -.452469043887965D+03 -.250247992249114D+03 -.163246435920045D+03
 0.230161390723370D+02 -.889961890642742D+01 -.485055629201239D+01 -.206642576633068D+02
 0.000000000000000D+00 0.000000000000000D+00 -.000000000000000D+00 0.000000000000000D+00
 0.568705282302442D+03 0.000000000000000D+00 0.000000000000000D+00 0.568705282302442D+03
 0.568705282302442D+03 -.000000000000000D+00 -.000000000000000D+00 -.568705282302442D+03
 0.572037152059511D+03 0.461291776004807D+03 0.255056642960122D+03 0.183732168137756D+03
 0.542349341176479D+03 -.452541922838736D+03 -.250287713439082D+03 -.163415655459984D+03
 0.215464316672034D+02 -.769127932418923D+01 -.391221062975479D+01 -.197430379611446D+02
 0.147763970168983D+01 -.105857384188086D+01 -.856718891285030D+00 -.573474716627473D+00
0.369798229412D-06 0.000000000000D+00 0.000000000000D+00 0.315838556081D-06 0.000000000000D+00  6 -2 2 25 3 -3 21 0 0.39140055D-01 0.19558087D+00 0.28569550D+06 0.28569550D+06 0.28569550D+06 0.10861252D+01  1  2  2  4  6  5       -3 0.492903479241D-05 0.100000000000D+01
0.134639960149D-06 0.000000000000D+00 -.142012257105D-08 0.315838556081D-06 0.000000000000D+00  6 -2 2 25 3 -3 21 2 0.39140055D-01 0.19558087D+00 0.28569550D+06 0.28569550D+06 0.28569550D+06 0.10861252D+01  1  2  3  4  6  5       -3 0.211704833780D-05 0.100000000000D+01
-.888275809334D-07 0.000000000000D+00 0.000000000000D+00 0.315838556081D-06 0.000000000000D+00  6 -2 2 25 3 -3 21 2 0.39140055D-01 0.19558087D+00 0.28569550D+06 0.28569550D+06 0.28569550D+06 0.10861252D+01  1  2 15  4  6  5       -3 -.139670482937D-05 0.100000000000D+01
-.176741015590D-03 0.000000000000D+00 0.000000000000D+00 0.315838556081D-06 0.000000000000D+00  6 -2 2 25 3 -3 21 2 0.39140055D-01 0.19558087D+00 0.28569550D+06 0.28569550D+06 0.28569550D+06 0.10861252D+01  1  2  4  4  6  5       -3 -.277903582905D-02 0.100000000000D+01
-.117372601563D-04 0.000000000000D+00 0.000000000000D+00 0.315838556081D-06 0.000000000000D+00  6 -2 2 25 3 -3 21 2 0.39140055D-01 0.19558087D+00 0.28569550D+06 0.28569550D+06 0.28569550D+06 0.10861252D+01  1  2  5  4  6  5       -3 -.184554028959D-03 0.100000000000D+01
0.145348445652D-04 0.000000000000D+00 -.000000000000D+00 0.315838556081D-06 0.000000000000D+00  6 -2 2 25 3 -3 21 2 0.39140055D-01 0.19558087D+00 0.28569550D+06 0.28569550D+06 0.28569550D+06 0.10861252D+01  1  2  6  4  6  5       -3 0.228542614637D-03 0.100000000000D+01
  </mgrwgt>
  </event>
  <event>
  6     66 0.18476672E-05 0.16166960E+02 0.75467711E-02 0.90448894E-01
       -2 -1    0    0    0  501 0.00000000E+00 0.00000000E+00 0.24859638E+03 0.24859658E+03 0.32000000E+00 0.0000E+00 0.9000E+01
        2 -1    0    0  501    0 -.00000000E+00 -.00000000E+00 -.24210974E+04 0.24210975E+04 0.32000000E+00 0.0000E+00 0.9000E+01
       25  1    1    2    0    0 -.34547403E+03 -.63478849E+03 -.69297612E+03 0.10090340E+04 0.12500000E+03 0.0000E+00 0.9000E+01
        3  1    1    2  503    0 0.22166476E+02 0.15292889E+02 -.34587384E+02 0.43837909E+02 0.50000000E+00 0.0000E+00 0.9000E+01
       -3  1    1    2    0  502 0.30002294E+03 0.61771567E+03 -.13021435E+04 0.14721292E+04 0.50000000E+00 0.0000E+00 0.9000E+01
       21  1    1    2  502  503 0.23284611E+02 0.17799293E+01 -.14279405E+03 0.14469293E+03 0.75000000E+00 0.0000E+00 0.9000E+01
#aMCatNLO 2  0  0  4  5 0.19135894D+02 0.00000000D+00  -5  6  0 0.00000000D+00 0.00000000D+00 0.00000000D+00 0.00000000D+00 0.00000000D+00
  <mgrwgt>
 0.8363284123D-02    3    2    0
 0.775806907542172D+03 0.000000000000000D+00 0.000000000000000D+00 0.775806907542172D+03
 0.775806907542172D+03 -.000000000000000D+00 -.000000000000000D+00 -.775806907542172D+03
 0.770344114335912D+03 -.349842567416860D+03 -.636429596654414D+03 0.224438412526600D+03
 0.754349573025811D+02 0.538308042369105D+02 0.201968211931543D+02 -.488340630312634D+02
 0.705834743445851D+03 0.296011763179949D+03 0.616232775461260D+03 -.175604349495337D+03
 0.000000000000000D+00 0.000000000000000D+00 0.000000000000000D+00 -.000000000000000D+00
 0.775806907542172D+03 0.000000000000000D+00 0.000000000000000D+00 0.775806907542172D+03
 0.775806907542172D+03 -.000000000000000D+00 -.000000000000000D+00 -.775806907542172D+03
 0.765935093204331D+03 -.345544726595369D+03 -.634817086423167D+03 0.220539510540085D+03
 0.262289004657081D+02 0.214761156937006D+02 0.149062997414954D+02 0.212929621412800D+01
 0.709697671854765D+03 0.299971807011020D+03 0.617718547377674D+03 -.179196809849486D+03
 0.497521495595403D+02 0.240968038906480D+02 0.219223930399731D+01 -.434719969047263D+02
-.102611229839D-04 0.000000000000D+00 0.000000000000D+00 0.155804536549D-08 0.000000000000D+00  6 -2 2 25 3 -3 21 2 0.38245614D-01 0.37247655D+00 0.54062058D+06 0.54062058D+06 0.54062058D+06 0.10661212D+01  1  2 13  3  6  4        3 -.362027996196D-04 0.100000000000D+01
-.241717880142D-04 0.000000000000D+00 0.000000000000D+00 0.155804536549D-08 0.000000000000D+00  6 -2 2 25 3 -3 21 2 0.38245614D-01 0.37247655D+00 0.54616595D+06 0.54616595D+06 0.54616595D+06 0.10658102D+01  1  2  8  3  6  4        3 -.851827795193D-04 0.100000000000D+01
0.240484824953D-02 0.000000000000D+00 0.000000000000D+00 0.155804536549D-08 0.988246131684D-09  6 -2 2 25 3 -3 21 2 0.38245614D-01 0.37247655D+00 0.54062058D+06 0.54062058D+06 0.54062058D+06 0.10661212D+01  1  2  1  3  6  4        3 0.848466970236D-02 0.100000000000D+01
  </mgrwgt>
  </event>
  <event>
  7     66 0.18476672E-05 0.67152662E+02 0.75467711E-02 0.92507813E-01
       -2 -1    0    0    0  503 0.00000000E+00 0.00000000E+00 0.34574110E+03 0.34574124E+03 0.32000000E+00 0.0000E+00 0.9000E+01
        2 -1    0    0  501    0 0.00000000E+00 0.00000000E+00 -.12046937E+04 0.12046937E+04 0.32000000E+00 0.0000E+00 0.9000E+01
       23  2    1    2    0    0 0.78438309E+02 0.53052722E+03 -.31567349E+03 0.62801923E+03 0.84538184E+02 0.0000E+00 0.0000E+00
       25  1    1    2    0    0 -.18047024E+03 -.52659870E+03 -.27099754E+03 0.63161726E+03 0.12500000E+03 0.0000E+00 0.9000E+01
        3  1    3    3  502    0 0.52395009E+02 0.21267124E+03 -.87419216E+02 0.23583185E+03 0.50000000E+00 0.0000E+00 0.9000E+01
       -3  1    3    3    0  502 0.26043300E+02 0.31785598E+03 -.22825427E+03 0.39218738E+03 0.50000000E+00 0.0000E+00 0.9000E+01
       21  1    1    2  501  503 0.10203193E+03 -.39285228E+01 -.27228157E+03 0.29079849E+03 0.75000000E+00 0.0000E+00 0.9000E+01
#aMCatNLO 2  0  0  1  2 0.33712664D+01 0.00000000D+00  -5  6  0 0.00000000D+00 0.00000000D+00 0.00000000D+00 0.00000000D+00 0.00000000D+00
  <mgrwgt>
 0.3944022573D-04    1    2    0
 0.554994422926670D+03 0.000000000000000D+00 0.000000000000000D+00 0.554994422926670D+03
 0.554994422926670D+03 0.000000000000000D+00 0.000000000000000D+00 -.554994422926670D+03
 0.558813513360468D+03 -.128646660983466D+03 -.528594052409809D+03 0.261898279691056D+02
 0.225482151354064D+03 0.728498728151579D+02 0.211880023782810D+03 0.253367742987974D+02
 0.325693181138809D+03 0.557967881683079D+02 0.316714028626999D+03 -.515266022679030D+02
 0.000000000000000D+00 0.000000000000000D+00 -.000000000000000D+00 -.000000000000000D+00
 0.572672321649026D+03 0.000000000000000D+00 0.000000000000000D+00 0.572672321649026D+03
 0.727311535201506D+03 0.000000000000000D+00 0.000000000000000D+00 -.727311535201506D+03
 0.571127481866697D+03 -.180470239363358D+03 -.526598695553336D+03 0.261898279691056D+02
 0.220487588092490D+03 0.523959306669466D+02 0.212667559398513D+03 0.253367742987974D+02
 0.323060302488882D+03 0.260423787345226D+02 0.317859658989279D+03 -.515266022679030D+02
 0.185308484402464D+03 0.102031929961889D+03 -.392852283445647D+01 -.154639213552480D+03
0.426578787842D-05 0.000000000000D+00 0.000000000000D+00 0.134125267773D-05 0.829199167573D-09  6 -2 2 25 3 -3 21 2 0.53190883D-01 0.18533727D+00 0.36637956D+06 0.36637956D+06 0.36637956D+06 0.10781871D+01  1  2  1  1  6  1       -2 0.394402257342D-04 0.100000000000D+01
  </mgrwgt>
  </event>
  <event>
  7     66 0.18476672E-05 0.14049622E+03 0.75467711E-02 0.88117126E-01
       -2 -1    0    0    0  501 0.00000000E+00 0.00000000E+00 0.10196047E+04 0.10196047E+04 0.32000000E+00 0.0000E+00 0.9000E+01
        2 -1    0    0  503    0 0.00000000E+00 0.00000000E+00 -.97983177E+03 0.97983182E+03 0.32000000E+00 0.0000E+00 0.9000E+01
       23  2    1    2    0    0 0.16256516E+03 0.34300557E+03 -.15413620E+03 0.41959920E+03 0.90693236E+02 0.0000E+00 0.0000E+00
       25  1    1    2    0    0 0.41221874E+03 0.35699236E+03 -.19728480E+03 0.59322351E+03 0.12500000E+03 0.0000E+00 0.9000E+01
        3  1    3    3  502    0 0.13733761E+03 0.19679191E+03 -.74908514E+02 0.25139652E+03 0.50000000E+00 0.0000E+00 0.9000E+01
       -3  1    3    3    0  502 0.25227557E+02 0.14621366E+03 -.79227690E+02 0.16820268E+03 0.50000000E+00 0.0000E+00 0.9000E+01
       21  1    1    2  503  501 -.57478390E+03 -.69999793E+03 0.39119391E+03 0.98661385E+03 0.75000000E+00 0.0000E+00 0.9000E+01
#aMCatNLO 2  0  0  2  1 0.35025327D+03 0.00000000D+00  -5  6  0 0.00000000D+00 0.00000000D+00 0.00000000D+00 0.00000000D+00 0.00000000D+00
  <mgrwgt>
 0.9112697175D-02    1    2    0
 0.143125352475902D+03 0.000000000000000D+00 0.000000000000000D+00 0.143125352475902D+03
 0.143125352475902D+03 0.000000000000000D+00 0.000000000000000D+00 -.143125352475902D+03
 0.156050663454238D+03 0.794885360230116D+02 -.482216863507627D+02 0.911324151523422D+01
 0.405304241948792D+02 0.674283791265071D+01 0.377451079118389D+02 0.131360668019087D+02
 0.896696173026864D+02 -.862313739356623D+02 0.104765784389239D+02 -.222493083171429D+02
 0.000000000000000D+00 -.000000000000000D+00 -.000000000000000D+00 0.000000000000000D+00
 0.146435071279833D+04 0.000000000000000D+00 0.000000000000000D+00 0.146435071279833D+04
 0.682241528999557D+03 0.000000000000000D+00 0.000000000000000D+00 -.682241528999557D+03
 0.559532002072851D+03 0.412218885053874D+03 0.356992438264004D+03 0.911324151523422D+01
 0.240338581095269D+03 0.137340806063969D+03 0.196793242520068D+03 0.131360668019087D+02
 0.150031047854796D+03 0.252242129908767D+02 0.146212252150111D+03 -.222493083171429D+02
 0.119669061077497D+04 -.574783904108720D+03 -.699997932934183D+03 0.782109183798776D+03
0.102971897849D-01 0.000000000000D+00 0.000000000000D+00 0.250905683969D-04 0.648600335039D-08  6 -2 2 25 3 -3 21 2 0.15686224D+00 0.15074334D+00 0.85891563D+06 0.85891563D+06 0.85891563D+06 0.10522892D+01  1  2  1  2  6  2        2 0.911269717533D-02 0.100000000000D+01
  </mgrwgt>
  </event>
  <event>
  6     66 0.18476672E-05 0.72629127E+02 0.75467711E-02 0.94068781E-01
       -2 -1    0    0    0  501 0.00000000E+00 0.00000000E+00 0.29201403E+03 0.29201421E+03 0.32000000E+00 0.0000E+00 0.9000E+01
        2 -1    0    0  501    0 -.00000000E+00 -.00000000E+00 -.11654924E+04 0.11654925E+04 0.32000000E+00 0.0000E+00 0.9000E+01
       25  1    1    2    0    0 0.20893191E+03 0.46796174E+03 -.72828133E+03 0.89925493E+03 0.12500000E+03 0.0000E+00 0.9000E+01
        3  1    1    2  503    0 -.51468175E+02 -.14495815E+03 -.79756726E+02 0.17327211E+03 0.50000000E+00 0.0000E+00 0.9000E+01
       -3  1    1    2    0  502 -.12251029E+03 -.30762702E+03 -.29334446E+02 0.33242129E+03 0.50000000E+00 0.0000E+00 0.9000E+01
       21  1    1    2  502  503 -.34953448E+02 -.15376565E+02 -.36105876E+02 0.52558340E+02 0.75000000E+00 0.0000E+00 0.9000E+01
#aMCatNLO 2  0  0  4  5 0.19135894D+02 0.00000000D+00  -5  6  0 0.00000000D+00 0.00000000D+00 0.00000000D+00 0.00000000D+00 0.00000000D+00
  <mgrwgt>
 0.4621717827D-01    1    2    0
 0.583386921536853D+03 0.000000000000000D+00 0.000000000000000D+00 0.583386921536853D+03
 0.583386921536853D+03 -.000000000000000D+00 -.000000000000000D+00 -.583386921536853D+03
 0.583520579450287D+03 0.211661187157835D+03 0.473025270975351D+03 -.237313930294094D+03
 0.193443013720930D+03 -.909797571039398D+02 -.168783185762964D+03 0.255953034451376D+02
 0.389810249902490D+03 -.120681430053895D+03 -.304242085212386D+03 0.211718626848956D+03
 0.000000000000000D+00 -.000000000000000D+00 0.000000000000000D+00 0.000000000000000D+00
 0.583386921536853D+03 0.000000000000000D+00 0.000000000000000D+00 0.583386921536853D+03
 0.583386921536853D+03 -.000000000000000D+00 -.000000000000000D+00 -.583386921536853D+03
 0.578096112376217D+03 0.208921018599362D+03 0.467941784345483D+03 -.236543039625912D+03
 0.156520357129546D+03 -.512700849885560D+02 -.144793260270204D+03 0.300817612774226D+02
 0.393343175301214D+03 -.122528831530908D+03 -.307669334488478D+03 0.212238355664402D+03
 0.388141982667297D+02 -.351221020798987D+02 -.154791895868017D+02 -.577707731591270D+01
0.330907674657D-02 0.000000000000D+00 0.000000000000D+00 0.512742007836D-07 0.463578416135D-07  6 -2 2 25 3 -3 21 2 0.44925253D-01 0.17930654D+00 0.27596190D+06 0.27596190D+06 0.27596190D+06 0.10872457D+01  1  2  1  3  6  4        3 0.462171782744D-01 0.100000000000D+01
  </mgrwgt>
  </event>
  <event>
  7     66 0.18476672E-05 0.25919200E+02 0.75467711E-02 0.88425644E-01
       -2 -1    0    0    0  501 0.00000000E+00 0.00000000E+00 0.93211821E+03 0.93211827E+03 0.32000000E+00 0.0000E+00 0.9000E+01
        2 -1    0    0  503    0 0.00000000E+00 0.00000000E+00 -.12543373E+04 0.12543373E+04 0.32000000E+00 0.0000E+00 0.9000E+01
       23  2    1    2    0    0 0.88140513E+03 -.13065564E+03 0.22860311E+03 0.92450625E+03 0.92230845E+02 0.0000E+00 0.0000E+00
       25  1    1    2    0    0 -.86764146E+03 0.12400991E+03 -.19595757E+03 0.90675495E+03 0.12500000E+03 0.0000E+00 0.9000E+01
        3  1    3    3  502    0 0.78696820E+03 -.87161943E+02 0.19912324E+03 0.81643522E+03 0.50000000E+00 0.0000E+00 0.9000E+01
       -3  1    3    3    0  502 0.94436933E+02 -.43493698E+02 0.29479876E+02 0.10807104E+03 0.50000000E+00 0.0000E+00 0.9000E+01
       21  1    1    2  503  501 -.13763669E+02 0.66457358E+01 -.35486458E+03 0.35519437E+03 0.75000000E+00 0.0000E+00 0.9000E+01
#aMCatNLO 2  0  0  2  1 0.35025327D+03 0.00000000D+00  -5  6  0 0.00000000D+00 0.00000000D+00 0.00000000D+00 0.00000000D+00 0.00000000D+00
  <mgrwgt>
 0.7095391980D-03    1    2    0
 0.915453199247967D+03 0.000000000000000D+00 0.000000000000000D+00 0.915453199247967D+03
 0.915453199247967D+03 0.000000000000000D+00 0.000000000000000D+00 -.915453199247967D+03
 0.917397173905127D+03 -.874511462143085D+03 0.127327059847216D+03 -.212155832114367D+03
 0.806831248259461D+03 0.780900058701876D+03 -.842234211125451D+02 0.184602754105744D+03
 0.106677976331346D+03 0.936114034412093D+02 -.431036387346710D+02 0.275530780086227D+02
 0.000000000000000D+00 -.000000000000000D+00 0.000000000000000D+00 -.000000000000000D+00
 0.915646686014314D+03 0.000000000000000D+00 0.000000000000000D+00 0.915646686014314D+03
 0.127690050227280D+04 0.000000000000000D+00 0.000000000000000D+00 -.127690050227280D+04
 0.910392913969570D+03 -.867641460547675D+03 0.124009905429218D+03 -.212155832114367D+03
 0.813035414320146D+03 0.786988551374037D+03 -.871632268878302D+02 0.184602754105744D+03
 0.107541863834232D+03 0.944165783097399D+02 -.434924143900059D+02 0.275530780086227D+02
 0.361576996163164D+03 -.137636691361027D+02 0.664573584861758D+01 -.361253816258485D+03
0.909970775817D-03 0.000000000000D+00 0.000000000000D+00 0.107589331867D-04 0.287838413183D-06  6 -2 2 25 3 -3 21 2 0.14340275D+00 0.19297489D+00 0.80673169D+06 0.80673169D+06 0.80673169D+06 0.10541297D+01  1  2  1  2  6  2        2 0.709539198024D-03 0.100000000000D+01
  </mgrwgt>
  </event>
  <event>
  7     66 0.18476672E-05 0.68542527E+02 0.75467711E-02 0.92147479E-01
       -2 -1    0    0    0  503 0.00000000E+00 0.00000000E+00 0.61801494E+03 0.61801502E+03 0.32000000E+00 0.0000E+00 0.9000E+01
        2 -1    0    0  501    0 0.00000000E+00 0.00000000E+00 -.15636104E+04 0.15636104E+04 0.32000000E+00 0.0000E+00 0.9000E+01
       23  2    1    2    0    0 -.54520381E+03 0.24748789E+02 -.94422446E+03 0.10944353E+04 0.91482704E+02 0.0000E+00 0.0000E+00
       25  1    1    2    0    0 0.56756096E+03 -.13105042E+03 -.37106646E+03 0.70186535E+03 0.12500000E+03 0.0000E+00 0.9000E+01
        3  1    3    3  502    0 -.23829791E+03 -.96835568E+01 -.49281925E+03 0.54749496E+03 0.50000000E+00 0.0000E+00 0.9000E+01
       -3  1    3    3    0  502 -.30690591E+03 0.34432346E+02 -.45140521E+03 0.54694034E+03 0.50000000E+00 0.0000E+00 0.9000E+01
       21  1    1    2  501  503 -.22357148E+02 0.10630163E+03 0.36969548E+03 0.38532478E+03 0.75000000E+00 0.0000E+00 0.9000E+01
#aMCatNLO 2  0  0  1  2 0.33712664D+01 0.00000000D+00  -5  6  0 0.00000000D+00 0.00000000D+00 0.00000000D+00 0.00000000D+00 0.00000000D+00
  <mgrwgt>
 0.2634913858D-03    1    2    0
 0.609283584477115D+03 0.000000000000000D+00 0.000000000000000D+00 0.609283584477115D+03
 0.609283584477115D+03 0.000000000000000D+00 0.000000000000000D+00 -.609283584477115D+03
 0.612260816687762D+03 0.556172920755672D+03 -.769036499526373D+02 0.209751802121538D+03
 0.278656252845289D+03 -.243356027539790D+03 0.143747376278821D+02 -.134983399082849D+03
 0.327650099421180D+03 -.312816893215881D+03 0.625289123247552D+02 -.747684030386891D+02
 0.000000000000000D+00 -.000000000000000D+00 0.000000000000000D+00 0.000000000000000D+00
 0.157185786853914D+04 0.000000000000000D+00 0.000000000000000D+00 0.157185786853914D+04
 0.614772023872863D+03 0.000000000000000D+00 0.000000000000000D+00 -.614772023872863D+03
 0.631601516682779D+03 0.567560961594326D+03 -.131050418758879D+03 0.209751802121538D+03
 0.274042388346030D+03 -.238295857673323D+03 -.968487471122338D+01 -.134983399082849D+03
 0.317755385392628D+03 -.306907956333265D+03 0.344336636505731D+02 -.747684030386891D+02
 0.963230601990566D+03 -.223571475877380D+02 0.106301629819530D+03 0.957085844666276D+03
0.162646834935D-03 0.000000000000D+00 0.000000000000D+00 0.469065115633D-04 0.372159916951D-07  6 -2 2 25 3 -3 21 2 0.95079208D-01 0.24055540D+00 0.39169381D+06 0.39169381D+06 0.39169381D+06 0.10760852D+01  1  2  1  1  6  1       -2 0.263491385768D-03 0.100000000000D+01
  </mgrwgt>
  </event>
  <event>
  7     66 0.18476672E-05 0.52984137E+02 0.75467711E-02 0.94968509E-01
       -2 -1    0    0    0  503 0.00000000E+00 0.00000000E+00 0.41395207E+03 0.41395220E+03 0.32000000E+00 0.0000E+00 0.9000E+01
        2 -1    0    0  501    0 0.00000000E+00 0.00000000E+00 -.63704102E+03 0.63704110E+03 0.32000000E+00 0.0000E+00 0.9000E+01
       23  2    1    2    0    0 -.37197312E+03 -.27671950E+03 -.23011822E+03 0.52525024E+03 0.89418829E+02 0.0000E+00 0.0000E+00
       25  1    1    2    0    0 0.37231955E+03 0.29017476E+03 -.27084661E+02 0.48906218E+03 0.12500000E+03 0.0000E+00 0.9000E+01
        3  1    3    3  502    0 -.13168425E+03 -.58983229E+02 -.41605174E+02 0.15016992E+03 0.50000000E+00 0.0000E+00 0.9000E+01
       -3  1    3    3    0  502 -.24028887E+03 -.21773628E+03 -.18851304E+03 0.37508032E+03 0.50000000E+00 0.0000E+00 0.9000E+01
       21  1    1    2  501  503 -.34642989E+00 -.13455252E+02 0.34113932E+02 0.36680876E+02 0.75000000E+00 0.0000E+00 0.9000E+01
#aMCatNLO 2  0  0  1  2 0.13559714D+02 0.00000000D+00  -5  6  0 0.00000000D+00 0.00000000D+00 0.00000000D+00 0.00000000D+00 0.00000000D+00
  <mgrwgt>
 0.1086649340D-02    1    2    0
 0.490534198990103D+03 0.000000000000000D+00 0.000000000000000D+00 0.490534198990103D+03
 0.490534198990103D+03 0.000000000000000D+00 0.000000000000000D+00 -.490534198990103D+03
 0.494422446284276D+03 0.372144257642560D+03 0.283366253664183D+03 0.100203658504671D+03
 0.145200351337082D+03 -.131731973263958D+03 -.609636208609344D+02 -.364227674954720D+01
 0.341445600358847D+03 -.240412284378603D+03 -.222402632803249D+03 -.965613817551238D+02
 0.000000000000000D+00 -.000000000000000D+00 -.000000000000000D+00 0.000000000000000D+00
 0.536449639596801D+03 0.000000000000000D+00 0.000000000000000D+00 0.536449639596801D+03
 0.491567753645151D+03 0.000000000000000D+00 0.000000000000000D+00 -.491567753645151D+03
 0.498486723544677D+03 0.372319554916333D+03 0.290174756654487D+03 0.100203658504671D+03
 0.144331389434118D+03 -.131680856680115D+03 -.589782653191299D+02 -.364227674954720D+01
 0.338342610515919D+03 -.240292268345183D+03 -.217741239589093D+03 -.965613817551238D+02
 0.468566697472374D+02 -.346429891035068D+00 -.134552517462637D+02 0.448818859516502D+02
0.688988156376D-04 0.000000000000D+00 0.000000000000D+00 0.106440901152D-04 0.375600231161D-06  6 -2 2 25 3 -3 21 2 0.63684562D-01 0.98005729D-01 0.23538394D+06 0.23538394D+06 0.23538394D+06 0.10924328D+01  1  2  1  1  6  1       -2 0.108664934038D-02 0.100000000000D+01
  </mgrwgt>
  </event>
  <event>
  6     66 0.18476672E-05 0.29926143E+02 0.75467711E-02 0.94975361E-01
       -2 -1    0    0    0  501 0.00000000E+00 0.00000000E+00 0.16472339E+03 0.16472370E+03 0.32000000E+00 0.0000E+00 0.9000E+01
        2 -1    0    0  501    0 -.00000000E+00 -.00000000E+00 -.14614438E+04 0.14614438E+04 0.32000000E+00 0.0000E+00 0.9000E+01
       25  1    1    2    0    0 -.45006974E+03 -.12520278E+03 -.54542162E+03 0.72893638E+03 0.12500000E+03 0.0000E+00 0.9000E+01
        3  1    1    2  502    0 0.35250801E+03 0.14561359E+03 -.59548413E+03 0.70715402E+03 0.50000000E+00 0.0000E+00 0.9000E+01
       -3  1    1    2    0  503 0.35471126E+02 -.23503831E+02 -.38877720E+02 0.57639899E+02 0.50000000E+00 0.0000E+00 0.9000E+01
       21  1    1    2  503  502 0.62090609E+02 0.30930208E+01 -.11693693E+03 0.13243722E+03 0.75000000E+00 0.0000E+00 0.9000E+01
#aMCatNLO 2  0  0  5  2 0.32935459D+01 0.00000000D+00  -5  6  0 0.00000000D+00 0.00000000D+00 0.00000000D+00 0.00000000D+00 0.00000000D+00
  <mgrwgt>
 0.1917570992D-03    1    2    0
 0.490646775500830D+03 0.000000000000000D+00 0.000000000000000D+00 0.490646775500830D+03
 0.490646775500830D+03 -.000000000000000D+00 -.000000000000000D+00 -.490646775500830D+03
 0.491170209372677D+03 -.454549781674130D+03 -.124265566187115D+03 0.597138142760646D+02
 0.382048154790245D+03 0.349031781230627D+03 0.146364002837036D+03 -.521074557345396D+02
 0.108075186838737D+03 0.105518000443503D+03 -.220984366499207D+02 -.760635854152496D+01
 0.000000000000000D+00 0.000000000000000D+00 0.000000000000000D+00 -.000000000000000D+00
 0.490646775500830D+03 0.000000000000000D+00 0.000000000000000D+00 0.490646775500830D+03
 0.490646775500830D+03 -.000000000000000D+00 -.000000000000000D+00 -.490646775500830D+03
 0.487254256519186D+03 -.450099717943349D+03 -.125197534676183D+03 0.593930274896709D+02
 0.384995067183893D+03 0.352520442175891D+03 0.145633379127641D+03 -.523589389494220D+02
 0.434827162333965D+02 0.348155672815073D+02 -.232751433911940D+02 0.117000250435751D+02
 0.655615110651834D+02 0.627637084859504D+02 0.283929893973603D+01 -.187341135838240D+02
0.701893547289D-05 0.000000000000D+00 0.000000000000D+00 0.426926171812D-07 0.131780145889D-09  6 -2 2 25 3 -3 21 2 0.25342087D-01 0.22483753D+00 0.23510179D+06 0.23510179D+06 0.23510179D+06 0.10924722D+01  1  2  1  4  6  5       -3 0.191757099165D-03 0.100000000000D+01
  </mgrwgt>
  </event>
  <event>
  7     66 0.18476672E-05 0.33305075E+02 0.75467711E-02 0.92810186E-01
       -2 -1    0    0    0  501 0.00000000E+00 0.00000000E+00 0.49171038E+03 0.49171048E+03 0.32000000E+00 0.0000E+00 0.9000E+01
        2 -1    0    0  503    0 0.00000000E+00 0.00000000E+00 -.88301968E+03 0.88301973E+03 0.32000000E+00 0.0000E+00 0.9000E+01
       23  2    1    2    0    0 0.55259316E+03 0.16396785E+03 -.34740348E+02 0.58453285E+03 0.90703344E+02 0.0000E+00 0.0000E+00
       25  1    1    2    0    0 -.54706444E+03 -.15053231E+03 -.17322429E+03 0.60627645E+03 0.12500000E+03 0.0000E+00 0.9000E+01
        3  1    3    3  502    0 0.47287323E+03 0.10981778E+03 -.45380591E+02 0.48757429E+03 0.50000000E+00 0.0000E+00 0.9000E+01
       -3  1    3    3    0  502 0.79719931E+02 0.54150065E+02 0.10640243E+02 0.96958557E+02 0.50000000E+00 0.0000E+00 0.9000E+01
       21  1    1    2  503  501 -.55287190E+01 -.13435536E+02 -.18334465E+03 0.18392092E+03 0.75000000E+00 0.0000E+00 0.9000E+01
#aMCatNLO 2  0  0  2  2 0.64887660D+02 0.00000000D+00  -5  6  0 0.00000000D+00 0.00000000D+00 0.00000000D+00 0.00000000D+00 0.00000000D+00
  <mgrwgt>
 0.1298852869D-02    1    2    0
 0.586209521783432D+03 0.000000000000000D+00 0.000000000000000D+00 0.586209521783432D+03
 0.586209521783432D+03 0.000000000000000D+00 0.000000000000000D+00 -.586209521783432D+03
 0.589364495847988D+03 -.549833319075351D+03 -.157261051857873D+03 -.683943840478954D+02
 0.483695902035300D+03 0.470596189427891D+03 0.104256916812323D+03 0.403911802065655D+02
 0.993586456835763D+02 0.792371296474604D+02 0.530041350455502D+02 0.280032038413299D+02
 0.000000000000000D+00 -.000000000000000D+00 -.000000000000000D+00 -.000000000000000D+00
 0.586597354390715D+03 0.000000000000000D+00 0.000000000000000D+00 0.586597354390715D+03
 0.740181830850413D+03 0.000000000000000D+00 0.000000000000000D+00 -.740181830850413D+03
 0.585014764065177D+03 -.547064443999685D+03 -.150532310539166D+03 -.683943840478954D+02
 0.487146956421199D+03 0.472885179607578D+03 0.109819472860997D+03 0.403911802065655D+02
 0.100347338785797D+03 0.797079834352731D+02 0.541483734999925D+02 0.280032038413299D+02
 0.154270125968955D+03 -.552871904316586D+01 -.134355358218235D+02 -.153584476459698D+03
0.186464267580D-03 0.000000000000D+00 0.000000000000D+00 0.255575397527D-04 0.773509584683D-06  6 -2 2 25 3 -3 21 2 0.75647646D-01 0.13584898D+00 0.34654532D+06 0.34654532D+06 0.34654532D+06 0.10799478D+01  1  2  1  2  6  2        2 0.129885286891D-02 0.100000000000D+01
  </mgrwgt>
  </event>
  <event>
  7     66 0.18476672E-05 0.39600279E+02 0.75467711E-02 0.91585341E-01
       -2 -1    0    0    0  503 0.00000000E+00 0.00000000E+00 0.40447833E+03 0.40447845E+03 0.32000000E+00 0.0000E+00 0.9000E+01
        2 -1    0    0  501    0 0.00000000E+00 0.00000000E+00 -.17767207E+04 0.17767208E+04 0.32000000E+00 0.0000E+00 0.9000E+01
       23  2    1    2    0    0 -.25455329E+03 0.60156600E+03 -.12559031E+04 0.14186981E+04 0.93449563E+02 0.0000E+00 0.0000E+00
       25  1    1    2    0    0 0.23902108E+03 -.55712326E+03 -.21330588E+03 0.65470742E+03 0.12500000E+03 0.0000E+00 0.9000E+01
        3  1    3    3  502    0 -.75198058E+02 0.19161327E+03 -.49303063E+03 0.53427507E+03 0.50000000E+00 0.0000E+00 0.9000E+01
       -3  1    3    3    0  502 -.17935523E+03 0.40995273E+03 -.76287243E+03 0.88442305E+03 0.50000000E+00 0.0000E+00 0.9000E+01
       21  1    1    2  501  503 0.15532214E+02 -.44442738E+02 0.96966536E+02 0.10779368E+03 0.75000000E+00 0.0000E+00 0.9000E+01
#aMCatNLO 2  0  0  1  2 0.23572238D+02 0.00000000D+00  -5  6  0 0.00000000D+00 0.00000000D+00 0.00000000D+00 0.00000000D+00 0.00000000D+00
  <mgrwgt>
 0.2808679794D-03    1    2    0
 0.731132544637588D+03 0.000000000000000D+00 0.000000000000000D+00 0.731132544637588D+03
 0.731132544637588D+03 0.000000000000000D+00 0.000000000000000D+00 -.731132544637588D+03
 0.733489223827885D+03 0.246704847549101D+03 -.579109041863515D+03 0.355177247721935D+03
 0.255569904174201D+03 -.724466693318137D+02 0.183742931055157D+03 -.162191218349197D+03
 0.473205961273091D+03 -.174258178217288D+03 0.395366110808358D+03 -.192986029372738D+03
 0.000000000000000D+00 0.000000000000000D+00 -.000000000000000D+00 0.000000000000000D+00
 0.979417410458435D+03 0.000000000000000D+00 0.000000000000000D+00 0.979417410458435D+03
 0.733746508130546D+03 0.000000000000000D+00 0.000000000000000D+00 -.733746508130546D+03
 0.713647869015176D+03 0.239021076060158D+03 -.557123261809823D+03 0.355177247721935D+03
 0.262056371137751D+03 -.751950765392857D+02 0.191607021814287D+03 -.162191218349197D+03
 0.487318520432121D+03 -.179358213772633D+03 0.409958978405628D+03 -.192986029372738D+03
 0.250141158003935D+03 0.155322142517607D+02 -.444427384100918D+02 0.245670902327889D+03
0.890220939601D-04 0.000000000000D+00 0.000000000000D+00 0.847778202203D-05 0.242303424336D-07  6 -2 2 25 3 -3 21 2 0.62227399D-01 0.27334146D+00 0.43518732D+06 0.43518732D+06 0.43518732D+06 0.10727979D+01  1  2  1  1  6  1       -2 0.280867979361D-03 0.100000000000D+01
  </mgrwgt>
  </event>
  <event>
  7     66 0.18476672E-05 0.39706234E+02 0.75467711E-02 0.91201137E-01
       -2 -1    0    0    0  501 0.00000000E+00 0.00000000E+00 0.24199205E+03 0.24199226E+03 0.32000000E+00 0.0000E+00 0.9000E+01
        2 -1    0    0  503    0 0.00000000E+00 0.00000000E+00 -.36737177E+04 0.36737177E+04 0.32000000E+00 0.0000E+00 0.9000E+01
       23  2    1    2    0    0 -.51020534E+03 -.33674075E+03 -.30830932E+03 0.69188805E+03 0.99752782E+02 0.0000E+00 0.0000E+00
       25  1    1    2    0    0 0.51509288E+03 0.41503697E+03 -.22950098E+04 0.23917089E+04 0.12500000E+03 0.0000E+00 0.9000E+01
        3  1    3    3  502    0 -.29357511E+03 -.24062409E+03 -.15742357E+03 0.41093641E+03 0.50000000E+00 0.0000E+00 0.9000E+01
       -3  1    3    3    0  502 -.21663022E+03 -.96116661E+02 -.15088575E+03 0.28095164E+03 0.50000000E+00 0.0000E+00 0.9000E+01
       21  1    1    2  503  501 -.48875478E+01 -.78296216E+02 -.82840652E+03 0.83211304E+03 0.75000000E+00 0.0000E+00 0.9000E+01
#aMCatNLO 2  0  0  2  2 0.64887660D+02 0.00000000D+00  -5  6  0 0.00000000D+00 0.00000000D+00 0.00000000D+00 0.00000000D+00 0.00000000D+00
  <mgrwgt>
 0.1627387004D-03    1    2    0
 0.825400720543586D+03 0.000000000000000D+00 0.000000000000000D+00 0.825400720543586D+03
 0.825400720543586D+03 0.000000000000000D+00 0.000000000000000D+00 -.825400720543586D+03
 0.827119396008275D+03 0.512615437754672D+03 0.375349433407045D+03 -.514625797128059D+03
 0.531634628971173D+03 -.295131140424043D+03 -.265523542108377D+03 0.353596149950111D+03
 0.292047416107725D+03 -.217484297330628D+03 -.109825891298668D+03 0.161029647177948D+03
 0.000000000000000D+00 -.000000000000000D+00 -.000000000000000D+00 -.000000000000000D+00
 0.832708807401019D+03 0.000000000000000D+00 0.000000000000000D+00 0.832708807401019D+03
 0.106761176373176D+04 0.000000000000000D+00 0.000000000000000D+00 -.106761176373176D+04
 0.847373045186657D+03 0.515092884848591D+03 0.415036970181662D+03 -.514625797128059D+03
 0.518767213275583D+03 -.293577048612399D+03 -.240627722505546D+03 0.353596149950111D+03
 0.286524130769933D+03 -.216628288451655D+03 -.961130318204443D+02 0.161029647177948D+03
 0.247656181900605D+03 -.488754778453756D+01 -.782962158556712D+02 -.234902956330740D+03
0.280770411827D-03 0.000000000000D+00 0.000000000000D+00 0.439604281090D-06 0.457551474846D-09  6 -2 2 25 3 -3 21 2 0.37229539D-01 0.56518697D+00 0.46801636D+06 0.46801636D+06 0.46801636D+06 0.10705453D+01  1  2  1  2  6  2        2 0.162738700408D-03 0.100000000000D+01
  </mgrwgt>
  </event>
  <event>
  6     66 0.18476672E-05 0.25614556E+02 0.75467711E-02 0.94177249E-01
       -2 -1    0    0    0  501 0.00000000E+00 0.00000000E+00 0.32133616E+03 0.32133632E+03 0.32000000E+00 0.0000E+00 0.9000E+01
        2 -1    0    0  501    0 -.00000000E+00 -.00000000E+00 -.96937076E+03 0.96937081E+03 0.32000000E+00 0.0000E+00 0.9000E+01
       23  2    1    2    0    0 0.13358315E+03 -.49173456E+03 -.55272562E+03 0.75745660E+03 0.92669043E+02 0.0000E+00 0.0000E+00
       25  1    1    2    0    0 -.13358315E+03 0.49173456E+03 -.95308975E+02 0.53325054E+03 0.12500000E+03 0.0000E+00 0.9000E+01
        3  1    3    3  502    0 0.10503384E+03 -.47094828E+03 -.51824300E+03 0.70809636E+03 0.50000000E+00 0.0000E+00 0.9000E+01
       -3  1    3    3    0  502 0.28549310E+02 -.20786279E+02 -.34482612E+02 0.49360237E+02 0.50000000E+00 0.0000E+00 0.9000E+01
#aMCatNLO 1  0  0  5  4 0.61110758D+01 0.00000000D+00  -5  6  0 0.00000000D+00 0.00000000D+00 0.00000000D+00 0.00000000D+00 0.00000000D+00
  <mgrwgt>
 0.7487798685D-04    8    2    0
 0.558116490749610D+03 0.000000000000000D+00 0.000000000000000D+00 0.558116490749610D+03
 0.558116490749610D+03 -.000000000000000D+00 -.000000000000000D+00 -.558116490749610D+03
 0.561268811491229D+03 -.133583154708113D+03 0.491734557927664D+03 0.199374883249344D+03
 0.517921672407719D+03 0.105036071905597D+03 -.470961385496954D+03 -.188163906525776D+03
 0.370424976002718D+02 0.285470828025161D+02 -.207731724307107D+02 -.112109767235682D+02
 0.000000000000000D+00 0.000000000000000D+00 -.000000000000000D+00 0.000000000000000D+00
 0.558116490749610D+03 0.000000000000000D+00 0.000000000000000D+00 0.558116490749610D+03
 0.558116490749610D+03 -.000000000000000D+00 -.000000000000000D+00 -.558116490749610D+03
 0.560432198817073D+03 -.132758543459410D+03 0.491134503912474D+03 0.199051042891324D+03
 0.518689578105655D+03 0.105798129967282D+03 -.471515920740611D+03 -.188463181069891D+03
 0.213820649338013D+02 0.148887057676594D+02 -.962752870269428D+01 -.119511435635323D+02
 0.157291396426900D+02 0.120717077244685D+02 -.999105446916911D+01 0.136328174210021D+01
0.387467723491D-05 0.000000000000D+00 0.000000000000D+00 0.438788657586D-05 0.000000000000D+00  6 -2 2 25 3 -3 21 0 0.49436349D-01 0.14913398D+00 0.27170226D+06 0.27170226D+06 0.27170226D+06 0.10877497D+01  1  2  2  4  6  5       -3 0.499263441823D-04 0.100000000000D+01
0.107226142640D-05 0.000000000000D+00 -.148797808080D-07 0.438788657586D-05 0.000000000000D+00  6 -2 2 25 3 -3 21 2 0.49436349D-01 0.14913398D+00 0.27170226D+06 0.27170226D+06 0.27170226D+06 0.10877497D+01  1  2  3  4  6  5       -3 0.163475568430D-04 0.100000000000D+01
-.112922290262D-05 0.000000000000D+00 0.000000000000D+00 0.438788657586D-05 0.000000000000D+00  6 -2 2 25 3 -3 21 2 0.49436349D-01 0.14913398D+00 0.27170226D+06 0.27170226D+06 0.27170226D+06 0.10877497D+01  1  2 15  4  6  5       -3 -.172159840264D-04 0.100000000000D+01
0.187841797053D-05 0.000000000000D+00 0.000000000000D+00 0.438788657586D-05 0.000000000000D+00  6 -2 2 25 3 -3 21 2 0.49436349D-01 0.14913398D+00 0.27067667D+06 0.27067667D+06 0.27067667D+06 0.10878723D+01  1  2 12  4  6  5       -3 0.286477914197D-04 0.100000000000D+01
-.296185126535D-04 0.000000000000D+00 0.000000000000D+00 0.438788657586D-05 0.000000000000D+00  6 -2 2 25 3 -3 21 2 0.49436349D-01 0.14913398D+00 0.27170226D+06 0.27170226D+06 0.27170226D+06 0.10877497D+01  1  2  4  4  6  5       -3 -.451559952907D-03 0.100000000000D+01
-.163971538276D-04 0.000000000000D+00 0.000000000000D+00 0.438788657586D-05 0.000000000000D+00  6 -2 2 25 3 -3 21 2 0.49436349D-01 0.14913398D+00 0.27170226D+06 0.27170226D+06 0.27170226D+06 0.10877497D+01  1  2  5  4  6  5       -3 -.249988853147D-03 0.100000000000D+01
0.457638716016D-04 0.000000000000D+00 -.000000000000D+00 0.438788657586D-05 0.000000000000D+00  6 -2 2 25 3 -3 21 2 0.49436349D-01 0.14913398D+00 0.27170226D+06 0.27170226D+06 0.27170226D+06 0.10877497D+01  1  2  6  4  6  5       -3 0.697709974401D-03 0.100000000000D+01
0.662978632801D-07 0.000000000000D+00 0.000000000000D+00 0.438788657586D-05 0.612775677576D-08  6 -2 2 25 3 -3 21 2 0.49436349D-01 0.14913398D+00 0.27067667D+06 0.27067667D+06 0.27067667D+06 0.10878723D+01  1  2 11  4  6  5       -3 0.101111008765D-05 0.100000000000D+01
  </mgrwgt>
  </event>
  <event>
  7     66 0.18476672E-05 0.43995262E+02 0.75467711E-02 0.93696594E-01
       -2 -1    0    0    0  503 0.00000000E+00 0.00000000E+00 0.74983810E+03 0.74983817E+03 0.32000000E+00 0.0000E+00 0.9000E+01
        2 -1    0    0  501    0 0.00000000E+00 0.00000000E+00 -.51381172E+03 0.51381182E+03 0.32000000E+00 0.0000E+00 0.9000E+01
       23  2    1    2    0    0 0.43956365E+03 0.24942530E+03 0.60874947E+02 0.51796462E+03 0.95668226E+02 0.0000E+00 0.0000E+00
       25  1    1    2    0    0 -.46842266E+03 -.21796108E+03 -.33594594E+02 0.53261658E+03 0.12500000E+03 0.0000E+00 0.9000E+01
        3  1    3    3  502    0 0.15589755E+03 0.44655062E+02 -.36581620E+01 0.16220898E+03 0.50000000E+00 0.0000E+00 0.9000E+01
       -3  1    3    3    0  502 0.28366610E+03 0.20477024E+03 0.64533109E+02 0.35575564E+03 0.50000000E+00 0.0000E+00 0.9000E+01
       21  1    1    2  501  503 0.28859016E+02 -.31464217E+02 0.20874603E+03 0.21306878E+03 0.75000000E+00 0.0000E+00 0.9000E+01
#aMCatNLO 2  0  0  1  2 0.27548208D+02 0.00000000D+00  -5  6  0 0.00000000D+00 0.00000000D+00 0.00000000D+00 0.00000000D+00 0.00000000D+00
  <mgrwgt>
 0.2442892242D-03    1    2    0
 0.524679378901460D+03 0.000000000000000D+00 0.000000000000000D+00 0.524679378901460D+03
 0.524679378901460D+03 0.000000000000000D+00 0.000000000000000D+00 -.524679378901460D+03
 0.527763449202425D+03 -.453833169223070D+03 -.233867621269386D+03 -.474410007144032D+02
 0.165436313406535D+03 0.160399560576022D+03 0.397384614737118D+02 -.787460730872016D+01
 0.356158995193960D+03 0.293433608647048D+03 0.194129159795674D+03 0.553156080231233D+02
 0.000000000000000D+00 0.000000000000000D+00 -.000000000000000D+00 0.000000000000000D+00
 0.730612623896664D+03 0.000000000000000D+00 0.000000000000000D+00 0.730612623896664D+03
 0.527331049768371D+03 0.000000000000000D+00 0.000000000000000D+00 -.527331049768371D+03
 0.533668880772162D+03 -.468422663085199D+03 -.217961084746792D+03 -.474410007144032D+02
 0.162353474727491D+03 0.155894057053094D+03 0.446506919470497D+02 -.787460730872016D+01
 0.354204592505600D+03 0.283669589867941D+03 0.204774609376369D+03 0.553156080231233D+02
 0.207716725659781D+03 0.288590161641639D+02 -.314642165766267D+02 0.203281574128292D+03
0.483856292407D-04 0.000000000000D+00 0.000000000000D+00 0.308947756920D-05 0.111948251349D-07  6 -2 2 25 3 -3 21 2 0.11535957D+00 0.79047868D-01 0.29499661D+06 0.29499661D+06 0.29499661D+06 0.10850927D+01  1  2  1  1  6  1       -2 0.244289224163D-03 0.100000000000D+01
  </mgrwgt>
  </event>
  <event>
  7     66 0.18476672E-05 0.45245836E+02 0.75467711E-02 0.94385208E-01
       -2 -1    0    0    0  503 0.00000000E+00 0.00000000E+00 0.25880533E+03 0.25880553E+03 0.32000000E+00 0.0000E+00 0.9000E+01
        2 -1    0    0  501    0 0.00000000E+00 0.00000000E+00 -.18412888E+04 0.18412889E+04 0.32000000E+00 0.0000E+00 0.9000E+01
       23  2    1    2    0    0 0.48339355E+03 0.10103701E+03 -.11733466E+04 0.12762309E+04 0.90250751E+02 0.0000E+00 0.0000E+00
       25  1    1    2    0    0 -.48700975E+03 -.11051037E+03 -.50872824E+03 0.72375442E+03 0.12500000E+03 0.0000E+00 0.9000E+01
        3  1    3    3  502    0 0.37421543E+03 0.55732808E+02 -.80701846E+03 0.89130375E+03 0.50000000E+00 0.0000E+00 0.9000E+01
       -3  1    3    3    0  502 0.10917813E+03 0.45304204E+02 -.36632817E+03 0.38492715E+03 0.50000000E+00 0.0000E+00 0.9000E+01
       21  1    1    2  501  503 0.36162011E+01 0.94733528E+01 0.99591370E+02 0.10010906E+03 0.75000000E+00 0.0000E+00 0.9000E+01
#aMCatNLO 2  0  0  1  2 0.27548208D+02 0.00000000D+00  -5  6  0 0.00000000D+00 0.00000000D+00 0.00000000D+00 0.00000000D+00 0.00000000D+00
  <mgrwgt>
 0.1213018377D-02    1    2    0
 0.540939600456104D+03 0.000000000000000D+00 0.000000000000000D+00 0.540939600456104D+03
 0.540939600456104D+03 0.000000000000000D+00 0.000000000000000D+00 -.540939600456104D+03
 0.544396456794210D+03 -.485185840461541D+03 -.105732265617543D+03 0.184818533683988D+03
 0.394700748253309D+03 0.375539892963007D+03 0.591815166051279D+02 -.106094380423148D+03
 0.142781995864690D+03 0.109645947498534D+03 0.465507490124149D+02 -.787241532608397D+02
 0.000000000000000D+00 0.000000000000000D+00 0.000000000000000D+00 0.000000000000000D+00
 0.880777299716190D+03 0.000000000000000D+00 0.000000000000000D+00 0.880777299716190D+03
 0.541039005134605D+03 0.000000000000000D+00 0.000000000000000D+00 -.541039005134605D+03
 0.546967943204333D+03 -.487009753189889D+03 -.110510365115683D+03 0.184818533683988D+03
 0.392944619211729D+03 0.374223562311993D+03 0.557331285735939D+02 -.106094380423148D+03
 0.142014157232741D+03 0.109169989762860D+03 0.453038837525723D+02 -.787241532608397D+02
 0.339889585201992D+03 0.361620111503595D+01 0.947335278951710D+01 0.339738294581584D+03
0.162546742877D-03 0.000000000000D+00 0.000000000000D+00 0.155021645188D-04 0.107261082315D-05  6 -2 2 25 3 -3 21 2 0.39816192D-01 0.28327500D+00 0.26085797D+06 0.26085797D+06 0.26085797D+06 0.10890728D+01  1  2  1  1  6  1       -2 0.121301837651D-02 0.100000000000D+01
  </mgrwgt>
  </event>
  <event>
  6     66 -.18476672E-05 0.19545681E+02 0.75467711E-02 0.93639488E-01
       -2 -1    0    0    0  501 0.00000000E+00 0.00000000E+00 0.16182910E+03 0.16182942E+03 0.32000000E+00 0.0000E+00 0.9000E+01
        2 -1    0    0  501    0 -.00000000E+00 -.00000000E+00 -.19169797E+04 0.19169797E+04 0.32000000E+00 0.0000E+00 0.9000E+01
       23  2    1    2    0    0 -.71563059E+02 -.53206188E+03 -.69032321E+03 0.87977057E+03 0.96119776E+02 0.0000E+00 0.0000E+00
       25  1    1    2    0    0 0.71563059E+02 0.53206188E+03 -.10648273E+04 0.11990385E+04 0.12500000E+03 0.0000E+00 0.9000E+01
        3  1    3    3  502    0 0.97298347E+01 -.19241824E+02 -.56186159E+02 0.60183486E+02 0.50000000E+00 0.0000E+00 0.9000E+01
       -3  1    3    3    0  502 -.81292894E+02 -.51282006E+03 -.63413705E+03 0.81958709E+03 0.50000000E+00 0.0000E+00 0.9000E+01
#aMCatNLO 1  0  0  4  5 0.19750301D+01 0.00000000D+00  -5  6  0 0.00000000D+00 0.00000000D+00 0.00000000D+00 0.00000000D+00 0.00000000D+00
  <mgrwgt>
 -.2323015446D-02    7    2    0
 0.556977064709535D+03 0.000000000000000D+00 0.000000000000000D+00 0.556977064709535D+03
 0.556977064709535D+03 -.000000000000000D+00 -.000000000000000D+00 -.556977064709535D+03
 0.559843426172584D+03 0.715630591470452D+02 0.532061880450424D+03 -.979211201209074D+02
 0.237707623110436D+02 0.973229670459143D+01 -.192284674757107D+02 -.100298345069828D+02
 0.530339940935443D+03 -.812953558516364D+02 -.512833412974713D+03 0.107950954627890D+03
 0.000000000000000D+00 0.000000000000000D+00 -.000000000000000D+00 0.000000000000000D+00
 0.556977064709535D+03 0.000000000000000D+00 0.000000000000000D+00 0.556977064709535D+03
 0.556977064709535D+03 -.000000000000000D+00 -.000000000000000D+00 -.556977064709535D+03
 0.559654599234536D+03 0.716833896714442D+02 0.531824138872565D+03 -.980451294151669D+02
 0.195156587209756D+02 0.917543543028940D+01 -.145482352665020D+02 -.922069252327013D+01
 0.530516437034742D+03 -.811813284917160D+02 -.513058701151607D+03 0.107833441199767D+03
 0.426743442881658D+01 0.322503389982608D+00 -.421720245445557D+01 -.567619261329882D+00
0.171118125010D-05 0.000000000000D+00 0.000000000000D+00 0.638710543342D-06 0.000000000000D+00  6 -2 2 25 3 -3 21 0 0.24896811D-01 0.29491997D+00 0.29811678D+06 0.29811678D+06 0.29811678D+06 0.10847543D+01  1  2  2  3  6  4        3 0.226183225160D-04 0.100000000000D+01
0.605483245774D-06 0.000000000000D+00 -.657138656477D-08 0.638710543342D-06 0.000000000000D+00  6 -2 2 25 3 -3 21 2 0.24896811D-01 0.29491997D+00 0.29811678D+06 0.29811678D+06 0.29811678D+06 0.10847543D+01  1  2  3  3  6  4        3 0.941736140472D-05 0.100000000000D+01
-.489012113516D-06 0.000000000000D+00 0.000000000000D+00 0.638710543342D-06 0.000000000000D+00  6 -2 2 25 3 -3 21 2 0.24896811D-01 0.29491997D+00 0.29811678D+06 0.29811678D+06 0.29811678D+06 0.10847543D+01  1  2 15  3  6  4        3 -.760583193078D-05 0.100000000000D+01
-.203702284025D-03 0.000000000000D+00 0.000000000000D+00 0.638710543342D-06 0.000000000000D+00  6 -2 2 25 3 -3 21 2 0.24896811D-01 0.29491997D+00 0.29811678D+06 0.29811678D+06 0.29811678D+06 0.10847543D+01  1  2  4  3  6  4        3 -.316827598619D-02 0.100000000000D+01
-.159260471107D-04 0.000000000000D+00 0.000000000000D+00 0.638710543342D-06 0.000000000000D+00  6 -2 2 25 3 -3 21 2 0.24896811D-01 0.29491997D+00 0.29811678D+06 0.29811678D+06 0.29811678D+06 0.10847543D+01  1  2  5  3  6  4        3 -.247705188272D-03 0.100000000000D+01
0.274472602038D-04 0.000000000000D+00 -.000000000000D+00 0.638710543342D-06 0.000000000000D+00  6 -2 2 25 3 -3 21 2 0.24896811D-01 0.29491997D+00 0.29811678D+06 0.29811678D+06 0.29811678D+06 0.10847543D+01  1  2  6  3  6  4        3 0.426899952579D-03 0.100000000000D+01
0.412526044507D-04 0.000000000000D+00 0.000000000000D+00 0.638710543342D-06 0.179861392509D-05  6 -2 2 25 3 -3 21 2 0.24896811D-01 0.29491997D+00 0.29804538D+06 0.29804538D+06 0.29804538D+06 0.10847620D+01  1  2 11  3  6  4        3 0.641635924323D-03 0.100000000000D+01
  </mgrwgt>
  </event>
  <event>
  6     66 -.18476672E-05 0.22158568E+02 0.75467711E-02 0.94549359E-01
       -2 -1    0    0    0  501 0.00000000E+00 0.00000000E+00 0.14053563E+03 0.14053600E+03 0.32000000E+00 0.0000E+00 0.9000E+01
        2 -1    0    0  501    0 -.00000000E+00 -.00000000E+00 -.18515158E+04 0.18515158E+04 0.32000000E+00 0.0000E+00 0.9000E+01
       23  2    1    2    0    0 -.14059483E+03 0.47287648E+03 -.98409116E+03 0.11047121E+04 0.92598306E+02 0.0000E+00 0.0000E+00
       25  1    1    2    0    0 0.14059483E+03 -.47287648E+03 -.72688899E+03 0.88733966E+03 0.12500000E+03 0.0000E+00 0.9000E+01
        3  1    3    3  502    0 0.75037794E+01 0.25813433E+02 -.93177670E+02 0.96979216E+02 0.50000000E+00 0.0000E+00 0.9000E+01
       -3  1    3    3    0  502 -.14809861E+03 0.44706305E+03 -.89091349E+03 0.10077329E+04 0.50000000E+00 0.0000E+00 0.9000E+01
#aMCatNLO 1  0  0  4  2 0.17430236D-01 0.00000000D+00  -5  6  0 0.00000000D+00 0.00000000D+00 0.00000000D+00 0.00000000D+00 0.00000000D+00
  <mgrwgt>
 -.2356599767D-02    7    2    0
 0.510102276980404D+03 0.000000000000000D+00 0.000000000000000D+00 0.510102276980404D+03
 0.510102276980404D+03 -.000000000000000D+00 -.000000000000000D+00 -.510102276980404D+03
 0.513557737899523D+03 0.140594829070945D+03 -.472876479035049D+03 0.688293525351025D+02
 0.330809880661249D+02 0.750831636543624D+01 0.258011499810516D+02 -.192944970507890D+02
 0.473565827995160D+03 -.148103145436381D+03 0.447075329053998D+03 -.495348554843135D+02
 0.000000000000000D+00 0.000000000000000D+00 0.000000000000000D+00 0.000000000000000D+00
 0.510102276980404D+03 0.000000000000000D+00 0.000000000000000D+00 0.510102276980404D+03
 0.510102276980404D+03 -.000000000000000D+00 -.000000000000000D+00 -.510102276980404D+03
 0.513552784956849D+03 0.140596360231175D+03 -.472871217443394D+03 0.688254178358836D+02
 0.330633851604087D+02 0.751074265041888D+01 0.257765558820892D+02 -.192962522258145D+02
 0.473570346464913D+03 -.148101733497539D+03 0.447080180960079D+03 -.495384838143547D+02
 0.180373786370723D-01 -.536938405469534D-02 0.144806012258441D-01 0.931820428561093D-02
0.138751780107D-05 0.000000000000D+00 0.000000000000D+00 0.614440386686D-05 0.000000000000D+00  6 -2 2 25 3 -3 21 0 0.21620897D-01 0.28484861D+00 0.25339339D+06 0.25339339D+06 0.25339339D+06 0.10900189D+01  1  2  2  3  6  4        3 0.254800212275D-04 0.100000000000D+01
0.393925180442D-06 0.000000000000D+00 -.532843369795D-08 0.614440386686D-05 0.000000000000D+00  6 -2 2 25 3 -3 21 2 0.21620897D-01 0.28484861D+00 0.25339339D+06 0.25339339D+06 0.25339339D+06 0.10900189D+01  1  2  3  3  6  4        3 0.859494326218D-05 0.100000000000D+01
-.479709615808D-06 0.000000000000D+00 0.000000000000D+00 0.614440386686D-05 0.000000000000D+00  6 -2 2 25 3 -3 21 2 0.21620897D-01 0.28484861D+00 0.25339339D+06 0.25339339D+06 0.25339339D+06 0.10900189D+01  1  2 15  3  6  4        3 -.104666498485D-04 0.100000000000D+01
-.326725037627D-02 0.000000000000D+00 0.000000000000D+00 0.614440386686D-05 0.000000000000D+00  6 -2 2 25 3 -3 21 2 0.21620897D-01 0.28484861D+00 0.25339339D+06 0.25339339D+06 0.25339339D+06 0.10900189D+01  1  2  4  3  6  4        3 -.712872215376D-01 0.100000000000D+01
-.112722468384D-02 0.000000000000D+00 0.000000000000D+00 0.614440386686D-05 0.000000000000D+00  6 -2 2 25 3 -3 21 2 0.21620897D-01 0.28484861D+00 0.25339339D+06 0.25339339D+06 0.25339339D+06 0.10900189D+01  1  2  5  3  6  4        3 -.245945998946D-01 0.100000000000D+01
0.112909551532D-02 0.000000000000D+00 -.000000000000D+00 0.614440386686D-05 0.000000000000D+00  6 -2 2 25 3 -3 21 2 0.21620897D-01 0.28484861D+00 0.25339339D+06 0.25339339D+06 0.25339339D+06 0.10900189D+01  1  2  6  3  6  4        3 0.246354190430D-01 0.100000000000D+01
0.315628476365D-02 0.000000000000D+00 0.000000000000D+00 0.614440386686D-05 0.262914034967D+00  6 -2 2 25 3 -3 21 2 0.21620897D-01 0.28484861D+00 0.25338946D+06 0.25338946D+06 0.25338946D+06 0.10900194D+01  1  2 11  3  6  4        3 0.688661943075D-01 0.100000000000D+01
  </mgrwgt>
  </event>
  <event>
  7     66 0.18476672E-05 0.83894682E+02 0.75467711E-02 0.94389375E-01
       21 -1    0    0  503  501 0.00000000E+00 0.00000000E+00 0.40422467E+03 0.40422536E+03 0.75000000E+00 0.0000E+00 0.9000E+01
        2 -1    0    0  501    0 0.00000000E+00 0.00000000E+00 -.94121408E+03 0.94121413E+03 0.32000000E+00 0.0000E+00 0.9000E+01
       23  2    1    2    0    0 -.38620419E+03 0.30010842E+03 -.17566978E+03 0.52777554E+03 0.92023923E+02 0.0000E+00 0.0000E+00
       25  1    1    2    0    0 0.39752768E+03 -.30743220E+03 -.47528885E+03 0.70289922E+03 0.12500000E+03 0.0000E+00 0.9000E+01
        3  1    3    3  502    0 -.19898832E+03 0.13837375E+03 -.13381281E+03 0.27685694E+03 0.50000000E+00 0.0000E+00 0.9000E+01
        2  1    1    2  503    0 -.11323493E+02 0.73237795E+01 0.11396922E+03 0.11476474E+03 0.32000000E+00 0.0000E+00 0.9000E+01
       -3  1    3    3    0  502 -.18721587E+03 0.16173467E+03 -.41856971E+02 0.25091859E+03 0.50000000E+00 0.0000E+00 0.9000E+01
#aMCatNLO 2  0  0  1  2 0.57178561D+01 0.00000000D+00  -5  6  0 0.00000000D+00 0.00000000D+00 0.00000000D+00 0.00000000D+00 0.00000000D+00
  <mgrwgt>
 0.2708890923D-03    1    2    0
 0.522166483511047D+03 0.000000000000000D+00 0.000000000000000D+00 0.522166483511047D+03
 0.522166483511047D+03 0.000000000000000D+00 0.000000000000000D+00 -.522166483511047D+03
 0.525592880085397D+03 0.391794207969453D+03 -.303723920013027D+03 -.121950623655526D+03
 0.245975266361294D+03 -.201638553822901D+03 0.140086944648721D+03 0.148786159539326D+02
 0.000000000000000D+00 -.000000000000000D+00 0.000000000000000D+00 0.000000000000000D+00
 0.272764820575403D+03 -.190155654146552D+03 0.163636975364307D+03 0.107072007701593D+03
 0.728254085785221D+03 0.000000000000000D+00 0.000000000000000D+00 0.728254085785221D+03
 0.522430672247357D+03 0.000000000000000D+00 0.000000000000000D+00 -.522430672247357D+03
 0.532014823628917D+03 0.397527683303532D+03 -.307432202214184D+03 -.121950623655526D+03
 0.242827034191134D+03 -.198988671523807D+03 0.138373060696611D+03 0.148786159539326D+02
 0.206264725068625D+03 -.113234933542422D+02 0.732377945551851D+01 0.205823413537864D+03
 0.269578175143902D+03 -.187215518425484D+03 0.161735362062054D+03 0.107072007701593D+03
0.269122824298D-05 0.000000000000D+00 0.000000000000D+00 0.382293355117D-04 0.584879177708D-07  6 21 2 25 3 2 -3 2 0.62188453D-01 0.14480219D+00 0.26066538D+06 0.26066538D+06 0.26066538D+06 0.10890968D+01  1  2  1  5  5  1       -2 0.270889092321D-03 0.100000000000D+01
  </mgrwgt>
  </event>
  <event>
  7     66 0.18476672E-05 0.28665867E+02 0.75467711E-02 0.94733701E-01
       21 -1    0    0  503  501 0.00000000E+00 0.00000000E+00 0.44664631E+03 0.44664694E+03 0.75000000E+00 0.0000E+00 0.9000E+01
        2 -1    0    0  501    0 0.00000000E+00 0.00000000E+00 -.10147300E+04 0.10147301E+04 0.32000000E+00 0.0000E+00 0.9000E+01
       23  2    1    2    0    0 0.30925460E+03 -.37045108E+03 -.94041430E+02 0.49972006E+03 0.89464744E+02 0.0000E+00 0.0000E+00
       25  1    1    2    0    0 -.29332707E+03 0.37383764E+03 -.63330803E+03 0.80156061E+03 0.12500000E+03 0.0000E+00 0.9000E+01
        3  1    3    3  502    0 0.50276653E+02 -.50342606E+02 0.17213291E+02 0.73202918E+02 0.50000000E+00 0.0000E+00 0.9000E+01
        2  1    1    2  503    0 -.15927530E+02 -.33865598E+01 0.15926575E+03 0.16009633E+03 0.32000000E+00 0.0000E+00 0.9000E+01
       -3  1    3    3    0  502 0.25897795E+03 -.32010847E+03 -.11125472E+03 0.42651715E+03 0.50000000E+00 0.0000E+00 0.9000E+01
#aMCatNLO 2  0  0  1  2 0.29063678D+02 0.00000000D+00  -5  6  0 0.00000000D+00 0.00000000D+00 0.00000000D+00 0.00000000D+00 0.00000000D+00
  <mgrwgt>
 0.2334084359D-03    1    2    0
 0.539450879582983D+03 0.000000000000000D+00 0.000000000000000D+00 0.539450879582983D+03
 0.539450879582983D+03 0.000000000000000D+00 0.000000000000000D+00 -.539450879582983D+03
 0.542982739484959D+03 -.301318765699120D+03 0.372138422254095D+03 -.223439592504065D+03
 0.993009391199609D+02 0.488000371155213D+02 -.506467558768799D+02 0.701009201564262D+02
 0.000000000000000D+00 -.000000000000000D+00 -.000000000000000D+00 0.000000000000000D+00
 0.436618080561046D+03 0.252518728583599D+03 -.321491666377215D+03 0.153338672347639D+03
 0.839721983088162D+03 0.000000000000000D+00 0.000000000000000D+00 0.839721983088162D+03
 0.539733125212546D+03 0.000000000000000D+00 0.000000000000000D+00 -.539733125212546D+03
 0.539764396702250D+03 -.293327071689449D+03 0.373837640511297D+03 -.223439592504065D+03
 0.998736950478115D+02 0.502701335743882D+02 -.503341795019921D+02 0.701009201564262D+02
 0.300430474231255D+03 -.159275299409794D+02 -.338655980010013D+01 0.299988857875616D+03
 0.439386542319391D+03 0.258984468056040D+03 -.320116901209205D+03 0.153338672347639D+03
0.321895825777D-05 0.000000000000D+00 0.000000000000D+00 0.500548021866D-05 0.679696635754D-08  6 21 2 25 3 2 -3 2 0.68714858D-01 0.15611234D+00 0.24528685D+06 0.24528685D+06 0.24528685D+06 0.10910815D+01  1  2  1  5  5  1       -2 0.233408435909D-03 0.100000000000D+01
  </mgrwgt>
  </event>
  <event>
  7     66 0.18476672E-05 0.34216422E+02 0.75467711E-02 0.93373634E-01
       -2 -1    0    0    0  501 0.00000000E+00 0.00000000E+00 0.19678284E+04 0.19678284E+04 0.32000000E+00 0.0000E+00 0.9000E+01
        2 -1    0    0  503    0 0.00000000E+00 0.00000000E+00 -.20038541E+03 0.20038567E+03 0.32000000E+00 0.0000E+00 0.9000E+01
       23  2    1    2    0    0 -.53639747E+03 0.27148597E+02 0.48022833E+03 0.72646624E+03 0.93137859E+02 0.0000E+00 0.0000E+00
       25  1    1    2    0    0 0.54697046E+03 -.16623106E+02 0.13037578E+04 0.14194585E+04 0.12500000E+03 0.0000E+00 0.9000E+01
        3  1    3    3  502    0 -.44929454E+03 0.50152461E+02 0.42680641E+03 0.62172729E+03 0.50000000E+00 0.0000E+00 0.9000E+01
       -3  1    3    3    0  502 -.87102927E+02 -.23003865E+02 0.53421921E+02 0.10473896E+03 0.50000000E+00 0.0000E+00 0.9000E+01
       21  1    1    2  503  501 -.10572993E+02 -.10525491E+02 -.16543184E+02 0.22289315E+02 0.75000000E+00 0.0000E+00 0.9000E+01
#aMCatNLO 2  0  0  2  2 0.79093018D+02 0.00000000D+00  -5  6  0 0.00000000D+00 0.00000000D+00 0.00000000D+00 0.00000000D+00 0.00000000D+00
  <mgrwgt>
 0.2557584211D-03    1    2    0
 0.596272568485443D+03 0.000000000000000D+00 0.000000000000000D+00 0.596272568485443D+03
 0.596272568485443D+03 0.000000000000000D+00 0.000000000000000D+00 -.596272568485443D+03
 0.599186646672644D+03 0.541637703474496D+03 -.219319079150375D+02 0.222592064415803D+03
 0.483837976012308D+03 -.453578615078350D+03 0.459001378912130D+02 -.162045685894008D+03
 0.109520514285934D+03 -.880590883961454D+02 -.239682299761756D+02 -.605463785217943D+02
 0.000000000000000D+00 -.000000000000000D+00 -.000000000000000D+00 -.000000000000000D+00
 0.597188970656767D+03 0.000000000000000D+00 0.000000000000000D+00 0.597188970656767D+03
 0.660296094864891D+03 0.000000000000000D+00 0.000000000000000D+00 -.660296094864891D+03
 0.603842068440850D+03 0.546970464310923D+03 -.166231058929712D+02 0.222592064415803D+03
 0.480259568600535D+03 -.449304983398726D+03 0.501545691695445D+02 -.162045685894008D+03
 0.108536815230332D+03 -.870924883704507D+02 -.230059726523734D+02 -.605463785217943D+02
 0.648466132499417D+02 -.105729925417460D+02 -.105254906242000D+02 -.631071242081239D+02
0.385013916449D-03 0.000000000000D+00 0.000000000000D+00 0.529809857119D-05 0.149549672230D-06  6 -2 2 25 3 -3 21 2 0.30274175D+00 0.30828435D-01 0.31271162D+06 0.31271162D+06 0.31271162D+06 0.10832210D+01  1  2  1  2  6  2        2 0.255758421145D-03 0.100000000000D+01
  </mgrwgt>
  </event>
  <event>
  7     66 0.18476672E-05 0.15458221E+03 0.75467711E-02 0.94158276E-01
       21 -1    0    0  503  501 0.00000000E+00 0.00000000E+00 0.43095532E+03 0.43095598E+03 0.75000000E+00 0.0000E+00 0.9000E+01
        2 -1    0    0  501    0 0.00000000E+00 0.00000000E+00 -.73972941E+03 0.73972948E+03 0.32000000E+00 0.0000E+00 0.9000E+01
       23  2    1    2    0    0 0.16785916E+03 -.10659748E+03 -.16531141E+03 0.27424201E+03 0.91329583E+02 0.0000E+00 0.0000E+00
       25  1    1    2    0    0 -.48746228E+03 0.99188760E+02 -.23459416E+03 0.56401889E+03 0.12500000E+03 0.0000E+00 0.9000E+01
        3  1    3    3  502    0 0.62938304E+02 -.79357392E+02 -.40907533E+02 0.10923599E+03 0.50000000E+00 0.0000E+00 0.9000E+01
        2  1    1    2  503    0 0.31960312E+03 0.74087218E+01 0.91131489E+02 0.33242457E+03 0.32000000E+00 0.0000E+00 0.9000E+01
       -3  1    3    3    0  502 0.10492086E+03 -.27240090E+02 -.12440388E+03 0.16500601E+03 0.50000000E+00 0.0000E+00 0.9000E+01
#aMCatNLO 2  0  0  1  1 0.79363133D+02 0.00000000D+00  -5  6  0 0.00000000D+00 0.00000000D+00 0.00000000D+00 0.00000000D+00 0.00000000D+00
  <mgrwgt>
 0.6080134097D-03    1    2    0
 0.331871893331020D+03 0.000000000000000D+00 0.000000000000000D+00 0.331871893331020D+03
 0.331871893331020D+03 0.000000000000000D+00 0.000000000000000D+00 -.331871893331020D+03
 0.337358880742477D+03 -.293077180964034D+03 0.103694802484940D+03 0.392322361279730D+02
 0.142729225072711D+03 0.118806848939038D+03 -.780638348836741D+02 0.127515496426041D+02
 0.000000000000000D+00 0.000000000000000D+00 0.000000000000000D+00 0.000000000000000D+00
 0.183655680846852D+03 0.174270332024996D+03 -.256309676012662D+02 -.519837857705771D+02
 0.724284083643767D+03 0.000000000000000D+00 0.000000000000000D+00 0.724284083643767D+03
 0.440145904784664D+03 0.000000000000000D+00 0.000000000000000D+00 -.440145904784664D+03
 0.514414280978228D+03 -.487462279509103D+03 0.991887603437815D+02 0.392322361279730D+02
 0.102085832344585D+03 0.629370455688044D+02 -.793589531323920D+02 0.127515496426041D+02
 0.427709651161033D+03 0.319603116149979D+03 0.740872176209338D+01 0.284138178859102D+03
 0.120220223944585D+03 0.104922117790319D+03 -.272385289734828D+02 -.519837857705771D+02
0.512984504940D-05 0.000000000000D+00 0.000000000000D+00 0.359196982088D-04 0.243419584558D-09  6 21 2 25 3 2 -3 2 0.66300867D-01 0.11380457D+00 0.27159288D+06 0.27159288D+06 0.27159288D+06 0.10877627D+01  1  2  1  5  5  1       -2 0.608013409749D-03 0.100000000000D+01
  </mgrwgt>
  </event>
  <event>
  7     66 0.18476672E-05 0.11642656E+03 0.75467711E-02 0.89316343E-01
       -2 -1    0    0    0  501 0.00000000E+00 0.00000000E+00 0.85879798E+03 0.85879804E+03 0.32000000E+00 0.0000E+00 0.9000E+01
        2 -1    0    0  503    0 0.00000000E+00 0.00000000E+00 -.12201327E+04 0.12201327E+04 0.32000000E+00 0.0000E+00 0.9000E+01
       23  2    1    2    0    0 -.21809805E+03 -.63781288E+03 0.26016468E+03 0.72818728E+03 0.90548442E+02 0.0000E+00 0.0000E+00
       25  1    1    2    0    0 0.35195912E+03 0.72007960E+03 -.11360106E+03 0.81909710E+03 0.12500000E+03 0.0000E+00 0.9000E+01
        3  1    3    3  502    0 -.84037968E+02 -.29038151E+03 0.16244883E+03 0.34318169E+03 0.50000000E+00 0.0000E+00 0.9000E+01
       -3  1    3    3    0  502 -.13406008E+03 -.34743138E+03 0.97715849E+02 0.38500559E+03 0.50000000E+00 0.0000E+00 0.9000E+01
       21  1    1    2  503  501 -.13386108E+03 -.82266719E+02 -.50789833E+03 0.53164638E+03 0.75000000E+00 0.0000E+00 0.9000E+01
#aMCatNLO 2  0  0  2  1 0.68587344D+01 0.00000000D+00  -5  6  0 0.00000000D+00 0.00000000D+00 0.00000000D+00 0.00000000D+00 0.00000000D+00
  <mgrwgt>
 0.3583941175D-03    1    2    0
 0.766146437915215D+03 0.000000000000000D+00 0.000000000000000D+00 0.766146437915215D+03
 0.766146437915215D+03 0.000000000000000D+00 0.000000000000000D+00 -.766146437915215D+03
 0.768569597262148D+03 0.282159106163710D+03 0.677182752336203D+03 -.192052036133341D+03
 0.353931109026647D+03 -.113800763357379D+03 -.308671961469892D+03 0.130530595641173D+03
 0.409792169541634D+03 -.168358342806331D+03 -.368510790866311D+03 0.615214404921681D+02
 0.000000000000000D+00 -.000000000000000D+00 -.000000000000000D+00 -.000000000000000D+00
 0.780961222883869D+03 0.000000000000000D+00 0.000000000000000D+00 0.780961222883869D+03
 0.134174004647174D+04 0.000000000000000D+00 0.000000000000000D+00 -.134174004647174D+04
 0.833605928268399D+03 0.351959124883624D+03 0.720079602177710D+03 -.192052036133341D+03
 0.329273091187620D+03 -.840364427791529D+02 -.290379765939085D+03 0.130530595641173D+03
 0.377448237531289D+03 -.134061604231095D+03 -.347433116795493D+03 0.615214404921681D+02
 0.582374012368299D+03 -.133861077873377D+03 -.822667194431329D+02 -.560778823587868D+03
0.344820170423D-03 0.000000000000D+00 0.000000000000D+00 0.295465024731D-04 0.845888830091D-08  6 -2 2 25 3 -3 21 2 0.13212273D+00 0.18771267D+00 0.67485978D+06 0.67485978D+06 0.67485978D+06 0.10594254D+01  1  2  1  2  6  2        2 0.358394117498D-03 0.100000000000D+01
  </mgrwgt>
  </event>
  <event>
  7     66 0.18476672E-05 0.52879371E+02 0.75467711E-02 0.94417197E-01
       -2 -1    0    0    0  503 0.00000000E+00 0.00000000E+00 0.63825753E+03 0.63825761E+03 0.32000000E+00 0.0000E+00 0.9000E+01
        2 -1    0    0  501    0 0.00000000E+00 0.00000000E+00 -.54419181E+03 0.54419190E+03 0.32000000E+00 0.0000E+00 0.9000E+01
       23  2    1    2    0    0 -.18680570E+03 -.45220491E+03 0.81363668E+02 0.50460228E+03 0.92831960E+02 0.0000E+00 0.0000E+00
       25  1    1    2    0    0 0.21391681E+03 0.40607302E+03 -.15619346E+03 0.50067664E+03 0.12500000E+03 0.0000E+00 0.9000E+01
        3  1    3    3  502    0 -.84780137E+02 -.19089181E+03 0.81136947E+02 0.22407769E+03 0.50000000E+00 0.0000E+00 0.9000E+01
       -3  1    3    3    0  502 -.10202556E+03 -.26131309E+03 0.22672064E+00 0.28052460E+03 0.50000000E+00 0.0000E+00 0.9000E+01
       21  1    1    2  501  503 -.27111109E+02 0.46131881E+02 0.16889551E+03 0.17717059E+03 0.75000000E+00 0.0000E+00 0.9000E+01
#aMCatNLO 2  0  0  1  1 0.79363133D+02 0.00000000D+00  -5  6  0 0.00000000D+00 0.00000000D+00 0.00000000D+00 0.00000000D+00 0.00000000D+00
  <mgrwgt>
 0.4020378544D-03    1    2    0
 0.500530481793428D+03 0.000000000000000D+00 0.000000000000000D+00 0.500530481793428D+03
 0.500530481793428D+03 0.000000000000000D+00 0.000000000000000D+00 -.500530481793428D+03
 0.504030382321007D+03 0.200460498470712D+03 0.428970088330819D+03 -.119255516320980D+03
 0.224584654292899D+03 -.909410922498333D+02 -.180405522435837D+03 0.980909382100139D+02
 0.272445926972950D+03 -.109519406220879D+03 -.248564565894982D+03 0.211645781109660D+02
 0.000000000000000D+00 -.000000000000000D+00 0.000000000000000D+00 0.000000000000000D+00
 0.687674297246733D+03 0.000000000000000D+00 0.000000000000000D+00 0.687674297246733D+03
 0.505084479090233D+03 0.000000000000000D+00 0.000000000000000D+00 -.505084479090233D+03
 0.490410623386703D+03 0.213916806066488D+03 0.406073024762620D+03 -.119255516320980D+03
 0.230755980335857D+03 -.847796371154891D+02 -.190889767751987D+03 0.980909382100139D+02
 0.281323403936904D+03 -.102026060299844D+03 -.261315137823518D+03 0.211645781109660D+02
 0.190268768677502D+03 -.271111086511549D+02 0.461318808128846D+02 0.182589818156500D+03
0.565119493531D-04 0.000000000000D+00 0.000000000000D+00 0.120144673913D-04 0.280327136097D-07  6 -2 2 25 3 -3 21 2 0.98193337D-01 0.83721709D-01 0.25938340D+06 0.25938340D+06 0.25938340D+06 0.10892573D+01  1  2  1  1  6  1       -2 0.402037854414D-03 0.100000000000D+01
  </mgrwgt>
  </event>
  <event>
  6     66 -.18476672E-05 0.65978125E+01 0.75467711E-02 0.95021162E-01
       -2 -1    0    0    0  501 0.00000000E+00 0.00000000E+00 0.72033794E+02 0.72034504E+02 0.32000000E+00 0.0000E+00 0.9000E+01
        2 -1    0    0  501    0 -.00000000E+00 -.00000000E+00 -.32880020E+04 0.32880020E+04 0.32000000E+00 0.0000E+00 0.9000E+01
       25  1    1    2    0    0 -.24974668E+03 0.39776621E+03 -.15666879E+04 0.16403437E+04 0.12500000E+03 0.0000E+00 0.9000E+01
        3  1    1    2  502    0 0.24473510E+03 -.37460269E+03 -.14605127E+04 0.15275209E+04 0.50000000E+00 0.0000E+00 0.9000E+01
       -3  1    1    2    0  503 0.11346145E+02 -.19736953E+02 -.80393757E+02 0.83556499E+02 0.50000000E+00 0.0000E+00 0.9000E+01
       21  1    1    2  503  502 -.63345631E+01 -.34265658E+01 -.10837380E+03 0.10861543E+03 0.75000000E+00 0.0000E+00 0.9000E+01
#aMCatNLO 2  0  0  5  4 0.13369186D+02 0.00000000D+00  -5  6  0 0.00000000D+00 0.00000000D+00 0.00000000D+00 0.00000000D+00 0.00000000D+00
  <mgrwgt>
 -.1494697161D-02    2    2    0
 0.486670807611420D+03 0.000000000000000D+00 0.000000000000000D+00 0.486670807611420D+03
 0.486670807611420D+03 -.000000000000000D+00 -.000000000000000D+00 -.486670807611420D+03
 0.490243986057514D+03 -.250678340336006D+03 0.402072322898656D+03 0.145733561963027D+02
 0.443860999384654D+03 0.243928439342771D+03 -.370737909383207D+03 0.805641363836355D+01
 0.392366297806726D+02 0.674990099323502D+01 -.313344135154485D+02 -.226297698346662D+02
 0.000000000000000D+00 0.000000000000000D+00 0.000000000000000D+00 -.000000000000000D+00
 0.486670807611420D+03 0.000000000000000D+00 0.000000000000000D+00 0.486670807611420D+03
 0.486670807611420D+03 -.000000000000000D+00 -.000000000000000D+00 -.486670807611420D+03
 0.486135558937432D+03 -.249745581603048D+03 0.397742267112959D+03 0.114461821148964D+02
 0.447591247849539D+03 0.244780064996836D+03 -.374691328912115D+03 0.520124693945798D+01
 0.222595564738176D+02 0.112672654813385D+02 -.191738679917407D+02 -.948350789218956D+00
 0.173552519620524D+02 -.630174887512627D+01 -.387707020910395D+01 -.156990782651354D+02
-.114536794268D-04 0.000000000000D+00 0.000000000000D+00 0.247893534702D-05 0.000000000000D+00  6 -2 2 25 3 -3 21 2 0.11082178D-01 0.50584651D+00 0.23193859D+06 0.23193859D+06 0.23193859D+06 0.10929176D+01  1  2 13  4  6  5       -3 -.105630491790D-03 0.100000000000D+01
-.150712161810D-03 0.000000000000D+00 0.000000000000D+00 0.247893534702D-05 0.000000000000D+00  6 -2 2 25 3 -3 21 2 0.11082178D-01 0.50584651D+00 0.23322544D+06 0.23322544D+06 0.23322544D+06 0.10927356D+01  1  2  8  4  6  5       -3 -.138906666877D-02 0.100000000000D+01
  </mgrwgt>
  </event>
  <event>
  7     66 0.18476672E-05 0.39583663E+02 0.75467711E-02 0.94661809E-01
       21 -1    0    0  503  501 0.00000000E+00 0.00000000E+00 0.51799433E+03 0.51799487E+03 0.75000000E+00 0.0000E+00 0.9000E+01
        2 -1    0    0  501    0 0.00000000E+00 0.00000000E+00 -.89844888E+03 0.89844893E+03 0.32000000E+00 0.0000E+00 0.9000E+01
       23  2    1    2    0    0 -.33418676E+03 0.30821030E+03 -.39747129E+03 0.61031865E+03 0.88493163E+02 0.0000E+00 0.0000E+00
       25  1    1    2    0    0 0.36218117E+03 -.32991388E+03 -.23079353E+03 0.55579584E+03 0.12500000E+03 0.0000E+00 0.9000E+01
        3  1    3    3  502    0 -.22496110E+03 0.22776003E+03 -.22692506E+03 0.39239949E+03 0.50000000E+00 0.0000E+00 0.9000E+01
        2  1    1    2  503    0 -.27994413E+02 0.21703576E+02 0.24781027E+03 0.25032931E+03 0.32000000E+00 0.0000E+00 0.9000E+01
       -3  1    3    3    0  502 -.10922566E+03 0.80450279E+02 -.17054623E+03 0.21791916E+03 0.50000000E+00 0.0000E+00 0.9000E+01
#aMCatNLO 2  0  0  1  1 0.79363133D+02 0.00000000D+00  -5  6  0 0.00000000D+00 0.00000000D+00 0.00000000D+00 0.00000000D+00 0.00000000D+00
  <mgrwgt>
 0.1506552594D-03    1    2    0
 0.490879717656552D+03 0.000000000000000D+00 0.000000000000000D+00 0.490879717656552D+03
 0.490879717656552D+03 0.000000000000000D+00 0.000000000000000D+00 -.490879717656552D+03
 0.494849101573681D+03 0.347828975601144D+03 -.318786875670753D+03 0.814896616793678D+02
 0.332321864495484D+03 -.234271546519498D+03 0.234980092628748D+03 -.184125006803085D+02
 0.000000000000000D+00 -.000000000000000D+00 0.000000000000000D+00 0.000000000000000D+00
 0.154588469243938D+03 -.113557429081646D+03 0.838067830420050D+02 -.630771609990592D+02
 0.946132322880567D+03 0.000000000000000D+00 0.000000000000000D+00 0.946132322880567D+03
 0.491888639495133D+03 0.000000000000000D+00 0.000000000000000D+00 -.491888639495133D+03
 0.512136635690436D+03 0.362181170748360D+03 -.329913879991502D+03 0.814896616793678D+02
 0.320663295044107D+03 -.224964790632955D+03 0.227764728574712D+03 -.184125006803085D+02
 0.455622712598135D+03 -.279944127837543D+02 0.217035755719986D+02 0.454243683385434D+03
 0.149598319043021D+03 -.109221967331651D+03 0.804455758447911D+02 -.630771609990592D+02
0.249739334487D-05 0.000000000000D+00 0.000000000000D+00 0.532428766236D-05 0.237937003125D-08  6 21 2 25 3 2 -3 2 0.79691472D-01 0.13822293D+00 0.24841170D+06 0.24841170D+06 0.24841170D+06 0.10906674D+01  1  2  1  5  5  1       -2 0.150655259378D-03 0.100000000000D+01
  </mgrwgt>
  </event>
  <event>
  6     66 0.18476672E-05 0.10075367E+03 0.75467711E-02 0.94678563E-01
       -2 -1    0    0    0  501 0.00000000E+00 0.00000000E+00 0.20041145E+03 0.20041171E+03 0.32000000E+00 0.0000E+00 0.9000E+01
        2 -1    0    0  501    0 -.00000000E+00 -.00000000E+00 -.13885073E+04 0.13885073E+04 0.32000000E+00 0.0000E+00 0.9000E+01
       25  1    1    2    0    0 -.41853859E+03 0.21806330E+03 -.84045087E+03 0.97196132E+03 0.12500000E+03 0.0000E+00 0.9000E+01
        3  1    1    2  503    0 0.18235893E+03 -.80236962E+02 -.11365191E+03 0.22936817E+03 0.50000000E+00 0.0000E+00 0.9000E+01
       -3  1    1    2    0  502 0.15914675E+03 -.16206831E+03 -.15795383E+03 0.27666493E+03 0.50000000E+00 0.0000E+00 0.9000E+01
       21  1    1    2  502  503 0.77032903E+02 0.24241965E+02 -.76039223E+02 0.11092460E+03 0.75000000E+00 0.0000E+00 0.9000E+01
#aMCatNLO 2  0  0  4  5 0.30336278D+01 0.00000000D+00  -5  6  0 0.00000000D+00 0.00000000D+00 0.00000000D+00 0.00000000D+00 0.00000000D+00
  <mgrwgt>
 0.6899804222D-02    1    2    0
 0.527515871483756D+03 0.000000000000000D+00 0.000000000000000D+00 0.527515871483756D+03
 0.527515871483756D+03 -.000000000000000D+00 -.000000000000000D+00 -.527515871483756D+03
 0.524925548759982D+03 -.425916476614603D+03 0.219656058751784D+03 -.173977592070942D+03
 0.294411857602034D+03 0.270119141072267D+03 -.583024984071682D+02 0.101561854072005D+03
 0.235694336605497D+03 0.155797335542336D+03 -.161353560344616D+03 0.724157379989367D+02
 0.000000000000000D+00 0.000000000000000D+00 0.000000000000000D+00 0.000000000000000D+00
 0.527515871483756D+03 0.000000000000000D+00 0.000000000000000D+00 0.527515871483756D+03
 0.527515871483756D+03 -.000000000000000D+00 -.000000000000000D+00 -.527515871483756D+03
 0.517346600318565D+03 -.418524952020103D+03 0.218060672548545D+03 -.171198459354703D+03
 0.217203625444362D+03 0.182087819657061D+03 -.802546110936598D+02 0.870668607273616D+02
 0.238812577982323D+03 0.159162415893506D+03 -.162079879075807D+03 0.736809715481382D+02
 0.816689392222617D+02 0.772747164695358D+02 0.242738176209215D+02 0.104506270792033D+02
0.326143320099D-03 0.000000000000D+00 0.000000000000D+00 0.126024598537D-07 0.959317404603D-09  6 -2 2 25 3 -3 21 2 0.30832554D-01 0.21361653D+00 0.24767952D+06 0.24767952D+06 0.24767952D+06 0.10907639D+01  1  2  1  3  6  4        3 0.689980422210D-02 0.100000000000D+01
  </mgrwgt>
  </event>
  <event>
  7     66 0.18476672E-05 0.48140926E+02 0.75467711E-02 0.90637479E-01
       -2 -1    0    0    0  503 0.00000000E+00 0.00000000E+00 0.49185910E+03 0.49185920E+03 0.32000000E+00 0.0000E+00 0.9000E+01
        2 -1    0    0  501    0 0.00000000E+00 0.00000000E+00 -.13511519E+04 0.13511520E+04 0.32000000E+00 0.0000E+00 0.9000E+01
       23  2    1    2    0    0 -.46358020E+03 0.54611785E+03 -.83167385E+03 0.11013226E+04 0.89881465E+02 0.0000E+00 0.0000E+00
       25  1    1    2    0    0 0.44871336E+03 -.52513439E+03 -.55018717E+02 0.70410359E+03 0.12500000E+03 0.0000E+00 0.9000E+01
        3  1    3    3  502    0 -.31509770E+03 0.37463468E+03 -.62973110E+03 0.79762097E+03 0.50000000E+00 0.0000E+00 0.9000E+01
       -3  1    3    3    0  502 -.14848250E+03 0.17148316E+03 -.20194275E+03 0.30370158E+03 0.50000000E+00 0.0000E+00 0.9000E+01
       21  1    1    2  501  503 0.14866836E+02 -.20983463E+02 0.27399712E+02 0.37585040E+02 0.75000000E+00 0.0000E+00 0.9000E+01
#aMCatNLO 2  0  0  1  1 0.79363133D+02 0.00000000D+00  -5  6  0 0.00000000D+00 0.00000000D+00 0.00000000D+00 0.00000000D+00 0.00000000D+00
  <mgrwgt>
 0.2292023244D-03    1    2    0
 0.786237645362590D+03 0.000000000000000D+00 0.000000000000000D+00 0.786237645362590D+03
 0.786237645362590D+03 0.000000000000000D+00 0.000000000000000D+00 -.786237645362590D+03
 0.788637149632462D+03 0.456115302421655D+03 -.535581684230180D+03 0.333818280198043D+03
 0.552719582313290D+03 -.309840205189091D+03 0.367213120543268D+03 -.273226111530056D+03
 0.231118558779428D+03 -.146275097232564D+03 0.168368563686912D+03 -.605921686679874D+02
 0.000000000000000D+00 0.000000000000000D+00 -.000000000000000D+00 0.000000000000000D+00
 0.841960586239342D+03 0.000000000000000D+00 0.000000000000000D+00 0.841960586239342D+03
 0.789315427201965D+03 0.000000000000000D+00 0.000000000000000D+00 -.789315427201965D+03
 0.777283378605930D+03 0.448713364970123D+03 -.525134385238540D+03 0.333818280198043D+03
 0.560623023594836D+03 -.315102855612564D+03 0.374640970727427D+03 -.273226111530056D+03
 0.234779157116674D+03 -.148477345488262D+03 0.171476877710335D+03 -.605921686679874D+02
 0.585904541238670D+02 0.148668361307035D+02 -.209834631992217D+02 0.526451590373766D+02
0.657179567527D-04 0.000000000000D+00 0.000000000000D+00 0.188614256220D-04 0.173485872032D-06  6 -2 2 25 3 -3 21 2 0.75670412D-01 0.20786891D+00 0.52130478D+06 0.52130478D+06 0.52130478D+06 0.10672320D+01  1  2  1  1  6  1       -2 0.229202324384D-03 0.100000000000D+01
  </mgrwgt>
  </event>
  <event>
  7     66 0.18476672E-05 0.28319198E+02 0.75467711E-02 0.94195594E-01
       -2 -1    0    0    0  503 0.00000000E+00 0.00000000E+00 0.22118613E+03 0.22118636E+03 0.32000000E+00 0.0000E+00 0.9000E+01
        2 -1    0    0  501    0 0.00000000E+00 0.00000000E+00 -.23257434E+04 0.23257434E+04 0.32000000E+00 0.0000E+00 0.9000E+01
       23  2    1    2    0    0 0.21703018E+03 -.42186832E+03 -.30362139E+03 0.57030616E+03 0.89376663E+02 0.0000E+00 0.0000E+00
       25  1    1    2    0    0 -.27131031E+03 0.40852384E+03 -.18400617E+04 0.19083902E+04 0.12500000E+03 0.0000E+00 0.9000E+01
        3  1    3    3  502    0 0.42120204E+02 -.12924258E+03 -.47846605E+02 0.14410865E+03 0.50000000E+00 0.0000E+00 0.9000E+01
       -3  1    3    3    0  502 0.17490998E+03 -.29262574E+03 -.25577479E+03 0.42619751E+03 0.50000000E+00 0.0000E+00 0.9000E+01
       21  1    1    2  501  503 0.54280127E+02 0.13344482E+02 0.39125838E+02 0.68233431E+02 0.75000000E+00 0.0000E+00 0.9000E+01
#aMCatNLO 2  0  0  1  1 0.79363133D+02 0.00000000D+00  -5  6  0 0.00000000D+00 0.00000000D+00 0.00000000D+00 0.00000000D+00 0.00000000D+00
  <mgrwgt>
 0.4518313294D-03    1    2    0
 0.621577418534466D+03 0.000000000000000D+00 0.000000000000000D+00 0.621577418534466D+03
 0.621577418534466D+03 0.000000000000000D+00 0.000000000000000D+00 -.621577418534466D+03
 0.624648963590062D+03 -.243901017495402D+03 0.415262269841885D+03 -.377665021711849D+03
 0.205273835535438D+03 0.510600701998050D+02 -.127038627502683D+03 0.152942485624027D+03
 0.413232037943432D+03 0.192840947295597D+03 -.288223642339202D+03 0.224722536087822D+03
 0.000000000000000D+00 0.000000000000000D+00 0.000000000000000D+00 0.000000000000000D+00
 0.821598187055342D+03 0.000000000000000D+00 0.000000000000000D+00 0.821598187055342D+03
 0.626122826678849D+03 0.000000000000000D+00 0.000000000000000D+00 -.626122826678849D+03
 0.631471994171094D+03 -.271310305673061D+03 0.408523841205622D+03 -.377665021711849D+03
 0.204615465110807D+03 0.421160478165020D+02 -.129237468135113D+03 0.152942485624027D+03
 0.408323387780194D+03 0.174914131188880D+03 -.292630855333116D+03 0.224722536087822D+03
 0.203310166672097D+03 0.542801266676791D+02 0.133444822626065D+02 0.195475360376492D+03
0.841671051333D-04 0.000000000000D+00 0.000000000000D+00 0.613146720300D-05 0.128544703980D-07  6 -2 2 25 3 -3 21 2 0.34028618D-01 0.35780631D+00 0.26979404D+06 0.26979404D+06 0.26979404D+06 0.10879783D+01  1  2  1  1  6  1       -2 0.451831329392D-03 0.100000000000D+01
  </mgrwgt>
  </event>
  <event>
  7     66 0.18476672E-05 0.48615305E+02 0.75467711E-02 0.93481253E-01
       -2 -1    0    0    0  503 0.00000000E+00 0.00000000E+00 0.24456065E+03 0.24456086E+03 0.32000000E+00 0.0000E+00 0.9000E+01
        2 -1    0    0  501    0 0.00000000E+00 0.00000000E+00 -.24612188E+04 0.24612188E+04 0.32000000E+00 0.0000E+00 0.9000E+01
       23  2    1    2    0    0 -.46509658E+03 0.11603247E+03 -.15011714E+04 0.15782957E+04 0.87883392E+02 0.0000E+00 0.0000E+00
       25  1    1    2    0    0 0.52095927E+03 -.15428448E+03 -.82679215E+03 0.99720235E+03 0.12500000E+03 0.0000E+00 0.9000E+01
        3  1    3    3  502    0 -.39765453E+03 0.79060565E+02 -.11681818E+04 0.12365390E+04 0.50000000E+00 0.0000E+00 0.9000E+01
       -3  1    3    3    0  502 -.67442050E+02 0.36971909E+02 -.33298954E+03 0.34175669E+03 0.50000000E+00 0.0000E+00 0.9000E+01
       21  1    1    2  501  503 -.55862688E+02 0.38252002E+02 0.11130537E+03 0.13028163E+03 0.75000000E+00 0.0000E+00 0.9000E+01
#aMCatNLO 2  0  0  1  1 0.79363133D+02 0.00000000D+00  -5  6  0 0.00000000D+00 0.00000000D+00 0.00000000D+00 0.00000000D+00 0.00000000D+00
  <mgrwgt>
 0.8394429900D-04    1    2    0
 0.549816383159722D+03 0.000000000000000D+00 0.000000000000000D+00 0.549816383159722D+03
 0.549816383159722D+03 0.000000000000000D+00 0.000000000000000D+00 -.549816383159722D+03
 0.553409177846898D+03 0.492092275239489D+03 -.134517787708912D+03 0.174318316779109D+03
 0.446030480138422D+03 -.419699942238095D+03 0.941502134443633D+02 -.118029170149720D+03
 0.100193108334123D+03 -.723923330013940D+02 0.403675742645488D+02 -.562891466293887D+02
 0.000000000000000D+00 -.000000000000000D+00 0.000000000000000D+00 0.000000000000000D+00
 0.108847907030819D+04 0.000000000000000D+00 0.000000000000000D+00 0.108847907030819D+04
 0.552989074529509D+03 0.000000000000000D+00 0.000000000000000D+00 -.552989074529509D+03
 0.584135374980278D+03 0.520959270165516D+03 -.154284476105863D+03 0.174318316779109D+03
 0.422278701461269D+03 -.397665221332295D+03 0.790619279066801D+02 -.118029170149720D+03
 0.953009848820575D+02 -.674313607186697D+02 0.369705461530391D+02 -.562891466293887D+02
 0.539753083514094D+03 -.558626881145517D+02 0.382520020461440D+02 0.535489995778680D+03
0.228026006069D-04 0.000000000000D+00 0.000000000000D+00 0.229971748248D-05 0.404081703688D-08  6 -2 2 25 3 -3 21 2 0.37624716D-01 0.37864889D+00 0.30667934D+06 0.30667934D+06 0.30667934D+06 0.10838450D+01  1  2  1  1  6  1       -2 0.839442990001D-04 0.100000000000D+01
  </mgrwgt>
  </event>
  <event>
  7     66 0.18476672E-05 0.57958439E+02 0.75467711E-02 0.94962039E-01
       -4 -1    0    0    0  503 0.00000000E+00 0.00000000E+00 0.47690743E+03 0.47690995E+03 0.15500000E+01 0.0000E+00 0.9000E+01
        4 -1    0    0  501    0 0.00000000E+00 0.00000000E+00 -.53756555E+03 0.53756778E+03 0.15500000E+01 0.0000E+00 0.9000E+01
       23  2    1    2    0    0 -.42127447E+03 0.20734156E+03 -.50463300E+02 0.48142894E+03 0.93619364E+02 0.0000E+00 0.0000E+00
       25  1    1    2    0    0 0.41233424E+03 -.21419412E+03 -.57337477E+02 0.48457325E+03 0.12500000E+03 0.0000E+00 0.9000E+01
        1  1    3    3  502    0 -.10995606E+03 0.10145389E+03 -.24114294E+02 0.15154151E+03 0.32000000E+00 0.0000E+00 0.9000E+01
       -1  1    3    3    0  502 -.31131840E+03 0.10588767E+03 -.26349006E+02 0.32988743E+03 0.32000000E+00 0.0000E+00 0.9000E+01
       21  1    1    2  501  503 0.89402303E+01 0.68525617E+01 0.47142659E+02 0.48475541E+02 0.75000000E+00 0.0000E+00 0.9000E+01
#aMCatNLO 2  0  0  1  2 0.10130143D+02 0.00000000D+00  -5  6  0 0.00000000D+00 0.00000000D+00 0.00000000D+00 0.00000000D+00 0.00000000D+00
  <mgrwgt>
 0.5243934032D-04    1    2    0
 0.479951127166641D+03 0.000000000000000D+00 0.000000000000000D+00 0.479951127166641D+03
 0.479951127166641D+03 0.000000000000000D+00 0.000000000000000D+00 -.479951127166641D+03
 0.483524623889480D+03 0.416826562689813D+03 -.210750815094954D+03 -.328214571141116D+01
 0.149494480232675D+03 -.108560066940336D+03 0.102522047276446D+03 -.724853834876397D+01
 0.326883150211127D+03 -.308266495749477D+03 0.108228767818508D+03 0.105306840601751D+02
 0.000000000000000D+00 0.000000000000000D+00 0.000000000000000D+00 0.000000000000000D+00
 0.533459670515859D+03 0.000000000000000D+00 0.000000000000000D+00 0.533459670515859D+03
 0.480577366172055D+03 0.000000000000000D+00 0.000000000000000D+00 -.480577366172055D+03
 0.481180232990448D+03 0.412334237203568D+03 -.214194119830640D+03 -.328214571141116D+01
 0.149783982131578D+03 -.109953712110022D+03 0.101453837720541D+03 -.724853834876397D+01
 0.329004129769601D+03 -.311320755425842D+03 0.105887720438963D+03 0.105306840601751D+02
 0.540686917962879D+02 0.894023033229664D+01 0.685256167113610D+01 0.528823043438041D+02
0.101440027710D-03 0.000000000000D+00 0.000000000000D+00 0.847233329271D-05 0.427195726528D-06  6 -4 4 25 1 -1 21 2 0.73370343D-01 0.82702311D-01 0.23565074D+06 0.23565074D+06 0.23565074D+06 0.10923956D+01  1  2  1  1  6  1       -4 0.524393403194D-04 0.100000000000D+01
  </mgrwgt>
  </event>
  <event>
  7     66 0.18476672E-05 0.80149627E+02 0.75467711E-02 0.93849235E-01
       -2 -1    0    0    0  501 0.00000000E+00 0.00000000E+00 0.19168470E+03 0.19168497E+03 0.32000000E+00 0.0000E+00 0.9000E+01
        2 -1    0    0  503    0 0.00000000E+00 0.00000000E+00 -.19889384E+04 0.19889384E+04 0.32000000E+00 0.0000E+00 0.9000E+01
       23  2    1    2    0    0 0.31786407E+03 0.28121956E+03 -.25340301E+03 0.50246807E+03 0.90216788E+02 0.0000E+00 0.0000E+00
       25  1    1    2    0    0 -.34474890E+03 -.38981000E+03 -.11448529E+04 0.12637708E+04 0.12500000E+03 0.0000E+00 0.9000E+01
        3  1    3    3  502    0 0.21047931E+03 0.18832276E+03 -.11742831E+03 0.30587034E+03 0.50000000E+00 0.0000E+00 0.9000E+01
       -3  1    3    3    0  502 0.10738475E+03 0.92896800E+02 -.13597470E+03 0.19659773E+03 0.50000000E+00 0.0000E+00 0.9000E+01
       21  1    1    2  503  501 0.26884838E+02 0.10859044E+03 -.39899784E+03 0.41438450E+03 0.75000000E+00 0.0000E+00 0.9000E+01
#aMCatNLO 2  0  0  2  1 0.13209972D+02 0.00000000D+00  -5  6  0 0.00000000D+00 0.00000000D+00 0.00000000D+00 0.00000000D+00 0.00000000D+00
  <mgrwgt>
 0.6930186780D-04    1    2    0
 0.536648323879108D+03 0.000000000000000D+00 0.000000000000000D+00 0.536648323879108D+03
 0.536648323879108D+03 0.000000000000000D+00 0.000000000000000D+00 -.536648323879108D+03
 0.540135678111255D+03 -.330694787255270D+03 -.333044071544420D+03 -.236313678952387D+03
 0.374697097533651D+03 0.219515428891974D+03 0.224810632333962D+03 0.204134933238089D+03
 0.158463872113310D+03 0.111179358363296D+03 0.108233439210458D+03 0.321787457142971D+02
 0.000000000000000D+00 0.000000000000000D+00 0.000000000000000D+00 -.000000000000000D+00
 0.562115322429386D+03 0.000000000000000D+00 0.000000000000000D+00 0.562115322429386D+03
 0.678238464804313D+03 0.000000000000000D+00 0.000000000000000D+00 -.678238464804313D+03
 0.585040852948629D+03 -.344748904715107D+03 -.389810001740054D+03 -.236313678952387D+03
 0.348483158646224D+03 0.210482481630434D+03 0.188325690808833D+03 0.204134933238089D+03
 0.145586906173725D+03 0.107381585094975D+03 0.928938682367262D+02 0.321787457142971D+02
 0.161242869465122D+03 0.268848379896975D+02 0.108590442694495D+03 -.116123142374927D+03
0.653420465216D-05 0.000000000000D+00 0.000000000000D+00 0.161292497676D-04 0.841536668046D-08  6 -2 2 25 3 -3 21 2 0.29489932D-01 0.30599009D+00 0.28701753D+06 0.28701753D+06 0.28701753D+06 0.10859762D+01  1  2  1  2  6  2        2 0.693018678001D-04 0.100000000000D+01
  </mgrwgt>
  </event>
  <event>
  7     66 0.18476672E-05 0.71807590E+02 0.75467711E-02 0.92690132E-01
       21 -1    0    0  503  501 0.00000000E+00 0.00000000E+00 0.16794390E+04 0.16794392E+04 0.75000000E+00 0.0000E+00 0.9000E+01
        2 -1    0    0  501    0 0.00000000E+00 0.00000000E+00 -.36821237E+03 0.36821251E+03 0.32000000E+00 0.0000E+00 0.9000E+01
       23  2    1    2    0    0 -.52367986E+03 -.26343076E+03 0.72676434E+02 0.59786617E+03 0.92334931E+02 0.0000E+00 0.0000E+00
       25  1    1    2    0    0 0.50802087E+03 0.24680824E+03 0.68846610E+03 0.89922749E+03 0.12500000E+03 0.0000E+00 0.9000E+01
        3  1    3    3  502    0 -.24774811E+03 -.92086438E+02 0.68476167E+02 0.27303530E+03 0.50000000E+00 0.0000E+00 0.9000E+01
        2  1    1    2  503    0 0.15658983E+02 0.16622527E+02 0.55008412E+03 0.55055804E+03 0.32000000E+00 0.0000E+00 0.9000E+01
       -3  1    3    3    0  502 -.27593174E+03 -.17134433E+03 0.42002672E+01 0.32483087E+03 0.50000000E+00 0.0000E+00 0.9000E+01
#aMCatNLO 2  0  0  1  2 0.10130143D+02 0.00000000D+00  -5  6  0 0.00000000D+00 0.00000000D+00 0.00000000D+00 0.00000000D+00 0.00000000D+00
  <mgrwgt>
 0.9103580994D-04    1    2    0
 0.644482346213902D+03 0.000000000000000D+00 0.000000000000000D+00 0.644482346213902D+03
 0.644482346213902D+03 0.000000000000000D+00 0.000000000000000D+00 -.644482346213902D+03
 0.647236207767973D+03 0.515825777446148D+03 0.255093399962927D+03 0.268590456389087D+03
 0.272486476402113D+03 -.244412016831422D+03 -.885436139307678D+02 -.816803175955847D+02
 0.000000000000000D+00 0.000000000000000D+00 0.000000000000000D+00 0.000000000000000D+00
 0.369242008257718D+03 -.271413760614727D+03 -.166549786032160D+03 -.186910138793502D+03
 0.958747031493105D+03 0.000000000000000D+00 0.000000000000000D+00 0.958747031493105D+03
 0.644998488251859D+03 0.000000000000000D+00 0.000000000000000D+00 -.644998488251859D+03
 0.637781581626275D+03 0.508020872811864D+03 0.246808236057647D+03 0.268590456389087D+03
 0.276640338561299D+03 -.247747287718946D+03 -.920841140734943D+02 -.816803175955847D+02
 0.314578544332583D+03 0.156589830648235D+02 0.166225274184873D+02 0.313748543241246D+03
 0.374745055224807D+03 -.275932568157741D+03 -.171346649402640D+03 -.186910138793502D+03
0.193870100056D-04 0.000000000000D+00 0.000000000000D+00 0.173670511299D-04 0.105504861187D-07  6 21 2 25 3 2 -3 2 0.25837523D+00 0.56648074D-01 0.35427275D+06 0.35427275D+06 0.35427275D+06 0.10792491D+01  1  2  1  5  5  1       -2 0.910358099392D-04 0.100000000000D+01
  </mgrwgt>
  </event>
  <event>
  6     66 -.18476672E-05 0.20550444E+02 0.75467711E-02 0.93117515E-01
       -2 -1    0    0    0  501 0.00000000E+00 0.00000000E+00 0.36024497E+03 0.36024511E+03 0.32000000E+00 0.0000E+00 0.9000E+01
        2 -1    0    0  501    0 -.00000000E+00 -.00000000E+00 -.10554201E+04 0.10554201E+04 0.32000000E+00 0.0000E+00 0.9000E+01
       23  2    1    2    0    0 0.50132535E+03 0.25549168E+03 -.85232307E+02 0.57646423E+03 0.91887780E+02 0.0000E+00 0.0000E+00
       25  1    1    2    0    0 -.50132535E+03 -.25549168E+03 -.60994278E+03 0.83920098E+03 0.12500000E+03 0.0000E+00 0.9000E+01
        3  1    3    3  502    0 0.11311228E+02 0.23831378E+02 0.53795113E+01 0.26927079E+02 0.50000000E+00 0.0000E+00 0.9000E+01
       -3  1    3    3    0  502 0.49001412E+03 0.23166030E+03 -.90611818E+02 0.54953715E+03 0.50000000E+00 0.0000E+00 0.9000E+01
#aMCatNLO 1  0  0  4  5 0.11546860D+01 0.00000000D+00  -5  6  0 0.00000000D+00 0.00000000D+00 0.00000000D+00 0.00000000D+00 0.00000000D+00
  <mgrwgt>
 -.9851362352D-03    7    2    0
 0.616611630685483D+03 0.000000000000000D+00 0.000000000000000D+00 0.616611630685483D+03
 0.616611630685483D+03 -.000000000000000D+00 -.000000000000000D+00 -.616611630685483D+03
 0.619523364551587D+03 -.501325348319047D+03 -.255491677362972D+03 -.227114722456208D+03
 0.339269466973705D+02 0.112970532025293D+02 0.238252237242590D+02 0.213488410841069D+02
 0.579772950122008D+03 0.490028295116517D+03 0.231666453638713D+03 0.205765881372101D+03
 0.000000000000000D+00 0.000000000000000D+00 0.000000000000000D+00 0.000000000000000D+00
 0.616611630685483D+03 0.000000000000000D+00 0.000000000000000D+00 0.616611630685483D+03
 0.616611630685483D+03 -.000000000000000D+00 -.000000000000000D+00 -.616611630685483D+03
 0.619300926133940D+03 -.501231550998439D+03 -.255293860984829D+03 -.226937467020134D+03
 0.324379744883693D+02 0.974275151151241D+01 0.228422024724872D+02 0.208694697608472D+02
 0.579980083650059D+03 0.490116105573539D+03 0.231851643860124D+03 0.205931823008284D+03
 0.150427709859708D+01 0.137269391338769D+01 0.600014652217778D+00 0.136174251002268D+00
0.132915527620D-05 0.000000000000D+00 0.000000000000D+00 0.442024452358D-05 0.000000000000D+00  6 -2 2 25 3 -3 21 0 0.55422318D-01 0.16237233D+00 0.32763644D+06 0.32763644D+06 0.32763644D+06 0.10817317D+01  1  2  2  3  6  4        3 0.119766722526D-04 0.100000000000D+01
0.421912612981D-06 0.000000000000D+00 -.510430623522D-08 0.442024452358D-05 0.000000000000D+00  6 -2 2 25 3 -3 21 2 0.55422318D-01 0.16237233D+00 0.32763644D+06 0.32763644D+06 0.32763644D+06 0.10817317D+01  1  2  3  3  6  4        3 0.444858695623D-05 0.100000000000D+01
-.357020678854D-06 0.000000000000D+00 0.000000000000D+00 0.442024452358D-05 0.000000000000D+00  6 -2 2 25 3 -3 21 2 0.55422318D-01 0.16237233D+00 0.32763644D+06 0.32763644D+06 0.32763644D+06 0.10817317D+01  1  2 15  3  6  4        3 -.376437557491D-05 0.100000000000D+01
-.113301699655D-03 0.000000000000D+00 0.000000000000D+00 0.442024452358D-05 0.000000000000D+00  6 -2 2 25 3 -3 21 2 0.55422318D-01 0.16237233D+00 0.32763644D+06 0.32763644D+06 0.32763644D+06 0.10817317D+01  1  2  4  3  6  4        3 -.119463710658D-02 0.100000000000D+01
-.244222508670D-04 0.000000000000D+00 0.000000000000D+00 0.442024452358D-05 0.000000000000D+00  6 -2 2 25 3 -3 21 2 0.55422318D-01 0.16237233D+00 0.32763644D+06 0.32763644D+06 0.32763644D+06 0.10817317D+01  1  2  5  3  6  4        3 -.257504761190D-03 0.100000000000D+01
0.280271127159D-04 0.000000000000D+00 -.000000000000D+00 0.442024452358D-05 0.000000000000D+00  6 -2 2 25 3 -3 21 2 0.55422318D-01 0.16237233D+00 0.32763644D+06 0.32763644D+06 0.32763644D+06 0.10817317D+01  1  2  6  3  6  4        3 0.295513914997D-03 0.100000000000D+01
0.150637084801D-04 0.000000000000D+00 0.000000000000D+00 0.442024452358D-05 0.140775318888D-04  6 -2 2 25 3 -3 21 2 0.55422318D-01 0.16237233D+00 0.32760938D+06 0.32760938D+06 0.32760938D+06 0.10817344D+01  1  2 11  3  6  4        3 0.158830833920D-03 0.100000000000D+01
  </mgrwgt>
  </event>
  <event>
  7     66 -.18476672E-05 0.11550896E+02 0.75467711E-02 0.95119382E-01
       -2 -1    0    0    0  501 0.00000000E+00 0.00000000E+00 0.16729811E+03 0.16729841E+03 0.32000000E+00 0.0000E+00 0.9000E+01
        2 -1    0    0  501    0 -.00000000E+00 -.00000000E+00 -.15779777E+04 0.15779778E+04 0.32000000E+00 0.0000E+00 0.9000E+01
       23  2    1    2    0    0 -.47053493E+03 -.19448542E+01 -.42281526E+03 0.64395519E+03 0.12041032E+03 0.0000E+00 0.0000E+00
       25  1    1    2    0    0 0.47053493E+03 0.19448542E+01 -.98786436E+03 0.11013210E+04 0.12500000E+03 0.0000E+00 0.9000E+01
        3  1    3    3  503    0 -.24522423E+02 -.11974359E+01 -.32946963E+02 0.41091792E+02 0.50000000E+00 0.0000E+00 0.9000E+01
       -3  1    3    3    0  502 -.43063611E+03 0.16301188E+01 -.33433937E+03 0.54519096E+03 0.50000000E+00 0.0000E+00 0.9000E+01
       21  1    3    3  502  503 -.15376395E+02 -.23775371E+01 -.55528930E+02 0.57672444E+02 0.75000000E+00 0.0000E+00 0.9000E+01
#aMCatNLO 2  0  0  4  5 0.89247692D+01 0.00000000D+00  -5  6  0 0.00000000D+00 0.00000000D+00 0.00000000D+00 0.00000000D+00 0.00000000D+00
  <mgrwgt>
 -.5572233278D-03    3    2    0
 0.513802471279660D+03 0.000000000000000D+00 0.000000000000000D+00 0.513802471279660D+03
 0.513802471279660D+03 -.000000000000000D+00 -.000000000000000D+00 -.513802471279660D+03
 0.515698052889937D+03 0.472225102062367D+03 0.209629328536938D+01 -.165283212369317D+03
 0.460652468334170D+02 -.430632146180222D+02 -.386385552431219D+01 -.158945630035251D+02
 0.465841642835968D+03 -.429161887444345D+03 0.176756223894279D+01 0.181177775372842D+03
 0.000000000000000D+00 0.000000000000000D+00 0.000000000000000D+00 -.000000000000000D+00
 0.513802471279660D+03 0.000000000000000D+00 0.000000000000000D+00 0.513802471279660D+03
 0.513802471279660D+03 -.000000000000000D+00 -.000000000000000D+00 -.513802471279660D+03
 0.514354788205858D+03 0.470539565452907D+03 0.194505817675845D+01 -.165905341211101D+03
 0.239311473507074D+02 -.238945923804168D+02 -.114412859924280D+01 0.662750513684541D+00
 0.467029653642606D+03 -.430688400123497D+03 0.163059558420995D+01 0.180614342007041D+03
 0.222893533601492D+02 -.159565729489936D+02 -.243152516172561D+01 -.153717513096243D+02
-.288779133411D-05 0.000000000000D+00 0.000000000000D+00 0.106684528790D-06 0.000000000000D+00  6 -2 2 25 3 -3 21 2 0.25738196D-01 0.24276583D+00 0.22925803D+06 0.22925803D+06 0.22925803D+06 0.10933002D+01  1  2 13  3  6  4        3 -.664707563649D-04 0.100000000000D+01
-.229345272453D-04 0.000000000000D+00 0.000000000000D+00 0.106684528790D-06 0.000000000000D+00  6 -2 2 25 3 -3 21 2 0.25738196D-01 0.24276583D+00 0.23082993D+06 0.23082993D+06 0.23082993D+06 0.10930753D+01  1  2  8  3  6  4        3 -.527573305957D-03 0.100000000000D+01
0.159965981809D-05 0.000000000000D+00 0.000000000000D+00 0.106684528790D-06 0.613714894611D-09  6 -2 2 25 3 -3 21 2 0.25738196D-01 0.24276583D+00 0.22925803D+06 0.22925803D+06 0.22925803D+06 0.10933002D+01  1  2  1  3  6  4        3 0.368207345104D-04 0.100000000000D+01
  </mgrwgt>
  </event>
  <event>
  7     66 0.18476672E-05 0.57251049E+02 0.75467711E-02 0.93512340E-01
       -2 -1    0    0    0  501 0.00000000E+00 0.00000000E+00 0.20145952E+03 0.20145977E+03 0.32000000E+00 0.0000E+00 0.9000E+01
        2 -1    0    0  503    0 0.00000000E+00 0.00000000E+00 -.16559861E+04 0.16559861E+04 0.32000000E+00 0.0000E+00 0.9000E+01
       23  2    1    2    0    0 -.64609128E+02 -.53332595E+03 -.76542042E+03 0.93937048E+03 0.89093029E+02 0.0000E+00 0.0000E+00
       25  1    1    2    0    0 0.29373241E+02 0.48718812E+03 -.46171458E+03 0.68338891E+03 0.12500000E+03 0.0000E+00 0.9000E+01
        3  1    3    3  502    0 -.71173117E+02 -.27138709E+03 -.43564676E+03 0.51817460E+03 0.50000000E+00 0.0000E+00 0.9000E+01
       -3  1    3    3    0  502 0.65639894E+01 -.26193886E+03 -.32977366E+03 0.42119588E+03 0.50000000E+00 0.0000E+00 0.9000E+01
       21  1    1    2  503  501 0.35235887E+02 0.46137828E+02 -.22739154E+03 0.23468648E+03 0.75000000E+00 0.0000E+00 0.9000E+01
#aMCatNLO 2  0  0  2  1 0.13209972D+02 0.00000000D+00  -5  6  0 0.00000000D+00 0.00000000D+00 0.00000000D+00 0.00000000D+00 0.00000000D+00
  <mgrwgt>
 0.3720749812D-03    1    2    0
 0.530122027408104D+03 0.000000000000000D+00 0.000000000000000D+00 0.530122027408104D+03
 0.530122027408104D+03 0.000000000000000D+00 0.000000000000000D+00 -.530122027408104D+03
 0.533747340043526D+03 0.467174533283083D+02 0.509898610119788D+03 0.841552728946030D+02
 0.274698088156670D+03 -.618249535305570D+02 -.259143708654629D+03 -.669421617711794D+02
 0.251798626616012D+03 0.151075002022487D+02 -.250754901465159D+03 -.172131111234236D+02
 0.000000000000000D+00 0.000000000000000D+00 0.000000000000000D+00 -.000000000000000D+00
 0.540704263870727D+03 0.000000000000000D+00 0.000000000000000D+00 0.540704263870727D+03
 0.616996495541725D+03 0.000000000000000D+00 0.000000000000000D+00 -.616996495541725D+03
 0.510805404024141D+03 0.293732406528695D+02 0.487188119270010D+03 0.841552728946030D+02
 0.288441205495937D+03 -.711755657715167D+02 -.271387388878804D+03 -.669421617711794D+02
 0.262585638370861D+03 0.656643787724887D+01 -.261938558020177D+03 -.172131111234236D+02
 0.958685115215131D+02 0.352358872413983D+02 0.461378276289709D+02 -.762922316709986D+02
0.253875710254D-04 0.000000000000D+00 0.000000000000D+00 0.133528437494D-04 0.250996464166D-07  6 -2 2 25 3 -3 21 2 0.30993711D-01 0.25476643D+00 0.30496123D+06 0.30496123D+06 0.30496123D+06 0.10840252D+01  1  2  1  2  6  2        2 0.372074981198D-03 0.100000000000D+01
  </mgrwgt>
  </event>
  <event>
  7     66 0.18476672E-05 0.50094601E+02 0.75467711E-02 0.93653576E-01
       -2 -1    0    0    0  501 0.00000000E+00 0.00000000E+00 0.69676014E+03 0.69676021E+03 0.32000000E+00 0.0000E+00 0.9000E+01
        2 -1    0    0  503    0 0.00000000E+00 0.00000000E+00 -.61543196E+03 0.61543204E+03 0.32000000E+00 0.0000E+00 0.9000E+01
       23  2    1    2    0    0 0.49467559E+03 0.29123223E+02 -.95894101E+01 0.50454282E+03 0.94442599E+02 0.0000E+00 0.0000E+00
       25  1    1    2    0    0 -.51815292E+03 0.23598901E+02 0.28519483E+03 0.60497971E+03 0.12500000E+03 0.0000E+00 0.9000E+01
        3  1    3    3  502    0 0.20484533E+03 -.17847323E+02 0.31667853E+02 0.20804625E+03 0.50000000E+00 0.0000E+00 0.9000E+01
       -3  1    3    3    0  502 0.28983025E+03 0.46970546E+02 -.41257263E+02 0.29649658E+03 0.50000000E+00 0.0000E+00 0.9000E+01
       21  1    1    2  503  501 0.23477330E+02 -.52722124E+02 -.19427724E+03 0.20266972E+03 0.75000000E+00 0.0000E+00 0.9000E+01
#aMCatNLO 2  0  0  2  1 0.13209972D+02 0.00000000D+00  -5  6  0 0.00000000D+00 0.00000000D+00 0.00000000D+00 0.00000000D+00 0.00000000D+00
  <mgrwgt>
 0.3466604476D-03    1    2    0
 0.536598334040103D+03 0.000000000000000D+00 0.000000000000000D+00 0.536598334040103D+03
 0.536598334040103D+03 0.000000000000000D+00 0.000000000000000D+00 -.536598334040103D+03
 0.539722456837166D+03 -.506226575601396D+03 -.318362027162683D+01 0.139283341183347D+03
 0.212310630751067D+03 0.209422293978754D+03 -.281327893357938D+02 -.206555774254830D+02
 0.321163580491973D+03 0.296804281622642D+03 0.313164096074206D+02 -.118627763757864D+03
 0.000000000000000D+00 0.000000000000000D+00 -.000000000000000D+00 -.000000000000000D+00
 0.540629085750089D+03 0.000000000000000D+00 0.000000000000000D+00 0.540629085750089D+03
 0.793164322772346D+03 0.000000000000000D+00 0.000000000000000D+00 -.793164322772346D+03
 0.551420169678398D+03 -.518152917836634D+03 0.235989011256519D+02 0.139283341183347D+03
 0.206654009041234D+03 0.204842951592890D+03 -.178491388236942D+02 -.206555774254830D+02
 0.316673184979849D+03 0.289832636147177D+03 0.469723618212685D+02 -.118627763757864D+03
 0.259046044822954D+03 0.234773300965675D+02 -.527221241232262D+02 -.252535237022257D+03
0.705190127292D-04 0.000000000000D+00 0.000000000000D+00 0.425512235986D-05 0.862477783173D-08  6 -2 2 25 3 -3 21 2 0.10719377D+00 0.94681757D-01 0.29728995D+06 0.29728995D+06 0.29728995D+06 0.10848436D+01  1  2  1  2  6  2        2 0.346660447572D-03 0.100000000000D+01
  </mgrwgt>
  </event>
  <event>
  7     66 0.18476672E-05 0.70186394E+02 0.75467711E-02 0.94314975E-01
       -2 -1    0    0    0  501 0.00000000E+00 0.00000000E+00 0.26280648E+04 0.26280648E+04 0.32000000E+00 0.0000E+00 0.9000E+01
        2 -1    0    0  503    0 0.00000000E+00 0.00000000E+00 -.22777593E+03 0.22777616E+03 0.32000000E+00 0.0000E+00 0.9000E+01
       23  2    1    2    0    0 -.36767473E+03 -.34315189E+03 0.10868086E+04 0.12007250E+04 0.87462197E+02 0.0000E+00 0.0000E+00
       25  1    1    2    0    0 0.36008261E+03 0.33583692E+03 0.14406055E+04 0.15275520E+04 0.12500000E+03 0.0000E+00 0.9000E+01
        3  1    3    3  502    0 -.23923448E+03 -.16891475E+03 0.58457720E+03 0.65383185E+03 0.50000000E+00 0.0000E+00 0.9000E+01
       -3  1    3    3    0  502 -.12844025E+03 -.17423714E+03 0.50223144E+03 0.54689318E+03 0.50000000E+00 0.0000E+00 0.9000E+01
       21  1    1    2  503  501 0.75921204E+01 0.73149737E+01 -.12712530E+03 0.12756392E+03 0.75000000E+00 0.0000E+00 0.9000E+01
#aMCatNLO 2  0  0  2  1 0.13209972D+02 0.00000000D+00  -5  6  0 0.00000000D+00 0.00000000D+00 0.00000000D+00 0.00000000D+00 0.00000000D+00
  <mgrwgt>
 0.9042674840D-03    1    2    0
 0.513702777631246D+03 0.000000000000000D+00 0.000000000000000D+00 0.513702777631246D+03
 0.513702777631246D+03 0.000000000000000D+00 0.000000000000000D+00 -.513702777631246D+03
 0.517584090203699D+03 0.363888489079040D+03 0.339503862281751D+03 0.677538592519852D+02
 0.295225705136782D+03 -.237045643716491D+03 -.166802147289811D+03 -.560769420355012D+02
 0.214595759922011D+03 -.126842845362549D+03 -.172701714991939D+03 -.116769172164840D+02
 0.000000000000000D+00 0.000000000000000D+00 0.000000000000000D+00 -.000000000000000D+00
 0.513772481018307D+03 0.000000000000000D+00 0.000000000000000D+00 0.513772481018307D+03
 0.116512616057902D+04 0.000000000000000D+00 0.000000000000000D+00 -.116512616057902D+04
 0.512505131317766D+03 0.360082613431601D+03 0.335836918291857D+03 0.677538592519852D+02
 0.298180527949068D+03 -.239238104606630D+03 -.168914573451077D+03 -.560769420355012D+02
 0.216773986713318D+03 -.128436629259575D+03 -.174237318575394D+03 -.116769172164840D+02
 0.651438995617171D+03 0.759212043460458D+01 0.731497373461428D+01 -.651353679560710D+03
0.758044786781D-02 0.000000000000D+00 0.000000000000D+00 0.499503935410D-05 0.385351070524D-06  6 -2 2 25 3 -3 21 2 0.40431751D+00 0.35042456D-01 0.26412859D+06 0.26412859D+06 0.26412859D+06 0.10886675D+01  1  2  1  2  6  2        2 0.904267483996D-03 0.100000000000D+01
  </mgrwgt>
  </event>
</LesHouchesEvents>
