<event>
 5    0  0.1856407E+000  0.2746474E+03  0.7546771E-02  0.1098649E+00
         21   -1    0    0  502  501  0.00000000000E+00  0.00000000000E+00  0.22061063710E+03  0.22061063710E+03  0.00000000000E+00 0.  1.
         21   -1    0    0  503  502 -0.00000000000E+00 -0.00000000000E+00 -0.13905973377E+04  0.13905973377E+04  0.00000000000E+00 0.  1.
         25    1    1    2    0    0  0.24275067817E+03  0.41333278884E+02  0.11519806254E+03  0.29921885854E+03  0.12500000000E+03 0.  0.
         21    1    1    2  503  504 -0.21559412244E+03 -0.56250482221E+02 -0.12151218762E+04  0.12353809601E+04  0.00000000000E+00 0.  1.
         21    1    1    2  504  501 -0.27156555732E+02  0.14917203337E+02 -0.70062886945E+02  0.76608156235E+02  0.00000000000E+00 0. -1.
<mgrwt>
<rscale>  4 0.27464744E+03</rscale>
<asrwt>0</asrwt>
<pdfrwt beam="1">  1       21 0.33940098E-01 0.27464744E+03</pdfrwt>
<pdfrwt beam="2">  1       21 0.21393805E+00 0.27464744E+03</pdfrwt>
<totfact> 0.84570710E+02</totfact>
</mgrwt>
</event>
<event>
 5    0  0.1856407E+000  0.2677755E+03  0.7546771E-02  0.1102560E+00
         21   -1    0    0  502  501  0.00000000000E+00  0.00000000000E+00  0.26508750767E+04  0.26508750767E+04  0.00000000000E+00 0. -1.
         21   -1    0    0  503  502 -0.00000000000E+00 -0.00000000000E+00 -0.35136641905E+02  0.35136641905E+02  0.00000000000E+00 0. -1.
         25    1    1    2    0    0 -0.51103737673E+02  0.25584471803E+03  0.12241013502E+04  0.12578224149E+04  0.12500000000E+03 0.  0.
         21    1    1    2  503  504  0.89473276609E+02 -0.33918850726E+02  0.43459730257E+03  0.44500648430E+03  0.00000000000E+00 0. -1.
         21    1    1    2  504  501 -0.38369538936E+02 -0.22192586731E+03  0.95703978202E+03  0.98318281945E+03  0.00000000000E+00 0. -1.
<mgrwt>
<rscale>  4 0.26777551E+03</rscale>
<asrwt>0</asrwt>
<pdfrwt beam="1">  1       21 0.40782678E+00 0.26777551E+03</pdfrwt>
<pdfrwt beam="2">  1       21 0.54056393E-02 0.26777551E+03</pdfrwt>
<totfact> 0.16688143E+03</totfact>
</mgrwt>
</event>
<event>
 5    0  0.1856407E+000  0.2123104E+03  0.7546771E-02  0.1139749E+00
         21   -1    0    0  502  501  0.00000000000E+00  0.00000000000E+00  0.31389500842E+03  0.31389500842E+03  0.00000000000E+00 0.  1.
         21   -1    0    0  503  502 -0.00000000000E+00 -0.00000000000E+00 -0.24188222653E+03  0.24188222653E+03  0.00000000000E+00 0.  1.
         25    1    1    2    0    0  0.18371530550E+03 -0.11860092298E+03 -0.87682196925E+02  0.26670331843E+03  0.12500000000E+03 0.  0.
         21    1    1    2  503  504 -0.50638926347E+02  0.24823409796E+02 -0.60857216582E+01  0.56723350955E+02  0.00000000000E+00 0.  1.
         21    1    1    2  504  501 -0.13307637915E+03  0.93777513185E+02  0.16578070047E+03  0.23235056556E+03  0.00000000000E+00 0.  1.
<mgrwt>
<rscale>  4 0.21231040E+03</rscale>
<asrwt>0</asrwt>
<pdfrwt beam="1">  1       21 0.48291540E-01 0.21231040E+03</pdfrwt>
<pdfrwt beam="2">  1       21 0.37212650E-01 0.21231040E+03</pdfrwt>
<totfact> 0.28221396E+04</totfact>
</mgrwt>
</event>
<event>
 5    0  0.1856407E+000  0.2654675E+03  0.7546771E-02  0.1103902E+00
         21   -1    0    0  502  501  0.00000000000E+00  0.00000000000E+00  0.21032155229E+04  0.21032155229E+04  0.00000000000E+00 0.  1.
         21   -1    0    0  503  502 -0.00000000000E+00 -0.00000000000E+00 -0.98698768398E+02  0.98698768398E+02  0.00000000000E+00 0.  1.
         25    1    1    2    0    0 -0.20598280474E+03 -0.14805655011E+03  0.16008112756E+04  0.16255987814E+04  0.12500000000E+03 0.  0.
         21    1    1    2  503  504  0.19259282821E+03  0.68571213642E+02  0.44206532180E+03  0.48704800334E+03  0.00000000000E+00 0.  1.
         21    1    1    2  504  501  0.13389976529E+02  0.79485336465E+02 -0.38359842909E+02  0.89267506588E+02  0.00000000000E+00 0.  1.
<mgrwt>
<rscale>  4 0.26546755E+03</rscale>
<asrwt>0</asrwt>
<pdfrwt beam="1">  1       21 0.32357158E+00 0.26546755E+03</pdfrwt>
<pdfrwt beam="2">  1       21 0.15184428E-01 0.26546755E+03</pdfrwt>
<totfact> 0.87704004E+02</totfact>
</mgrwt>
</event>
<event>
 5    0  0.1856407E+000  0.2719410E+03  0.7546771E-02  0.1100174E+00
         21   -1    0    0  502  501  0.00000000000E+00  0.00000000000E+00  0.36005306918E+03  0.36005306918E+03  0.00000000000E+00 0.  1.
         21   -1    0    0  503  502 -0.00000000000E+00 -0.00000000000E+00 -0.19305063174E+03  0.19305063174E+03  0.00000000000E+00 0. -1.
         25    1    1    2    0    0 -0.17068263082E+03 -0.17086355819E+03  0.13355585325E+03  0.30296713009E+03  0.12500000000E+03 0.  0.
         21    1    1    2  503  504  0.16687339854E+02  0.18267509403E+02  0.21887112313E+02  0.33033541993E+02  0.00000000000E+00 0. -1.
         21    1    1    2  504  501  0.15399529096E+03  0.15259604878E+03  0.11559471872E+02  0.21710302884E+03  0.00000000000E+00 0. -1.
<mgrwt>
<rscale>  4 0.27194102E+03</rscale>
<asrwt>0</asrwt>
<pdfrwt beam="1">  1       21 0.55392780E-01 0.27194102E+03</pdfrwt>
<pdfrwt beam="2">  1       21 0.29700097E-01 0.27194102E+03</pdfrwt>
<totfact> 0.32162475E+04</totfact>
</mgrwt>
</event>
<event>
 5    0  0.1856407E+000  0.2787674E+03  0.7546771E-02  0.1096364E+00
         21   -1    0    0  502  501  0.00000000000E+00  0.00000000000E+00  0.11182499642E+03  0.11182499642E+03  0.00000000000E+00 0. -1.
         21   -1    0    0  503  502 -0.00000000000E+00 -0.00000000000E+00 -0.12617390786E+04  0.12617390786E+04  0.00000000000E+00 0. -1.
         25    1    1    2    0    0 -0.21622764767E+03 -0.12382201259E+03 -0.10516052765E+03  0.29794298615E+03  0.12500000000E+03 0.  0.
         21    1    1    2  503  504  0.59499203562E+02  0.23969562723E+02 -0.17897365735E+03  0.19012171151E+03  0.00000000000E+00 0. -1.
         21    1    1    2  504  501  0.15672844411E+03  0.99852449869E+02 -0.86577989722E+03  0.88549937739E+03  0.00000000000E+00 0. -1.
<mgrwt>
<rscale>  4 0.27876744E+03</rscale>
<asrwt>0</asrwt>
<pdfrwt beam="1">  1       21 0.17203847E-01 0.27876744E+03</pdfrwt>
<pdfrwt beam="2">  1       21 0.19411369E+00 0.27876744E+03</pdfrwt>
<totfact> 0.41796291E+03</totfact>
</mgrwt>
</event>
<event>
 5    0  0.2293922E+000  0.2077166E+03  0.7546771E-02  0.1143387E+00
         21   -1    0    0  502  501  0.00000000000E+00  0.00000000000E+00  0.91405926773E+02  0.91405926773E+02  0.00000000000E+00 0.  1.
         21   -1    0    0  503  502 -0.00000000000E+00 -0.00000000000E+00 -0.83483094070E+03  0.83483094070E+03  0.00000000000E+00 0.  1.
         25    1    1    2    0    0 -0.77977803466E+02 -0.20094520509E+03 -0.55716819642E+03  0.61034491264E+03  0.12500000000E+03 0.  0.
         21    1    1    2  503  504  0.53566415525E+02  0.14758967013E+03 -0.45615277044E+02  0.16350175871E+03  0.00000000000E+00 0.  1.
         21    1    1    2  504  501  0.24411387941E+02  0.53355534964E+02 -0.14064154046E+03  0.15239019613E+03  0.00000000000E+00 0.  1.
<mgrwt>
<rscale>  4 0.20771665E+03</rscale>
<asrwt>0</asrwt>
<pdfrwt beam="1">  1       21 0.14062450E-01 0.20771665E+03</pdfrwt>
<pdfrwt beam="2">  1       21 0.12843553E+00 0.20771665E+03</pdfrwt>
<totfact> 0.19465878E+04</totfact>
</mgrwt>
</event>
<event>
 5    0  0.1856407E+000  0.2231880E+03  0.7546771E-02  0.1131528E+00
         21   -1    0    0  502  501  0.00000000000E+00  0.00000000000E+00  0.31335617683E+02  0.31335617683E+02  0.00000000000E+00 0.  1.
         21   -1    0    0  503  502 -0.00000000000E+00 -0.00000000000E+00 -0.22325901189E+04  0.22325901189E+04  0.00000000000E+00 0.  1.
         25    1    1    2    0    0  0.19659924957E+03 -0.64584877115E+02 -0.66365406982E+03  0.70631734771E+03  0.12500000000E+03 0.  0.
         21    1    1    2  503  504 -0.18012709277E+03  0.67848903066E+01 -0.13040343520E+04  0.13164335895E+04  0.00000000000E+00 0.  1.
         21    1    1    2  504  501 -0.16472156797E+02  0.57799986809E+02 -0.23356607940E+03  0.24117479942E+03  0.00000000000E+00 0.  1.
<mgrwt>
<rscale>  4 0.22318798E+03</rscale>
<asrwt>0</asrwt>
<pdfrwt beam="1">  1       21 0.48208650E-02 0.22318798E+03</pdfrwt>
<pdfrwt beam="2">  1       21 0.34347535E+00 0.22318798E+03</pdfrwt>
<totfact> 0.52738835E+03</totfact>
</mgrwt>
</event>
<event>
 5    0  0.1856407E+000  0.4925071E+03  0.7546771E-02  0.1015753E+00
         21   -1    0    0  502  501  0.00000000000E+00  0.00000000000E+00  0.61235353734E+03  0.61235353734E+03  0.00000000000E+00 0.  1.
         21   -1    0    0  503  502 -0.00000000000E+00 -0.00000000000E+00 -0.96668383689E+03  0.96668383689E+03  0.00000000000E+00 0.  1.
         25    1    1    2    0    0  0.11108609171E+03  0.47756355810E+03  0.40538839231E+03  0.64836087206E+03  0.12500000000E+03 0.  0.
         21    1    1    2  503  504 -0.10168214247E+03 -0.40268345001E+03 -0.45199790478E+03  0.61383656207E+03  0.00000000000E+00 0.  1.
         21    1    1    2  504  501 -0.94039492480E+01 -0.74880108094E+02 -0.30772078707E+03  0.31683994010E+03  0.00000000000E+00 0.  1.
<mgrwt>
<rscale>  4 0.49250707E+03</rscale>
<asrwt>0</asrwt>
<pdfrwt beam="1">  1       21 0.94208237E-01 0.49250707E+03</pdfrwt>
<pdfrwt beam="2">  1       21 0.14872059E+00 0.49250707E+03</pdfrwt>
<totfact> 0.23187399E+02</totfact>
</mgrwt>
</event>
<event>
 5    0  0.1856407E+000  0.4421553E+03  0.7546771E-02  0.1030088E+00
         21   -1    0    0  502  501  0.00000000000E+00  0.00000000000E+00  0.45956671463E+03  0.45956671463E+03  0.00000000000E+00 0. -1.
         21   -1    0    0  503  502 -0.00000000000E+00 -0.00000000000E+00 -0.11463369658E+04  0.11463369658E+04  0.00000000000E+00 0. -1.
         25    1    1    2    0    0  0.61210132781E+03 -0.17431506498E+03 -0.35703885279E+03  0.74037525606E+03  0.12500000000E+03 0.  0.
         21    1    1    2  503  504 -0.27748087030E+03  0.22870728737E+02 -0.40414863053E+03  0.49076961925E+03  0.00000000000E+00 0. -1.
         21    1    1    2  504  501 -0.33462045751E+03  0.15144433624E+03  0.74417232168E+02  0.37475880511E+03  0.00000000000E+00 0. -1.
<mgrwt>
<rscale>  4 0.44215529E+03</rscale>
<asrwt>0</asrwt>
<pdfrwt beam="1">  1       21 0.70702572E-01 0.44215529E+03</pdfrwt>
<pdfrwt beam="2">  1       21 0.17635953E+00 0.44215529E+03</pdfrwt>
<totfact> 0.28720361E+02</totfact>
</mgrwt>
</event>
<event>
 5    0  0.1856407E+000  0.4224141E+03  0.7546771E-02  0.1036283E+00
         21   -1    0    0  502  501  0.00000000000E+00  0.00000000000E+00  0.69418585488E+03  0.69418585488E+03  0.00000000000E+00 0.  1.
         21   -1    0    0  503  502 -0.00000000000E+00 -0.00000000000E+00 -0.48461028959E+03  0.48461028959E+03  0.00000000000E+00 0.  1.
         25    1    1    2    0    0 -0.40116538069E+03 -0.43301556378E+02  0.51385666058E+03  0.66519347191E+03  0.12500000000E+03 0.  0.
         21    1    1    2  503  504  0.33445963478E+03  0.18154656292E+02 -0.28489639434E+03  0.43972581724E+03  0.00000000000E+00 0.  1.
         21    1    1    2  504  501  0.66705745904E+02  0.25146900086E+02 -0.19384700950E+02  0.73876855317E+02  0.00000000000E+00 0.  1.
<mgrwt>
<rscale>  4 0.42241412E+03</rscale>
<asrwt>0</asrwt>
<pdfrwt beam="1">  1       21 0.10679782E+00 0.42241412E+03</pdfrwt>
<pdfrwt beam="2">  1       21 0.74555429E-01 0.42241412E+03</pdfrwt>
<totfact> 0.97082732E+02</totfact>
</mgrwt>
</event>
<event>
 5    0  0.1939163E+000  0.2495995E+03  0.7546771E-02  0.1113558E+00
         21   -1    0    0  502  501  0.00000000000E+00  0.00000000000E+00  0.10430351808E+04  0.10430351808E+04  0.00000000000E+00 0.  1.
         21   -1    0    0  503  502 -0.00000000000E+00 -0.00000000000E+00 -0.11274457041E+03  0.11274457041E+03  0.00000000000E+00 0.  1.
         25    1    1    2    0    0 -0.19993807761E+03  0.87702120013E+02  0.87406066474E+03  0.90954600895E+03  0.12500000000E+03 0.  0.
         21    1    1    2  503  504  0.17075725962E+00 -0.31940087001E+02  0.28296777770E+01  0.32065641924E+02  0.00000000000E+00 0.  1.
         21    1    1    2  504  501  0.19976732035E+03 -0.55762033012E+02  0.53400267907E+02  0.21416810038E+03  0.00000000000E+00 0.  1.
<mgrwt>
<rscale>  4 0.24959949E+03</rscale>
<asrwt>0</asrwt>
<pdfrwt beam="1">  1       21 0.16046694E+00 0.24959949E+03</pdfrwt>
<pdfrwt beam="2">  1       21 0.17345319E-01 0.24959949E+03</pdfrwt>
<totfact> 0.72009534E+03</totfact>
</mgrwt>
</event>
<event>
 5    0  0.1856407E+000  0.2469910E+03  0.7546771E-02  0.1115221E+00
         21   -1    0    0  502  501  0.00000000000E+00  0.00000000000E+00  0.10061251014E+04  0.10061251014E+04  0.00000000000E+00 0. -1.
         21   -1    0    0  503  502 -0.00000000000E+00 -0.00000000000E+00 -0.82961971709E+02  0.82961971709E+02  0.00000000000E+00 0. -1.
         25    1    1    2    0    0  0.10404385218E+03  0.18588822074E+03  0.78658250054E+03  0.82444926098E+03  0.12500000000E+03 0.  0.
         21    1    1    2  503  504 -0.48816199423E+02 -0.62304121260E+02  0.10849369387E+02  0.79890760844E+02  0.00000000000E+00 0. -1.
         21    1    1    2  504  501 -0.55227652754E+02 -0.12358409948E+03  0.12573125977E+03  0.18474705128E+03  0.00000000000E+00 0. -1.
<mgrwt>
<rscale>  4 0.24699100E+03</rscale>
<asrwt>0</asrwt>
<pdfrwt beam="1">  1       21 0.15478847E+00 0.24699100E+03</pdfrwt>
<pdfrwt beam="2">  1       21 0.12763381E-01 0.24699100E+03</pdfrwt>
<totfact> 0.13943556E+04</totfact>
</mgrwt>
</event>
