<LesHouchesEvents version="3.0">
  <!--
  <scalesfunctionalform>
    muR  H_T/2 := sum_i mT(i)/2, i=final state
    muF1 H_T/2 := sum_i mT(i)/2, i=final state
    muF2 H_T/2 := sum_i mT(i)/2, i=final state
    QES  H_T/2 := sum_i mT(i)/2, i=final state
  </scalesfunctionalform>
HERWIG6   
  -->
  <header>
       66
  </header>
  <init>
   2212   2212 0.65000000D+04 0.65000000D+04 -1 -1   247000   247000 -3   1
 0.11328467D-01 0.22951767D-03 0.41051716D-03     66
  </init>
  <event>
  6     66 -.41051716E-03 0.32757440E+02 0.75467711E-02 0.11972587E+00
       21 -1    0    0  501  502 0.00000000E+00 0.00000000E+00 0.19032457E+03 0.19032605E+03 0.75000000E+00 0.0000E+00 0.9000E+01
       -2 -1    0    0    0  503 0.00000000E+00 0.00000000E+00 -.16243575E+03 0.16243607E+03 0.32000000E+00 0.0000E+00 0.9000E+01
       25  1    1    2    0    0 -.14613304E+02 -.10292910E+02 0.23197903E+01 0.12629281E+03 0.12500000E+03 0.0000E+00 0.9000E+01
      -24  1    1    2    0    0 0.21613795E+02 0.26765372E+02 -.46010739E+02 0.98831905E+02 0.80419002E+02 0.0000E+00 0.9000E+01
       -1  1    1    2    0  502 -.44669349E+02 -.27308102E+02 0.71268124E+02 0.88432636E+02 0.32000000E+00 0.0000E+00 0.9000E+01
       21  1    1    2  501  503 0.37668858E+02 0.10835640E+02 0.31164137E+00 0.39204765E+02 0.75000000E+00 0.0000E+00 0.9000E+01
#aMCatNLO 2  0  0  2  1 0.39196352D+02 0.00000000D+00  -5  6  0 0.00000000D+00 0.00000000D+00 0.00000000D+00 0.00000000D+00 0.00000000D+00
  <mgrwgt>
 -.1734926402D-01    2    2    0
 0.154936566130752D+03 0.000000000000000D+00 0.000000000000000D+00 0.154936566130752D+03
 0.154936566130752D+03 0.000000000000000D+00 0.000000000000000D+00 -.154936566130752D+03
 0.125451576991290D+03 0.644740740263479D+00 -.590380483110883D+01 -.882199339694053D+01
 0.107665193645285D+03 0.343844152981030D+02 0.304389501943857D+02 -.549159381598594D+02
 0.767563616249277D+02 -.350291560383665D+02 -.245351453632769D+02 0.637379315567999D+02
 0.000000000000000D+00 0.000000000000000D+00 0.000000000000000D+00 -.000000000000000D+00
 0.174258186852502D+03 0.000000000000000D+00 0.000000000000000D+00 0.174258186852502D+03
 0.177406717231387D+03 0.000000000000000D+00 0.000000000000000D+00 -.177406717231387D+03
 0.126579282971932D+03 -.146131816598086D+02 -.102928242951197D+02 -.882199339694053D+01
 0.103278870149798D+03 0.216138833219359D+02 0.267654413155553D+02 -.549159381598594D+02
 0.824841464185382D+02 -.446695600548818D+02 -.273082569154247D+02 0.637379315567999D+02
 0.393226045436213D+02 0.376688583927544D+02 0.108356398949890D+02 -.314853037888515D+01
-.665980055883D-05 0.000000000000D+00 0.000000000000D+00 0.113729057257D-05 0.000000000000D+00  6 21 -2 25 -24 -1 21 4 0.26033673D-01 0.26173827D-01 0.23300817D+05 0.23300817D+05 0.23300817D+05 0.12265886D+01  1  2 13  2  6  2       -2 -.221581012146D-01 0.100000000000D+01
0.166955396646D-05 0.000000000000D+00 0.000000000000D+00 0.116561267867D-05 0.529997349072D-08  6 21 -2 25 -24 -1 21 4 0.29280245D-01 0.24989745D-01 0.23300817D+05 0.23300817D+05 0.23300817D+05 0.12265886D+01  1  2  1  2  6  2       -2 0.480883718978D-02 0.100000000000D+01
  </mgrwgt>
  </event>
  <event>
  5     66 0.41051716E-03 0.53678647E+02 0.75467711E-02 0.12174878E+00
       21 -1    0    0  501  502 0.00000000E+00 0.00000000E+00 0.13541046E+03 0.13541253E+03 0.75000000E+00 0.0000E+00 0.9000E+01
       -4 -1    0    0    0  501 -.00000000E+00 -.00000000E+00 -.13907607E+03 0.13908471E+03 0.15500000E+01 0.0000E+00 0.9000E+01
       25  1    1    2    0    0 -.69164816E+00 -.12405780E+02 -.88686606E+01 0.12592869E+03 0.12500000E+03 0.0000E+00 0.9000E+01
      -24  1    1    2    0    0 0.48841991E+02 -.11316375E+02 0.47832295E+01 0.94887806E+02 0.80419002E+02 0.0000E+00 0.9000E+01
       -3  1    1    2    0  502 -.48150343E+02 0.23722155E+02 0.41981870E+00 0.53680745E+02 0.50000000E+00 0.0000E+00 0.9000E+01
#aMCatNLO 1  0  0  5  1 0.88828330D+00 0.00000000D+00  -5  6  0 0.00000000D+00 0.00000000D+00 0.00000000D+00 0.00000000D+00 0.00000000D+00
  <mgrwgt>
 0.4604664305D-02    8    2    0
 0.137236381882906D+03 0.000000000000000D+00 0.000000000000000D+00 0.137236381882906D+03
 0.137236381882906D+03 -.000000000000000D+00 -.000000000000000D+00 -.137236381882906D+03
 0.125821520097794D+03 -.690690983838270D+00 -.124062514173657D+02 -.718768331616929D+01
 0.949605606061437D+02 0.488427131705237D+02 -.113167305863056D+02 0.605087557643342D+01
 0.536906830618747D+02 -.481520221866854D+02 0.237229820036713D+02 0.113680773973588D+01
 0.000000000000000D+00 -.000000000000000D+00 0.000000000000000D+00 0.000000000000000D+00
 0.137236381882906D+03 0.000000000000000D+00 0.000000000000000D+00 0.137236381882906D+03
 0.137236381882906D+03 -.000000000000000D+00 -.000000000000000D+00 -.137236381882906D+03
 0.125818167788771D+03 -.766772614824788D+00 -.123687683983617D+02 -.718588712604000D+01
 0.949277626423503D+02 0.487853016649723D+02 -.112884457490101D+02 0.605223098874835D+01
 0.514132999801409D+02 -.459310140072105D+02 0.230227549020548D+02 0.190318780925778D+01
 0.231353335455008D+01 -.208751504293707D+01 0.634459245316998D+00 -.769531671966120D+00
0.798857601518D-06 0.000000000000D+00 0.000000000000D+00 0.419756058343D-06 0.000000000000D+00  6 21 -4 25 -24 -3 21 2 0.20833202D-01 0.21397142D-01 0.18777533D+05 0.18777533D+05 0.18777533D+05 0.12368530D+01  1  2  2  3  6  5       -3 0.213254617107D-02 0.100000000000D+01
-.421650164633D-07 0.421568738268D-07 -.161266333639D-08 0.419756058343D-06 0.000000000000D+00  6 21 -4 25 -24 -3 21 4 0.20833202D-01 0.21397142D-01 0.18777533D+05 0.18777533D+05 0.18777533D+05 0.12368530D+01  1  2  3  3  6  5       -3 -.172193817017D-03 0.100000000000D+01
0.834656255167D-07 0.000000000000D+00 0.000000000000D+00 0.419756058343D-06 0.000000000000D+00  6 21 -4 25 -24 -3 21 4 0.20833202D-01 0.21397142D-01 0.18777533D+05 0.18777533D+05 0.18777533D+05 0.12368530D+01  1  2 15  3  6  5       -3 0.340857560435D-03 0.100000000000D+01
0.591155385544D-11 0.000000000000D+00 0.000000000000D+00 0.419793056639D-06 0.000000000000D+00  6 21 -4 25 -24 -3 21 4 0.20833202D-01 0.21397142D-01 0.18756301D+05 0.18756301D+05 0.18756301D+05 0.12369076D+01  1  2 12  3  6  5       -3 0.241446610643D-07 0.100000000000D+01
-.384006047013D-04 0.000000000000D+00 0.000000000000D+00 0.419756058343D-06 0.000000000000D+00  6 21 -4 25 -24 -3 21 4 0.20833202D-01 0.21397142D-01 0.18777533D+05 0.18777533D+05 0.18777533D+05 0.12368530D+01  1  2  4  3  6  5       -3 -.156820683445D+00 0.100000000000D+01
-.442325365254D-04 0.000000000000D+00 0.000000000000D+00 0.419756058343D-06 0.000000000000D+00  6 21 -4 25 -24 -3 21 4 0.20833202D-01 0.21397142D-01 0.18777533D+05 0.18777533D+05 0.18777533D+05 0.12368530D+01  1  2  5  3  6  5       -3 -.180637171274D+00 0.100000000000D+01
0.466676959637D-04 0.000000000000D+00 -.000000000000D+00 0.419756058343D-06 0.000000000000D+00  6 21 -4 25 -24 -3 21 4 0.20833202D-01 0.21397142D-01 0.18777533D+05 0.18777533D+05 0.18777533D+05 0.12368530D+01  1  2  6  3  6  5       -3 0.190581894029D+00 0.100000000000D+01
0.365249278626D-04 0.000000000000D+00 0.000000000000D+00 0.419756058343D-06 0.320974247049D-05  6 21 -4 25 -24 -3 21 4 0.20833202D-01 0.21397142D-01 0.18756301D+05 0.18756301D+05 0.18756301D+05 0.12369076D+01  1  2 11  3  6  5       -3 0.149179390936D+00 0.100000000000D+01
  </mgrwgt>
  </event>
  <event>
  6     66 0.41051716E-03 0.16963834E+02 0.75467711E-02 0.12205621E+00
       21 -1    0    0  501  502 0.00000000E+00 0.00000000E+00 0.67616980E+02 0.67621139E+02 0.75000000E+00 0.0000E+00 0.9000E+01
       -2 -1    0    0    0  501 -.00000000E+00 -.00000000E+00 -.36892258E+03 0.36892272E+03 0.32000000E+00 0.0000E+00 0.9000E+01
       25  1    1    2    0    0 0.40825586E+01 0.45295355E+02 -.17006759E+03 0.21590813E+03 0.12500000E+03 0.0000E+00 0.9000E+01
      -24  1    1    2    0    0 0.13684324E+02 -.30330499E+02 -.14509851E+03 0.16919809E+03 0.80419002E+02 0.0000E+00 0.9000E+01
       -1  1    1    2    0  503 0.96002761E+01 -.19539733E+02 0.64501290E+01 0.22708435E+02 0.32000000E+00 0.0000E+00 0.9000E+01
       21  1    1    2  503  502 -.27367159E+02 0.45748768E+01 0.74103703E+01 0.28729201E+02 0.75000000E+00 0.0000E+00 0.9000E+01
#aMCatNLO 2  0  0  5  2 0.21617200D+02 0.00000000D+00  -5  6  0 0.00000000D+00 0.00000000D+00 0.00000000D+00 0.00000000D+00 0.00000000D+00
  <mgrwgt>
 0.2012933712D-01    1    2    0
 0.157944194613719D+03 0.000000000000000D+00 0.000000000000000D+00 0.157944194613719D+03
 0.157944194613719D+03 -.000000000000000D+00 -.000000000000000D+00 -.157944194613719D+03
 0.137765407588507D+03 0.541690984327647D+01 0.464192652604640D+02 -.342084262785631D+02
 0.968475161649041D+02 0.146209255791727D+02 -.295416100588938D+02 -.427287636525724D+02
 0.812754654740277D+02 -.200378354224491D+02 -.168776552015702D+02 0.769371899311355D+02
 0.000000000000000D+00 -.000000000000000D+00 0.000000000000000D+00 0.000000000000000D+00
 0.157944194613719D+03 0.000000000000000D+00 0.000000000000000D+00 0.157944194613719D+03
 0.157944194613719D+03 -.000000000000000D+00 -.000000000000000D+00 -.157944194613719D+03
 0.136165052303035D+03 0.408789929334963D+01 0.452998538396183D+02 -.291055628731851D+02
 0.954296175786457D+02 0.136880671473062D+02 -.303273467731139D+02 -.391469642796242D+02
 0.370812622232187D+02 0.966864938009580D+01 -.193919922643498D+02 0.300913253820977D+02
 0.472124571225390D+02 -.274446158207517D+02 0.441948519784534D+01 0.381612017707115D+02
0.470852603762D-05 0.000000000000D+00 0.000000000000D+00 0.359217087015D-05 0.403773357859D-07  6 21 -2 25 -24 -1 21 4 0.10402943D-01 0.56757650D-01 0.18159648D+05 0.18159648D+05 0.18159648D+05 0.12384682D+01  1  2  1  3  6  5       -1 0.201293371222D-01 0.100000000000D+01
  </mgrwgt>
  </event>
  <event>
  5     66 0.41051716E-03 0.85139930E+02 0.75467711E-02 0.11011528E+00
       21 -1    0    0  501  502 0.00000000E+00 0.00000000E+00 0.11811103E+03 0.11811341E+03 0.75000000E+00 0.0000E+00 0.9000E+01
       -4 -1    0    0    0  501 0.00000000E+00 0.00000000E+00 -.11384123E+04 0.11384133E+04 0.15500000E+01 0.0000E+00 0.9000E+01
       25  1    1    2    0    0 0.22402123E+02 -.87221867E+02 -.43639407E+03 0.46278969E+03 0.12500000E+03 0.0000E+00 0.9000E+01
      -24  1    1    2    0    0 -.10032212E+03 0.52910489E+02 -.66306352E+03 0.67748395E+03 0.80419002E+02 0.0000E+00 0.9000E+01
       -3  1    1    2    0  502 0.77919998E+02 0.34311377E+02 0.79156380E+02 0.11625308E+03 0.50000000E+00 0.0000E+00 0.9000E+01
#aMCatNLO 1  0  0  1  1 0.17400000D+03 0.00000000D+00  -5  6  0 0.00000000D+00 0.00000000D+00 0.00000000D+00 0.00000000D+00 0.00000000D+00
  <mgrwgt>
 0.2889847592D-02   14    4    0
 0.366689523674995D+03 0.000000000000000D+00 0.000000000000000D+00 0.366689523674995D+03
 0.366689523674995D+03 0.000000000000000D+00 0.000000000000000D+00 -.366689523674995D+03
 0.185789666471202D+03 0.224020975369350D+02 -.872218779961332D+02 -.103842622233135D+03
 0.238283664657171D+03 -.100322154480135D+03 0.529104748195358D+02 -.193514433216016D+03
 0.309305716221618D+03 0.779200569432005D+02 0.343114031765974D+02 0.297357055449151D+03
 0.000000000000000D+00 -.000000000000000D+00 0.000000000000000D+00 0.000000000000000D+00
 0.654873520160710D+03 0.000000000000000D+00 0.000000000000000D+00 0.654873520160710D+03
 0.387961319552192D+03 0.000000000000000D+00 0.000000000000000D+00 -.387961319552192D+03
 0.198267915218953D+03 0.542608234177097D+02 -.997879704926824D+02 -.103842622233135D+03
 0.221835989054958D+03 -.621538520723002D+02 0.378556851117480D+02 -.193514433216016D+03
 0.325031925482786D+03 0.130540262887271D+03 0.135563240954315D+02 0.297357055449151D+03
 0.297699009956205D+03 -.122647234232681D+03 0.483759612855029D+02 0.266912200608519D+03
 0.366689523674995D+03 0.000000000000000D+00 0.000000000000000D+00 0.366689523674995D+03
 0.366689523674995D+03 0.000000000000000D+00 0.000000000000000D+00 -.366689523674995D+03
 0.185789666471202D+03 0.224020975369350D+02 -.872218779961332D+02 -.103842622233135D+03
 0.238283664657171D+03 -.100322154480135D+03 0.529104748195358D+02 -.193514433216016D+03
 0.000000000000000D+00 -.000000000000000D+00 0.000000000000000D+00 0.000000000000000D+00
 0.309305716221618D+03 0.779200569432005D+02 0.343114031765974D+02 0.297357055449151D+03
 0.654873520160710D+03 0.000000000000000D+00 0.000000000000000D+00 0.654873520160710D+03
 0.387961319552192D+03 0.000000000000000D+00 0.000000000000000D+00 -.387961319552192D+03
 0.198267915218953D+03 0.542608234177097D+02 -.997879704926824D+02 -.103842622233135D+03
 0.221835989054958D+03 -.621538520723002D+02 0.378556851117480D+02 -.193514433216016D+03
 0.297699009956205D+03 -.122647234232681D+03 0.483759612855029D+02 0.266912200608519D+03
 0.325031925482786D+03 0.130540262887271D+03 0.135563240954315D+02 0.297357055449151D+03
0.750657056336D-04 0.000000000000D+00 0.000000000000D+00 0.175733997034D-05 0.000000000000D+00  6 21 -4 25 -24 -3 21 2 0.18171193D-01 0.17514061D+00 0.35765797D+05 0.35765797D+05 0.35765797D+05 0.12069663D+01  1  2  2  1  6  1       21 0.267516852819D-02 0.100000000000D+01
0.582846743378D-05 0.396132611757D-05 -.151536032286D-06 0.175733997034D-05 0.000000000000D+00  6 21 -4 25 -24 -3 21 4 0.18171193D-01 0.17514061D+00 0.35765797D+05 0.35765797D+05 0.35765797D+05 0.12069663D+01  1  2  3  1  6  1       21 0.302589751618D-03 0.100000000000D+01
0.744423266158D-05 0.000000000000D+00 0.000000000000D+00 0.175733997034D-05 0.000000000000D+00  6 21 -4 25 -24 -3 21 4 0.18171193D-01 0.17514061D+00 0.35765797D+05 0.35765797D+05 0.35765797D+05 0.12069663D+01  1  2 15  1  6  1       21 0.386473552035D-03 0.100000000000D+01
-.114732378070D-03 0.000000000000D+00 0.000000000000D+00 0.175733997034D-05 0.000000000000D+00  6 21 -4 25 -24 -3 21 4 0.18171193D-01 0.17514061D+00 0.35765797D+05 0.35765797D+05 0.35765797D+05 0.12069663D+01  1  2  4  1  6  1       21 -.595642717013D-02 0.100000000000D+01
-.503964579846D-03 0.000000000000D+00 -.102146467429D-03 0.175733997034D-05 0.000000000000D+00  6 21 -4 25 -24 -3 21 4 0.33889572D-01 0.17514061D+00 0.35765797D+05 0.35765797D+05 0.35765797D+05 0.12069663D+01  1  2  5  1  6  1       21 -.795959757536D-02 0.100000000000D+01
0.283616885016D-03 0.000000000000D+00 0.520259690604D-04 0.175733997034D-05 0.000000000000D+00  6 21 -4 25 -24 -3 21 4 0.18171193D-01 0.17514061D+00 0.35765797D+05 0.35765797D+05 0.35765797D+05 0.12069663D+01  1  2  6  1  6  1       21 0.147242073095D-01 0.100000000000D+01
-.108855516513D-03 0.000000000000D+00 -.226638807207D-04 0.175733997034D-05 0.000000000000D+00  6 -3 -4 25 -24 -3 -3 4 0.33889572D-01 0.17514061D+00 0.35765797D+05 0.35765797D+05 0.35765797D+05 0.12069663D+01  1  2  5  4  6  1       21 -.861538404339D-04 0.100000000000D+01
-.108855516513D-03 0.000000000000D+00 -.226638807207D-04 0.175733997034D-05 0.000000000000D+00  6 3 -4 25 -24 3 -3 4 0.33889572D-01 0.17514061D+00 0.35765797D+05 0.35765797D+05 0.35765797D+05 0.12069663D+01  3  4  5  5  5  1       21 -.861618001081D-04 0.100000000000D+01
-.108855516513D-03 0.000000000000D+00 -.226638807207D-04 0.175733997034D-05 0.000000000000D+00  6 -4 -4 25 -24 -3 -4 4 0.33889572D-01 0.17514061D+00 0.35765797D+05 0.35765797D+05 0.35765797D+05 0.12069663D+01  1  2  5  6  6  1       21 -.723646901038D-04 0.100000000000D+01
-.108855516513D-03 0.000000000000D+00 -.226638807207D-04 0.175733997034D-05 0.000000000000D+00  6 4 -4 25 -24 4 -3 4 0.33889572D-01 0.17514061D+00 0.35765797D+05 0.35765797D+05 0.35765797D+05 0.12069663D+01  3  4  5  7  5  1       21 -.723646901038D-04 0.100000000000D+01
-.108855516513D-03 0.000000000000D+00 -.226638807207D-04 0.175733997034D-05 0.000000000000D+00  6 -1 -4 25 -24 -3 -1 4 0.33889572D-01 0.17514061D+00 0.35765797D+05 0.35765797D+05 0.35765797D+05 0.12069663D+01  1  2  5  8  6  1       21 -.155352413630D-03 0.100000000000D+01
-.108855516513D-03 0.000000000000D+00 -.226638807207D-04 0.175733997034D-05 0.000000000000D+00  6 -2 -4 25 -24 -3 -2 4 0.33889572D-01 0.17514061D+00 0.35765797D+05 0.35765797D+05 0.35765797D+05 0.12069663D+01  1  2  5  8  6  1       21 -.134434418847D-03 0.100000000000D+01
-.108855516513D-03 0.000000000000D+00 -.226638807207D-04 0.175733997034D-05 0.000000000000D+00  6 1 -4 25 -24 1 -3 4 0.33889572D-01 0.17514061D+00 0.35765797D+05 0.35765797D+05 0.35765797D+05 0.12069663D+01  3  4  5  9  5  1       21 -.288574025849D-03 0.100000000000D+01
-.108855516513D-03 0.000000000000D+00 -.226638807207D-04 0.175733997034D-05 0.000000000000D+00  6 2 -4 25 -24 2 -3 4 0.33889572D-01 0.17514061D+00 0.35765797D+05 0.35765797D+05 0.35765797D+05 0.12069663D+01  3  4  5  9  5  1       21 -.387160924309D-03 0.100000000000D+01
  </mgrwgt>
  </event>
  <event>
  6     66 0.41051716E-03 0.35036571E+02 0.75467711E-02 0.11167638E+00
       21 -1    0    0  501  502 0.00000000E+00 0.00000000E+00 0.11282087E+03 0.11282336E+03 0.75000000E+00 0.0000E+00 0.9000E+01
       -4 -1    0    0    0  501 -.00000000E+00 -.00000000E+00 -.11197935E+04 0.11197946E+04 0.15500000E+01 0.0000E+00 0.9000E+01
       25  1    1    2    0    0 0.18753403E+02 0.18366403E+03 -.10486735E+03 0.24638654E+03 0.12500000E+03 0.0000E+00 0.9000E+01
      -24  1    1    2    0    0 -.51470146E+02 -.20540240E+03 -.91520589E+03 0.94281936E+03 0.80419002E+02 0.0000E+00 0.9000E+01
       -3  1    1    2    0  503 0.12103434E+02 0.46479015E+01 -.12290306E+01 0.13032905E+02 0.50000000E+00 0.0000E+00 0.9000E+01
       21  1    1    2  503  502 0.20613309E+02 0.17090468E+02 0.14329608E+02 0.30379151E+02 0.75000000E+00 0.0000E+00 0.9000E+01
#aMCatNLO 2  0  0  5  1 0.51837408D+01 0.00000000D+00  -5  6  0 0.00000000D+00 0.00000000D+00 0.00000000D+00 0.00000000D+00 0.00000000D+00
  <mgrwgt>
 0.5974101063D-02    2    2    0
 0.355440960283705D+03 0.000000000000000D+00 0.000000000000000D+00 0.355440960283705D+03
 0.355440960283705D+03 -.000000000000000D+00 -.000000000000000D+00 -.355440960283705D+03
 0.278413164929235D+03 0.186277075156227D+02 0.183580512971824D+03 0.166853511127660D+03
 0.338757856686793D+03 -.516229301794747D+02 -.205503916174110D+03 -.251779433293208D+03
 0.937108989513810D+02 0.329952226638520D+02 0.219234032022865D+02 0.849259221655481D+02
 0.000000000000000D+00 0.000000000000000D+00 0.000000000000000D+00 0.000000000000000D+00
 0.355440960283705D+03 0.000000000000000D+00 0.000000000000000D+00 0.355440960283705D+03
 0.355440960283705D+03 -.000000000000000D+00 -.000000000000000D+00 -.355440960283705D+03
 0.278653429632219D+03 0.187450026826437D+02 0.183658448776849D+03 0.167155415446546D+03
 0.338405952334181D+03 -.514803475100863D+02 -.205409178296979D+03 -.251412441840960D+03
 0.204987479435747D+02 0.118199606247831D+02 0.457628694113114D+01 0.161103940335181D+02
 0.733237906574353D+02 0.209153842026595D+02 0.171744425789989D+02 0.681466323608967D+02
-.712067812246D-04 0.000000000000D+00 0.000000000000D+00 0.217193940627D-06 0.000000000000D+00  6 21 -4 25 -24 -3 21 4 0.17357331D-01 0.17227620D+00 0.59830687D+05 0.59830687D+05 0.59830687D+05 0.11846378D+01  1  2 13  3  6  5       -3 -.387539882713D-02 0.100000000000D+01
0.180975227362D-03 0.000000000000D+00 0.000000000000D+00 0.217198942846D-06 0.176270885077D-07  6 21 -4 25 -24 -3 21 4 0.17357331D-01 0.17227620D+00 0.59830687D+05 0.59830687D+05 0.59830687D+05 0.11846378D+01  1  2  1  3  6  5       -3 0.984949989026D-02 0.100000000000D+01
  </mgrwgt>
  </event>
  <event>
  6     66 0.41051716E-03 0.25739659E+02 0.75467711E-02 0.11866615E+00
       21 -1    0    0  503  502 0.00000000E+00 0.00000000E+00 0.24123405E+03 0.24123522E+03 0.75000000E+00 0.0000E+00 0.9000E+01
       -2 -1    0    0    0  501 0.00000000E+00 0.00000000E+00 -.12794355E+03 0.12794395E+03 0.32000000E+00 0.0000E+00 0.9000E+01
       25  1    1    2    0    0 -.51867606E+02 -.23017506E+02 -.17327798E+02 0.13836657E+03 0.12500000E+03 0.0000E+00 0.9000E+01
      -24  1    1    2    0    0 0.52925732E+02 0.28730939E+02 0.89781946E+02 0.13473906E+03 0.80419002E+02 0.0000E+00 0.9000E+01
       -1  1    1    2    0  502 0.36647358E+00 -.45786293E+02 0.29227907E+02 0.54322112E+02 0.32000000E+00 0.0000E+00 0.9000E+01
       21  1    1    2  503  501 -.14245989E+01 0.40072861E+02 0.11608450E+02 0.41751434E+02 0.75000000E+00 0.0000E+00 0.9000E+01
#aMCatNLO 2  0  0  1  5 0.55965109D+01 0.00000000D+00  -5  6  0 0.00000000D+00 0.00000000D+00 0.00000000D+00 0.00000000D+00 0.00000000D+00
  <mgrwgt>
 0.2328760001D-02    1    2    0
 0.154322567275000D+03 0.000000000000000D+00 0.000000000000000D+00 0.154322567275000D+03
 0.154322567275000D+03 0.000000000000000D+00 0.000000000000000D+00 -.154322567275000D+03
 0.149746443313345D+03 -.525592910791567D+02 -.356045639276100D+01 -.634337556552388D+02
 0.116846346216056D+03 0.523988475219559D+02 0.435521726930246D+02 0.504323477716414D+02
 0.420523450205989D+02 0.160443557200828D+00 -.399917163002636D+02 0.130014078835974D+02
 0.000000000000000D+00 -.000000000000000D+00 0.000000000000000D+00 -.000000000000000D+00
 0.174967294226502D+03 0.000000000000000D+00 0.000000000000000D+00 0.174967294226502D+03
 0.176395246420877D+03 0.000000000000000D+00 0.000000000000000D+00 -.176395246420877D+03
 0.151224568329290D+03 -.518676085576499D+02 -.230169479375936D+02 -.634337556552388D+02
 0.112415577568356D+03 0.529257303757671D+02 0.287313676682539D+02 0.504323477716414D+02
 0.475988020578194D+02 0.366477125446295D+00 -.457872803833153D+02 0.130014078835974D+02
 0.401235926919128D+02 -.142459894356348D+01 0.400728606526549D+02 -.142795219437498D+01
0.868544122296D-06 0.000000000000D+00 0.000000000000D+00 0.380672751490D-06 0.206510194928D-08  6 21 -2 25 -24 -1 21 4 0.37112312D-01 0.19683351D-01 0.26184454D+05 0.26184454D+05 0.26184454D+05 0.12211481D+01  1  2  1  1  6  1       21 0.232876000147D-02 0.100000000000D+01
  </mgrwgt>
  </event>
  <event>
  5     66 0.41051716E-03 0.30225452E+02 0.75467711E-02 0.11599900E+00
       21 -1    0    0  501  502 0.00000000E+00 0.00000000E+00 0.52066257E+03 0.52066311E+03 0.75000000E+00 0.0000E+00 0.9000E+01
       -4 -1    0    0    0  501 0.00000000E+00 0.00000000E+00 -.11133511E+03 0.11134590E+03 0.15500000E+01 0.0000E+00 0.9000E+01
       25  1    1    2    0    0 0.62676978E+02 0.77821623E+02 -.20855296E+02 0.16138325E+03 0.12500000E+03 0.0000E+00 0.9000E+01
      -24  1    1    2    0    0 -.90321136E+02 -.90042081E+02 0.28600813E+03 0.32331618E+03 0.80419002E+02 0.0000E+00 0.9000E+01
       -3  1    1    2    0  502 0.27644158E+02 0.12220457E+02 0.14417463E+03 0.14730958E+03 0.50000000E+00 0.0000E+00 0.9000E+01
#aMCatNLO 1  0  0  1  2 0.38481255D+02 0.00000000D+00  -5  6  0 0.00000000D+00 0.00000000D+00 0.00000000D+00 0.00000000D+00 0.00000000D+00
  <mgrwgt>
 0.2028034255D-01   14    4    0
 0.240772926695197D+03 0.000000000000000D+00 0.000000000000000D+00 0.240772926695197D+03
 0.240772926695197D+03 0.000000000000000D+00 0.000000000000000D+00 -.240772926695197D+03
 0.229536823402490D+03 0.626766495701905D+02 0.778214781016617D+02 -.164552752764680D+03
 0.181224033333520D+03 -.903213959625025D+02 -.900421953743935D+02 0.100545426483965D+03
 0.707849966543841D+02 0.276447463923120D+02 0.122207172727318D+02 0.640073262807147D+02
 0.000000000000000D+00 0.000000000000000D+00 0.000000000000000D+00 0.000000000000000D+00
 0.289507175633120D+03 0.000000000000000D+00 0.000000000000000D+00 0.289507175633120D+03
 0.249258372732405D+03 0.000000000000000D+00 0.000000000000000D+00 -.249258372732405D+03
 0.222364719714342D+03 0.494869896632560D+02 0.655324193454866D+02 -.164552752764680D+03
 0.191987622094031D+03 -.101214332451371D+03 -.100191352932930D+03 0.100545426483965D+03
 0.687286202792305D+02 0.235727595009883D+02 0.842676909552802D+01 0.640073262807147D+02
 0.556845862779211D+02 0.281545832871269D+02 0.262321644919155D+02 0.402488029007145D+02
 0.240772926695197D+03 0.000000000000000D+00 0.000000000000000D+00 0.240772926695197D+03
 0.240772926695197D+03 0.000000000000000D+00 0.000000000000000D+00 -.240772926695197D+03
 0.229536823402490D+03 0.626766495701905D+02 0.778214781016617D+02 -.164552752764680D+03
 0.181224033333520D+03 -.903213959625025D+02 -.900421953743935D+02 0.100545426483965D+03
 0.000000000000000D+00 0.000000000000000D+00 0.000000000000000D+00 0.000000000000000D+00
 0.707849966543841D+02 0.276447463923120D+02 0.122207172727318D+02 0.640073262807147D+02
 0.289507175633120D+03 0.000000000000000D+00 0.000000000000000D+00 0.289507175633120D+03
 0.249258372732405D+03 0.000000000000000D+00 0.000000000000000D+00 -.249258372732405D+03
 0.222364719714342D+03 0.494869896632560D+02 0.655324193454866D+02 -.164552752764680D+03
 0.191987622094031D+03 -.101214332451371D+03 -.100191352932930D+03 0.100545426483965D+03
 0.556845862779211D+02 0.281545832871269D+02 0.262321644919155D+02 0.402488029007145D+02
 0.687286202792305D+02 0.235727595009883D+02 0.842676909552802D+01 0.640073262807147D+02
0.157391996839D-04 0.000000000000D+00 0.000000000000D+00 0.505734710452D-06 0.000000000000D+00  6 21 -4 25 -24 -3 21 2 0.80102805D-01 0.17129349D-01 0.29075224D+05 0.29075224D+05 0.29075224D+05 0.12163282D+01  1  2  2  1  6  1       21 0.399633771187D-02 0.100000000000D+01
0.133724039212D-05 0.830580386226D-06 -.317729094973D-07 0.505734710452D-06 0.000000000000D+00  6 21 -4 25 -24 -3 21 4 0.80102805D-01 0.17129349D-01 0.29075224D+05 0.29075224D+05 0.29075224D+05 0.12163282D+01  1  2  3  1  6  1       21 0.502331663607D-03 0.100000000000D+01
0.149577300081D-05 0.000000000000D+00 0.000000000000D+00 0.505734710452D-06 0.000000000000D+00  6 21 -4 25 -24 -3 21 4 0.80102805D-01 0.17129349D-01 0.29075224D+05 0.29075224D+05 0.29075224D+05 0.12163282D+01  1  2 15  1  6  1       21 0.561884119195D-03 0.100000000000D+01
-.166291757019D-05 0.000000000000D+00 0.000000000000D+00 0.505734710452D-06 0.000000000000D+00  6 21 -4 25 -24 -3 21 4 0.80102805D-01 0.17129349D-01 0.29075224D+05 0.29075224D+05 0.29075224D+05 0.12163282D+01  1  2  4  1  6  1       21 -.624671640490D-03 0.100000000000D+01
-.133965248761D-03 0.000000000000D+00 -.276434793875D-04 0.505734710452D-06 0.000000000000D+00  6 21 -4 25 -24 -3 21 4 0.98460554D-01 0.17129349D-01 0.29075224D+05 0.29075224D+05 0.29075224D+05 0.12163282D+01  1  2  5  1  6  1       21 -.313053729577D-01 0.100000000000D+01
0.130972691343D-03 0.000000000000D+00 0.254243171335D-04 0.505734710452D-06 0.000000000000D+00  6 21 -4 25 -24 -3 21 4 0.80102805D-01 0.17129349D-01 0.29075224D+05 0.29075224D+05 0.29075224D+05 0.12163282D+01  1  2  6  1  6  1       21 0.491996280679D-01 0.100000000000D+01
-.587497757977D-05 0.000000000000D+00 -.164688716181D-05 0.505734710452D-06 0.000000000000D+00  6 -3 -4 25 -24 -3 -3 4 0.98460554D-01 0.17129349D-01 0.29075224D+05 0.29075224D+05 0.29075224D+05 0.12163282D+01  1  2  5  4  6  1       21 -.737326439853D-04 0.100000000000D+01
-.587497757977D-05 0.000000000000D+00 -.164688716181D-05 0.505734710452D-06 0.000000000000D+00  6 3 -4 25 -24 3 -3 4 0.98460554D-01 0.17129349D-01 0.29075224D+05 0.29075224D+05 0.29075224D+05 0.12163282D+01  3  4  5  5  5  1       21 -.738732046956D-04 0.100000000000D+01
-.587497757977D-05 0.000000000000D+00 -.164688716181D-05 0.505734710452D-06 0.000000000000D+00  6 -4 -4 25 -24 -3 -4 4 0.98460554D-01 0.17129349D-01 0.29075224D+05 0.29075224D+05 0.29075224D+05 0.12163282D+01  1  2  5  6  6  1       21 -.591599519320D-04 0.100000000000D+01
-.587497757977D-05 0.000000000000D+00 -.164688716181D-05 0.505734710452D-06 0.000000000000D+00  6 4 -4 25 -24 4 -3 4 0.98460554D-01 0.17129349D-01 0.29075224D+05 0.29075224D+05 0.29075224D+05 0.12163282D+01  3  4  5  7  5  1       21 -.591599519320D-04 0.100000000000D+01
-.587497757977D-05 0.000000000000D+00 -.164688716181D-05 0.505734710452D-06 0.000000000000D+00  6 -1 -4 25 -24 -3 -1 4 0.98460554D-01 0.17129349D-01 0.29075224D+05 0.29075224D+05 0.29075224D+05 0.12163282D+01  1  2  5  8  6  1       21 -.156678966577D-03 0.100000000000D+01
-.587497757977D-05 0.000000000000D+00 -.164688716181D-05 0.505734710452D-06 0.000000000000D+00  6 -2 -4 25 -24 -3 -2 4 0.98460554D-01 0.17129349D-01 0.29075224D+05 0.29075224D+05 0.29075224D+05 0.12163282D+01  1  2  5  8  6  1       21 -.116642886372D-03 0.100000000000D+01
-.587497757977D-05 0.000000000000D+00 -.164688716181D-05 0.505734710452D-06 0.000000000000D+00  6 1 -4 25 -24 1 -3 4 0.98460554D-01 0.17129349D-01 0.29075224D+05 0.29075224D+05 0.29075224D+05 0.12163282D+01  3  4  5  9  5  1       21 -.570663039857D-03 0.100000000000D+01
-.587497757977D-05 0.000000000000D+00 -.164688716181D-05 0.505734710452D-06 0.000000000000D+00  6 2 -4 25 -24 2 -3 4 0.98460554D-01 0.17129349D-01 0.29075224D+05 0.29075224D+05 0.29075224D+05 0.12163282D+01  3  4  5  9  5  1       21 -.939883765231D-03 0.100000000000D+01
  </mgrwgt>
  </event>
  <event>
  5     66 -.41051716E-03 0.25757467E+02 0.75467711E-02 0.11043452E+00
       21 -1    0    0  501  502 0.00000000E+00 0.00000000E+00 0.18751800E+03 0.18751950E+03 0.75000000E+00 0.0000E+00 0.9000E+01
       -4 -1    0    0    0  501 0.00000000E+00 0.00000000E+00 -.10706311E+03 0.10707433E+03 0.15500000E+01 0.0000E+00 0.9000E+01
       25  1    1    2    0    0 0.65764290E+02 -.70093451E+01 0.25065766E+02 0.14362230E+03 0.12500000E+03 0.0000E+00 0.9000E+01
      -24  1    1    2    0    0 -.54874543E+02 -.16331096E+02 0.10576754E+02 0.99282445E+02 0.80419002E+02 0.0000E+00 0.9000E+01
       -3  1    1    2    0  502 -.10889747E+02 0.23340441E+02 0.44812375E+02 0.51689087E+02 0.50000000E+00 0.0000E+00 0.9000E+01
#aMCatNLO 1  0  0  1  2 0.23227430D+02 0.00000000D+00  -5  6  0 0.00000000D+00 0.00000000D+00 0.00000000D+00 0.00000000D+00 0.00000000D+00
  <mgrwgt>
 -.9878580186D-02   12    4    0
 0.141697332633583D+03 0.000000000000000D+00 0.000000000000000D+00 0.141697332633583D+03
 0.141697332633583D+03 0.000000000000000D+00 0.000000000000000D+00 -.141697332633583D+03
 0.142182214002429D+03 0.657646962417533D+02 -.701021552744542D+01 -.147188173818790D+02
 0.100203258733025D+03 -.548742565010425D+02 -.163317092214759D+02 -.171921014919609D+02
 0.410091925317136D+02 -.108904397407108D+02 0.233419247489213D+02 0.319109188738399D+02
 0.000000000000000D+00 -.000000000000000D+00 -.000000000000000D+00 0.000000000000000D+00
 0.125638619797472D+04 0.000000000000000D+00 0.000000000000000D+00 0.125638619797472D+04
 0.182094273211026D+03 0.000000000000000D+00 0.000000000000000D+00 -.182094273211026D+03
 0.217430970256854D+03 0.176373447438880D+03 0.180828725660623D+02 -.147188173818790D+02
 0.823244550491939D+02 0.126707358367769D+01 -.359529075317674D+01 -.171921014919609D+02
 0.462469996874708D+02 0.159475597488234D+02 0.294304871651462D+02 0.319109188738399D+02
 0.109247804619223D+04 -.193588080771381D+03 -.439180689780318D+02 0.107429192476369D+04
 0.141697332633583D+03 0.000000000000000D+00 0.000000000000000D+00 0.141697332633583D+03
 0.141697332633583D+03 0.000000000000000D+00 0.000000000000000D+00 -.141697332633583D+03
 0.142182214002429D+03 0.657646962417533D+02 -.701021552744542D+01 -.147188173818790D+02
 0.100203258733025D+03 -.548742565010425D+02 -.163317092214759D+02 -.171921014919609D+02
 0.000000000000000D+00 -.000000000000000D+00 -.000000000000000D+00 0.000000000000000D+00
 0.410091925317136D+02 -.108904397407108D+02 0.233419247489213D+02 0.319109188738399D+02
 0.125638619797472D+04 0.000000000000000D+00 0.000000000000000D+00 0.125638619797472D+04
 0.182094273211026D+03 0.000000000000000D+00 0.000000000000000D+00 -.182094273211026D+03
 0.217430970256854D+03 0.176373447438880D+03 0.180828725660623D+02 -.147188173818790D+02
 0.823244550491939D+02 0.126707358367769D+01 -.359529075317674D+01 -.171921014919609D+02
 0.109247804619223D+04 -.193588080771381D+03 -.439180689780318D+02 0.107429192476369D+04
 0.462469996874708D+02 0.159475597488234D+02 0.294304871651462D+02 0.319109188738399D+02
0.101856617200D-05 0.000000000000D+00 0.000000000000D+00 0.148534896246D-05 0.000000000000D+00  6 21 -4 25 -24 -3 21 2 0.28849902D-01 0.16472226D-01 0.17674795D+05 0.17674795D+05 0.17674795D+05 0.12397794D+01  1  2  2  1  6  1       21 0.235065576909D-02 0.100000000000D+01
0.741949903542D-07 0.537512136277D-07 -.205619163935D-08 0.148534896246D-05 0.000000000000D+00  6 21 -4 25 -24 -3 21 4 0.28849902D-01 0.16472226D-01 0.17674795D+05 0.17674795D+05 0.17674795D+05 0.12397794D+01  1  2  3  1  6  1       21 0.263186249614D-03 0.100000000000D+01
0.956027768781D-07 0.000000000000D+00 0.000000000000D+00 0.148534896246D-05 0.000000000000D+00  6 21 -4 25 -24 -3 21 4 0.28849902D-01 0.16472226D-01 0.17674795D+05 0.17674795D+05 0.17674795D+05 0.12397794D+01  1  2 15  1  6  1       21 0.339124463514D-03 0.100000000000D+01
-.309261968280D-03 0.000000000000D+00 -.278185287036D-04 0.148534896246D-05 0.000000000000D+00  6 21 -4 25 -24 -3 21 4 0.27904995D+00 0.16472226D-01 0.17674795D+05 0.17674795D+05 0.17674795D+05 0.12397794D+01  1  2  5  1  6  1       21 -.464168557534D-02 0.100000000000D+01
-.136014943119D-03 0.000000000000D+00 -.121461665495D-04 0.148534896246D-05 0.000000000000D+00  6 -3 -4 25 -24 -3 -3 4 0.27904995D+00 0.16472226D-01 0.17674795D+05 0.17674795D+05 0.17674795D+05 0.12397794D+01  1  2  5  4  6  1       21 -.121797291079D-03 0.100000000000D+01
-.136014943119D-03 0.000000000000D+00 -.121461665495D-04 0.148534896246D-05 0.000000000000D+00  6 3 -4 25 -24 3 -3 4 0.27904995D+00 0.16472226D-01 0.17674795D+05 0.17674795D+05 0.17674795D+05 0.12397794D+01  3  4  5  5  5  1       21 -.123378022883D-03 0.100000000000D+01
-.136014943119D-03 0.000000000000D+00 -.121461665495D-04 0.148534896246D-05 0.000000000000D+00  6 -4 -4 25 -24 -3 -4 4 0.27904995D+00 0.16472226D-01 0.17674795D+05 0.17674795D+05 0.17674795D+05 0.12397794D+01  1  2  5  6  6  1       21 -.880276328936D-04 0.100000000000D+01
-.136014943119D-03 0.000000000000D+00 -.121461665495D-04 0.148534896246D-05 0.000000000000D+00  6 4 -4 25 -24 4 -3 4 0.27904995D+00 0.16472226D-01 0.17674795D+05 0.17674795D+05 0.17674795D+05 0.12397794D+01  3  4  5  7  5  1       21 -.880276328936D-04 0.100000000000D+01
-.136014943119D-03 0.000000000000D+00 -.121461665495D-04 0.148534896246D-05 0.000000000000D+00  6 -1 -4 25 -24 -3 -1 4 0.27904995D+00 0.16472226D-01 0.17674795D+05 0.17674795D+05 0.17674795D+05 0.12397794D+01  1  2  5  8  6  1       21 -.217553862857D-03 0.100000000000D+01
-.136014943119D-03 0.000000000000D+00 -.121461665495D-04 0.148534896246D-05 0.000000000000D+00  6 -2 -4 25 -24 -3 -2 4 0.27904995D+00 0.16472226D-01 0.17674795D+05 0.17674795D+05 0.17674795D+05 0.12397794D+01  1  2  5  8  6  1       21 -.175776742195D-03 0.100000000000D+01
-.136014943119D-03 0.000000000000D+00 -.121461665495D-04 0.148534896246D-05 0.000000000000D+00  6 1 -4 25 -24 1 -3 4 0.27904995D+00 0.16472226D-01 0.17674795D+05 0.17674795D+05 0.17674795D+05 0.12397794D+01  3  4  5  9  5  1       21 -.219914602478D-02 0.100000000000D+01
-.136014943119D-03 0.000000000000D+00 -.121461665495D-04 0.148534896246D-05 0.000000000000D+00  6 2 -4 25 -24 2 -3 4 0.27904995D+00 0.16472226D-01 0.17674795D+05 0.17674795D+05 0.17674795D+05 0.12397794D+01  3  4  5  9  5  1       21 -.517615388369D-02 0.100000000000D+01
  </mgrwgt>
  </event>
  <event>
  5     66 0.41051716E-03 0.23713483E+02 0.75467711E-02 0.10135887E+00
       21 -1    0    0  501  502 0.00000000E+00 0.00000000E+00 0.75132088E+03 0.75132125E+03 0.75000000E+00 0.0000E+00 0.9000E+01
       -4 -1    0    0    0  501 0.00000000E+00 0.00000000E+00 -.17200851E+03 0.17201550E+03 0.15500000E+01 0.0000E+00 0.9000E+01
       25  1    1    2    0    0 0.27173243E+03 -.15407562E+03 0.36477711E+03 0.49625110E+03 0.12500000E+03 0.0000E+00 0.9000E+01
      -24  1    1    2    0    0 -.27121949E+03 0.13036900E+03 0.12697783E+03 0.33637282E+03 0.80419002E+02 0.0000E+00 0.9000E+01
       -3  1    1    2    0  502 -.51294259E+00 0.23706620E+02 0.87557416E+02 0.90712833E+02 0.50000000E+00 0.0000E+00 0.9000E+01
#aMCatNLO 1  0  0  2  1 0.37209349D+01 0.00000000D+00  -5  6  0 0.00000000D+00 0.00000000D+00 0.00000000D+00 0.00000000D+00 0.00000000D+00
  <mgrwgt>
 0.1554377150D+00    3    2    0
 0.359495457795501D+03 0.000000000000000D+00 0.000000000000000D+00 0.359495457795501D+03
 0.359495457795501D+03 0.000000000000000D+00 0.000000000000000D+00 -.359495457795501D+03
 0.343379927170756D+03 0.271732442751293D+03 -.154076292102477D+03 0.686057588848123D+02
 0.329664269318753D+03 -.271219471728407D+03 0.130368357966986D+03 -.107960195940226D+03
 0.459467191014945D+02 -.512971022885565D+00 0.237079341354910D+02 0.393544370554139D+02
 0.000000000000000D+00 0.000000000000000D+00 -.000000000000000D+00 0.000000000000000D+00
 0.684126645426780D+03 0.000000000000000D+00 0.000000000000000D+00 0.684126645426780D+03
 0.445341881668405D+03 0.000000000000000D+00 0.000000000000000D+00 -.445341881668405D+03
 0.300178016283953D+03 0.261503105940281D+03 -.372990199816832D+02 0.686057588848123D+02
 0.410144480157251D+03 -.282978712603437D+03 0.264610889713444D+03 -.107960195940226D+03
 0.580162776641600D+02 -.216546015865645D+01 0.425726149109688D+02 0.393544370554139D+02
 0.361129752989821D+03 0.236410668218127D+02 -.269884484642730D+03 0.238784763758376D+03
0.252760517856D-02 0.000000000000D+00 0.000000000000D+00 0.472993966024D-06 0.000000000000D+00  6 21 -4 25 -24 -3 21 2 0.11558839D+00 0.26463414D-01 0.11278025D+06 0.11278025D+06 0.11278025D+06 0.11588037D+01  1  2  2  2  6  2       -4 0.108715715753D+00 0.100000000000D+01
0.564196389443D-03 0.133385389829D-03 -.510250662018D-05 0.472993966024D-06 0.000000000000D+00  6 21 -4 25 -24 -3 21 4 0.11558839D+00 0.26463414D-01 0.11278025D+06 0.11278025D+06 0.11278025D+06 0.11588037D+01  1  2  3  2  6  2       -4 0.325861565962D-01 0.100000000000D+01
0.244747839064D-03 0.000000000000D+00 0.000000000000D+00 0.472993966024D-06 0.000000000000D+00  6 21 -4 25 -24 -3 21 4 0.11558839D+00 0.26463414D-01 0.11278025D+06 0.11278025D+06 0.11278025D+06 0.11588037D+01  1  2 15  2  6  2       -4 0.141358426952D-01 0.100000000000D+01
  </mgrwgt>
  </event>
  <event>
  6     66 0.41051716E-03 0.43149236E+02 0.75467711E-02 0.11518049E+00
       21 -1    0    0  501  503 0.00000000E+00 0.00000000E+00 0.13475608E+03 0.13475816E+03 0.75000000E+00 0.0000E+00 0.9000E+01
       -2 -1    0    0    0  501 0.00000000E+00 0.00000000E+00 -.69659919E+03 0.69659926E+03 0.32000000E+00 0.0000E+00 0.9000E+01
       25  1    1    2    0    0 -.10804664E+03 0.64798595E+02 -.41982464E+03 0.45579674E+03 0.12500000E+03 0.0000E+00 0.9000E+01
      -24  1    1    2    0    0 0.10814129E+03 -.10720606E+03 -.21327966E+03 0.27412243E+03 0.80419002E+02 0.0000E+00 0.9000E+01
       -1  1    1    2    0  502 -.24279748E+00 -.15117190E+01 -.94337306E+01 0.95625267E+01 0.32000000E+00 0.0000E+00 0.9000E+01
       21  1    1    2  502  503 0.14814485E+00 0.43919183E+02 0.80694924E+02 0.91875730E+02 0.75000000E+00 0.0000E+00 0.9000E+01
#aMCatNLO 2  0  0  1  5 0.39193707D+02 0.00000000D+00  -5  6  0 0.00000000D+00 0.00000000D+00 0.00000000D+00 0.00000000D+00 0.00000000D+00
  <mgrwgt>
 0.3267592421D-01    1    2    0
 0.181692826393532D+03 0.000000000000000D+00 0.000000000000000D+00 0.181692826393532D+03
 0.181692826393532D+03 0.000000000000000D+00 0.000000000000000D+00 -.181692826393532D+03
 0.192989721891861D+03 -.107969110540302D+03 0.874944441882325D+02 -.480356759214050D+02
 0.167800060312601D+03 0.108212664776409D+03 -.862960679939492D+02 0.503254619185372D+02
 0.259587058260107D+01 -.243554236107137D+00 -.119837619428330D+01 -.228978599713225D+01
 0.000000000000000D+00 0.000000000000000D+00 0.000000000000000D+00 0.000000000000000D+00
 0.508801348522597D+03 0.000000000000000D+00 0.000000000000000D+00 0.508801348522597D+03
 0.184495261204555D+03 0.000000000000000D+00 0.000000000000000D+00 -.184495261204555D+03
 0.183863510398037D+03 -.108045649695182D+03 0.648035637647249D+02 -.480356759214050D+02
 0.179406912416188D+03 0.108142146797568D+03 -.107201904073754D+03 0.503254619185372D+02
 0.275969785724904D+01 -.244641955800548D+00 -.152084274798681D+01 -.228978599713225D+01
 0.327266489055679D+03 0.148144853414911D+00 0.439191830570154D+02 0.324306087318042D+03
0.120822347698D-03 0.000000000000D+00 0.000000000000D+00 0.174879913110D-05 0.173735207093D-07  6 21 -2 25 -24 -1 21 4 0.20731822D-01 0.10716902D+00 0.39034206D+05 0.39034206D+05 0.39034206D+05 0.12030797D+01  1  2  1  1  6  1       21 0.326759242081D-01 0.100000000000D+01
  </mgrwgt>
  </event>
  <event>
  5     66 -.41051716E-03 0.69215292E+02 0.75467711E-02 0.11487663E+00
       21 -1    0    0  501  502 0.00000000E+00 0.00000000E+00 0.80802367E+02 0.80805848E+02 0.75000000E+00 0.0000E+00 0.9000E+01
       -4 -1    0    0    0  501 0.00000000E+00 0.00000000E+00 -.52637480E+03 0.52637708E+03 0.15500000E+01 0.0000E+00 0.9000E+01
       25  1    1    2    0    0 0.37464242E+01 -.39911092E+02 -.19825691E+03 0.23777664E+03 0.12500000E+03 0.0000E+00 0.9000E+01
      -24  1    1    2    0    0 0.32423840E+02 -.19101050E+02 -.27936098E+03 0.29313125E+03 0.80419002E+02 0.0000E+00 0.9000E+01
       -3  1    1    2    0  502 -.36170264E+02 0.59012142E+02 0.32045452E+02 0.76275041E+02 0.50000000E+00 0.0000E+00 0.9000E+01
#aMCatNLO 1  0  0  1  5 0.39193707D+02 0.00000000D+00  -5  6  0 0.00000000D+00 0.00000000D+00 0.00000000D+00 0.00000000D+00 0.00000000D+00
  <mgrwgt>
 -.4920587823D-01   12    4    0
 0.206237919997778D+03 0.000000000000000D+00 0.000000000000000D+00 0.206237919997778D+03
 0.206237919997778D+03 0.000000000000000D+00 0.000000000000000D+00 -.206237919997778D+03
 0.135853162772879D+03 0.374649324927364D+01 -.399112046389138D+02 -.349877316783790D+02
 0.129725956943858D+03 0.324239056825773D+02 -.191011572737274D+02 -.945803578007656D+02
 0.146896720278818D+03 -.361703989318509D+02 0.590123619126412D+02 0.129568089479145D+03
 0.000000000000000D+00 -.000000000000000D+00 -.000000000000000D+00 0.000000000000000D+00
 0.923242039641457D+03 0.000000000000000D+00 0.000000000000000D+00 0.923242039641457D+03
 0.214341759456257D+03 0.000000000000000D+00 0.000000000000000D+00 -.214341759456257D+03
 0.132563859198824D+03 0.215293198828089D+02 -.161407491483810D+02 -.349877316783790D+02
 0.133863189436242D+03 0.498868819801573D+02 0.424175155444764D+01 -.945803578007656D+02
 0.156264278397611D+03 -.160857580923415D+02 0.858596720145439D+02 0.129568089479145D+03
 0.714892472065038D+03 -.553304437706246D+02 -.739606744206105D+02 0.708900280185200D+03
 0.206237919997778D+03 0.000000000000000D+00 0.000000000000000D+00 0.206237919997778D+03
 0.206237919997778D+03 0.000000000000000D+00 0.000000000000000D+00 -.206237919997778D+03
 0.135853162772879D+03 0.374649324927364D+01 -.399112046389138D+02 -.349877316783790D+02
 0.129725956943858D+03 0.324239056825773D+02 -.191011572737274D+02 -.945803578007656D+02
 0.000000000000000D+00 -.000000000000000D+00 -.000000000000000D+00 0.000000000000000D+00
 0.146896720278818D+03 -.361703989318509D+02 0.590123619126412D+02 0.129568089479145D+03
 0.923242039641457D+03 0.000000000000000D+00 0.000000000000000D+00 0.923242039641457D+03
 0.214341759456257D+03 0.000000000000000D+00 0.000000000000000D+00 -.214341759456257D+03
 0.132563859198824D+03 0.215293198828089D+02 -.161407491483810D+02 -.349877316783790D+02
 0.133863189436242D+03 0.498868819801573D+02 0.424175155444764D+01 -.945803578007656D+02
 0.714892472065038D+03 -.553304437706246D+02 -.739606744206105D+02 0.708900280185200D+03
 0.156264278397611D+03 -.160857580923415D+02 0.858596720145439D+02 0.129568089479145D+03
0.435508166673D-05 0.000000000000D+00 0.000000000000D+00 0.126032690393D-05 0.000000000000D+00  6 21 -4 25 -24 -3 21 2 0.12431577D-01 0.80981182D-01 0.20919887D+05 0.20919887D+05 0.20919887D+05 0.12316818D+01  1  2  2  1  6  1       21 0.208644205007D-02 0.100000000000D+01
0.620547032974D-07 0.229823973610D-06 -.879165513047D-08 0.126032690393D-05 0.000000000000D+00  6 21 -4 25 -24 -3 21 4 0.12431577D-01 0.80981182D-01 0.20919887D+05 0.20919887D+05 0.20919887D+05 0.12316818D+01  1  2  3  1  6  1       21 0.451005443557D-04 0.100000000000D+01
0.445035077539D-06 0.000000000000D+00 0.000000000000D+00 0.126032690393D-05 0.000000000000D+00  6 21 -4 25 -24 -3 21 4 0.12431577D-01 0.80981182D-01 0.20919887D+05 0.20919887D+05 0.20919887D+05 0.12316818D+01  1  2 15  1  6  1       21 0.323445656620D-03 0.100000000000D+01
-.925762472654D-03 0.000000000000D+00 -.256519355743D-04 0.126032690393D-05 0.000000000000D+00  6 21 -4 25 -24 -3 21 4 0.56567358D-01 0.80981182D-01 0.20919887D+05 0.20919887D+05 0.20919887D+05 0.12316818D+01  1  2  5  1  6  1       21 -.366688115797D-01 0.100000000000D+01
-.386054137495D-03 0.000000000000D+00 -.104233553961D-04 0.126032690393D-05 0.000000000000D+00  6 -3 -4 25 -24 -3 -3 4 0.56567358D-01 0.80981182D-01 0.20919887D+05 0.20919887D+05 0.20919887D+05 0.12316818D+01  1  2  5  4  6  1       21 -.776746248571D-03 0.100000000000D+01
-.386054137495D-03 0.000000000000D+00 -.104233553961D-04 0.126032690393D-05 0.000000000000D+00  6 3 -4 25 -24 3 -3 4 0.56567358D-01 0.80981182D-01 0.20919887D+05 0.20919887D+05 0.20919887D+05 0.12316818D+01  3  4  5  5  5  1       21 -.777196697647D-03 0.100000000000D+01
-.386054137495D-03 0.000000000000D+00 -.104233553961D-04 0.126032690393D-05 0.000000000000D+00  6 -4 -4 25 -24 -3 -4 4 0.56567358D-01 0.80981182D-01 0.20919887D+05 0.20919887D+05 0.20919887D+05 0.12316818D+01  1  2  5  6  6  1       21 -.635155748957D-03 0.100000000000D+01
-.386054137495D-03 0.000000000000D+00 -.104233553961D-04 0.126032690393D-05 0.000000000000D+00  6 4 -4 25 -24 4 -3 4 0.56567358D-01 0.80981182D-01 0.20919887D+05 0.20919887D+05 0.20919887D+05 0.12316818D+01  3  4  5  7  5  1       21 -.635155748957D-03 0.100000000000D+01
-.386054137495D-03 0.000000000000D+00 -.104233553961D-04 0.126032690393D-05 0.000000000000D+00  6 -1 -4 25 -24 -3 -1 4 0.56567358D-01 0.80981182D-01 0.20919887D+05 0.20919887D+05 0.20919887D+05 0.12316818D+01  1  2  5  8  6  1       21 -.154851780887D-02 0.100000000000D+01
-.386054137495D-03 0.000000000000D+00 -.104233553961D-04 0.126032690393D-05 0.000000000000D+00  6 -2 -4 25 -24 -3 -2 4 0.56567358D-01 0.80981182D-01 0.20919887D+05 0.20919887D+05 0.20919887D+05 0.12316818D+01  1  2  5  8  6  1       21 -.124356370685D-02 0.100000000000D+01
-.386054137495D-03 0.000000000000D+00 -.104233553961D-04 0.126032690393D-05 0.000000000000D+00  6 1 -4 25 -24 1 -3 4 0.56567358D-01 0.80981182D-01 0.20919887D+05 0.20919887D+05 0.20919887D+05 0.12316818D+01  3  4  5  9  5  1       21 -.380061480020D-02 0.100000000000D+01
-.386054137495D-03 0.000000000000D+00 -.104233553961D-04 0.126032690393D-05 0.000000000000D+00  6 2 -4 25 -24 2 -3 4 0.56567358D-01 0.80981182D-01 0.20919887D+05 0.20919887D+05 0.20919887D+05 0.12316818D+01  3  4  5  9  5  1       21 -.557510414317D-02 0.100000000000D+01
  </mgrwgt>
  </event>
  <event>
  6     66 -.41051716E-03 0.33012934E+02 0.75467711E-02 0.12065362E+00
       21 -1    0    0  501  503 0.00000000E+00 0.00000000E+00 0.65706563E+02 0.65710843E+02 0.75000000E+00 0.0000E+00 0.9000E+01
       -4 -1    0    0    0  501 0.00000000E+00 0.00000000E+00 -.92931212E+03 0.92931341E+03 0.15500000E+01 0.0000E+00 0.9000E+01
       25  1    1    2    0    0 -.53733238E+02 -.71400791E+01 -.82320769E+03 0.83440646E+03 0.12500000E+03 0.0000E+00 0.9000E+01
      -24  1    1    2    0    0 0.76162586E+02 -.13267978E+02 -.38211577E+02 0.11791573E+03 0.80419002E+02 0.0000E+00 0.9000E+01
       -3  1    1    2    0  502 -.24899684E+02 0.26260220E+02 -.10595364E+01 0.36207265E+02 0.50000000E+00 0.0000E+00 0.9000E+01
       21  1    1    2  502  503 0.24703367E+01 -.58521630E+01 -.11267564E+01 0.64948022E+01 0.75000000E+00 0.0000E+00 0.9000E+01
#aMCatNLO 2  0  0  1  2 0.63521945D+01 0.00000000D+00  -5  6  0 0.00000000D+00 0.00000000D+00 0.00000000D+00 0.00000000D+00 0.00000000D+00
  <mgrwgt>
 -.1194198893D-01    3    2    0
 0.241495573190713D+03 0.000000000000000D+00 0.000000000000000D+00 0.241495573190713D+03
 0.241495573190713D+03 0.000000000000000D+00 0.000000000000000D+00 -.241495573190713D+03
 0.237572672074594D+03 -.525174675961758D+02 -.100198168310001D+02 -.194826315944793D+03
 0.173651515539746D+03 0.770494860883662D+02 -.153687366875912D+02 0.132343536000163D+03
 0.717669587670860D+02 -.245320184921904D+02 0.253885535185914D+02 0.624827799446302D+02
 0.000000000000000D+00 0.000000000000000D+00 -.000000000000000D+00 0.000000000000000D+00
 0.251788862960276D+03 0.000000000000000D+00 0.000000000000000D+00 0.251788862960276D+03
 0.242498466921857D+03 0.000000000000000D+00 0.000000000000000D+00 -.242498466921857D+03
 0.237740421582940D+03 -.537329480744335D+02 -.714037541339391D+01 -.194826315944793D+03
 0.173086235645936D+03 0.761628011363525D+02 -.132682032599742D+02 0.132343536000163D+03
 0.722062586868212D+02 -.249001897829507D+02 0.262607416634050D+02 0.624827799446302D+02
 0.112544139664358D+02 0.247033672103169D+01 -.585216299003689D+01 0.929039603841893D+01
-.729882027350D-04 0.000000000000D+00 0.000000000000D+00 0.265277800141D-06 0.000000000000D+00  6 21 -4 25 -24 -3 21 4 0.10128249D-01 0.14237294D+00 0.21074466D+05 0.21074466D+05 0.21074466D+05 0.12313319D+01  1  2 13  1  6  1       21 -.201718583963D-01 0.100000000000D+01
-.622122468830D-04 0.000000000000D+00 0.000000000000D+00 0.266230689774D-06 0.000000000000D+00  6 21 -4 25 -24 -3 21 4 0.96953656D-02 0.14237294D+00 0.20119473D+05 0.20119473D+05 0.20119473D+05 0.12335414D+01  1  2  8  1  6  1       21 -.186805265407D-01 0.100000000000D+01
0.980574003165D-04 0.000000000000D+00 0.000000000000D+00 0.266230689774D-06 0.697190245003D-07  6 21 -4 25 -24 -3 21 4 0.10108612D-01 0.14296419D+00 0.21074466D+05 0.21074466D+05 0.21074466D+05 0.12313319D+01  1  2  1  1  6  1       21 0.269103960040D-01 0.100000000000D+01
  </mgrwgt>
  </event>
  <event>
  5     66 0.41051716E-03 0.24822564E+03 0.75467711E-02 0.10139809E+00
       21 -1    0    0  501  502 0.00000000E+00 0.00000000E+00 0.51137955E+03 0.51138010E+03 0.75000000E+00 0.0000E+00 0.9000E+01
       -4 -1    0    0    0  501 0.00000000E+00 0.00000000E+00 -.76830995E+03 0.76831152E+03 0.15500000E+01 0.0000E+00 0.9000E+01
       25  1    1    2    0    0 0.14311049E+03 -.15009176E+03 -.59801412E+03 0.64517753E+03 0.12500000E+03 0.0000E+00 0.9000E+01
      -24  1    1    2    0    0 -.17651431E+02 -.64095011E+02 -.89524628E+02 0.13748316E+03 0.80419002E+02 0.0000E+00 0.9000E+01
       -3  1    1    2    0  502 -.12545906E+03 0.21418677E+03 0.43060835E+03 0.49703093E+03 0.50000000E+00 0.0000E+00 0.9000E+01
#aMCatNLO 1  0  0  2  1 0.36683529D+03 0.00000000D+00  -5  6  0 0.00000000D+00 0.00000000D+00 0.00000000D+00 0.00000000D+00 0.00000000D+00
  <mgrwgt>
 0.6408367863D-02    4    2    0
 0.626816839928858D+03 0.000000000000000D+00 0.000000000000000D+00 0.626816839928858D+03
 0.626816839928858D+03 0.000000000000000D+00 0.000000000000000D+00 -.626816839928858D+03
 0.536026099620842D+03 0.143110505704429D+03 -.150091790927870D+03 -.478216286765539D+03
 0.121992941903978D+03 -.176514264089767D+02 -.640950179364204D+02 -.632085258606407D+02
 0.595614638332895D+03 -.125459079295452D+03 0.214186808864290D+03 0.541424812626180D+03
 0.000000000000000D+00 -.000000000000000D+00 0.000000000000000D+00 0.000000000000000D+00
 0.100663738755190D+04 0.000000000000000D+00 0.000000000000000D+00 0.100663738755190D+04
 0.748260064937218D+03 0.000000000000000D+00 0.000000000000000D+00 -.748260064937218D+03
 0.602819921089424D+03 0.144665310138730D+03 -.313285793448895D+03 -.478216286765539D+03
 0.145813784116399D+03 -.172858044745097D+02 -.102471102785942D+03 -.632085258606407D+02
 0.557569008999008D+03 -.123884700480556D+03 0.489382575873429D+02 0.541424812626180D+03
 0.448694738284284D+03 -.349480518366413D+01 0.366818638647494D+03 0.258377322614678D+03
0.140002463240D-02 0.000000000000D+00 0.000000000000D+00 0.657871785543D-06 0.000000000000D+00  6 21 -4 25 -24 -3 21 2 0.78673940D-01 0.11820169D+00 0.88419727D+05 0.88419727D+05 0.88419727D+05 0.11685139D+01  1  2  2  2  6  2       -4 0.637947305364D-02 0.100000000000D+01
0.822829816861D-06 0.738813296266D-04 -.282624636784D-05 0.657871785543D-06 0.000000000000D+00  6 21 -4 25 -24 -3 21 4 0.78673940D-01 0.11820169D+00 0.88419727D+05 0.88419727D+05 0.88419727D+05 0.11685139D+01  1  2  3  2  6  2       -4 0.511949290655D-05 0.100000000000D+01
0.138688185677D-03 0.000000000000D+00 0.000000000000D+00 0.657871785543D-06 0.000000000000D+00  6 21 -4 25 -24 -3 21 4 0.78673940D-01 0.11820169D+00 0.88419727D+05 0.88419727D+05 0.88419727D+05 0.11685139D+01  1  2 15  2  6  2       -4 0.862891898476D-03 0.100000000000D+01
-.134866901116D-03 0.000000000000D+00 0.000000000000D+00 0.657871785543D-06 0.000000000000D+00  6 21 -4 25 -24 -3 21 4 0.78673940D-01 0.11820169D+00 0.88419727D+05 0.88419727D+05 0.88419727D+05 0.11685139D+01  1  2  4  2  6  2       -4 -.839116582123D-03 0.100000000000D+01
  </mgrwgt>
  </event>
  <event>
  5     66 0.41051716E-03 0.22607858E+02 0.75467711E-02 0.12001852E+00
       21 -1    0    0  501  502 0.00000000E+00 0.00000000E+00 0.10644768E+04 0.10644770E+04 0.75000000E+00 0.0000E+00 0.9000E+01
       -4 -1    0    0    0  501 0.00000000E+00 0.00000000E+00 -.26265430E+02 0.26311125E+02 0.15500000E+01 0.0000E+00 0.9000E+01
       25  1    1    2    0    0 0.76237918E+01 0.27218926E+02 0.21476970E+03 0.25010002E+03 0.12500000E+03 0.0000E+00 0.9000E+01
      -24  1    1    2    0    0 -.15981004E+02 -.48225131E+02 0.26102466E+03 0.27781674E+03 0.80419002E+02 0.0000E+00 0.9000E+01
       -3  1    1    2    0  502 0.83572119E+01 0.21006206E+02 0.56241698E+03 0.56287140E+03 0.50000000E+00 0.0000E+00 0.9000E+01
#aMCatNLO 1  0  0  1  5 0.70705635D+01 0.00000000D+00  -5  6  0 0.00000000D+00 0.00000000D+00 0.00000000D+00 0.00000000D+00 0.00000000D+00
  <mgrwgt>
 0.3827380088D-01   14    4    0
 0.167284204969284D+03 0.000000000000000D+00 0.000000000000000D+00 0.167284204969284D+03
 0.167284204969284D+03 0.000000000000000D+00 0.000000000000000D+00 -.167284204969284D+03
 0.148937808514463D+03 0.762373420561057D+01 0.272187808344326D+02 -.758846984031697D+02
 0.957666281032355D+02 -.159810406999816D+02 -.482252242516989D+02 -.110889669452013D+02
 0.898639733208703D+02 0.835730649437101D+01 0.210064434172662D+02 0.869736653483710D+02
 0.000000000000000D+00 -.000000000000000D+00 -.000000000000000D+00 0.000000000000000D+00
 0.193015030137638D+03 0.000000000000000D+00 0.000000000000000D+00 0.193015030137638D+03
 0.187660739896249D+03 0.000000000000000D+00 0.000000000000000D+00 -.187660739896249D+03
 0.153776223344993D+03 0.148920512340906D+02 0.451870138928239D+02 -.758846984031697D+02
 0.900359296689566D+02 -.115198273023226D+02 -.371965195683098D+02 -.110889669452013D+02
 0.935108586041319D+02 0.127602289664088D+02 0.318910452866686D+02 0.869736653483710D+02
 0.433527584158061D+02 -.161324528981767D+02 -.398815396111827D+02 0.535429024138857D+01
 0.167284204969284D+03 0.000000000000000D+00 0.000000000000000D+00 0.167284204969284D+03
 0.167284204969284D+03 0.000000000000000D+00 0.000000000000000D+00 -.167284204969284D+03
 0.148937808514463D+03 0.762373420561057D+01 0.272187808344326D+02 -.758846984031697D+02
 0.957666281032355D+02 -.159810406999816D+02 -.482252242516989D+02 -.110889669452013D+02
 0.000000000000000D+00 -.000000000000000D+00 -.000000000000000D+00 0.000000000000000D+00
 0.898639733208703D+02 0.835730649437101D+01 0.210064434172662D+02 0.869736653483710D+02
 0.193015030137638D+03 0.000000000000000D+00 0.000000000000000D+00 0.193015030137638D+03
 0.187660739896249D+03 0.000000000000000D+00 0.000000000000000D+00 -.187660739896249D+03
 0.153776223344993D+03 0.148920512340906D+02 0.451870138928239D+02 -.758846984031697D+02
 0.900359296689566D+02 -.115198273023226D+02 -.371965195683098D+02 -.110889669452013D+02
 0.433527584158061D+02 -.161324528981767D+02 -.398815396111827D+02 0.535429024138857D+01
 0.935108586041319D+02 0.127602289664088D+02 0.318910452866686D+02 0.869736653483710D+02
0.214031519537D-04 0.000000000000D+00 0.000000000000D+00 0.502709001992D-05 0.000000000000D+00  6 21 -4 25 -24 -3 21 2 0.16376919D+00 0.40443707D-02 0.15115031D+05 0.15115031D+05 0.15115031D+05 0.12474445D+01  1  2  2  1  6  1       21 0.110915182089D-01 0.100000000000D+01
0.383617035936D-05 0.112947535918D-05 -.432067972732D-07 0.502709001992D-05 0.000000000000D+00  6 21 -4 25 -24 -3 21 4 0.16376919D+00 0.40443707D-02 0.15115031D+05 0.15115031D+05 0.15115031D+05 0.12474445D+01  1  2  3  1  6  1       21 0.309352477422D-02 0.100000000000D+01
0.215560652972D-05 0.000000000000D+00 0.000000000000D+00 0.502709001992D-05 0.000000000000D+00  6 21 -4 25 -24 -3 21 4 0.16376919D+00 0.40443707D-02 0.15115031D+05 0.15115031D+05 0.15115031D+05 0.12474445D+01  1  2 15  1  6  1       21 0.173830189446D-02 0.100000000000D+01
-.810466321543D-05 0.000000000000D+00 0.000000000000D+00 0.502709001992D-05 0.000000000000D+00  6 21 -4 25 -24 -3 21 4 0.16376919D+00 0.40443707D-02 0.15115031D+05 0.15115031D+05 0.15115031D+05 0.12474445D+01  1  2  4  1  6  1       21 -.653567857915D-02 0.100000000000D+01
-.913024541569D-04 0.000000000000D+00 -.327359193104D-04 0.502709001992D-05 0.000000000000D+00  6 21 -4 25 -24 -3 21 4 0.20385876D+00 0.40443707D-02 0.15115031D+05 0.15115031D+05 0.15115031D+05 0.12474445D+01  1  2  5  1  6  1       21 -.400595580265D-01 0.100000000000D+01
0.913802102749D-04 0.000000000000D+00 0.297979507911D-04 0.502709001992D-05 0.000000000000D+00  6 21 -4 25 -24 -3 21 4 0.16376919D+00 0.40443707D-02 0.15115031D+05 0.15115031D+05 0.15115031D+05 0.12474445D+01  1  2  6  1  6  1       21 0.736898828461D-01 0.100000000000D+01
-.381294231622D-05 0.000000000000D+00 -.209579576028D-05 0.502709001992D-05 0.000000000000D+00  6 -3 -4 25 -24 -3 -3 4 0.20385876D+00 0.40443707D-02 0.15115031D+05 0.15115031D+05 0.15115031D+05 0.12474445D+01  1  2  5  4  6  1       21 -.933040388211D-04 0.100000000000D+01
-.381294231622D-05 0.000000000000D+00 -.209579576028D-05 0.502709001992D-05 0.000000000000D+00  6 3 -4 25 -24 3 -3 4 0.20385876D+00 0.40443707D-02 0.15115031D+05 0.15115031D+05 0.15115031D+05 0.12474445D+01  3  4  5  5  5  1       21 -.939121150701D-04 0.100000000000D+01
-.381294231622D-05 0.000000000000D+00 -.209579576028D-05 0.502709001992D-05 0.000000000000D+00  6 -4 -4 25 -24 -3 -4 4 0.20385876D+00 0.40443707D-02 0.15115031D+05 0.15115031D+05 0.15115031D+05 0.12474445D+01  1  2  5  6  6  1       21 -.712454645724D-04 0.100000000000D+01
-.381294231622D-05 0.000000000000D+00 -.209579576028D-05 0.502709001992D-05 0.000000000000D+00  6 4 -4 25 -24 4 -3 4 0.20385876D+00 0.40443707D-02 0.15115031D+05 0.15115031D+05 0.15115031D+05 0.12474445D+01  3  4  5  7  5  1       21 -.712454645724D-04 0.100000000000D+01
-.381294231622D-05 0.000000000000D+00 -.209579576028D-05 0.502709001992D-05 0.000000000000D+00  6 -1 -4 25 -24 -3 -1 4 0.20385876D+00 0.40443707D-02 0.15115031D+05 0.15115031D+05 0.15115031D+05 0.12474445D+01  1  2  5  8  6  1       21 -.190135336709D-03 0.100000000000D+01
-.381294231622D-05 0.000000000000D+00 -.209579576028D-05 0.502709001992D-05 0.000000000000D+00  6 -2 -4 25 -24 -3 -2 4 0.20385876D+00 0.40443707D-02 0.15115031D+05 0.15115031D+05 0.15115031D+05 0.12474445D+01  1  2  5  8  6  1       21 -.142728965365D-03 0.100000000000D+01
-.381294231622D-05 0.000000000000D+00 -.209579576028D-05 0.502709001992D-05 0.000000000000D+00  6 1 -4 25 -24 1 -3 4 0.20385876D+00 0.40443707D-02 0.15115031D+05 0.15115031D+05 0.15115031D+05 0.12474445D+01  3  4  5  9  5  1       21 -.134344540254D-02 0.100000000000D+01
-.381294231622D-05 0.000000000000D+00 -.209579576028D-05 0.502709001992D-05 0.000000000000D+00  6 2 -4 25 -24 2 -3 4 0.20385876D+00 0.40443707D-02 0.15115031D+05 0.15115031D+05 0.15115031D+05 0.12474445D+01  3  4  5  9  5  1       21 -.273817344977D-02 0.100000000000D+01
  </mgrwgt>
  </event>
  <event>
  6     66 0.41051716E-03 0.75874647E+02 0.75467711E-02 0.11331553E+00
       21 -1    0    0  503  502 0.00000000E+00 0.00000000E+00 0.95278631E+02 0.95281583E+02 0.75000000E+00 0.0000E+00 0.9000E+01
       -2 -1    0    0    0  501 0.00000000E+00 0.00000000E+00 -.72709984E+03 0.72709991E+03 0.32000000E+00 0.0000E+00 0.9000E+01
       25  1    1    2    0    0 -.46560149E+02 0.82418548E+01 -.10295945E+03 0.16870514E+03 0.12500000E+03 0.0000E+00 0.9000E+01
      -24  1    1    2    0    0 0.23039360E+02 -.43062432E+02 -.24353842E+03 0.26108114E+03 0.80419002E+02 0.0000E+00 0.9000E+01
       -1  1    1    2    0  502 0.30751995E+02 -.86956869E+02 -.11656554E+02 0.92968596E+02 0.32000000E+00 0.0000E+00 0.9000E+01
       21  1    1    2  503  501 -.72312051E+01 0.12177745E+03 -.27366679E+03 0.29962662E+03 0.75000000E+00 0.0000E+00 0.9000E+01
#aMCatNLO 2  0  0  1  2 0.30449547D+02 0.00000000D+00  -5  6  0 0.00000000D+00 0.00000000D+00 0.00000000D+00 0.00000000D+00 0.00000000D+00
  <mgrwgt>
 0.2592429606D-03    1    2    0
 0.180358000927511D+03 0.000000000000000D+00 0.000000000000000D+00 0.180358000927511D+03
 0.180358000927511D+03 0.000000000000000D+00 0.000000000000000D+00 -.180358000927511D+03
 0.145977521257651D+03 -.492980324010046D+02 0.543482707197651D+02 0.173322296225442D+02
 0.121554009329316D+03 0.205924004952532D+02 -.185515806359845D+01 -.887731528113258D+02
 0.931844712680546D+02 0.287056319057514D+02 -.524931126561666D+02 0.714409231887816D+02
 0.000000000000000D+00 -.000000000000000D+00 0.000000000000000D+00 -.000000000000000D+00
 0.220419906634998D+03 0.000000000000000D+00 0.000000000000000D+00 0.220419906634998D+03
 0.314299154062887D+03 0.000000000000000D+00 0.000000000000000D+00 -.314299154062887D+03
 0.134763459838387D+03 -.465602174234508D+02 0.824197048071184D+01 0.173322296225442D+02
 0.129356346394238D+03 0.230393041401768D+02 -.430623524992422D+02 -.887731528113258D+02
 0.116666315585048D+03 0.307521184039280D+02 -.869570635417015D+02 0.714409231887816D+02
 0.153932938880212D+03 -.723120512065397D+01 0.121777445560232D+03 -.938792474278895D+02
0.580757319041D-06 0.000000000000D+00 0.000000000000D+00 0.491711037899D-06 0.210896831665D-09  6 21 -2 25 -24 -1 21 4 0.14658427D-01 0.11186132D+00 0.48831709D+05 0.48831709D+05 0.48831709D+05 0.11933000D+01  1  2  1  1  6  1       21 0.259242960618D-03 0.100000000000D+01
  </mgrwgt>
  </event>
  <event>
  6     66 -.41051716E-03 0.65304743E+02 0.75467711E-02 0.11515369E+00
       21 -1    0    0  501  503 0.00000000E+00 0.00000000E+00 0.31368284E+03 0.31368374E+03 0.75000000E+00 0.0000E+00 0.9000E+01
       -4 -1    0    0    0  501 0.00000000E+00 0.00000000E+00 -.22705114E+03 0.22705643E+03 0.15500000E+01 0.0000E+00 0.9000E+01
       25  1    1    2    0    0 -.48726743E+01 -.95488873E+02 0.13745974E+03 0.20895465E+03 0.12500000E+03 0.0000E+00 0.9000E+01
      -24  1    1    2    0    0 0.24090957E+02 0.58456865E+02 -.80304227E+02 0.13005216E+03 0.80419002E+02 0.0000E+00 0.9000E+01
       -3  1    1    2    0  502 -.39422060E+02 0.79682017E+02 -.55303997E+02 0.10470007E+03 0.50000000E+00 0.0000E+00 0.9000E+01
       21  1    1    2  502  503 0.20203778E+02 -.42650008E+02 0.84780190E+02 0.97033288E+02 0.75000000E+00 0.0000E+00 0.9000E+01
#aMCatNLO 2  0  0  1  2 0.47193387D+02 0.00000000D+00  -5  6  0 0.00000000D+00 0.00000000D+00 0.00000000D+00 0.00000000D+00 0.00000000D+00
  <mgrwgt>
 -.1093613973D-02    3    2    0
 0.220593037343486D+03 0.000000000000000D+00 0.000000000000000D+00 0.220593037343486D+03
 0.220593037343486D+03 0.000000000000000D+00 0.000000000000000D+00 -.220593037343486D+03
 0.218580061129270D+03 0.487596131545594D+01 -.116068138698049D+03 0.136589367462098D+03
 0.126584172196982D+03 0.299582918356805D+02 0.460709829436736D+02 -.808473993231490D+02
 0.960218413607203D+02 -.348342531511365D+02 0.699971557543753D+02 -.557419681389490D+02
 0.000000000000000D+00 0.000000000000000D+00 -.000000000000000D+00 0.000000000000000D+00
 0.312377750963848D+03 0.000000000000000D+00 0.000000000000000D+00 0.312377750963848D+03
 0.228002255444021D+03 0.000000000000000D+00 0.000000000000000D+00 -.228002255444021D+03
 0.208383306329859D+03 -.487246144850964D+01 -.954892987339444D+02 0.136589367462098D+03
 0.130388150656695D+03 0.240911026744097D+02 0.584565708189993D+02 -.808473993231490D+02
 0.104931561160371D+03 -.394224189586409D+02 0.796827358905205D+02 -.557419681389490D+02
 0.966769882609448D+02 0.202037777327409D+02 -.426500079755754D+02 0.843754955198263D+02
-.154781000398D-04 0.000000000000D+00 0.000000000000D+00 0.506765602801D-07 0.000000000000D+00  6 21 -4 25 -24 -3 21 4 0.48648941D-01 0.33796070D-01 0.39157969D+05 0.39157969D+05 0.39157969D+05 0.12029397D+01  1  2 13  1  6  1       21 -.465172663927D-02 0.100000000000D+01
-.144166968274D-04 0.000000000000D+00 0.000000000000D+00 0.506765602801D-07 0.000000000000D+00  6 21 -4 25 -24 -3 21 4 0.49867367D-01 0.33796070D-01 0.39157969D+05 0.39157969D+05 0.39157969D+05 0.12029397D+01  1  2 13  1  6  1       21 -.411525108356D-02 0.100000000000D+01
0.267708640036D-04 0.000000000000D+00 0.000000000000D+00 0.516930466354D-07 0.441924128609D-09  6 21 -4 25 -24 -3 21 4 0.48259074D-01 0.34931203D-01 0.39157969D+05 0.39157969D+05 0.39157969D+05 0.12029397D+01  1  2  1  1  6  1       21 0.767336374970D-02 0.100000000000D+01
  </mgrwgt>
  </event>
  <event>
  6     66 -.41051716E-03 0.23117074E+02 0.75467711E-02 0.12237357E+00
       21 -1    0    0  501  502 0.00000000E+00 0.00000000E+00 0.28184719E+03 0.28184819E+03 0.75000000E+00 0.0000E+00 0.9000E+01
       21 -1    0    0  503  501 0.00000000E+00 0.00000000E+00 -.12621297E+03 0.12621520E+03 0.75000000E+00 0.0000E+00 0.9000E+01
       25  1    1    2    0    0 -.40781392E+02 -.30347298E+01 -.26132586E+02 0.13409043E+03 0.12500000E+03 0.0000E+00 0.9000E+01
      -24  1    1    2    0    0 0.44796244E+02 0.21603315E+02 0.30156388E+02 0.99247319E+02 0.80419002E+02 0.0000E+00 0.9000E+01
        4  1    1    2  503    0 0.76264753E+01 0.73497354E+01 -.75174164E+01 0.13080359E+02 0.15500000E+01 0.0000E+00 0.9000E+01
       -3  1    1    2    0  502 -.11641327E+02 -.25918321E+02 0.15912784E+03 0.16164528E+03 0.50000000E+00 0.0000E+00 0.9000E+01
#aMCatNLO 2  0  0  2  1 0.10591588D+02 0.00000000D+00  -5  6  0 0.00000000D+00 0.00000000D+00 0.00000000D+00 0.00000000D+00 0.00000000D+00
  <mgrwgt>
 -.1061406541D-01    2    2    0
 0.179778306899519D+03 0.000000000000000D+00 0.000000000000000D+00 0.179778306899519D+03
 0.179778306899519D+03 0.000000000000000D+00 0.000000000000000D+00 -.179778306899519D+03
 0.158233207482060D+03 -.374167315372964D+02 0.207912329657608D+00 -.895136465774345D+02
 0.967340975856741D+02 0.468324366417383D+02 0.235656665177216D+02 -.119017612611446D+02
 0.000000000000000D+00 0.000000000000000D+00 0.000000000000000D+00 -.000000000000000D+00
 0.104589308731302D+03 -.941570510444189D+01 -.237735788473792D+02 0.101415407838579D+03
 0.181615323265684D+03 0.000000000000000D+00 0.000000000000000D+00 0.181615323265684D+03
 0.195799953567520D+03 0.000000000000000D+00 0.000000000000000D+00 -.195799953567520D+03
 0.159091232921621D+03 -.407813508262134D+02 -.303461590992460D+01 -.895136465774345D+02
 0.953009976015411D+02 0.447962714330518D+02 0.216033870968762D+02 -.119017612611446D+02
 0.177026967606815D+02 0.762647528991246D+01 0.734973540022041D+01 -.141846303018353D+02
 0.105320349549361D+03 -.116413958967509D+02 -.259185065871721D+02 0.101415407838579D+03
-.588306296571D-06 0.000000000000D+00 0.000000000000D+00 0.460785464618D-05 0.000000000000D+00  6 21 21 25 -24 4 -3 4 0.42914821D-01 0.19500137D-01 0.17566673D+05 0.17566673D+05 0.17566673D+05 0.12400773D+01  1  2 13 10  5  2       -4 -.179498479175D-01 0.100000000000D+01
0.243426517813D-06 0.000000000000D+00 0.000000000000D+00 0.464453216957D-05 0.388829895358D-08  6 21 21 25 -24 4 -3 4 0.43353335D-01 0.19414037D-01 0.17566673D+05 0.17566673D+05 0.17566673D+05 0.12400773D+01  1  2  1 10  5  2       -4 0.733578250419D-02 0.100000000000D+01
  </mgrwgt>
  </event>
  <event>
  5     66 0.41051716E-03 0.26011132E+02 0.75467711E-02 0.12029106E+00
       21 -1    0    0  501  502 0.00000000E+00 0.00000000E+00 0.31999178E+03 0.31999265E+03 0.75000000E+00 0.0000E+00 0.9000E+01
       -2 -1    0    0    0  501 0.00000000E+00 0.00000000E+00 -.10298828E+03 0.10298877E+03 0.32000000E+00 0.0000E+00 0.9000E+01
       25  1    1    2    0    0 -.63485374E+02 0.63089892E+02 0.28917985E+01 0.15376635E+03 0.12500000E+03 0.0000E+00 0.9000E+01
      -24  1    1    2    0    0 0.37695100E+02 -.66463017E+02 0.21632522E+03 0.24310918E+03 0.80419002E+02 0.0000E+00 0.9000E+01
       -1  1    1    2    0  502 0.25790274E+02 0.33731255E+01 -.22135235E+01 0.26105905E+02 0.32000000E+00 0.0000E+00 0.9000E+01
#aMCatNLO 1  0  0  1  2 0.53960524D+01 0.00000000D+00  -5  6  0 0.00000000D+00 0.00000000D+00 0.00000000D+00 0.00000000D+00 0.00000000D+00
  <mgrwgt>
 0.1011244620D+00   32    4    0
 0.181537028609941D+03 0.000000000000000D+00 0.000000000000000D+00 0.181537028609941D+03
 0.181537028609941D+03 0.000000000000000D+00 0.000000000000000D+00 -.181537028609941D+03
 0.177409452537633D+03 -.634860148555897D+02 0.630898080874660D+02 -.885342638922641D+02
 0.153928368011212D+03 0.376945445444402D+02 -.664630901031514D+02 0.106716940968864D+03
 0.317362366710385D+02 0.257914703111495D+02 0.337328201568536D+01 -.181826770766000D+02
 0.000000000000000D+00 0.000000000000000D+00 0.000000000000000D+00 0.000000000000000D+00
 0.184328824004945D+03 0.000000000000000D+00 0.000000000000000D+00 0.184328824004945D+03
 0.184183342608052D+03 0.000000000000000D+00 0.000000000000000D+00 -.184183342608052D+03
 0.177947418917540D+03 -.659300429906414D+02 0.620902363316617D+02 -.885342638922641D+02
 0.153800761414965D+03 0.355780844146199D+02 -.673286913365060D+02 0.106716940968864D+03
 0.313659730790535D+02 0.253574739868864D+02 0.319578386759344D+01 -.181826770766000D+02
 0.539801320143881D+01 0.499448458913511D+01 0.204267113725090D+01 0.145481396892229D+00
 0.181537028609941D+03 0.000000000000000D+00 0.000000000000000D+00 0.181537028609941D+03
 0.181537028609941D+03 0.000000000000000D+00 0.000000000000000D+00 -.181537028609941D+03
 0.177409452537633D+03 -.634860148555897D+02 0.630898080874660D+02 -.885342638922641D+02
 0.153928368011212D+03 0.376945445444402D+02 -.664630901031514D+02 0.106716940968864D+03
 0.000000000000000D+00 0.000000000000000D+00 0.000000000000000D+00 0.000000000000000D+00
 0.317362366710385D+02 0.257914703111495D+02 0.337328201568536D+01 -.181826770766000D+02
 0.184328824004945D+03 0.000000000000000D+00 0.000000000000000D+00 0.184328824004945D+03
 0.184183342608052D+03 0.000000000000000D+00 0.000000000000000D+00 -.184183342608052D+03
 0.177947418917540D+03 -.659300429906414D+02 0.620902363316617D+02 -.885342638922641D+02
 0.153800761414965D+03 0.355780844146199D+02 -.673286913365060D+02 0.106716940968864D+03
 0.539801320143881D+01 0.499448458913511D+01 0.204267113725090D+01 0.145481396892229D+00
 0.313659730790535D+02 0.253574739868864D+02 0.319578386759344D+01 -.181826770766000D+02
0.801191730117D-05 0.000000000000D+00 0.000000000000D+00 0.157098353353D-06 0.000000000000D+00  6 21 -2 25 -24 -1 21 2 0.49229610D-01 0.15844456D-01 0.21123772D+05 0.21123772D+05 0.21123772D+05 0.12312208D+01  1  2  2  1  6  1       21 0.118741127259D-01 0.100000000000D+01
-.608117855525D-07 0.422800491770D-06 -.161737526954D-07 0.157098353353D-06 0.000000000000D+00  6 21 -2 25 -24 -1 21 4 0.49229610D-01 0.15844456D-01 0.21123772D+05 0.21123772D+05 0.21123772D+05 0.12312208D+01  1  2  3  1  6  1       21 -.136623178972D-03 0.100000000000D+01
0.878184419374D-06 0.000000000000D+00 0.000000000000D+00 0.157098353353D-06 0.000000000000D+00  6 21 -2 25 -24 -1 21 4 0.49229610D-01 0.15844456D-01 0.21123772D+05 0.21123772D+05 0.21123772D+05 0.12312208D+01  1  2 15  1  6  1       21 0.197297852725D-02 0.100000000000D+01
0.494331459001D-05 0.000000000000D+00 0.000000000000D+00 0.156654519271D-06 0.000000000000D+00  6 21 -2 25 -24 -1 21 4 0.50340171D-01 0.15844456D-01 0.21913875D+05 0.21913875D+05 0.21913875D+05 0.12294804D+01  1  2 12  1  6  1       21 0.105432258416D-01 0.100000000000D+01
-.166038729714D-05 0.000000000000D+00 0.000000000000D+00 0.157098353353D-06 0.000000000000D+00  6 21 -2 25 -24 -1 21 4 0.49229610D-01 0.15844456D-01 0.21123772D+05 0.21123772D+05 0.21123772D+05 0.12312208D+01  1  2  4  1  6  1       21 -.373031952274D-02 0.100000000000D+01
-.627733196604D-03 0.000000000000D+00 -.894538118099D-04 0.157098353353D-06 0.000000000000D+00  6 21 -2 25 -24 -1 21 4 0.50643843D-01 0.15844456D-01 0.21123772D+05 0.21123772D+05 0.21123772D+05 0.12312208D+01  1  2  5  1  6  1       21 -.133002165488D+01 0.100000000000D+01
0.629266295200D-03 0.000000000000D+00 0.893104625921D-04 0.157098353353D-06 0.000000000000D+00  6 21 -2 25 -24 -1 21 4 0.49229610D-01 0.15844456D-01 0.21123772D+05 0.21123772D+05 0.21123772D+05 0.12312208D+01  1  2  6  1  6  1       21 0.141374506420D+01 0.100000000000D+01
0.129767394782D-05 0.000000000000D+00 0.000000000000D+00 0.157098353353D-06 0.204557196087D-06  6 21 -2 25 -24 -1 21 4 0.49986695D-01 0.16075425D-01 0.21913875D+05 0.21913875D+05 0.21913875D+05 0.12294804D+01  1  2 11  1  6  1       21 0.274220337925D-02 0.100000000000D+01
0.172851416872D-06 0.000000000000D+00 0.000000000000D+00 0.156654519271D-06 0.000000000000D+00  6 -1 -2 25 -24 -1 -1 4 0.50340171D-01 0.15844456D-01 0.21913875D+05 0.21913875D+05 0.21913875D+05 0.12294804D+01  1  2 12  4  6  1       21 0.363522069723D-04 0.100000000000D+01
-.356066054882D-05 0.000000000000D+00 -.586979807641D-06 0.157098353353D-06 0.000000000000D+00  6 -1 -2 25 -24 -1 -1 4 0.50643843D-01 0.15844456D-01 0.21123772D+05 0.21123772D+05 0.21123772D+05 0.12312208D+01  1  2  5  4  6  1       21 -.744377560953D-03 0.100000000000D+01
0.216975858609D-06 0.000000000000D+00 0.000000000000D+00 0.157098353353D-06 0.139647904741D-09  6 -1 -2 25 -24 -1 -1 4 0.49986695D-01 0.16075425D-01 0.21913875D+05 0.21913875D+05 0.21913875D+05 0.12294804D+01  1  2 11  4  6  1       21 0.451346050574D-04 0.100000000000D+01
0.172851416872D-06 0.000000000000D+00 0.000000000000D+00 0.156654519271D-06 0.000000000000D+00  6 1 -2 25 -24 1 -1 4 0.50340171D-01 0.15844456D-01 0.21913875D+05 0.21913875D+05 0.21913875D+05 0.12294804D+01  3  4 12  5  5  1       21 0.831647335785D-04 0.100000000000D+01
-.356066054882D-05 0.000000000000D+00 -.586979807641D-06 0.157098353353D-06 0.000000000000D+00  6 1 -2 25 -24 1 -1 4 0.50643843D-01 0.15844456D-01 0.21123772D+05 0.21123772D+05 0.21123772D+05 0.12312208D+01  3  4  5  5  5  1       21 -.170887541766D-02 0.100000000000D+01
0.782494938239D-06 0.000000000000D+00 0.000000000000D+00 0.157098353353D-06 0.122414935448D-06  6 1 -2 25 -24 1 -1 4 0.49986695D-01 0.16075425D-01 0.21913875D+05 0.21913875D+05 0.21913875D+05 0.12294804D+01  3  4 11  5  5  1       21 0.370850045840D-03 0.100000000000D+01
0.172851416872D-06 0.000000000000D+00 0.000000000000D+00 0.156654519271D-06 0.000000000000D+00  6 -2 -2 25 -24 -1 -2 4 0.50340171D-01 0.15844456D-01 0.21913875D+05 0.21913875D+05 0.21913875D+05 0.12294804D+01  1  2 12  6  6  1       21 0.297271244506D-04 0.100000000000D+01
-.356066054882D-05 0.000000000000D+00 -.586979807641D-06 0.157098353353D-06 0.000000000000D+00  6 -2 -2 25 -24 -1 -2 4 0.50643843D-01 0.15844456D-01 0.21123772D+05 0.21123772D+05 0.21123772D+05 0.12312208D+01  1  2  5  6  6  1       21 -.608089462604D-03 0.100000000000D+01
0.298158897817D-06 0.000000000000D+00 0.000000000000D+00 0.157098353353D-06 0.713566874305D-09  6 -2 -2 25 -24 -1 -2 4 0.49986695D-01 0.16075425D-01 0.21913875D+05 0.21913875D+05 0.21913875D+05 0.12294804D+01  1  2 11  6  6  1       21 0.507729432394D-04 0.100000000000D+01
0.172851416872D-06 0.000000000000D+00 0.000000000000D+00 0.156654519271D-06 0.000000000000D+00  6 2 -2 25 -24 2 -1 4 0.50340171D-01 0.15844456D-01 0.21913875D+05 0.21913875D+05 0.21913875D+05 0.12294804D+01  3  4 12  7  5  1       21 0.119410198247D-03 0.100000000000D+01
-.356066054882D-05 0.000000000000D+00 -.586979807641D-06 0.157098353353D-06 0.000000000000D+00  6 2 -2 25 -24 2 -1 4 0.50643843D-01 0.15844456D-01 0.21123772D+05 0.21123772D+05 0.21123772D+05 0.12312208D+01  3  4  5  7  5  1       21 -.245604405452D-02 0.100000000000D+01
0.220842361342D-06 0.000000000000D+00 0.000000000000D+00 0.157098353353D-06 0.274788580269D-09  6 2 -2 25 -24 2 -1 4 0.49986695D-01 0.16075425D-01 0.21913875D+05 0.21913875D+05 0.21913875D+05 0.12294804D+01  3  4 11  7  5  1       21 0.150087156131D-03 0.100000000000D+01
0.172851416872D-06 0.000000000000D+00 0.000000000000D+00 0.156654519271D-06 0.000000000000D+00  6 -3 -2 25 -24 -1 -3 4 0.50340171D-01 0.15844456D-01 0.21913875D+05 0.21913875D+05 0.21913875D+05 0.12294804D+01  1  2 12  8  6  1       21 0.186159068554D-04 0.100000000000D+01
0.172851416872D-06 0.000000000000D+00 0.000000000000D+00 0.156654519271D-06 0.000000000000D+00  6 -4 -2 25 -24 -1 -4 4 0.50340171D-01 0.15844456D-01 0.21913875D+05 0.21913875D+05 0.21913875D+05 0.12294804D+01  1  2 12  8  6  1       21 0.153037955180D-04 0.100000000000D+01
-.356066054882D-05 0.000000000000D+00 -.586979807641D-06 0.157098353353D-06 0.000000000000D+00  6 -3 -2 25 -24 -1 -3 4 0.50643843D-01 0.15844456D-01 0.21123772D+05 0.21123772D+05 0.21123772D+05 0.12312208D+01  1  2  5  8  6  1       21 -.380460737835D-03 0.100000000000D+01
-.356066054882D-05 0.000000000000D+00 -.586979807641D-06 0.157098353353D-06 0.000000000000D+00  6 -4 -2 25 -24 -1 -4 4 0.50643843D-01 0.15844456D-01 0.21123772D+05 0.21123772D+05 0.21123772D+05 0.12312208D+01  1  2  5  8  6  1       21 -.312562592954D-03 0.100000000000D+01
0.220512558712D-06 0.000000000000D+00 0.000000000000D+00 0.157098353353D-06 0.274378215175D-09  6 -3 -2 25 -24 -1 -3 4 0.49986695D-01 0.16075425D-01 0.21913875D+05 0.21913875D+05 0.21913875D+05 0.12294804D+01  1  2 11  8  6  1       21 0.235182767281D-04 0.100000000000D+01
0.220512558712D-06 0.000000000000D+00 0.000000000000D+00 0.157098353353D-06 0.274378215175D-09  6 -4 -2 25 -24 -1 -4 4 0.49986695D-01 0.16075425D-01 0.21913875D+05 0.21913875D+05 0.21913875D+05 0.12294804D+01  1  2 11  8  6  1       21 0.193395675204D-04 0.100000000000D+01
0.172851416872D-06 0.000000000000D+00 0.000000000000D+00 0.156654519271D-06 0.000000000000D+00  6 3 -2 25 -24 3 -1 4 0.50340171D-01 0.15844456D-01 0.21913875D+05 0.21913875D+05 0.21913875D+05 0.12294804D+01  3  4 12  9  5  1       21 0.186237941849D-04 0.100000000000D+01
0.172851416872D-06 0.000000000000D+00 0.000000000000D+00 0.156654519271D-06 0.000000000000D+00  6 4 -2 25 -24 4 -1 4 0.50340171D-01 0.15844456D-01 0.21913875D+05 0.21913875D+05 0.21913875D+05 0.12294804D+01  3  4 12  9  5  1       21 0.153037955180D-04 0.100000000000D+01
-.356066054882D-05 0.000000000000D+00 -.586979807641D-06 0.157098353353D-06 0.000000000000D+00  6 3 -2 25 -24 3 -1 4 0.50643843D-01 0.15844456D-01 0.21123772D+05 0.21123772D+05 0.21123772D+05 0.12312208D+01  3  4  5  9  5  1       21 -.380624460396D-03 0.100000000000D+01
-.356066054882D-05 0.000000000000D+00 -.586979807641D-06 0.157098353353D-06 0.000000000000D+00  6 4 -2 25 -24 4 -1 4 0.50643843D-01 0.15844456D-01 0.21123772D+05 0.21123772D+05 0.21123772D+05 0.12312208D+01  3  4  5  9  5  1       21 -.312562592954D-03 0.100000000000D+01
0.220512558712D-06 0.000000000000D+00 0.000000000000D+00 0.157098353353D-06 0.274378215175D-09  6 3 -2 25 -24 3 -1 4 0.49986695D-01 0.16075425D-01 0.21913875D+05 0.21913875D+05 0.21913875D+05 0.12294804D+01  3  4 11  9  5  1       21 0.235280409139D-04 0.100000000000D+01
0.220512558712D-06 0.000000000000D+00 0.000000000000D+00 0.157098353353D-06 0.274378215175D-09  6 4 -2 25 -24 4 -1 4 0.49986695D-01 0.16075425D-01 0.21913875D+05 0.21913875D+05 0.21913875D+05 0.12294804D+01  3  4 11  9  5  1       21 0.193395675204D-04 0.100000000000D+01
  </mgrwgt>
  </event>
  <event>
  5     66 0.41051716E-03 0.76654756E+02 0.75467711E-02 0.10822593E+00
       21 -1    0    0  501  502 0.00000000E+00 0.00000000E+00 0.30154810E+03 0.30154903E+03 0.75000000E+00 0.0000E+00 0.9000E+01
       -4 -1    0    0    0  501 0.00000000E+00 0.00000000E+00 -.81145294E+02 0.81160097E+02 0.15500000E+01 0.0000E+00 0.9000E+01
       25  1    1    2    0    0 -.59800370E+02 -.29002952E+02 0.56395335E+02 0.15238993E+03 0.12500000E+03 0.0000E+00 0.9000E+01
      -24  1    1    2    0    0 -.17339757E+01 -.16705772E+02 0.10642548E+03 0.13444586E+03 0.80419002E+02 0.0000E+00 0.9000E+01
       -3  1    1    2    0  502 0.61534346E+02 0.45708724E+02 0.57581991E+02 0.95873348E+02 0.50000000E+00 0.0000E+00 0.9000E+01
#aMCatNLO 1  0  0  1  2 0.23152459D+03 0.00000000D+00  -5  6  0 0.00000000D+00 0.00000000D+00 0.00000000D+00 0.00000000D+00 0.00000000D+00
  <mgrwgt>
 0.4792095550D-02   12    4    0
 0.156435994443976D+03 0.000000000000000D+00 0.000000000000000D+00 0.156435994443976D+03
 0.156435994443976D+03 0.000000000000000D+00 0.000000000000000D+00 -.156435994443976D+03
 0.146677989860401D+03 -.598009831192934D+02 -.290034071861635D+02 -.383676621524900D+02
 0.894845165724467D+02 -.173434957607713D+01 -.167060502008018D+02 0.354705888035455D+02
 0.767094824551039D+02 0.615353326953705D+02 0.457094573869653D+02 0.289707334894451D+01
 0.000000000000000D+00 0.000000000000000D+00 0.000000000000000D+00 0.000000000000000D+00
 0.528155745459641D+03 0.000000000000000D+00 0.000000000000000D+00 0.528155745459641D+03
 0.234787346808176D+03 0.000000000000000D+00 0.000000000000000D+00 -.234787346808176D+03
 0.222511737894237D+03 -.118130771051204D+03 -.135865804868311D+03 -.383676621524900D+02
 0.122786997701208D+03 -.352719902002405D+02 -.781482878081779D+02 0.354705888035455D+02
 0.439216611560323D+02 0.424763272684975D+02 0.107926320467089D+02 0.289707334894451D+01
 0.373722695516341D+03 0.110926433982947D+03 0.203221460629780D+03 0.293368398651465D+03
 0.156435994443976D+03 0.000000000000000D+00 0.000000000000000D+00 0.156435994443976D+03
 0.156435994443976D+03 0.000000000000000D+00 0.000000000000000D+00 -.156435994443976D+03
 0.146677989860401D+03 -.598009831192934D+02 -.290034071861635D+02 -.383676621524900D+02
 0.894845165724467D+02 -.173434957607713D+01 -.167060502008018D+02 0.354705888035455D+02
 0.000000000000000D+00 0.000000000000000D+00 0.000000000000000D+00 0.000000000000000D+00
 0.767094824551039D+02 0.615353326953705D+02 0.457094573869653D+02 0.289707334894451D+01
 0.528155745459641D+03 0.000000000000000D+00 0.000000000000000D+00 0.528155745459641D+03
 0.234787346808176D+03 0.000000000000000D+00 0.000000000000000D+00 -.234787346808176D+03
 0.222511737894237D+03 -.118130771051204D+03 -.135865804868311D+03 -.383676621524900D+02
 0.122786997701208D+03 -.352719902002405D+02 -.781482878081779D+02 0.354705888035455D+02
 0.373722695516341D+03 0.110926433982947D+03 0.203221460629780D+03 0.293368398651465D+03
 0.439216611560323D+02 0.424763272684975D+02 0.107926320467089D+02 0.289707334894451D+01
0.343998597367D-05 0.000000000000D+00 0.000000000000D+00 0.288690233208D-06 0.000000000000D+00  6 21 -4 25 -24 -3 21 2 0.46393226D-01 0.12485102D-01 0.22557037D+05 0.22557037D+05 0.22557037D+05 0.12281147D+01  1  2  2  1  6  1       21 0.496787421241D-02 0.100000000000D+01
-.255488425401D-06 0.181533047169D-06 -.694434057695D-08 0.288690233208D-06 0.000000000000D+00  6 21 -4 25 -24 -3 21 4 0.46393226D-01 0.12485102D-01 0.22557037D+05 0.22557037D+05 0.22557037D+05 0.12281147D+01  1  2  3  1  6  1       21 -.556497225337D-03 0.100000000000D+01
0.374602551429D-06 0.000000000000D+00 0.000000000000D+00 0.288690233208D-06 0.000000000000D+00  6 21 -4 25 -24 -3 21 4 0.46393226D-01 0.12485102D-01 0.22557037D+05 0.22557037D+05 0.22557037D+05 0.12281147D+01  1  2 15  1  6  1       21 0.815948042056D-03 0.100000000000D+01
-.382410764618D-05 0.000000000000D+00 -.180719421542D-04 0.288690233208D-06 0.000000000000D+00  6 21 -4 25 -24 -3 21 4 0.20292929D+00 0.12485102D-01 0.22557037D+05 0.22557037D+05 0.22557037D+05 0.12281147D+01  1  2  5  1  6  1       21 -.248058459302D-03 0.100000000000D+01
-.100139629971D-05 0.000000000000D+00 -.728362117824D-05 0.288690233208D-06 0.000000000000D+00  6 -3 -4 25 -24 -3 -3 4 0.20292929D+00 0.12485102D-01 0.22557037D+05 0.22557037D+05 0.22557037D+05 0.12281147D+01  1  2  5  4  6  1       21 -.371857420461D-05 0.100000000000D+01
-.100139629971D-05 0.000000000000D+00 -.728362117824D-05 0.288690233208D-06 0.000000000000D+00  6 3 -4 25 -24 3 -3 4 0.20292929D+00 0.12485102D-01 0.22557037D+05 0.22557037D+05 0.22557037D+05 0.12281147D+01  3  4  5  5  5  1       21 -.374275461917D-05 0.100000000000D+01
-.100139629971D-05 0.000000000000D+00 -.728362117824D-05 0.288690233208D-06 0.000000000000D+00  6 -4 -4 25 -24 -3 -4 4 0.20292929D+00 0.12485102D-01 0.22557037D+05 0.22557037D+05 0.22557037D+05 0.12281147D+01  1  2  5  6  6  1       21 -.285004058310D-05 0.100000000000D+01
-.100139629971D-05 0.000000000000D+00 -.728362117824D-05 0.288690233208D-06 0.000000000000D+00  6 4 -4 25 -24 4 -3 4 0.20292929D+00 0.12485102D-01 0.22557037D+05 0.22557037D+05 0.22557037D+05 0.12281147D+01  3  4  5  7  5  1       21 -.285004058310D-05 0.100000000000D+01
-.100139629971D-05 0.000000000000D+00 -.728362117824D-05 0.288690233208D-06 0.000000000000D+00  6 -1 -4 25 -24 -3 -1 4 0.20292929D+00 0.12485102D-01 0.22557037D+05 0.22557037D+05 0.22557037D+05 0.12281147D+01  1  2  5  8  6  1       21 -.751742266269D-05 0.100000000000D+01
-.100139629971D-05 0.000000000000D+00 -.728362117824D-05 0.288690233208D-06 0.000000000000D+00  6 -2 -4 25 -24 -3 -2 4 0.20292929D+00 0.12485102D-01 0.22557037D+05 0.22557037D+05 0.22557037D+05 0.12281147D+01  1  2  5  8  6  1       21 -.565739574175D-05 0.100000000000D+01
-.100139629971D-05 0.000000000000D+00 -.728362117824D-05 0.288690233208D-06 0.000000000000D+00  6 1 -4 25 -24 1 -3 4 0.20292929D+00 0.12485102D-01 0.22557037D+05 0.22557037D+05 0.22557037D+05 0.12281147D+01  3  4  5  9  5  1       21 -.529060542635D-04 0.100000000000D+01
-.100139629971D-05 0.000000000000D+00 -.728362117824D-05 0.288690233208D-06 0.000000000000D+00  6 2 -4 25 -24 2 -3 4 0.20292929D+00 0.12485102D-01 0.22557037D+05 0.22557037D+05 0.22557037D+05 0.12281147D+01  3  4  5  9  5  1       21 -.107928737035D-03 0.100000000000D+01
  </mgrwgt>
  </event>
  <event>
  6     66 0.41051716E-03 0.18042505E+03 0.75467711E-02 0.11055052E+00
       21 -1    0    0  501  502 0.00000000E+00 0.00000000E+00 0.72398084E+03 0.72398123E+03 0.75000000E+00 0.0000E+00 0.9000E+01
       -4 -1    0    0    0  501 0.00000000E+00 0.00000000E+00 -.30210871E+03 0.30211268E+03 0.15500000E+01 0.0000E+00 0.9000E+01
       25  1    1    2    0    0 -.70676535E+02 -.26323109E+02 -.19409447E+03 0.24286980E+03 0.12500000E+03 0.0000E+00 0.9000E+01
      -24  1    1    2    0    0 -.78784323E+02 -.70186569E+02 0.14956342E+02 0.13350667E+03 0.80419002E+02 0.0000E+00 0.9000E+01
       -3  1    1    2    0  503 0.14581590E+03 0.14058088E+03 0.48857643E+03 0.52889738E+03 0.50000000E+00 0.0000E+00 0.9000E+01
       21  1    1    2  503  502 0.36449608E+01 -.44071198E+02 0.11243384E+03 0.12082006E+03 0.75000000E+00 0.0000E+00 0.9000E+01
#aMCatNLO 2  0  0  5  1 0.62579061D+02 0.00000000D+00  -5  6  0 0.00000000D+00 0.00000000D+00 0.00000000D+00 0.00000000D+00 0.00000000D+00
  <mgrwgt>
 0.2012980297D-02    1    2    0
 0.467678474305876D+03 0.000000000000000D+00 0.000000000000000D+00 0.467678474305876D+03
 0.467678474305876D+03 -.000000000000000D+00 -.000000000000000D+00 -.467678474305876D+03
 0.366326773959783D+03 -.756406633307955D+02 -.295285401611972D+02 -.334629437866138D+03
 0.143002173456891D+03 -.807327231027866D+02 -.714446875104597D+02 -.485828128659263D+02
 0.426028001195078D+03 0.156373386433582D+03 0.100973227671657D+03 0.383212250732065D+03
 0.000000000000000D+00 0.000000000000000D+00 0.000000000000000D+00 0.000000000000000D+00
 0.467678474305876D+03 0.000000000000000D+00 0.000000000000000D+00 0.467678474305876D+03
 0.467678474305876D+03 -.000000000000000D+00 -.000000000000000D+00 -.467678474305876D+03
 0.353956888045420D+03 -.706703955254130D+02 -.263191450451353D+02 -.322449184206090D+03
 0.139708127509310D+03 -.787819001405796D+02 -.701850045452022D+02 -.438020808297580D+02
 0.359736301064360D+03 0.145792205942009D+03 0.140628805308150D+03 0.297285011575815D+03
 0.819556319926620D+02 0.366008972398375D+01 -.441246557178129D+02 0.689662534600330D+02
0.885612181211D-04 0.000000000000D+00 0.000000000000D+00 0.725656376385D-06 0.319006047311D-08  6 21 -4 25 -24 -3 21 4 0.11138200D+00 0.46478598D-01 0.69034845D+05 0.69034845D+05 0.69034845D+05 0.11786513D+01  1  2  1  3  6  5       -3 0.201298029724D-02 0.100000000000D+01
  </mgrwgt>
  </event>
  <event>
  5     66 0.41051716E-03 0.20032966E+03 0.75467711E-02 0.10083298E+00
       21 -1    0    0  501  502 0.00000000E+00 0.00000000E+00 0.40420532E+03 0.40420602E+03 0.75000000E+00 0.0000E+00 0.9000E+01
       -2 -1    0    0    0  501 0.00000000E+00 0.00000000E+00 -.18088321E+03 0.18088349E+03 0.32000000E+00 0.0000E+00 0.9000E+01
       25  1    1    2    0    0 -.58305842E+02 0.21457641E+02 0.11867715E+03 0.18321918E+03 0.12500000E+03 0.0000E+00 0.9000E+01
      -24  1    1    2    0    0 -.11236308E+03 -.12635773E+03 0.60082950E+02 0.19664414E+03 0.80419002E+02 0.0000E+00 0.9000E+01
       -1  1    1    2    0  502 0.17066893E+03 0.10490009E+03 0.44562012E+02 0.20522619E+03 0.32000000E+00 0.0000E+00 0.9000E+01
#aMCatNLO 1  0  0  1  5 0.18034975D+02 0.00000000D+00  -5  6  0 0.00000000D+00 0.00000000D+00 0.00000000D+00 0.00000000D+00 0.00000000D+00
  <mgrwgt>
 0.6083862101D-02   12    4    0
 0.270396449935645D+03 0.000000000000000D+00 0.000000000000000D+00 0.270396449935645D+03
 0.270396449935645D+03 0.000000000000000D+00 0.000000000000000D+00 -.270396449935645D+03
 0.149218672610486D+03 -.583059003755617D+02 0.214576050125523D+02 0.527371351530936D+02
 0.187939982903722D+03 -.112363157955591D+03 -.126357779023139D+03 -.162004207990812D+02
 0.203634244357083D+03 0.170669058331153D+03 0.104900174010586D+03 -.365367143540123D+02
 0.000000000000000D+00 -.000000000000000D+00 0.000000000000000D+00 0.000000000000000D+00
 0.745705949166340D+03 0.000000000000000D+00 0.000000000000000D+00 0.745705949166340D+03
 0.425170347204045D+03 0.000000000000000D+00 0.000000000000000D+00 -.425170347204045D+03
 0.139472143777359D+03 0.245792328940653D+02 -.210270011184645D+02 0.527371351530936D+02
 0.201104481954376D+03 -.665797017538168D+00 -.183610728956756D+03 -.162004207990812D+02
 0.325875156862987D+03 0.322694875559379D+03 0.269759828811992D+02 -.365367143540123D+02
 0.504424513775663D+03 -.346608311435906D+03 0.177661747194022D+03 0.320535601962296D+03
 0.270396449935645D+03 0.000000000000000D+00 0.000000000000000D+00 0.270396449935645D+03
 0.270396449935645D+03 0.000000000000000D+00 0.000000000000000D+00 -.270396449935645D+03
 0.149218672610486D+03 -.583059003755617D+02 0.214576050125523D+02 0.527371351530936D+02
 0.187939982903722D+03 -.112363157955591D+03 -.126357779023139D+03 -.162004207990812D+02
 0.000000000000000D+00 -.000000000000000D+00 0.000000000000000D+00 0.000000000000000D+00
 0.203634244357083D+03 0.170669058331153D+03 0.104900174010586D+03 -.365367143540123D+02
 0.745705949166340D+03 0.000000000000000D+00 0.000000000000000D+00 0.745705949166340D+03
 0.425170347204045D+03 0.000000000000000D+00 0.000000000000000D+00 -.425170347204045D+03
 0.139472143777359D+03 0.245792328940653D+02 -.210270011184645D+02 0.527371351530936D+02
 0.201104481954376D+03 -.665797017538168D+00 -.183610728956756D+03 -.162004207990812D+02
 0.504424513775663D+03 -.346608311435906D+03 0.177661747194022D+03 0.320535601962296D+03
 0.325875156862987D+03 0.322694875559379D+03 0.269759828811992D+02 -.365367143540123D+02
0.193917051353D-04 0.000000000000D+00 0.000000000000D+00 0.106900720987D-06 0.000000000000D+00  6 21 -2 25 -24 -1 21 2 0.62185509D-01 0.27828261D-01 0.69474103D+05 0.69474103D+05 0.69474103D+05 0.11783881D+01  1  2  2  1  6  1       21 0.595655287984D-02 0.100000000000D+01
-.212636757863D-05 0.102332839435D-05 -.391462656703D-07 0.106900720987D-06 0.000000000000D+00  6 21 -2 25 -24 -1 21 4 0.62185509D-01 0.27828261D-01 0.69474103D+05 0.69474103D+05 0.69474103D+05 0.11783881D+01  1  2  3  1  6  1       21 -.906972274914D-03 0.100000000000D+01
0.216576885839D-05 0.000000000000D+00 0.000000000000D+00 0.106900720987D-06 0.000000000000D+00  6 21 -2 25 -24 -1 21 4 0.62185509D-01 0.27828261D-01 0.69474103D+05 0.69474103D+05 0.69474103D+05 0.11783881D+01  1  2 15  1  6  1       21 0.923778338313D-03 0.100000000000D+01
-.105929684565D-05 0.000000000000D+00 -.714102198814D-04 0.106900720987D-06 0.000000000000D+00  6 21 -2 25 -24 -1 21 4 0.22913508D+00 0.27828261D-01 0.69474103D+05 0.69474103D+05 0.69474103D+05 0.11783881D+01  1  2  5  1  6  1       21 -.160616447548D-04 0.100000000000D+01
0.239352713075D-05 0.000000000000D+00 -.275009555355D-04 0.106900720987D-06 0.000000000000D+00  6 -1 -2 25 -24 -1 -1 4 0.22913508D+00 0.27828261D-01 0.69474103D+05 0.69474103D+05 0.69474103D+05 0.11783881D+01  1  2  5  4  6  1       21 0.436037541765D-05 0.100000000000D+01
0.239352713075D-05 0.000000000000D+00 -.275009555355D-04 0.106900720987D-06 0.000000000000D+00  6 1 -2 25 -24 1 -1 4 0.22913508D+00 0.27828261D-01 0.69474103D+05 0.69474103D+05 0.69474103D+05 0.11783881D+01  3  4  5  5  5  1       21 0.350318245391D-04 0.100000000000D+01
0.239352713075D-05 0.000000000000D+00 -.275009555355D-04 0.106900720987D-06 0.000000000000D+00  6 -2 -2 25 -24 -1 -2 4 0.22913508D+00 0.27828261D-01 0.69474103D+05 0.69474103D+05 0.69474103D+05 0.11783881D+01  1  2  5  6  6  1       21 0.338622304971D-05 0.100000000000D+01
0.239352713075D-05 0.000000000000D+00 -.275009555355D-04 0.106900720987D-06 0.000000000000D+00  6 2 -2 25 -24 2 -1 4 0.22913508D+00 0.27828261D-01 0.69474103D+05 0.69474103D+05 0.69474103D+05 0.11783881D+01  3  4  5  7  5  1       21 0.756963776445D-04 0.100000000000D+01
0.239352713075D-05 0.000000000000D+00 -.275009555355D-04 0.106900720987D-06 0.000000000000D+00  6 -3 -2 25 -24 -1 -3 4 0.22913508D+00 0.27828261D-01 0.69474103D+05 0.69474103D+05 0.69474103D+05 0.11783881D+01  1  2  5  8  6  1       21 0.229335820151D-05 0.100000000000D+01
0.239352713075D-05 0.000000000000D+00 -.275009555355D-04 0.106900720987D-06 0.000000000000D+00  6 -4 -2 25 -24 -1 -4 4 0.22913508D+00 0.27828261D-01 0.69474103D+05 0.69474103D+05 0.69474103D+05 0.11783881D+01  1  2  5  8  6  1       21 0.174198023523D-05 0.100000000000D+01
0.239352713075D-05 0.000000000000D+00 -.275009555355D-04 0.106900720987D-06 0.000000000000D+00  6 3 -2 25 -24 3 -1 4 0.22913508D+00 0.27828261D-01 0.69474103D+05 0.69474103D+05 0.69474103D+05 0.11783881D+01  3  4  5  9  5  1       21 0.231268360243D-05 0.100000000000D+01
0.239352713075D-05 0.000000000000D+00 -.275009555355D-04 0.106900720987D-06 0.000000000000D+00  6 4 -2 25 -24 4 -1 4 0.22913508D+00 0.27828261D-01 0.69474103D+05 0.69474103D+05 0.69474103D+05 0.11783881D+01  3  4  5  9  5  1       21 0.174198023523D-05 0.100000000000D+01
  </mgrwgt>
  </event>
  <event>
  6     66 -.41051716E-03 0.18887655E+02 0.75467711E-02 0.12243791E+00
       21 -1    0    0  503  502 0.00000000E+00 0.00000000E+00 0.13545095E+03 0.13545302E+03 0.75000000E+00 0.0000E+00 0.9000E+01
       -2 -1    0    0    0  501 0.00000000E+00 0.00000000E+00 -.17176994E+03 0.17177024E+03 0.32000000E+00 0.0000E+00 0.9000E+01
       25  1    1    2    0    0 -.23171726E+01 0.44579210E+02 0.48060774E+02 0.14116484E+03 0.12500000E+03 0.0000E+00 0.9000E+01
      -24  1    1    2    0    0 -.14509281E+02 -.47819771E+02 -.87321134E+02 0.12880002E+03 0.80419002E+02 0.0000E+00 0.9000E+01
       -1  1    1    2    0  502 0.24050488E+02 -.62499336E+01 -.38175508E+00 0.24854291E+02 0.32000000E+00 0.0000E+00 0.9000E+01
       21  1    1    2  503  501 -.72240340E+01 0.94904951E+01 0.33231182E+01 0.12404103E+02 0.75000000E+00 0.0000E+00 0.9000E+01
#aMCatNLO 2  0  0  1  2 0.11927119D+02 0.00000000D+00  -5  6  0 0.00000000D+00 0.00000000D+00 0.00000000D+00 0.00000000D+00 0.00000000D+00
  <mgrwgt>
 -.2558173376D-01    3    2    0
 0.145949120203744D+03 0.000000000000000D+00 0.000000000000000D+00 0.145949120203744D+03
 0.145949120203744D+03 0.000000000000000D+00 0.000000000000000D+00 -.145949120203744D+03
 0.150611279534838D+03 -.602389300219810D+01 0.494477341402305D+02 0.676564248583707D+02
 0.117034399981725D+03 -.174188810374175D+02 -.439982012092798D+02 -.706440068120700D+02
 0.242525608909257D+02 0.234427740396156D+02 -.544953293095075D+01 0.298758195369931D+01
 0.000000000000000D+00 -.000000000000000D+00 0.000000000000000D+00 0.000000000000000D+00
 0.155062531579535D+03 0.000000000000000D+00 0.000000000000000D+00 0.155062531579535D+03
 0.150026147208242D+03 0.000000000000000D+00 0.000000000000000D+00 -.150026147208242D+03
 0.148980178560403D+03 -.231822440086424D+01 0.445794528331217D+02 0.676564248583707D+02
 0.118131482649784D+03 -.145100970790460D+02 -.478195840943712D+02 -.706440068120700D+02
 0.250301518164479D+02 0.240523555084244D+02 -.625036387106605D+01 0.298758195369931D+01
 0.129468657611424D+02 -.722403402851411D+01 0.949049513231555D+01 0.503638437129312D+01
-.690185994600D-05 0.000000000000D+00 0.000000000000D+00 0.499086011029D-06 0.000000000000D+00  6 21 -2 25 -24 -1 21 4 0.21098543D-01 0.25706340D-01 0.17449210D+05 0.17449210D+05 0.17449210D+05 0.12404032D+01  1  2 13  1  6  1       21 -.367642706068D-01 0.100000000000D+01
-.833236336698D-07 0.000000000000D+00 0.000000000000D+00 0.502829964209D-06 0.000000000000D+00  6 21 -2 25 -24 -1 21 4 0.19612638D-01 0.25706340D-01 0.15867966D+05 0.15867966D+05 0.15867966D+05 0.12450471D+01  1  2  8  1  6  1       21 -.515241920580D-03 0.100000000000D+01
0.225217202528D-05 0.000000000000D+00 0.000000000000D+00 0.502829964209D-06 0.407846309785D-07  6 21 -2 25 -24 -1 21 4 0.20837298D-01 0.26424436D-01 0.17449210D+05 0.17449210D+05 0.17449210D+05 0.12404032D+01  1  2  1  1  6  1       21 0.116977787711D-01 0.100000000000D+01
  </mgrwgt>
  </event>
  <event>
  6     66 -.41051716E-03 0.26617332E+02 0.75467711E-02 0.12371032E+00
       21 -1    0    0  501  502 0.00000000E+00 0.00000000E+00 0.34809422E+03 0.34809502E+03 0.75000000E+00 0.0000E+00 0.9000E+01
       -2 -1    0    0    0  503 0.00000000E+00 0.00000000E+00 -.46445072E+02 0.46446174E+02 0.32000000E+00 0.0000E+00 0.9000E+01
       25  1    1    2    0    0 0.31473784E+02 -.22096601E+02 0.12197719E+03 0.17883594E+03 0.12500000E+03 0.0000E+00 0.9000E+01
      -24  1    1    2    0    0 0.25385512E+01 0.15382433E+02 0.12093630E+03 0.14606802E+03 0.80419002E+02 0.0000E+00 0.9000E+01
       -1  1    1    2    0  502 -.28627531E+02 0.63152108E+01 0.56675870E+02 0.63809671E+02 0.32000000E+00 0.0000E+00 0.9000E+01
       21  1    1    2  501  503 -.53848038E+01 0.39895702E+00 0.20597874E+01 0.58275640E+01 0.75000000E+00 0.0000E+00 0.9000E+01
#aMCatNLO 2  0  0  2  1 0.53995628D+01 0.00000000D+00  -5  6  0 0.00000000D+00 0.00000000D+00 0.00000000D+00 0.00000000D+00 0.00000000D+00
  <mgrwgt>
 -.3502171273D-01    3    2    0
 0.123809684216453D+03 0.000000000000000D+00 0.000000000000000D+00 0.123809684216453D+03
 0.123809684216453D+03 0.000000000000000D+00 0.000000000000000D+00 -.123809684216453D+03
 0.132439831759586D+03 0.285873449152320D+02 -.218828571866066D+02 -.248839970373623D+02
 0.829493296814736D+02 0.735291836073239D+00 0.155159665832680D+02 0.131182875078257D+02
 0.322302069918470D+02 -.293226367513052D+02 0.636689060333861D+01 0.117657095295366D+02
 0.000000000000000D+00 -.000000000000000D+00 0.000000000000000D+00 -.000000000000000D+00
 0.125237140154356D+03 0.000000000000000D+00 0.000000000000000D+00 0.125237140154356D+03
 0.129052775272332D+03 0.000000000000000D+00 0.000000000000000D+00 -.129052775272332D+03
 0.133128241246918D+03 0.314745625428653D+02 -.220967694850953D+02 -.248839970373623D+02
 0.829600394302380D+02 0.253903446848346D+01 0.153823283259063D+02 0.131182875078257D+02
 0.315899519183191D+02 -.286287932266761D+02 0.631548413445163D+01 0.117657095295366D+02
 0.661168283121222D+01 -.538480378467268D+01 0.398957024737307D+00 -.381563511797629D+01
-.566452421468D-05 0.000000000000D+00 0.000000000000D+00 0.943319868476D-06 0.000000000000D+00  6 21 -2 25 -24 -1 21 4 0.52933800D-01 0.71827537D-02 0.15303534D+05 0.15303534D+05 0.15303534D+05 0.12468319D+01  1  2 13  2  6  2       -2 -.402329784492D-01 0.100000000000D+01
-.806626113846D-06 0.000000000000D+00 0.000000000000D+00 0.946643957292D-06 0.000000000000D+00  6 21 -2 25 -24 -1 21 4 0.52933800D-01 0.68540843D-02 0.14640088D+05 0.14640088D+05 0.14640088D+05 0.12490268D+01  1  2  8  2  6  2       -2 -.619436050118D-02 0.100000000000D+01
0.163115327957D-05 0.000000000000D+00 0.000000000000D+00 0.946643957292D-06 0.300098090597D-06  6 21 -2 25 -24 -1 21 4 0.53544097D-01 0.71443410D-02 0.15303534D+05 0.15303534D+05 0.15303534D+05 0.12468319D+01  1  2  1  2  6  2       -2 0.114056262158D-01 0.100000000000D+01
  </mgrwgt>
  </event>
  <event>
  5     66 -.41051716E-03 0.24300090E+02 0.75467711E-02 0.12192056E+00
       21 -1    0    0  501  502 0.00000000E+00 0.00000000E+00 0.20733067E+03 0.20733203E+03 0.75000000E+00 0.0000E+00 0.9000E+01
       -2 -1    0    0    0  501 0.00000000E+00 0.00000000E+00 -.11174864E+03 0.11174910E+03 0.32000000E+00 0.0000E+00 0.9000E+01
       25  1    1    2    0    0 0.39406531E+02 0.82864441E+01 -.33721345E+02 0.13558639E+03 0.12500000E+03 0.0000E+00 0.9000E+01
      -24  1    1    2    0    0 -.29372302E+02 0.13844900E+02 0.49038046E+02 0.99631116E+02 0.80419002E+02 0.0000E+00 0.9000E+01
       -1  1    1    2    0  502 -.10034229E+02 -.22131344E+02 0.80265327E+02 0.83863623E+02 0.32000000E+00 0.0000E+00 0.9000E+01
#aMCatNLO 1  0  0  1  1 0.85381113D+02 0.00000000D+00  -5  6  0 0.00000000D+00 0.00000000D+00 0.00000000D+00 0.00000000D+00 0.00000000D+00
  <mgrwgt>
 -.1907020094D+00   12    4    0
 0.152214357564221D+03 0.000000000000000D+00 0.000000000000000D+00 0.152214357564221D+03
 0.152214357564221D+03 0.000000000000000D+00 0.000000000000000D+00 -.152214357564221D+03
 0.152700046222642D+03 0.394065966337222D+02 0.828658869526438D+01 -.779150608415321D+02
 0.890298344171036D+02 -.293722638641166D+02 0.138449845511365D+02 0.201167089813880D+02
 0.626988344886969D+02 -.100343327696056D+02 -.221315732464009D+02 0.577983518601441D+02
 0.000000000000000D+00 -.000000000000000D+00 0.000000000000000D+00 0.000000000000000D+00
 0.599423143683789D+03 0.000000000000000D+00 0.000000000000000D+00 0.599423143683789D+03
 0.153227984076763D+03 0.000000000000000D+00 0.000000000000000D+00 -.153227984076763D+03
 0.156259926901431D+03 0.520802683125233D+02 0.300893698776805D+01 -.779150608415321D+02
 0.864936746254220D+02 -.221722136342355D+02 0.108466934202915D+02 0.201167089813880D+02
 0.628796628689278D+02 -.488304851315403D+01 -.242767041004165D+02 0.577983518601441D+02
 0.447017863364772D+03 -.250250061651338D+02 0.104210736923570D+02 0.446195159607026D+03
 0.152214357564221D+03 0.000000000000000D+00 0.000000000000000D+00 0.152214357564221D+03
 0.152214357564221D+03 0.000000000000000D+00 0.000000000000000D+00 -.152214357564221D+03
 0.152700046222642D+03 0.394065966337222D+02 0.828658869526438D+01 -.779150608415321D+02
 0.890298344171036D+02 -.293722638641166D+02 0.138449845511365D+02 0.201167089813880D+02
 0.000000000000000D+00 -.000000000000000D+00 0.000000000000000D+00 0.000000000000000D+00
 0.626988344886969D+02 -.100343327696056D+02 -.221315732464009D+02 0.577983518601441D+02
 0.599423143683789D+03 0.000000000000000D+00 0.000000000000000D+00 0.599423143683789D+03
 0.153227984076763D+03 0.000000000000000D+00 0.000000000000000D+00 -.153227984076763D+03
 0.156259926901431D+03 0.520802683125233D+02 0.300893698776805D+01 -.779150608415321D+02
 0.864936746254220D+02 -.221722136342355D+02 0.108466934202915D+02 0.201167089813880D+02
 0.447017863364772D+03 -.250250061651338D+02 0.104210736923570D+02 0.446195159607026D+03
 0.628796628689278D+02 -.488304851315403D+01 -.242767041004165D+02 0.577983518601441D+02
0.415797939849D-06 0.000000000000D+00 0.000000000000D+00 0.240925756024D-05 0.000000000000D+00  6 21 -2 25 -24 -1 21 2 0.31897166D-01 0.17192239D-01 0.14683808D+05 0.14683808D+05 0.14683808D+05 0.12488787D+01  1  2  2  1  6  1       21 0.131888398497D-02 0.100000000000D+01
0.441639249960D-07 0.219422601154D-07 -.839376243859D-09 0.240925756024D-05 0.000000000000D+00  6 21 -2 25 -24 -1 21 4 0.31897166D-01 0.17192239D-01 0.14683808D+05 0.14683808D+05 0.14683808D+05 0.12488787D+01  1  2  3  1  6  1       21 0.218490446950D-03 0.100000000000D+01
0.394508878168D-07 0.000000000000D+00 0.000000000000D+00 0.240925756024D-05 0.000000000000D+00  6 21 -2 25 -24 -1 21 4 0.31897166D-01 0.17192239D-01 0.14683808D+05 0.14683808D+05 0.14683808D+05 0.12488787D+01  1  2 15  1  6  1       21 0.195173823714D-03 0.100000000000D+01
-.430858073793D-03 0.000000000000D+00 -.180443407185D-05 0.240925756024D-05 0.000000000000D+00  6 21 -2 25 -24 -1 21 4 0.12577579D+00 0.17192239D-01 0.14683808D+05 0.14683808D+05 0.14683808D+05 0.12488787D+01  1  2  5  1  6  1       21 -.110241589530D+00 0.100000000000D+01
-.178704016010D-03 0.000000000000D+00 -.709062357141D-06 0.240925756024D-05 0.000000000000D+00  6 -1 -2 25 -24 -1 -1 4 0.12577579D+00 0.17192239D-01 0.14683808D+05 0.14683808D+05 0.14683808D+05 0.12488787D+01  1  2  5  4  6  1       21 -.526362007908D-02 0.100000000000D+01
-.178704016010D-03 0.000000000000D+00 -.709062357141D-06 0.240925756024D-05 0.000000000000D+00  6 1 -2 25 -24 1 -1 4 0.12577579D+00 0.17192239D-01 0.14683808D+05 0.14683808D+05 0.14683808D+05 0.12488787D+01  3  4  5  5  5  1       21 -.234958978060D-01 0.100000000000D+01
-.178704016010D-03 0.000000000000D+00 -.709062357141D-06 0.240925756024D-05 0.000000000000D+00  6 -2 -2 25 -24 -1 -2 4 0.12577579D+00 0.17192239D-01 0.14683808D+05 0.14683808D+05 0.14683808D+05 0.12488787D+01  1  2  5  6  6  1       21 -.382931326878D-02 0.100000000000D+01
-.178704016010D-03 0.000000000000D+00 -.709062357141D-06 0.240925756024D-05 0.000000000000D+00  6 2 -2 25 -24 2 -1 4 0.12577579D+00 0.17192239D-01 0.14683808D+05 0.14683808D+05 0.14683808D+05 0.12488787D+01  3  4  5  7  5  1       21 -.409666466061D-01 0.100000000000D+01
-.178704016010D-03 0.000000000000D+00 -.709062357141D-06 0.240925756024D-05 0.000000000000D+00  6 -3 -2 25 -24 -1 -3 4 0.12577579D+00 0.17192239D-01 0.14683808D+05 0.14683808D+05 0.14683808D+05 0.12488787D+01  1  2  5  8  6  1       21 -.241321760353D-02 0.100000000000D+01
-.178704016010D-03 0.000000000000D+00 -.709062357141D-06 0.240925756024D-05 0.000000000000D+00  6 -4 -2 25 -24 -1 -4 4 0.12577579D+00 0.17192239D-01 0.14683808D+05 0.14683808D+05 0.14683808D+05 0.12488787D+01  1  2  5  8  6  1       21 -.190200396144D-02 0.100000000000D+01
-.178704016010D-03 0.000000000000D+00 -.709062357141D-06 0.240925756024D-05 0.000000000000D+00  6 3 -2 25 -24 3 -1 4 0.12577579D+00 0.17192239D-01 0.14683808D+05 0.14683808D+05 0.14683808D+05 0.12488787D+01  3  4  5  9  5  1       21 -.242026485389D-02 0.100000000000D+01
-.178704016010D-03 0.000000000000D+00 -.709062357141D-06 0.240925756024D-05 0.000000000000D+00  6 4 -2 25 -24 4 -1 4 0.12577579D+00 0.17192239D-01 0.14683808D+05 0.14683808D+05 0.14683808D+05 0.12488787D+01  3  4  5  9  5  1       21 -.190200396144D-02 0.100000000000D+01
  </mgrwgt>
  </event>
  <event>
  5     66 0.41051716E-03 0.52781848E+02 0.75467711E-02 0.11801234E+00
       21 -1    0    0  501  502 0.00000000E+00 0.00000000E+00 0.16424890E+03 0.16425062E+03 0.75000000E+00 0.0000E+00 0.9000E+01
       -2 -1    0    0    0  501 0.00000000E+00 0.00000000E+00 -.16814428E+03 0.16814459E+03 0.32000000E+00 0.0000E+00 0.9000E+01
       25  1    1    2    0    0 -.32381112E+02 0.75550235E+02 -.40734464E+02 0.15505054E+03 0.12500000E+03 0.0000E+00 0.9000E+01
      -24  1    1    2    0    0 0.65007059E+02 -.34060553E+02 0.54414199E+02 0.12171343E+03 0.80419002E+02 0.0000E+00 0.9000E+01
       -1  1    1    2    0  502 -.32625947E+02 -.41489682E+02 -.17575115E+02 0.55631225E+02 0.32000000E+00 0.0000E+00 0.9000E+01
#aMCatNLO 1  0  0  2  1 0.23221161D+02 0.00000000D+00  -5  6  0 0.00000000D+00 0.00000000D+00 0.00000000D+00 0.00000000D+00 0.00000000D+00
  <mgrwgt>
 0.3302769634D-01    9    4    0
 0.166186188348674D+03 0.000000000000000D+00 0.000000000000000D+00 0.166186188348674D+03
 0.166186188348674D+03 0.000000000000000D+00 0.000000000000000D+00 -.166186188348674D+03
 0.154583858046799D+03 -.323808590658901D+02 0.755505569512406D+02 -.389199496292723D+02
 0.122359606209724D+03 0.650072592519255D+02 -.340602988183689D+02 0.558445124106611D+02
 0.554289124408267D+02 -.326264001860354D+02 -.414902581328717D+02 -.169245627813888D+02
 0.000000000000000D+00 -.000000000000000D+00 -.000000000000000D+00 -.000000000000000D+00
 0.173790709013485D+03 0.000000000000000D+00 0.000000000000000D+00 0.173790709013485D+03
 0.185315763477339D+03 0.000000000000000D+00 0.000000000000000D+00 -.185315763477339D+03
 0.153003203026311D+03 -.216666493624242D+02 0.761628122023555D+02 -.389199496292723D+02
 0.127056435512149D+03 0.736951922393972D+02 -.335638335876023D+02 0.558445124106611D+02
 0.531229226613618D+02 -.288452036658591D+02 -.412741845736407D+02 -.169245627813888D+02
 0.259239112910019D+02 -.231833392111138D+02 -.132479404111249D+01 -.115250544638540D+02
 0.166186188348674D+03 0.000000000000000D+00 0.000000000000000D+00 0.166186188348674D+03
 0.166186188348674D+03 0.000000000000000D+00 0.000000000000000D+00 -.166186188348674D+03
 0.154583858046799D+03 -.323808590658901D+02 0.755505569512406D+02 -.389199496292723D+02
 0.122359606209724D+03 0.650072592519255D+02 -.340602988183689D+02 0.558445124106611D+02
 0.000000000000000D+00 -.000000000000000D+00 -.000000000000000D+00 -.000000000000000D+00
 0.554289124408267D+02 -.326264001860354D+02 -.414902581328717D+02 -.169245627813888D+02
 0.173790709013485D+03 0.000000000000000D+00 0.000000000000000D+00 0.173790709013485D+03
 0.185315763477339D+03 0.000000000000000D+00 0.000000000000000D+00 -.185315763477339D+03
 0.153003203026311D+03 -.216666493624242D+02 0.761628122023555D+02 -.389199496292723D+02
 0.127056435512149D+03 0.736951922393972D+02 -.335638335876023D+02 0.558445124106611D+02
 0.259239112910019D+02 -.231833392111138D+02 -.132479404111249D+01 -.115250544638540D+02
 0.531229226613618D+02 -.288452036658591D+02 -.412741845736407D+02 -.169245627813888D+02
0.197145804083D-05 0.000000000000D+00 0.000000000000D+00 0.194012829710D-06 0.000000000000D+00  6 21 -2 25 -24 -1 21 2 0.25269217D-01 0.25868506D-01 0.24220496D+05 0.24220496D+05 0.24220496D+05 0.12247753D+01  1  2  2  2  6  2       -2 0.469720944936D-02 0.100000000000D+01
-.118528413613D-06 0.104036699061D-06 -.397980578219D-08 0.194012829710D-06 0.000000000000D+00  6 21 -2 25 -24 -1 21 4 0.25269217D-01 0.25868506D-01 0.24220496D+05 0.24220496D+05 0.24220496D+05 0.12247753D+01  1  2  3  2  6  2       -2 -.423630976639D-03 0.100000000000D+01
0.209096050806D-06 0.000000000000D+00 0.000000000000D+00 0.194012829710D-06 0.000000000000D+00  6 21 -2 25 -24 -1 21 4 0.25269217D-01 0.25868506D-01 0.24220496D+05 0.24220496D+05 0.24220496D+05 0.12247753D+01  1  2 15  2  6  2       -2 0.747327678775D-03 0.100000000000D+01
0.873157378622D-05 0.000000000000D+00 0.000000000000D+00 0.191802774292D-06 0.000000000000D+00  6 21 -2 25 -24 -1 21 4 0.25269217D-01 0.29387890D-01 0.28168957D+05 0.28168957D+05 0.28168957D+05 0.12177795D+01  1  2 12  2  6  2       -2 0.243012790113D-01 0.100000000000D+01
-.164579721102D-05 0.000000000000D+00 0.000000000000D+00 0.194012829710D-06 0.000000000000D+00  6 21 -2 25 -24 -1 21 4 0.25269217D-01 0.25868506D-01 0.24220496D+05 0.24220496D+05 0.24220496D+05 0.12247753D+01  1  2  4  2  6  2       -2 -.588222400524D-02 0.100000000000D+01
-.209625983028D-04 0.000000000000D+00 -.447840559633D-05 0.194012829710D-06 0.000000000000D+00  6 21 -2 25 -24 -1 21 4 0.25269217D-01 0.30044986D-01 0.24220496D+05 0.24220496D+05 0.24220496D+05 0.12247753D+01  1  2  5  2  6  2       -2 -.573830426555D-01 0.100000000000D+01
0.214419664863D-04 0.000000000000D+00 0.442870923285D-05 0.194012829710D-06 0.000000000000D+00  6 21 -2 25 -24 -1 21 4 0.25269217D-01 0.25868506D-01 0.24220496D+05 0.24220496D+05 0.24220496D+05 0.12247753D+01  1  2  6  2  6  2       -2 0.766354743709D-01 0.100000000000D+01
0.174355779578D-06 0.000000000000D+00 0.000000000000D+00 0.191802774292D-06 0.000000000000D+00  6 21 21 25 -24 2 -1 4 0.25269217D-01 0.29387890D-01 0.28168957D+05 0.28168957D+05 0.28168957D+05 0.12177795D+01  3  4 12 10  5  2       -2 0.636169937084D-02 0.100000000000D+01
-.446364433711D-06 0.000000000000D+00 -.101974495248D-06 0.194012829710D-06 0.000000000000D+00  6 21 21 25 -24 2 -1 4 0.25269217D-01 0.30044986D-01 0.24220496D+05 0.24220496D+05 0.24220496D+05 0.12247753D+01  3  4  5 10  5  2       -2 -.160263959034D-01 0.100000000000D+01
  </mgrwgt>
  </event>
  <event>
  5     66 0.41051716E-03 0.22538386E+02 0.75467711E-02 0.10592283E+00
       21 -1    0    0  501  502 0.00000000E+00 0.00000000E+00 0.57353004E+03 0.57353054E+03 0.75000000E+00 0.0000E+00 0.9000E+01
       -2 -1    0    0    0  501 0.00000000E+00 0.00000000E+00 -.39648881E+02 0.39650172E+02 0.32000000E+00 0.0000E+00 0.9000E+01
       25  1    1    2    0    0 0.28192557E+02 -.33343005E+02 0.21515122E+03 0.25262942E+03 0.12500000E+03 0.0000E+00 0.9000E+01
      -24  1    1    2    0    0 -.66234234E+01 0.39880721E+02 0.78989333E+02 0.11975338E+03 0.80419002E+02 0.0000E+00 0.9000E+01
       -1  1    1    2    0  502 -.21569134E+02 -.65377161E+01 0.23974061E+03 0.24079790E+03 0.32000000E+00 0.0000E+00 0.9000E+01
#aMCatNLO 1  0  0  1  1 0.38888586D+03 0.00000000D+00  -5  6  0 0.00000000D+00 0.00000000D+00 0.00000000D+00 0.00000000D+00 0.00000000D+00
  <mgrwgt>
 0.6011541064D-01    3    2    0
 0.150799107135406D+03 0.000000000000000D+00 0.000000000000000D+00 0.150799107135406D+03
 0.150799107135406D+03 0.000000000000000D+00 0.000000000000000D+00 -.150799107135406D+03
 0.132767080543593D+03 0.281926713632571D+02 -.333429699995004D+02 -.977329571253370D+01
 0.103646453210284D+03 -.662333403634621D+01 0.398807478300983D+02 -.513909399355192D+02
 0.651846805169349D+02 -.215693373269109D+02 -.653777783059790D+01 0.611642356480529D+02
 0.000000000000000D+00 -.000000000000000D+00 0.000000000000000D+00 -.000000000000000D+00
 0.240051059657238D+03 0.000000000000000D+00 0.000000000000000D+00 0.240051059657238D+03
 0.139655635368690D+04 0.000000000000000D+00 0.000000000000000D+00 -.139655635368690D+04
 0.238179711119577D+03 0.116879654758143D+03 -.165372923368784D+03 -.977329571253370D+01
 0.111675997320951D+03 0.448565520928474D+02 -.367583113070225D+02 -.513909399355192D+02
 0.876165898853613D+02 0.149628123922623D+02 -.609238651600751D+02 0.611642356480529D+02
 0.119913511501825D+04 -.176699019243252D+03 0.263055099835882D+03 -.115650529402966D+04
0.227372379178D-04 0.000000000000D+00 0.000000000000D+00 0.332552387463D-05 0.000000000000D+00  6 21 -2 25 -24 -1 21 2 0.88235529D-01 0.60999649D-02 0.15000606D+05 0.15000606D+05 0.15000606D+05 0.12478205D+01  1  2  2  1  6  1       21 0.440009987909D-01 0.100000000000D+01
0.307682527837D-05 0.119987700968D-05 -.458999324674D-07 0.332552387463D-05 0.000000000000D+00  6 21 -2 25 -24 -1 21 4 0.88235529D-01 0.60999649D-02 0.15000606D+05 0.15000606D+05 0.15000606D+05 0.12478205D+01  1  2  3  1  6  1       21 0.927111397482D-02 0.100000000000D+01
0.227110053136D-05 0.000000000000D+00 0.000000000000D+00 0.332552387463D-05 0.000000000000D+00  6 21 -2 25 -24 -1 21 4 0.88235529D-01 0.60999649D-02 0.15000606D+05 0.15000606D+05 0.15000606D+05 0.12478205D+01  1  2 15  1  6  1       21 0.684329787021D-02 0.100000000000D+01
  </mgrwgt>
  </event>
  <event>
  5     66 0.41051716E-03 0.27525626E+02 0.75467711E-02 0.11777846E+00
       21 -1    0    0  501  502 0.00000000E+00 0.00000000E+00 0.19957725E+03 0.19957865E+03 0.75000000E+00 0.0000E+00 0.9000E+01
       -2 -1    0    0    0  501 0.00000000E+00 0.00000000E+00 -.27404014E+03 0.27404032E+03 0.32000000E+00 0.0000E+00 0.9000E+01
       25  1    1    2    0    0 -.77469794E+01 -.77259749E+02 -.10187075E+03 0.17897411E+03 0.12500000E+03 0.0000E+00 0.9000E+01
      -24  1    1    2    0    0 0.78623972E+01 0.49734397E+02 -.11529187E+03 0.14931430E+03 0.80419002E+02 0.0000E+00 0.9000E+01
       -1  1    1    2    0  502 -.11541780E+00 0.27525353E+02 0.14269973E+03 0.14533057E+03 0.32000000E+00 0.0000E+00 0.9000E+01
#aMCatNLO 1  0  0  1  2 0.13872095D+00 0.00000000D+00  -5  6  0 0.00000000D+00 0.00000000D+00 0.00000000D+00 0.00000000D+00 0.00000000D+00
  <mgrwgt>
 0.5208836270D-01   14    4    0
 0.233864391178624D+03 0.000000000000000D+00 0.000000000000000D+00 0.233864391178624D+03
 0.233864391178624D+03 0.000000000000000D+00 0.000000000000000D+00 -.233864391178624D+03
 0.165010099442347D+03 -.774697931896016D+01 -.772597666386455D+02 -.746608712000253D+02
 0.132840111938382D+03 0.786239724560888D+01 0.497343830394806D+02 -.929728629152928D+02
 0.169878570976519D+03 -.115417926648724D+00 0.275253835991649D+02 0.167633734115318D+03
 0.000000000000000D+00 0.000000000000000D+00 -.000000000000000D+00 0.000000000000000D+00
 0.406272019426693D+03 0.000000000000000D+00 0.000000000000000D+00 0.406272019426693D+03
 0.239196672612193D+03 0.000000000000000D+00 0.000000000000000D+00 -.239196672612193D+03
 0.157835004434955D+03 -.114122323425390D+02 -.598531861273505D+02 -.746608712000253D+02
 0.138849373955421D+03 0.477791277399275D+01 0.643828471279438D+02 -.929728629152928D+02
 0.173892957293940D+03 -.401824816406338D+01 0.460602373493549D+02 0.167633734115318D+03
 0.174891356354570D+03 0.106525677326096D+02 -.505898983499482D+02 0.167075346814500D+03
 0.233864391178624D+03 0.000000000000000D+00 0.000000000000000D+00 0.233864391178624D+03
 0.233864391178624D+03 0.000000000000000D+00 0.000000000000000D+00 -.233864391178624D+03
 0.165010099442347D+03 -.774697931896016D+01 -.772597666386455D+02 -.746608712000253D+02
 0.132840111938382D+03 0.786239724560888D+01 0.497343830394806D+02 -.929728629152928D+02
 0.000000000000000D+00 0.000000000000000D+00 -.000000000000000D+00 0.000000000000000D+00
 0.169878570976519D+03 -.115417926648724D+00 0.275253835991649D+02 0.167633734115318D+03
 0.406272019426693D+03 0.000000000000000D+00 0.000000000000000D+00 0.406272019426693D+03
 0.239196672612193D+03 0.000000000000000D+00 0.000000000000000D+00 -.239196672612193D+03
 0.157835004434955D+03 -.114122323425390D+02 -.598531861273505D+02 -.746608712000253D+02
 0.138849373955421D+03 0.477791277399275D+01 0.643828471279438D+02 -.929728629152928D+02
 0.174891356354570D+03 0.106525677326096D+02 -.505898983499482D+02 0.167075346814500D+03
 0.173892957293940D+03 -.401824816406338D+01 0.460602373493549D+02 0.167633734115318D+03
0.184216636555D-04 0.000000000000D+00 0.000000000000D+00 0.875889723770D-05 0.000000000000D+00  6 21 -2 25 -24 -1 21 2 0.30704314D-01 0.42160144D-01 0.18165733D+05 0.18165733D+05 0.18165733D+05 0.12384520D+01  1  2  2  1  6  1       21 0.126338342398D-01 0.100000000000D+01
0.431488338631D-05 0.972137899083D-06 -.371880314040D-07 0.875889723770D-05 0.000000000000D+00  6 21 -2 25 -24 -1 21 4 0.30704314D-01 0.42160144D-01 0.18165733D+05 0.18165733D+05 0.18165733D+05 0.12384520D+01  1  2  3  1  6  1       21 0.453872384592D-02 0.100000000000D+01
0.177964391990D-05 0.000000000000D+00 0.000000000000D+00 0.875889723770D-05 0.000000000000D+00  6 21 -2 25 -24 -1 21 4 0.30704314D-01 0.42160144D-01 0.18165733D+05 0.18165733D+05 0.18165733D+05 0.12384520D+01  1  2 15  1  6  1       21 0.187196537504D-02 0.100000000000D+01
-.609910783393D-04 0.000000000000D+00 0.000000000000D+00 0.875889723770D-05 0.000000000000D+00  6 21 -2 25 -24 -1 21 4 0.30704314D-01 0.42160144D-01 0.18165733D+05 0.18165733D+05 0.18165733D+05 0.12384520D+01  1  2  4  1  6  1       21 -.641550736979D-01 0.100000000000D+01
-.241577836232D-03 0.000000000000D+00 -.238677490780D-04 0.875889723770D-05 0.000000000000D+00  6 21 -2 25 -24 -1 21 4 0.53968395D-01 0.42160144D-01 0.18165733D+05 0.18165733D+05 0.18165733D+05 0.12384520D+01  1  2  5  1  6  1       21 -.818660998343D-01 0.100000000000D+01
0.179931934607D-03 0.000000000000D+00 0.135619850265D-04 0.875889723770D-05 0.000000000000D+00  6 21 -2 25 -24 -1 21 4 0.30704314D-01 0.42160144D-01 0.18165733D+05 0.18165733D+05 0.18165733D+05 0.12384520D+01  1  2  6  1  6  1       21 0.189266149077D+00 0.100000000000D+01
-.317737654398D-04 0.000000000000D+00 -.475944314832D-05 0.875889723770D-05 0.000000000000D+00  6 -1 -2 25 -24 -1 -1 4 0.53968395D-01 0.42160144D-01 0.18165733D+05 0.18165733D+05 0.18165733D+05 0.12384520D+01  1  2  5  4  6  1       21 -.107502086097D-02 0.100000000000D+01
-.317737654398D-04 0.000000000000D+00 -.475944314832D-05 0.875889723770D-05 0.000000000000D+00  6 1 -2 25 -24 1 -1 4 0.53968395D-01 0.42160144D-01 0.18165733D+05 0.18165733D+05 0.18165733D+05 0.12384520D+01  3  4  5  5  5  1       21 -.256279521437D-02 0.100000000000D+01
-.317737654398D-04 0.000000000000D+00 -.475944314832D-05 0.875889723770D-05 0.000000000000D+00  6 -2 -2 25 -24 -1 -2 4 0.53968395D-01 0.42160144D-01 0.18165733D+05 0.18165733D+05 0.18165733D+05 0.12384520D+01  1  2  5  6  6  1       21 -.869215887173D-03 0.100000000000D+01
-.317737654398D-04 0.000000000000D+00 -.475944314832D-05 0.875889723770D-05 0.000000000000D+00  6 2 -2 25 -24 2 -1 4 0.53968395D-01 0.42160144D-01 0.18165733D+05 0.18165733D+05 0.18165733D+05 0.12384520D+01  3  4  5  7  5  1       21 -.372469462921D-02 0.100000000000D+01
-.317737654398D-04 0.000000000000D+00 -.475944314832D-05 0.875889723770D-05 0.000000000000D+00  6 -3 -2 25 -24 -1 -3 4 0.53968395D-01 0.42160144D-01 0.18165733D+05 0.18165733D+05 0.18165733D+05 0.12384520D+01  1  2  5  8  6  1       21 -.541570144360D-03 0.100000000000D+01
-.317737654398D-04 0.000000000000D+00 -.475944314832D-05 0.875889723770D-05 0.000000000000D+00  6 -4 -2 25 -24 -1 -4 4 0.53968395D-01 0.42160144D-01 0.18165733D+05 0.18165733D+05 0.18165733D+05 0.12384520D+01  1  2  5  8  6  1       21 -.442996596364D-03 0.100000000000D+01
-.317737654398D-04 0.000000000000D+00 -.475944314832D-05 0.875889723770D-05 0.000000000000D+00  6 3 -2 25 -24 3 -1 4 0.53968395D-01 0.42160144D-01 0.18165733D+05 0.18165733D+05 0.18165733D+05 0.12384520D+01  3  4  5  9  5  1       21 -.541846375333D-03 0.100000000000D+01
-.317737654398D-04 0.000000000000D+00 -.475944314832D-05 0.875889723770D-05 0.000000000000D+00  6 4 -2 25 -24 4 -1 4 0.53968395D-01 0.42160144D-01 0.18165733D+05 0.18165733D+05 0.18165733D+05 0.12384520D+01  3  4  5  9  5  1       21 -.442996596364D-03 0.100000000000D+01
  </mgrwgt>
  </event>
  <event>
  6     66 0.41051716E-03 0.12116701E+03 0.75467711E-02 0.11453281E+00
        1 -1    0    0  501    0 0.00000000E+00 0.00000000E+00 0.45046282E+03 0.45046293E+03 0.32000000E+00 0.0000E+00 0.9000E+01
       -2 -1    0    0    0  501 0.00000000E+00 0.00000000E+00 -.22701156E+03 0.22701178E+03 0.32000000E+00 0.0000E+00 0.9000E+01
       25  1    1    2    0    0 0.97617893E+02 -.46648141E+01 0.68451011E+01 0.15881709E+03 0.12500000E+03 0.0000E+00 0.9000E+01
      -24  1    1    2    0    0 0.40290738E+02 -.16353041E+02 -.50918618E+02 0.10464553E+03 0.80419002E+02 0.0000E+00 0.9000E+01
        1  1    1    2  502    0 -.13748002E+03 -.20271193E+01 0.32456648E+03 0.35248882E+03 0.32000000E+00 0.0000E+00 0.9000E+01
       -1  1    1    2    0  502 -.42860846E+00 0.23044974E+02 -.57041703E+02 0.61523270E+02 0.32000000E+00 0.0000E+00 0.9000E+01
#aMCatNLO 2  0  0  1  1 0.13749497D+03 0.00000000D+00  -5  6  0 0.00000000D+00 0.00000000D+00 0.00000000D+00 0.00000000D+00 0.00000000D+00
  <mgrwgt>
 0.9259773834D-03    1    2    0
 0.138281124531625D+03 0.000000000000000D+00 0.000000000000000D+00 0.138281124531625D+03
 0.138281124531625D+03 0.000000000000000D+00 0.000000000000000D+00 -.138281124531625D+03
 0.140635477548346D+03 0.248202433689285D+02 -.573842931559456D+01 0.591976645937011D+02
 0.844426311151516D+02 -.148345080344794D+01 -.169691298697339D+02 -.193181262149537D+02
 0.000000000000000D+00 -.000000000000000D+00 -.000000000000000D+00 0.000000000000000D+00
 0.514841403997527D+02 -.233367925654806D+02 0.227075591853285D+02 -.398795383787474D+02
 0.621465053107427D+03 0.000000000000000D+00 0.000000000000000D+00 0.621465053107427D+03
 0.164547173780578D+03 0.000000000000000D+00 0.000000000000000D+00 -.164547173780578D+03
 0.169353033188688D+03 0.976182554849837D+02 -.466503514768547D+01 0.591976645937011D+02
 0.934408211458686D+02 0.402908771616574D+02 -.163531745887768D+02 -.193181262149537D+02
 0.477157012320841D+03 -.137480023078887D+03 -.202711929470858D+01 0.456917879326849D+03
 0.460613602326076D+02 -.429109567754356D+00 0.230453290311708D+02 -.398795383787474D+02
0.125947310744D-04 0.000000000000D+00 0.000000000000D+00 0.288801488170D-06 0.529346363736D-09  6 1 -2 25 -24 1 -1 4 0.69301977D-01 0.34924870D-01 0.42155504D+05 0.42155504D+05 0.42155504D+05 0.11996924D+01  1  2  1  5  5  1       21 0.925977383370D-03 0.100000000000D+01
  </mgrwgt>
  </event>
  <event>
  5     66 -.41051716E-03 0.75955252E+02 0.75467711E-02 0.10583871E+00
       21 -1    0    0  501  502 0.00000000E+00 0.00000000E+00 0.39624488E+03 0.39624559E+03 0.75000000E+00 0.0000E+00 0.9000E+01
       -2 -1    0    0    0  501 -.00000000E+00 -.00000000E+00 -.41914476E+03 0.41914489E+03 0.32000000E+00 0.0000E+00 0.9000E+01
       25  1    1    2    0    0 -.31779059E+03 -.50372913E+02 0.12197460E+03 0.36610257E+03 0.12500000E+03 0.0000E+00 0.9000E+01
      -24  1    1    2    0    0 0.31294168E+03 -.25427169E+02 -.50300083E+02 0.32798834E+03 0.80419002E+02 0.0000E+00 0.9000E+01
       -1  1    1    2    0  502 0.48489123E+01 0.75800082E+02 -.94574403E+02 0.12129957E+03 0.32000000E+00 0.0000E+00 0.9000E+01
#aMCatNLO 1  0  0  5  1 0.47143955D+02 0.00000000D+00  -5  6  0 0.00000000D+00 0.00000000D+00 0.00000000D+00 0.00000000D+00 0.00000000D+00
  <mgrwgt>
 -.5962479883D-01    5    2    0
 0.407534420542636D+03 0.000000000000000D+00 0.000000000000000D+00 0.407534420542636D+03
 0.407534420542636D+03 -.000000000000000D+00 -.000000000000000D+00 -.407534420542636D+03
 0.369674068943727D+03 -.317790597506921D+03 -.503730378605711D+02 0.132308769332584D+03
 0.326704533444214D+03 0.312941670103579D+03 -.254272799235782D+02 -.411047535827910D+02
 0.118690238697331D+03 0.484892740334211D+01 0.758003177841492D+02 -.912040157497928D+02
 0.000000000000000D+00 0.000000000000000D+00 0.000000000000000D+00 0.000000000000000D+00
 0.407534420542636D+03 0.000000000000000D+00 0.000000000000000D+00 0.407534420542636D+03
 0.407534420542636D+03 -.000000000000000D+00 -.000000000000000D+00 -.407534420542636D+03
 0.361711440721315D+03 -.316916698907927D+03 -.367119153060935D+02 0.115871513222835D+03
 0.328910889144927D+03 0.313725034542316D+03 -.131814225498141D+02 -.558391425858415D+02
 0.711796310914701D+02 0.125476468064243D+00 -.211047715714737D+01 -.711482257273004D+02
 0.532668801275596D+02 0.306618789754751D+01 0.520038150130548D+02 0.111158550903072D+02
0.720700777148D-03 0.000000000000D+00 0.000000000000D+00 0.206368658678D-07 0.000000000000D+00  6 21 -2 25 -24 -1 21 2 0.60960814D-01 0.64483874D-01 0.13884922D+06 0.13884922D+06 0.13884922D+06 0.11507001D+01  1  2  2  3  6  5       -1 0.417442005702D-01 0.100000000000D+01
-.490940458349D-04 0.380324248920D-04 -.145488722596D-05 0.206368658678D-07 0.000000000000D+00  6 21 -2 25 -24 -1 21 4 0.60960814D-01 0.64483874D-01 0.13884922D+06 0.13884922D+06 0.13884922D+06 0.11507001D+01  1  2  3  3  6  5       -1 -.376525401519D-02 0.100000000000D+01
0.780001055012D-04 0.000000000000D+00 0.000000000000D+00 0.206368658678D-07 0.000000000000D+00  6 21 -2 25 -24 -1 21 4 0.60960814D-01 0.64483874D-01 0.13884922D+06 0.13884922D+06 0.13884922D+06 0.11507001D+01  1  2 15  3  6  5       -1 0.598219611827D-02 0.100000000000D+01
0.329627605283D-03 0.000000000000D+00 0.000000000000D+00 0.207287851840D-07 0.000000000000D+00  6 21 -2 25 -24 -1 21 4 0.60960814D-01 0.64483874D-01 0.12995829D+06 0.12995829D+06 0.12995829D+06 0.11532599D+01  1  2 12  3  6  5       -1 0.255816257394D-01 0.100000000000D+01
-.168417813010D-02 0.000000000000D+00 0.000000000000D+00 0.206368658678D-07 0.000000000000D+00  6 21 -2 25 -24 -1 21 4 0.60960814D-01 0.64483874D-01 0.13884922D+06 0.13884922D+06 0.13884922D+06 0.11507001D+01  1  2  4  3  6  5       -1 -.129167567244D+00 0.100000000000D+01
  </mgrwgt>
  </event>
  <event>
  6     66 0.41051716E-03 0.29027840E+02 0.75467711E-02 0.11981311E+00
        1 -1    0    0  501    0 0.00000000E+00 0.00000000E+00 0.11050978E+04 0.11050978E+04 0.32000000E+00 0.0000E+00 0.9000E+01
       -4 -1    0    0    0  501 0.00000000E+00 0.00000000E+00 -.15258666E+03 0.15259453E+03 0.15500000E+01 0.0000E+00 0.9000E+01
       25  1    1    2    0    0 0.56750744E+02 0.82905813E+02 -.13010545E+02 0.16089840E+03 0.12500000E+03 0.0000E+00 0.9000E+01
      -24  1    1    2    0    0 -.34663277E+02 -.64763206E+02 -.19049491E+02 0.11057086E+03 0.80419002E+02 0.0000E+00 0.9000E+01
        1  1    1    2  502    0 -.25639232E+02 -.17193105E+02 0.97924760E+03 0.97973412E+03 0.32000000E+00 0.0000E+00 0.9000E+01
       -3  1    1    2    0  502 0.35517655E+01 -.94950145E+00 0.53235750E+01 0.64889939E+01 0.50000000E+00 0.0000E+00 0.9000E+01
#aMCatNLO 2  0  0  1  1 0.37231482D+02 0.00000000D+00  -5  6  0 0.00000000D+00 0.00000000D+00 0.00000000D+00 0.00000000D+00 0.00000000D+00
  <mgrwgt>
 0.3029994899D-02    1    2    0
 0.137470886333500D+03 0.000000000000000D+00 0.000000000000000D+00 0.137470886333500D+03
 0.137470886333500D+03 0.000000000000000D+00 0.000000000000000D+00 -.137470886333500D+03
 0.150921514661395D+03 0.422764173890427D+02 0.732046020932775D+02 0.246867430054131D+01
 0.117214677776156D+03 -.451925900662927D+02 -.718200833364265D+02 -.845991515597790D+01
 0.000000000000000D+00 -.000000000000000D+00 -.000000000000000D+00 0.000000000000000D+00
 0.680558022944876D+01 0.291617267724995D+01 -.138451875685106D+01 0.599124085543657D+01
 0.121704321821664D+04 0.000000000000000D+00 0.000000000000000D+00 0.121704321821664D+04
 0.138555554811592D+03 0.000000000000000D+00 0.000000000000000D+00 -.138555554811592D+03
 0.160390006587766D+03 0.567463718327611D+02 0.829078352403400D+02 0.246867430054131D+01
 0.109245676164012D+03 -.346665710109301D+02 -.647615665040570D+02 -.845991515597790D+01
 0.107892938286628D+04 -.256392322544120D+02 -.171931051506693D+02 0.107848766340505D+04
 0.703370741018122D+01 0.355943143258103D+01 -.953163585613711D+00 0.599124085543657D+01
0.125887379302D-03 0.000000000000D+00 0.000000000000D+00 0.165366976008D-04 0.690718121523D-06  6 1 -4 25 -24 1 -3 4 0.17001563D+00 0.23475475D-01 0.23080253D+05 0.23080253D+05 0.23080253D+05 0.12270354D+01  1  2  1  9  5  1       21 0.302999489886D-02 0.100000000000D+01
  </mgrwgt>
  </event>
  <event>
  5     66 0.41051716E-03 0.74339241E+02 0.75467711E-02 0.11820772E+00
       21 -1    0    0  501  502 0.00000000E+00 0.00000000E+00 0.68363787E+02 0.68367901E+02 0.75000000E+00 0.0000E+00 0.9000E+01
       -4 -1    0    0    0  501 0.00000000E+00 0.00000000E+00 -.80063948E+03 0.80064098E+03 0.15500000E+01 0.0000E+00 0.9000E+01
       25  1    1    2    0    0 0.57760804E+02 0.74460483E+02 -.60128512E+03 0.62132879E+03 0.12500000E+03 0.0000E+00 0.9000E+01
      -24  1    1    2    0    0 0.15173528E+02 -.58822542E+02 -.14004356E+03 0.17253910E+03 0.80419002E+02 0.0000E+00 0.9000E+01
       -3  1    1    2    0  502 -.72934332E+02 -.15637941E+02 0.90529817E+01 0.75140991E+02 0.50000000E+00 0.0000E+00 0.9000E+01
#aMCatNLO 1  0  0  1  1 0.95829537D-01 0.00000000D+00  -5  6  0 0.00000000D+00 0.00000000D+00 0.00000000D+00 0.00000000D+00 0.00000000D+00
  <mgrwgt>
 0.6532006470D-02   23    4    0
 0.233959797262839D+03 0.000000000000000D+00 0.000000000000000D+00 0.233959797262839D+03
 0.233959797262839D+03 0.000000000000000D+00 0.000000000000000D+00 -.233959797262839D+03
 0.212929516344162D+03 0.577609795580095D+02 0.744605206941028D+02 -.144337379181628D+03
 0.101272766643879D+03 0.151736117649419D+02 -.588225236743954D+02 0.993123979757628D+01
 0.153717311537638D+03 -.729345913229514D+02 -.156379970197074D+02 0.134406139384051D+03
 0.000000000000000D+00 -.000000000000000D+00 -.000000000000000D+00 0.000000000000000D+00
 0.234063360346698D+03 0.000000000000000D+00 0.000000000000000D+00 0.234063360346698D+03
 0.233981971592158D+03 0.000000000000000D+00 0.000000000000000D+00 -.233981971592158D+03
 0.212947868040792D+03 0.577756985785766D+02 0.745015713113151D+02 -.144337379181628D+03
 0.101262477729474D+03 0.151806117150139D+02 -.588030011613585D+02 0.993123979757628D+01
 0.153709258568317D+03 -.729239661567083D+02 -.156083639588475D+02 0.134406139384051D+03
 0.125727600273692D+00 -.323441368822956D-01 -.902061911091077D-01 0.813887545396024D-01
 0.233959797262839D+03 0.000000000000000D+00 0.000000000000000D+00 0.233959797262839D+03
 0.233959797262839D+03 0.000000000000000D+00 0.000000000000000D+00 -.233959797262839D+03
 0.212929516344162D+03 0.577609795580095D+02 0.744605206941028D+02 -.144337379181628D+03
 0.101272766643879D+03 0.151736117649419D+02 -.588225236743954D+02 0.993123979757628D+01
 0.000000000000000D+00 -.000000000000000D+00 -.000000000000000D+00 0.000000000000000D+00
 0.153717311537638D+03 -.729345913229514D+02 -.156379970197074D+02 0.134406139384051D+03
 0.234063360346698D+03 0.000000000000000D+00 0.000000000000000D+00 0.234063360346698D+03
 0.233981971592158D+03 0.000000000000000D+00 0.000000000000000D+00 -.233981971592158D+03
 0.212947868040792D+03 0.577756985785766D+02 0.745015713113151D+02 -.144337379181628D+03
 0.101262477729474D+03 0.151806117150139D+02 -.588030011613585D+02 0.993123979757628D+01
 0.125727600273692D+00 -.323441368822956D-01 -.902061911091077D-01 0.813887545396024D-01
 0.153709258568317D+03 -.729239661567083D+02 -.156083639588475D+02 0.134406139384051D+03
0.188902502835D-05 0.000000000000D+00 0.000000000000D+00 0.575767962452D-06 0.000000000000D+00  6 21 -4 25 -24 -3 21 2 0.10517938D-01 0.12317574D+00 0.27542695D+05 0.27542695D+05 0.27542695D+05 0.12188131D+01  1  2  2  1  6  1       21 0.453572431193D-03 0.100000000000D+01
0.241122122836D-07 0.996865894803D-07 -.381339728000D-08 0.575767962452D-06 0.000000000000D+00  6 21 -4 25 -24 -3 21 4 0.10517938D-01 0.12317574D+00 0.27542695D+05 0.27542695D+05 0.27542695D+05 0.12188131D+01  1  2  3  1  6  1       21 0.860043165708D-05 0.100000000000D+01
0.176983676108D-06 0.000000000000D+00 0.000000000000D+00 0.575767962452D-06 0.000000000000D+00  6 21 -4 25 -24 -3 21 4 0.10517938D-01 0.12317574D+00 0.27542695D+05 0.27542695D+05 0.27542695D+05 0.12188131D+01  1  2 15  1  6  1       21 0.631271818978D-04 0.100000000000D+01
-.565642345952D-03 0.000000000000D+00 0.000000000000D+00 0.575767962452D-06 0.000000000000D+00  6 21 -4 25 -24 -3 21 4 0.10517938D-01 0.12317574D+00 0.27542695D+05 0.27542695D+05 0.27542695D+05 0.12188131D+01  1  2  4  1  6  1       21 -.201755371158D+00 0.100000000000D+01
-.189654639605D-01 0.000000000000D+00 -.114753114028D-02 0.575767962452D-06 0.000000000000D+00  6 21 -4 25 -24 -3 21 4 0.10523550D-01 0.12317574D+00 0.27542695D+05 0.27542695D+05 0.27542695D+05 0.12188131D+01  1  2  5  1  6  1       21 -.675829979302D+01 0.100000000000D+01
0.189660648740D-01 0.000000000000D+00 0.114753048721D-02 0.575767962452D-06 0.000000000000D+00  6 21 -4 25 -24 -3 21 4 0.10517938D-01 0.12317574D+00 0.27542695D+05 0.27542695D+05 0.27542695D+05 0.12188131D+01  1  2  6  1  6  1       21 0.676488506462D+01 0.100000000000D+01
0.565454100694D-03 0.000000000000D+00 0.000000000000D+00 0.575767962452D-06 0.714583727076D-03  6 21 -4 25 -24 -3 21 4 0.10522593D-01 0.12318741D+00 0.27558274D+05 0.27558274D+05 0.27558274D+05 0.12187871D+01  1  2 11  1  6  1       21 0.201468532271D+00 0.100000000000D+01
-.211418358317D-05 0.000000000000D+00 -.136138544291D-06 0.575767962452D-06 0.000000000000D+00  6 -3 -4 25 -24 -3 -3 4 0.10523550D-01 0.12317574D+00 0.27542695D+05 0.27542695D+05 0.27542695D+05 0.12188131D+01  1  2  5  4  6  1       21 -.334885212648D-04 0.100000000000D+01
0.388188653776D-06 0.000000000000D+00 0.000000000000D+00 0.575767962452D-06 0.549248435186D-07  6 -3 -4 25 -24 -3 -3 4 0.10522593D-01 0.12318741D+00 0.27558274D+05 0.27558274D+05 0.27558274D+05 0.12187871D+01  1  2 11  4  6  1       21 0.614806144043D-05 0.100000000000D+01
-.211418358317D-05 0.000000000000D+00 -.136138544291D-06 0.575767962452D-06 0.000000000000D+00  6 3 -4 25 -24 3 -3 4 0.10523550D-01 0.12317574D+00 0.27542695D+05 0.27542695D+05 0.27542695D+05 0.12188131D+01  3  4  5  5  5  1       21 -.334843852112D-04 0.100000000000D+01
0.706700586365D-06 0.000000000000D+00 0.000000000000D+00 0.575767962452D-06 0.873243320159D-06  6 3 -4 25 -24 3 -3 4 0.10522593D-01 0.12318741D+00 0.27558274D+05 0.27558274D+05 0.27558274D+05 0.12187871D+01  3  4 11  5  5  1       21 0.111912133440D-04 0.100000000000D+01
-.211418358317D-05 0.000000000000D+00 -.136138544291D-06 0.575767962452D-06 0.000000000000D+00  6 -4 -4 25 -24 -3 -4 4 0.10523550D-01 0.12317574D+00 0.27542695D+05 0.27542695D+05 0.27542695D+05 0.12188131D+01  1  2  5  6  6  1       21 -.292989873959D-04 0.100000000000D+01
0.353867113962D-06 0.000000000000D+00 0.000000000000D+00 0.575767962452D-06 0.110049051126D-06  6 -4 -4 25 -24 -3 -4 4 0.10522593D-01 0.12318741D+00 0.27558274D+05 0.27558274D+05 0.27558274D+05 0.12187871D+01  1  2 11  6  6  1       21 0.490338358175D-05 0.100000000000D+01
-.211418358317D-05 0.000000000000D+00 -.136138544291D-06 0.575767962452D-06 0.000000000000D+00  6 4 -4 25 -24 4 -3 4 0.10523550D-01 0.12317574D+00 0.27542695D+05 0.27542695D+05 0.27542695D+05 0.12188131D+01  3  4  5  7  5  1       21 -.292989873959D-04 0.100000000000D+01
0.388114939163D-06 0.000000000000D+00 0.000000000000D+00 0.575767962452D-06 0.109816737889D-06  6 4 -4 25 -24 4 -3 4 0.10522593D-01 0.12318741D+00 0.27558274D+05 0.27558274D+05 0.27558274D+05 0.12187871D+01  3  4 11  7  5  1       21 0.537794088639D-05 0.100000000000D+01
-.211418358317D-05 0.000000000000D+00 -.136138544291D-06 0.575767962452D-06 0.000000000000D+00  6 -1 -4 25 -24 -3 -1 4 0.10523550D-01 0.12317574D+00 0.27542695D+05 0.27542695D+05 0.27542695D+05 0.12188131D+01  1  2  5  8  6  1       21 -.508668910824D-04 0.100000000000D+01
-.211418358317D-05 0.000000000000D+00 -.136138544291D-06 0.575767962452D-06 0.000000000000D+00  6 -2 -4 25 -24 -3 -2 4 0.10523550D-01 0.12317574D+00 0.27542695D+05 0.27542695D+05 0.27542695D+05 0.12188131D+01  1  2  5  8  6  1       21 -.485231559060D-04 0.100000000000D+01
0.388115861198D-06 0.000000000000D+00 0.000000000000D+00 0.575767962452D-06 0.109816998778D-06  6 -1 -4 25 -24 -3 -1 4 0.10522593D-01 0.12318741D+00 0.27558274D+05 0.27558274D+05 0.27558274D+05 0.12187871D+01  1  2 11  8  6  1       21 0.933653146444D-05 0.100000000000D+01
0.388115861198D-06 0.000000000000D+00 0.000000000000D+00 0.575767962452D-06 0.109816998778D-06  6 -2 -4 25 -24 -3 -2 4 0.10522593D-01 0.12318741D+00 0.27558274D+05 0.27558274D+05 0.27558274D+05 0.12187871D+01  1  2 11  8  6  1       21 0.890638376477D-05 0.100000000000D+01
-.211418358317D-05 0.000000000000D+00 -.136138544291D-06 0.575767962452D-06 0.000000000000D+00  6 1 -4 25 -24 1 -3 4 0.10523550D-01 0.12317574D+00 0.27542695D+05 0.27542695D+05 0.27542695D+05 0.12188131D+01  3  4  5  9  5  1       21 -.643857949106D-04 0.100000000000D+01
-.211418358317D-05 0.000000000000D+00 -.136138544291D-06 0.575767962452D-06 0.000000000000D+00  6 2 -4 25 -24 2 -3 4 0.10523550D-01 0.12317574D+00 0.27542695D+05 0.27542695D+05 0.27542695D+05 0.12188131D+01  3  4  5  9  5  1       21 -.735626633191D-04 0.100000000000D+01
0.388115861198D-06 0.000000000000D+00 0.000000000000D+00 0.575767962452D-06 0.109816998778D-06  6 1 -4 25 -24 1 -3 4 0.10522593D-01 0.12318741D+00 0.27558274D+05 0.27558274D+05 0.27558274D+05 0.12187871D+01  3  4 11  9  5  1       21 0.118176697923D-04 0.100000000000D+01
0.388115861198D-06 0.000000000000D+00 0.000000000000D+00 0.575767962452D-06 0.109816998778D-06  6 2 -4 25 -24 2 -3 4 0.10522593D-01 0.12318741D+00 0.27558274D+05 0.27558274D+05 0.27558274D+05 0.12187871D+01  3  4 11  9  5  1       21 0.135019105898D-04 0.100000000000D+01
  </mgrwgt>
  </event>
  <event>
  5     66 -.41051716E-03 0.79018759E+02 0.75467711E-02 0.11774186E+00
       21 -1    0    0  501  502 0.00000000E+00 0.00000000E+00 0.35997658E+03 0.35997736E+03 0.75000000E+00 0.0000E+00 0.9000E+01
       -2 -1    0    0    0  501 0.00000000E+00 0.00000000E+00 -.93262923E+02 0.93263472E+02 0.32000000E+00 0.0000E+00 0.9000E+01
       25  1    1    2    0    0 -.17996125E+02 0.40917429E+02 0.17295592E+03 0.21802946E+03 0.12500000E+03 0.0000E+00 0.9000E+01
      -24  1    1    2    0    0 -.42105746E+02 -.92217037E+02 0.27961333E+02 0.13238553E+03 0.80419002E+02 0.0000E+00 0.9000E+01
       -1  1    1    2    0  502 0.60101870E+02 0.51299608E+02 0.65796406E+02 0.10282584E+03 0.32000000E+00 0.0000E+00 0.9000E+01
#aMCatNLO 1  0  0  5  1 0.54329281D+01 0.00000000D+00  -5  6  0 0.00000000D+00 0.00000000D+00 0.00000000D+00 0.00000000D+00 0.00000000D+00
  <mgrwgt>
 -.6482747908D-02    8    2    0
 0.183228734970049D+03 0.000000000000000D+00 0.000000000000000D+00 0.183228734970049D+03
 0.183228734970049D+03 -.000000000000000D+00 -.000000000000000D+00 -.183228734970049D+03
 0.143782409444665D+03 -.179963168173790D+02 0.409172651055385D+02 0.552294419943292D+02
 0.143386133436729D+03 -.421059371475494D+02 -.922172008306382D+02 -.617692903913681D+02
 0.792889270587033D+02 0.601022539649284D+02 0.512999357250997D+02 0.653984839703893D+01
 0.000000000000000D+00 0.000000000000000D+00 0.000000000000000D+00 0.000000000000000D+00
 0.183228734970049D+03 0.000000000000000D+00 0.000000000000000D+00 0.183228734970049D+03
 0.183228734970049D+03 -.000000000000000D+00 -.000000000000000D+00 -.183228734970049D+03
 0.143831069186276D+03 -.176947022991571D+02 0.411747064555346D+02 0.552622612830146D+02
 0.143119187327324D+03 -.418054847323788D+02 -.919607513870667D+02 -.617365975534775D+02
 0.598432832043443D+02 0.424910916693724D+02 0.421012928572457D+02 0.179075770800754D+01
 0.196639302221526D+02 0.170090953621636D+02 0.868475207428640D+01 0.468357856245532D+01
0.973999632754D-06 0.000000000000D+00 0.000000000000D+00 0.171659791033D-06 0.000000000000D+00  6 21 -2 25 -24 -1 21 2 0.55381114D-01 0.14348244D-01 0.29099223D+05 0.29099223D+05 0.29099223D+05 0.12162904D+01  1  2  2  3  6  5       -1 0.129340192046D-02 0.100000000000D+01
-.633408988641D-07 0.513993727384D-07 -.196622463680D-08 0.171659791033D-06 0.000000000000D+00  6 21 -2 25 -24 -1 21 4 0.55381114D-01 0.14348244D-01 0.29099223D+05 0.29099223D+05 0.29099223D+05 0.12162904D+01  1  2  3  3  6  5       -1 -.124432409096D-03 0.100000000000D+01
0.108209883767D-06 0.000000000000D+00 0.000000000000D+00 0.171659791033D-06 0.000000000000D+00  6 21 -2 25 -24 -1 21 4 0.55381114D-01 0.14348244D-01 0.29099223D+05 0.29099223D+05 0.29099223D+05 0.12162904D+01  1  2 15  3  6  5       -1 0.212576972646D-03 0.100000000000D+01
0.552464441172D-05 0.000000000000D+00 0.000000000000D+00 0.171685954565D-06 0.000000000000D+00  6 21 -2 25 -24 -1 21 4 0.55381114D-01 0.14348244D-01 0.29040327D+05 0.29040327D+05 0.29040327D+05 0.12163831D+01  1  2 12  3  6  5       -1 0.108566366027D-01 0.100000000000D+01
-.185023411736D-04 0.000000000000D+00 0.000000000000D+00 0.171659791033D-06 0.000000000000D+00  6 21 -2 25 -24 -1 21 4 0.55381114D-01 0.14348244D-01 0.29099223D+05 0.29099223D+05 0.29099223D+05 0.12162904D+01  1  2  4  3  6  5       -1 -.363476194282D-01 0.100000000000D+01
-.939671419734D-05 0.000000000000D+00 0.000000000000D+00 0.171659791033D-06 0.000000000000D+00  6 21 -2 25 -24 -1 21 4 0.55381114D-01 0.14348244D-01 0.29099223D+05 0.29099223D+05 0.29099223D+05 0.12162904D+01  1  2  5  3  6  5       -1 -.184597283293D-01 0.100000000000D+01
0.124349321199D-04 0.000000000000D+00 -.000000000000D+00 0.171659791033D-06 0.000000000000D+00  6 21 -2 25 -24 -1 21 4 0.55381114D-01 0.14348244D-01 0.29099223D+05 0.29099223D+05 0.29099223D+05 0.12162904D+01  1  2  6  3  6  5       -1 0.244282697021D-01 0.100000000000D+01
0.593251108646D-05 0.000000000000D+00 0.000000000000D+00 0.171659791033D-06 0.400137057247D-07  6 21 -2 25 -24 -1 21 4 0.55381114D-01 0.14348244D-01 0.29040327D+05 0.29040327D+05 0.29040327D+05 0.12163831D+01  1  2 11  3  6  5       -1 0.116581470603D-01 0.100000000000D+01
  </mgrwgt>
  </event>
  <event>
  5     66 0.41051716E-03 0.21830524E+02 0.75467711E-02 0.12512722E+00
       21 -1    0    0  501  502 0.00000000E+00 0.00000000E+00 0.13079756E+03 0.13079971E+03 0.75000000E+00 0.0000E+00 0.9000E+01
       -4 -1    0    0    0  501 0.00000000E+00 0.00000000E+00 -.12765420E+03 0.12766361E+03 0.15500000E+01 0.0000E+00 0.9000E+01
       25  1    1    2    0    0 -.99060504E+00 0.67831179E+01 0.43404370E+02 0.13249880E+03 0.12500000E+03 0.0000E+00 0.9000E+01
      -24  1    1    2    0    0 -.19386998E+02 0.10380327E+01 -.55249597E+02 0.99481994E+02 0.80419002E+02 0.0000E+00 0.9000E+01
       -3  1    1    2    0  502 0.20377603E+02 -.78211506E+01 0.14988587E+02 0.26482538E+02 0.50000000E+00 0.0000E+00 0.9000E+01
#aMCatNLO 1  0  0  1  2 0.60304675D+00 0.00000000D+00  -5  6  0 0.00000000D+00 0.00000000D+00 0.00000000D+00 0.00000000D+00 0.00000000D+00
  <mgrwgt>
 0.4356669941D-01   39    4    0
 0.129222107292084D+03 0.000000000000000D+00 0.000000000000000D+00 0.129222107292084D+03
 0.129222107292084D+03 0.000000000000000D+00 0.000000000000000D+00 -.129222107292084D+03
 0.131980308719088D+03 -.992485845376605D+00 0.678383975074984D+01 0.417946931998384D+02
 0.100162193072778D+03 -.193884250989078D+02 0.103858056086085D+01 -.564646729325566D+02
 0.263017127923014D+02 0.203809109442844D+02 -.782242031161069D+01 0.146699797327182D+02
 0.000000000000000D+00 -.000000000000000D+00 0.000000000000000D+00 0.000000000000000D+00
 0.372165080164037D+03 0.000000000000000D+00 0.000000000000000D+00 0.372165080164037D+03
 0.129222833304553D+03 0.000000000000000D+00 0.000000000000000D+00 -.129222833304553D+03
 0.131964746729810D+03 -.918367577212654D+00 0.648495187241049D+01 0.417946931998384D+02
 0.100149224671390D+03 -.193321757581068D+02 0.811750569464049D+00 -.564646729325566D+02
 0.263309467485019D+02 0.203956906929233D+02 -.788202083685922D+01 0.146699797327182D+02
 0.242942995318888D+03 -.145147357603817D+00 0.585318394984682D+00 0.242942246859484D+03
 0.129222107292084D+03 0.000000000000000D+00 0.000000000000000D+00 0.129222107292084D+03
 0.129222107292084D+03 0.000000000000000D+00 0.000000000000000D+00 -.129222107292084D+03
 0.131980308719088D+03 -.992485845376605D+00 0.678383975074984D+01 0.417946931998384D+02
 0.100162193072778D+03 -.193884250989078D+02 0.103858056086085D+01 -.564646729325566D+02
 0.000000000000000D+00 -.000000000000000D+00 0.000000000000000D+00 0.000000000000000D+00
 0.263017127923014D+02 0.203809109442844D+02 -.782242031161069D+01 0.146699797327182D+02
 0.372165080164037D+03 0.000000000000000D+00 0.000000000000000D+00 0.372165080164037D+03
 0.129222833304553D+03 0.000000000000000D+00 0.000000000000000D+00 -.129222833304553D+03
 0.131964746729810D+03 -.918367577212654D+00 0.648495187241049D+01 0.417946931998384D+02
 0.100149224671390D+03 -.193321757581068D+02 0.811750569464049D+00 -.564646729325566D+02
 0.242942995318888D+03 -.145147357603817D+00 0.585318394984682D+00 0.242942246859484D+03
 0.263309467485019D+02 0.203956906929233D+02 -.788202083685922D+01 0.146699797327182D+02
0.190936835181D-07 0.000000000000D+00 0.000000000000D+00 0.120417521717D-05 0.000000000000D+00  6 21 -4 25 -24 -3 21 2 0.20123591D-01 0.19639998D-01 0.13196050D+05 0.13196050D+05 0.13196050D+05 0.12542167D+01  1  2  2  1  6  1       21 0.640641639371D-04 0.100000000000D+01
0.936207829024D-09 0.100760136153D-08 -.385446458890D-10 0.120417521717D-05 0.000000000000D+00  6 21 -4 25 -24 -3 21 4 0.20123591D-01 0.19639998D-01 0.13196050D+05 0.13196050D+05 0.13196050D+05 0.12542167D+01  1  2  3  1  6  1       21 0.494131902564D-05 0.100000000000D+01
0.193668040756D-08 0.000000000000D+00 0.000000000000D+00 0.120417521717D-05 0.000000000000D+00  6 21 -4 25 -24 -3 21 4 0.20123591D-01 0.19639998D-01 0.13196050D+05 0.13196050D+05 0.13196050D+05 0.12542167D+01  1  2 15  1  6  1       21 0.102218283673D-04 0.100000000000D+01
0.405804955081D-10 0.000000000000D+00 0.000000000000D+00 0.120366646120D-05 0.000000000000D+00  6 21 -4 25 -24 -3 21 4 0.57956712D-01 0.19639998D-01 0.13265773D+05 0.13265773D+05 0.13265773D+05 0.12539518D+01  1  2 12  1  6  1       21 0.269309170062D-07 0.100000000000D+01
0.405817423730D-10 0.000000000000D+00 0.000000000000D+00 0.120366646120D-05 0.000000000000D+00  6 21 -4 25 -24 -3 21 4 0.57958493D-01 0.19639998D-01 0.13265773D+05 0.13265773D+05 0.13265773D+05 0.12539518D+01  1  2 12  1  6  1       21 0.269300025744D-07 0.100000000000D+01
-.561245773300D-02 0.000000000000D+00 -.465499604879D-07 0.120417521717D-05 0.000000000000D+00  6 21 -4 25 -24 -3 21 4 0.57956865D-01 0.19639998D-01 0.13196050D+05 0.13196050D+05 0.13196050D+05 0.12542167D+01  1  2  5  1  6  1       21 -.372731437635D+01 0.100000000000D+01
0.566185043724D-02 0.000000000000D+00 0.000000000000D+00 0.120417521717D-05 0.334338734101D-03  6 21 -4 25 -24 -3 21 4 0.57956786D-01 0.19640108D-01 0.13265773D+05 0.13265773D+05 0.13265773D+05 0.12539518D+01  1  2 11  1  6  1       21 0.375739331378D+01 0.100000000000D+01
0.142982932437D-10 0.000000000000D+00 0.000000000000D+00 0.120366646120D-05 0.000000000000D+00  6 -3 -4 25 -24 -3 -3 4 0.57956712D-01 0.19639998D-01 0.13265773D+05 0.13265773D+05 0.13265773D+05 0.12539518D+01  1  2 12  4  6  1       21 0.472175472801D-09 0.100000000000D+01
0.142987325691D-10 0.000000000000D+00 0.000000000000D+00 0.120366646120D-05 0.000000000000D+00  6 -3 -4 25 -24 -3 -3 4 0.57958493D-01 0.19639998D-01 0.13265773D+05 0.13265773D+05 0.13265773D+05 0.12539518D+01  1  2 12  4  6  1       21 0.472160396710D-09 0.100000000000D+01
-.197751011038D-02 0.000000000000D+00 -.161023671669D-07 0.120417521717D-05 0.000000000000D+00  6 -3 -4 25 -24 -3 -3 4 0.57956865D-01 0.19639998D-01 0.13196050D+05 0.13196050D+05 0.13196050D+05 0.12542167D+01  1  2  5  4  6  1       21 -.653331525828D-01 0.100000000000D+01
0.199955758778D-02 0.000000000000D+00 0.000000000000D+00 0.120417521717D-05 0.590380216353D-04  6 -3 -4 25 -24 -3 -3 4 0.57956786D-01 0.19640108D-01 0.13265773D+05 0.13265773D+05 0.13265773D+05 0.12539518D+01  1  2 11  4  6  1       21 0.660309653397D-01 0.100000000000D+01
0.142982932437D-10 0.000000000000D+00 0.000000000000D+00 0.120366646120D-05 0.000000000000D+00  6 3 -4 25 -24 3 -3 4 0.57956712D-01 0.19639998D-01 0.13265773D+05 0.13265773D+05 0.13265773D+05 0.12539518D+01  3  4 12  5  5  1       21 0.472462732390D-09 0.100000000000D+01
0.142987325691D-10 0.000000000000D+00 0.000000000000D+00 0.120366646120D-05 0.000000000000D+00  6 3 -4 25 -24 3 -3 4 0.57958493D-01 0.19639998D-01 0.13265773D+05 0.13265773D+05 0.13265773D+05 0.12539518D+01  3  4 12  5  5  1       21 0.472447669839D-09 0.100000000000D+01
-.197751011038D-02 0.000000000000D+00 -.161023671669D-07 0.120417521717D-05 0.000000000000D+00  6 3 -4 25 -24 3 -3 4 0.57956865D-01 0.19639998D-01 0.13196050D+05 0.13196050D+05 0.13196050D+05 0.12542167D+01  3  4  5  5  5  1       21 -.653728933743D-01 0.100000000000D+01
0.199893047811D-02 0.000000000000D+00 0.000000000000D+00 0.120417521717D-05 0.118039065692D-03  6 3 -4 25 -24 3 -3 4 0.57956786D-01 0.19640108D-01 0.13265773D+05 0.13265773D+05 0.13265773D+05 0.12539518D+01  3  4 11  5  5  1       21 0.660504155290D-01 0.100000000000D+01
0.142982932437D-10 0.000000000000D+00 0.000000000000D+00 0.120366646120D-05 0.000000000000D+00  6 -4 -4 25 -24 -3 -4 4 0.57956712D-01 0.19639998D-01 0.13265773D+05 0.13265773D+05 0.13265773D+05 0.12539518D+01  1  2 12  6  6  1       21 0.383639636425D-09 0.100000000000D+01
0.142987325691D-10 0.000000000000D+00 0.000000000000D+00 0.120366646120D-05 0.000000000000D+00  6 -4 -4 25 -24 -3 -4 4 0.57958493D-01 0.19639998D-01 0.13265773D+05 0.13265773D+05 0.13265773D+05 0.12539518D+01  1  2 12  6  6  1       21 0.383626905855D-09 0.100000000000D+01
-.197751011038D-02 0.000000000000D+00 -.161023671669D-07 0.120417521717D-05 0.000000000000D+00  6 -4 -4 25 -24 -3 -4 4 0.57956865D-01 0.19639998D-01 0.13196050D+05 0.13196050D+05 0.13196050D+05 0.12542167D+01  1  2  5  6  6  1       21 -.530793367219D-01 0.100000000000D+01
0.199917095338D-02 0.000000000000D+00 0.000000000000D+00 0.120417521717D-05 0.118053152488D-03  6 -4 -4 25 -24 -3 -4 4 0.57956786D-01 0.19640108D-01 0.13265773D+05 0.13265773D+05 0.13265773D+05 0.12539518D+01  1  2 11  6  6  1       21 0.536393723593D-01 0.100000000000D+01
0.142982932437D-10 0.000000000000D+00 0.000000000000D+00 0.120366646120D-05 0.000000000000D+00  6 4 -4 25 -24 4 -3 4 0.57956712D-01 0.19639998D-01 0.13265773D+05 0.13265773D+05 0.13265773D+05 0.12539518D+01  3  4 12  7  5  1       21 0.383639636425D-09 0.100000000000D+01
0.142987325691D-10 0.000000000000D+00 0.000000000000D+00 0.120366646120D-05 0.000000000000D+00  6 4 -4 25 -24 4 -3 4 0.57958493D-01 0.19639998D-01 0.13265773D+05 0.13265773D+05 0.13265773D+05 0.12539518D+01  3  4 12  7  5  1       21 0.383626905855D-09 0.100000000000D+01
-.197751011038D-02 0.000000000000D+00 -.161023671669D-07 0.120417521717D-05 0.000000000000D+00  6 4 -4 25 -24 4 -3 4 0.57956865D-01 0.19639998D-01 0.13196050D+05 0.13196050D+05 0.13196050D+05 0.12542167D+01  3  4  5  7  5  1       21 -.530793367219D-01 0.100000000000D+01
0.199921465722D-02 0.000000000000D+00 0.000000000000D+00 0.120417521717D-05 0.118055732142D-03  6 4 -4 25 -24 4 -3 4 0.57956786D-01 0.19640108D-01 0.13265773D+05 0.13265773D+05 0.13265773D+05 0.12539518D+01  3  4 11  7  5  1       21 0.536405449684D-01 0.100000000000D+01
0.142982932437D-10 0.000000000000D+00 0.000000000000D+00 0.120366646120D-05 0.000000000000D+00  6 -1 -4 25 -24 -3 -1 4 0.57956712D-01 0.19639998D-01 0.13265773D+05 0.13265773D+05 0.13265773D+05 0.12539518D+01  1  2 12  8  6  1       21 0.956248842431D-09 0.100000000000D+01
0.142982932437D-10 0.000000000000D+00 0.000000000000D+00 0.120366646120D-05 0.000000000000D+00  6 -2 -4 25 -24 -3 -2 4 0.57956712D-01 0.19639998D-01 0.13265773D+05 0.13265773D+05 0.13265773D+05 0.12539518D+01  1  2 12  8  6  1       21 0.763709405590D-09 0.100000000000D+01
0.142987325691D-10 0.000000000000D+00 0.000000000000D+00 0.120366646120D-05 0.000000000000D+00  6 -1 -4 25 -24 -3 -1 4 0.57958493D-01 0.19639998D-01 0.13265773D+05 0.13265773D+05 0.13265773D+05 0.12539518D+01  1  2 12  8  6  1       21 0.956223076510D-09 0.100000000000D+01
0.142987325691D-10 0.000000000000D+00 0.000000000000D+00 0.120366646120D-05 0.000000000000D+00  6 -2 -4 25 -24 -3 -2 4 0.57958493D-01 0.19639998D-01 0.13265773D+05 0.13265773D+05 0.13265773D+05 0.12539518D+01  1  2 12  8  6  1       21 0.763685186216D-09 0.100000000000D+01
-.197751011038D-02 0.000000000000D+00 -.161023671669D-07 0.120417521717D-05 0.000000000000D+00  6 -1 -4 25 -24 -3 -1 4 0.57956865D-01 0.19639998D-01 0.13196050D+05 0.13196050D+05 0.13196050D+05 0.12542167D+01  1  2  5  8  6  1       21 -.132331099126D+00 0.100000000000D+01
-.197751011038D-02 0.000000000000D+00 -.161023671669D-07 0.120417521717D-05 0.000000000000D+00  6 -2 -4 25 -24 -3 -2 4 0.57956865D-01 0.19639998D-01 0.13196050D+05 0.13196050D+05 0.13196050D+05 0.12542167D+01  1  2  5  8  6  1       21 -.105684160395D+00 0.100000000000D+01
0.199918761600D-02 0.000000000000D+00 0.000000000000D+00 0.120417521717D-05 0.118054135330D-03  6 -1 -4 25 -24 -3 -1 4 0.57956786D-01 0.19640108D-01 0.13265773D+05 0.13265773D+05 0.13265773D+05 0.12539518D+01  1  2 11  8  6  1       21 0.133701066422D+00 0.100000000000D+01
0.199918761600D-02 0.000000000000D+00 0.000000000000D+00 0.120417521717D-05 0.118054135330D-03  6 -2 -4 25 -24 -3 -2 4 0.57956786D-01 0.19640108D-01 0.13265773D+05 0.13265773D+05 0.13265773D+05 0.12539518D+01  1  2 11  8  6  1       21 0.106780512812D+00 0.100000000000D+01
0.142982932437D-10 0.000000000000D+00 0.000000000000D+00 0.120366646120D-05 0.000000000000D+00  6 1 -4 25 -24 1 -3 4 0.57956712D-01 0.19639998D-01 0.13265773D+05 0.13265773D+05 0.13265773D+05 0.12539518D+01  3  4 12  9  5  1       21 0.238099912034D-08 0.100000000000D+01
0.142982932437D-10 0.000000000000D+00 0.000000000000D+00 0.120366646120D-05 0.000000000000D+00  6 2 -4 25 -24 2 -3 4 0.57956712D-01 0.19639998D-01 0.13265773D+05 0.13265773D+05 0.13265773D+05 0.12539518D+01  3  4 12  9  5  1       21 0.350273257697D-08 0.100000000000D+01
0.142987325691D-10 0.000000000000D+00 0.000000000000D+00 0.120366646120D-05 0.000000000000D+00  6 1 -4 25 -24 1 -3 4 0.57958493D-01 0.19639998D-01 0.13265773D+05 0.13265773D+05 0.13265773D+05 0.12539518D+01  3  4 12  9  5  1       21 0.238098112084D-08 0.100000000000D+01
0.142987325691D-10 0.000000000000D+00 0.000000000000D+00 0.120366646120D-05 0.000000000000D+00  6 2 -4 25 -24 2 -3 4 0.57958493D-01 0.19639998D-01 0.13265773D+05 0.13265773D+05 0.13265773D+05 0.12539518D+01  3  4 12  9  5  1       21 0.350272633826D-08 0.100000000000D+01
-.197751011038D-02 0.000000000000D+00 -.161023671669D-07 0.120417521717D-05 0.000000000000D+00  6 1 -4 25 -24 1 -3 4 0.57956865D-01 0.19639998D-01 0.13196050D+05 0.13196050D+05 0.13196050D+05 0.12542167D+01  3  4  5  9  5  1       21 -.329493587295D+00 0.100000000000D+01
-.197751011038D-02 0.000000000000D+00 -.161023671669D-07 0.120417521717D-05 0.000000000000D+00  6 2 -4 25 -24 2 -3 4 0.57956865D-01 0.19639998D-01 0.13196050D+05 0.13196050D+05 0.13196050D+05 0.12542167D+01  3  4  5  9  5  1       21 -.484714861547D+00 0.100000000000D+01
0.199918761600D-02 0.000000000000D+00 0.000000000000D+00 0.120417521717D-05 0.118054135330D-03  6 1 -4 25 -24 1 -3 4 0.57956786D-01 0.19640108D-01 0.13265773D+05 0.13265773D+05 0.13265773D+05 0.12539518D+01  3  4 11  9  5  1       21 0.332907464417D+00 0.100000000000D+01
0.199918761600D-02 0.000000000000D+00 0.000000000000D+00 0.120417521717D-05 0.118054135330D-03  6 2 -4 25 -24 2 -3 4 0.57956786D-01 0.19640108D-01 0.13265773D+05 0.13265773D+05 0.13265773D+05 0.12539518D+01  3  4 11  9  5  1       21 0.489746548091D+00 0.100000000000D+01
  </mgrwgt>
  </event>
  <event>
  6     66 0.41051716E-03 0.63299295E+02 0.75467711E-02 0.11455409E+00
       21 -1    0    0  501  502 0.00000000E+00 0.00000000E+00 0.19139848E+04 0.19139849E+04 0.75000000E+00 0.0000E+00 0.9000E+01
       -2 -1    0    0    0  501 0.00000000E+00 0.00000000E+00 -.29153375E+02 0.29155131E+02 0.32000000E+00 0.0000E+00 0.9000E+01
       25  1    1    2    0    0 0.12397751E+03 -.63009878E+02 0.11477285E+04 0.11628613E+04 0.12500000E+03 0.0000E+00 0.9000E+01
      -24  1    1    2    0    0 -.36819210E+02 0.86797252E+02 0.21241482E+03 0.24592008E+03 0.80419002E+02 0.0000E+00 0.9000E+01
       -1  1    1    2    0  503 -.66550949E+02 -.35577539E+02 0.34852911E+03 0.35660543E+03 0.32000000E+00 0.0000E+00 0.9000E+01
       21  1    1    2  503  502 -.20607355E+02 0.11790165E+02 0.17615901E+03 0.17775328E+03 0.75000000E+00 0.0000E+00 0.9000E+01
#aMCatNLO 2  0  0  5  1 0.19720889D+02 0.00000000D+00  -5  6  0 0.00000000D+00 0.00000000D+00 0.00000000D+00 0.00000000D+00 0.00000000D+00
  <mgrwgt>
 0.2042330751D-01    2    2    0
 0.236222277072141D+03 0.000000000000000D+00 0.000000000000000D+00 0.236222277072141D+03
 0.236222277072141D+03 -.000000000000000D+00 -.000000000000000D+00 -.236222277072141D+03
 0.205653727376559D+03 0.128229497978438D+03 -.618494205948149D+02 0.800018787539113D+02
 0.164460138380888D+03 -.334088496472086D+02 0.877280129537521D+02 -.108478411079472D+03
 0.102330688386834D+03 -.948206483312291D+02 -.258785923589372D+02 0.284765323255604D+02
 0.000000000000000D+00 0.000000000000000D+00 0.000000000000000D+00 0.000000000000000D+00
 0.236222277072141D+03 0.000000000000000D+00 0.000000000000000D+00 0.236222277072141D+03
 0.236222277072141D+03 -.000000000000000D+00 -.000000000000000D+00 -.236222277072141D+03
 0.203883624113845D+03 0.123956960809318D+03 -.630154877930884D+02 0.812850069011014D+02
 0.164019535984837D+03 -.368357449301921D+02 0.867927395966737D+02 -.107449246060885D+03
 0.760223225541249D+02 -.663109996317256D+02 -.356151710087802D+02 0.106679167778922D+02
 0.285190714914736D+02 -.208102162473999D+02 0.118379192051949D+02 0.154963223818917D+02
-.914565511810D-04 0.000000000000D+00 0.000000000000D+00 0.866067652521D-07 0.000000000000D+00  6 21 -2 25 -24 -1 21 4 0.29445934D+00 0.44852810D-02 0.42048522D+05 0.42048522D+05 0.42048522D+05 0.11998038D+01  1  2 13  3  6  5       -1 -.123546797650D-01 0.100000000000D+01
0.242641794648D-03 0.000000000000D+00 0.000000000000D+00 0.865685748446D-07 0.315580203322D-08  6 21 -2 25 -24 -1 21 4 0.29445934D+00 0.44852810D-02 0.42048522D+05 0.42048522D+05 0.42048522D+05 0.11998038D+01  1  2  1  3  6  5       -1 0.327779872711D-01 0.100000000000D+01
  </mgrwgt>
  </event>
  <event>
  6     66 -.41051716E-03 0.35793406E+02 0.75467711E-02 0.12146159E+00
       21 -1    0    0  501  502 0.00000000E+00 0.00000000E+00 0.13662213E+03 0.13662418E+03 0.75000000E+00 0.0000E+00 0.9000E+01
       -2 -1    0    0    0  503 0.00000000E+00 0.00000000E+00 -.73290197E+03 0.73290204E+03 0.32000000E+00 0.0000E+00 0.9000E+01
       25  1    1    2    0    0 0.16493287E+02 0.72463907E+02 -.37354196E+03 0.40085115E+03 0.12500000E+03 0.0000E+00 0.9000E+01
      -24  1    1    2    0    0 -.11841700E+02 -.27278567E+02 -.31833813E+03 0.32968277E+03 0.80419002E+02 0.0000E+00 0.9000E+01
       -1  1    1    2    0  502 -.81763374E+01 -.38650452E+02 0.11318914E+03 0.11988575E+03 0.32000000E+00 0.0000E+00 0.9000E+01
       21  1    1    2  501  503 0.35247509E+01 -.65348884E+01 -.17588896E+02 0.19106554E+02 0.75000000E+00 0.0000E+00 0.9000E+01
#aMCatNLO 2  0  0  2  1 0.74248660D+01 0.00000000D+00  -5  6  0 0.00000000D+00 0.00000000D+00 0.00000000D+00 0.00000000D+00 0.00000000D+00
  <mgrwgt>
 -.1795810598D+00    3    2    0
 0.311558690810547D+03 0.000000000000000D+00 0.000000000000000D+00 0.311558690810547D+03
 0.311558690810547D+03 0.000000000000000D+00 0.000000000000000D+00 -.311558690810547D+03
 0.199498476262662D+03 0.176235841995894D+02 0.703683474098298D+02 -.137522169099725D+03
 0.154522831230016D+03 -.109683007492192D+02 -.288978401027000D+02 -.128275877050374D+03
 0.269096074128416D+03 -.665528345037023D+01 -.414705073071297D+02 0.265798046150099D+03
 0.000000000000000D+00 0.000000000000000D+00 -.000000000000000D+00 -.000000000000000D+00
 0.313306640410611D+03 0.000000000000000D+00 0.000000000000000D+00 0.313306640410611D+03
 0.319566612174172D+03 0.000000000000000D+00 0.000000000000000D+00 -.319566612174172D+03
 0.200150930028476D+03 0.164932878497140D+02 0.724639169054304D+02 -.137522169099725D+03
 0.154292780870749D+03 -.118416991670509D+02 -.272785593874119D+02 -.128275877050374D+03
 0.268717905307191D+03 -.817633957681227D+01 -.386504691640184D+02 0.265798046150099D+03
 0.971163637836773D+01 0.352475089414918D+01 -.653488835400006D+01 -.625997176356127D+01
-.211982616690D-03 0.000000000000D+00 0.000000000000D+00 0.119993584123D-04 0.000000000000D+00  6 21 -2 25 -24 -1 21 4 0.20900726D-01 0.11305254D+00 0.19334296D+05 0.19334296D+05 0.19334296D+05 0.12354479D+01  1  2 13  2  6  2       -2 -.562418654175D-01 0.100000000000D+01
-.977973803805D-03 0.000000000000D+00 0.000000000000D+00 0.120361518036D-04 0.000000000000D+00  6 21 -2 25 -24 -1 21 4 0.20900726D-01 0.10992378D+00 0.18588603D+05 0.18588603D+05 0.18588603D+05 0.12373405D+01  1  2  8  2  6  2       -2 -.279150003663D+00 0.100000000000D+01
0.589657610566D-03 0.000000000000D+00 0.000000000000D+00 0.120361518036D-04 0.183701019140D-05  6 21 -2 25 -24 -1 21 4 0.21017986D-01 0.11274913D+00 0.19334296D+05 0.19334296D+05 0.19334296D+05 0.12354479D+01  1  2  1  2  6  2       -2 0.155810809286D+00 0.100000000000D+01
  </mgrwgt>
  </event>
  <event>
  5     66 0.41051716E-03 0.76819042E+02 0.75467711E-02 0.11424012E+00
       21 -1    0    0  501  502 0.00000000E+00 0.00000000E+00 0.17369398E+03 0.17369560E+03 0.75000000E+00 0.0000E+00 0.9000E+01
       -2 -1    0    0    0  501 0.00000000E+00 0.00000000E+00 -.50110150E+03 0.50110161E+03 0.32000000E+00 0.0000E+00 0.9000E+01
       25  1    1    2    0    0 -.45570918E+02 -.14012935E+03 -.13016192E+03 0.23298084E+03 0.12500000E+03 0.0000E+00 0.9000E+01
      -24  1    1    2    0    0 0.15831588E+01 0.89234054E+01 -.27252150E+03 0.28428387E+03 0.80419002E+02 0.0000E+00 0.9000E+01
       -1  1    1    2    0  502 0.43987759E+02 0.13120595E+03 0.75275899E+02 0.15753250E+03 0.32000000E+00 0.0000E+00 0.9000E+01
#aMCatNLO 1  0  0  1  2 0.58586915D+01 0.00000000D+00  -5  6  0 0.00000000D+00 0.00000000D+00 0.00000000D+00 0.00000000D+00 0.00000000D+00
  <mgrwgt>
 0.3261845725D-01   32    4    0
 0.295023549360254D+03 0.000000000000000D+00 0.000000000000000D+00 0.295023549360254D+03
 0.295023549360254D+03 0.000000000000000D+00 0.000000000000000D+00 -.295023549360254D+03
 0.194219833235928D+03 -.455709333259024D+02 -.140129398780228D+03 -.195802261347988D+02
 0.173898655526330D+03 0.158314532048866D+01 0.892336520670081D+01 -.153920088499769D+03
 0.221928609958249D+03 0.439877880054137D+02 0.131206033573527D+03 0.173500314634568D+03
 0.000000000000000D+00 0.000000000000000D+00 0.000000000000000D+00 0.000000000000000D+00
 0.299710744995392D+03 0.000000000000000D+00 0.000000000000000D+00 0.299710744995392D+03
 0.296874536217939D+03 0.000000000000000D+00 0.000000000000000D+00 -.296874536217939D+03
 0.195100016554151D+03 -.474038123375210D+02 -.140742707732264D+03 -.195802261347988D+02
 0.173864205342072D+03 -.540875332942505D-01 0.837552240888013D+01 -.153920088499769D+03
 0.221111962146344D+03 0.419019971926826D+02 0.130508096519628D+03 0.173500314634568D+03
 0.650909717076284D+01 0.555590267813269D+01 0.185908880375498D+01 0.283620877745338D+01
 0.295023549360254D+03 0.000000000000000D+00 0.000000000000000D+00 0.295023549360254D+03
 0.295023549360254D+03 0.000000000000000D+00 0.000000000000000D+00 -.295023549360254D+03
 0.194219833235928D+03 -.455709333259024D+02 -.140129398780228D+03 -.195802261347988D+02
 0.173898655526330D+03 0.158314532048866D+01 0.892336520670081D+01 -.153920088499769D+03
 0.000000000000000D+00 0.000000000000000D+00 0.000000000000000D+00 0.000000000000000D+00
 0.221928609958249D+03 0.439877880054137D+02 0.131206033573527D+03 0.173500314634568D+03
 0.299710744995392D+03 0.000000000000000D+00 0.000000000000000D+00 0.299710744995392D+03
 0.296874536217939D+03 0.000000000000000D+00 0.000000000000000D+00 -.296874536217939D+03
 0.195100016554151D+03 -.474038123375210D+02 -.140742707732264D+03 -.195802261347988D+02
 0.173864205342072D+03 -.540875332942505D-01 0.837552240888013D+01 -.153920088499769D+03
 0.650909717076284D+01 0.555590267813269D+01 0.185908880375498D+01 0.283620877745338D+01
 0.221111962146344D+03 0.419019971926826D+02 0.130508096519628D+03 0.173500314634568D+03
0.155988957074D-04 0.000000000000D+00 0.000000000000D+00 0.308793314812D-06 0.000000000000D+00  6 21 -2 25 -24 -1 21 2 0.26722283D-01 0.77092671D-01 0.42547666D+05 0.42547666D+05 0.42547666D+05 0.11992866D+01  1  2  2  1  6  1       21 0.376613795401D-02 0.100000000000D+01
-.545727113243D-06 0.823176341974D-06 -.314896761922D-07 0.308793314812D-06 0.000000000000D+00  6 21 -2 25 -24 -1 21 4 0.26722283D-01 0.77092671D-01 0.42547666D+05 0.42547666D+05 0.42547666D+05 0.11992866D+01  1  2  3  1  6  1       21 -.189506399222D-03 0.100000000000D+01
0.172616760635D-05 0.000000000000D+00 0.000000000000D+00 0.308793314812D-06 0.000000000000D+00  6 21 -2 25 -24 -1 21 4 0.26722283D-01 0.77092671D-01 0.42547666D+05 0.42547666D+05 0.42547666D+05 0.11992866D+01  1  2 15  1  6  1       21 0.599420112350D-03 0.100000000000D+01
0.126865430497D-04 0.000000000000D+00 0.000000000000D+00 0.308212612410D-06 0.000000000000D+00  6 21 -2 25 -24 -1 21 4 0.27229726D-01 0.77092671D-01 0.43659584D+05 0.43659584D+05 0.43659584D+05 0.11981584D+01  1  2 12  1  6  1       21 0.422962759416D-02 0.100000000000D+01
-.247030474061D-04 0.000000000000D+00 0.000000000000D+00 0.308793314812D-06 0.000000000000D+00  6 21 -2 25 -24 -1 21 4 0.26722283D-01 0.77092671D-01 0.42547666D+05 0.42547666D+05 0.42547666D+05 0.11992866D+01  1  2  4  1  6  1       21 -.857825358159D-02 0.100000000000D+01
-.188125679127D-02 0.000000000000D+00 -.234185965340D-03 0.308793314812D-06 0.000000000000D+00  6 21 -2 25 -24 -1 21 4 0.27302318D-01 0.77092671D-01 0.42547666D+05 0.42547666D+05 0.42547666D+05 0.11992866D+01  1  2  5  1  6  1       21 -.626778058372D+00 0.100000000000D+01
0.188452678334D-02 0.000000000000D+00 0.233970128300D-03 0.308793314812D-06 0.000000000000D+00  6 21 -2 25 -24 -1 21 4 0.26722283D-01 0.77092671D-01 0.42547666D+05 0.42547666D+05 0.42547666D+05 0.11992866D+01  1  2  6  1  6  1       21 0.654411108193D+00 0.100000000000D+01
0.202903664627D-04 0.000000000000D+00 0.000000000000D+00 0.308793314812D-06 0.100363814739D-06  6 21 -2 25 -24 -1 21 4 0.27146834D-01 0.77576353D-01 0.43659584D+05 0.43659584D+05 0.43659584D+05 0.11981584D+01  1  2 11  1  6  1       21 0.671215796611D-02 0.100000000000D+01
0.758183629112D-06 0.000000000000D+00 0.000000000000D+00 0.308212612410D-06 0.000000000000D+00  6 -1 -2 25 -24 -1 -1 4 0.27229726D-01 0.77092671D-01 0.43659584D+05 0.43659584D+05 0.43659584D+05 0.11981584D+01  1  2 12  4  6  1       21 0.217094450790D-04 0.100000000000D+01
-.817134368575D-05 0.000000000000D+00 -.115358749323D-05 0.308793314812D-06 0.000000000000D+00  6 -1 -2 25 -24 -1 -1 4 0.27302318D-01 0.77092671D-01 0.42547666D+05 0.42547666D+05 0.42547666D+05 0.11992866D+01  1  2  5  4  6  1       21 -.233824778861D-03 0.100000000000D+01
0.560169206064D-06 0.000000000000D+00 0.000000000000D+00 0.308793314812D-06 0.292608822668D-09  6 -1 -2 25 -24 -1 -1 4 0.27146834D-01 0.77576353D-01 0.43659584D+05 0.43659584D+05 0.43659584D+05 0.11981584D+01  1  2 11  4  6  1       21 0.159026877591D-04 0.100000000000D+01
0.758183629112D-06 0.000000000000D+00 0.000000000000D+00 0.308212612410D-06 0.000000000000D+00  6 1 -2 25 -24 1 -1 4 0.27229726D-01 0.77092671D-01 0.43659584D+05 0.43659584D+05 0.43659584D+05 0.11981584D+01  3  4 12  5  5  1       21 0.366169244077D-04 0.100000000000D+01
-.817134368575D-05 0.000000000000D+00 -.115358749323D-05 0.308793314812D-06 0.000000000000D+00  6 1 -2 25 -24 1 -1 4 0.27302318D-01 0.77092671D-01 0.42547666D+05 0.42547666D+05 0.42547666D+05 0.11992866D+01  3  4  5  5  5  1       21 -.394820323355D-03 0.100000000000D+01
0.624949879972D-06 0.000000000000D+00 0.000000000000D+00 0.308793314812D-06 0.291778857025D-08  6 1 -2 25 -24 1 -1 4 0.27146834D-01 0.77576353D-01 0.43659584D+05 0.43659584D+05 0.43659584D+05 0.11981584D+01  3  4 11  5  5  1       21 0.298871637958D-04 0.100000000000D+01
0.758183629112D-06 0.000000000000D+00 0.000000000000D+00 0.308212612410D-06 0.000000000000D+00  6 -2 -2 25 -24 -1 -2 4 0.27229726D-01 0.77092671D-01 0.43659584D+05 0.43659584D+05 0.43659584D+05 0.11981584D+01  1  2 12  6  6  1       21 0.192825414476D-04 0.100000000000D+01
-.817134368575D-05 0.000000000000D+00 -.115358749323D-05 0.308793314812D-06 0.000000000000D+00  6 -2 -2 25 -24 -1 -2 4 0.27302318D-01 0.77092671D-01 0.42547666D+05 0.42547666D+05 0.42547666D+05 0.11992866D+01  1  2  5  6  6  1       21 -.207618047432D-03 0.100000000000D+01
0.430645313388D-06 0.000000000000D+00 0.000000000000D+00 0.308793314812D-06 0.550549116334D-09  6 -2 -2 25 -24 -1 -2 4 0.27146834D-01 0.77576353D-01 0.43659584D+05 0.43659584D+05 0.43659584D+05 0.11981584D+01  1  2 11  6  6  1       21 0.108625222072D-04 0.100000000000D+01
0.758183629112D-06 0.000000000000D+00 0.000000000000D+00 0.308212612410D-06 0.000000000000D+00  6 2 -2 25 -24 2 -1 4 0.27229726D-01 0.77092671D-01 0.43659584D+05 0.43659584D+05 0.43659584D+05 0.11981584D+01  3  4 12  7  5  1       21 0.474262091738D-04 0.100000000000D+01
-.817134368575D-05 0.000000000000D+00 -.115358749323D-05 0.308793314812D-06 0.000000000000D+00  6 2 -2 25 -24 2 -1 4 0.27302318D-01 0.77092671D-01 0.42547666D+05 0.42547666D+05 0.42547666D+05 0.11992866D+01  3  4  5  7  5  1       21 -.511561633635D-03 0.100000000000D+01
0.527932923845D-06 0.000000000000D+00 0.000000000000D+00 0.308793314812D-06 0.539970465153D-09  6 2 -2 25 -24 2 -1 4 0.27146834D-01 0.77576353D-01 0.43659584D+05 0.43659584D+05 0.43659584D+05 0.11981584D+01  3  4 11  7  5  1       21 0.326847808545D-04 0.100000000000D+01
0.758183629112D-06 0.000000000000D+00 0.000000000000D+00 0.308212612410D-06 0.000000000000D+00  6 -3 -2 25 -24 -1 -3 4 0.27229726D-01 0.77092671D-01 0.43659584D+05 0.43659584D+05 0.43659584D+05 0.11981584D+01  1  2 12  8  6  1       21 0.125469704003D-04 0.100000000000D+01
0.758183629112D-06 0.000000000000D+00 0.000000000000D+00 0.308212612410D-06 0.000000000000D+00  6 -4 -2 25 -24 -1 -4 4 0.27229726D-01 0.77092671D-01 0.43659584D+05 0.43659584D+05 0.43659584D+05 0.11981584D+01  1  2 12  8  6  1       21 0.106524100503D-04 0.100000000000D+01
-.817134368575D-05 0.000000000000D+00 -.115358749323D-05 0.308793314812D-06 0.000000000000D+00  6 -3 -2 25 -24 -1 -3 4 0.27302318D-01 0.77092671D-01 0.42547666D+05 0.42547666D+05 0.42547666D+05 0.11992866D+01  1  2  5  8  6  1       21 -.135005347916D-03 0.100000000000D+01
-.817134368575D-05 0.000000000000D+00 -.115358749323D-05 0.308793314812D-06 0.000000000000D+00  6 -4 -2 25 -24 -1 -4 4 0.27302318D-01 0.77092671D-01 0.42547666D+05 0.42547666D+05 0.42547666D+05 0.11992866D+01  1  2  5  8  6  1       21 -.114579816136D-03 0.100000000000D+01
0.527887171237D-06 0.000000000000D+00 0.000000000000D+00 0.308793314812D-06 0.539923669329D-09  6 -3 -2 25 -24 -1 -3 4 0.27146834D-01 0.77576353D-01 0.43659584D+05 0.43659584D+05 0.43659584D+05 0.11981584D+01  1  2 11  8  6  1       21 0.866567035987D-05 0.100000000000D+01
0.527887171237D-06 0.000000000000D+00 0.000000000000D+00 0.308793314812D-06 0.539923669329D-09  6 -4 -2 25 -24 -1 -4 4 0.27146834D-01 0.77576353D-01 0.43659584D+05 0.43659584D+05 0.43659584D+05 0.11981584D+01  1  2 11  8  6  1       21 0.735806439385D-05 0.100000000000D+01
0.758183629112D-06 0.000000000000D+00 0.000000000000D+00 0.308212612410D-06 0.000000000000D+00  6 3 -2 25 -24 3 -1 4 0.27229726D-01 0.77092671D-01 0.43659584D+05 0.43659584D+05 0.43659584D+05 0.11981584D+01  3  4 12  9  5  1       21 0.125469185125D-04 0.100000000000D+01
0.758183629112D-06 0.000000000000D+00 0.000000000000D+00 0.308212612410D-06 0.000000000000D+00  6 4 -2 25 -24 4 -1 4 0.27229726D-01 0.77092671D-01 0.43659584D+05 0.43659584D+05 0.43659584D+05 0.11981584D+01  3  4 12  9  5  1       21 0.106524100503D-04 0.100000000000D+01
-.817134368575D-05 0.000000000000D+00 -.115358749323D-05 0.308793314812D-06 0.000000000000D+00  6 3 -2 25 -24 3 -1 4 0.27302318D-01 0.77092671D-01 0.42547666D+05 0.42547666D+05 0.42547666D+05 0.11992866D+01  3  4  5  9  5  1       21 -.135004859177D-03 0.100000000000D+01
-.817134368575D-05 0.000000000000D+00 -.115358749323D-05 0.308793314812D-06 0.000000000000D+00  6 4 -2 25 -24 4 -1 4 0.27302318D-01 0.77092671D-01 0.42547666D+05 0.42547666D+05 0.42547666D+05 0.11992866D+01  3  4  5  9  5  1       21 -.114579816136D-03 0.100000000000D+01
0.527887171237D-06 0.000000000000D+00 0.000000000000D+00 0.308793314812D-06 0.539923669329D-09  6 3 -2 25 -24 3 -1 4 0.27146834D-01 0.77576353D-01 0.43659584D+05 0.43659584D+05 0.43659584D+05 0.11981584D+01  3  4 11  9  5  1       21 0.866562516981D-05 0.100000000000D+01
0.527887171237D-06 0.000000000000D+00 0.000000000000D+00 0.308793314812D-06 0.539923669329D-09  6 4 -2 25 -24 4 -1 4 0.27146834D-01 0.77576353D-01 0.43659584D+05 0.43659584D+05 0.43659584D+05 0.11981584D+01  3  4 11  9  5  1       21 0.735806439385D-05 0.100000000000D+01
  </mgrwgt>
  </event>
  <event>
  5     66 0.41051716E-03 0.26469447E+02 0.75467711E-02 0.12002457E+00
       21 -1    0    0  501  502 0.00000000E+00 0.00000000E+00 0.24249441E+03 0.24249556E+03 0.75000000E+00 0.0000E+00 0.9000E+01
       -2 -1    0    0    0  501 0.00000000E+00 0.00000000E+00 -.83362972E+02 0.83363587E+02 0.32000000E+00 0.0000E+00 0.9000E+01
       25  1    1    2    0    0 0.35633354E+01 -.61130954E+02 0.51317223E+02 0.14835144E+03 0.12500000E+03 0.0000E+00 0.9000E+01
      -24  1    1    2    0    0 0.15917469E+02 0.79048804E+02 0.80427060E+02 0.13941954E+03 0.80419002E+02 0.0000E+00 0.9000E+01
       -1  1    1    2    0  502 -.19480805E+02 -.17917850E+02 0.27387150E+02 0.38088180E+02 0.32000000E+00 0.0000E+00 0.9000E+01
#aMCatNLO 1  0  0  1  2 0.19986126D+02 0.00000000D+00  -5  6  0 0.00000000D+00 0.00000000D+00 0.00000000D+00 0.00000000D+00 0.00000000D+00
  <mgrwgt>
 0.7292456666D-01   23    4    0
 0.142180671889356D+03 0.000000000000000D+00 0.000000000000000D+00 0.142180671889356D+03
 0.142180671889356D+03 0.000000000000000D+00 0.000000000000000D+00 -.142180671889356D+03
 0.141283055998095D+03 0.356395331970000D+01 -.611303859265389D+02 -.242131382800393D+02
 0.114758072531428D+03 0.159179711363138D+02 0.790492654951450D+02 0.141432342955756D+02
 0.283202152491882D+02 -.194819244560138D+02 -.179188795686060D+02 0.100699039844637D+02
 0.000000000000000D+00 0.000000000000000D+00 0.000000000000000D+00 0.000000000000000D+00
 0.157369214543452D+03 0.000000000000000D+00 0.000000000000000D+00 0.157369214543452D+03
 0.149261613967652D+03 0.000000000000000D+00 0.000000000000000D+00 -.149261613967652D+03
 0.144513180845290D+03 -.348332600209661D+01 -.682689520398423D+02 -.242131382800393D+02
 0.110301349862462D+03 0.103683647764473D+02 0.734277724204791D+02 0.141432342955756D+02
 0.302483028155467D+02 -.209261306877846D+02 -.193817932968663D+02 0.100699039844637D+02
 0.215679949878058D+02 0.140410919134339D+02 0.142229729162296D+02 0.810760057580032D+01
 0.142180671889356D+03 0.000000000000000D+00 0.000000000000000D+00 0.142180671889356D+03
 0.142180671889356D+03 0.000000000000000D+00 0.000000000000000D+00 -.142180671889356D+03
 0.141283055998095D+03 0.356395331970000D+01 -.611303859265389D+02 -.242131382800393D+02
 0.114758072531428D+03 0.159179711363138D+02 0.790492654951450D+02 0.141432342955756D+02
 0.000000000000000D+00 0.000000000000000D+00 0.000000000000000D+00 0.000000000000000D+00
 0.283202152491882D+02 -.194819244560138D+02 -.179188795686060D+02 0.100699039844637D+02
 0.157369214543452D+03 0.000000000000000D+00 0.000000000000000D+00 0.157369214543452D+03
 0.149261613967652D+03 0.000000000000000D+00 0.000000000000000D+00 -.149261613967652D+03
 0.144513180845290D+03 -.348332600209661D+01 -.682689520398423D+02 -.242131382800393D+02
 0.110301349862462D+03 0.103683647764473D+02 0.734277724204791D+02 0.141432342955756D+02
 0.215679949878058D+02 0.140410919134339D+02 0.142229729162296D+02 0.810760057580032D+01
 0.302483028155467D+02 -.209261306877846D+02 -.193817932968663D+02 0.100699039844637D+02
0.308663089415D-05 0.000000000000D+00 0.000000000000D+00 0.742243478212D-06 0.000000000000D+00  6 21 -2 25 -24 -1 21 2 0.37306968D-01 0.12825209D-01 0.19536410D+05 0.19536410D+05 0.19536410D+05 0.12349489D+01  1  2  2  1  6  1       21 0.113783384476D-01 0.100000000000D+01
0.143710960585D-06 0.162885987324D-06 -.623101847752D-08 0.742243478212D-06 0.000000000000D+00  6 21 -2 25 -24 -1 21 4 0.37306968D-01 0.12825209D-01 0.19536410D+05 0.19536410D+05 0.19536410D+05 0.12349489D+01  1  2  3  1  6  1       21 0.807945444902D-03 0.100000000000D+01
0.322890379317D-06 0.000000000000D+00 0.000000000000D+00 0.742243478212D-06 0.000000000000D+00  6 21 -2 25 -24 -1 21 4 0.37306968D-01 0.12825209D-01 0.19536410D+05 0.19536410D+05 0.19536410D+05 0.12349489D+01  1  2 15  1  6  1       21 0.181529515989D-02 0.100000000000D+01
0.665930919787D-05 0.000000000000D+00 0.000000000000D+00 0.734054710608D-06 0.000000000000D+00  6 21 -2 25 -24 -1 21 4 0.42145844D-01 0.12825209D-01 0.22555561D+05 0.22555561D+05 0.22555561D+05 0.12281178D+01  1  2 12  1  6  1       21 0.287032007522D-01 0.100000000000D+01
-.261075930855D-05 0.000000000000D+00 0.000000000000D+00 0.742243478212D-06 0.000000000000D+00  6 21 -2 25 -24 -1 21 4 0.37306968D-01 0.12825209D-01 0.19536410D+05 0.19536410D+05 0.19536410D+05 0.12349489D+01  1  2  4  1  6  1       21 -.146777328778D-01 0.100000000000D+01
-.352235075588D-04 0.000000000000D+00 -.753540314372D-05 0.742243478212D-06 0.000000000000D+00  6 21 -2 25 -24 -1 21 4 0.43107843D-01 0.12825209D-01 0.19536410D+05 0.19536410D+05 0.19536410D+05 0.12349489D+01  1  2  5  1  6  1       21 -.148228803052D+00 0.100000000000D+01
0.349166794323D-04 0.000000000000D+00 0.722969251011D-05 0.742243478212D-06 0.000000000000D+00  6 21 -2 25 -24 -1 21 4 0.37306968D-01 0.12825209D-01 0.19536410D+05 0.19536410D+05 0.19536410D+05 0.12349489D+01  1  2  6  1  6  1       21 0.196302160835D+00 0.100000000000D+01
0.213296663989D-06 0.000000000000D+00 0.000000000000D+00 0.734054710608D-06 0.000000000000D+00  6 -1 -2 25 -24 -1 -1 4 0.42145844D-01 0.12825209D-01 0.22555561D+05 0.22555561D+05 0.22555561D+05 0.12281178D+01  1  2 12  4  6  1       21 0.868423214803D-04 0.100000000000D+01
-.112484943637D-05 0.000000000000D+00 -.293880743503D-06 0.742243478212D-06 0.000000000000D+00  6 -1 -2 25 -24 -1 -1 4 0.43107843D-01 0.12825209D-01 0.19536410D+05 0.19536410D+05 0.19536410D+05 0.12349489D+01  1  2  5  4  6  1       21 -.448277371228D-03 0.100000000000D+01
0.213296663989D-06 0.000000000000D+00 0.000000000000D+00 0.734054710608D-06 0.000000000000D+00  6 1 -2 25 -24 1 -1 4 0.42145844D-01 0.12825209D-01 0.22555561D+05 0.22555561D+05 0.22555561D+05 0.12281178D+01  3  4 12  5  5  1       21 0.179873040642D-03 0.100000000000D+01
-.112484943637D-05 0.000000000000D+00 -.293880743503D-06 0.742243478212D-06 0.000000000000D+00  6 1 -2 25 -24 1 -1 4 0.43107843D-01 0.12825209D-01 0.19536410D+05 0.19536410D+05 0.19536410D+05 0.12349489D+01  3  4  5  5  5  1       21 -.939673715572D-03 0.100000000000D+01
0.213296663989D-06 0.000000000000D+00 0.000000000000D+00 0.734054710608D-06 0.000000000000D+00  6 -2 -2 25 -24 -1 -2 4 0.42145844D-01 0.12825209D-01 0.22555561D+05 0.22555561D+05 0.22555561D+05 0.12281178D+01  1  2 12  6  6  1       21 0.729038829116D-04 0.100000000000D+01
-.112484943637D-05 0.000000000000D+00 -.293880743503D-06 0.742243478212D-06 0.000000000000D+00  6 -2 -2 25 -24 -1 -2 4 0.43107843D-01 0.12825209D-01 0.19536410D+05 0.19536410D+05 0.19536410D+05 0.12349489D+01  1  2  5  6  6  1       21 -.374975968342D-03 0.100000000000D+01
0.213296663989D-06 0.000000000000D+00 0.000000000000D+00 0.734054710608D-06 0.000000000000D+00  6 2 -2 25 -24 2 -1 4 0.42145844D-01 0.12825209D-01 0.22555561D+05 0.22555561D+05 0.22555561D+05 0.12281178D+01  3  4 12  7  5  1       21 0.250209947348D-03 0.100000000000D+01
-.112484943637D-05 0.000000000000D+00 -.293880743503D-06 0.742243478212D-06 0.000000000000D+00  6 2 -2 25 -24 2 -1 4 0.43107843D-01 0.12825209D-01 0.19536410D+05 0.19536410D+05 0.19536410D+05 0.12349489D+01  3  4  5  7  5  1       21 -.131176068585D-02 0.100000000000D+01
0.213296663989D-06 0.000000000000D+00 0.000000000000D+00 0.734054710608D-06 0.000000000000D+00  6 -3 -2 25 -24 -1 -3 4 0.42145844D-01 0.12825209D-01 0.22555561D+05 0.22555561D+05 0.22555561D+05 0.12281178D+01  1  2 12  8  6  1       21 0.458835729052D-04 0.100000000000D+01
0.213296663989D-06 0.000000000000D+00 0.000000000000D+00 0.734054710608D-06 0.000000000000D+00  6 -4 -2 25 -24 -1 -4 4 0.42145844D-01 0.12825209D-01 0.22555561D+05 0.22555561D+05 0.22555561D+05 0.12281178D+01  1  2 12  8  6  1       21 0.380101800289D-04 0.100000000000D+01
-.112484943637D-05 0.000000000000D+00 -.293880743503D-06 0.742243478212D-06 0.000000000000D+00  6 -3 -2 25 -24 -1 -3 4 0.43107843D-01 0.12825209D-01 0.19536410D+05 0.19536410D+05 0.19536410D+05 0.12349489D+01  1  2  5  8  6  1       21 -.235098470367D-03 0.100000000000D+01
-.112484943637D-05 0.000000000000D+00 -.293880743503D-06 0.742243478212D-06 0.000000000000D+00  6 -4 -2 25 -24 -1 -4 4 0.43107843D-01 0.12825209D-01 0.19536410D+05 0.19536410D+05 0.19536410D+05 0.12349489D+01  1  2  5  8  6  1       21 -.194260348476D-03 0.100000000000D+01
0.213296663989D-06 0.000000000000D+00 0.000000000000D+00 0.734054710608D-06 0.000000000000D+00  6 3 -2 25 -24 3 -1 4 0.42145844D-01 0.12825209D-01 0.22555561D+05 0.22555561D+05 0.22555561D+05 0.12281178D+01  3  4 12  9  5  1       21 0.458945487592D-04 0.100000000000D+01
0.213296663989D-06 0.000000000000D+00 0.000000000000D+00 0.734054710608D-06 0.000000000000D+00  6 4 -2 25 -24 4 -1 4 0.42145844D-01 0.12825209D-01 0.22555561D+05 0.22555561D+05 0.22555561D+05 0.12281178D+01  3  4 12  9  5  1       21 0.380101800289D-04 0.100000000000D+01
-.112484943637D-05 0.000000000000D+00 -.293880743503D-06 0.742243478212D-06 0.000000000000D+00  6 3 -2 25 -24 3 -1 4 0.43107843D-01 0.12825209D-01 0.19536410D+05 0.19536410D+05 0.19536410D+05 0.12349489D+01  3  4  5  9  5  1       21 -.235158811318D-03 0.100000000000D+01
-.112484943637D-05 0.000000000000D+00 -.293880743503D-06 0.742243478212D-06 0.000000000000D+00  6 4 -2 25 -24 4 -1 4 0.43107843D-01 0.12825209D-01 0.19536410D+05 0.19536410D+05 0.19536410D+05 0.12349489D+01  3  4  5  9  5  1       21 -.194260348476D-03 0.100000000000D+01
  </mgrwgt>
  </event>
  <event>
  5     66 0.41051716E-03 0.35775481E+02 0.75467711E-02 0.11956723E+00
       21 -1    0    0  501  502 0.00000000E+00 0.00000000E+00 0.19039606E+04 0.19039608E+04 0.75000000E+00 0.0000E+00 0.9000E+01
       -2 -1    0    0    0  501 0.00000000E+00 0.00000000E+00 -.11603455E+02 0.11607866E+02 0.32000000E+00 0.0000E+00 0.9000E+01
       25  1    1    2    0    0 -.32868836E+02 -.56631167E+02 0.84757497E+03 0.85924139E+03 0.12500000E+03 0.0000E+00 0.9000E+01
      -24  1    1    2    0    0 0.67535795E+02 0.47798467E+02 0.67213055E+03 0.68196222E+03 0.80419002E+02 0.0000E+00 0.9000E+01
       -1  1    1    2    0  502 -.34666959E+02 0.88326999E+01 0.37265164E+03 0.37436501E+03 0.32000000E+00 0.0000E+00 0.9000E+01
#aMCatNLO 1  0  0  1  5 0.15178409D+02 0.00000000D+00  -5  6  0 0.00000000D+00 0.00000000D+00 0.00000000D+00 0.00000000D+00 0.00000000D+00
  <mgrwgt>
 0.5437117966D-01   32    4    0
 0.148650219452349D+03 0.000000000000000D+00 0.000000000000000D+00 0.148650219452349D+03
 0.148650219452349D+03 0.000000000000000D+00 0.000000000000000D+00 -.148650219452349D+03
 0.141342835239604D+03 -.328683119062215D+02 -.566313003587682D+02 -.808498396288945D+01
 0.115823719062802D+03 0.675362246159554D+02 0.477983575934251D+02 -.101041238691223D+02
 0.401338846022922D+02 -.346679127097339D+02 0.883294276534308D+01 0.181891078320117D+02
 0.000000000000000D+00 0.000000000000000D+00 -.000000000000000D+00 0.000000000000000D+00
 0.183510937234662D+03 0.000000000000000D+00 0.000000000000000D+00 0.183510937234662D+03
 0.150505225786459D+03 0.000000000000000D+00 0.000000000000000D+00 -.150505225786459D+03
 0.139169819398747D+03 -.347242892838190D+02 -.497201709523748D+02 -.808498396288945D+01
 0.117437094642148D+03 0.659928832152813D+02 0.535453199578642D+02 -.101041238691223D+02
 0.410807327863947D+02 -.352052592076949D+02 0.108338675763380D+02 0.181891078320117D+02
 0.363285161938310D+02 0.393666527623256D+01 -.146590165818274D+02 0.330057114482032D+02
 0.148650219452349D+03 0.000000000000000D+00 0.000000000000000D+00 0.148650219452349D+03
 0.148650219452349D+03 0.000000000000000D+00 0.000000000000000D+00 -.148650219452349D+03
 0.141342835239604D+03 -.328683119062215D+02 -.566313003587682D+02 -.808498396288945D+01
 0.115823719062802D+03 0.675362246159554D+02 0.477983575934251D+02 -.101041238691223D+02
 0.000000000000000D+00 0.000000000000000D+00 -.000000000000000D+00 0.000000000000000D+00
 0.401338846022922D+02 -.346679127097339D+02 0.883294276534308D+01 0.181891078320117D+02
 0.183510937234662D+03 0.000000000000000D+00 0.000000000000000D+00 0.183510937234662D+03
 0.150505225786459D+03 0.000000000000000D+00 0.000000000000000D+00 -.150505225786459D+03
 0.139169819398747D+03 -.347242892838190D+02 -.497201709523748D+02 -.808498396288945D+01
 0.117437094642148D+03 0.659928832152813D+02 0.535453199578642D+02 -.101041238691223D+02
 0.363285161938310D+02 0.393666527623256D+01 -.146590165818274D+02 0.330057114482032D+02
 0.410807327863947D+02 -.352052592076949D+02 0.108338675763380D+02 0.181891078320117D+02
0.175572101030D-04 0.000000000000D+00 0.000000000000D+00 0.604805626360D-06 0.000000000000D+00  6 21 -2 25 -24 -1 21 2 0.29291737D+00 0.17854976D-02 0.21355298D+05 0.21355298D+05 0.21355298D+05 0.12307034D+01  1  2  2  1  6  1       21 0.723683367464D-02 0.100000000000D+01
0.342529836718D-06 0.926519431818D-06 -.354429487414D-07 0.604805626360D-06 0.000000000000D+00  6 21 -2 25 -24 -1 21 4 0.29291737D+00 0.17854976D-02 0.21355298D+05 0.21355298D+05 0.21355298D+05 0.12307034D+01  1  2  3  1  6  1       21 0.213844599261D-03 0.100000000000D+01
0.186830469518D-05 0.000000000000D+00 0.000000000000D+00 0.604805626360D-06 0.000000000000D+00  6 21 -2 25 -24 -1 21 4 0.29291737D+00 0.17854976D-02 0.21355298D+05 0.21355298D+05 0.21355298D+05 0.12307034D+01  1  2 15  1  6  1       21 0.116640019645D-02 0.100000000000D+01
0.106766054437D-03 0.000000000000D+00 0.000000000000D+00 0.599972094776D-06 0.000000000000D+00  6 21 -2 25 -24 -1 21 4 0.36315016D+00 0.17854976D-02 0.23708198D+05 0.23708198D+05 0.23708198D+05 0.12257757D+01  1  2 12  1  6  1       21 0.257008632535D-01 0.100000000000D+01
0.799832844837D-04 0.000000000000D+00 0.000000000000D+00 0.599972094776D-06 0.000000000000D+00  6 21 -2 25 -24 -1 21 4 0.38670750D+00 0.17854976D-02 0.23708198D+05 0.23708198D+05 0.23708198D+05 0.12257757D+01  1  2 12  1  6  1       21 0.139193298704D-01 0.100000000000D+01
-.119592786424D-03 0.000000000000D+00 0.000000000000D+00 0.604805626360D-06 0.000000000000D+00  6 21 -2 25 -24 -1 21 4 0.29291737D+00 0.17854976D-02 0.21355298D+05 0.21355298D+05 0.21355298D+05 0.12307034D+01  1  2  4  1  6  1       21 -.746629015807D-01 0.100000000000D+01
-.264907305670D-03 0.000000000000D+00 -.230496274507D-04 0.604805626360D-06 0.000000000000D+00  6 21 -2 25 -24 -1 21 4 0.36296648D+00 0.17854976D-02 0.21355298D+05 0.21355298D+05 0.21355298D+05 0.12307034D+01  1  2  5  1  6  1       21 -.655721929054D-01 0.100000000000D+01
0.244716948284D-03 0.000000000000D+00 0.210607606067D-04 0.604805626360D-06 0.000000000000D+00  6 21 -2 25 -24 -1 21 4 0.29291737D+00 0.17854976D-02 0.21355298D+05 0.21355298D+05 0.21355298D+05 0.12307034D+01  1  2  6  1  6  1       21 0.152779092881D+00 0.100000000000D+01
0.668240143858D-05 0.000000000000D+00 0.000000000000D+00 0.599972094776D-06 0.000000000000D+00  6 -1 -2 25 -24 -1 -1 4 0.36315016D+00 0.17854976D-02 0.23708198D+05 0.23708198D+05 0.23708198D+05 0.12257757D+01  1  2 12  4  6  1       21 0.158579664967D-03 0.100000000000D+01
0.685011268617D-05 0.000000000000D+00 0.000000000000D+00 0.599972094776D-06 0.000000000000D+00  6 -1 -2 25 -24 -1 -1 4 0.38670750D+00 0.17854976D-02 0.23708198D+05 0.23708198D+05 0.23708198D+05 0.12257757D+01  1  2 12  4  6  1       21 0.114460536960D-03 0.100000000000D+01
-.164025947804D-04 0.000000000000D+00 -.143854017212D-05 0.604805626360D-06 0.000000000000D+00  6 -1 -2 25 -24 -1 -1 4 0.36296648D+00 0.17854976D-02 0.21355298D+05 0.21355298D+05 0.21355298D+05 0.12307034D+01  1  2  5  4  6  1       21 -.397090111107D-03 0.100000000000D+01
0.668240143858D-05 0.000000000000D+00 0.000000000000D+00 0.599972094776D-06 0.000000000000D+00  6 1 -2 25 -24 1 -1 4 0.36315016D+00 0.17854976D-02 0.23708198D+05 0.23708198D+05 0.23708198D+05 0.12257757D+01  3  4 12  5  5  1       21 0.239499382852D-02 0.100000000000D+01
0.685011268617D-05 0.000000000000D+00 0.000000000000D+00 0.599972094776D-06 0.000000000000D+00  6 1 -2 25 -24 1 -1 4 0.38670750D+00 0.17854976D-02 0.23708198D+05 0.23708198D+05 0.23708198D+05 0.12257757D+01  3  4 12  5  5  1       21 0.195116731419D-02 0.100000000000D+01
-.164025947804D-04 0.000000000000D+00 -.143854017212D-05 0.604805626360D-06 0.000000000000D+00  6 1 -2 25 -24 1 -1 4 0.36296648D+00 0.17854976D-02 0.21355298D+05 0.21355298D+05 0.21355298D+05 0.12307034D+01  3  4  5  5  5  1       21 -.598811461975D-02 0.100000000000D+01
0.668240143858D-05 0.000000000000D+00 0.000000000000D+00 0.599972094776D-06 0.000000000000D+00  6 -2 -2 25 -24 -1 -2 4 0.36315016D+00 0.17854976D-02 0.23708198D+05 0.23708198D+05 0.23708198D+05 0.12257757D+01  1  2 12  6  6  1       21 0.138334059625D-03 0.100000000000D+01
0.685011268617D-05 0.000000000000D+00 0.000000000000D+00 0.599972094776D-06 0.000000000000D+00  6 -2 -2 25 -24 -1 -2 4 0.38670750D+00 0.17854976D-02 0.23708198D+05 0.23708198D+05 0.23708198D+05 0.12257757D+01  1  2 12  6  6  1       21 0.101663405454D-03 0.100000000000D+01
-.164025947804D-04 0.000000000000D+00 -.143854017212D-05 0.604805626360D-06 0.000000000000D+00  6 -2 -2 25 -24 -1 -2 4 0.36296648D+00 0.17854976D-02 0.21355298D+05 0.21355298D+05 0.21355298D+05 0.12307034D+01  1  2  5  6  6  1       21 -.346198868429D-03 0.100000000000D+01
0.668240143858D-05 0.000000000000D+00 0.000000000000D+00 0.599972094776D-06 0.000000000000D+00  6 2 -2 25 -24 2 -1 4 0.36315016D+00 0.17854976D-02 0.23708198D+05 0.23708198D+05 0.23708198D+05 0.12257757D+01  3  4 12  7  5  1       21 0.659255516204D-02 0.100000000000D+01
0.685011268617D-05 0.000000000000D+00 0.000000000000D+00 0.599972094776D-06 0.000000000000D+00  6 2 -2 25 -24 2 -1 4 0.38670750D+00 0.17854976D-02 0.23708198D+05 0.23708198D+05 0.23708198D+05 0.12257757D+01  3  4 12  7  5  1       21 0.560091108688D-02 0.100000000000D+01
-.164025947804D-04 0.000000000000D+00 -.143854017212D-05 0.604805626360D-06 0.000000000000D+00  6 2 -2 25 -24 2 -1 4 0.36296648D+00 0.17854976D-02 0.21355298D+05 0.21355298D+05 0.21355298D+05 0.12307034D+01  3  4  5  7  5  1       21 -.164668437914D-01 0.100000000000D+01
0.668240143858D-05 0.000000000000D+00 0.000000000000D+00 0.599972094776D-06 0.000000000000D+00  6 -3 -2 25 -24 -1 -3 4 0.36315016D+00 0.17854976D-02 0.23708198D+05 0.23708198D+05 0.23708198D+05 0.12257757D+01  1  2 12  8  6  1       21 0.108025284119D-03 0.100000000000D+01
0.668240143858D-05 0.000000000000D+00 0.000000000000D+00 0.599972094776D-06 0.000000000000D+00  6 -4 -2 25 -24 -1 -4 4 0.36315016D+00 0.17854976D-02 0.23708198D+05 0.23708198D+05 0.23708198D+05 0.12257757D+01  1  2 12  8  6  1       21 0.683792393530D-04 0.100000000000D+01
0.685011268617D-05 0.000000000000D+00 0.000000000000D+00 0.599972094776D-06 0.000000000000D+00  6 -3 -2 25 -24 -1 -3 4 0.38670750D+00 0.17854976D-02 0.23708198D+05 0.23708198D+05 0.23708198D+05 0.12257757D+01  1  2 12  8  6  1       21 0.832975869503D-04 0.100000000000D+01
0.685011268617D-05 0.000000000000D+00 0.000000000000D+00 0.599972094776D-06 0.000000000000D+00  6 -4 -2 25 -24 -1 -4 4 0.38670750D+00 0.17854976D-02 0.23708198D+05 0.23708198D+05 0.23708198D+05 0.12257757D+01  1  2 12  8  6  1       21 0.496961272913D-04 0.100000000000D+01
-.164025947804D-04 0.000000000000D+00 -.143854017212D-05 0.604805626360D-06 0.000000000000D+00  6 -3 -2 25 -24 -1 -3 4 0.36296648D+00 0.17854976D-02 0.21355298D+05 0.21355298D+05 0.21355298D+05 0.12307034D+01  1  2  5  8  6  1       21 -.269913429561D-03 0.100000000000D+01
-.164025947804D-04 0.000000000000D+00 -.143854017212D-05 0.604805626360D-06 0.000000000000D+00  6 -4 -2 25 -24 -1 -4 4 0.36296648D+00 0.17854976D-02 0.21355298D+05 0.21355298D+05 0.21355298D+05 0.12307034D+01  1  2  5  8  6  1       21 -.170910403573D-03 0.100000000000D+01
0.668240143858D-05 0.000000000000D+00 0.000000000000D+00 0.599972094776D-06 0.000000000000D+00  6 3 -2 25 -24 3 -1 4 0.36315016D+00 0.17854976D-02 0.23708198D+05 0.23708198D+05 0.23708198D+05 0.12257757D+01  3  4 12  9  5  1       21 0.111336456419D-03 0.100000000000D+01
0.668240143858D-05 0.000000000000D+00 0.000000000000D+00 0.599972094776D-06 0.000000000000D+00  6 4 -2 25 -24 4 -1 4 0.36315016D+00 0.17854976D-02 0.23708198D+05 0.23708198D+05 0.23708198D+05 0.12257757D+01  3  4 12  9  5  1       21 0.683792393530D-04 0.100000000000D+01
0.685011268617D-05 0.000000000000D+00 0.000000000000D+00 0.599972094776D-06 0.000000000000D+00  6 3 -2 25 -24 3 -1 4 0.38670750D+00 0.17854976D-02 0.23708198D+05 0.23708198D+05 0.23708198D+05 0.12257757D+01  3  4 12  9  5  1       21 0.865552019478D-04 0.100000000000D+01
0.685011268617D-05 0.000000000000D+00 0.000000000000D+00 0.599972094776D-06 0.000000000000D+00  6 4 -2 25 -24 4 -1 4 0.38670750D+00 0.17854976D-02 0.23708198D+05 0.23708198D+05 0.23708198D+05 0.12257757D+01  3  4 12  9  5  1       21 0.496961272913D-04 0.100000000000D+01
-.164025947804D-04 0.000000000000D+00 -.143854017212D-05 0.604805626360D-06 0.000000000000D+00  6 3 -2 25 -24 3 -1 4 0.36296648D+00 0.17854976D-02 0.21355298D+05 0.21355298D+05 0.21355298D+05 0.12307034D+01  3  4  5  9  5  1       21 -.278139027567D-03 0.100000000000D+01
-.164025947804D-04 0.000000000000D+00 -.143854017212D-05 0.604805626360D-06 0.000000000000D+00  6 4 -2 25 -24 4 -1 4 0.36296648D+00 0.17854976D-02 0.21355298D+05 0.21355298D+05 0.21355298D+05 0.12307034D+01  3  4  5  9  5  1       21 -.170910403573D-03 0.100000000000D+01
  </mgrwgt>
  </event>
  <event>
  6     66 -.41051716E-03 0.42637617E+02 0.75467711E-02 0.12047455E+00
       21 -1    0    0  503  502 0.00000000E+00 0.00000000E+00 0.63570054E+03 0.63570098E+03 0.75000000E+00 0.0000E+00 0.9000E+01
       -4 -1    0    0    0  501 0.00000000E+00 0.00000000E+00 -.74185737E+02 0.74201927E+02 0.15500000E+01 0.0000E+00 0.9000E+01
       25  1    1    2    0    0 -.41100795E+02 0.39418975E+02 0.29610182E+03 0.32641142E+03 0.12500000E+03 0.0000E+00 0.9000E+01
      -24  1    1    2    0    0 0.38850331E+02 0.19006378E+02 -.14496658E+02 0.92455177E+02 0.80419002E+02 0.0000E+00 0.9000E+01
       -3  1    1    2    0  502 0.12689810E+02 -.48276119E+02 0.11353893E+03 0.12402804E+03 0.50000000E+00 0.0000E+00 0.9000E+01
       21  1    1    2  503  501 -.10439347E+02 -.10149234E+02 0.16637071E+03 0.16700827E+03 0.75000000E+00 0.0000E+00 0.9000E+01
#aMCatNLO 2  0  0  1  2 0.14559770D+02 0.00000000D+00  -5  6  0 0.00000000D+00 0.00000000D+00 0.00000000D+00 0.00000000D+00 0.00000000D+00
  <mgrwgt>
 -.1850173253D-02    3    2    0
 0.185999830341825D+03 0.000000000000000D+00 0.000000000000000D+00 0.185999830341825D+03
 0.185999830341825D+03 0.000000000000000D+00 0.000000000000000D+00 -.185999830341825D+03
 0.161917080661948D+03 -.456402307957134D+02 0.350065672030301D+02 0.853443061701336D+02
 0.148718852752786D+03 0.346573765747993D+02 0.149307510076203D+02 -.119272880962251D+03
 0.613637272689162D+02 0.109828542209140D+02 -.499373182106504D+02 0.339285747921177D+02
 0.000000000000000D+00 -.000000000000000D+00 -.000000000000000D+00 0.000000000000000D+00
 0.252294373606300D+03 0.000000000000000D+00 0.000000000000000D+00 0.252294373606300D+03
 0.186943374304686D+03 0.000000000000000D+00 0.000000000000000D+00 -.186943374304686D+03
 0.161715340768349D+03 -.411009548802181D+02 0.394196949772081D+02 0.853443061701336D+02
 0.150212655548656D+03 0.388501969047849D+02 0.190070513239844D+02 -.119272880962251D+03
 0.603564842227043D+02 0.126901047553661D+02 -.482775127942509D+02 0.339285747921177D+02
 0.669532673712764D+02 -.104393467799329D+02 -.101492335069416D+02 0.653509993016136D+02
-.307528050823D-04 0.000000000000D+00 0.000000000000D+00 0.219059724348D-06 0.000000000000D+00  6 21 -4 25 -24 -3 21 4 0.97935615D-01 0.11356731D-01 0.21484306D+05 0.21484306D+05 0.21484306D+05 0.12304178D+01  1  2 13  1  6  1       21 -.155478503724D-01 0.100000000000D+01
-.282735125951D-04 0.000000000000D+00 0.000000000000D+00 0.219059724348D-06 0.000000000000D+00  6 21 -4 25 -24 -3 21 4 0.10050240D+00 0.11356731D-01 0.21484306D+05 0.21484306D+05 0.21484306D+05 0.12304178D+01  1  2 13  1  6  1       21 -.134527861661D-01 0.100000000000D+01
0.539928570580D-04 0.000000000000D+00 0.000000000000D+00 0.220920335428D-06 0.234257932186D-07  6 21 -4 25 -24 -3 21 4 0.97800269D-01 0.11414342D-01 0.21484306D+05 0.21484306D+05 0.21484306D+05 0.12304178D+01  1  2  1  1  6  1       21 0.271504632857D-01 0.100000000000D+01
  </mgrwgt>
  </event>
  <event>
  6     66 -.41051716E-03 0.14358616E+02 0.75467711E-02 0.11732260E+00
       21 -1    0    0  501  503 0.00000000E+00 0.00000000E+00 0.10309594E+04 0.10309597E+04 0.75000000E+00 0.0000E+00 0.9000E+01
       -2 -1    0    0    0  501 0.00000000E+00 0.00000000E+00 -.92041192E+02 0.92041748E+02 0.32000000E+00 0.0000E+00 0.9000E+01
       25  1    1    2    0    0 0.11631828E+03 0.26673009E+02 0.44682294E+02 0.17850182E+03 0.12500000E+03 0.0000E+00 0.9000E+01
      -24  1    1    2    0    0 -.96697091E+02 -.59403242E+01 0.15449761E+03 0.19930465E+03 0.80419002E+02 0.0000E+00 0.9000E+01
       -1  1    1    2    0  502 0.37311269E+01 -.26069398E+02 0.66431402E+02 0.71461657E+02 0.32000000E+00 0.0000E+00 0.9000E+01
       21  1    1    2  502  503 -.23352316E+02 0.53367131E+01 0.67330695E+03 0.67373334E+03 0.75000000E+00 0.0000E+00 0.9000E+01
#aMCatNLO 2  0  0  1  5 0.23954356D+02 0.00000000D+00  -5  6  0 0.00000000D+00 0.00000000D+00 0.00000000D+00 0.00000000D+00 0.00000000D+00
  <mgrwgt>
 -.7623110955D-02    3    2    0
 0.180775184132817D+03 0.000000000000000D+00 0.000000000000000D+00 0.180775184132817D+03
 0.180775184132817D+03 0.000000000000000D+00 0.000000000000000D+00 -.180775184132817D+03
 0.181864549209473D+03 0.104368297018833D+03 0.294043623253985D+02 -.754477058152890D+02
 0.140315906334800D+03 -.105541990218669D+03 -.391867303946346D+01 0.454628410735402D+02
 0.393699127213604D+02 0.117369319983600D+01 -.254856892859350D+02 0.299848647417487D+02
 0.000000000000000D+00 -.000000000000000D+00 0.000000000000000D+00 0.000000000000000D+00
 0.522550057915972D+03 0.000000000000000D+00 0.000000000000000D+00 0.522550057915972D+03
 0.181591737144349D+03 0.000000000000000D+00 0.000000000000000D+00 -.181591737144349D+03
 0.188570331543958D+03 0.116318278080533D+03 0.266734289169477D+02 -.754477058152890D+02
 0.133864488754293D+03 -.966971143739848D+02 -.593999565187001D+01 0.454628410735402D+02
 0.399082215578765D+02 0.373115269532677D+01 -.260701464110914D+02 0.299848647417487D+02
 0.341798753204194D+03 -.233523164018753D+02 0.533671314601373D+01 0.340958320771623D+03
-.176616656683D-03 0.000000000000D+00 0.000000000000D+00 0.801805817437D-06 0.000000000000D+00  6 21 -2 25 -24 -1 21 4 0.15844600D+00 0.14096542D-01 0.30453251D+05 0.30453251D+05 0.30453251D+05 0.12142155D+01  1  2 13  1  6  1       21 -.300355795783D-01 0.100000000000D+01
-.176284159537D-03 0.000000000000D+00 0.000000000000D+00 0.801805817437D-06 0.000000000000D+00  6 21 -2 25 -24 -1 21 4 0.16507067D+00 0.14096542D-01 0.30453251D+05 0.30453251D+05 0.30453251D+05 0.12142155D+01  1  2 13  1  6  1       21 -.268456756588D-01 0.100000000000D+01
0.292593441618D-03 0.000000000000D+00 0.000000000000D+00 0.810948633326D-06 0.134091127457D-06  6 21 -2 25 -24 -1 21 4 0.15860885D+00 0.14160215D-01 0.30453251D+05 0.30453251D+05 0.30453251D+05 0.12142155D+01  1  2  1  1  6  1       21 0.492581442825D-01 0.100000000000D+01
  </mgrwgt>
  </event>
  <event>
  5     66 0.41051716E-03 0.21292210E+02 0.75467711E-02 0.10592340E+00
       21 -1    0    0  501  502 0.00000000E+00 0.00000000E+00 0.41615484E+03 0.41615552E+03 0.75000000E+00 0.0000E+00 0.9000E+01
       -2 -1    0    0    0  501 0.00000000E+00 0.00000000E+00 -.18230412E+03 0.18230441E+03 0.32000000E+00 0.0000E+00 0.9000E+01
       25  1    1    2    0    0 0.12535209E+03 0.22722250E+02 0.18984733E+03 0.26056948E+03 0.12500000E+03 0.0000E+00 0.9000E+01
      -24  1    1    2    0    0 -.13050097E+03 -.20620571E+01 -.10600119E+03 0.18638192E+03 0.80419002E+02 0.0000E+00 0.9000E+01
       -1  1    1    2    0  502 0.51488726E+01 -.20660193E+02 0.15000458E+03 0.15150852E+03 0.32000000E+00 0.0000E+00 0.9000E+01
#aMCatNLO 1  0  0  2  1 0.12779361D+02 0.00000000D+00  -5  6  0 0.00000000D+00 0.00000000D+00 0.00000000D+00 0.00000000D+00 0.00000000D+00
  <mgrwgt>
 0.1551360354D+00    3    2    0
 0.275439704625089D+03 0.000000000000000D+00 0.000000000000000D+00 0.275439704625089D+03
 0.275439704625089D+03 0.000000000000000D+00 0.000000000000000D+00 -.275439704625089D+03
 0.202484263752530D+03 0.125352084238796D+03 0.227222884336983D+02 0.956317397767583D+02
 0.247478239754652D+03 -.130500977938967D+03 -.206201044693883D+01 -.194276879910041D+03
 0.100916905742997D+03 0.514889370017134D+01 -.206602779867594D+02 0.986451401332828D+02
 0.000000000000000D+00 0.000000000000000D+00 0.000000000000000D+00 0.000000000000000D+00
 0.591903387385141D+03 0.000000000000000D+00 0.000000000000000D+00 0.591903387385141D+03
 0.362012531946802D+03 0.000000000000000D+00 0.000000000000000D+00 -.362012531946802D+03
 0.188966948911748D+03 0.882509493559931D+02 -.561235072500938D+02 0.956317397767583D+02
 0.300184390707589D+03 -.182407587155367D+03 -.112371787165162D+03 -.194276879910041D+03
 0.119169517469068D+03 -.157105539379879D+02 -.649899124238291D+02 0.986451401332828D+02
 0.345595062243539D+03 0.109867191737362D+03 0.233485206839085D+03 0.229890855438339D+03
0.345333588225D-03 0.000000000000D+00 0.000000000000D+00 0.125794400712D-05 0.000000000000D+00  6 21 -2 25 -24 -1 21 2 0.64023896D-01 0.28046862D-01 0.31165292D+05 0.31165292D+05 0.31165292D+05 0.12131653D+01  1  2  2  2  6  2       -2 0.106567344750D+00 0.100000000000D+01
0.731775727555D-04 0.182237541200D-04 -.697129019609D-06 0.125794400712D-05 0.000000000000D+00  6 21 -2 25 -24 -1 21 4 0.64023896D-01 0.28046862D-01 0.31165292D+05 0.31165292D+05 0.31165292D+05 0.12131653D+01  1  2  3  2  6  2       -2 0.332355788924D-01 0.100000000000D+01
0.337602033965D-04 0.000000000000D+00 0.000000000000D+00 0.125794400712D-05 0.000000000000D+00  6 21 -2 25 -24 -1 21 4 0.64023896D-01 0.28046862D-01 0.31165292D+05 0.31165292D+05 0.31165292D+05 0.12131653D+01  1  2 15  2  6  2       -2 0.153331117877D-01 0.100000000000D+01
  </mgrwgt>
  </event>
  <event>
  5     66 -.41051716E-03 0.29921863E+02 0.75467711E-02 0.12274691E+00
       21 -1    0    0  501  502 0.00000000E+00 0.00000000E+00 0.17136479E+03 0.17136643E+03 0.75000000E+00 0.0000E+00 0.9000E+01
       -4 -1    0    0    0  501 0.00000000E+00 0.00000000E+00 -.10553637E+03 0.10554775E+03 0.15500000E+01 0.0000E+00 0.9000E+01
       25  1    1    2    0    0 -.35586526E+02 -.82809859E+01 0.52435508E+02 0.14039038E+03 0.12500000E+03 0.0000E+00 0.9000E+01
      -24  1    1    2    0    0 0.46971148E+02 0.35949931E+02 0.27345746E+02 0.10350697E+03 0.80419002E+02 0.0000E+00 0.9000E+01
       -3  1    1    2    0  502 -.11384623E+02 -.27668945E+02 -.13952837E+02 0.33016841E+02 0.50000000E+00 0.0000E+00 0.9000E+01
#aMCatNLO 1  0  0  5  1 0.89051899D+01 0.00000000D+00  -5  6  0 0.00000000D+00 0.00000000D+00 0.00000000D+00 0.00000000D+00 0.00000000D+00
  <mgrwgt>
 -.6461503962D-01    7    2    0
 0.134487997080562D+03 0.000000000000000D+00 0.000000000000000D+00 0.134487997080562D+03
 0.134487997080562D+03 -.000000000000000D+00 -.000000000000000D+00 -.134487997080562D+03
 0.131700686656332D+03 -.355860275867636D+02 -.827977542958213D+01 0.196252598754562D+02
 0.998697391926980D+02 0.469715259244548D+02 0.359508489046156D+02 0.282153635680165D+01
 0.374055683120946D+02 -.113854983376911D+02 -.276710734750335D+02 -.224467962322579D+02
 0.000000000000000D+00 -.000000000000000D+00 0.000000000000000D+00 0.000000000000000D+00
 0.134487997080562D+03 0.000000000000000D+00 0.000000000000000D+00 0.134487997080562D+03
 0.134487997080562D+03 -.000000000000000D+00 -.000000000000000D+00 -.134487997080562D+03
 0.131820459967041D+03 -.363353382594508D+02 -.101008841825397D+02 0.181479750447358D+02
 0.990914555471928D+02 0.464057886066741D+02 0.345758929366320D+02 0.170617101076610D+01
 0.243810048817886D+02 -.335340195897162D+01 -.125784080215973D+02 -.206148428562913D+02
 0.136830737651030D+02 -.671704838825173D+01 -.118966007324951D+02 0.760696800789393D+00
0.527880273289D-05 0.000000000000D+00 0.000000000000D+00 0.372113301271D-06 0.000000000000D+00  6 21 -4 25 -24 -3 21 2 0.26364816D-01 0.16237367D-01 0.16897659D+05 0.16897659D+05 0.16897659D+05 0.12419674D+01  1  2  2  3  6  5       -3 0.148627070129D-01 0.100000000000D+01
-.268419396791D-06 0.278570073495D-06 -.106563818272D-07 0.372113301271D-06 0.000000000000D+00  6 21 -4 25 -24 -3 21 4 0.26364816D-01 0.16237367D-01 0.16897659D+05 0.16897659D+05 0.16897659D+05 0.12419674D+01  1  2  3  3  6  5       -3 -.116572685638D-02 0.100000000000D+01
0.551960094760D-06 0.000000000000D+00 0.000000000000D+00 0.372113301271D-06 0.000000000000D+00  6 21 -4 25 -24 -3 21 4 0.26364816D-01 0.16237367D-01 0.16897659D+05 0.16897659D+05 0.16897659D+05 0.12419674D+01  1  2 15  3  6  5       -3 0.239712447686D-02 0.100000000000D+01
0.491713603298D-05 0.000000000000D+00 0.000000000000D+00 0.372944376378D-06 0.000000000000D+00  6 21 -4 25 -24 -3 21 4 0.26364816D-01 0.16237367D-01 0.16425200D+05 0.16425200D+05 0.16425200D+05 0.12433536D+01  1  2 12  3  6  5       -3 0.214205843138D-01 0.100000000000D+01
-.264160396008D-04 0.000000000000D+00 0.000000000000D+00 0.372113301271D-06 0.000000000000D+00  6 21 -4 25 -24 -3 21 4 0.26364816D-01 0.16237367D-01 0.16897659D+05 0.16897659D+05 0.16897659D+05 0.12419674D+01  1  2  4  3  6  5       -3 -.114723031085D+00 0.100000000000D+01
-.395954819252D-05 0.000000000000D+00 0.000000000000D+00 0.372113301271D-06 0.000000000000D+00  6 21 -4 25 -24 -3 21 4 0.26364816D-01 0.16237367D-01 0.16897659D+05 0.16897659D+05 0.16897659D+05 0.12419674D+01  1  2  5  3  6  5       -3 -.171960436628D-01 0.100000000000D+01
0.685927264182D-05 0.000000000000D+00 -.000000000000D+00 0.372113301271D-06 0.000000000000D+00  6 21 -4 25 -24 -3 21 4 0.26364816D-01 0.16237367D-01 0.16897659D+05 0.16897659D+05 0.16897659D+05 0.12419674D+01  1  2  6  3  6  5       -3 0.297893461851D-01 0.100000000000D+01
  </mgrwgt>
  </event>
  <event>
  5     66 0.41051716E-03 0.29113690E+02 0.75467711E-02 0.12016925E+00
       21 -1    0    0  501  502 0.00000000E+00 0.00000000E+00 0.27429556E+02 0.27439807E+02 0.75000000E+00 0.0000E+00 0.9000E+01
       -4 -1    0    0    0  501 0.00000000E+00 0.00000000E+00 -.68395767E+03 0.68395942E+03 0.15500000E+01 0.0000E+00 0.9000E+01
       25  1    1    2    0    0 -.17324127E+02 -.63440865E+02 -.27546388E+03 0.30956456E+03 0.12500000E+03 0.0000E+00 0.9000E+01
      -24  1    1    2    0    0 -.10273441E+02 0.52227414E+02 -.31338437E+03 0.32788752E+03 0.80419002E+02 0.0000E+00 0.9000E+01
       -3  1    1    2    0  502 0.27597567E+02 0.11213451E+02 -.67679862E+02 0.73947149E+02 0.50000000E+00 0.0000E+00 0.9000E+01
#aMCatNLO 1  0  0  1  2 0.29092151D+02 0.00000000D+00  -5  6  0 0.00000000D+00 0.00000000D+00 0.00000000D+00 0.00000000D+00 0.00000000D+00
  <mgrwgt>
 0.1391636338D-01   32    4    0
 0.136985130858706D+03 0.000000000000000D+00 0.000000000000000D+00 0.136985130858706D+03
 0.136985130858706D+03 0.000000000000000D+00 0.000000000000000D+00 -.136985130858706D+03
 0.143717685498817D+03 -.173261607770798D+02 -.634416916430944D+02 0.265467331196562D+02
 0.100424199273958D+03 -.102748621384925D+02 0.522268368560173D+02 -.280105081263282D+02
 0.298283769446366D+02 0.276010229155722D+02 0.112148547870771D+02 0.146377500667206D+01
 0.000000000000000D+00 -.000000000000000D+00 0.000000000000000D+00 0.000000000000000D+00
 0.204713057758226D+03 0.000000000000000D+00 0.000000000000000D+00 0.204713057758226D+03
 0.140915295217946D+03 0.000000000000000D+00 0.000000000000000D+00 -.140915295217946D+03
 0.146002879009940D+03 -.371854997230014D+01 -.705215146318365D+02 0.265467331196562D+02
 0.974612154372690D+02 -.980569508977000D+00 0.473911645571427D+02 -.280105081263282D+02
 0.320464453297648D+02 0.305071628423413D+02 0.970283650868732D+01 0.146377500667206D+01
 0.701178131991990D+02 -.258080433610642D+02 0.134275135660064D+02 0.637977625402796D+02
 0.136985130858706D+03 0.000000000000000D+00 0.000000000000000D+00 0.136985130858706D+03
 0.136985130858706D+03 0.000000000000000D+00 0.000000000000000D+00 -.136985130858706D+03
 0.143717685498817D+03 -.173261607770798D+02 -.634416916430944D+02 0.265467331196562D+02
 0.100424199273958D+03 -.102748621384925D+02 0.522268368560173D+02 -.280105081263282D+02
 0.000000000000000D+00 -.000000000000000D+00 0.000000000000000D+00 0.000000000000000D+00
 0.298283769446366D+02 0.276010229155722D+02 0.112148547870771D+02 0.146377500667206D+01
 0.204713057758226D+03 0.000000000000000D+00 0.000000000000000D+00 0.204713057758226D+03
 0.140915295217946D+03 0.000000000000000D+00 0.000000000000000D+00 -.140915295217946D+03
 0.146002879009940D+03 -.371854997230014D+01 -.705215146318365D+02 0.265467331196562D+02
 0.974612154372690D+02 -.980569508977000D+00 0.473911645571427D+02 -.280105081263282D+02
 0.701178131991990D+02 -.258080433610642D+02 0.134275135660064D+02 0.637977625402796D+02
 0.320464453297648D+02 0.305071628423413D+02 0.970283650868732D+01 0.146377500667206D+01
0.185250123948D-05 0.000000000000D+00 0.000000000000D+00 0.550560391658D-06 0.000000000000D+00  6 21 -4 25 -24 -3 21 2 0.42208553D-02 0.10522518D+00 0.17885827D+05 0.17885827D+05 0.17885827D+05 0.12392038D+01  1  2  2  1  6  1       21 0.315357072353D-02 0.100000000000D+01
0.187036901645D-07 0.977591761893D-07 -.373966627325D-08 0.550560391658D-06 0.000000000000D+00  6 21 -4 25 -24 -3 21 4 0.42208553D-02 0.10522518D+00 0.17885827D+05 0.17885827D+05 0.17885827D+05 0.12392038D+01  1  2  3  1  6  1       21 0.488941442519D-04 0.100000000000D+01
0.196982676911D-06 0.000000000000D+00 0.000000000000D+00 0.550560391658D-06 0.000000000000D+00  6 21 -4 25 -24 -3 21 4 0.42208553D-02 0.10522518D+00 0.17885827D+05 0.17885827D+05 0.17885827D+05 0.12392038D+01  1  2 15  1  6  1       21 0.514941133826D-03 0.100000000000D+01
0.920755095263D-05 0.000000000000D+00 0.000000000000D+00 0.541405544372D-06 0.000000000000D+00  6 21 -4 25 -24 -3 21 4 0.63443880D-02 0.10522518D+00 0.22204528D+05 0.22204528D+05 0.22204528D+05 0.12288577D+01  1  2 12  1  6  1       21 0.118104470233D-01 0.100000000000D+01
0.767948424841D-05 0.000000000000D+00 0.000000000000D+00 0.541405544372D-06 0.000000000000D+00  6 21 -4 25 -24 -3 21 4 0.69103195D-02 0.10522518D+00 0.22204528D+05 0.22204528D+05 0.22204528D+05 0.12288577D+01  1  2 12  1  6  1       21 0.851037322064D-02 0.100000000000D+01
-.917036950351D-05 0.000000000000D+00 0.000000000000D+00 0.550560391658D-06 0.000000000000D+00  6 21 -4 25 -24 -3 21 4 0.42208553D-02 0.10522518D+00 0.17885827D+05 0.17885827D+05 0.17885827D+05 0.12392038D+01  1  2  4  1  6  1       21 -.239726687838D-01 0.100000000000D+01
-.215247500374D-04 0.000000000000D+00 -.243966973466D-05 0.550560391658D-06 0.000000000000D+00  6 21 -4 25 -24 -3 21 4 0.64766678D-02 0.10522518D+00 0.17885827D+05 0.17885827D+05 0.17885827D+05 0.12392038D+01  1  2  5  1  6  1       21 -.273468887454D-01 0.100000000000D+01
0.158854549622D-04 0.000000000000D+00 0.173402232486D-05 0.550560391658D-06 0.000000000000D+00  6 21 -4 25 -24 -3 21 4 0.42208553D-02 0.10522518D+00 0.17885827D+05 0.17885827D+05 0.17885827D+05 0.12392038D+01  1  2  6  1  6  1       21 0.415268708793D-01 0.100000000000D+01
0.126042596049D-05 0.000000000000D+00 0.000000000000D+00 0.541405544372D-06 0.000000000000D+00  6 -3 -4 25 -24 -3 -3 4 0.63443880D-02 0.10522518D+00 0.22204528D+05 0.22204528D+05 0.22204528D+05 0.12288577D+01  1  2 12  4  6  1       21 0.677235027392D-04 0.100000000000D+01
0.131617774564D-05 0.000000000000D+00 0.000000000000D+00 0.541405544372D-06 0.000000000000D+00  6 -3 -4 25 -24 -3 -3 4 0.69103195D-02 0.10522518D+00 0.22204528D+05 0.22204528D+05 0.22204528D+05 0.12288577D+01  1  2 12  4  6  1       21 0.616274943802D-04 0.100000000000D+01
-.305772777774D-05 0.000000000000D+00 -.354341650680D-06 0.550560391658D-06 0.000000000000D+00  6 -3 -4 25 -24 -3 -3 4 0.64766678D-02 0.10522518D+00 0.17885827D+05 0.17885827D+05 0.17885827D+05 0.12392038D+01  1  2  5  4  6  1       21 -.161737524371D-03 0.100000000000D+01
0.126042596049D-05 0.000000000000D+00 0.000000000000D+00 0.541405544372D-06 0.000000000000D+00  6 3 -4 25 -24 3 -3 4 0.63443880D-02 0.10522518D+00 0.22204528D+05 0.22204528D+05 0.22204528D+05 0.12288577D+01  3  4 12  5  5  1       21 0.677161036853D-04 0.100000000000D+01
0.131617774564D-05 0.000000000000D+00 0.000000000000D+00 0.541405544372D-06 0.000000000000D+00  6 3 -4 25 -24 3 -3 4 0.69103195D-02 0.10522518D+00 0.22204528D+05 0.22204528D+05 0.22204528D+05 0.12288577D+01  3  4 12  5  5  1       21 0.616205260063D-04 0.100000000000D+01
-.305772777774D-05 0.000000000000D+00 -.354341650680D-06 0.550560391658D-06 0.000000000000D+00  6 3 -4 25 -24 3 -3 4 0.64766678D-02 0.10522518D+00 0.17885827D+05 0.17885827D+05 0.17885827D+05 0.12392038D+01  3  4  5  5  5  1       21 -.161719367091D-03 0.100000000000D+01
0.126042596049D-05 0.000000000000D+00 0.000000000000D+00 0.541405544372D-06 0.000000000000D+00  6 -4 -4 25 -24 -3 -4 4 0.63443880D-02 0.10522518D+00 0.22204528D+05 0.22204528D+05 0.22204528D+05 0.12288577D+01  1  2 12  6  6  1       21 0.600366201324D-04 0.100000000000D+01
0.131617774564D-05 0.000000000000D+00 0.000000000000D+00 0.541405544372D-06 0.000000000000D+00  6 -4 -4 25 -24 -3 -4 4 0.69103195D-02 0.10522518D+00 0.22204528D+05 0.22204528D+05 0.22204528D+05 0.12288577D+01  1  2 12  6  6  1       21 0.545002883503D-04 0.100000000000D+01
-.305772777774D-05 0.000000000000D+00 -.354341650680D-06 0.550560391658D-06 0.000000000000D+00  6 -4 -4 25 -24 -3 -4 4 0.64766678D-02 0.10522518D+00 0.17885827D+05 0.17885827D+05 0.17885827D+05 0.12392038D+01  1  2  5  6  6  1       21 -.142982734244D-03 0.100000000000D+01
0.126042596049D-05 0.000000000000D+00 0.000000000000D+00 0.541405544372D-06 0.000000000000D+00  6 4 -4 25 -24 4 -3 4 0.63443880D-02 0.10522518D+00 0.22204528D+05 0.22204528D+05 0.22204528D+05 0.12288577D+01  3  4 12  7  5  1       21 0.600366201324D-04 0.100000000000D+01
0.131617774564D-05 0.000000000000D+00 0.000000000000D+00 0.541405544372D-06 0.000000000000D+00  6 4 -4 25 -24 4 -3 4 0.69103195D-02 0.10522518D+00 0.22204528D+05 0.22204528D+05 0.22204528D+05 0.12288577D+01  3  4 12  7  5  1       21 0.545002883503D-04 0.100000000000D+01
-.305772777774D-05 0.000000000000D+00 -.354341650680D-06 0.550560391658D-06 0.000000000000D+00  6 4 -4 25 -24 4 -3 4 0.64766678D-02 0.10522518D+00 0.17885827D+05 0.17885827D+05 0.17885827D+05 0.12392038D+01  3  4  5  7  5  1       21 -.142982734244D-03 0.100000000000D+01
0.126042596049D-05 0.000000000000D+00 0.000000000000D+00 0.541405544372D-06 0.000000000000D+00  6 -1 -4 25 -24 -3 -1 4 0.63443880D-02 0.10522518D+00 0.22204528D+05 0.22204528D+05 0.22204528D+05 0.12288577D+01  1  2 12  8  6  1       21 0.973454036954D-04 0.100000000000D+01
0.126042596049D-05 0.000000000000D+00 0.000000000000D+00 0.541405544372D-06 0.000000000000D+00  6 -2 -4 25 -24 -3 -2 4 0.63443880D-02 0.10522518D+00 0.22204528D+05 0.22204528D+05 0.22204528D+05 0.12288577D+01  1  2 12  8  6  1       21 0.946018755867D-04 0.100000000000D+01
0.131617774564D-05 0.000000000000D+00 0.000000000000D+00 0.541405544372D-06 0.000000000000D+00  6 -1 -4 25 -24 -3 -1 4 0.69103195D-02 0.10522518D+00 0.22204528D+05 0.22204528D+05 0.22204528D+05 0.12288577D+01  1  2 12  8  6  1       21 0.894283568965D-04 0.100000000000D+01
0.131617774564D-05 0.000000000000D+00 0.000000000000D+00 0.541405544372D-06 0.000000000000D+00  6 -2 -4 25 -24 -3 -2 4 0.69103195D-02 0.10522518D+00 0.22204528D+05 0.22204528D+05 0.22204528D+05 0.12288577D+01  1  2 12  8  6  1       21 0.866891251681D-04 0.100000000000D+01
-.305772777774D-05 0.000000000000D+00 -.354341650680D-06 0.550560391658D-06 0.000000000000D+00  6 -1 -4 25 -24 -3 -1 4 0.64766678D-02 0.10522518D+00 0.17885827D+05 0.17885827D+05 0.17885827D+05 0.12392038D+01  1  2  5  8  6  1       21 -.234154323928D-03 0.100000000000D+01
-.305772777774D-05 0.000000000000D+00 -.354341650680D-06 0.550560391658D-06 0.000000000000D+00  6 -2 -4 25 -24 -3 -2 4 0.64766678D-02 0.10522518D+00 0.17885827D+05 0.17885827D+05 0.17885827D+05 0.12392038D+01  1  2  5  8  6  1       21 -.227399788524D-03 0.100000000000D+01
0.126042596049D-05 0.000000000000D+00 0.000000000000D+00 0.541405544372D-06 0.000000000000D+00  6 1 -4 25 -24 1 -3 4 0.63443880D-02 0.10522518D+00 0.22204528D+05 0.22204528D+05 0.22204528D+05 0.12288577D+01  3  4 12  9  5  1       21 0.113011039110D-03 0.100000000000D+01
0.126042596049D-05 0.000000000000D+00 0.000000000000D+00 0.541405544372D-06 0.000000000000D+00  6 2 -4 25 -24 2 -3 4 0.63443880D-02 0.10522518D+00 0.22204528D+05 0.22204528D+05 0.22204528D+05 0.12288577D+01  3  4 12  9  5  1       21 0.123527749405D-03 0.100000000000D+01
0.131617774564D-05 0.000000000000D+00 0.000000000000D+00 0.541405544372D-06 0.000000000000D+00  6 1 -4 25 -24 1 -3 4 0.69103195D-02 0.10522518D+00 0.22204528D+05 0.22204528D+05 0.22204528D+05 0.12288577D+01  3  4 12  9  5  1       21 0.105098699253D-03 0.100000000000D+01
0.131617774564D-05 0.000000000000D+00 0.000000000000D+00 0.541405544372D-06 0.000000000000D+00  6 2 -4 25 -24 2 -3 4 0.69103195D-02 0.10522518D+00 0.22204528D+05 0.22204528D+05 0.22204528D+05 0.12288577D+01  3  4 12  9  5  1       21 0.115622814706D-03 0.100000000000D+01
-.305772777774D-05 0.000000000000D+00 -.354341650680D-06 0.550560391658D-06 0.000000000000D+00  6 1 -4 25 -24 1 -3 4 0.64766678D-02 0.10522518D+00 0.17885827D+05 0.17885827D+05 0.17885827D+05 0.12392038D+01  3  4  5  9  5  1       21 -.272714240022D-03 0.100000000000D+01
-.305772777774D-05 0.000000000000D+00 -.354341650680D-06 0.550560391658D-06 0.000000000000D+00  6 2 -4 25 -24 2 -3 4 0.64766678D-02 0.10522518D+00 0.17885827D+05 0.17885827D+05 0.17885827D+05 0.12392038D+01  3  4  5  9  5  1       21 -.298572007227D-03 0.100000000000D+01
  </mgrwgt>
  </event>
  <event>
  6     66 0.41051716E-03 0.31764852E+02 0.75467711E-02 0.11968102E+00
       21 -1    0    0  501  502 0.00000000E+00 0.00000000E+00 0.37491333E+03 0.37491408E+03 0.75000000E+00 0.0000E+00 0.9000E+01
       -2 -1    0    0    0  501 0.00000000E+00 0.00000000E+00 -.91503429E+02 0.91503989E+02 0.32000000E+00 0.0000E+00 0.9000E+01
       25  1    1    2    0    0 -.16005008E+01 -.71285518E+02 0.12158698E+03 0.18839474E+03 0.12500000E+03 0.0000E+00 0.9000E+01
      -24  1    1    2    0    0 -.47676787E+02 0.52327931E+02 0.12271920E+01 0.10714481E+03 0.80419002E+02 0.0000E+00 0.9000E+01
       -1  1    1    2    0  503 0.38859465E+02 0.76486426E+01 0.13774478E+03 0.14332580E+03 0.32000000E+00 0.0000E+00 0.9000E+01
       21  1    1    2  503  502 0.10417823E+02 0.11308944E+02 0.22850956E+02 0.27552712E+02 0.75000000E+00 0.0000E+00 0.9000E+01
#aMCatNLO 2  0  0  5  1 0.95007615D+01 0.00000000D+00  -5  6  0 0.00000000D+00 0.00000000D+00 0.00000000D+00 0.00000000D+00 0.00000000D+00
  <mgrwgt>
 0.1373471778D-02    3    2    0
 0.185219223131574D+03 0.000000000000000D+00 0.000000000000000D+00 0.185219223131574D+03
 0.185219223131574D+03 -.000000000000000D+00 -.000000000000000D+00 -.185219223131574D+03
 0.144274137375989D+03 -.234394296639147D+01 -.715715291676784D+02 0.787710984792779D+01
 0.134715950094339D+03 -.483692594265966D+02 0.520615282402489D+02 -.814320776798820D+02
 0.914483587928198D+02 0.507132023929881D+02 0.195100009274294D+02 0.735549678319543D+02
 0.000000000000000D+00 0.000000000000000D+00 0.000000000000000D+00 0.000000000000000D+00
 0.185219223131574D+03 0.000000000000000D+00 0.000000000000000D+00 0.185219223131574D+03
 0.185219223131574D+03 -.000000000000000D+00 -.000000000000000D+00 -.185219223131574D+03
 0.144184852803064D+03 -.159693999044182D+01 -.712841478139900D+02 0.896057090488419D+01
 0.133963302942791D+03 -.476734787145096D+02 0.523292037507188D+02 -.804229099389246D+02
 0.749746966089401D+02 0.387786457689304D+02 0.756154906233017D+01 0.637200497465939D+02
 0.173155939083533D+02 0.104917729360211D+02 0.113933950009410D+02 0.774228928744646D+01
-.746194816966D-05 0.000000000000D+00 0.000000000000D+00 0.580515218112D-06 0.000000000000D+00  6 21 -2 25 -24 -1 21 4 0.57679074D-01 0.14077551D-01 0.23415174D+05 0.23415174D+05 0.23415174D+05 0.12263588D+01  1  2 13  3  6  5       -1 -.143691705266D-01 0.100000000000D+01
-.368305130214D-07 0.000000000000D+00 0.000000000000D+00 0.580610084705D-06 0.000000000000D+00  6 21 -2 25 -24 -1 21 4 0.57679074D-01 0.14077551D-01 0.23365232D+05 0.23365232D+05 0.23365232D+05 0.12264590D+01  1  2  8  3  6  5       -1 -.709472729024D-04 0.100000000000D+01
0.821203879434D-05 0.000000000000D+00 0.000000000000D+00 0.580610084705D-06 0.341498900689D-07  6 21 -2 25 -24 -1 21 4 0.57679074D-01 0.14077551D-01 0.23415174D+05 0.23415174D+05 0.23415174D+05 0.12263588D+01  1  2  1  3  6  5       -1 0.158135895779D-01 0.100000000000D+01
  </mgrwgt>
  </event>
  <event>
  6     66 0.41051716E-03 0.16671611E+02 0.75467711E-02 0.12369333E+00
       21 -1    0    0  501  502 0.00000000E+00 0.00000000E+00 0.31699508E+02 0.31708379E+02 0.75000000E+00 0.0000E+00 0.9000E+01
       -2 -1    0    0    0  501 -.00000000E+00 -.00000000E+00 -.54271198E+03 0.54271207E+03 0.32000000E+00 0.0000E+00 0.9000E+01
       25  1    1    2    0    0 0.68767295E+01 0.29327306E+02 -.24581243E+03 0.27740968E+03 0.12500000E+03 0.0000E+00 0.9000E+01
      -24  1    1    2    0    0 0.82479814E+01 -.37528675E+02 -.24322499E+03 0.25904062E+03 0.80419002E+02 0.0000E+00 0.9000E+01
       -1  1    1    2    0  503 -.13003159E+02 0.16586153E+02 -.10408189E+02 0.23507774E+02 0.32000000E+00 0.0000E+00 0.9000E+01
       21  1    1    2  503  502 -.21215519E+01 -.83847838E+01 -.11566859E+02 0.14462376E+02 0.75000000E+00 0.0000E+00 0.9000E+01
#aMCatNLO 2  0  0  5  2 0.92354950D+01 0.00000000D+00  -5  6  0 0.00000000D+00 0.00000000D+00 0.00000000D+00 0.00000000D+00 0.00000000D+00
  <mgrwgt>
 0.2079586810D+00    2    2    0
 0.131172700898346D+03 0.000000000000000D+00 0.000000000000000D+00 0.131172700898346D+03
 0.131172700898346D+03 -.000000000000000D+00 -.000000000000000D+00 -.131172700898346D+03
 0.128456995434739D+03 0.913268253125345D+01 0.281040160516709D+02 -.171990339009006D+01
 0.948181523288385D+02 0.989996399640660D+01 -.384244620827650D+02 -.308028810860981D+02
 0.390702540331153D+02 -.190326465276601D+02 0.103204460310941D+02 0.325227844761881D+02
 0.000000000000000D+00 0.000000000000000D+00 -.000000000000000D+00 0.000000000000000D+00
 0.131172700898346D+03 0.000000000000000D+00 0.000000000000000D+00 0.131172700898346D+03
 0.131172700898346D+03 -.000000000000000D+00 -.000000000000000D+00 -.131172700898346D+03
 0.128600014822543D+03 0.683655701168746D+01 0.293490893246316D+02 0.220369153900156D+01
 0.933920288644482D+02 0.821880307553728D+01 -.375128531518577D+02 -.279301311393283D+02
 0.310292050719325D+02 -.128512198456574D+02 0.167238790437105D+02 0.227589451777968D+02
 0.932415303776868D+01 -.220414024156734D+01 -.856011521648442D+01 0.296749442252992D+01
-.656428524027D-05 0.000000000000D+00 0.000000000000D+00 0.236259404372D-05 0.000000000000D+00  6 21 -2 25 -24 -1 21 4 0.48775370D-02 0.83494840D-01 0.14372595D+05 0.14372595D+05 0.14372595D+05 0.12499435D+01  1  2  8  3  6  5       -1 -.469381895421D-01 0.100000000000D+01
0.359673565326D-04 0.000000000000D+00 0.000000000000D+00 0.236259404372D-05 0.255714826896D-06  6 21 -2 25 -24 -1 21 4 0.48775370D-02 0.83494840D-01 0.15330095D+05 0.15330095D+05 0.15330095D+05 0.12467463D+01  1  2  1  3  6  5       -1 0.254896870531D+00 0.100000000000D+01
  </mgrwgt>
  </event>
  <event>
  5     66 -.41051716E-03 0.38564305E+02 0.75467711E-02 0.12293949E+00
       21 -1    0    0  501  502 0.00000000E+00 0.00000000E+00 0.13253995E+02 0.13275198E+02 0.75000000E+00 0.0000E+00 0.9000E+01
       -2 -1    0    0    0  501 0.00000000E+00 0.00000000E+00 -.12754717E+04 0.12754717E+04 0.32000000E+00 0.0000E+00 0.9000E+01
       25  1    1    2    0    0 -.47785607E+01 0.12770563E+02 -.77252249E+03 0.78268890E+03 0.12500000E+03 0.0000E+00 0.9000E+01
      -24  1    1    2    0    0 -.30910458E+02 0.18388837E+01 -.38390266E+03 0.39345560E+03 0.80419002E+02 0.0000E+00 0.9000E+01
       -1  1    1    2    0  502 0.35689019E+02 -.14609446E+02 -.10579255E+03 0.11260244E+03 0.32000000E+00 0.0000E+00 0.9000E+01
#aMCatNLO 1  0  0  1  5 0.69805766D+01 0.00000000D+00  -5  6  0 0.00000000D+00 0.00000000D+00 0.00000000D+00 0.00000000D+00 0.00000000D+00
  <mgrwgt>
 -.4393668590D-01   41    4    0
 0.130072224780097D+03 0.000000000000000D+00 0.000000000000000D+00 0.130072224780097D+03
 0.130072224780097D+03 0.000000000000000D+00 0.000000000000000D+00 -.130072224780097D+03
 0.129145131517109D+03 -.477901833569467D+01 0.127707500880802D+02 -.294539287787951D+02
 0.864749772366722D+02 -.309107642372324D+02 0.183900909047529D+01 0.720058563922573D+01
 0.445243408064131D+02 0.356897825729271D+02 -.146097591785555D+02 0.222533431395694D+02
 0.000000000000000D+00 0.000000000000000D+00 -.000000000000000D+00 0.000000000000000D+00
 0.193052802574733D+03 0.000000000000000D+00 0.000000000000000D+00 0.193052802574733D+03
 0.130312615011850D+03 0.000000000000000D+00 0.000000000000000D+00 -.130312615011850D+03
 0.129440116269737D+03 -.798922321366522D+01 0.140848177786937D+02 -.294539287787951D+02
 0.872924193845867D+02 -.330679984531829D+02 0.272205297459602D+01 0.720058563922573D+01
 0.435055535770820D+02 0.345969360212550D+02 -.141624125452594D+02 0.222533431395694D+02
 0.631273283551769D+02 0.646028564559308D+01 -.264445820803026D+01 0.627401875628823D+02
 0.130072224780097D+03 0.000000000000000D+00 0.000000000000000D+00 0.130072224780097D+03
 0.130072224780097D+03 0.000000000000000D+00 0.000000000000000D+00 -.130072224780097D+03
 0.129145131517109D+03 -.477901833569467D+01 0.127707500880802D+02 -.294539287787951D+02
 0.864749772366722D+02 -.309107642372324D+02 0.183900909047529D+01 0.720058563922573D+01
 0.000000000000000D+00 0.000000000000000D+00 -.000000000000000D+00 0.000000000000000D+00
 0.445243408064131D+02 0.356897825729271D+02 -.146097591785555D+02 0.222533431395694D+02
 0.193052802574733D+03 0.000000000000000D+00 0.000000000000000D+00 0.193052802574733D+03
 0.130312615011850D+03 0.000000000000000D+00 0.000000000000000D+00 -.130312615011850D+03
 0.129440116269737D+03 -.798922321366522D+01 0.140848177786937D+02 -.294539287787951D+02
 0.872924193845867D+02 -.330679984531829D+02 0.272205297459602D+01 0.720058563922573D+01
 0.631273283551769D+02 0.646028564559308D+01 -.264445820803026D+01 0.627401875628823D+02
 0.435055535770820D+02 0.345969360212550D+02 -.141624125452594D+02 0.222533431395694D+02
0.868212507915D-06 0.000000000000D+00 0.000000000000D+00 0.840098506093D-06 0.000000000000D+00  6 21 -2 25 -24 -1 21 2 0.20407102D-02 0.19622805D+00 0.15685120D+05 0.15685120D+05 0.15685120D+05 0.12456173D+01  1  2  2  1  6  1       21 0.201677984657D-02 0.100000000000D+01
-.273587097352D-08 0.458168327891D-07 -.175267091037D-08 0.840098506093D-06 0.000000000000D+00  6 21 -2 25 -24 -1 21 4 0.20407102D-02 0.19622805D+00 0.15685120D+05 0.15685120D+05 0.15685120D+05 0.12456173D+01  1  2  3  1  6  1       21 -.986046425826D-05 0.100000000000D+01
0.859574989007D-07 0.000000000000D+00 0.000000000000D+00 0.840098506093D-06 0.000000000000D+00  6 21 -2 25 -24 -1 21 4 0.20407102D-02 0.19622805D+00 0.15685120D+05 0.15685120D+05 0.15685120D+05 0.12456173D+01  1  2 15  1  6  1       21 0.309802930710D-03 0.100000000000D+01
0.558342050364D-04 0.000000000000D+00 0.000000000000D+00 0.836492790261D-06 0.000000000000D+00  6 21 -2 25 -24 -1 21 4 0.30299781D-02 0.19622805D+00 0.16564131D+05 0.16564131D+05 0.16564131D+05 0.12429414D+01  1  2 12  1  6  1       21 0.104943340977D+00 0.100000000000D+01
0.544990993747D-04 0.000000000000D+00 0.000000000000D+00 0.836492790261D-06 0.000000000000D+00  6 21 -2 25 -24 -1 21 4 0.30538263D-02 0.19622805D+00 0.16564131D+05 0.16564131D+05 0.16564131D+05 0.12429414D+01  1  2 12  1  6  1       21 0.101124484488D+00 0.100000000000D+01
-.107551722202D-03 0.000000000000D+00 0.000000000000D+00 0.840098506093D-06 0.000000000000D+00  6 21 -2 25 -24 -1 21 4 0.20407102D-02 0.19622805D+00 0.15685120D+05 0.15685120D+05 0.15685120D+05 0.12456173D+01  1  2  4  1  6  1       21 -.387631552422D+00 0.100000000000D+01
-.118092145159D-03 0.000000000000D+00 -.116500623527D-05 0.840098506093D-06 0.000000000000D+00  6 21 -2 25 -24 -1 21 4 0.30325509D-02 0.19622805D+00 0.15685120D+05 0.15685120D+05 0.15685120D+05 0.12456173D+01  1  2  5  1  6  1       21 -.223486742228D+00 0.100000000000D+01
0.968786731073D-04 0.000000000000D+00 0.867340355600D-06 0.840098506093D-06 0.000000000000D+00  6 21 -2 25 -24 -1 21 4 0.20407102D-02 0.19622805D+00 0.15685120D+05 0.15685120D+05 0.15685120D+05 0.12456173D+01  1  2  6  1  6  1       21 0.349164380488D+00 0.100000000000D+01
0.528599401662D-05 0.000000000000D+00 0.000000000000D+00 0.840098506093D-06 0.397280105609D-06  6 21 -2 25 -24 -1 21 4 0.30288159D-02 0.19659070D+00 0.16564131D+05 0.16564131D+05 0.16564131D+05 0.12429414D+01  1  2 11  1  6  1       21 0.988960554473D-02 0.100000000000D+01
0.564556604009D-05 0.000000000000D+00 0.000000000000D+00 0.836492790261D-06 0.000000000000D+00  6 -1 -2 25 -24 -1 -1 4 0.30299781D-02 0.19622805D+00 0.16564131D+05 0.16564131D+05 0.16564131D+05 0.12429414D+01  1  2 12  4  6  1       21 0.549516699769D-03 0.100000000000D+01
0.563187201964D-05 0.000000000000D+00 0.000000000000D+00 0.836492790261D-06 0.000000000000D+00  6 -1 -2 25 -24 -1 -1 4 0.30538263D-02 0.19622805D+00 0.16564131D+05 0.16564131D+05 0.16564131D+05 0.12429414D+01  1  2 12  4  6  1       21 0.541967173928D-03 0.100000000000D+01
-.119445851927D-04 0.000000000000D+00 -.154099346509D-06 0.840098506093D-06 0.000000000000D+00  6 -1 -2 25 -24 -1 -1 4 0.30325509D-02 0.19622805D+00 0.15685120D+05 0.15685120D+05 0.15685120D+05 0.12456173D+01  1  2  5  4  6  1       21 -.116991574912D-02 0.100000000000D+01
0.436323433548D-06 0.000000000000D+00 0.000000000000D+00 0.840098506093D-06 0.161027584368D-07  6 -1 -2 25 -24 -1 -1 4 0.30288159D-02 0.19659070D+00 0.16564131D+05 0.16564131D+05 0.16564131D+05 0.12429414D+01  1  2 11  4  6  1       21 0.422715988512D-04 0.100000000000D+01
0.564556604009D-05 0.000000000000D+00 0.000000000000D+00 0.836492790261D-06 0.000000000000D+00  6 1 -2 25 -24 1 -1 4 0.30299781D-02 0.19622805D+00 0.16564131D+05 0.16564131D+05 0.16564131D+05 0.12429414D+01  3  4 12  5  5  1       21 0.592029750380D-03 0.100000000000D+01
0.563187201964D-05 0.000000000000D+00 0.000000000000D+00 0.836492790261D-06 0.000000000000D+00  6 1 -2 25 -24 1 -1 4 0.30538263D-02 0.19622805D+00 0.16564131D+05 0.16564131D+05 0.16564131D+05 0.12429414D+01  3  4 12  5  5  1       21 0.584224906154D-03 0.100000000000D+01
-.119445851927D-04 0.000000000000D+00 -.154099346509D-06 0.840098506093D-06 0.000000000000D+00  6 1 -2 25 -24 1 -1 4 0.30325509D-02 0.19622805D+00 0.15685120D+05 0.15685120D+05 0.15685120D+05 0.12456173D+01  3  4  5  5  5  1       21 -.126059945332D-02 0.100000000000D+01
0.423116349308D-06 0.000000000000D+00 0.000000000000D+00 0.840098506093D-06 0.317140280806D-07  6 1 -2 25 -24 1 -1 4 0.30288159D-02 0.19659070D+00 0.16564131D+05 0.16564131D+05 0.16564131D+05 0.12429414D+01  3  4 11  5  5  1       21 0.441621962297D-04 0.100000000000D+01
0.564556604009D-05 0.000000000000D+00 0.000000000000D+00 0.836492790261D-06 0.000000000000D+00  6 -2 -2 25 -24 -1 -2 4 0.30299781D-02 0.19622805D+00 0.16564131D+05 0.16564131D+05 0.16564131D+05 0.12429414D+01  1  2 12  6  6  1       21 0.541900511088D-03 0.100000000000D+01
0.563187201964D-05 0.000000000000D+00 0.000000000000D+00 0.836492790261D-06 0.000000000000D+00  6 -2 -2 25 -24 -1 -2 4 0.30538263D-02 0.19622805D+00 0.16564131D+05 0.16564131D+05 0.16564131D+05 0.12429414D+01  1  2 12  6  6  1       21 0.534398044900D-03 0.100000000000D+01
-.119445851927D-04 0.000000000000D+00 -.154099346509D-06 0.840098506093D-06 0.000000000000D+00  6 -2 -2 25 -24 -1 -2 4 0.30325509D-02 0.19622805D+00 0.15685120D+05 0.15685120D+05 0.15685120D+05 0.12456173D+01  1  2  5  6  6  1       21 -.115366771350D-02 0.100000000000D+01
0.422452353550D-06 0.000000000000D+00 0.000000000000D+00 0.840098506093D-06 0.311147677128D-07  6 -2 -2 25 -24 -1 -2 4 0.30288159D-02 0.19659070D+00 0.16564131D+05 0.16564131D+05 0.16564131D+05 0.12429414D+01  1  2 11  6  6  1       21 0.403607117776D-04 0.100000000000D+01
0.564556604009D-05 0.000000000000D+00 0.000000000000D+00 0.836492790261D-06 0.000000000000D+00  6 2 -2 25 -24 2 -1 4 0.30299781D-02 0.19622805D+00 0.16564131D+05 0.16564131D+05 0.16564131D+05 0.12429414D+01  3  4 12  7  5  1       21 0.620908760092D-03 0.100000000000D+01
0.563187201964D-05 0.000000000000D+00 0.000000000000D+00 0.836492790261D-06 0.000000000000D+00  6 2 -2 25 -24 2 -1 4 0.30538263D-02 0.19622805D+00 0.16564131D+05 0.16564131D+05 0.16564131D+05 0.12429414D+01  3  4 12  7  5  1       21 0.612923649824D-03 0.100000000000D+01
-.119445851927D-04 0.000000000000D+00 -.154099346509D-06 0.840098506093D-06 0.000000000000D+00  6 2 -2 25 -24 2 -1 4 0.30325509D-02 0.19622805D+00 0.15685120D+05 0.15685120D+05 0.15685120D+05 0.12456173D+01  3  4  5  7  5  1       21 -.132219084393D-02 0.100000000000D+01
0.423281529196D-06 0.000000000000D+00 0.000000000000D+00 0.840098506093D-06 0.311662524389D-07  6 2 -2 25 -24 2 -1 4 0.30288159D-02 0.19659070D+00 0.16564131D+05 0.16564131D+05 0.16564131D+05 0.12429414D+01  3  4 11  7  5  1       21 0.463337553489D-04 0.100000000000D+01
0.564556604009D-05 0.000000000000D+00 0.000000000000D+00 0.836492790261D-06 0.000000000000D+00  6 -3 -2 25 -24 -1 -3 4 0.30299781D-02 0.19622805D+00 0.16564131D+05 0.16564131D+05 0.16564131D+05 0.12429414D+01  1  2 12  8  6  1       21 0.408675978121D-03 0.100000000000D+01
0.564556604009D-05 0.000000000000D+00 0.000000000000D+00 0.836492790261D-06 0.000000000000D+00  6 -4 -2 25 -24 -1 -4 4 0.30299781D-02 0.19622805D+00 0.16564131D+05 0.16564131D+05 0.16564131D+05 0.12429414D+01  1  2 12  8  6  1       21 0.367837320326D-03 0.100000000000D+01
0.563187201964D-05 0.000000000000D+00 0.000000000000D+00 0.836492790261D-06 0.000000000000D+00  6 -3 -2 25 -24 -1 -3 4 0.30538263D-02 0.19622805D+00 0.16564131D+05 0.16564131D+05 0.16564131D+05 0.12429414D+01  1  2 12  8  6  1       21 0.402777415143D-03 0.100000000000D+01
0.563187201964D-05 0.000000000000D+00 0.000000000000D+00 0.836492790261D-06 0.000000000000D+00  6 -4 -2 25 -24 -1 -4 4 0.30538263D-02 0.19622805D+00 0.16564131D+05 0.16564131D+05 0.16564131D+05 0.12429414D+01  1  2 12  8  6  1       21 0.362467971236D-03 0.100000000000D+01
-.119445851927D-04 0.000000000000D+00 -.154099346509D-06 0.840098506093D-06 0.000000000000D+00  6 -3 -2 25 -24 -1 -3 4 0.30325509D-02 0.19622805D+00 0.15685120D+05 0.15685120D+05 0.15685120D+05 0.12456173D+01  1  2  5  8  6  1       21 -.868934823811D-03 0.100000000000D+01
-.119445851927D-04 0.000000000000D+00 -.154099346509D-06 0.840098506093D-06 0.000000000000D+00  6 -4 -2 25 -24 -1 -4 4 0.30325509D-02 0.19622805D+00 0.15685120D+05 0.15685120D+05 0.15685120D+05 0.12456173D+01  1  2  5  8  6  1       21 -.781648409574D-03 0.100000000000D+01
0.424003329169D-06 0.000000000000D+00 0.000000000000D+00 0.840098506093D-06 0.312193986279D-07  6 -3 -2 25 -24 -1 -3 4 0.30288159D-02 0.19659070D+00 0.16564131D+05 0.16564131D+05 0.16564131D+05 0.12429414D+01  1  2 11  8  6  1       21 0.305507995466D-04 0.100000000000D+01
0.424003329169D-06 0.000000000000D+00 0.000000000000D+00 0.840098506093D-06 0.312193986279D-07  6 -4 -2 25 -24 -1 -4 4 0.30288159D-02 0.19659070D+00 0.16564131D+05 0.16564131D+05 0.16564131D+05 0.12429414D+01  1  2 11  8  6  1       21 0.274981061802D-04 0.100000000000D+01
0.564556604009D-05 0.000000000000D+00 0.000000000000D+00 0.836492790261D-06 0.000000000000D+00  6 3 -2 25 -24 3 -1 4 0.30299781D-02 0.19622805D+00 0.16564131D+05 0.16564131D+05 0.16564131D+05 0.12429414D+01  3  4 12  9  5  1       21 0.408645059359D-03 0.100000000000D+01
0.564556604009D-05 0.000000000000D+00 0.000000000000D+00 0.836492790261D-06 0.000000000000D+00  6 4 -2 25 -24 4 -1 4 0.30299781D-02 0.19622805D+00 0.16564131D+05 0.16564131D+05 0.16564131D+05 0.12429414D+01  3  4 12  9  5  1       21 0.367837320326D-03 0.100000000000D+01
0.563187201964D-05 0.000000000000D+00 0.000000000000D+00 0.836492790261D-06 0.000000000000D+00  6 3 -2 25 -24 3 -1 4 0.30538263D-02 0.19622805D+00 0.16564131D+05 0.16564131D+05 0.16564131D+05 0.12429414D+01  3  4 12  9  5  1       21 0.402746796132D-03 0.100000000000D+01
0.563187201964D-05 0.000000000000D+00 0.000000000000D+00 0.836492790261D-06 0.000000000000D+00  6 4 -2 25 -24 4 -1 4 0.30538263D-02 0.19622805D+00 0.16564131D+05 0.16564131D+05 0.16564131D+05 0.12429414D+01  3  4 12  9  5  1       21 0.362467971236D-03 0.100000000000D+01
-.119445851927D-04 0.000000000000D+00 -.154099346509D-06 0.840098506093D-06 0.000000000000D+00  6 3 -2 25 -24 3 -1 4 0.30325509D-02 0.19622805D+00 0.15685120D+05 0.15685120D+05 0.15685120D+05 0.12456173D+01  3  4  5  9  5  1       21 -.868868745049D-03 0.100000000000D+01
-.119445851927D-04 0.000000000000D+00 -.154099346509D-06 0.840098506093D-06 0.000000000000D+00  6 4 -2 25 -24 4 -1 4 0.30325509D-02 0.19622805D+00 0.15685120D+05 0.15685120D+05 0.15685120D+05 0.12456173D+01  3  4  5  9  5  1       21 -.781648409574D-03 0.100000000000D+01
0.424003329169D-06 0.000000000000D+00 0.000000000000D+00 0.840098506093D-06 0.312193986279D-07  6 3 -2 25 -24 3 -1 4 0.30288159D-02 0.19659070D+00 0.16564131D+05 0.16564131D+05 0.16564131D+05 0.12429414D+01  3  4 11  9  5  1       21 0.305484887404D-04 0.100000000000D+01
0.424003329169D-06 0.000000000000D+00 0.000000000000D+00 0.840098506093D-06 0.312193986279D-07  6 4 -2 25 -24 4 -1 4 0.30288159D-02 0.19659070D+00 0.16564131D+05 0.16564131D+05 0.16564131D+05 0.12429414D+01  3  4 11  9  5  1       21 0.274981061802D-04 0.100000000000D+01
  </mgrwgt>
  </event>
  <event>
  5     66 0.41051716E-03 0.78296383E+02 0.75467711E-02 0.11791817E+00
       21 -1    0    0  501  502 0.00000000E+00 0.00000000E+00 0.17906883E+03 0.17907040E+03 0.75000000E+00 0.0000E+00 0.9000E+01
       -2 -1    0    0    0  501 0.00000000E+00 0.00000000E+00 -.23776796E+03 0.23776817E+03 0.32000000E+00 0.0000E+00 0.9000E+01
       25  1    1    2    0    0 -.15386206E+02 0.63226887E+01 0.10045823E+03 0.16122521E+03 0.12500000E+03 0.0000E+00 0.9000E+01
      -24  1    1    2    0    0 0.71757093E+01 0.79700371E+02 -.95285655E+02 0.14815604E+03 0.80419002E+02 0.0000E+00 0.9000E+01
       -1  1    1    2    0  502 0.82104965E+01 -.86023060E+02 -.63871706E+02 0.10745732E+03 0.32000000E+00 0.0000E+00 0.9000E+01
#aMCatNLO 1  0  0  1  2 0.11409633D+02 0.00000000D+00  -5  6  0 0.00000000D+00 0.00000000D+00 0.00000000D+00 0.00000000D+00 0.00000000D+00
  <mgrwgt>
 0.1675768677D-01   32    4    0
 0.206342438974099D+03 0.000000000000000D+00 0.000000000000000D+00 0.206342438974099D+03
 0.206342438974099D+03 0.000000000000000D+00 0.000000000000000D+00 -.206342438974099D+03
 0.177136930398032D+03 -.153862239588041D+02 0.632287985943205D+01 0.124401677695318D+03
 0.136094115133456D+03 0.717569525002106D+01 0.797005180511864D+02 -.751713312349803D+02
 0.994538324167112D+02 0.821052870878307D+01 -.860233979106184D+02 -.492303464603381D+02
 0.000000000000000D+00 -.000000000000000D+00 0.000000000000000D+00 0.000000000000000D+00
 0.222350522734537D+03 0.000000000000000D+00 0.000000000000000D+00 0.222350522734537D+03
 0.208464379621795D+03 0.000000000000000D+00 0.000000000000000D+00 -.208464379621795D+03
 0.176756759583882D+03 -.105579144202687D+02 0.554121721995828D+01 0.124401677695318D+03
 0.135989813382066D+03 0.108878423284299D+02 0.790995527111920D+02 -.751713312349803D+02
 0.100095997779957D+03 0.109330648144733D+02 -.864641535708452D+02 -.492303464603381D+02
 0.179723316104279D+02 -.112629927226345D+02 0.182338363969489D+01 0.138861431127424D+02
 0.206342438974099D+03 0.000000000000000D+00 0.000000000000000D+00 0.206342438974099D+03
 0.206342438974099D+03 0.000000000000000D+00 0.000000000000000D+00 -.206342438974099D+03
 0.177136930398032D+03 -.153862239588041D+02 0.632287985943205D+01 0.124401677695318D+03
 0.136094115133456D+03 0.717569525002106D+01 0.797005180511864D+02 -.751713312349803D+02
 0.000000000000000D+00 -.000000000000000D+00 0.000000000000000D+00 0.000000000000000D+00
 0.994538324167112D+02 0.821052870878307D+01 -.860233979106184D+02 -.492303464603381D+02
 0.222350522734537D+03 0.000000000000000D+00 0.000000000000000D+00 0.222350522734537D+03
 0.208464379621795D+03 0.000000000000000D+00 0.000000000000000D+00 -.208464379621795D+03
 0.176756759583882D+03 -.105579144202687D+02 0.554121721995828D+01 0.124401677695318D+03
 0.135989813382066D+03 0.108878423284299D+02 0.790995527111920D+02 -.751713312349803D+02
 0.179723316104279D+02 -.112629927226345D+02 0.182338363969489D+01 0.138861431127424D+02
 0.100095997779957D+03 0.109330648144733D+02 -.864641535708452D+02 -.492303464603381D+02
0.200217993704D-05 0.000000000000D+00 0.000000000000D+00 0.886853550346D-07 0.000000000000D+00  6 21 -2 25 -24 -1 21 2 0.27549188D-01 0.36579823D-01 0.26563497D+05 0.26563497D+05 0.26563497D+05 0.12204831D+01  1  2  2  1  6  1       21 0.214261874994D-02 0.100000000000D+01
-.204875945471D-06 0.105657938066D-06 -.404182443928D-08 0.886853550346D-07 0.000000000000D+00  6 21 -2 25 -24 -1 21 4 0.27549188D-01 0.36579823D-01 0.26563497D+05 0.26563497D+05 0.26563497D+05 0.12204831D+01  1  2  3  1  6  1       21 -.326585080260D-03 0.100000000000D+01
0.234302284882D-06 0.000000000000D+00 0.000000000000D+00 0.886853550346D-07 0.000000000000D+00  6 21 -2 25 -24 -1 21 4 0.27549188D-01 0.36579823D-01 0.26563497D+05 0.26563497D+05 0.26563497D+05 0.12204831D+01  1  2 15  1  6  1       21 0.373492507077D-03 0.100000000000D+01
0.169459447071D-04 0.000000000000D+00 0.000000000000D+00 0.882224104187D-07 0.000000000000D+00  6 21 -2 25 -24 -1 21 4 0.29821369D-01 0.36579823D-01 0.28468874D+05 0.28468874D+05 0.28468874D+05 0.12172935D+01  1  2 12  1  6  1       21 0.229196590476D-01 0.100000000000D+01
0.151442931621D-04 0.000000000000D+00 0.000000000000D+00 0.882224104187D-07 0.000000000000D+00  6 21 -2 25 -24 -1 21 4 0.30077588D-01 0.36579823D-01 0.28468874D+05 0.28468874D+05 0.28468874D+05 0.12172935D+01  1  2 12  1  6  1       21 0.201453858568D-01 0.100000000000D+01
-.270005300695D-04 0.000000000000D+00 0.000000000000D+00 0.886853550346D-07 0.000000000000D+00  6 21 -2 25 -24 -1 21 4 0.27549188D-01 0.36579823D-01 0.26563497D+05 0.26563497D+05 0.26563497D+05 0.12204831D+01  1  2  4  1  6  1       21 -.430405348932D-01 0.100000000000D+01
-.646152927438D-04 0.000000000000D+00 -.811672643461D-05 0.886853550346D-07 0.000000000000D+00  6 21 -2 25 -24 -1 21 4 0.29932494D-01 0.36579823D-01 0.26563497D+05 0.26563497D+05 0.26563497D+05 0.12204831D+01  1  2  5  1  6  1       21 -.877505208145D-01 0.100000000000D+01
0.644554405025D-04 0.000000000000D+00 0.800605145646D-05 0.886853550346D-07 0.000000000000D+00  6 21 -2 25 -24 -1 21 4 0.27549188D-01 0.36579823D-01 0.26563497D+05 0.26563497D+05 0.26563497D+05 0.12204831D+01  1  2  6  1  6  1       21 0.102746006425D+00 0.100000000000D+01
0.351290290549D-06 0.000000000000D+00 0.000000000000D+00 0.882224104187D-07 0.000000000000D+00  6 -1 -2 25 -24 -1 -1 4 0.29821369D-01 0.36579823D-01 0.28468874D+05 0.28468874D+05 0.28468874D+05 0.12172935D+01  1  2 12  4  6  1       21 0.413433367852D-04 0.100000000000D+01
0.351785287459D-06 0.000000000000D+00 0.000000000000D+00 0.882224104187D-07 0.000000000000D+00  6 -1 -2 25 -24 -1 -1 4 0.30077588D-01 0.36579823D-01 0.28468874D+05 0.28468874D+05 0.28468874D+05 0.12172935D+01  1  2 12  4  6  1       21 0.408078057739D-04 0.100000000000D+01
-.117359381299D-05 0.000000000000D+00 -.168288946705D-06 0.886853550346D-07 0.000000000000D+00  6 -1 -2 25 -24 -1 -1 4 0.29932494D-01 0.36579823D-01 0.26563497D+05 0.26563497D+05 0.26563497D+05 0.12204831D+01  1  2  5  4  6  1       21 -.138597951099D-03 0.100000000000D+01
0.351290290549D-06 0.000000000000D+00 0.000000000000D+00 0.882224104187D-07 0.000000000000D+00  6 1 -2 25 -24 1 -1 4 0.29821369D-01 0.36579823D-01 0.28468874D+05 0.28468874D+05 0.28468874D+05 0.12172935D+01  3  4 12  5  5  1       21 0.724687559942D-04 0.100000000000D+01
0.351785287459D-06 0.000000000000D+00 0.000000000000D+00 0.882224104187D-07 0.000000000000D+00  6 1 -2 25 -24 1 -1 4 0.30077588D-01 0.36579823D-01 0.28468874D+05 0.28468874D+05 0.28468874D+05 0.12172935D+01  3  4 12  5  5  1       21 0.717977735068D-04 0.100000000000D+01
-.117359381299D-05 0.000000000000D+00 -.168288946705D-06 0.886853550346D-07 0.000000000000D+00  6 1 -2 25 -24 1 -1 4 0.29932494D-01 0.36579823D-01 0.26563497D+05 0.26563497D+05 0.26563497D+05 0.12204831D+01  3  4  5  5  5  1       21 -.243331789184D-03 0.100000000000D+01
0.351290290549D-06 0.000000000000D+00 0.000000000000D+00 0.882224104187D-07 0.000000000000D+00  6 -2 -2 25 -24 -1 -2 4 0.29821369D-01 0.36579823D-01 0.28468874D+05 0.28468874D+05 0.28468874D+05 0.12172935D+01  1  2 12  6  6  1       21 0.363237820111D-04 0.100000000000D+01
0.351785287459D-06 0.000000000000D+00 0.000000000000D+00 0.882224104187D-07 0.000000000000D+00  6 -2 -2 25 -24 -1 -2 4 0.30077588D-01 0.36579823D-01 0.28468874D+05 0.28468874D+05 0.28468874D+05 0.12172935D+01  1  2 12  6  6  1       21 0.358173027031D-04 0.100000000000D+01
-.117359381299D-05 0.000000000000D+00 -.168288946705D-06 0.886853550346D-07 0.000000000000D+00  6 -2 -2 25 -24 -1 -2 4 0.29932494D-01 0.36579823D-01 0.26563497D+05 0.26563497D+05 0.26563497D+05 0.12204831D+01  1  2  5  6  6  1       21 -.121704301722D-03 0.100000000000D+01
0.351290290549D-06 0.000000000000D+00 0.000000000000D+00 0.882224104187D-07 0.000000000000D+00  6 2 -2 25 -24 2 -1 4 0.29821369D-01 0.36579823D-01 0.28468874D+05 0.28468874D+05 0.28468874D+05 0.12172935D+01  3  4 12  7  5  1       21 0.951550592789D-04 0.100000000000D+01
0.351785287459D-06 0.000000000000D+00 0.000000000000D+00 0.882224104187D-07 0.000000000000D+00  6 2 -2 25 -24 2 -1 4 0.30077588D-01 0.36579823D-01 0.28468874D+05 0.28468874D+05 0.28468874D+05 0.12172935D+01  3  4 12  7  5  1       21 0.944044803899D-04 0.100000000000D+01
-.117359381299D-05 0.000000000000D+00 -.168288946705D-06 0.886853550346D-07 0.000000000000D+00  6 2 -2 25 -24 2 -1 4 0.29932494D-01 0.36579823D-01 0.26563497D+05 0.26563497D+05 0.26563497D+05 0.12204831D+01  3  4  5  7  5  1       21 -.319652335226D-03 0.100000000000D+01
0.351290290549D-06 0.000000000000D+00 0.000000000000D+00 0.882224104187D-07 0.000000000000D+00  6 -3 -2 25 -24 -1 -3 4 0.29821369D-01 0.36579823D-01 0.28468874D+05 0.28468874D+05 0.28468874D+05 0.12172935D+01  1  2 12  8  6  1       21 0.233121468353D-04 0.100000000000D+01
0.351290290549D-06 0.000000000000D+00 0.000000000000D+00 0.882224104187D-07 0.000000000000D+00  6 -4 -2 25 -24 -1 -4 4 0.29821369D-01 0.36579823D-01 0.28468874D+05 0.28468874D+05 0.28468874D+05 0.12172935D+01  1  2 12  8  6  1       21 0.196366462444D-04 0.100000000000D+01
0.351785287459D-06 0.000000000000D+00 0.000000000000D+00 0.882224104187D-07 0.000000000000D+00  6 -3 -2 25 -24 -1 -3 4 0.30077588D-01 0.36579823D-01 0.28468874D+05 0.28468874D+05 0.28468874D+05 0.12172935D+01  1  2 12  8  6  1       21 0.229769152358D-04 0.100000000000D+01
0.351785287459D-06 0.000000000000D+00 0.000000000000D+00 0.882224104187D-07 0.000000000000D+00  6 -4 -2 25 -24 -1 -4 4 0.30077588D-01 0.36579823D-01 0.28468874D+05 0.28468874D+05 0.28468874D+05 0.12172935D+01  1  2 12  8  6  1       21 0.193475972186D-04 0.100000000000D+01
-.117359381299D-05 0.000000000000D+00 -.168288946705D-06 0.886853550346D-07 0.000000000000D+00  6 -3 -2 25 -24 -1 -3 4 0.29932494D-01 0.36579823D-01 0.26563497D+05 0.26563497D+05 0.26563497D+05 0.12204831D+01  1  2  5  8  6  1       21 -.779788929278D-04 0.100000000000D+01
-.117359381299D-05 0.000000000000D+00 -.168288946705D-06 0.886853550346D-07 0.000000000000D+00  6 -4 -2 25 -24 -1 -4 4 0.29932494D-01 0.36579823D-01 0.26563497D+05 0.26563497D+05 0.26563497D+05 0.12204831D+01  1  2  5  8  6  1       21 -.656275326185D-04 0.100000000000D+01
0.351290290549D-06 0.000000000000D+00 0.000000000000D+00 0.882224104187D-07 0.000000000000D+00  6 3 -2 25 -24 3 -1 4 0.29821369D-01 0.36579823D-01 0.28468874D+05 0.28468874D+05 0.28468874D+05 0.12172935D+01  3  4 12  9  5  1       21 0.233127121372D-04 0.100000000000D+01
0.351290290549D-06 0.000000000000D+00 0.000000000000D+00 0.882224104187D-07 0.000000000000D+00  6 4 -2 25 -24 4 -1 4 0.29821369D-01 0.36579823D-01 0.28468874D+05 0.28468874D+05 0.28468874D+05 0.12172935D+01  3  4 12  9  5  1       21 0.196366462444D-04 0.100000000000D+01
0.351785287459D-06 0.000000000000D+00 0.000000000000D+00 0.882224104187D-07 0.000000000000D+00  6 3 -2 25 -24 3 -1 4 0.30077588D-01 0.36579823D-01 0.28468874D+05 0.28468874D+05 0.28468874D+05 0.12172935D+01  3  4 12  9  5  1       21 0.229775587069D-04 0.100000000000D+01
0.351785287459D-06 0.000000000000D+00 0.000000000000D+00 0.882224104187D-07 0.000000000000D+00  6 4 -2 25 -24 4 -1 4 0.30077588D-01 0.36579823D-01 0.28468874D+05 0.28468874D+05 0.28468874D+05 0.12172935D+01  3  4 12  9  5  1       21 0.193475972186D-04 0.100000000000D+01
-.117359381299D-05 0.000000000000D+00 -.168288946705D-06 0.886853550346D-07 0.000000000000D+00  6 3 -2 25 -24 3 -1 4 0.29932494D-01 0.36579823D-01 0.26563497D+05 0.26563497D+05 0.26563497D+05 0.12204831D+01  3  4  5  9  5  1       21 -.779808116875D-04 0.100000000000D+01
-.117359381299D-05 0.000000000000D+00 -.168288946705D-06 0.886853550346D-07 0.000000000000D+00  6 4 -2 25 -24 4 -1 4 0.29932494D-01 0.36579823D-01 0.26563497D+05 0.26563497D+05 0.26563497D+05 0.12204831D+01  3  4  5  9  5  1       21 -.656275326185D-04 0.100000000000D+01
  </mgrwgt>
  </event>
  <event>
  5     66 0.41051716E-03 0.39150564E+02 0.75467711E-02 0.12005646E+00
       21 -1    0    0  501  502 0.00000000E+00 0.00000000E+00 0.54227776E+02 0.54232962E+02 0.75000000E+00 0.0000E+00 0.9000E+01
       -4 -1    0    0    0  501 0.00000000E+00 0.00000000E+00 -.12561840E+04 0.12561850E+04 0.15500000E+01 0.0000E+00 0.9000E+01
       25  1    1    2    0    0 -.24890662E+02 0.27394589E+02 -.79586928E+03 0.80647562E+03 0.12500000E+03 0.0000E+00 0.9000E+01
      -24  1    1    2    0    0 0.12281819E+02 0.96699378E+01 -.44277234E+03 0.45028759E+03 0.80419002E+02 0.0000E+00 0.9000E+01
       -3  1    1    2    0  502 0.12608842E+02 -.37064527E+02 0.36685385E+02 0.53654725E+02 0.50000000E+00 0.0000E+00 0.9000E+01
#aMCatNLO 1  0  0  1  2 0.36160239D+02 0.00000000D+00  -5  6  0 0.00000000D+00 0.00000000D+00 0.00000000D+00 0.00000000D+00 0.00000000D+00
  <mgrwgt>
 0.3400534922D-01   23    4    0
 0.261005918678618D+03 0.000000000000000D+00 0.000000000000000D+00 0.261005918678618D+03
 0.261005918678618D+03 0.000000000000000D+00 0.000000000000000D+00 -.261005918678618D+03
 0.191988262842961D+03 -.248906737252968D+02 0.273946245325440D+02 -.140941413281121D+03
 0.110863379375841D+03 0.122818122020471D+02 0.966995824026370D+01 -.746935199928770D+02
 0.219160195138434D+03 0.126088615232497D+02 -.370645827728077D+02 0.215634933273998D+03
 0.000000000000000D+00 -.000000000000000D+00 0.000000000000000D+00 0.000000000000000D+00
 0.301862795648349D+03 0.000000000000000D+00 0.000000000000000D+00 0.301862795648349D+03
 0.269756643085909D+03 0.000000000000000D+00 0.000000000000000D+00 -.269756643085909D+03
 0.189974108761886D+03 -.188806842521997D+02 0.156268929849131D+02 -.140941413281121D+03
 0.110919457450265D+03 0.157714557212193D+02 0.283713626705205D+01 -.746935199928770D+02
 0.222369198759781D+03 0.195561087042795D+02 -.506674917608103D+02 0.215634933273998D+03
 0.483566737623265D+02 -.164468801732991D+02 0.322034625088451D+02 0.321061525624392D+02
 0.261005918678618D+03 0.000000000000000D+00 0.000000000000000D+00 0.261005918678618D+03
 0.261005918678618D+03 0.000000000000000D+00 0.000000000000000D+00 -.261005918678618D+03
 0.191988262842961D+03 -.248906737252968D+02 0.273946245325440D+02 -.140941413281121D+03
 0.110863379375841D+03 0.122818122020471D+02 0.966995824026370D+01 -.746935199928770D+02
 0.000000000000000D+00 -.000000000000000D+00 0.000000000000000D+00 0.000000000000000D+00
 0.219160195138434D+03 0.126088615232497D+02 -.370645827728077D+02 0.215634933273998D+03
 0.301862795648349D+03 0.000000000000000D+00 0.000000000000000D+00 0.301862795648349D+03
 0.269756643085909D+03 0.000000000000000D+00 0.000000000000000D+00 -.269756643085909D+03
 0.189974108761886D+03 -.188806842521997D+02 0.156268929849131D+02 -.140941413281121D+03
 0.110919457450265D+03 0.157714557212193D+02 0.283713626705205D+01 -.746935199928770D+02
 0.483566737623265D+02 -.164468801732991D+02 0.322034625088451D+02 0.321061525624392D+02
 0.222369198759781D+03 0.195561087042795D+02 -.506674917608103D+02 0.215634933273998D+03
0.555558707527D-04 0.000000000000D+00 0.000000000000D+00 0.121855718825D-04 0.000000000000D+00  6 21 -4 25 -24 -3 21 2 0.83432072D-02 0.19325955D+00 0.15805472D+05 0.15805472D+05 0.15805472D+05 0.12452411D+01  1  2  2  1  6  1       21 0.644654143810D-02 0.100000000000D+01
0.938418862640D-05 0.293176384528D-05 -.112151296694D-06 0.121855718825D-04 0.000000000000D+00  6 21 -4 25 -24 -3 21 4 0.83432072D-02 0.19325955D+00 0.15805472D+05 0.15805472D+05 0.15805472D+05 0.12452411D+01  1  2  3  1  6  1       21 0.168849770802D-02 0.100000000000D+01
0.521927612691D-05 0.000000000000D+00 0.000000000000D+00 0.121855718825D-04 0.000000000000D+00  6 21 -4 25 -24 -3 21 4 0.83432072D-02 0.19325955D+00 0.15805472D+05 0.15805472D+05 0.15805472D+05 0.12452411D+01  1  2 15  1  6  1       21 0.939104714182D-03 0.100000000000D+01
0.159242699780D-03 0.000000000000D+00 0.000000000000D+00 0.118558964876D-04 0.000000000000D+00  6 21 -4 25 -24 -3 21 4 0.97740733D-02 0.19325955D+00 0.22477637D+05 0.22477637D+05 0.22477637D+05 0.12282809D+01  1  2 12  1  6  1       21 0.206425904770D-01 0.100000000000D+01
-.917741616813D-04 0.000000000000D+00 0.000000000000D+00 0.121855718825D-04 0.000000000000D+00  6 21 -4 25 -24 -3 21 4 0.83432072D-02 0.19325955D+00 0.15805472D+05 0.15805472D+05 0.15805472D+05 0.12452411D+01  1  2  4  1  6  1       21 -.165129312532D-01 0.100000000000D+01
-.466272199107D-03 0.000000000000D+00 -.117506501827D-03 0.121855718825D-04 0.000000000000D+00  6 21 -4 25 -24 -3 21 4 0.99735302D-02 0.19325955D+00 0.15805472D+05 0.15805472D+05 0.15805472D+05 0.12452411D+01  1  2  5  1  6  1       21 -.615254341623D-01 0.100000000000D+01
0.461303939580D-03 0.000000000000D+00 0.110344608343D-03 0.121855718825D-04 0.000000000000D+00  6 21 -4 25 -24 -3 21 4 0.83432072D-02 0.19325955D+00 0.15805472D+05 0.15805472D+05 0.15805472D+05 0.12452411D+01  1  2  6  1  6  1       21 0.830024497259D-01 0.100000000000D+01
0.691077181425D-05 0.000000000000D+00 0.000000000000D+00 0.118558964876D-04 0.000000000000D+00  6 -3 -4 25 -24 -3 -3 4 0.97740733D-02 0.19325955D+00 0.22477637D+05 0.22477637D+05 0.22477637D+05 0.12282809D+01  1  2 12  4  6  1       21 0.392100907372D-04 0.100000000000D+01
-.177503281709D-04 0.000000000000D+00 -.588094981880D-05 0.121855718825D-04 0.000000000000D+00  6 -3 -4 25 -24 -3 -3 4 0.99735302D-02 0.19325955D+00 0.15805472D+05 0.15805472D+05 0.15805472D+05 0.12452411D+01  1  2  5  4  6  1       21 -.101299948544D-03 0.100000000000D+01
0.691077181425D-05 0.000000000000D+00 0.000000000000D+00 0.118558964876D-04 0.000000000000D+00  6 3 -4 25 -24 3 -3 4 0.97740733D-02 0.19325955D+00 0.22477637D+05 0.22477637D+05 0.22477637D+05 0.12282809D+01  3  4 12  5  5  1       21 0.392052006122D-04 0.100000000000D+01
-.177503281709D-04 0.000000000000D+00 -.588094981880D-05 0.121855718825D-04 0.000000000000D+00  6 3 -4 25 -24 3 -3 4 0.99735302D-02 0.19325955D+00 0.15805472D+05 0.15805472D+05 0.15805472D+05 0.12452411D+01  3  4  5  5  5  1       21 -.101286833483D-03 0.100000000000D+01
0.691077181425D-05 0.000000000000D+00 0.000000000000D+00 0.118558964876D-04 0.000000000000D+00  6 -4 -4 25 -24 -3 -4 4 0.97740733D-02 0.19325955D+00 0.22477637D+05 0.22477637D+05 0.22477637D+05 0.12282809D+01  1  2 12  6  6  1       21 0.343163937660D-04 0.100000000000D+01
-.177503281709D-04 0.000000000000D+00 -.588094981880D-05 0.121855718825D-04 0.000000000000D+00  6 -4 -4 25 -24 -3 -4 4 0.99735302D-02 0.19325955D+00 0.15805472D+05 0.15805472D+05 0.15805472D+05 0.12452411D+01  1  2  5  6  6  1       21 -.882685278331D-04 0.100000000000D+01
0.691077181425D-05 0.000000000000D+00 0.000000000000D+00 0.118558964876D-04 0.000000000000D+00  6 4 -4 25 -24 4 -3 4 0.97740733D-02 0.19325955D+00 0.22477637D+05 0.22477637D+05 0.22477637D+05 0.12282809D+01  3  4 12  7  5  1       21 0.343163937660D-04 0.100000000000D+01
-.177503281709D-04 0.000000000000D+00 -.588094981880D-05 0.121855718825D-04 0.000000000000D+00  6 4 -4 25 -24 4 -3 4 0.99735302D-02 0.19325955D+00 0.15805472D+05 0.15805472D+05 0.15805472D+05 0.12452411D+01  3  4  5  7  5  1       21 -.882685278331D-04 0.100000000000D+01
0.691077181425D-05 0.000000000000D+00 0.000000000000D+00 0.118558964876D-04 0.000000000000D+00  6 -1 -4 25 -24 -3 -1 4 0.97740733D-02 0.19325955D+00 0.22477637D+05 0.22477637D+05 0.22477637D+05 0.12282809D+01  1  2 12  8  6  1       21 0.592730885024D-04 0.100000000000D+01
0.691077181425D-05 0.000000000000D+00 0.000000000000D+00 0.118558964876D-04 0.000000000000D+00  6 -2 -4 25 -24 -3 -2 4 0.97740733D-02 0.19325955D+00 0.22477637D+05 0.22477637D+05 0.22477637D+05 0.12282809D+01  1  2 12  8  6  1       21 0.567264546318D-04 0.100000000000D+01
-.177503281709D-04 0.000000000000D+00 -.588094981880D-05 0.121855718825D-04 0.000000000000D+00  6 -1 -4 25 -24 -3 -1 4 0.99735302D-02 0.19325955D+00 0.15805472D+05 0.15805472D+05 0.15805472D+05 0.12452411D+01  1  2  5  8  6  1       21 -.154801904228D-03 0.100000000000D+01
-.177503281709D-04 0.000000000000D+00 -.588094981880D-05 0.121855718825D-04 0.000000000000D+00  6 -2 -4 25 -24 -3 -2 4 0.99735302D-02 0.19325955D+00 0.15805472D+05 0.15805472D+05 0.15805472D+05 0.12452411D+01  1  2  5  8  6  1       21 -.147989070038D-03 0.100000000000D+01
0.691077181425D-05 0.000000000000D+00 0.000000000000D+00 0.118558964876D-04 0.000000000000D+00  6 1 -4 25 -24 1 -3 4 0.97740733D-02 0.19325955D+00 0.22477637D+05 0.22477637D+05 0.22477637D+05 0.12282809D+01  3  4 12  9  5  1       21 0.739321674102D-04 0.100000000000D+01
0.691077181425D-05 0.000000000000D+00 0.000000000000D+00 0.118558964876D-04 0.000000000000D+00  6 2 -4 25 -24 2 -3 4 0.97740733D-02 0.19325955D+00 0.22477637D+05 0.22477637D+05 0.22477637D+05 0.12282809D+01  3  4 12  9  5  1       21 0.838445880555D-04 0.100000000000D+01
-.177503281709D-04 0.000000000000D+00 -.588094981880D-05 0.121855718825D-04 0.000000000000D+00  6 1 -4 25 -24 1 -3 4 0.99735302D-02 0.19325955D+00 0.15805472D+05 0.15805472D+05 0.15805472D+05 0.12452411D+01  3  4  5  9  5  1       21 -.193969652787D-03 0.100000000000D+01
-.177503281709D-04 0.000000000000D+00 -.588094981880D-05 0.121855718825D-04 0.000000000000D+00  6 2 -4 25 -24 2 -3 4 0.99735302D-02 0.19325955D+00 0.15805472D+05 0.15805472D+05 0.15805472D+05 0.12452411D+01  3  4  5  9  5  1       21 -.220409340110D-03 0.100000000000D+01
  </mgrwgt>
  </event>
  <event>
  5     66 0.41051716E-03 0.28612931E+02 0.75467711E-02 0.11354449E+00
       21 -1    0    0  501  502 0.00000000E+00 0.00000000E+00 0.75257033E+02 0.75260770E+02 0.75000000E+00 0.0000E+00 0.9000E+01
       -2 -1    0    0    0  501 0.00000000E+00 0.00000000E+00 -.15915881E+04 0.15915881E+04 0.32000000E+00 0.0000E+00 0.9000E+01
       25  1    1    2    0    0 -.49896679E+01 -.14526980E+03 -.33345390E+03 0.38463583E+03 0.12500000E+03 0.0000E+00 0.9000E+01
      -24  1    1    2    0    0 0.42086888E+01 0.17387205E+03 -.12202167E+04 0.12351701E+04 0.80419002E+02 0.0000E+00 0.9000E+01
       -1  1    1    2    0  502 0.78097911E+00 -.28602243E+02 0.37339529E+02 0.47042970E+02 0.32000000E+00 0.0000E+00 0.9000E+01
#aMCatNLO 1  0  0  1  2 0.21499663D+02 0.00000000D+00  -5  6  0 0.00000000D+00 0.00000000D+00 0.00000000D+00 0.00000000D+00 0.00000000D+00
  <mgrwgt>
 0.1437965319D+00    3    2    0
 0.346094410351529D+03 0.000000000000000D+00 0.000000000000000D+00 0.346094410351529D+03
 0.346094410351529D+03 0.000000000000000D+00 0.000000000000000D+00 -.346094410351529D+03
 0.195760565910557D+03 -.498966823835117D+01 -.145269792573035D+03 0.396104751584718D+02
 0.301347726787557D+03 0.420868837369889D+01 0.173872063467369D+03 -.232581230913911D+03
 0.195080528004943D+03 0.780979864652280D+00 -.286022708943335D+02 0.192970755755440D+03
 0.000000000000000D+00 0.000000000000000D+00 0.000000000000000D+00 -.000000000000000D+00
 0.346450269517759D+03 0.000000000000000D+00 0.000000000000000D+00 0.346450269517759D+03
 0.957838093769420D+03 0.000000000000000D+00 0.000000000000000D+00 -.957838093769420D+03
 0.200367472397134D+03 -.500452510922174D+01 -.151420239667514D+03 0.396104751584718D+02
 0.296092217905007D+03 0.418628125465441D+01 0.164595964790643D+03 -.232581230913911D+03
 0.196062944001122D+03 0.766309941058164D+00 -.346753255591878D+02 0.192970755755440D+03
 0.611765728983915D+03 0.519339135091709D-01 0.214996004360595D+02 -.611387824251661D+03
0.161280352193D-02 0.000000000000D+00 0.000000000000D+00 0.157655710100D-05 0.000000000000D+00  6 21 -2 25 -24 -1 21 2 0.11578295D-01 0.24486000D+00 0.42423537D+05 0.42423537D+05 0.42423537D+05 0.11994146D+01  1  2  2  1  6  1       21 0.928520819353D-01 0.100000000000D+01
0.450523599168D-03 0.851099801169D-04 -.325578564148D-05 0.157655710100D-05 0.000000000000D+00  6 21 -2 25 -24 -1 21 4 0.11578295D-01 0.24486000D+00 0.42423537D+05 0.42423537D+05 0.42423537D+05 0.11994146D+01  1  2  3  1  6  1       21 0.373135345280D-01 0.100000000000D+01
0.164579666454D-03 0.000000000000D+00 0.000000000000D+00 0.157655710100D-05 0.000000000000D+00  6 21 -2 25 -24 -1 21 4 0.11578295D-01 0.24486000D+00 0.42423537D+05 0.42423537D+05 0.42423537D+05 0.11994146D+01  1  2 15  1  6  1       21 0.136309154019D-01 0.100000000000D+01
  </mgrwgt>
  </event>
  <event>
  5     66 -.41051716E-03 0.29945694E+02 0.75467711E-02 0.11565331E+00
       21 -1    0    0  501  502 0.00000000E+00 0.00000000E+00 0.21336311E+02 0.21349488E+02 0.75000000E+00 0.0000E+00 0.9000E+01
       -2 -1    0    0    0  501 -.00000000E+00 -.00000000E+00 -.21655489E+04 0.21655489E+04 0.32000000E+00 0.0000E+00 0.9000E+01
       25  1    1    2    0    0 0.85209027E+02 0.12391773E+03 -.94183798E+03 0.96192513E+03 0.12500000E+03 0.0000E+00 0.9000E+01
      -24  1    1    2    0    0 -.97188902E+02 -.96473096E+02 -.11705514E+04 0.11812749E+04 0.80419002E+02 0.0000E+00 0.9000E+01
       -1  1    1    2    0  502 0.11979876E+02 -.27444632E+02 -.31823272E+02 0.43698378E+02 0.32000000E+00 0.0000E+00 0.9000E+01
#aMCatNLO 1  0  0  5  1 0.28096052D+01 0.00000000D+00  -5  6  0 0.00000000D+00 0.00000000D+00 0.00000000D+00 0.00000000D+00 0.00000000D+00
  <mgrwgt>
 -.6156508866D-02    1    2    0
 0.214986649121614D+03 0.000000000000000D+00 0.000000000000000D+00 0.214986649121614D+03
 0.214986649121614D+03 -.000000000000000D+00 -.000000000000000D+00 -.214986649121614D+03
 0.195667308986756D+03 0.852089575641944D+02 0.123917885691849D+03 0.666985476631542D+01
 0.170748547296788D+03 -.971889625871238D+02 -.964729575925621D+02 -.627305703319788D+02
 0.635574419596846D+02 0.119800050229294D+02 -.274449280992873D+02 0.560607155656634D+02
 0.000000000000000D+00 0.000000000000000D+00 0.000000000000000D+00 -.000000000000000D+00
 0.214986649121614D+03 0.000000000000000D+00 0.000000000000000D+00 0.214986649121614D+03
 0.214986649121614D+03 -.000000000000000D+00 -.000000000000000D+00 -.214986649121614D+03
 0.193667891656115D+03 0.883762205937780D+02 0.116662020109817D+03 0.214911366842518D+02
 0.168619177362819D+03 -.944281876919345D+02 -.102797601726831D+03 -.498114592094209D+02
 0.454247640586466D+02 0.129490239161080D+02 0.853576232553294D+00 0.435316365074758D+02
 0.222614651656487D+02 -.689705681795144D+01 -.147179946155386D+02 -.152113139823067D+02
-.271238908882D-04 0.000000000000D+00 0.000000000000D+00 0.831128369678D-06 0.000000000000D+00  6 21 -2 25 -24 -1 21 4 0.32835248D-02 0.33316239D+00 0.36923000D+05 0.36923000D+05 0.36923000D+05 0.12055465D+01  1  2 14  3  6  5       -1 -.615650886649D-02 0.100000000000D+01
  </mgrwgt>
  </event>
  <event>
  5     66 0.41051716E-03 0.38155426E+02 0.75467711E-02 0.10549915E+00
       21 -1    0    0  501  502 0.00000000E+00 0.00000000E+00 0.12816421E+03 0.12816641E+03 0.75000000E+00 0.0000E+00 0.9000E+01
       -2 -1    0    0    0  501 0.00000000E+00 0.00000000E+00 -.14665081E+03 0.14665116E+03 0.32000000E+00 0.0000E+00 0.9000E+01
       25  1    1    2    0    0 -.19570340E+02 -.71010564E+02 0.59912620E+01 0.14521155E+03 0.12500000E+03 0.0000E+00 0.9000E+01
      -24  1    1    2    0    0 0.41222743E+00 0.38014824E+02 -.14087468E+02 0.90060921E+02 0.80419002E+02 0.0000E+00 0.9000E+01
       -1  1    1    2    0  502 0.19158113E+02 0.32995740E+02 -.10390395E+02 0.39545099E+02 0.32000000E+00 0.0000E+00 0.9000E+01
#aMCatNLO 1  0  0  2  1 0.10054645D+02 0.00000000D+00  -5  6  0 0.00000000D+00 0.00000000D+00 0.00000000D+00 0.00000000D+00 0.00000000D+00
  <mgrwgt>
 0.2677376742D-01    3    2    0
 0.137097539460033D+03 0.000000000000000D+00 0.000000000000000D+00 0.137097539460033D+03
 0.137097539460033D+03 0.000000000000000D+00 0.000000000000000D+00 -.137097539460033D+03
 0.145945502229496D+03 -.195706847516633D+02 -.710111575693458D+02 0.157953607123197D+02
 0.893154220544670D+02 0.412016639358395D+00 0.380144614484580D+02 -.804733654507061D+01
 0.389341546361024D+02 0.191586681123049D+02 0.329966961208878D+02 -.774802416724905D+01
 0.000000000000000D+00 -.000000000000000D+00 0.000000000000000D+00 0.000000000000000D+00
 0.485247024961206D+03 0.000000000000000D+00 0.000000000000000D+00 0.485247024961206D+03
 0.302894415406932D+03 0.000000000000000D+00 0.000000000000000D+00 -.302894415406932D+03
 0.235689171574011D+03 0.141349147028729D+03 -.140339982939510D+03 0.157953607123197D+02
 0.119967721988781D+03 0.886582129251050D+02 -.450156055777029D-02 -.804733654507061D+01
 0.650146782863925D+02 0.629896663309535D+02 0.141130595443366D+02 -.774802416724905D+01
 0.367469868518953D+03 -.292997026284788D+03 0.126231424955731D+03 0.182352609554274D+03
0.486142012778D-05 0.000000000000D+00 0.000000000000D+00 0.400241802570D-06 0.000000000000D+00  6 21 -2 25 -24 -1 21 2 0.19717767D-01 0.22561859D-01 0.18522640D+05 0.18522640D+05 0.18522640D+05 0.12375120D+01  1  2  2  2  6  2       -2 0.238355017818D-01 0.100000000000D+01
-.159336098052D-06 0.256544188296D-06 -.981380660076D-08 0.400241802570D-06 0.000000000000D+00  6 21 -2 25 -24 -1 21 4 0.19717767D-01 0.22561859D-01 0.18522640D+05 0.18522640D+05 0.18522640D+05 0.12375120D+01  1  2  3  2  6  2       -2 -.119639386921D-02 0.100000000000D+01
0.550655206553D-06 0.000000000000D+00 0.000000000000D+00 0.400241802570D-06 0.000000000000D+00  6 21 -2 25 -24 -1 21 4 0.19717767D-01 0.22561859D-01 0.18522640D+05 0.18522640D+05 0.18522640D+05 0.12375120D+01  1  2 15  2  6  2       -2 0.413465951045D-02 0.100000000000D+01
  </mgrwgt>
  </event>
  <event>
  6     66 0.41051716E-03 0.18084255E+02 0.75467711E-02 0.12092707E+00
       21 -1    0    0  501  502 0.00000000E+00 0.00000000E+00 0.14678396E+02 0.14697544E+02 0.75000000E+00 0.0000E+00 0.9000E+01
       -4 -1    0    0    0  501 -.00000000E+00 -.00000000E+00 -.19613279E+04 0.19613285E+04 0.15500000E+01 0.0000E+00 0.9000E+01
       25  1    1    2    0    0 0.52062472E+02 0.68328808E+02 -.13291211E+04 0.13377471E+04 0.12500000E+03 0.0000E+00 0.9000E+01
      -24  1    1    2    0    0 -.52367846E+02 -.49727045E+02 -.59137340E+03 0.60116959E+03 0.80419002E+02 0.0000E+00 0.9000E+01
       -3  1    1    2    0  503 0.55573149E+01 -.20061456E+02 -.20684726E+02 0.29350531E+02 0.50000000E+00 0.0000E+00 0.9000E+01
       21  1    1    2  503  502 -.52519408E+01 0.14596937E+01 -.54703141E+01 0.77588933E+01 0.75000000E+00 0.0000E+00 0.9000E+01
#aMCatNLO 2  0  0  5  2 0.92823854D+00 0.00000000D+00  -5  6  0 0.00000000D+00 0.00000000D+00 0.00000000D+00 0.00000000D+00 0.00000000D+00
  <mgrwgt>
 0.7857511734D-01    1    2    0
 0.169731173138171D+03 0.000000000000000D+00 0.000000000000000D+00 0.169731173138171D+03
 0.169731173138171D+03 -.000000000000000D+00 -.000000000000000D+00 -.169731173138171D+03
 0.165891538796390D+03 0.520561425608401D+02 0.687143391383844D+02 -.668094324380520D+02
 0.108052373325409D+03 -.523719791612722D+02 -.494752596991264D+02 0.418017981888902D+01
 0.655184341545429D+02 0.315836600432036D+00 -.192390794392579D+02 0.626292526191629D+02
 0.000000000000000D+00 0.000000000000000D+00 0.000000000000000D+00 0.000000000000000D+00
 0.169731173138171D+03 0.000000000000000D+00 0.000000000000000D+00 0.169731173138171D+03
 0.169731173138171D+03 -.000000000000000D+00 -.000000000000000D+00 -.169731173138171D+03
 0.165228244771568D+03 0.520625105960483D+02 0.683264324325937D+02 -.655466741472337D+02
 0.108201604439019D+03 -.523678202042643D+02 -.497286011552751D+02 0.500488591286488D+01
 0.520671925217805D+02 0.562372765349722D+01 -.200705383228561D+02 0.477130979481548D+02
 0.139653045439743D+02 -.531841804528119D+01 0.147270704553751D+01 0.128286902862140D+02
0.221446902207D-03 0.000000000000D+00 0.000000000000D+00 0.310976145746D-05 0.927862818354D-06  6 21 -4 25 -24 -3 21 4 0.22597348D-02 0.30174428D+00 0.20465962D+05 0.20465962D+05 0.20465962D+05 0.12327264D+01  1  2  1  3  6  5       -3 0.785751173413D-01 0.100000000000D+01
  </mgrwgt>
  </event>
  <event>
  5     66 0.41051716E-03 0.35321609E+02 0.75467711E-02 0.11329750E+00
       21 -1    0    0  501  502 0.00000000E+00 0.00000000E+00 0.27893256E+04 0.27893257E+04 0.75000000E+00 0.0000E+00 0.9000E+01
       -4 -1    0    0    0  501 0.00000000E+00 0.00000000E+00 -.12881957E+02 0.12974873E+02 0.15500000E+01 0.0000E+00 0.9000E+01
       25  1    1    2    0    0 0.10971064E+03 -.11644760E+02 0.21896163E+04 0.21959546E+04 0.12500000E+03 0.0000E+00 0.9000E+01
      -24  1    1    2    0    0 -.74403100E+02 0.12521518E+02 0.35174930E+03 0.36862908E+03 0.80419002E+02 0.0000E+00 0.9000E+01
       -3  1    1    2    0  502 -.35307544E+02 -.87675780E+00 0.23507801E+03 0.23771687E+03 0.50000000E+00 0.0000E+00 0.9000E+01
#aMCatNLO 1  0  0  1  1 0.11164239D+03 0.00000000D+00  -5  6  0 0.00000000D+00 0.00000000D+00 0.00000000D+00 0.00000000D+00 0.00000000D+00
  <mgrwgt>
 0.1544533838D-01   14    4    0
 0.189900767468922D+03 0.000000000000000D+00 0.000000000000000D+00 0.189900767468922D+03
 0.189900767468922D+03 0.000000000000000D+00 0.000000000000000D+00 -.189900767468922D+03
 0.195836421843478D+03 0.109712452747349D+03 -.116447153327821D+02 0.102735010767682D+03
 0.148490899398449D+03 -.744017289339025D+02 0.125215520987363D+02 -.994481006076756D+02
 0.354742136959167D+02 -.353107238134462D+02 -.876836765954242D+00 -.328691016000692D+01
 0.000000000000000D+00 -.000000000000000D+00 -.000000000000000D+00 0.000000000000000D+00
 0.256621142801254D+03 0.000000000000000D+00 0.000000000000000D+00 0.256621142801254D+03
 0.251031316126031D+03 0.000000000000000D+00 0.000000000000000D+00 -.251031316126031D+03
 0.219973274228746D+03 0.144311540056160D+03 0.371878789943548D+02 0.102735010767682D+03
 0.145132835421056D+03 -.499696069008591D+02 0.470046554575603D+02 -.994481006076756D+02
 0.307641080214697D+02 -.297991027571375D+02 0.690217638330546D+01 -.328691016000692D+01
 0.111782241256013D+03 -.645428303981635D+02 -.910947108352206D+02 0.558982667522322D+01
 0.189900767468922D+03 0.000000000000000D+00 0.000000000000000D+00 0.189900767468922D+03
 0.189900767468922D+03 0.000000000000000D+00 0.000000000000000D+00 -.189900767468922D+03
 0.195836421843478D+03 0.109712452747349D+03 -.116447153327821D+02 0.102735010767682D+03
 0.148490899398449D+03 -.744017289339025D+02 0.125215520987363D+02 -.994481006076756D+02
 0.000000000000000D+00 -.000000000000000D+00 -.000000000000000D+00 0.000000000000000D+00
 0.354742136959167D+02 -.353107238134462D+02 -.876836765954242D+00 -.328691016000692D+01
 0.256621142801254D+03 0.000000000000000D+00 0.000000000000000D+00 0.256621142801254D+03
 0.251031316126031D+03 0.000000000000000D+00 0.000000000000000D+00 -.251031316126031D+03
 0.219973274228746D+03 0.144311540056160D+03 0.371878789943548D+02 0.102735010767682D+03
 0.145132835421056D+03 -.499696069008591D+02 0.470046554575603D+02 -.994481006076756D+02
 0.111782241256013D+03 -.645428303981635D+02 -.910947108352206D+02 0.558982667522322D+01
 0.307641080214697D+02 -.297991027571375D+02 0.690217638330546D+01 -.328691016000692D+01
0.142936365534D-03 0.000000000000D+00 0.000000000000D+00 0.154218313932D-06 0.000000000000D+00  6 21 -4 25 -24 -3 21 2 0.42913417D+00 0.19889947D-02 0.24385614D+05 0.24385614D+05 0.24385614D+05 0.12244579D+01  1  2  2  1  6  1       21 0.547103863409D-02 0.100000000000D+01
0.190234758000D-06 0.754295924034D-05 -.288547340221D-06 0.154218313932D-06 0.000000000000D+00  6 21 -4 25 -24 -3 21 4 0.42913417D+00 0.19889947D-02 0.24385614D+05 0.24385614D+05 0.24385614D+05 0.12244579D+01  1  2  3  1  6  1       21 0.109170334482D-04 0.100000000000D+01
0.154001370410D-04 0.000000000000D+00 0.000000000000D+00 0.154218313932D-06 0.000000000000D+00  6 21 -4 25 -24 -3 21 4 0.42913417D+00 0.19889947D-02 0.24385614D+05 0.24385614D+05 0.24385614D+05 0.12244579D+01  1  2 15  1  6  1       21 0.883770205570D-03 0.100000000000D+01
-.418296572409D-05 0.000000000000D+00 0.000000000000D+00 0.154218313932D-06 0.000000000000D+00  6 21 -4 25 -24 -3 21 4 0.42913417D+00 0.19889947D-02 0.24385614D+05 0.24385614D+05 0.24385614D+05 0.12244579D+01  1  2  4  1  6  1       21 -.240048544245D-03 0.100000000000D+01
-.214890194144D-03 0.000000000000D+00 -.111595061707D-03 0.154218313932D-06 0.000000000000D+00  6 21 -4 25 -24 -3 21 4 0.62358337D+00 0.19889947D-02 0.24385614D+05 0.24385614D+05 0.24385614D+05 0.12244579D+01  1  2  5  1  6  1       21 -.485117716812D-03 0.100000000000D+01
0.195921471895D-03 0.000000000000D+00 0.856741225638D-04 0.154218313932D-06 0.000000000000D+00  6 21 -4 25 -24 -3 21 4 0.42913417D+00 0.19889947D-02 0.24385614D+05 0.24385614D+05 0.24385614D+05 0.12244579D+01  1  2  6  1  6  1       21 0.112433778369D-01 0.100000000000D+01
-.209982426531D-04 0.000000000000D+00 -.137547073828D-04 0.154218313932D-06 0.000000000000D+00  6 -3 -4 25 -24 -3 -3 4 0.62358337D+00 0.19889947D-02 0.24385614D+05 0.24385614D+05 0.24385614D+05 0.12244579D+01  1  2  5  4  6  1       21 -.955460156240D-05 0.100000000000D+01
-.209982426531D-04 0.000000000000D+00 -.137547073828D-04 0.154218313932D-06 0.000000000000D+00  6 3 -4 25 -24 3 -3 4 0.62358337D+00 0.19889947D-02 0.24385614D+05 0.24385614D+05 0.24385614D+05 0.12244579D+01  3  4  5  5  5  1       21 -.120638373838D-04 0.100000000000D+01
-.209982426531D-04 0.000000000000D+00 -.137547073828D-04 0.154218313932D-06 0.000000000000D+00  6 -4 -4 25 -24 -3 -4 4 0.62358337D+00 0.19889947D-02 0.24385614D+05 0.24385614D+05 0.24385614D+05 0.12244579D+01  1  2  5  6  6  1       21 -.132354817164D-05 0.100000000000D+01
-.209982426531D-04 0.000000000000D+00 -.137547073828D-04 0.154218313932D-06 0.000000000000D+00  6 4 -4 25 -24 4 -3 4 0.62358337D+00 0.19889947D-02 0.24385614D+05 0.24385614D+05 0.24385614D+05 0.12244579D+01  3  4  5  7  5  1       21 -.132354817164D-05 0.100000000000D+01
-.209982426531D-04 0.000000000000D+00 -.137547073828D-04 0.154218313932D-06 0.000000000000D+00  6 -1 -4 25 -24 -3 -1 4 0.62358337D+00 0.19889947D-02 0.24385614D+05 0.24385614D+05 0.24385614D+05 0.12244579D+01  1  2  5  8  6  1       21 -.828510130217D-05 0.100000000000D+01
-.209982426531D-04 0.000000000000D+00 -.137547073828D-04 0.154218313932D-06 0.000000000000D+00  6 -2 -4 25 -24 -3 -2 4 0.62358337D+00 0.19889947D-02 0.24385614D+05 0.24385614D+05 0.24385614D+05 0.12244579D+01  1  2  5  8  6  1       21 -.832941740966D-05 0.100000000000D+01
-.209982426531D-04 0.000000000000D+00 -.137547073828D-04 0.154218313932D-06 0.000000000000D+00  6 1 -4 25 -24 1 -3 4 0.62358337D+00 0.19889947D-02 0.24385614D+05 0.24385614D+05 0.24385614D+05 0.12244579D+01  3  4  5  9  5  1       21 -.274509691163D-03 0.100000000000D+01
-.209982426531D-04 0.000000000000D+00 -.137547073828D-04 0.154218313932D-06 0.000000000000D+00  6 2 -4 25 -24 2 -3 4 0.62358337D+00 0.19889947D-02 0.24385614D+05 0.24385614D+05 0.24385614D+05 0.12244579D+01  3  4  5  9  5  1       21 -.112320932482D-02 0.100000000000D+01
  </mgrwgt>
  </event>
  <event>
  6     66 0.41051716E-03 0.16147917E+02 0.75467711E-02 0.12153192E+00
       21 -1    0    0  501  503 0.00000000E+00 0.00000000E+00 0.11684855E+03 0.11685096E+03 0.75000000E+00 0.0000E+00 0.9000E+01
       -4 -1    0    0    0  501 0.00000000E+00 0.00000000E+00 -.49512734E+03 0.49512976E+03 0.15500000E+01 0.0000E+00 0.9000E+01
       25  1    1    2    0    0 0.67971694E+02 -.14032171E+02 -.20687574E+03 0.25147490E+03 0.12500000E+03 0.0000E+00 0.9000E+01
      -24  1    1    2    0    0 -.57310187E+02 0.15536287E+02 -.25126340E+03 0.27041884E+03 0.80419002E+02 0.0000E+00 0.9000E+01
       -3  1    1    2    0  502 0.98558065E+01 0.68131811E+01 0.68942435E+01 0.13832460E+02 0.50000000E+00 0.0000E+00 0.9000E+01
       21  1    1    2  502  503 -.20517314E+02 -.83172975E+01 0.72966109E+02 0.76254528E+02 0.75000000E+00 0.0000E+00 0.9000E+01
#aMCatNLO 2  0  0  1  1 0.26843098D-01 0.00000000D+00  -5  6  0 0.00000000D+00 0.00000000D+00 0.00000000D+00 0.00000000D+00 0.00000000D+00
  <mgrwgt>
 0.5402382436D-01    1    2    0
 0.143953517079524D+03 0.000000000000000D+00 0.000000000000000D+00 0.143953517079524D+03
 0.143953517079524D+03 0.000000000000000D+00 0.000000000000000D+00 -.143953517079524D+03
 0.139253698941501D+03 0.579193563316131D+02 -.181073162529690D+02 0.916874741373264D+01
 0.113008508298617D+03 -.652111578524448D+02 0.123332871574721D+02 -.435786864527021D+02
 0.356448269189296D+02 0.729180152083163D+01 0.577402909549693D+01 0.344099390389695D+02
 0.000000000000000D+00 -.000000000000000D+00 -.000000000000000D+00 0.000000000000000D+00
 0.399394973495664D+03 0.000000000000000D+00 0.000000000000000D+00 0.399394973495664D+03
 0.144858989853300D+03 0.000000000000000D+00 0.000000000000000D+00 -.144858989853300D+03
 0.143269248120606D+03 0.679713307848418D+02 -.140324523603155D+02 0.916874741373264D+01
 0.109051237133357D+03 -.573104230222861D+02 0.155360827111857D+02 -.435786864527021D+02
 0.364365024181667D+02 0.985640623200921D+01 0.681366714721820D+01 0.344099390389695D+02
 0.255496975676834D+03 -.205173139945649D+02 -.831729749808837D+01 0.254535983642364D+03
0.125072953668D-03 0.000000000000D+00 0.000000000000D+00 0.870546955482D-05 0.101968183413D-05  6 21 -4 25 -24 -3 21 4 0.17977004D-01 0.76173520D-01 0.19190870D+05 0.19190870D+05 0.19190870D+05 0.12358055D+01  1  2  1  1  6  1       21 0.540238243631D-01 0.100000000000D+01
  </mgrwgt>
  </event>
  <event>
  5     66 0.41051716E-03 0.80563892E+02 0.75467711E-02 0.11653689E+00
       21 -1    0    0  501  502 0.00000000E+00 0.00000000E+00 0.13049293E+03 0.13049508E+03 0.75000000E+00 0.0000E+00 0.9000E+01
       -4 -1    0    0    0  501 -.00000000E+00 -.00000000E+00 -.31488402E+03 0.31488783E+03 0.15500000E+01 0.0000E+00 0.9000E+01
       25  1    1    2    0    0 0.13982691E+03 0.33997323E+02 -.88418356E+02 0.21011947E+03 0.12500000E+03 0.0000E+00 0.9000E+01
      -24  1    1    2    0    0 -.81504794E+02 0.21580709E+02 -.92334522E+01 0.11688127E+03 0.80419002E+02 0.0000E+00 0.9000E+01
       -3  1    1    2    0  502 -.58322120E+02 -.55578032E+02 -.86739283E+02 0.11838218E+03 0.50000000E+00 0.0000E+00 0.9000E+01
#aMCatNLO 1  0  0  5  1 0.35831288D+02 0.00000000D+00  -5  6  0 0.00000000D+00 0.00000000D+00 0.00000000D+00 0.00000000D+00 0.00000000D+00
  <mgrwgt>
 0.5151379135D-02    5    2    0
 0.202710301595311D+03 0.000000000000000D+00 0.000000000000000D+00 0.202710301595311D+03
 0.202710301595311D+03 -.000000000000000D+00 -.000000000000000D+00 -.202710301595311D+03
 0.190617383067920D+03 0.139827331783210D+03 0.339977208059777D+02 -.156811799588236D+01
 0.124202683717778D+03 -.815045222162814D+02 0.215809680186279D+02 0.430158734190355D+02
 0.906005364049246D+02 -.583228095669287D+02 -.555786888246055D+02 -.414477554231531D+02
 0.000000000000000D+00 0.000000000000000D+00 0.000000000000000D+00 0.000000000000000D+00
 0.202710301595311D+03 0.000000000000000D+00 0.000000000000000D+00 0.202710301595311D+03
 0.202710301595311D+03 -.000000000000000D+00 -.000000000000000D+00 -.202710301595311D+03
 0.181469024008592D+03 0.129063682219006D+03 0.237405069613757D+02 -.921742566659205D+01
 0.126465908641588D+03 -.887558187796457D+02 0.146708490057969D+02 0.378626586015261D+02
 0.398816579595262D+02 -.323298817899366D+02 -.102632979231433D+02 0.209759409989200D+02
 0.576040125809164D+02 -.797798164942400D+01 -.281480580440293D+02 -.496211739338540D+02
0.134909328401D-04 0.000000000000D+00 0.000000000000D+00 0.111231236522D-06 0.000000000000D+00  6 21 -4 25 -24 -3 21 2 0.20076294D-01 0.48444154D-01 0.37576013D+05 0.37576013D+05 0.37576013D+05 0.12047671D+01  1  2  2  3  6  5       -3 0.781077665065D-02 0.100000000000D+01
-.122178724999D-05 0.711936085311D-06 -.272343064941D-07 0.111231236522D-06 0.000000000000D+00  6 21 -4 25 -24 -3 21 4 0.20076294D-01 0.48444154D-01 0.37576013D+05 0.37576013D+05 0.37576013D+05 0.12047671D+01  1  2  3  3  6  5       -3 -.102672467301D-02 0.100000000000D+01
0.139124753572D-05 0.000000000000D+00 0.000000000000D+00 0.111231236522D-06 0.000000000000D+00  6 21 -4 25 -24 -3 21 4 0.20076294D-01 0.48444154D-01 0.37576013D+05 0.37576013D+05 0.37576013D+05 0.12047671D+01  1  2 15  3  6  5       -3 0.116913003569D-02 0.100000000000D+01
0.323371643336D-05 0.000000000000D+00 0.000000000000D+00 0.112226101002D-06 0.000000000000D+00  6 21 -4 25 -24 -3 21 4 0.20076294D-01 0.48444154D-01 0.33320206D+05 0.33320206D+05 0.33320206D+05 0.12101429D+01  1  2 12  3  6  5       -3 0.275883548980D-02 0.100000000000D+01
-.661707781914D-05 0.000000000000D+00 0.000000000000D+00 0.111231236522D-06 0.000000000000D+00  6 21 -4 25 -24 -3 21 4 0.20076294D-01 0.48444154D-01 0.37576013D+05 0.37576013D+05 0.37576013D+05 0.12047671D+01  1  2  4  3  6  5       -3 -.556063836824D-02 0.100000000000D+01
  </mgrwgt>
  </event>
  <event>
  5     66 0.41051716E-03 0.52980596E+02 0.75467711E-02 0.11925053E+00
       21 -1    0    0  501  502 0.00000000E+00 0.00000000E+00 0.24429984E+03 0.24430099E+03 0.75000000E+00 0.0000E+00 0.9000E+01
       -4 -1    0    0    0  501 0.00000000E+00 0.00000000E+00 -.98237872E+02 0.98250099E+02 0.15500000E+01 0.0000E+00 0.9000E+01
       25  1    1    2    0    0 0.25852612E+01 0.14040270E+02 0.69694859E+02 0.14382693E+03 0.12500000E+03 0.0000E+00 0.9000E+01
      -24  1    1    2    0    0 0.30972218E+02 0.26956594E+02 -.16515696E+02 0.91792813E+02 0.80419002E+02 0.0000E+00 0.9000E+01
       -3  1    1    2    0  502 -.33557480E+02 -.40996864E+02 0.92882804E+02 0.10693134E+03 0.50000000E+00 0.0000E+00 0.9000E+01
#aMCatNLO 1  0  0  1  2 0.42936768D+02 0.00000000D+00  -5  6  0 0.00000000D+00 0.00000000D+00 0.00000000D+00 0.00000000D+00 0.00000000D+00
  <mgrwgt>
 0.1882258148D-01   23    4    0
 0.154925102985293D+03 0.000000000000000D+00 0.000000000000000D+00 0.154925102985293D+03
 0.154925102985293D+03 0.000000000000000D+00 0.000000000000000D+00 -.154925102985293D+03
 0.126152272660470D+03 0.258556948553446D+01 0.140406462113802D+02 0.925045846452052D+01
 0.109266229915022D+03 0.309724854402303D+02 0.269569206440518D+02 -.615298514585968D+02
 0.744317033950945D+02 -.335580549257648D+02 -.409975668554320D+02 0.522793929940763D+02
 0.000000000000000D+00 -.000000000000000D+00 -.000000000000000D+00 0.000000000000000D+00
 0.181802867658362D+03 0.000000000000000D+00 0.000000000000000D+00 0.181802867658362D+03
 0.174552707929579D+03 0.000000000000000D+00 0.000000000000000D+00 -.174552707929579D+03
 0.128671547500147D+03 0.176192570375325D+02 0.231378031741179D+02 0.925045846452052D+01
 0.115916226759592D+03 0.442574393103343D+02 0.349958871438580D+02 -.615298514585968D+02
 0.682232168531485D+02 -.251419284529119D+02 -.359048161063571D+02 0.522793929940763D+02
 0.435445844750533D+02 -.367347678949549D+02 -.222288742116188D+02 0.725015972878339D+01
 0.154925102985293D+03 0.000000000000000D+00 0.000000000000000D+00 0.154925102985293D+03
 0.154925102985293D+03 0.000000000000000D+00 0.000000000000000D+00 -.154925102985293D+03
 0.126152272660470D+03 0.258556948553446D+01 0.140406462113802D+02 0.925045846452052D+01
 0.109266229915022D+03 0.309724854402303D+02 0.269569206440518D+02 -.615298514585968D+02
 0.000000000000000D+00 -.000000000000000D+00 -.000000000000000D+00 0.000000000000000D+00
 0.744317033950945D+02 -.335580549257648D+02 -.409975668554320D+02 0.522793929940763D+02
 0.181802867658362D+03 0.000000000000000D+00 0.000000000000000D+00 0.181802867658362D+03
 0.174552707929579D+03 0.000000000000000D+00 0.000000000000000D+00 -.174552707929579D+03
 0.128671547500147D+03 0.176192570375325D+02 0.231378031741179D+02 0.925045846452052D+01
 0.115916226759592D+03 0.442574393103343D+02 0.349958871438580D+02 -.615298514585968D+02
 0.435445844750533D+02 -.367347678949549D+02 -.222288742116188D+02 0.725015972878339D+01
 0.682232168531485D+02 -.251419284529119D+02 -.359048161063571D+02 0.522793929940763D+02
0.273967672343D-05 0.000000000000D+00 0.000000000000D+00 0.676727406232D-06 0.000000000000D+00  6 21 -4 25 -24 -3 21 2 0.37585620D-01 0.15114548D-01 0.18102122D+05 0.18102122D+05 0.18102122D+05 0.12386217D+01  1  2  2  1  6  1       21 0.438288587695D-02 0.100000000000D+01
-.288570934520D-07 0.144576712716D-06 -.553061796876D-08 0.676727406232D-06 0.000000000000D+00  6 21 -4 25 -24 -3 21 4 0.37585620D-01 0.15114548D-01 0.18102122D+05 0.18102122D+05 0.18102122D+05 0.12386217D+01  1  2  3  1  6  1       21 -.708256902099D-04 0.100000000000D+01
0.281029469462D-06 0.000000000000D+00 0.000000000000D+00 0.676727406232D-06 0.000000000000D+00  6 21 -4 25 -24 -3 21 4 0.37585620D-01 0.15114548D-01 0.18102122D+05 0.18102122D+05 0.18102122D+05 0.12386217D+01  1  2 15  1  6  1       21 0.689747433403D-03 0.100000000000D+01
0.250528596586D-05 0.000000000000D+00 0.000000000000D+00 0.661007740340D-06 0.000000000000D+00  6 21 -4 25 -24 -3 21 4 0.46135066D-01 0.15114548D-01 0.24546336D+05 0.24546336D+05 0.24546336D+05 0.12241513D+01  1  2 12  1  6  1       21 0.392096702273D-02 0.100000000000D+01
-.229759303516D-06 0.000000000000D+00 0.000000000000D+00 0.676727406232D-06 0.000000000000D+00  6 21 -4 25 -24 -3 21 4 0.37585620D-01 0.15114548D-01 0.18102122D+05 0.18102122D+05 0.18102122D+05 0.12386217D+01  1  2  4  1  6  1       21 -.563911998994D-03 0.100000000000D+01
-.117265651329D-04 0.000000000000D+00 -.422363678942D-05 0.676727406232D-06 0.000000000000D+00  6 21 -4 25 -24 -3 21 4 0.49128235D-01 0.15114548D-01 0.18102122D+05 0.18102122D+05 0.18102122D+05 0.12386217D+01  1  2  5  1  6  1       21 -.167486928670D-01 0.100000000000D+01
0.113659732525D-04 0.000000000000D+00 0.367428527950D-05 0.676727406232D-06 0.000000000000D+00  6 21 -4 25 -24 -3 21 4 0.37585620D-01 0.15114548D-01 0.18102122D+05 0.18102122D+05 0.18102122D+05 0.12386217D+01  1  2  6  1  6  1       21 0.278961878768D-01 0.100000000000D+01
0.148037506178D-06 0.000000000000D+00 0.000000000000D+00 0.661007740340D-06 0.000000000000D+00  6 -3 -4 25 -24 -3 -3 4 0.46135066D-01 0.15114548D-01 0.24546336D+05 0.24546336D+05 0.24546336D+05 0.12241513D+01  1  2 12  4  6  1       21 0.116870344282D-04 0.100000000000D+01
-.693109755017D-06 0.000000000000D+00 -.345849761202D-06 0.676727406232D-06 0.000000000000D+00  6 -3 -4 25 -24 -3 -3 4 0.49128235D-01 0.15114548D-01 0.18102122D+05 0.18102122D+05 0.18102122D+05 0.12386217D+01  1  2  5  4  6  1       21 -.494593584150D-04 0.100000000000D+01
0.148037506178D-06 0.000000000000D+00 0.000000000000D+00 0.661007740340D-06 0.000000000000D+00  6 3 -4 25 -24 3 -3 4 0.46135066D-01 0.15114548D-01 0.24546336D+05 0.24546336D+05 0.24546336D+05 0.12241513D+01  3  4 12  5  5  1       21 0.116908637240D-04 0.100000000000D+01
-.693109755017D-06 0.000000000000D+00 -.345849761202D-06 0.676727406232D-06 0.000000000000D+00  6 3 -4 25 -24 3 -3 4 0.49128235D-01 0.15114548D-01 0.18102122D+05 0.18102122D+05 0.18102122D+05 0.12386217D+01  3  4  5  5  5  1       21 -.494786945689D-04 0.100000000000D+01
0.148037506178D-06 0.000000000000D+00 0.000000000000D+00 0.661007740340D-06 0.000000000000D+00  6 -4 -4 25 -24 -3 -4 4 0.46135066D-01 0.15114548D-01 0.24546336D+05 0.24546336D+05 0.24546336D+05 0.12241513D+01  1  2 12  6  6  1       21 0.965466027680D-05 0.100000000000D+01
-.693109755017D-06 0.000000000000D+00 -.345849761202D-06 0.676727406232D-06 0.000000000000D+00  6 -4 -4 25 -24 -3 -4 4 0.49128235D-01 0.15114548D-01 0.18102122D+05 0.18102122D+05 0.18102122D+05 0.12386217D+01  1  2  5  6  6  1       21 -.406125200976D-04 0.100000000000D+01
0.148037506178D-06 0.000000000000D+00 0.000000000000D+00 0.661007740340D-06 0.000000000000D+00  6 4 -4 25 -24 4 -3 4 0.46135066D-01 0.15114548D-01 0.24546336D+05 0.24546336D+05 0.24546336D+05 0.12241513D+01  3  4 12  7  5  1       21 0.965466027680D-05 0.100000000000D+01
-.693109755017D-06 0.000000000000D+00 -.345849761202D-06 0.676727406232D-06 0.000000000000D+00  6 4 -4 25 -24 4 -3 4 0.49128235D-01 0.15114548D-01 0.18102122D+05 0.18102122D+05 0.18102122D+05 0.12386217D+01  3  4  5  7  5  1       21 -.406125200976D-04 0.100000000000D+01
0.148037506178D-06 0.000000000000D+00 0.000000000000D+00 0.661007740340D-06 0.000000000000D+00  6 -1 -4 25 -24 -3 -1 4 0.46135066D-01 0.15114548D-01 0.24546336D+05 0.24546336D+05 0.24546336D+05 0.12241513D+01  1  2 12  8  6  1       21 0.224212640432D-04 0.100000000000D+01
0.148037506178D-06 0.000000000000D+00 0.000000000000D+00 0.661007740340D-06 0.000000000000D+00  6 -2 -4 25 -24 -3 -2 4 0.46135066D-01 0.15114548D-01 0.24546336D+05 0.24546336D+05 0.24546336D+05 0.12241513D+01  1  2 12  8  6  1       21 0.185821755054D-04 0.100000000000D+01
-.693109755017D-06 0.000000000000D+00 -.345849761202D-06 0.676727406232D-06 0.000000000000D+00  6 -1 -4 25 -24 -3 -1 4 0.49128235D-01 0.15114548D-01 0.18102122D+05 0.18102122D+05 0.18102122D+05 0.12386217D+01  1  2  5  8  6  1       21 -.966356774066D-04 0.100000000000D+01
-.693109755017D-06 0.000000000000D+00 -.345849761202D-06 0.676727406232D-06 0.000000000000D+00  6 -2 -4 25 -24 -3 -2 4 0.49128235D-01 0.15114548D-01 0.18102122D+05 0.18102122D+05 0.18102122D+05 0.12386217D+01  1  2  5  8  6  1       21 -.792693807458D-04 0.100000000000D+01
0.148037506178D-06 0.000000000000D+00 0.000000000000D+00 0.661007740340D-06 0.000000000000D+00  6 1 -4 25 -24 1 -3 4 0.46135066D-01 0.15114548D-01 0.24546336D+05 0.24546336D+05 0.24546336D+05 0.12241513D+01  3  4 12  9  5  1       21 0.488004751539D-04 0.100000000000D+01
0.148037506178D-06 0.000000000000D+00 0.000000000000D+00 0.661007740340D-06 0.000000000000D+00  6 2 -4 25 -24 2 -3 4 0.46135066D-01 0.15114548D-01 0.24546336D+05 0.24546336D+05 0.24546336D+05 0.12241513D+01  3  4 12  9  5  1       21 0.689979582242D-04 0.100000000000D+01
-.693109755017D-06 0.000000000000D+00 -.345849761202D-06 0.676727406232D-06 0.000000000000D+00  6 1 -4 25 -24 1 -3 4 0.49128235D-01 0.15114548D-01 0.18102122D+05 0.18102122D+05 0.18102122D+05 0.12386217D+01  3  4  5  9  5  1       21 -.217903717656D-03 0.100000000000D+01
-.693109755017D-06 0.000000000000D+00 -.345849761202D-06 0.676727406232D-06 0.000000000000D+00  6 2 -4 25 -24 2 -3 4 0.49128235D-01 0.15114548D-01 0.18102122D+05 0.18102122D+05 0.18102122D+05 0.12386217D+01  3  4  5  9  5  1       21 -.311293392751D-03 0.100000000000D+01
  </mgrwgt>
  </event>
  <event>
  5     66 0.41051716E-03 0.39815175E+02 0.75467711E-02 0.10750189E+00
       21 -1    0    0  501  502 0.00000000E+00 0.00000000E+00 0.11896458E+03 0.11896694E+03 0.75000000E+00 0.0000E+00 0.9000E+01
       -2 -1    0    0    0  501 0.00000000E+00 0.00000000E+00 -.20212555E+03 0.20212580E+03 0.32000000E+00 0.0000E+00 0.9000E+01
       25  1    1    2    0    0 0.10105353E+03 0.33828142E+02 -.42743129E+02 0.16972959E+03 0.12500000E+03 0.0000E+00 0.9000E+01
      -24  1    1    2    0    0 -.61786197E+02 -.27252550E+02 -.37247112E+02 0.11142172E+03 0.80419002E+02 0.0000E+00 0.9000E+01
       -1  1    1    2    0  502 -.39267336E+02 -.65755914E+01 -.31707271E+01 0.39941432E+02 0.32000000E+00 0.0000E+00 0.9000E+01
#aMCatNLO 1  0  0  1  2 0.33050449D+02 0.00000000D+00  -5  6  0 0.00000000D+00 0.00000000D+00 0.00000000D+00 0.00000000D+00 0.00000000D+00
  <mgrwgt>
 0.1631558223D-01   12    4    0
 0.155068374271043D+03 0.000000000000000D+00 0.000000000000000D+00 0.155068374271043D+03
 0.155068374271043D+03 0.000000000000000D+00 0.000000000000000D+00 -.155068374271043D+03
 0.164264671841070D+03 0.101054182842418D+03 0.338282504897673D+02 0.125857614274000D+01
 0.105370033109917D+03 -.617857809249883D+02 -.272524806297467D+02 -.868605193567180D+01
 0.405020435910993D+02 -.392684019174292D+02 -.657576986002061D+01 0.742747579293181D+01
 0.000000000000000D+00 0.000000000000000D+00 -.000000000000000D+00 0.000000000000000D+00
 0.443449250785571D+03 0.000000000000000D+00 0.000000000000000D+00 0.443449250785571D+03
 0.260423299526134D+03 0.000000000000000D+00 0.000000000000000D+00 -.260423299526134D+03
 0.189914115908998D+03 0.351012953393415D+02 0.138595405670929D+03 0.125857614274000D+01
 0.142547274506579D+03 -.107951341553748D+03 0.460822077748061D+02 -.868605193567180D+01
 0.640044689200215D+02 -.587289300500417D+02 0.243375721931486D+02 0.742747579293181D+01
 0.307406690976107D+03 0.131578976264448D+03 -.209015185638884D+03 0.183025951259438D+03
 0.155068374271043D+03 0.000000000000000D+00 0.000000000000000D+00 0.155068374271043D+03
 0.155068374271043D+03 0.000000000000000D+00 0.000000000000000D+00 -.155068374271043D+03
 0.164264671841070D+03 0.101054182842418D+03 0.338282504897673D+02 0.125857614274000D+01
 0.105370033109917D+03 -.617857809249883D+02 -.272524806297467D+02 -.868605193567180D+01
 0.000000000000000D+00 0.000000000000000D+00 -.000000000000000D+00 0.000000000000000D+00
 0.405020435910993D+02 -.392684019174292D+02 -.657576986002061D+01 0.742747579293181D+01
 0.443449250785571D+03 0.000000000000000D+00 0.000000000000000D+00 0.443449250785571D+03
 0.260423299526134D+03 0.000000000000000D+00 0.000000000000000D+00 -.260423299526134D+03
 0.189914115908998D+03 0.351012953393415D+02 0.138595405670929D+03 0.125857614274000D+01
 0.142547274506579D+03 -.107951341553748D+03 0.460822077748061D+02 -.868605193567180D+01
 0.307406690976107D+03 0.131578976264448D+03 -.209015185638884D+03 0.183025951259438D+03
 0.640044689200215D+02 -.587289300500417D+02 0.243375721931486D+02 0.742747579293181D+01
0.498364651347D-05 0.000000000000D+00 0.000000000000D+00 0.383092541346D-06 0.000000000000D+00  6 21 -2 25 -24 -1 21 2 0.18302444D-01 0.31096439D-01 0.23883606D+05 0.23883606D+05 0.23883606D+05 0.12254305D+01  1  2  2  1  6  1       21 0.156415455617D-01 0.100000000000D+01
-.767076756268D-09 0.262994251875D-06 -.100605464585D-07 0.383092541346D-06 0.000000000000D+00  6 21 -2 25 -24 -1 21 4 0.18302444D-01 0.31096439D-01 0.23883606D+05 0.23883606D+05 0.23883606D+05 0.12254305D+01  1  2  3  1  6  1       21 -.361533557522D-05 0.100000000000D+01
0.527881781358D-06 0.000000000000D+00 0.000000000000D+00 0.383092541346D-06 0.000000000000D+00  6 21 -2 25 -24 -1 21 4 0.18302444D-01 0.31096439D-01 0.23883606D+05 0.23883606D+05 0.23883606D+05 0.12254305D+01  1  2 15  1  6  1       21 0.248797759554D-02 0.100000000000D+01
-.533557559161D-05 0.000000000000D+00 -.285629825430D-04 0.383092541346D-06 0.000000000000D+00  6 21 -2 25 -24 -1 21 4 0.82402939D-01 0.31096439D-01 0.23883606D+05 0.23883606D+05 0.23883606D+05 0.12254305D+01  1  2  5  1  6  1       21 -.120893684888D-02 0.100000000000D+01
-.206481066574D-05 0.000000000000D+00 -.115816411016D-04 0.383092541346D-06 0.000000000000D+00  6 -1 -2 25 -24 -1 -1 4 0.82402939D-01 0.31096439D-01 0.23883606D+05 0.23883606D+05 0.23883606D+05 0.12254305D+01  1  2  5  4  6  1       21 -.515032605618D-04 0.100000000000D+01
-.206481066574D-05 0.000000000000D+00 -.115816411016D-04 0.383092541346D-06 0.000000000000D+00  6 1 -2 25 -24 1 -1 4 0.82402939D-01 0.31096439D-01 0.23883606D+05 0.23883606D+05 0.23883606D+05 0.12254305D+01  3  4  5  5  5  1       21 -.163475490985D-03 0.100000000000D+01
-.206481066574D-05 0.000000000000D+00 -.115816411016D-04 0.383092541346D-06 0.000000000000D+00  6 -2 -2 25 -24 -1 -2 4 0.82402939D-01 0.31096439D-01 0.23883606D+05 0.23883606D+05 0.23883606D+05 0.12254305D+01  1  2  5  6  6  1       21 -.391284681491D-04 0.100000000000D+01
-.206481066574D-05 0.000000000000D+00 -.115816411016D-04 0.383092541346D-06 0.000000000000D+00  6 2 -2 25 -24 2 -1 4 0.82402939D-01 0.31096439D-01 0.23883606D+05 0.23883606D+05 0.23883606D+05 0.12254305D+01  3  4  5  7  5  1       21 -.258571830804D-03 0.100000000000D+01
-.206481066574D-05 0.000000000000D+00 -.115816411016D-04 0.383092541346D-06 0.000000000000D+00  6 -3 -2 25 -24 -1 -3 4 0.82402939D-01 0.31096439D-01 0.23883606D+05 0.23883606D+05 0.23883606D+05 0.12254305D+01  1  2  5  8  6  1       21 -.245432458632D-04 0.100000000000D+01
-.206481066574D-05 0.000000000000D+00 -.115816411016D-04 0.383092541346D-06 0.000000000000D+00  6 -4 -2 25 -24 -1 -4 4 0.82402939D-01 0.31096439D-01 0.23883606D+05 0.23883606D+05 0.23883606D+05 0.12254305D+01  1  2  5  8  6  1       21 -.197949605799D-04 0.100000000000D+01
-.206481066574D-05 0.000000000000D+00 -.115816411016D-04 0.383092541346D-06 0.000000000000D+00  6 3 -2 25 -24 3 -1 4 0.82402939D-01 0.31096439D-01 0.23883606D+05 0.23883606D+05 0.23883606D+05 0.12254305D+01  3  4  5  9  5  1       21 -.245765281978D-04 0.100000000000D+01
-.206481066574D-05 0.000000000000D+00 -.115816411016D-04 0.383092541346D-06 0.000000000000D+00  6 4 -2 25 -24 4 -1 4 0.82402939D-01 0.31096439D-01 0.23883606D+05 0.23883606D+05 0.23883606D+05 0.12254305D+01  3  4  5  9  5  1       21 -.197949605799D-04 0.100000000000D+01
  </mgrwgt>
  </event>
  <event>
  5     66 0.41051716E-03 0.34332674E+02 0.75467711E-02 0.12066973E+00
       21 -1    0    0  501  502 0.00000000E+00 0.00000000E+00 0.56879298E+02 0.56884242E+02 0.75000000E+00 0.0000E+00 0.9000E+01
       -2 -1    0    0    0  501 0.00000000E+00 0.00000000E+00 -.48778695E+03 0.48778706E+03 0.32000000E+00 0.0000E+00 0.9000E+01
       25  1    1    2    0    0 0.54100968E+02 -.27921387E+02 -.26591012E+03 0.30006617E+03 0.12500000E+03 0.0000E+00 0.9000E+01
      -24  1    1    2    0    0 -.19953464E+02 0.31480845E+02 -.18480899E+03 0.20496527E+03 0.80419002E+02 0.0000E+00 0.9000E+01
       -1  1    1    2    0  502 -.34147504E+02 -.35594580E+01 0.19811453E+02 0.39639852E+02 0.32000000E+00 0.0000E+00 0.9000E+01
#aMCatNLO 1  0  0  1  1 0.29642023D+02 0.00000000D+00  -5  6  0 0.00000000D+00 0.00000000D+00 0.00000000D+00 0.00000000D+00 0.00000000D+00
  <mgrwgt>
 0.2333353994D-01    4    2    0
 0.166572370182438D+03 0.000000000000000D+00 0.000000000000000D+00 0.166572370182438D+03
 0.166572370182438D+03 0.000000000000000D+00 0.000000000000000D+00 -.166572370182438D+03
 0.146647260711215D+03 0.541010617040395D+02 -.279213775943689D+02 -.466250026255398D+02
 0.960636780578486D+02 -.199534018757835D+02 0.314808518431406D+02 -.370382506126458D+02
 0.904338015958122D+02 -.341476598282560D+02 -.355947424877170D+01 0.836632532381855D+02
 0.000000000000000D+00 -.000000000000000D+00 0.000000000000000D+00 -.000000000000000D+00
 0.173169485306627D+03 0.000000000000000D+00 0.000000000000000D+00 0.173169485306627D+03
 0.204216515692559D+03 0.000000000000000D+00 0.000000000000000D+00 -.204216515692559D+03
 0.152431149950541D+03 0.637497639523747D+02 -.370450023812832D+02 -.466250026255398D+02
 0.932287018326972D+02 -.138465558236014D+02 0.257063372423640D+02 -.370382506126458D+02
 0.888010092698694D+02 -.283652855045690D+02 -.902717470723588D+01 0.836632532381855D+02
 0.429251399460781D+02 -.215379226242043D+02 0.203658398461551D+02 -.310470303859313D+02
0.105102032758D-04 0.000000000000D+00 0.000000000000D+00 0.228777364284D-05 0.000000000000D+00  6 21 -2 25 -24 -1 21 2 0.87510496D-02 0.75044535D-01 0.17161899D+05 0.17161899D+05 0.17161899D+05 0.12412110D+01  1  2  2  1  6  1       21 0.221761687044D-01 0.100000000000D+01
0.956607105965D-06 0.554638664698D-06 -.212170722900D-07 0.228777364284D-05 0.000000000000D+00  6 21 -2 25 -24 -1 21 4 0.87510496D-02 0.75044535D-01 0.17161899D+05 0.17161899D+05 0.17161899D+05 0.12412110D+01  1  2  3  1  6  1       21 0.310956939149D-02 0.100000000000D+01
0.979208226496D-06 0.000000000000D+00 0.000000000000D+00 0.228777364284D-05 0.000000000000D+00  6 21 -2 25 -24 -1 21 4 0.87510496D-02 0.75044535D-01 0.17161899D+05 0.17161899D+05 0.17161899D+05 0.12412110D+01  1  2 15  1  6  1       21 0.318303712153D-02 0.100000000000D+01
-.157976939376D-05 0.000000000000D+00 0.000000000000D+00 0.228777364284D-05 0.000000000000D+00  6 21 -2 25 -24 -1 21 4 0.87510496D-02 0.75044535D-01 0.17161899D+05 0.17161899D+05 0.17161899D+05 0.12412110D+01  1  2  4  1  6  1       21 -.513523527248D-02 0.100000000000D+01
  </mgrwgt>
  </event>
  <event>
  5     66 0.41051716E-03 0.20109296E+02 0.75467711E-02 0.11151942E+00
       21 -1    0    0  501  502 0.00000000E+00 0.00000000E+00 0.14919076E+03 0.14919265E+03 0.75000000E+00 0.0000E+00 0.9000E+01
       -4 -1    0    0    0  501 0.00000000E+00 0.00000000E+00 -.54176525E+03 0.54176747E+03 0.15500000E+01 0.0000E+00 0.9000E+01
       25  1    1    2    0    0 0.13888006E+03 -.13945279E+03 -.34797861E+03 0.41886616E+03 0.12500000E+03 0.0000E+00 0.9000E+01
      -24  1    1    2    0    0 -.15870502E+03 0.14281855E+03 -.70963520E+02 0.23892982E+03 0.80419002E+02 0.0000E+00 0.9000E+01
       -3  1    1    2    0  502 0.19824957E+02 -.33657628E+01 0.26367640E+02 0.33164133E+02 0.50000000E+00 0.0000E+00 0.9000E+01
#aMCatNLO 1  0  0  1  2 0.11592875D+02 0.00000000D+00  -5  6  0 0.00000000D+00 0.00000000D+00 0.00000000D+00 0.00000000D+00 0.00000000D+00
  <mgrwgt>
 0.8987697117D-01   23    4    0
 0.284302282499573D+03 0.000000000000000D+00 0.000000000000000D+00 0.284302282499573D+03
 0.284302282499573D+03 0.000000000000000D+00 0.000000000000000D+00 -.284302282499573D+03
 0.268749933143304D+03 0.138879720385120D+03 -.139452728034988D+03 -.133667073259952D+03
 0.241349595738911D+03 -.158705327122432D+03 0.142818601068818D+03 0.787266012264778D+02
 0.585050361169305D+02 0.198256067373123D+02 -.336587303382980D+01 0.549404720334738D+02
 0.000000000000000D+00 -.000000000000000D+00 0.000000000000000D+00 0.000000000000000D+00
 0.292668824510374D+03 0.000000000000000D+00 0.000000000000000D+00 0.292668824510374D+03
 0.288405766437597D+03 0.000000000000000D+00 0.000000000000000D+00 -.288405766437597D+03
 0.272795241369227D+03 0.142332545161000D+03 -.143759534737024D+03 -.133667073259952D+03
 0.237103916839663D+03 -.155654766947420D+03 0.139013550462576D+03 0.787266012264778D+02
 0.588235739629139D+02 0.205736793836393D+02 -.429896535560576D+01 0.549404720334738D+02
 0.123518587761663D+02 -.725145759721951D+01 0.904494963005381D+01 0.426305807277741D+01
 0.284302282499573D+03 0.000000000000000D+00 0.000000000000000D+00 0.284302282499573D+03
 0.284302282499573D+03 0.000000000000000D+00 0.000000000000000D+00 -.284302282499573D+03
 0.268749933143304D+03 0.138879720385120D+03 -.139452728034988D+03 -.133667073259952D+03
 0.241349595738911D+03 -.158705327122432D+03 0.142818601068818D+03 0.787266012264778D+02
 0.000000000000000D+00 -.000000000000000D+00 0.000000000000000D+00 0.000000000000000D+00
 0.585050361169305D+02 0.198256067373123D+02 -.336587303382980D+01 0.549404720334738D+02
 0.292668824510374D+03 0.000000000000000D+00 0.000000000000000D+00 0.292668824510374D+03
 0.288405766437597D+03 0.000000000000000D+00 0.000000000000000D+00 -.288405766437597D+03
 0.272795241369227D+03 0.142332545161000D+03 -.143759534737024D+03 -.133667073259952D+03
 0.237103916839663D+03 -.155654766947420D+03 0.139013550462576D+03 0.787266012264778D+02
 0.123518587761663D+02 -.725145759721951D+01 0.904494963005381D+01 0.426305807277741D+01
 0.588235739629139D+02 0.205736793836393D+02 -.429896535560576D+01 0.549404720334738D+02
0.677116162448D-04 0.000000000000D+00 0.000000000000D+00 0.100772501634D-05 0.000000000000D+00  6 21 -4 25 -24 -3 21 2 0.22952741D-01 0.83348815D-01 0.57938743D+05 0.57938743D+05 0.57938743D+05 0.11859951D+01  1  2  2  1  6  1       21 0.925857755752D-02 0.100000000000D+01
0.149390704157D-04 0.357324015847D-05 -.136690244617D-06 0.100772501634D-05 0.000000000000D+00  6 21 -4 25 -24 -3 21 4 0.22952741D-01 0.83348815D-01 0.57938743D+05 0.57938743D+05 0.57938743D+05 0.11859951D+01  1  2  3  1  6  1       21 0.287323032974D-02 0.100000000000D+01
0.678600417132D-05 0.000000000000D+00 0.000000000000D+00 0.100772501634D-05 0.000000000000D+00  6 21 -4 25 -24 -3 21 4 0.22952741D-01 0.83348815D-01 0.57938743D+05 0.57938743D+05 0.57938743D+05 0.11859951D+01  1  2 15  1  6  1       21 0.130515169018D-02 0.100000000000D+01
0.164927980653D-03 0.000000000000D+00 0.000000000000D+00 0.100400673720D-05 0.000000000000D+00  6 21 -4 25 -24 -3 21 4 0.23790177D-01 0.83348815D-01 0.61025421D+05 0.61025421D+05 0.61025421D+05 0.11838050D+01  1  2 12  1  6  1       21 0.294062068881D-01 0.100000000000D+01
-.255267299684D-04 0.000000000000D+00 0.000000000000D+00 0.100772501634D-05 0.000000000000D+00  6 21 -4 25 -24 -3 21 4 0.22952741D-01 0.83348815D-01 0.57938743D+05 0.57938743D+05 0.57938743D+05 0.11859951D+01  1  2  4  1  6  1       21 -.490955412374D-02 0.100000000000D+01
-.355712029790D-02 0.000000000000D+00 -.522828564996D-03 0.100772501634D-05 0.000000000000D+00  6 21 -4 25 -24 -3 21 4 0.23948484D-01 0.83348815D-01 0.57938743D+05 0.57938743D+05 0.57938743D+05 0.11859951D+01  1  2  5  1  6  1       21 -.630925207557D+00 0.100000000000D+01
0.356657999851D-02 0.000000000000D+00 0.520947527139D-03 0.100772501634D-05 0.000000000000D+00  6 21 -4 25 -24 -3 21 4 0.22952741D-01 0.83348815D-01 0.57938743D+05 0.57938743D+05 0.57938743D+05 0.11859951D+01  1  2  6  1  6  1       21 0.685960072482D+00 0.100000000000D+01
0.393683915796D-05 0.000000000000D+00 0.000000000000D+00 0.100400673720D-05 0.000000000000D+00  6 -3 -4 25 -24 -3 -3 4 0.23790177D-01 0.83348815D-01 0.61025421D+05 0.61025421D+05 0.61025421D+05 0.11838050D+01  1  2 12  4  6  1       21 0.349447815439D-04 0.100000000000D+01
-.308412040898D-04 0.000000000000D+00 -.524913632195D-05 0.100772501634D-05 0.000000000000D+00  6 -3 -4 25 -24 -3 -3 4 0.23948484D-01 0.83348815D-01 0.57938743D+05 0.57938743D+05 0.57938743D+05 0.11859951D+01  1  2  5  4  6  1       21 -.271880484670D-03 0.100000000000D+01
0.393683915796D-05 0.000000000000D+00 0.000000000000D+00 0.100400673720D-05 0.000000000000D+00  6 3 -4 25 -24 3 -3 4 0.23790177D-01 0.83348815D-01 0.61025421D+05 0.61025421D+05 0.61025421D+05 0.11838050D+01  3  4 12  5  5  1       21 0.349433943940D-04 0.100000000000D+01
-.308412040898D-04 0.000000000000D+00 -.524913632195D-05 0.100772501634D-05 0.000000000000D+00  6 3 -4 25 -24 3 -3 4 0.23948484D-01 0.83348815D-01 0.57938743D+05 0.57938743D+05 0.57938743D+05 0.11859951D+01  3  4  5  5  5  1       21 -.271869944091D-03 0.100000000000D+01
0.393683915796D-05 0.000000000000D+00 0.000000000000D+00 0.100400673720D-05 0.000000000000D+00  6 -4 -4 25 -24 -3 -4 4 0.23790177D-01 0.83348815D-01 0.61025421D+05 0.61025421D+05 0.61025421D+05 0.11838050D+01  1  2 12  6  6  1       21 0.299170213070D-04 0.100000000000D+01
-.308412040898D-04 0.000000000000D+00 -.524913632195D-05 0.100772501634D-05 0.000000000000D+00  6 -4 -4 25 -24 -3 -4 4 0.23948484D-01 0.83348815D-01 0.57938743D+05 0.57938743D+05 0.57938743D+05 0.11859951D+01  1  2  5  6  6  1       21 -.232597581789D-03 0.100000000000D+01
0.393683915796D-05 0.000000000000D+00 0.000000000000D+00 0.100400673720D-05 0.000000000000D+00  6 4 -4 25 -24 4 -3 4 0.23790177D-01 0.83348815D-01 0.61025421D+05 0.61025421D+05 0.61025421D+05 0.11838050D+01  3  4 12  7  5  1       21 0.299170213070D-04 0.100000000000D+01
-.308412040898D-04 0.000000000000D+00 -.524913632195D-05 0.100772501634D-05 0.000000000000D+00  6 4 -4 25 -24 4 -3 4 0.23948484D-01 0.83348815D-01 0.57938743D+05 0.57938743D+05 0.57938743D+05 0.11859951D+01  3  4  5  7  5  1       21 -.232597581789D-03 0.100000000000D+01
0.393683915796D-05 0.000000000000D+00 0.000000000000D+00 0.100400673720D-05 0.000000000000D+00  6 -1 -4 25 -24 -3 -1 4 0.23790177D-01 0.83348815D-01 0.61025421D+05 0.61025421D+05 0.61025421D+05 0.11838050D+01  1  2 12  8  6  1       21 0.587345921126D-04 0.100000000000D+01
0.393683915796D-05 0.000000000000D+00 0.000000000000D+00 0.100400673720D-05 0.000000000000D+00  6 -2 -4 25 -24 -3 -2 4 0.23790177D-01 0.83348815D-01 0.61025421D+05 0.61025421D+05 0.61025421D+05 0.11838050D+01  1  2 12  8  6  1       21 0.529231413563D-04 0.100000000000D+01
-.308412040898D-04 0.000000000000D+00 -.524913632195D-05 0.100772501634D-05 0.000000000000D+00  6 -1 -4 25 -24 -3 -1 4 0.23948484D-01 0.83348815D-01 0.57938743D+05 0.57938743D+05 0.57938743D+05 0.11859951D+01  1  2  5  8  6  1       21 -.457933699535D-03 0.100000000000D+01
-.308412040898D-04 0.000000000000D+00 -.524913632195D-05 0.100772501634D-05 0.000000000000D+00  6 -2 -4 25 -24 -3 -2 4 0.23948484D-01 0.83348815D-01 0.57938743D+05 0.57938743D+05 0.57938743D+05 0.11859951D+01  1  2  5  8  6  1       21 -.412332215725D-03 0.100000000000D+01
0.393683915796D-05 0.000000000000D+00 0.000000000000D+00 0.100400673720D-05 0.000000000000D+00  6 1 -4 25 -24 1 -3 4 0.23790177D-01 0.83348815D-01 0.61025421D+05 0.61025421D+05 0.61025421D+05 0.11838050D+01  3  4 12  9  5  1       21 0.939307936982D-04 0.100000000000D+01
0.393683915796D-05 0.000000000000D+00 0.000000000000D+00 0.100400673720D-05 0.000000000000D+00  6 2 -4 25 -24 2 -3 4 0.23790177D-01 0.83348815D-01 0.61025421D+05 0.61025421D+05 0.61025421D+05 0.11838050D+01  3  4 12  9  5  1       21 0.119208181352D-03 0.100000000000D+01
-.308412040898D-04 0.000000000000D+00 -.524913632195D-05 0.100772501634D-05 0.000000000000D+00  6 1 -4 25 -24 1 -3 4 0.23948484D-01 0.83348815D-01 0.57938743D+05 0.57938743D+05 0.57938743D+05 0.11859951D+01  3  4  5  9  5  1       21 -.734188160489D-03 0.100000000000D+01
-.308412040898D-04 0.000000000000D+00 -.524913632195D-05 0.100772501634D-05 0.000000000000D+00  6 2 -4 25 -24 2 -3 4 0.23948484D-01 0.83348815D-01 0.57938743D+05 0.57938743D+05 0.57938743D+05 0.11859951D+01  3  4  5  9  5  1       21 -.932625354998D-03 0.100000000000D+01
  </mgrwgt>
  </event>
  <event>
  6     66 0.41051716E-03 0.81478349E+02 0.75467711E-02 0.11291445E+00
        1 -1    0    0  501    0 0.00000000E+00 0.00000000E+00 0.95166695E+03 0.95166700E+03 0.32000000E+00 0.0000E+00 0.9000E+01
       -4 -1    0    0    0  501 0.00000000E+00 0.00000000E+00 -.25285881E+03 0.25286356E+03 0.15500000E+01 0.0000E+00 0.9000E+01
       25  1    1    2    0    0 -.69677306E+02 -.32011732E+02 -.11440781E+03 0.18599415E+03 0.12500000E+03 0.0000E+00 0.9000E+01
      -24  1    1    2    0    0 0.12237855E+03 -.32902127E+02 -.36579544E+02 0.15448087E+03 0.80419002E+02 0.0000E+00 0.9000E+01
        1  1    1    2  502    0 -.97380302E+02 0.42853792E+02 0.56356387E+03 0.57351871E+03 0.32000000E+00 0.0000E+00 0.9000E+01
       -3  1    1    2    0  502 0.44679059E+02 0.22060067E+02 0.28623162E+03 0.29053684E+03 0.50000000E+00 0.0000E+00 0.9000E+01
#aMCatNLO 2  0  0  1  2 0.16460168D+01 0.00000000D+00  -5  6  0 0.00000000D+00 0.00000000D+00 0.00000000D+00 0.00000000D+00 0.00000000D+00
  <mgrwgt>
 0.9287433767D-03    1    2    0
 0.303548012982669D+03 0.000000000000000D+00 0.000000000000000D+00 0.303548012982669D+03
 0.303548012982669D+03 0.000000000000000D+00 0.000000000000000D+00 -.303548012982669D+03
 0.227725055686214D+03 -.104957769776816D+03 -.164860242703305D+02 -.157942326671872D+03
 0.146762993197013D+03 0.974695629456108D+02 -.219405441749814D+02 -.713474389047943D+02
 0.000000000000000D+00 -.000000000000000D+00 0.000000000000000D+00 0.000000000000000D+00
 0.232607977082110D+03 0.748820683120535D+01 0.384265684453119D+02 0.229289765576666D+03
 0.765487485578901D+03 0.000000000000000D+00 0.000000000000000D+00 0.765487485578901D+03
 0.314362011599400D+03 0.000000000000000D+00 0.000000000000000D+00 -.314362011599400D+03
 0.215523680809052D+03 -.696772893645027D+02 -.320117756735415D+02 -.157942326671872D+03
 0.166182837153575D+03 0.122378554960114D+03 -.329021527812737D+02 -.713474389047943D+02
 0.463501417420796D+03 -.973803019695154D+02 0.428537917363687D+02 0.451125473979500D+03
 0.234641561794878D+03 0.446790363739043D+02 0.220601367184466D+02 0.229289765576666D+03
0.872861051771D-04 0.000000000000D+00 0.000000000000D+00 0.481857393550D-05 0.260102133447D-08  6 1 -4 25 -24 1 -3 4 0.14641064D+00 0.38901719D-01 0.51291650D+05 0.51291650D+05 0.51291650D+05 0.11911863D+01  1  2  1  9  5  1       21 0.928743376687D-03 0.100000000000D+01
  </mgrwgt>
  </event>
  <event>
  5     66 0.41051716E-03 0.26186802E+02 0.75467711E-02 0.11719689E+00
       21 -1    0    0  501  502 0.00000000E+00 0.00000000E+00 0.14425440E+03 0.14425635E+03 0.75000000E+00 0.0000E+00 0.9000E+01
       -2 -1    0    0    0  501 0.00000000E+00 0.00000000E+00 -.49397059E+03 0.49397069E+03 0.32000000E+00 0.0000E+00 0.9000E+01
       25  1    1    2    0    0 0.10285755E+03 -.12716687E+02 -.28268739E+03 0.32600391E+03 0.12500000E+03 0.0000E+00 0.9000E+01
      -24  1    1    2    0    0 -.97137494E+02 -.12837731E+02 -.16655769E+03 0.20930642E+03 0.80419002E+02 0.0000E+00 0.9000E+01
       -1  1    1    2    0  502 -.57200525E+01 0.25554418E+02 0.99528888E+02 0.10291671E+03 0.32000000E+00 0.0000E+00 0.9000E+01
#aMCatNLO 1  0  0  1  1 0.37723112D+03 0.00000000D+00  -5  6  0 0.00000000D+00 0.00000000D+00 0.00000000D+00 0.00000000D+00 0.00000000D+00
  <mgrwgt>
 0.7704239624D-01   14    4    0
 0.266942104142564D+03 0.000000000000000D+00 0.000000000000000D+00 0.266942104142564D+03
 0.266942104142564D+03 0.000000000000000D+00 0.000000000000000D+00 -.266942104142564D+03
 0.204546583071225D+03 0.102857549685944D+03 -.127167015989519D+02 -.124390170910568D+03
 0.141111342024776D+03 -.971374918143373D+02 -.128377405835866D+02 -.620056045401603D+02
 0.188226283189128D+03 -.572005787160680D+01 0.255544421825386D+02 0.186395775450729D+03
 0.000000000000000D+00 0.000000000000000D+00 -.000000000000000D+00 0.000000000000000D+00
 0.284192477204382D+03 0.000000000000000D+00 0.000000000000000D+00 0.284192477204382D+03
 0.281668474772016D+03 0.000000000000000D+00 0.000000000000000D+00 -.281668474772016D+03
 0.198905786684251D+03 0.914459714752380D+02 -.101602981388439D+02 -.124390170910568D+03
 0.146685488322698D+03 -.105277773752188D+03 -.110141676712394D+02 -.620056045401603D+02
 0.189190805401419D+03 -.163952328051891D+02 0.279458777608239D+02 0.186395775450729D+03
 0.310788715680296D+02 0.302270350821390D+02 -.677141195074056D+01 0.252400243236582D+01
 0.266942104142564D+03 0.000000000000000D+00 0.000000000000000D+00 0.266942104142564D+03
 0.266942104142564D+03 0.000000000000000D+00 0.000000000000000D+00 -.266942104142564D+03
 0.204546583071225D+03 0.102857549685944D+03 -.127167015989519D+02 -.124390170910568D+03
 0.141111342024776D+03 -.971374918143373D+02 -.128377405835866D+02 -.620056045401603D+02
 0.000000000000000D+00 0.000000000000000D+00 -.000000000000000D+00 0.000000000000000D+00
 0.188226283189128D+03 -.572005787160680D+01 0.255544421825386D+02 0.186395775450729D+03
 0.284192477204382D+03 0.000000000000000D+00 0.000000000000000D+00 0.284192477204382D+03
 0.281668474772016D+03 0.000000000000000D+00 0.000000000000000D+00 -.281668474772016D+03
 0.198905786684251D+03 0.914459714752380D+02 -.101602981388439D+02 -.124390170910568D+03
 0.146685488322698D+03 -.105277773752188D+03 -.110141676712394D+02 -.620056045401603D+02
 0.310788715680296D+02 0.302270350821390D+02 -.677141195074056D+01 0.252400243236582D+01
 0.189190805401419D+03 -.163952328051891D+02 0.279458777608239D+02 0.186395775450729D+03
0.596709139329D-04 0.000000000000D+00 0.000000000000D+00 0.735010734726D-05 0.000000000000D+00  6 21 -2 25 -24 -1 21 2 0.22193143D-01 0.75995633D-01 0.24857086D+05 0.24857086D+05 0.24857086D+05 0.12235647D+01  1  2  2  1  6  1       21 0.222764985036D-01 0.100000000000D+01
0.172550438042D-04 0.314892063995D-05 -.120458383278D-06 0.735010734726D-05 0.000000000000D+00  6 21 -2 25 -24 -1 21 4 0.22193143D-01 0.75995633D-01 0.24857086D+05 0.24857086D+05 0.24857086D+05 0.12235647D+01  1  2  3  1  6  1       21 0.964393247708D-02 0.100000000000D+01
0.573334203726D-05 0.000000000000D+00 0.000000000000D+00 0.735010734726D-05 0.000000000000D+00  6 21 -2 25 -24 -1 21 4 0.22193143D-01 0.75995633D-01 0.24857086D+05 0.24857086D+05 0.24857086D+05 0.12235647D+01  1  2 15  1  6  1       21 0.320439426887D-02 0.100000000000D+01
-.481981005924D-04 0.000000000000D+00 0.000000000000D+00 0.735010734726D-05 0.000000000000D+00  6 21 -2 25 -24 -1 21 4 0.22193143D-01 0.75995633D-01 0.24857086D+05 0.24857086D+05 0.24857086D+05 0.12235647D+01  1  2  4  1  6  1       21 -.269381656118D-01 0.100000000000D+01
-.669104572810D-03 0.000000000000D+00 -.181683304586D-03 0.735010734726D-05 0.000000000000D+00  6 21 -2 25 -24 -1 21 4 0.24877607D-01 0.75995633D-01 0.24857086D+05 0.24857086D+05 0.24857086D+05 0.12235647D+01  1  2  5  1  6  1       21 -.301452268161D+00 0.100000000000D+01
0.670919834349D-03 0.000000000000D+00 0.177031792352D-03 0.735010734726D-05 0.000000000000D+00  6 21 -2 25 -24 -1 21 4 0.22193143D-01 0.75995633D-01 0.24857086D+05 0.24857086D+05 0.24857086D+05 0.12235647D+01  1  2  6  1  6  1       21 0.374980536324D+00 0.100000000000D+01
-.161682854332D-04 0.000000000000D+00 -.539628685706D-05 0.735010734726D-05 0.000000000000D+00  6 -1 -2 25 -24 -1 -1 4 0.24877607D-01 0.75995633D-01 0.24857086D+05 0.24857086D+05 0.24857086D+05 0.12235647D+01  1  2  5  4  6  1       21 -.603745490446D-03 0.100000000000D+01
-.161682854332D-04 0.000000000000D+00 -.539628685706D-05 0.735010734726D-05 0.000000000000D+00  6 1 -2 25 -24 1 -1 4 0.24877607D-01 0.75995633D-01 0.24857086D+05 0.24857086D+05 0.24857086D+05 0.12235647D+01  3  4  5  5  5  1       21 -.982303389904D-03 0.100000000000D+01
-.161682854332D-04 0.000000000000D+00 -.539628685706D-05 0.735010734726D-05 0.000000000000D+00  6 -2 -2 25 -24 -1 -2 4 0.24877607D-01 0.75995633D-01 0.24857086D+05 0.24857086D+05 0.24857086D+05 0.12235647D+01  1  2  5  6  6  1       21 -.541004956725D-03 0.100000000000D+01
-.161682854332D-04 0.000000000000D+00 -.539628685706D-05 0.735010734726D-05 0.000000000000D+00  6 2 -2 25 -24 2 -1 4 0.24877607D-01 0.75995633D-01 0.24857086D+05 0.24857086D+05 0.24857086D+05 0.12235647D+01  3  4  5  7  5  1       21 -.125330020521D-02 0.100000000000D+01
-.161682854332D-04 0.000000000000D+00 -.539628685706D-05 0.735010734726D-05 0.000000000000D+00  6 -3 -2 25 -24 -1 -3 4 0.24877607D-01 0.75995633D-01 0.24857086D+05 0.24857086D+05 0.24857086D+05 0.12235647D+01  1  2  5  8  6  1       21 -.349762414333D-03 0.100000000000D+01
-.161682854332D-04 0.000000000000D+00 -.539628685706D-05 0.735010734726D-05 0.000000000000D+00  6 -4 -2 25 -24 -1 -4 4 0.24877607D-01 0.75995633D-01 0.24857086D+05 0.24857086D+05 0.24857086D+05 0.12235647D+01  1  2  5  8  6  1       21 -.296333779590D-03 0.100000000000D+01
-.161682854332D-04 0.000000000000D+00 -.539628685706D-05 0.735010734726D-05 0.000000000000D+00  6 3 -2 25 -24 3 -1 4 0.24877607D-01 0.75995633D-01 0.24857086D+05 0.24857086D+05 0.24857086D+05 0.12235647D+01  3  4  5  9  5  1       21 -.349747544195D-03 0.100000000000D+01
-.161682854332D-04 0.000000000000D+00 -.539628685706D-05 0.735010734726D-05 0.000000000000D+00  6 4 -2 25 -24 4 -1 4 0.24877607D-01 0.75995633D-01 0.24857086D+05 0.24857086D+05 0.24857086D+05 0.12235647D+01  3  4  5  9  5  1       21 -.296333779590D-03 0.100000000000D+01
  </mgrwgt>
  </event>
  <event>
  5     66 0.41051716E-03 0.51527313E+02 0.75467711E-02 0.11991558E+00
       21 -1    0    0  501  502 0.00000000E+00 0.00000000E+00 0.64187831E+02 0.64192212E+02 0.75000000E+00 0.0000E+00 0.9000E+01
       -2 -1    0    0    0  501 0.00000000E+00 0.00000000E+00 -.53737550E+03 0.53737559E+03 0.32000000E+00 0.0000E+00 0.9000E+01
       25  1    1    2    0    0 -.37169637E+02 0.85370498E+02 -.26238774E+03 0.30519179E+03 0.12500000E+03 0.0000E+00 0.9000E+01
      -24  1    1    2    0    0 0.15830132E+02 -.38180486E+02 -.22515475E+03 0.24263186E+03 0.80419002E+02 0.0000E+00 0.9000E+01
       -1  1    1    2    0  502 0.21339504E+02 -.47190012E+02 0.14354815E+02 0.53744160E+02 0.32000000E+00 0.0000E+00 0.9000E+01
#aMCatNLO 1  0  0  1  5 0.35848904D+01 0.00000000D+00  -5  6  0 0.00000000D+00 0.00000000D+00 0.00000000D+00 0.00000000D+00 0.00000000D+00
  <mgrwgt>
 0.2223649456D-01   41    4    0
 0.185726449843403D+03 0.000000000000000D+00 0.000000000000000D+00 0.185726449843403D+03
 0.185726449843403D+03 0.000000000000000D+00 0.000000000000000D+00 -.185726449843403D+03
 0.160006696776777D+03 -.371696790543868D+02 0.853705915142052D+02 -.361582642963413D+02
 0.106121337578595D+03 0.158301041722556D+02 -.381804235952119D+02 -.555534462575029D+02
 0.105324865331435D+03 0.213395748821312D+02 -.471901679189933D+02 0.917117105538441D+02
 0.000000000000000D+00 0.000000000000000D+00 0.000000000000000D+00 0.000000000000000D+00
 0.198564242067898D+03 0.000000000000000D+00 0.000000000000000D+00 0.198564242067898D+03
 0.185985533571788D+03 0.000000000000000D+00 0.000000000000000D+00 -.185985533571788D+03
 0.159250806068791D+03 -.373925645201769D+02 0.838462597570111D+02 -.361582642963413D+02
 0.106468778107761D+03 0.156816871529693D+02 -.391954596138424D+02 -.555534462575029D+02
 0.105750613989070D+03 0.211922152864885D+02 -.481979721316599D+02 0.917117105538441D+02
 0.130795774740629D+02 0.518662080719078D+00 0.354717198849125D+01 0.125787084961097D+02
 0.185726449843403D+03 0.000000000000000D+00 0.000000000000000D+00 0.185726449843403D+03
 0.185726449843403D+03 0.000000000000000D+00 0.000000000000000D+00 -.185726449843403D+03
 0.160006696776777D+03 -.371696790543868D+02 0.853705915142052D+02 -.361582642963413D+02
 0.106121337578595D+03 0.158301041722556D+02 -.381804235952119D+02 -.555534462575029D+02
 0.000000000000000D+00 0.000000000000000D+00 0.000000000000000D+00 0.000000000000000D+00
 0.105324865331435D+03 0.213395748821312D+02 -.471901679189933D+02 0.917117105538441D+02
 0.198564242067898D+03 0.000000000000000D+00 0.000000000000000D+00 0.198564242067898D+03
 0.185985533571788D+03 0.000000000000000D+00 0.000000000000000D+00 -.185985533571788D+03
 0.159250806068791D+03 -.373925645201769D+02 0.838462597570111D+02 -.361582642963413D+02
 0.106468778107761D+03 0.156816871529693D+02 -.391954596138424D+02 -.555534462575029D+02
 0.130795774740629D+02 0.518662080719078D+00 0.354717198849125D+01 0.125787084961097D+02
 0.105750613989070D+03 0.211922152864885D+02 -.481979721316599D+02 0.917117105538441D+02
0.129128244014D-05 0.000000000000D+00 0.000000000000D+00 0.991694540494D-06 0.000000000000D+00  6 21 -2 25 -24 -1 21 2 0.98753953D-02 0.82673498D-01 0.22212509D+05 0.22212509D+05 0.22212509D+05 0.12288408D+01  1  2  2  1  6  1       21 0.175348493195D-02 0.100000000000D+01
0.473368742267D-07 0.681428464851D-07 -.260672721168D-08 0.991694540494D-06 0.000000000000D+00  6 21 -2 25 -24 -1 21 4 0.98753953D-02 0.82673498D-01 0.22212509D+05 0.22212509D+05 0.22212509D+05 0.12288408D+01  1  2  3  1  6  1       21 0.970669968016D-04 0.100000000000D+01
0.125396348365D-06 0.000000000000D+00 0.000000000000D+00 0.991694540494D-06 0.000000000000D+00  6 21 -2 25 -24 -1 21 4 0.98753953D-02 0.82673498D-01 0.22212509D+05 0.22212509D+05 0.22212509D+05 0.12288408D+01  1  2 15  1  6  1       21 0.257132460570D-03 0.100000000000D+01
0.318894127682D-05 0.000000000000D+00 0.000000000000D+00 0.989628440866D-06 0.000000000000D+00  6 21 -2 25 -24 -1 21 4 0.10564625D-01 0.82673498D-01 0.22824263D+05 0.22824263D+05 0.22824263D+05 0.12275600D+01  1  2 12  1  6  1       21 0.578375659596D-02 0.100000000000D+01
0.248688602436D-05 0.000000000000D+00 0.000000000000D+00 0.989628440866D-06 0.000000000000D+00  6 21 -2 25 -24 -1 21 4 0.10748294D-01 0.82673498D-01 0.22824263D+05 0.22824263D+05 0.22824263D+05 0.12275600D+01  1  2 12  1  6  1       21 0.437538434626D-02 0.100000000000D+01
-.100024457667D-03 0.000000000000D+00 0.000000000000D+00 0.991694540494D-06 0.000000000000D+00  6 21 -2 25 -24 -1 21 4 0.98753953D-02 0.82673498D-01 0.22212509D+05 0.22212509D+05 0.22212509D+05 0.12288408D+01  1  2  4  1  6  1       21 -.205105932132D+00 0.100000000000D+01
-.183764571721D-03 0.000000000000D+00 -.644354070269D-05 0.991694540494D-06 0.000000000000D+00  6 21 -2 25 -24 -1 21 4 0.10568281D-01 0.82673498D-01 0.22212509D+05 0.22212509D+05 0.22212509D+05 0.12288408D+01  1  2  5  1  6  1       21 -.334467477995D+00 0.100000000000D+01
0.182794420804D-03 0.000000000000D+00 0.638466573402D-05 0.991694540494D-06 0.000000000000D+00  6 21 -2 25 -24 -1 21 4 0.98753953D-02 0.82673498D-01 0.22212509D+05 0.22212509D+05 0.22212509D+05 0.12288408D+01  1  2  6  1  6  1       21 0.374830525872D+00 0.100000000000D+01
0.965436734414D-04 0.000000000000D+00 0.000000000000D+00 0.991694540494D-06 0.101032179294D-05  6 21 -2 25 -24 -1 21 4 0.10558003D-01 0.82788825D-01 0.22824263D+05 0.22824263D+05 0.22824263D+05 0.12275600D+01  1  2 11  1  6  1       21 0.174755223137D+00 0.100000000000D+01
0.646217906111D-07 0.000000000000D+00 0.000000000000D+00 0.989628440866D-06 0.000000000000D+00  6 -1 -2 25 -24 -1 -1 4 0.10564625D-01 0.82673498D-01 0.22824263D+05 0.22824263D+05 0.22824263D+05 0.12275600D+01  1  2 12  4  6  1       21 0.789447978301D-05 0.100000000000D+01
0.642731989645D-07 0.000000000000D+00 0.000000000000D+00 0.989628440866D-06 0.000000000000D+00  6 -1 -2 25 -24 -1 -1 4 0.10748294D-01 0.82673498D-01 0.22824263D+05 0.22824263D+05 0.22824263D+05 0.12275600D+01  1  2 12  4  6  1       21 0.764675867647D-05 0.100000000000D+01
-.285715907082D-05 0.000000000000D+00 -.106990610147D-06 0.991694540494D-06 0.000000000000D+00  6 -1 -2 25 -24 -1 -1 4 0.10568281D-01 0.82673498D-01 0.22212509D+05 0.22212509D+05 0.22212509D+05 0.12288408D+01  1  2  5  4  6  1       21 -.350147715369D-03 0.100000000000D+01
0.230706011160D-05 0.000000000000D+00 0.000000000000D+00 0.991694540494D-06 0.106721194117D-07  6 -1 -2 25 -24 -1 -1 4 0.10558003D-01 0.82788825D-01 0.22824263D+05 0.22824263D+05 0.22824263D+05 0.12275600D+01  1  2 11  4  6  1       21 0.281244677564D-03 0.100000000000D+01
0.646217906111D-07 0.000000000000D+00 0.000000000000D+00 0.989628440866D-06 0.000000000000D+00  6 1 -2 25 -24 1 -1 4 0.10564625D-01 0.82673498D-01 0.22824263D+05 0.22824263D+05 0.22824263D+05 0.12275600D+01  3  4 12  5  5  1       21 0.100034593927D-04 0.100000000000D+01
0.642731989645D-07 0.000000000000D+00 0.000000000000D+00 0.989628440866D-06 0.000000000000D+00  6 1 -2 25 -24 1 -1 4 0.10748294D-01 0.82673498D-01 0.22824263D+05 0.22824263D+05 0.22824263D+05 0.12275600D+01  3  4 12  5  5  1       21 0.972482047755D-05 0.100000000000D+01
-.285715907082D-05 0.000000000000D+00 -.106990610147D-06 0.991694540494D-06 0.000000000000D+00  6 1 -2 25 -24 1 -1 4 0.10568281D-01 0.82673498D-01 0.22212509D+05 0.22212509D+05 0.22212509D+05 0.12288408D+01  3  4  5  5  5  1       21 -.443738443530D-03 0.100000000000D+01
0.419775321500D-05 0.000000000000D+00 0.000000000000D+00 0.991694540494D-06 0.435531249116D-07  6 1 -2 25 -24 1 -1 4 0.10558003D-01 0.82788825D-01 0.22824263D+05 0.22824263D+05 0.22824263D+05 0.12275600D+01  3  4 11  5  5  1       21 0.648353729410D-03 0.100000000000D+01
0.646217906111D-07 0.000000000000D+00 0.000000000000D+00 0.989628440866D-06 0.000000000000D+00  6 -2 -2 25 -24 -1 -2 4 0.10564625D-01 0.82673498D-01 0.22824263D+05 0.22824263D+05 0.22824263D+05 0.12275600D+01  1  2 12  6  6  1       21 0.752856200689D-05 0.100000000000D+01
0.642731989645D-07 0.000000000000D+00 0.000000000000D+00 0.989628440866D-06 0.000000000000D+00  6 -2 -2 25 -24 -1 -2 4 0.10748294D-01 0.82673498D-01 0.22824263D+05 0.22824263D+05 0.22824263D+05 0.12275600D+01  1  2 12  6  6  1       21 0.728631038346D-05 0.100000000000D+01
-.285715907082D-05 0.000000000000D+00 -.106990610147D-06 0.991694540494D-06 0.000000000000D+00  6 -2 -2 25 -24 -1 -2 4 0.10568281D-01 0.82673498D-01 0.22212509D+05 0.22212509D+05 0.22212509D+05 0.12288408D+01  1  2  5  6  6  1       21 -.333907354556D-03 0.100000000000D+01
0.240418756401D-05 0.000000000000D+00 0.000000000000D+00 0.991694540494D-06 0.221604191790D-07  6 -2 -2 25 -24 -1 -2 4 0.10558003D-01 0.82788825D-01 0.22824263D+05 0.22824263D+05 0.22824263D+05 0.12275600D+01  1  2 11  6  6  1       21 0.279508603778D-03 0.100000000000D+01
0.646217906111D-07 0.000000000000D+00 0.000000000000D+00 0.989628440866D-06 0.000000000000D+00  6 2 -2 25 -24 2 -1 4 0.10564625D-01 0.82673498D-01 0.22824263D+05 0.22824263D+05 0.22824263D+05 0.12275600D+01  3  4 12  7  5  1       21 0.114334693257D-04 0.100000000000D+01
0.642731989645D-07 0.000000000000D+00 0.000000000000D+00 0.989628440866D-06 0.000000000000D+00  6 2 -2 25 -24 2 -1 4 0.10748294D-01 0.82673498D-01 0.22824263D+05 0.22824263D+05 0.22824263D+05 0.12275600D+01  3  4 12  7  5  1       21 0.111347695910D-04 0.100000000000D+01
-.285715907082D-05 0.000000000000D+00 -.106990610147D-06 0.991694540494D-06 0.000000000000D+00  6 2 -2 25 -24 2 -1 4 0.10568281D-01 0.82673498D-01 0.22212509D+05 0.22212509D+05 0.22212509D+05 0.12288408D+01  3  4  5  7  5  1       21 -.507187467394D-03 0.100000000000D+01
0.237864962397D-05 0.000000000000D+00 0.000000000000D+00 0.991694540494D-06 0.218592573793D-07  6 2 -2 25 -24 2 -1 4 0.10558003D-01 0.82788825D-01 0.22824263D+05 0.22824263D+05 0.22824263D+05 0.12275600D+01  3  4 11  7  5  1       21 0.419880275831D-03 0.100000000000D+01
0.646217906111D-07 0.000000000000D+00 0.000000000000D+00 0.989628440866D-06 0.000000000000D+00  6 -3 -2 25 -24 -1 -3 4 0.10564625D-01 0.82673498D-01 0.22824263D+05 0.22824263D+05 0.22824263D+05 0.12275600D+01  1  2 12  8  6  1       21 0.517286765335D-05 0.100000000000D+01
0.646217906111D-07 0.000000000000D+00 0.000000000000D+00 0.989628440866D-06 0.000000000000D+00  6 -4 -2 25 -24 -1 -4 4 0.10564625D-01 0.82673498D-01 0.22824263D+05 0.22824263D+05 0.22824263D+05 0.12275600D+01  1  2 12  8  6  1       21 0.451661192869D-05 0.100000000000D+01
0.642731989645D-07 0.000000000000D+00 0.000000000000D+00 0.989628440866D-06 0.000000000000D+00  6 -3 -2 25 -24 -1 -3 4 0.10748294D-01 0.82673498D-01 0.22824263D+05 0.22824263D+05 0.22824263D+05 0.12275600D+01  1  2 12  8  6  1       21 0.499944503089D-05 0.100000000000D+01
0.642731989645D-07 0.000000000000D+00 0.000000000000D+00 0.989628440866D-06 0.000000000000D+00  6 -4 -2 25 -24 -1 -4 4 0.10748294D-01 0.82673498D-01 0.22824263D+05 0.22824263D+05 0.22824263D+05 0.12275600D+01  1  2 12  8  6  1       21 0.436272965008D-05 0.100000000000D+01
-.285715907082D-05 0.000000000000D+00 -.106990610147D-06 0.991694540494D-06 0.000000000000D+00  6 -3 -2 25 -24 -1 -3 4 0.10568281D-01 0.82673498D-01 0.22212509D+05 0.22212509D+05 0.22212509D+05 0.12288408D+01  1  2  5  8  6  1       21 -.229281090791D-03 0.100000000000D+01
-.285715907082D-05 0.000000000000D+00 -.106990610147D-06 0.991694540494D-06 0.000000000000D+00  6 -4 -2 25 -24 -1 -4 4 0.10568281D-01 0.82673498D-01 0.22212509D+05 0.22212509D+05 0.22212509D+05 0.12288408D+01  1  2  5  8  6  1       21 -.200134897186D-03 0.100000000000D+01
0.237706024824D-05 0.000000000000D+00 0.000000000000D+00 0.991694540494D-06 0.218446513722D-07  6 -3 -2 25 -24 -1 -3 4 0.10558003D-01 0.82788825D-01 0.22824263D+05 0.22824263D+05 0.22824263D+05 0.12275600D+01  1  2 11  8  6  1       21 0.189892753747D-03 0.100000000000D+01
0.237706024824D-05 0.000000000000D+00 0.000000000000D+00 0.991694540494D-06 0.218446513722D-07  6 -4 -2 25 -24 -1 -4 4 0.10558003D-01 0.82788825D-01 0.22824263D+05 0.22824263D+05 0.22824263D+05 0.12275600D+01  1  2 11  8  6  1       21 0.165805407146D-03 0.100000000000D+01
0.646217906111D-07 0.000000000000D+00 0.000000000000D+00 0.989628440866D-06 0.000000000000D+00  6 3 -2 25 -24 3 -1 4 0.10564625D-01 0.82673498D-01 0.22824263D+05 0.22824263D+05 0.22824263D+05 0.12275600D+01  3  4 12  9  5  1       21 0.517221677219D-05 0.100000000000D+01
0.646217906111D-07 0.000000000000D+00 0.000000000000D+00 0.989628440866D-06 0.000000000000D+00  6 4 -2 25 -24 4 -1 4 0.10564625D-01 0.82673498D-01 0.22824263D+05 0.22824263D+05 0.22824263D+05 0.12275600D+01  3  4 12  9  5  1       21 0.451661192869D-05 0.100000000000D+01
0.642731989645D-07 0.000000000000D+00 0.000000000000D+00 0.989628440866D-06 0.000000000000D+00  6 3 -2 25 -24 3 -1 4 0.10748294D-01 0.82673498D-01 0.22824263D+05 0.22824263D+05 0.22824263D+05 0.12275600D+01  3  4 12  9  5  1       21 0.499881501517D-05 0.100000000000D+01
0.642731989645D-07 0.000000000000D+00 0.000000000000D+00 0.989628440866D-06 0.000000000000D+00  6 4 -2 25 -24 4 -1 4 0.10748294D-01 0.82673498D-01 0.22824263D+05 0.22824263D+05 0.22824263D+05 0.12275600D+01  3  4 12  9  5  1       21 0.436272965008D-05 0.100000000000D+01
-.285715907082D-05 0.000000000000D+00 -.106990610147D-06 0.991694540494D-06 0.000000000000D+00  6 3 -2 25 -24 3 -1 4 0.10568281D-01 0.82673498D-01 0.22212509D+05 0.22212509D+05 0.22212509D+05 0.12288408D+01  3  4  5  9  5  1       21 -.229252163231D-03 0.100000000000D+01
-.285715907082D-05 0.000000000000D+00 -.106990610147D-06 0.991694540494D-06 0.000000000000D+00  6 4 -2 25 -24 4 -1 4 0.10568281D-01 0.82673498D-01 0.22212509D+05 0.22212509D+05 0.22212509D+05 0.12288408D+01  3  4  5  9  5  1       21 -.200134897186D-03 0.100000000000D+01
0.237706024824D-05 0.000000000000D+00 0.000000000000D+00 0.991694540494D-06 0.218446513722D-07  6 3 -2 25 -24 3 -1 4 0.10558003D-01 0.82788825D-01 0.22824263D+05 0.22824263D+05 0.22824263D+05 0.12275600D+01  3  4 11  9  5  1       21 0.189868861756D-03 0.100000000000D+01
0.237706024824D-05 0.000000000000D+00 0.000000000000D+00 0.991694540494D-06 0.218446513722D-07  6 4 -2 25 -24 4 -1 4 0.10558003D-01 0.82788825D-01 0.22824263D+05 0.22824263D+05 0.22824263D+05 0.12275600D+01  3  4 11  9  5  1       21 0.165805407146D-03 0.100000000000D+01
  </mgrwgt>
  </event>
  <event>
  6     66 -.41051716E-03 0.55276656E+02 0.75467711E-02 0.11944004E+00
       21 -1    0    0  501  503 0.00000000E+00 0.00000000E+00 0.96405642E+02 0.96408560E+02 0.75000000E+00 0.0000E+00 0.9000E+01
       -4 -1    0    0    0  501 0.00000000E+00 0.00000000E+00 -.12822810E+04 0.12822820E+04 0.15500000E+01 0.0000E+00 0.9000E+01
       25  1    1    2    0    0 0.47428980E+02 0.55989691E+01 -.22873801E+03 0.26500365E+03 0.12500000E+03 0.0000E+00 0.9000E+01
      -24  1    1    2    0    0 -.10892684E+02 0.19832011E+02 -.10027975E+04 0.10062713E+04 0.80419002E+02 0.0000E+00 0.9000E+01
       -3  1    1    2    0  502 -.48436085E+02 -.47395044E+02 0.46864763E+02 0.82394785E+02 0.50000000E+00 0.0000E+00 0.9000E+01
       21  1    1    2  502  503 0.11899789E+02 0.21964064E+02 -.12046507E+01 0.25020767E+02 0.75000000E+00 0.0000E+00 0.9000E+01
#aMCatNLO 2  0  0  1  2 0.24980494D+02 0.00000000D+00  -5  6  0 0.00000000D+00 0.00000000D+00 0.00000000D+00 0.00000000D+00 0.00000000D+00
  <mgrwgt>
 -.1038162512D-01    2    2    0
 0.327243425703439D+03 0.000000000000000D+00 0.000000000000000D+00 0.327243425703439D+03
 0.327243425703439D+03 0.000000000000000D+00 0.000000000000000D+00 -.327243425703439D+03
 0.135121998688208D+03 0.498744424171196D+02 0.101126699079373D+02 0.657483310894823D+01
 0.266591018439030D+03 -.605330407157431D+01 0.287642750674023D+02 -.252466887230093D+03
 0.252773834279641D+03 -.438211383455453D+02 -.388769449753396D+02 0.245892054121145D+03
 0.000000000000000D+00 0.000000000000000D+00 0.000000000000000D+00 0.000000000000000D+00
 0.373628746427047D+03 0.000000000000000D+00 0.000000000000000D+00 0.373628746427047D+03
 0.330862337407488D+03 0.000000000000000D+00 0.000000000000000D+00 -.330862337407488D+03
 0.133974202375592D+03 0.474289979012155D+02 0.559898471617782D+01 0.657483310894823D+01
 0.265929886658462D+03 -.108926526830629D+02 0.198320355406502D+02 -.252466887230093D+03
 0.255059317389387D+03 -.484361339896082D+02 -.473950844641597D+02 0.245892054121145D+03
 0.495276774110931D+02 0.118997887714556D+02 0.219640642073316D+02 0.427664090195595D+02
-.325189490635D-03 0.000000000000D+00 0.000000000000D+00 0.131460213023D-05 0.000000000000D+00  6 21 -4 25 -24 -3 21 4 0.14897235D-01 0.19511489D+00 0.24040755D+05 0.24040755D+05 0.24040755D+05 0.12251236D+01  1  2 13  1  6  1       21 -.191733790538D-01 0.100000000000D+01
0.152635694916D-03 0.000000000000D+00 0.000000000000D+00 0.133605482701D-05 0.193630490942D-07  6 21 -4 25 -24 -3 21 4 0.14831808D-01 0.19727262D+00 0.24040755D+05 0.24040755D+05 0.24040755D+05 0.12251236D+01  1  2  1  1  6  1       21 0.879175393203D-02 0.100000000000D+01
  </mgrwgt>
  </event>
  <event>
  5     66 -.41051716E-03 0.30840765E+02 0.75467711E-02 0.11845238E+00
       21 -1    0    0  501  502 0.00000000E+00 0.00000000E+00 0.31259500E+02 0.31268496E+02 0.75000000E+00 0.0000E+00 0.9000E+01
       -2 -1    0    0    0  501 0.00000000E+00 0.00000000E+00 -.69214579E+03 0.69214586E+03 0.32000000E+00 0.0000E+00 0.9000E+01
       25  1    1    2    0    0 0.61057531E+02 -.42997605E+02 -.38171393E+03 0.40854295E+03 0.12500000E+03 0.0000E+00 0.9000E+01
      -24  1    1    2    0    0 -.54000882E+02 0.12975593E+02 -.26185794E+03 0.27950180E+03 0.80419002E+02 0.0000E+00 0.9000E+01
       -1  1    1    2    0  502 -.70566491E+01 0.30022012E+02 -.17314417E+02 0.35369605E+02 0.32000000E+00 0.0000E+00 0.9000E+01
#aMCatNLO 1  0  0  1  2 0.26393437D+02 0.00000000D+00  -5  6  0 0.00000000D+00 0.00000000D+00 0.00000000D+00 0.00000000D+00 0.00000000D+00
  <mgrwgt>
 -.8585795205D+00   12    4    0
 0.147103404279707D+03 0.000000000000000D+00 0.000000000000000D+00 0.147103404279707D+03
 0.147103404279707D+03 0.000000000000000D+00 0.000000000000000D+00 -.147103404279707D+03
 0.147095124435413D+03 0.610576089044682D+02 -.429979379300188D+02 -.208595628263134D+02
 0.990367669848420D+02 -.540008289803852D+02 0.129753692388499D+02 -.160192235450431D+02
 0.480749171391594D+02 -.705677992408300D+01 0.300225686911689D+02 0.368787863713564D+02
 0.000000000000000D+00 0.000000000000000D+00 -.000000000000000D+00 0.000000000000000D+00
 0.760328479005710D+04 0.000000000000000D+00 0.000000000000000D+00 0.760328479005710D+04
 0.149139911937861D+03 0.000000000000000D+00 0.000000000000000D+00 -.149139911937861D+03
 0.138295626361884D+03 0.380109474158139D+02 -.402582511551754D+02 -.208595628263134D+02
 0.109385936962834D+03 -.708319543445139D+02 0.149761801410509D+02 -.160192235450431D+02
 0.504426184634407D+02 -.150125398335631D+02 0.309683147906013D+02 0.368787863713564D+02
 0.745430052020680D+04 0.478335467622631D+02 -.568624377647681D+01 0.745414487811924D+04
 0.147103404279707D+03 0.000000000000000D+00 0.000000000000000D+00 0.147103404279707D+03
 0.147103404279707D+03 0.000000000000000D+00 0.000000000000000D+00 -.147103404279707D+03
 0.147095124435413D+03 0.610576089044682D+02 -.429979379300188D+02 -.208595628263134D+02
 0.990367669848420D+02 -.540008289803852D+02 0.129753692388499D+02 -.160192235450431D+02
 0.000000000000000D+00 0.000000000000000D+00 -.000000000000000D+00 0.000000000000000D+00
 0.480749171391594D+02 -.705677992408300D+01 0.300225686911689D+02 0.368787863713564D+02
 0.760328479005710D+04 0.000000000000000D+00 0.000000000000000D+00 0.760328479005710D+04
 0.149139911937861D+03 0.000000000000000D+00 0.000000000000000D+00 -.149139911937861D+03
 0.138295626361884D+03 0.380109474158139D+02 -.402582511551754D+02 -.208595628263134D+02
 0.109385936962834D+03 -.708319543445139D+02 0.149761801410509D+02 -.160192235450431D+02
 0.745430052020680D+04 0.478335467622631D+02 -.568624377647681D+01 0.745414487811924D+04
 0.504426184634407D+02 -.150125398335631D+02 0.309683147906013D+02 0.368787863713564D+02
0.264555231152D-06 0.000000000000D+00 0.000000000000D+00 0.116204750188D-05 0.000000000000D+00  6 21 -2 25 -24 -1 21 2 0.48098515D-02 0.10648466D+00 0.18793936D+05 0.18793936D+05 0.18793936D+05 0.12368110D+01  1  2  2  1  6  1       21 0.702173515347D-03 0.100000000000D+01
0.144347377887D-07 0.139609631037D-07 -.534060789956D-09 0.116204750188D-05 0.000000000000D+00  6 21 -2 25 -24 -1 21 4 0.48098515D-02 0.10648466D+00 0.18793936D+05 0.18793936D+05 0.18793936D+05 0.12368110D+01  1  2  3  1  6  1       21 0.586062131370D-04 0.100000000000D+01
0.255320913469D-07 0.000000000000D+00 0.000000000000D+00 0.116204750188D-05 0.000000000000D+00  6 21 -2 25 -24 -1 21 4 0.48098515D-02 0.10648466D+00 0.18793936D+05 0.18793936D+05 0.18793936D+05 0.12368110D+01  1  2 15  1  6  1       21 0.103662374005D-03 0.100000000000D+01
-.320290836818D+00 0.000000000000D+00 -.226218481428D-03 0.116204750188D-05 0.000000000000D+00  6 21 -2 25 -24 -1 21 4 0.24872361D+00 0.10648466D+00 0.18793936D+05 0.18793936D+05 0.18793936D+05 0.12368110D+01  1  2  5  1  6  1       21 -.334639404276D+00 0.100000000000D+01
-.142297707606D+00 0.000000000000D+00 -.100484066068D-03 0.116204750188D-05 0.000000000000D+00  6 -1 -2 25 -24 -1 -1 4 0.24872361D+00 0.10648466D+00 0.18793936D+05 0.18793936D+05 0.18793936D+05 0.12368110D+01  1  2  5  4  6  1       21 -.164189464459D-01 0.100000000000D+01
-.142297707606D+00 0.000000000000D+00 -.100484066068D-03 0.116204750188D-05 0.000000000000D+00  6 1 -2 25 -24 1 -1 4 0.24872361D+00 0.10648466D+00 0.18793936D+05 0.18793936D+05 0.18793936D+05 0.12368110D+01  3  4  5  5  5  1       21 -.144263397950D+00 0.100000000000D+01
-.142297707606D+00 0.000000000000D+00 -.100484066068D-03 0.116204750188D-05 0.000000000000D+00  6 -2 -2 25 -24 -1 -2 4 0.24872361D+00 0.10648466D+00 0.18793936D+05 0.18793936D+05 0.18793936D+05 0.12368110D+01  1  2  5  6  6  1       21 -.128787685185D-01 0.100000000000D+01
-.142297707606D+00 0.000000000000D+00 -.100484066068D-03 0.116204750188D-05 0.000000000000D+00  6 2 -2 25 -24 2 -1 4 0.24872361D+00 0.10648466D+00 0.18793936D+05 0.18793936D+05 0.18793936D+05 0.12368110D+01  3  4  5  7  5  1       21 -.320828870266D+00 0.100000000000D+01
-.142297707606D+00 0.000000000000D+00 -.100484066068D-03 0.116204750188D-05 0.000000000000D+00  6 -3 -2 25 -24 -1 -3 4 0.24872361D+00 0.10648466D+00 0.18793936D+05 0.18793936D+05 0.18793936D+05 0.12368110D+01  1  2  5  8  6  1       21 -.869930218917D-02 0.100000000000D+01
-.142297707606D+00 0.000000000000D+00 -.100484066068D-03 0.116204750188D-05 0.000000000000D+00  6 -4 -2 25 -24 -1 -4 4 0.24872361D+00 0.10648466D+00 0.18793936D+05 0.18793936D+05 0.18793936D+05 0.12368110D+01  1  2  5  8  6  1       21 -.646544427970D-02 0.100000000000D+01
-.142297707606D+00 0.000000000000D+00 -.100484066068D-03 0.116204750188D-05 0.000000000000D+00  6 3 -2 25 -24 3 -1 4 0.24872361D+00 0.10648466D+00 0.18793936D+05 0.18793936D+05 0.18793936D+05 0.12368110D+01  3  4  5  9  5  1       21 -.878438439837D-02 0.100000000000D+01
-.142297707606D+00 0.000000000000D+00 -.100484066068D-03 0.116204750188D-05 0.000000000000D+00  6 4 -2 25 -24 4 -1 4 0.24872361D+00 0.10648466D+00 0.18793936D+05 0.18793936D+05 0.18793936D+05 0.12368110D+01  3  4  5  9  5  1       21 -.646544427970D-02 0.100000000000D+01
  </mgrwgt>
  </event>
  <event>
  5     66 0.41051716E-03 0.38484915E+02 0.75467711E-02 0.11840416E+00
       21 -1    0    0  501  502 0.00000000E+00 0.00000000E+00 0.19176057E+03 0.19176204E+03 0.75000000E+00 0.0000E+00 0.9000E+01
       -4 -1    0    0    0  501 0.00000000E+00 0.00000000E+00 -.10628786E+03 0.10629916E+03 0.15500000E+01 0.0000E+00 0.9000E+01
       25  1    1    2    0    0 0.60397040E+02 -.25523585E+02 0.62826755E+02 0.15450391E+03 0.12500000E+03 0.0000E+00 0.9000E+01
      -24  1    1    2    0    0 -.34932164E+02 0.54375166E+02 0.14038676E+02 0.10412116E+03 0.80419002E+02 0.0000E+00 0.9000E+01
       -3  1    1    2    0  502 -.25464876E+02 -.28851581E+02 0.86072831E+01 0.39436137E+02 0.50000000E+00 0.0000E+00 0.9000E+01
#aMCatNLO 1  0  0  1  5 0.15432634D+03 0.00000000D+00  -5  6  0 0.00000000D+00 0.00000000D+00 0.00000000D+00 0.00000000D+00 0.00000000D+00
  <mgrwgt>
 0.1612819403D-01   14    4    0
 0.142771577849663D+03 0.000000000000000D+00 0.000000000000000D+00 0.142771577849663D+03
 0.142771577849663D+03 0.000000000000000D+00 0.000000000000000D+00 -.142771577849663D+03
 0.142471347581362D+03 0.603981068508641D+02 -.255223768056993D+02 0.193329214726793D+02
 0.104483702199237D+03 -.349313819857742D+02 0.543760522593734D+02 -.165127697294559D+02
 0.385881059187277D+02 -.254667248650900D+02 -.288536754536741D+02 -.282015174322346D+01
 0.000000000000000D+00 0.000000000000000D+00 0.000000000000000D+00 0.000000000000000D+00
 0.174700715623161D+03 0.000000000000000D+00 0.000000000000000D+00 0.174700715623161D+03
 0.159184312006240D+03 0.000000000000000D+00 0.000000000000000D+00 -.159184312006240D+03
 0.140192522435323D+03 0.453301216500099D+02 -.400045193110112D+02 0.193329214726793D+02
 0.103774490343151D+03 -.460330178722428D+02 0.437060475568993D+02 -.165127697294559D+02
 0.447152141984468D+02 -.299073815172242D+02 -.331216795428820D+02 -.282015174322346D+01
 0.452028006524808D+02 0.306102777394571D+02 0.294201512969939D+02 0.155164036169213D+02
 0.142771577849663D+03 0.000000000000000D+00 0.000000000000000D+00 0.142771577849663D+03
 0.142771577849663D+03 0.000000000000000D+00 0.000000000000000D+00 -.142771577849663D+03
 0.142471347581362D+03 0.603981068508641D+02 -.255223768056993D+02 0.193329214726793D+02
 0.104483702199237D+03 -.349313819857742D+02 0.543760522593734D+02 -.165127697294559D+02
 0.000000000000000D+00 0.000000000000000D+00 0.000000000000000D+00 0.000000000000000D+00
 0.385881059187277D+02 -.254667248650900D+02 -.288536754536741D+02 -.282015174322346D+01
 0.174700715623161D+03 0.000000000000000D+00 0.000000000000000D+00 0.174700715623161D+03
 0.159184312006240D+03 0.000000000000000D+00 0.000000000000000D+00 -.159184312006240D+03
 0.140192522435323D+03 0.453301216500099D+02 -.400045193110112D+02 0.193329214726793D+02
 0.103774490343151D+03 -.460330178722428D+02 0.437060475568993D+02 -.165127697294559D+02
 0.452028006524808D+02 0.306102777394571D+02 0.294201512969939D+02 0.155164036169213D+02
 0.447152141984468D+02 -.299073815172242D+02 -.331216795428820D+02 -.282015174322346D+01
0.283120537424D-05 0.000000000000D+00 0.000000000000D+00 0.399825073433D-06 0.000000000000D+00  6 21 -4 25 -24 -3 21 2 0.29502609D-01 0.16352960D-01 0.19995241D+05 0.19995241D+05 0.19995241D+05 0.12338374D+01  1  2  2  1  6  1       21 0.631117808230D-02 0.100000000000D+01
-.597304584649D-07 0.149406812319D-06 -.571538794416D-08 0.399825073433D-06 0.000000000000D+00  6 21 -4 25 -24 -3 21 4 0.29502609D-01 0.16352960D-01 0.19995241D+05 0.19995241D+05 0.19995241D+05 0.12338374D+01  1  2  3  1  6  1       21 -.202698617701D-03 0.100000000000D+01
0.303365708329D-06 0.000000000000D+00 0.000000000000D+00 0.399825073433D-06 0.000000000000D+00  6 21 -4 25 -24 -3 21 4 0.29502609D-01 0.16352960D-01 0.19995241D+05 0.19995241D+05 0.19995241D+05 0.12338374D+01  1  2 15  1  6  1       21 0.102948832667D-02 0.100000000000D+01
-.175946343239D-05 0.000000000000D+00 0.000000000000D+00 0.399825073433D-06 0.000000000000D+00  6 21 -4 25 -24 -3 21 4 0.29502609D-01 0.16352960D-01 0.19995241D+05 0.19995241D+05 0.19995241D+05 0.12338374D+01  1  2  4  1  6  1       21 -.597083656827D-02 0.100000000000D+01
-.126740465330D-04 0.000000000000D+00 -.412519389725D-05 0.399825073433D-06 0.000000000000D+00  6 21 -4 25 -24 -3 21 4 0.39845140D-01 0.16352960D-01 0.19995241D+05 0.19995241D+05 0.19995241D+05 0.12338374D+01  1  2  5  1  6  1       21 -.238302724645D-01 0.100000000000D+01
0.118422607422D-04 0.000000000000D+00 0.346576239252D-05 0.399825073433D-06 0.000000000000D+00  6 21 -4 25 -24 -3 21 4 0.29502609D-01 0.16352960D-01 0.19995241D+05 0.19995241D+05 0.19995241D+05 0.12338374D+01  1  2  6  1  6  1       21 0.401873674604D-01 0.100000000000D+01
-.932257036521D-06 0.000000000000D+00 -.389210827709D-06 0.399825073433D-06 0.000000000000D+00  6 -3 -4 25 -24 -3 -3 4 0.39845140D-01 0.16352960D-01 0.19995241D+05 0.19995241D+05 0.19995241D+05 0.12338374D+01  1  2  5  4  6  1       21 -.866344713114D-04 0.100000000000D+01
-.932257036521D-06 0.000000000000D+00 -.389210827709D-06 0.399825073433D-06 0.000000000000D+00  6 3 -4 25 -24 3 -3 4 0.39845140D-01 0.16352960D-01 0.19995241D+05 0.19995241D+05 0.19995241D+05 0.12338374D+01  3  4  5  5  5  1       21 -.866509186171D-04 0.100000000000D+01
-.932257036521D-06 0.000000000000D+00 -.389210827709D-06 0.399825073433D-06 0.000000000000D+00  6 -4 -4 25 -24 -3 -4 4 0.39845140D-01 0.16352960D-01 0.19995241D+05 0.19995241D+05 0.19995241D+05 0.12338374D+01  1  2  5  6  6  1       21 -.718374128475D-04 0.100000000000D+01
-.932257036521D-06 0.000000000000D+00 -.389210827709D-06 0.399825073433D-06 0.000000000000D+00  6 4 -4 25 -24 4 -3 4 0.39845140D-01 0.16352960D-01 0.19995241D+05 0.19995241D+05 0.19995241D+05 0.12338374D+01  3  4  5  7  5  1       21 -.718374128475D-04 0.100000000000D+01
-.932257036521D-06 0.000000000000D+00 -.389210827709D-06 0.399825073433D-06 0.000000000000D+00  6 -1 -4 25 -24 -3 -1 4 0.39845140D-01 0.16352960D-01 0.19995241D+05 0.19995241D+05 0.19995241D+05 0.12338374D+01  1  2  5  8  6  1       21 -.162861851658D-03 0.100000000000D+01
-.932257036521D-06 0.000000000000D+00 -.389210827709D-06 0.399825073433D-06 0.000000000000D+00  6 -2 -4 25 -24 -3 -2 4 0.39845140D-01 0.16352960D-01 0.19995241D+05 0.19995241D+05 0.19995241D+05 0.12338374D+01  1  2  5  8  6  1       21 -.137763470392D-03 0.100000000000D+01
-.932257036521D-06 0.000000000000D+00 -.389210827709D-06 0.399825073433D-06 0.000000000000D+00  6 1 -4 25 -24 1 -3 4 0.39845140D-01 0.16352960D-01 0.19995241D+05 0.19995241D+05 0.19995241D+05 0.12338374D+01  3  4  5  9  5  1       21 -.327486902302D-03 0.100000000000D+01
-.932257036521D-06 0.000000000000D+00 -.389210827709D-06 0.399825073433D-06 0.000000000000D+00  6 2 -4 25 -24 2 -3 4 0.39845140D-01 0.16352960D-01 0.19995241D+05 0.19995241D+05 0.19995241D+05 0.12338374D+01  3  4  5  9  5  1       21 -.450959753919D-03 0.100000000000D+01
  </mgrwgt>
  </event>
  <event>
  5     66 -.41051716E-03 0.29356691E+02 0.75467711E-02 0.11967718E+00
       21 -1    0    0  501  502 0.00000000E+00 0.00000000E+00 0.10820620E+03 0.10820879E+03 0.75000000E+00 0.0000E+00 0.9000E+01
       -4 -1    0    0    0  501 0.00000000E+00 0.00000000E+00 -.25176697E+03 0.25177174E+03 0.15500000E+01 0.0000E+00 0.9000E+01
       25  1    1    2    0    0 0.24550839E+02 0.29330682E+02 -.13891612E+03 0.19075042E+03 0.12500000E+03 0.0000E+00 0.9000E+01
      -24  1    1    2    0    0 0.54293670E-01 -.45342643E+02 -.57503071E+02 0.10876478E+03 0.80419002E+02 0.0000E+00 0.9000E+01
       -3  1    1    2    0  502 -.24605132E+02 0.16011961E+02 0.52858416E+02 0.60465342E+02 0.50000000E+00 0.0000E+00 0.9000E+01
#aMCatNLO 1  0  0  1  1 0.52856738D+02 0.00000000D+00  -5  6  0 0.00000000D+00 0.00000000D+00 0.00000000D+00 0.00000000D+00 0.00000000D+00
  <mgrwgt>
 -.1964895168D-01   12    4    0
 0.165057786575252D+03 0.000000000000000D+00 0.000000000000000D+00 0.165057786575252D+03
 0.165057786575252D+03 0.000000000000000D+00 0.000000000000000D+00 -.165057786575252D+03
 0.147595655929472D+03 0.245510125421098D+02 0.293305693078717D+02 -.685306000009077D+02
 0.935976760531652D+02 0.544039564750349D-01 -.453427149030543D+02 -.154059810986698D+02
 0.889222411678659D+02 -.246054164985848D+02 0.160121455951826D+02 0.839365810995775D+02
 0.000000000000000D+00 -.000000000000000D+00 -.000000000000000D+00 0.000000000000000D+00
 0.345496713990545D+03 0.000000000000000D+00 0.000000000000000D+00 0.345496713990545D+03
 0.171076718296695D+03 0.000000000000000D+00 0.000000000000000D+00 -.171076718296695D+03
 0.154686993315457D+03 0.473711286283954D+02 0.369133977975998D+02 -.685306000009077D+02
 0.925087833196073D+02 0.141040724303447D+02 -.406741923603965D+02 -.154059810986698D+02
 0.871246181966254D+02 -.113151738155900D+02 0.204283208009073D+02 0.839365810995775D+02
 0.182253037455551D+03 -.501600272431500D+02 -.166675262381106D+02 0.174419995693850D+03
 0.165057786575252D+03 0.000000000000000D+00 0.000000000000000D+00 0.165057786575252D+03
 0.165057786575252D+03 0.000000000000000D+00 0.000000000000000D+00 -.165057786575252D+03
 0.147595655929472D+03 0.245510125421098D+02 0.293305693078717D+02 -.685306000009077D+02
 0.935976760531652D+02 0.544039564750349D-01 -.453427149030543D+02 -.154059810986698D+02
 0.000000000000000D+00 -.000000000000000D+00 -.000000000000000D+00 0.000000000000000D+00
 0.889222411678659D+02 -.246054164985848D+02 0.160121455951826D+02 0.839365810995775D+02
 0.345496713990545D+03 0.000000000000000D+00 0.000000000000000D+00 0.345496713990545D+03
 0.171076718296695D+03 0.000000000000000D+00 0.000000000000000D+00 -.171076718296695D+03
 0.154686993315457D+03 0.473711286283954D+02 0.369133977975998D+02 -.685306000009077D+02
 0.925087833196073D+02 0.141040724303447D+02 -.406741923603965D+02 -.154059810986698D+02
 0.182253037455551D+03 -.501600272431500D+02 -.166675262381106D+02 0.174419995693850D+03
 0.871246181966254D+02 -.113151738155900D+02 0.204283208009073D+02 0.839365810995775D+02
0.202159642704D-05 0.000000000000D+00 0.000000000000D+00 0.306601082136D-05 0.000000000000D+00  6 21 -4 25 -24 -3 21 2 0.16647674D-01 0.38733947D-01 0.15926311D+05 0.15926311D+05 0.15926311D+05 0.12448667D+01  1  2  2  1  6  1       21 0.268475826135D-02 0.100000000000D+01
0.239004583619D-06 0.106682574393D-06 -.408102073844D-08 0.306601082136D-05 0.000000000000D+00  6 21 -4 25 -24 -3 21 4 0.16647674D-01 0.38733947D-01 0.15926311D+05 0.15926311D+05 0.15926311D+05 0.12448667D+01  1  2  3  1  6  1       21 0.491883915143D-03 0.100000000000D+01
0.201565471632D-06 0.000000000000D+00 0.000000000000D+00 0.306601082136D-05 0.000000000000D+00  6 21 -4 25 -24 -3 21 4 0.16647674D-01 0.38733947D-01 0.15926311D+05 0.15926311D+05 0.15926311D+05 0.12448667D+01  1  2 15  1  6  1       21 0.414832267409D-03 0.100000000000D+01
-.391726958753D-04 0.000000000000D+00 -.315915484019D-05 0.306601082136D-05 0.000000000000D+00  6 21 -4 25 -24 -3 21 4 0.35652273D-01 0.38733947D-01 0.15926311D+05 0.15926311D+05 0.15926311D+05 0.12448667D+01  1  2  5  1  6  1       21 -.191605064743D-01 0.100000000000D+01
-.111687482904D-04 0.000000000000D+00 -.851839245410D-06 0.306601082136D-05 0.000000000000D+00  6 -3 -4 25 -24 -3 -3 4 0.35652273D-01 0.38733947D-01 0.15926311D+05 0.15926311D+05 0.15926311D+05 0.12448667D+01  1  2  5  4  6  1       21 -.264954625347D-03 0.100000000000D+01
-.111687482904D-04 0.000000000000D+00 -.851839245410D-06 0.306601082136D-05 0.000000000000D+00  6 3 -4 25 -24 3 -3 4 0.35652273D-01 0.38733947D-01 0.15926311D+05 0.15926311D+05 0.15926311D+05 0.12448667D+01  3  4  5  5  5  1       21 -.264982943432D-03 0.100000000000D+01
-.111687482904D-04 0.000000000000D+00 -.851839245410D-06 0.306601082136D-05 0.000000000000D+00  6 -4 -4 25 -24 -3 -4 4 0.35652273D-01 0.38733947D-01 0.15926311D+05 0.15926311D+05 0.15926311D+05 0.12448667D+01  1  2  5  6  6  1       21 -.220129594491D-03 0.100000000000D+01
-.111687482904D-04 0.000000000000D+00 -.851839245410D-06 0.306601082136D-05 0.000000000000D+00  6 4 -4 25 -24 4 -3 4 0.35652273D-01 0.38733947D-01 0.15926311D+05 0.15926311D+05 0.15926311D+05 0.12448667D+01  3  4  5  7  5  1       21 -.220129594491D-03 0.100000000000D+01
-.111687482904D-04 0.000000000000D+00 -.851839245410D-06 0.306601082136D-05 0.000000000000D+00  6 -1 -4 25 -24 -3 -1 4 0.35652273D-01 0.38733947D-01 0.15926311D+05 0.15926311D+05 0.15926311D+05 0.12448667D+01  1  2  5  8  6  1       21 -.491341208311D-03 0.100000000000D+01
-.111687482904D-04 0.000000000000D+00 -.851839245410D-06 0.306601082136D-05 0.000000000000D+00  6 -2 -4 25 -24 -3 -2 4 0.35652273D-01 0.38733947D-01 0.15926311D+05 0.15926311D+05 0.15926311D+05 0.12448667D+01  1  2  5  8  6  1       21 -.421732568303D-03 0.100000000000D+01
-.111687482904D-04 0.000000000000D+00 -.851839245410D-06 0.306601082136D-05 0.000000000000D+00  6 1 -4 25 -24 1 -3 4 0.35652273D-01 0.38733947D-01 0.15926311D+05 0.15926311D+05 0.15926311D+05 0.12448667D+01  3  4  5  9  5  1       21 -.934582817562D-03 0.100000000000D+01
-.111687482904D-04 0.000000000000D+00 -.851839245410D-06 0.306601082136D-05 0.000000000000D+00  6 2 -4 25 -24 2 -3 4 0.35652273D-01 0.38733947D-01 0.15926311D+05 0.15926311D+05 0.15926311D+05 0.12448667D+01  3  4  5  9  5  1       21 -.126206629483D-02 0.100000000000D+01
  </mgrwgt>
  </event>
</LesHouchesEvents>
