<event>
 5    0  0.1856407E+000  0.2420394E+03  0.7546771E-02  0.1118442E+00
         21   -1    0    0  502  501  0.00000000000E+00  0.00000000000E+00  0.60897309167E+03  0.60897309167E+03  0.00000000000E+00 0.  1.
         21   -1    0    0  503  502 -0.00000000000E+00 -0.00000000000E+00 -0.27790142316E+03  0.27790142316E+03  0.00000000000E+00 0.  1.
         25    1    1    2    0    0 -0.15297755689E+03 -0.13984254228E+03  0.53880841626E+03  0.59067552766E+03  0.12500000000E+03 0.  0.
         21    1    1    2  503  504  0.38635446670E+02  0.60077736443E+02 -0.63065708010E+02  0.95285443182E+02  0.00000000000E+00 0. -1.
         21    1    1    2  504  501  0.11434211022E+03  0.79764805836E+02 -0.14467103974E+03  0.20091354399E+03  0.00000000000E+00 0.  1.
<mgrwt>
<rscale>  4 0.24203940E+03</rscale>
<asrwt>0</asrwt>
<pdfrwt beam="1">  1       21 0.93688168E-01 0.24203940E+03</pdfrwt>
<pdfrwt beam="2">  1       21 0.42754065E-01 0.24203940E+03</pdfrwt>
<totfact> 0.48580597E+03</totfact>
</mgrwt>
</event>
<event>
 5    0  0.1856407E+000  0.2463727E+03  0.7546771E-02  0.1115619E+00
         21   -1    0    0  502  501  0.00000000000E+00  0.00000000000E+00  0.11269773161E+03  0.11269773161E+03  0.00000000000E+00 0.  1.
         21   -1    0    0  503  502 -0.00000000000E+00 -0.00000000000E+00 -0.69696495494E+03  0.69696495494E+03  0.00000000000E+00 0.  1.
         25    1    1    2    0    0 -0.20114137467E+03  0.67946096679E+02 -0.90107430793E+02  0.26233351624E+03  0.12500000000E+03 0.  0.
         21    1    1    2  503  504  0.43321446087E+02 -0.62753520039E+02 -0.13632047523E+03  0.15619866816E+03  0.00000000000E+00 0.  1.
         21    1    1    2  504  501  0.15781992858E+03 -0.51925766394E+01 -0.35783931731E+03  0.39113050216E+03  0.00000000000E+00 0.  1.
<mgrwt>
<rscale>  4 0.24637274E+03</rscale>
<asrwt>0</asrwt>
<pdfrwt beam="1">  1       21 0.17338113E-01 0.24637274E+03</pdfrwt>
<pdfrwt beam="2">  1       21 0.10722538E+00 0.24637274E+03</pdfrwt>
<totfact> 0.20267122E+04</totfact>
</mgrwt>
</event>
<event>
 5    0  0.1856407E+000  0.2632741E+03  0.7546771E-02  0.1105192E+00
         21   -1    0    0  502  501  0.00000000000E+00  0.00000000000E+00  0.27627495264E+03  0.27627495264E+03  0.00000000000E+00 0.  1.
         21   -1    0    0  503  502 -0.00000000000E+00 -0.00000000000E+00 -0.45193873111E+03  0.45193873111E+03  0.00000000000E+00 0. -1.
         25    1    1    2    0    0 -0.12675564706E+03  0.19396202622E+03  0.16208244584E+03  0.30916659090E+03  0.12500000000E+03 0.  0.
         21    1    1    2  503  504  0.24021639744E+02 -0.58883406532E+02 -0.16525084965E+03  0.17706534966E+03  0.00000000000E+00 0.  1.
         21    1    1    2  504  501  0.10273400732E+03 -0.13507861969E+03 -0.17249537467E+03  0.24198174319E+03  0.00000000000E+00 0. -1.
<mgrwt>
<rscale>  4 0.26327412E+03</rscale>
<asrwt>0</asrwt>
<pdfrwt beam="1">  1       21 0.42503839E-01 0.26327412E+03</pdfrwt>
<pdfrwt beam="2">  1       21 0.69529035E-01 0.26327412E+03</pdfrwt>
<totfact> 0.95921159E+03</totfact>
</mgrwt>
</event>
<event>
 5    0  0.1856407E+000  0.2419681E+03  0.7546771E-02  0.1118489E+00
         21   -1    0    0  502  501  0.00000000000E+00  0.00000000000E+00  0.13238078654E+04  0.13238078654E+04  0.00000000000E+00 0. -1.
         21   -1    0    0  503  502 -0.00000000000E+00 -0.00000000000E+00 -0.45217374286E+02  0.45217374286E+02  0.00000000000E+00 0. -1.
         25    1    1    2    0    0 -0.77884747638E+02  0.19198316876E+03  0.49307011894E+03  0.54924194414E+03  0.12500000000E+03 0.  0.
         21    1    1    2  503  504  0.91689458391E+02 -0.81408427282E+02  0.38531021747E+03  0.40434917151E+03  0.00000000000E+00 0. -1.
         21    1    1    2  504  501 -0.13804710752E+02 -0.11057474148E+03  0.40021015468E+03  0.41543412402E+03  0.00000000000E+00 0. -1.
<mgrwt>
<rscale>  4 0.24196812E+03</rscale>
<asrwt>0</asrwt>
<pdfrwt beam="1">  1       21 0.20366272E+00 0.24196812E+03</pdfrwt>
<pdfrwt beam="2">  1       21 0.69565201E-02 0.24196812E+03</pdfrwt>
<totfact> 0.18782027E+04</totfact>
</mgrwt>
</event>
<event>
 5    0  0.1856407E+000  0.2679458E+03  0.7546771E-02  0.1102461E+00
         21   -1    0    0  502  501  0.00000000000E+00  0.00000000000E+00  0.20058504630E+04  0.20058504630E+04  0.00000000000E+00 0.  1.
         21   -1    0    0  503  502 -0.00000000000E+00 -0.00000000000E+00 -0.48327719851E+02  0.48327719851E+02  0.00000000000E+00 0.  1.
         25    1    1    2    0    0  0.17198342355E+03 -0.16306939519E+03  0.15947958186E+04  0.16171483014E+04  0.12500000000E+03 0.  0.
         21    1    1    2  503  504 -0.82935176437E+02  0.40669419465E+02  0.14111685358E+03  0.16866004724E+03  0.00000000000E+00 0.  1.
         21    1    1    2  504  501 -0.89048247114E+02  0.12239997573E+03  0.22161007098E+03  0.26836983424E+03  0.00000000000E+00 0.  1.
<mgrwt>
<rscale>  4 0.26794575E+03</rscale>
<asrwt>0</asrwt>
<pdfrwt beam="1">  1       21 0.30859232E+00 0.26794575E+03</pdfrwt>
<pdfrwt beam="2">  1       21 0.74350354E-02 0.26794575E+03</pdfrwt>
<totfact> 0.38427327E+03</totfact>
</mgrwt>
</event>
<event>
 5    0  0.1856407E+000  0.3181228E+03  0.7546771E-02  0.1076516E+00
         21   -1    0    0  502  501  0.00000000000E+00  0.00000000000E+00  0.84389228423E+02  0.84389228423E+02  0.00000000000E+00 0.  1.
         21   -1    0    0  503  502 -0.00000000000E+00 -0.00000000000E+00 -0.21579812310E+04  0.21579812310E+04  0.00000000000E+00 0.  1.
         25    1    1    2    0    0  0.83055401586E+02  0.28049764663E+03 -0.28077763192E+03  0.42430909498E+03  0.12500000000E+03 0.  0.
         21    1    1    2  503  504 -0.11812615750E+02 -0.16707485224E+03 -0.94387250665E+03  0.95861819978E+03  0.00000000000E+00 0.  1.
         21    1    1    2  504  501 -0.71242785836E+02 -0.11342279439E+03 -0.84894186406E+03  0.85944316471E+03  0.00000000000E+00 0.  1.
<mgrwt>
<rscale>  4 0.31812282E+03</rscale>
<asrwt>0</asrwt>
<pdfrwt beam="1">  1       21 0.12982958E-01 0.31812282E+03</pdfrwt>
<pdfrwt beam="2">  1       21 0.33199711E+00 0.31812282E+03</pdfrwt>
<totfact> 0.99174140E+02</totfact>
</mgrwt>
</event>
<event>
 5    0  0.1856407E+000  0.3060493E+03  0.7546771E-02  0.1082255E+00
         21   -1    0    0  502  501  0.00000000000E+00  0.00000000000E+00  0.12593531294E+04  0.12593531294E+04  0.00000000000E+00 0. -1.
         21   -1    0    0  503  502 -0.00000000000E+00 -0.00000000000E+00 -0.56306648954E+03  0.56306648954E+03  0.00000000000E+00 0.  1.
         25    1    1    2    0    0  0.25427530749E+03  0.12516940089E+03  0.11557916654E+04  0.11965795772E+04  0.12500000000E+03 0.  0.
         21    1    1    2  503  504 -0.20971769731E+03  0.40430721904E+01 -0.44044015006E+03  0.48783745734E+03  0.00000000000E+00 0.  1.
         21    1    1    2  504  501 -0.44557610176E+02 -0.12921247309E+03 -0.19064875418E+02  0.13800258440E+03  0.00000000000E+00 0.  1.
<mgrwt>
<rscale>  4 0.30604931E+03</rscale>
<asrwt>0</asrwt>
<pdfrwt beam="1">  1       21 0.19374663E+00 0.30604931E+03</pdfrwt>
<pdfrwt beam="2">  1       21 0.86625614E-01 0.30604931E+03</pdfrwt>
<totfact> 0.14972089E+02</totfact>
</mgrwt>
</event>
<event>
 5    0  0.1856407E+000  0.4061914E+03  0.7546771E-02  0.1041657E+00
         21   -1    0    0  502  501  0.00000000000E+00  0.00000000000E+00  0.88814082958E+03  0.88814082958E+03  0.00000000000E+00 0.  1.
         21   -1    0    0  503  502 -0.00000000000E+00 -0.00000000000E+00 -0.42994531101E+03  0.42994531101E+03  0.00000000000E+00 0.  1.
         25    1    1    2    0    0  0.20537945708E+03 -0.36500415783E+03  0.56305341187E+03  0.71278531217E+03  0.12500000000E+03 0.  0.
         21    1    1    2  503  504 -0.16450823778E+03  0.21597223553E+02 -0.18684884575E+03  0.24988375602E+03  0.00000000000E+00 0.  1.
         21    1    1    2  504  501 -0.40871219301E+02  0.34340693427E+03  0.81990952445E+02  0.35541707241E+03  0.00000000000E+00 0.  1.
<mgrwt>
<rscale>  4 0.40619140E+03</rscale>
<asrwt>0</asrwt>
<pdfrwt beam="1">  1       21 0.13663705E+00 0.40619140E+03</pdfrwt>
<pdfrwt beam="2">  1       21 0.66145433E-01 0.40619140E+03</pdfrwt>
<totfact> 0.68512378E+02</totfact>
</mgrwt>
</event>
<event>
 5    0  0.1969268E+000  0.1906707E+03  0.7546771E-02  0.1157858E+00
         21   -1    0    0  502  501  0.00000000000E+00  0.00000000000E+00  0.54788960303E+02  0.54788960303E+02  0.00000000000E+00 0. -1.
         21   -1    0    0  503  502 -0.00000000000E+00 -0.00000000000E+00 -0.12802864959E+04  0.12802864959E+04  0.00000000000E+00 0. -1.
         25    1    1    2    0    0  0.10152974114E+03 -0.19362893884E+03 -0.45798205811E+03  0.52265956400E+03  0.12500000000E+03 0.  0.
         21    1    1    2  503  504 -0.14839700961E+02  0.12923227509E+03 -0.59370895634E+03  0.60779233500E+03  0.00000000000E+00 0. -1.
         21    1    1    2  504  501 -0.86690040174E+02  0.64396663755E+02 -0.17380652115E+03  0.20462355720E+03  0.00000000000E+00 0. -1.
<mgrwt>
<rscale>  4 0.19067075E+03</rscale>
<asrwt>0</asrwt>
<pdfrwt beam="1">  1       21 0.84290718E-02 0.19067075E+03</pdfrwt>
<pdfrwt beam="2">  1       21 0.19696713E+00 0.19067075E+03</pdfrwt>
<totfact> 0.15411165E+04</totfact>
</mgrwt>
</event>
<event>
 5    0  0.1856407E+000  0.2485677E+03  0.7546771E-02  0.1114213E+00
         21   -1    0    0  502  501  0.00000000000E+00  0.00000000000E+00  0.11588613058E+03  0.11588613058E+03  0.00000000000E+00 0.  1.
         21   -1    0    0  503  502 -0.00000000000E+00 -0.00000000000E+00 -0.18932289458E+04  0.18932289458E+04  0.00000000000E+00 0. -1.
         25    1    1    2    0    0  0.20584238921E+03  0.63815443853E+02 -0.36576087835E+02  0.25180609657E+03  0.12500000000E+03 0.  0.
         21    1    1    2  503  504 -0.20383808071E+03 -0.41917159799E+02 -0.16768815853E+04  0.16897452064E+04  0.00000000000E+00 0. -1.
         21    1    1    2  504  501 -0.20043084980E+01 -0.21898284054E+02 -0.63885142105E+02  0.67563773420E+02  0.00000000000E+00 0.  1.
<mgrwt>
<rscale>  4 0.24856767E+03</rscale>
<asrwt>0</asrwt>
<pdfrwt beam="1">  1       21 0.17828638E-01 0.24856767E+03</pdfrwt>
<pdfrwt beam="2">  1       21 0.29126596E+00 0.24856767E+03</pdfrwt>
<totfact> 0.10256726E+03</totfact>
</mgrwt>
</event>
<event>
 5    0  0.1856407E+000  0.2643887E+03  0.7546771E-02  0.1104535E+00
         21   -1    0    0  502  501  0.00000000000E+00  0.00000000000E+00  0.74266082518E+02  0.74266082518E+02  0.00000000000E+00 0. -1.
         21   -1    0    0  503  502 -0.00000000000E+00 -0.00000000000E+00 -0.84609139369E+03  0.84609139369E+03  0.00000000000E+00 0. -1.
         25    1    1    2    0    0  0.12432627537E+03 -0.19702634935E+03 -0.41676703644E+03  0.49355462489E+03  0.12500000000E+03 0.  0.
         21    1    1    2  503  504 -0.80079324935E+02  0.15065691136E+03 -0.28217467235E+03  0.32974649192E+03  0.00000000000E+00 0. -1.
         21    1    1    2  504  501 -0.44246950434E+02  0.46369437994E+02 -0.72883602388E+02  0.97056359398E+02  0.00000000000E+00 0. -1.
<mgrwt>
<rscale>  4 0.26438874E+03</rscale>
<asrwt>0</asrwt>
<pdfrwt beam="1">  1       21 0.11425551E-01 0.26438874E+03</pdfrwt>
<pdfrwt beam="2">  1       21 0.13016791E+00 0.26438874E+03</pdfrwt>
<totfact> 0.26543600E+04</totfact>
</mgrwt>
</event>
<event>
 5    0  0.1856407E+000  0.2414701E+03  0.7546771E-02  0.1118817E+00
         21   -1    0    0  502  501  0.00000000000E+00  0.00000000000E+00  0.39506015031E+03  0.39506015031E+03  0.00000000000E+00 0. -1.
         21   -1    0    0  503  502 -0.00000000000E+00 -0.00000000000E+00 -0.34723165446E+03  0.34723165446E+03  0.00000000000E+00 0.  1.
         25    1    1    2    0    0  0.16312581409E+03 -0.12677851957E+03  0.31021042813E+03  0.39311364002E+03  0.12500000000E+03 0.  0.
         21    1    1    2  503  504 -0.49777281883E+02  0.80596145153E+02 -0.17431607487E+03  0.19839256630E+03  0.00000000000E+00 0.  1.
         21    1    1    2  504  501 -0.11334853220E+03  0.46182374416E+02 -0.88065857416E+02  0.15078559846E+03  0.00000000000E+00 0.  1.
<mgrwt>
<rscale>  4 0.24147013E+03</rscale>
<asrwt>0</asrwt>
<pdfrwt beam="1">  1       21 0.60778485E-01 0.24147013E+03</pdfrwt>
<pdfrwt beam="2">  1       21 0.53420254E-01 0.24147013E+03</pdfrwt>
<totfact> 0.80954636E+03</totfact>
</mgrwt>
</event>
