<event>
 5    0  0.1257040E+001  0.2095401E+03  0.7546771E-02  0.1141931E+00
         21   -1    0    0  502  501  0.00000000000E+00  0.00000000000E+00  0.14988217398E+03  0.14988217398E+03  0.00000000000E+00 0. -1.
         21   -1    0    0  504  502 -0.00000000000E+00 -0.00000000000E+00 -0.68599283625E+03  0.68599283625E+03  0.00000000000E+00 0. -1.
         25    1    1    2    0    0  0.20773145071E+03  0.81976049766E+01 -0.37067536327E+03  0.44299523844E+03  0.12500000000E+03 0.  0.
         21    1    1    2  503  501 -0.86098717440E+02 -0.10996528417E+03  0.28311282980E+02  0.14250221616E+03  0.00000000000E+00 0. -1.
         21    1    1    2  504  503 -0.12163273327E+03  0.10176767919E+03 -0.19374658198E+03  0.25037755563E+03  0.00000000000E+00 0. -1.
<mgrwt>
<rscale>  4 0.20954012E+03</rscale>
<asrwt>0</asrwt>
<pdfrwt beam="1">  1       21 0.23058796E-01 0.20954012E+03</pdfrwt>
<pdfrwt beam="2">  1       21 0.10553736E+00 0.20954012E+03</pdfrwt>
<totfact> 0.12603226E+04</totfact>
</mgrwt>
</event>
<event>
 5    0  0.1257040E+001  0.3275065E+03  0.7546771E-02  0.1072246E+00
         21   -1    0    0  502  501  0.00000000000E+00  0.00000000000E+00  0.25354822184E+04  0.25354822184E+04  0.00000000000E+00 0. -1.
         21   -1    0    0  504  502 -0.00000000000E+00 -0.00000000000E+00 -0.21577002463E+03  0.21577002463E+03  0.00000000000E+00 0. -1.
         25    1    1    2    0    0  0.14769943694E+03  0.28581820906E+03  0.42722983383E+03  0.54923355980E+03  0.12500000000E+03 0.  0.
         21    1    1    2  503  501 -0.16373582701E+03 -0.25083231292E+03  0.20337046853E+04  0.20556461314E+04  0.00000000000E+00 0. -1.
         21    1    1    2  504  503  0.16036390075E+02 -0.34985896145E+02 -0.14122232541E+03  0.14637255183E+03  0.00000000000E+00 0. -1.
<mgrwt>
<rscale>  4 0.32750652E+03</rscale>
<asrwt>0</asrwt>
<pdfrwt beam="1">  1       21 0.39007417E+00 0.32750652E+03</pdfrwt>
<pdfrwt beam="2">  1       21 0.33195390E-01 0.32750652E+03</pdfrwt>
<totfact> 0.72887900E+01</totfact>
</mgrwt>
</event>
<event>
 5    0  0.1257040E+001  0.3302351E+03  0.7546771E-02  0.1071033E+00
         21   -1    0    0  502  501  0.00000000000E+00  0.00000000000E+00  0.31561515829E+03  0.31561515829E+03  0.00000000000E+00 0.  1.
         21   -1    0    0  504  502 -0.00000000000E+00 -0.00000000000E+00 -0.41077202018E+03  0.41077202018E+03  0.00000000000E+00 0.  1.
         25    1    1    2    0    0 -0.14241152900E+03  0.28495105983E+03 -0.16372934763E+03  0.37935530755E+03  0.12500000000E+03 0.  0.
         21    1    1    2  503  501  0.67365641930E+01 -0.31630739134E+02  0.49378128554E+02  0.59026134338E+02  0.00000000000E+00 0.  1.
         21    1    1    2  504  503  0.13567496481E+03 -0.25332032070E+03  0.19194357188E+02  0.28800573658E+03  0.00000000000E+00 0.  1.
<mgrwt>
<rscale>  4 0.33023505E+03</rscale>
<asrwt>0</asrwt>
<pdfrwt beam="1">  1       21 0.48556178E-01 0.33023505E+03</pdfrwt>
<pdfrwt beam="2">  1       21 0.63195695E-01 0.33023505E+03</pdfrwt>
<totfact> 0.87048892E+03</totfact>
</mgrwt>
</event>
<event>
 5    0  0.1257040E+001  0.2667561E+03  0.7546771E-02  0.1103151E+00
         21   -1    0    0  504  501  0.00000000000E+00  0.00000000000E+00  0.68286982932E+03  0.68286982932E+03  0.00000000000E+00 0. -1.
         21   -1    0    0  503  502 -0.00000000000E+00 -0.00000000000E+00 -0.13586027924E+03  0.13586027924E+03  0.00000000000E+00 0. -1.
         25    1    1    2    0    0  0.15757293977E+03 -0.18636327236E+03  0.43368488295E+03  0.51309655849E+03  0.12500000000E+03 0.  0.
         21    1    1    2  503  501 -0.16769050425E+03  0.16228219463E+03  0.52146556701E+02  0.23911269160E+03  0.00000000000E+00 0. -1.
         21    1    1    2  504  502  0.10117564481E+02  0.24081077733E+02  0.61178110424E+02  0.66520858464E+02  0.00000000000E+00 0.  1.
<mgrwt>
<rscale>  4 0.26675613E+03</rscale>
<asrwt>0</asrwt>
<pdfrwt beam="1">  1       21 0.10505689E+00 0.26675613E+03</pdfrwt>
<pdfrwt beam="2">  1       21 0.20901582E-01 0.26675613E+03</pdfrwt>
<totfact> 0.14858137E+04</totfact>
</mgrwt>
</event>
<event>
 5    0  0.1257040E+001  0.3682679E+03  0.7546771E-02  0.1055357E+00
         21   -1    0    0  504  501  0.00000000000E+00  0.00000000000E+00  0.36141073638E+03  0.36141073638E+03  0.00000000000E+00 0. -1.
         21   -1    0    0  503  502 -0.00000000000E+00 -0.00000000000E+00 -0.46796414399E+03  0.46796414399E+03  0.00000000000E+00 0. -1.
         25    1    1    2    0    0 -0.88385106698E+02 -0.35763396484E+03 -0.25721701879E+02  0.38987252511E+03  0.12500000000E+03 0.  0.
         21    1    1    2  503  501  0.46918890145E+02  0.29645387450E+02 -0.93421052010E+02  0.10866335265E+03  0.00000000000E+00 0. -1.
         21    1    1    2  504  502  0.41466216553E+02  0.32798857739E+03  0.12589346271E+02  0.33083900261E+03  0.00000000000E+00 0. -1.
<mgrwt>
<rscale>  4 0.36826795E+03</rscale>
<asrwt>0</asrwt>
<pdfrwt beam="1">  1       21 0.55601652E-01 0.36826795E+03</pdfrwt>
<pdfrwt beam="2">  1       21 0.71994484E-01 0.36826795E+03</pdfrwt>
<totfact> 0.48068138E+03</totfact>
</mgrwt>
</event>
<event>
 5    0  0.1257040E+001  0.2227625E+03  0.7546771E-02  0.1131840E+00
         21   -1    0    0  502  501  0.00000000000E+00  0.00000000000E+00  0.15581766795E+04  0.15581766795E+04  0.00000000000E+00 0. -1.
         21   -1    0    0  504  502 -0.00000000000E+00 -0.00000000000E+00 -0.59295780680E+02  0.59295780680E+02  0.00000000000E+00 0.  1.
         25    1    1    2    0    0  0.17744852298E+03  0.10195210961E+03  0.24641587928E+03  0.34384298236E+03  0.12500000000E+03 0.  0.
         21    1    1    2  503  501 -0.15499111816E+03 -0.94636063830E+02  0.12202213985E+04  0.12336606068E+04  0.00000000000E+00 0. -1.
         21    1    1    2  504  503 -0.22457404815E+02 -0.73160457811E+01  0.32243621067E+02  0.39968871093E+02  0.00000000000E+00 0. -1.
<mgrwt>
<rscale>  4 0.22276253E+03</rscale>
<asrwt>0</asrwt>
<pdfrwt beam="1">  1       21 0.23971946E+00 0.22276253E+03</pdfrwt>
<pdfrwt beam="2">  1       21 0.91224290E-02 0.22276253E+03</pdfrwt>
<totfact> 0.70960751E+03</totfact>
</mgrwt>
</event>
<event>
 5    0  0.1257040E+001  0.2528849E+03  0.7546771E-02  0.1111495E+00
         21   -1    0    0  502  501  0.00000000000E+00  0.00000000000E+00  0.24957487720E+03  0.24957487720E+03  0.00000000000E+00 0.  1.
         21   -1    0    0  504  502 -0.00000000000E+00 -0.00000000000E+00 -0.52640781463E+03  0.52640781463E+03  0.00000000000E+00 0.  1.
         25    1    1    2    0    0  0.20368836615E+03  0.32584218866E+02  0.13046216306E+03  0.27421899608E+03  0.12500000000E+03 0.  0.
         21    1    1    2  503  501  0.97792487813E+01  0.27870952007E+02  0.82783772968E+01  0.30674993124E+02  0.00000000000E+00 0. -1.
         21    1    1    2  504  503 -0.21346761493E+03 -0.60455170873E+02 -0.41557347778E+03  0.47108870263E+03  0.00000000000E+00 0.  1.
<mgrwt>
<rscale>  4 0.25288489E+03</rscale>
<asrwt>0</asrwt>
<pdfrwt beam="1">  1       21 0.38396135E-01 0.25288489E+03</pdfrwt>
<pdfrwt beam="2">  1       21 0.80985817E-01 0.25288489E+03</pdfrwt>
<totfact> 0.84180864E+03</totfact>
</mgrwt>
</event>
<event>
 5    0  0.1257040E+001  0.2091132E+03  0.7546771E-02  0.1142270E+00
         21   -1    0    0  502  501  0.00000000000E+00  0.00000000000E+00  0.25851489202E+03  0.25851489202E+03  0.00000000000E+00 0.  1.
         21   -1    0    0  504  502 -0.00000000000E+00 -0.00000000000E+00 -0.18952164052E+04  0.18952164052E+04  0.00000000000E+00 0.  1.
         25    1    1    2    0    0 -0.30054505086E+02 -0.21480127557E+03 -0.61222848206E+00  0.25033624605E+03  0.12500000000E+03 0.  0.
         21    1    1    2  503  501 -0.43083561610E+02  0.65322094182E+02  0.11791334681E+03  0.14151581758E+03  0.00000000000E+00 0.  1.
         21    1    1    2  504  503  0.73138066696E+02  0.14947918139E+03 -0.17540026315E+04  0.17618792336E+04  0.00000000000E+00 0.  1.
<mgrwt>
<rscale>  4 0.20911325E+03</rscale>
<asrwt>0</asrwt>
<pdfrwt beam="1">  1       21 0.39771523E-01 0.20911325E+03</pdfrwt>
<pdfrwt beam="2">  1       21 0.29157174E+00 0.20911325E+03</pdfrwt>
<totfact> 0.22705653E+02</totfact>
</mgrwt>
</event>
<event>
 5    0  0.1257040E+001  0.2997361E+03  0.7546771E-02  0.1085373E+00
         21   -1    0    0  502  501  0.00000000000E+00  0.00000000000E+00  0.32315726969E+03  0.32315726969E+03  0.00000000000E+00 0.  1.
         21   -1    0    0  504  502 -0.00000000000E+00 -0.00000000000E+00 -0.29695239210E+03  0.29695239210E+03  0.00000000000E+00 0.  1.
         25    1    1    2    0    0 -0.50995810985E+02  0.26761196974E+03 -0.93318096673E+02  0.31392675300E+03  0.12500000000E+03 0.  0.
         21    1    1    2  503  501  0.19730324973E+01 -0.50083799236E+02  0.54209653212E+02  0.73830659651E+02  0.00000000000E+00 0. -1.
         21    1    1    2  504  503  0.49022778488E+02 -0.21752817050E+03  0.65313321048E+02  0.23235224914E+03  0.00000000000E+00 0.  1.
<mgrwt>
<rscale>  4 0.29973612E+03</rscale>
<asrwt>0</asrwt>
<pdfrwt beam="1">  1       21 0.49716503E-01 0.29973612E+03</pdfrwt>
<pdfrwt beam="2">  1       21 0.45684983E-01 0.29973612E+03</pdfrwt>
<totfact> 0.16770836E+04</totfact>
</mgrwt>
</event>
<event>
 5    0  0.1257040E+001  0.3807735E+03  0.7546771E-02  0.1050648E+00
         21   -1    0    0  502  501  0.00000000000E+00  0.00000000000E+00  0.62950080299E+03  0.62950080299E+03  0.00000000000E+00 0. -1.
         21   -1    0    0  504  502 -0.00000000000E+00 -0.00000000000E+00 -0.31689071039E+03  0.31689071039E+03  0.00000000000E+00 0.  1.
         25    1    1    2    0    0  0.76334987094E+02 -0.33898850255E+03  0.36151618857E+03  0.51677769854E+03  0.12500000000E+03 0.  0.
         21    1    1    2  503  501  0.41286524015E+02 -0.56718490769E+01  0.36676473609E+02  0.55514958827E+02  0.00000000000E+00 0. -1.
         21    1    1    2  504  503 -0.11762151111E+03  0.34466035162E+03 -0.85582569574E+02  0.37409885601E+03  0.00000000000E+00 0.  1.
<mgrwt>
<rscale>  4 0.38077348E+03</rscale>
<asrwt>0</asrwt>
<pdfrwt beam="1">  1       21 0.96846277E-01 0.38077348E+03</pdfrwt>
<pdfrwt beam="2">  1       21 0.48752417E-01 0.38077348E+03</pdfrwt>
<totfact> 0.31790458E+03</totfact>
</mgrwt>
</event>
<event>
 5    0  0.1257040E+001  0.3189322E+03  0.7546771E-02  0.1076142E+00
         21   -1    0    0  504  501  0.00000000000E+00  0.00000000000E+00  0.43608660736E+02  0.43608660736E+02  0.00000000000E+00 0. -1.
         21   -1    0    0  503  502 -0.00000000000E+00 -0.00000000000E+00 -0.26978266168E+04  0.26978266168E+04  0.00000000000E+00 0.  1.
         25    1    1    2    0    0  0.87910201497E+02  0.27944600612E+03 -0.10549978417E+04  0.11020270958E+04  0.12500000000E+03 0.  0.
         21    1    1    2  503  501 -0.12142380285E+03 -0.26827596831E+03 -0.15558460975E+04  0.15834686022E+04  0.00000000000E+00 0.  1.
         21    1    1    2  504  502  0.33513601355E+02 -0.11170037807E+02 -0.43374016882E+02  0.55939579556E+02  0.00000000000E+00 0.  1.
<mgrwt>
<rscale>  4 0.31893222E+03</rscale>
<asrwt>0</asrwt>
<pdfrwt beam="1">  1       21 0.67090232E-02 0.31893222E+03</pdfrwt>
<pdfrwt beam="2">  1       21 0.41505035E+00 0.31893222E+03</pdfrwt>
<totfact> 0.98279373E+02</totfact>
</mgrwt>
</event>
<event>
 5    0  0.1257040E+001  0.2128821E+03  0.7546771E-02  0.1139304E+00
         21   -1    0    0  502  501  0.00000000000E+00  0.00000000000E+00  0.26207606076E+03  0.26207606076E+03  0.00000000000E+00 0.  1.
         21   -1    0    0  504  502 -0.00000000000E+00 -0.00000000000E+00 -0.70043812764E+03  0.70043812764E+03  0.00000000000E+00 0.  1.
         25    1    1    2    0    0 -0.24473178287E+03  0.13094347341E+03 -0.27393264809E+03  0.40951670841E+03  0.12500000000E+03 0.  0.
         21    1    1    2  503  501  0.12528298648E+03 -0.44472185283E+02  0.15318015797E+03  0.20282446292E+03  0.00000000000E+00 0.  1.
         21    1    1    2  504  503  0.11944879639E+03 -0.86471288124E+02 -0.31760957676E+03  0.35017301706E+03  0.00000000000E+00 0.  1.
<mgrwt>
<rscale>  4 0.21288213E+03</rscale>
<asrwt>0</asrwt>
<pdfrwt beam="1">  1       21 0.40319394E-01 0.21288213E+03</pdfrwt>
<pdfrwt beam="2">  1       21 0.10775971E+00 0.21288213E+03</pdfrwt>
<totfact> 0.40026417E+03</totfact>
</mgrwt>
</event>
<event>
 5    0  0.1257040E+001  0.5964187E+03  0.7546771E-02  0.9912864E-01
         21   -1    0    0  502  501  0.00000000000E+00  0.00000000000E+00  0.30698463121E+03  0.30698463121E+03  0.00000000000E+00 0. -1.
         21   -1    0    0  504  502 -0.00000000000E+00 -0.00000000000E+00 -0.14825387468E+04  0.14825387468E+04  0.00000000000E+00 0. -1.
         25    1    1    2    0    0 -0.55430600194E+03  0.29441475700E+02 -0.90474260399E+03  0.10687872210E+04  0.12500000000E+03 0.  0.
         21    1    1    2  503  501  0.59453688601E+03 -0.13434614719E+02 -0.18197212057E+03  0.62190710751E+03  0.00000000000E+00 0. -1.
         21    1    1    2  504  503 -0.40230884076E+02 -0.16006860981E+02 -0.88839391059E+02  0.98829049554E+02  0.00000000000E+00 0. -1.
<mgrwt>
<rscale>  4 0.59641872E+03</rscale>
<asrwt>0</asrwt>
<pdfrwt beam="1">  1       21 0.47228406E-01 0.59641872E+03</pdfrwt>
<pdfrwt beam="2">  1       21 0.22808288E+00 0.59641872E+03</pdfrwt>
<totfact> 0.29137887E+02</totfact>
</mgrwt>
</event>
<event>
 5    0  0.1257040E+001  0.3213127E+03  0.7546771E-02  0.1075047E+00
         21   -1    0    0  502  501  0.00000000000E+00  0.00000000000E+00  0.57243182237E+03  0.57243182237E+03  0.00000000000E+00 0. -1.
         21   -1    0    0  504  502 -0.00000000000E+00 -0.00000000000E+00 -0.36332690632E+03  0.36332690632E+03  0.00000000000E+00 0. -1.
         25    1    1    2    0    0 -0.29327748114E+03 -0.16281670887E+03  0.27256008936E+03  0.44992773191E+03  0.12500000000E+03 0.  0.
         21    1    1    2  503  501  0.45995050516E+02  0.15831966271E+02  0.13024164973E+03  0.13902907305E+03  0.00000000000E+00 0. -1.
         21    1    1    2  504  503  0.24728243062E+03  0.14698474260E+03 -0.19369682304E+03  0.34680192374E+03  0.00000000000E+00 0. -1.
<mgrwt>
<rscale>  4 0.32131275E+03</rscale>
<asrwt>0</asrwt>
<pdfrwt beam="1">  1       21 0.88066434E-01 0.32131275E+03</pdfrwt>
<pdfrwt beam="2">  1       21 0.55896447E-01 0.32131275E+03</pdfrwt>
<totfact> 0.30584803E+03</totfact>
</mgrwt>
</event>
<event>
 5    0  0.1257040E+001  0.2466525E+03  0.7546771E-02  0.1115439E+00
         21   -1    0    0  504  501  0.00000000000E+00  0.00000000000E+00  0.30793211101E+03  0.30793211101E+03  0.00000000000E+00 0.  1.
         21   -1    0    0  501  502 -0.00000000000E+00 -0.00000000000E+00 -0.23392064265E+03  0.23392064265E+03  0.00000000000E+00 0.  1.
         25    1    1    2    0    0  0.18667997511E+03  0.13209939322E+03  0.12923547572E+03  0.29090629244E+03  0.12500000000E+03 0.  0.
         21    1    1    2  503  502 -0.15347025203E+03 -0.13917072096E+03 -0.62142663269E+02  0.21629451779E+03  0.00000000000E+00 0.  1.
         21    1    1    2  504  503 -0.33209723088E+02  0.70713277383E+01  0.69186559144E+01  0.34651943426E+02  0.00000000000E+00 0.  1.
<mgrwt>
<rscale>  4 0.24665253E+03</rscale>
<asrwt>0</asrwt>
<pdfrwt beam="1">  1       21 0.47374171E-01 0.24665253E+03</pdfrwt>
<pdfrwt beam="2">  1       21 0.35987791E-01 0.24665253E+03</pdfrwt>
<totfact> 0.30888907E+04</totfact>
</mgrwt>
</event>
<event>
 5    0  0.1257040E+001  0.2185823E+03  0.7546771E-02  0.1134944E+00
         21   -1    0    0  502  501  0.00000000000E+00  0.00000000000E+00  0.61101322979E+03  0.61101322979E+03  0.00000000000E+00 0.  1.
         21   -1    0    0  504  502 -0.00000000000E+00 -0.00000000000E+00 -0.93542390727E+03  0.93542390727E+03  0.00000000000E+00 0.  1.
         25    1    1    2    0    0  0.64864447216E+02  0.19054936232E+03 -0.80262754580E+03  0.83687061919E+03  0.12500000000E+03 0.  0.
         21    1    1    2  503  501 -0.34226895812E+02 -0.17567690793E+03  0.57750291438E+03  0.60460191242E+03  0.00000000000E+00 0.  1.
         21    1    1    2  504  503 -0.30637551404E+02 -0.14872454385E+02 -0.99286046061E+02  0.10496460545E+03  0.00000000000E+00 0.  1.
<mgrwt>
<rscale>  4 0.21858232E+03</rscale>
<asrwt>0</asrwt>
<pdfrwt beam="1">  1       21 0.94002036E-01 0.21858232E+03</pdfrwt>
<pdfrwt beam="2">  1       21 0.14391137E+00 0.21858232E+03</pdfrwt>
<totfact> 0.30702754E+02</totfact>
</mgrwt>
</event>
<event>
 5    0  0.1257040E+001  0.2962451E+03  0.7546771E-02  0.1087133E+00
         21   -1    0    0  504  501  0.00000000000E+00  0.00000000000E+00  0.62809218558E+03  0.62809218558E+03  0.00000000000E+00 0. -1.
         21   -1    0    0  503  502 -0.00000000000E+00 -0.00000000000E+00 -0.59594623005E+03  0.59594623005E+03  0.00000000000E+00 0. -1.
         25    1    1    2    0    0 -0.27507570715E+03 -0.56405031333E+01 -0.50727546266E+03  0.59046748849E+03  0.12500000000E+03 0.  0.
         21    1    1    2  503  501  0.81750794128E+01 -0.21308822543E+02 -0.78119984231E+01  0.24123125024E+02  0.00000000000E+00 0. -1.
         21    1    1    2  504  502  0.26690062774E+03  0.26949325676E+02  0.54723341662E+03  0.60944780211E+03  0.00000000000E+00 0. -1.
<mgrwt>
<rscale>  4 0.29624511E+03</rscale>
<asrwt>0</asrwt>
<pdfrwt beam="1">  1       21 0.96629567E-01 0.29624511E+03</pdfrwt>
<pdfrwt beam="2">  1       21 0.91684035E-01 0.29624511E+03</pdfrwt>
<totfact> 0.82146307E+02</totfact>
</mgrwt>
</event>
<event>
 5    0  0.1257040E+001  0.4281896E+03  0.7546771E-02  0.1042765E+00
         21   -1    0    0  503  501  0.00000000000E+00  0.00000000000E+00  0.10166048170E+04  0.10166048170E+04  0.00000000000E+00 0.  1.
         21   -1    0    0  504  502 -0.00000000000E+00 -0.00000000000E+00 -0.77931421361E+03  0.77931421361E+03  0.00000000000E+00 0. -1.
         25    1    1    2    0    0 -0.31080528158E+03 -0.23121415736E+02  0.13502324685E+02  0.33606820096E+03  0.12500000000E+03 0.  0.
         21    1    1    2  503  502  0.12326366241E+03  0.41968793515E+03 -0.46806974022E+03  0.64064122181E+03  0.00000000000E+00 0. -1.
         21    1    1    2  504  501  0.18754161916E+03 -0.39656651941E+03  0.69185801893E+03  0.81920960785E+03  0.00000000000E+00 0.  1.
<mgrwt>
<rscale>  4 0.40294544E+03</rscale>
<asrwt>0</asrwt>
<pdfrwt beam="1">  1       21 0.15640074E+00 0.42818961E+03</pdfrwt>
<pdfrwt beam="2">  1       21 0.11989449E+00 0.42818961E+03</pdfrwt>
<totfact> 0.11531237E+02</totfact>
</mgrwt>
</event>
<event>
 5    0  0.1257040E+001  0.2532454E+03  0.7546771E-02  0.1111271E+00
         21   -1    0    0  504  501  0.00000000000E+00  0.00000000000E+00  0.50897575429E+03  0.50897575429E+03  0.00000000000E+00 0. -1.
         21   -1    0    0  503  502 -0.00000000000E+00 -0.00000000000E+00 -0.27803768368E+03  0.27803768368E+03  0.00000000000E+00 0. -1.
         25    1    1    2    0    0  0.13412914559E+03 -0.17876624178E+03  0.18154513710E+03  0.31389748917E+03  0.12500000000E+03 0.  0.
         21    1    1    2  503  501 -0.78468547870E+02  0.20677304740E+03 -0.14800568210E+03  0.26611668131E+03  0.00000000000E+00 0. -1.
         21    1    1    2  504  502 -0.55660597725E+02 -0.28006805619E+02  0.19739861561E+03  0.20699926749E+03  0.00000000000E+00 0.  1.
<mgrwt>
<rscale>  4 0.25324543E+03</rscale>
<asrwt>0</asrwt>
<pdfrwt beam="1">  1       21 0.78303962E-01 0.25324543E+03</pdfrwt>
<pdfrwt beam="2">  1       21 0.42775028E-01 0.25324543E+03</pdfrwt>
<totfact> 0.72918075E+03</totfact>
</mgrwt>
</event>
<event>
 5    0  0.1257040E+001  0.2145086E+03  0.7546771E-02  0.1138045E+00
         21   -1    0    0  504  501  0.00000000000E+00  0.00000000000E+00  0.56464445887E+03  0.56464445887E+03  0.00000000000E+00 0.  1.
         21   -1    0    0  501  502 -0.00000000000E+00 -0.00000000000E+00 -0.21935965588E+03  0.21935965588E+03  0.00000000000E+00 0.  1.
         25    1    1    2    0    0 -0.20226042729E+03  0.45648928918E+02  0.39077633769E+03  0.45970017539E+03  0.12500000000E+03 0.  0.
         21    1    1    2  503  502  0.33721808412E+02 -0.83237453254E+02  0.72283426402E+02  0.11528455109E+03  0.00000000000E+00 0.  1.
         21    1    1    2  504  503  0.16853861887E+03  0.37588524336E+02 -0.11777496109E+03  0.20901938827E+03  0.00000000000E+00 0.  1.
<mgrwt>
<rscale>  4 0.21450858E+03</rscale>
<asrwt>0</asrwt>
<pdfrwt beam="1">  1       21 0.86868378E-01 0.21450858E+03</pdfrwt>
<pdfrwt beam="2">  1       21 0.33747640E-01 0.21450858E+03</pdfrwt>
<totfact> 0.94982797E+03</totfact>
</mgrwt>
</event>
<event>
 5    0  0.1257040E+001  0.2022814E+03  0.7546771E-02  0.1147828E+00
         21   -1    0    0  504  501  0.00000000000E+00  0.00000000000E+00  0.48261990866E+03  0.48261990866E+03  0.00000000000E+00 0.  1.
         21   -1    0    0  503  502 -0.00000000000E+00 -0.00000000000E+00 -0.15101973296E+03  0.15101973296E+03  0.00000000000E+00 0.  1.
         25    1    1    2    0    0  0.77263576865E+01 -0.21877719750E+03  0.92562207495E+02  0.26854407647E+03  0.12500000000E+03 0.  0.
         21    1    1    2  503  501  0.13493953048E+02  0.74516842244E+02 -0.10125127444E+02  0.76402648859E+02  0.00000000000E+00 0.  1.
         21    1    1    2  504  502 -0.21220310734E+02  0.14426035526E+03  0.24916309565E+03  0.28869291630E+03  0.00000000000E+00 0.  1.
<mgrwt>
<rscale>  4 0.20228144E+03</rscale>
<asrwt>0</asrwt>
<pdfrwt beam="1">  1       21 0.74249216E-01 0.20228144E+03</pdfrwt>
<pdfrwt beam="2">  1       21 0.23233805E-01 0.20228144E+03</pdfrwt>
<totfact> 0.28157660E+04</totfact>
</mgrwt>
</event>
<event>
 5    0  0.1257040E+001  0.2001143E+03  0.7546771E-02  0.1149643E+00
         21   -1    0    0  502  501  0.00000000000E+00  0.00000000000E+00  0.11116270978E+04  0.11116270978E+04  0.00000000000E+00 0.  1.
         21   -1    0    0  504  502 -0.00000000000E+00 -0.00000000000E+00 -0.11299256866E+04  0.11299256866E+04  0.00000000000E+00 0.  1.
         25    1    1    2    0    0  0.21681970752E+03 -0.86993792872E+01  0.10251738558E+04  0.10553164925E+04  0.12500000000E+03 0.  0.
         21    1    1    2  503  501 -0.60879414896E+02  0.70140340527E+01  0.51601470992E+02  0.80113741894E+02  0.00000000000E+00 0.  1.
         21    1    1    2  504  503 -0.15594029262E+03  0.16853452345E+01 -0.10950739155E+04  0.11061225500E+04  0.00000000000E+00 0.  1.
<mgrwt>
<rscale>  4 0.20011433E+03</rscale>
<asrwt>0</asrwt>
<pdfrwt beam="1">  1       21 0.17101955E+00 0.20011433E+03</pdfrwt>
<pdfrwt beam="2">  1       21 0.17383472E+00 0.20011433E+03</pdfrwt>
<totfact> 0.41621606E+01</totfact>
</mgrwt>
</event>
<event>
 5    0  0.1257040E+001  0.2558847E+03  0.7546771E-02  0.1109641E+00
         21   -1    0    0  504  501  0.00000000000E+00  0.00000000000E+00  0.44163227060E+03  0.44163227060E+03  0.00000000000E+00 0.  1.
         21   -1    0    0  501  502 -0.00000000000E+00 -0.00000000000E+00 -0.28511340449E+03  0.28511340449E+03  0.00000000000E+00 0.  1.
         25    1    1    2    0    0  0.58147100117E+02 -0.24805110879E+03  0.37044245364E+02  0.28619523745E+03  0.12500000000E+03 0.  0.
         21    1    1    2  503  502  0.13930935538E+03  0.12562035074E+03  0.23016512186E+02  0.18899028771E+03  0.00000000000E+00 0.  1.
         21    1    1    2  504  503 -0.19745645549E+03  0.12243075805E+03  0.96458108555E+02  0.25156014994E+03  0.00000000000E+00 0.  1.
<mgrwt>
<rscale>  4 0.25588467E+03</rscale>
<asrwt>0</asrwt>
<pdfrwt beam="1">  1       21 0.67943427E-01 0.25588467E+03</pdfrwt>
<pdfrwt beam="2">  1       21 0.43863600E-01 0.25588467E+03</pdfrwt>
<totfact> 0.94991687E+03</totfact>
</mgrwt>
</event>
<event>
 5    0  0.1257040E+001  0.1894598E+03  0.7546771E-02  0.1158949E+00
         21   -1    0    0  504  501  0.00000000000E+00  0.00000000000E+00  0.42325028813E+03  0.42325028813E+03  0.00000000000E+00 0.  1.
         21   -1    0    0  503  502 -0.00000000000E+00 -0.00000000000E+00 -0.15449019992E+03  0.15449019992E+03  0.00000000000E+00 0.  1.
         25    1    1    2    0    0 -0.66883258019E+02  0.18907469231E+03  0.18997519016E+03  0.30321309727E+03  0.12500000000E+03 0.  0.
         21    1    1    2  503  501 -0.27924213430E+02 -0.11349727470E+03 -0.19439552579E+02  0.11848750678E+03  0.00000000000E+00 0.  1.
         21    1    1    2  504  502  0.94807471449E+02 -0.75577417618E+02  0.98224450622E+02  0.15603988399E+03  0.00000000000E+00 0.  1.
<mgrwt>
<rscale>  4 0.18945980E+03</rscale>
<asrwt>0</asrwt>
<pdfrwt beam="1">  1       21 0.65115429E-01 0.18945980E+03</pdfrwt>
<pdfrwt beam="2">  1       21 0.23767723E-01 0.18945980E+03</pdfrwt>
<totfact> 0.36267901E+04</totfact>
</mgrwt>
</event>
<event>
 5    0  0.1257040E+001  0.2401343E+03  0.7546771E-02  0.1119703E+00
         21   -1    0    0  502  501  0.00000000000E+00  0.00000000000E+00  0.58709450946E+03  0.58709450946E+03  0.00000000000E+00 0.  1.
         21   -1    0    0  504  502 -0.00000000000E+00 -0.00000000000E+00 -0.66082722970E+03  0.66082722970E+03  0.00000000000E+00 0. -1.
         25    1    1    2    0    0 -0.21086830676E+03  0.74401689635E+02  0.47023298791E+03  0.53548587015E+03  0.12500000000E+03 0.  0.
         21    1    1    2  503  501  0.12662014371E+02 -0.24269005266E+02  0.64752756304E+02  0.70301000516E+02  0.00000000000E+00 0. -1.
         21    1    1    2  504  503  0.19820629239E+03 -0.50132684369E+02 -0.60871846445E+03  0.64213486850E+03  0.00000000000E+00 0. -1.
<mgrwt>
<rscale>  4 0.24013425E+03</rscale>
<asrwt>0</asrwt>
<pdfrwt beam="1">  1       21 0.90322233E-01 0.24013425E+03</pdfrwt>
<pdfrwt beam="2">  1       21 0.10166573E+00 0.24013425E+03</pdfrwt>
<totfact> 0.78603954E+02</totfact>
</mgrwt>
</event>
<event>
 5    0  0.1257040E+001  0.2467194E+03  0.7546771E-02  0.1115396E+00
         21   -1    0    0  503  501  0.00000000000E+00  0.00000000000E+00  0.27072447595E+02  0.27072447595E+02  0.00000000000E+00 0.  1.
         21   -1    0    0  504  502 -0.00000000000E+00 -0.00000000000E+00 -0.26844997791E+04  0.26844997791E+04  0.00000000000E+00 0.  1.
         25    1    1    2    0    0 -0.67649160992E+02  0.22329517307E+03 -0.10844307610E+04  0.11162670911E+04  0.12500000000E+03 0.  0.
         21    1    1    2  503  502  0.36208485252E+02 -0.29712008231E+02 -0.65089569009E+03  0.65257877472E+03  0.00000000000E+00 0.  1.
         21    1    1    2  504  501  0.31440675740E+02 -0.19358316484E+03 -0.92210088037E+03  0.94272636082E+03  0.00000000000E+00 0.  1.
<mgrwt>
<rscale>  4 0.24671944E+03</rscale>
<asrwt>0</asrwt>
<pdfrwt beam="1">  1       21 0.41649906E-02 0.24671944E+03</pdfrwt>
<pdfrwt beam="2">  1       21 0.41300010E+00 0.24671944E+03</pdfrwt>
<totfact> 0.24667571E+03</totfact>
</mgrwt>
</event>
<event>
 5    0  0.1257040E+001  0.2797887E+03  0.7546771E-02  0.1095804E+00
         21   -1    0    0  502  501  0.00000000000E+00  0.00000000000E+00  0.18072584057E+03  0.18072584057E+03  0.00000000000E+00 0. -1.
         21   -1    0    0  504  502 -0.00000000000E+00 -0.00000000000E+00 -0.11316906401E+04  0.11316906401E+04  0.00000000000E+00 0. -1.
         25    1    1    2    0    0  0.32809086588E+03 -0.46953943999E+02 -0.71950938121E+03  0.80197695651E+03  0.12500000000E+03 0.  0.
         21    1    1    2  503  501 -0.23805829084E+03 -0.26391346751E+02  0.12931344470E+02  0.23986553044E+03  0.00000000000E+00 0. -1.
         21    1    1    2  504  503 -0.90032575042E+02  0.73345290750E+02 -0.24438676278E+03  0.27057399370E+03  0.00000000000E+00 0. -1.
<mgrwt>
<rscale>  4 0.27978867E+03</rscale>
<asrwt>0</asrwt>
<pdfrwt beam="1">  1       21 0.27803976E-01 0.27978867E+03</pdfrwt>
<pdfrwt beam="2">  1       21 0.17410625E+00 0.27978867E+03</pdfrwt>
<totfact> 0.22970699E+03</totfact>
</mgrwt>
</event>
<event>
 5    0  0.1257040E+001  0.3584301E+03  0.7546771E-02  0.1059207E+00
         21   -1    0    0  503  501  0.00000000000E+00  0.00000000000E+00  0.27938115708E+03  0.27938115708E+03  0.00000000000E+00 0.  1.
         21   -1    0    0  504  502 -0.00000000000E+00 -0.00000000000E+00 -0.27445024448E+04  0.27445024448E+04  0.00000000000E+00 0.  1.
         25    1    1    2    0    0  0.28517223070E+03  0.73969435173E+02 -0.24867507483E+04  0.25072592531E+04  0.12500000000E+03 0.  0.
         21    1    1    2  503  502  0.47492541459E+02 -0.15583162933E+02 -0.13527064222E+03  0.14420999656E+03  0.00000000000E+00 0.  1.
         21    1    1    2  504  501 -0.33266477216E+03 -0.58386272241E+02  0.15690010279E+03  0.37241435214E+03  0.00000000000E+00 0.  1.
<mgrwt>
<rscale>  4 0.35843014E+03</rscale>
<asrwt>0</asrwt>
<pdfrwt beam="1">  1       21 0.42981716E-01 0.35843014E+03</pdfrwt>
<pdfrwt beam="2">  1       21 0.42223115E+00 0.35843014E+03</pdfrwt>
<totfact> 0.26008439E+01</totfact>
</mgrwt>
</event>
<event>
 5    0  0.1257040E+001  0.3542729E+03  0.7546771E-02  0.1060875E+00
         21   -1    0    0  502  501  0.00000000000E+00  0.00000000000E+00  0.27077960088E+03  0.27077960088E+03  0.00000000000E+00 0. -1.
         21   -1    0    0  504  502 -0.00000000000E+00 -0.00000000000E+00 -0.10806739601E+04  0.10806739601E+04  0.00000000000E+00 0. -1.
         25    1    1    2    0    0  0.30725131116E+03  0.31034465688E+02 -0.76462981986E+03  0.83405651348E+03  0.12500000000E+03 0.  0.
         21    1    1    2  503  501 -0.33424462170E+03 -0.21016760427E+02  0.11535710011E+03  0.35421523386E+03  0.00000000000E+00 0. -1.
         21    1    1    2  504  503  0.26993310546E+02 -0.10017705262E+02 -0.16062163949E+03  0.16318181365E+03  0.00000000000E+00 0. -1.
<mgrwt>
<rscale>  4 0.35427295E+03</rscale>
<asrwt>0</asrwt>
<pdfrwt beam="1">  1       21 0.41658400E-01 0.35427295E+03</pdfrwt>
<pdfrwt beam="2">  1       21 0.16625753E+00 0.35427295E+03</pdfrwt>
<totfact> 0.11116187E+03</totfact>
</mgrwt>
</event>
<event>
 5    0  0.1257040E+001  0.2624080E+03  0.7546771E-02  0.1105705E+00
         21   -1    0    0  504  501  0.00000000000E+00  0.00000000000E+00  0.11801837473E+03  0.11801837473E+03  0.00000000000E+00 0.  1.
         21   -1    0    0  501  502 -0.00000000000E+00 -0.00000000000E+00 -0.17163753142E+04  0.17163753142E+04  0.00000000000E+00 0.  1.
         25    1    1    2    0    0  0.99987277767E+02 -0.20227843333E+03 -0.72529607324E+02  0.26795440702E+03  0.12500000000E+03 0.  0.
         21    1    1    2  503  502 -0.27900026696E+02 -0.63744184477E+02 -0.18675839584E+03  0.19929985188E+03  0.00000000000E+00 0.  1.
         21    1    1    2  504  503 -0.72087251071E+02  0.26602261780E+03 -0.13390689363E+04  0.13671394301E+04  0.00000000000E+00 0.  1.
<mgrwt>
<rscale>  4 0.26240796E+03</rscale>
<asrwt>0</asrwt>
<pdfrwt beam="1">  1       21 0.18156675E-01 0.26240796E+03</pdfrwt>
<pdfrwt beam="2">  1       21 0.26405772E+00 0.26240796E+03</pdfrwt>
<totfact> 0.14130321E+03</totfact>
</mgrwt>
</event>
<event>
 5    0  0.1257040E+001  0.3270354E+03  0.7546771E-02  0.1072456E+00
         21   -1    0    0  503  501  0.00000000000E+00  0.00000000000E+00  0.92444076281E+03  0.92444076281E+03  0.00000000000E+00 0.  1.
         21   -1    0    0  501  502 -0.00000000000E+00 -0.00000000000E+00 -0.13136551594E+03  0.13136551594E+03  0.00000000000E+00 0.  1.
         25    1    1    2    0    0 -0.27941282951E+03  0.11513319082E+03  0.63036009587E+03  0.71014507771E+03  0.12500000000E+03 0.  0.
         21    1    1    2  503  504  0.18342666407E+02 -0.94765011464E+01  0.51224702640E+00  0.20652357781E+02  0.00000000000E+00 0.  1.
         21    1    1    2  504  502  0.26107016311E+03 -0.10565668968E+03  0.16220290398E+03  0.32500884326E+03  0.00000000000E+00 0.  1.
<mgrwt>
<rscale>  4 0.32703544E+03</rscale>
<asrwt>0</asrwt>
<pdfrwt beam="1">  1       21 0.14222165E+00 0.32703544E+03</pdfrwt>
<pdfrwt beam="2">  1       21 0.20210080E-01 0.32703544E+03</pdfrwt>
<totfact> 0.71649302E+03</totfact>
</mgrwt>
</event>
<event>
 5    0  0.1257040E+001  0.2738651E+03  0.7546771E-02  0.1099088E+00
         21   -1    0    0  502  501  0.00000000000E+00  0.00000000000E+00  0.86793223684E+03  0.86793223684E+03  0.00000000000E+00 0. -1.
         21   -1    0    0  504  502 -0.00000000000E+00 -0.00000000000E+00 -0.53501097319E+03  0.53501097319E+03  0.00000000000E+00 0.  1.
         25    1    1    2    0    0  0.18705640424E+03 -0.15030368373E+03 -0.46131230229E+03  0.53480401639E+03  0.12500000000E+03 0.  0.
         21    1    1    2  503  501 -0.20237917939E+03  0.13601476539E+03  0.80738472777E+03  0.84340230453E+03  0.00000000000E+00 0. -1.
         21    1    1    2  504  503  0.15322775147E+02  0.14288918335E+02 -0.13151161827E+02  0.24736889109E+02  0.00000000000E+00 0.  1.
<mgrwt>
<rscale>  4 0.27386511E+03</rscale>
<asrwt>0</asrwt>
<pdfrwt beam="1">  1       21 0.13352804E+00 0.27386511E+03</pdfrwt>
<pdfrwt beam="2">  1       21 0.82309381E-01 0.27386511E+03</pdfrwt>
<totfact> 0.48205501E+02</totfact>
</mgrwt>
</event>
<event>
 5    0  0.1257040E+001  0.1929863E+03  0.7546771E-02  0.1155795E+00
         21   -1    0    0  504  501  0.00000000000E+00  0.00000000000E+00  0.21346440487E+03  0.21346440487E+03  0.00000000000E+00 0.  1.
         21   -1    0    0  503  502 -0.00000000000E+00 -0.00000000000E+00 -0.11803069063E+04  0.11803069063E+04  0.00000000000E+00 0.  1.
         25    1    1    2    0    0  0.22573114931E+03 -0.39126196103E+02  0.40486610290E+02  0.26410145134E+03  0.12500000000E+03 0.  0.
         21    1    1    2  503  501 -0.10074310597E+03  0.10515728753E+03 -0.97348439546E+03  0.98431656327E+03  0.00000000000E+00 0.  1.
         21    1    1    2  504  502 -0.12498804334E+03 -0.66031091430E+02 -0.33844716307E+02  0.14535329661E+03  0.00000000000E+00 0.  1.
<mgrwt>
<rscale>  4 0.19298633E+03</rscale>
<asrwt>0</asrwt>
<pdfrwt beam="1">  1       21 0.32840677E-01 0.19298633E+03</pdfrwt>
<pdfrwt beam="2">  1       21 0.18158568E+00 0.19298633E+03</pdfrwt>
<totfact> 0.15838208E+03</totfact>
</mgrwt>
</event>
<event>
 5    0  0.1257040E+001  0.2234139E+03  0.7546771E-02  0.1131363E+00
         21   -1    0    0  502  501  0.00000000000E+00  0.00000000000E+00  0.84916917441E+03  0.84916917441E+03  0.00000000000E+00 0.  1.
         21   -1    0    0  504  502 -0.00000000000E+00 -0.00000000000E+00 -0.39536396256E+03  0.39536396256E+03  0.00000000000E+00 0. -1.
         25    1    1    2    0    0 -0.11645007302E+03 -0.18848446400E+03 -0.28852872089E+03  0.38465677617E+03  0.12500000000E+03 0.  0.
         21    1    1    2  503  501  0.78345042821E+02  0.16655234622E+03  0.78034440414E+03  0.80175745637E+03  0.00000000000E+00 0.  1.
         21    1    1    2  504  503  0.38105030203E+02  0.21932117781E+02 -0.38010471393E+02  0.58118904435E+02  0.00000000000E+00 0.  1.
<mgrwt>
<rscale>  4 0.22341385E+03</rscale>
<asrwt>0</asrwt>
<pdfrwt beam="1">  1       21 0.13064141E+00 0.22341385E+03</pdfrwt>
<pdfrwt beam="2">  1       21 0.60825225E-01 0.22341385E+03</pdfrwt>
<totfact> 0.10426637E+03</totfact>
</mgrwt>
</event>
<event>
 5    0  0.1257040E+001  0.2487493E+03  0.7546771E-02  0.1114098E+00
         21   -1    0    0  503  501  0.00000000000E+00  0.00000000000E+00  0.17530939541E+03  0.17530939541E+03  0.00000000000E+00 0. -1.
         21   -1    0    0  504  502 -0.00000000000E+00 -0.00000000000E+00 -0.74573785957E+03  0.74573785957E+03  0.00000000000E+00 0. -1.
         25    1    1    2    0    0 -0.28714306648E+03 -0.58941825757E+02 -0.11476876130E+03  0.33870658101E+03  0.12500000000E+03 0.  0.
         21    1    1    2  503  502  0.19971330878E+03  0.14941149432E+02 -0.43971235711E+03  0.48317243366E+03  0.00000000000E+00 0. -1.
         21    1    1    2  504  501  0.87429757701E+02  0.44000676325E+02 -0.15947345747E+02  0.99168240305E+02  0.00000000000E+00 0. -1.
<mgrwt>
<rscale>  4 0.24874933E+03</rscale>
<asrwt>0</asrwt>
<pdfrwt beam="1">  1       21 0.26970677E-01 0.24874933E+03</pdfrwt>
<pdfrwt beam="2">  1       21 0.11472890E+00 0.24874933E+03</pdfrwt>
<totfact> 0.74324815E+03</totfact>
</mgrwt>
</event>
