<event>
 5    0  0.1226227E+000  0.2310132E+03  0.7546771E-02  0.1125929E+00
          3   -1    0    0  501    0  0.00000000000E+00  0.00000000000E+00  0.45666833042E+03  0.45666833042E+03  0.00000000000E+00 0. -1.
         -2   -1    0    0    0  501 -0.00000000000E+00 -0.00000000000E+00 -0.99936030073E+03  0.99936030073E+03  0.00000000000E+00 0. -1.
         25    1    1    2    0    0  0.15913983317E+03  0.14138403764E+03  0.19477829869E+03  0.31444954801E+03  0.12500000000E+03 0.  0.
          3    1    1    2  502    0 -0.12215700963E+03 -0.13489686370E+03  0.16060396923E+03  0.24272027886E+03  0.00000000000E+00 0. -1.
         -2    1    1    2    0  502 -0.36982823538E+02 -0.64871739384E+01 -0.89807423823E+03  0.89885880428E+03  0.00000000000E+00 0. -1.
<mgrwt>
<rscale>  4 0.23101324E+03</rscale>
<asrwt>0</asrwt>
<pdfrwt beam="1">  1        3 0.70256666E-01 0.23101324E+03</pdfrwt>
<pdfrwt beam="2">  1       -2 0.15374774E+00 0.23101324E+03</pdfrwt>
<totfact> 0.23886774E+00</totfact>
</mgrwt>
</event>
<event>
 5    0  0.1226227E+000  0.2716507E+03  0.7546771E-02  0.1100339E+00
          2   -1    0    0  502    0  0.00000000000E+00  0.00000000000E+00  0.24224291649E+03  0.24224291649E+03  0.00000000000E+00 0.  1.
          2   -1    0    0  501    0 -0.00000000000E+00 -0.00000000000E+00 -0.11318608210E+04  0.11318608210E+04  0.00000000000E+00 0. -1.
         25    1    1    2    0    0 -0.19731066163E+03 -0.98654632030E+02 -0.43083516414E+03  0.49990816384E+03  0.12500000000E+03 0.  0.
          2    1    1    2  501    0 -0.13380404253E+02 -0.25278083902E+02 -0.59410936183E+03  0.59479740295E+03  0.00000000000E+00 0. -1.
          2    1    1    2  502    0  0.21069106589E+03  0.12393271593E+03  0.13532662145E+03  0.27939817071E+03  0.00000000000E+00 0.  1.
<mgrwt>
<rscale>  4 0.27165072E+03</rscale>
<asrwt>0</asrwt>
<pdfrwt beam="1">  1        2 0.37268141E-01 0.27165072E+03</pdfrwt>
<pdfrwt beam="2">  1        2 0.17413243E+00 0.27165072E+03</pdfrwt>
<totfact> 0.46874459E+02</totfact>
</mgrwt>
</event>
<event>
 5    0  0.1226227E+000  0.3877821E+03  0.7546771E-02  0.1048094E+00
          1   -1    0    0  501    0 -0.00000000000E+00  0.00000000000E+00  0.21067106517E+04  0.21067106517E+04  0.00000000000E+00 0. -1.
          2   -1    0    0  502    0  0.00000000000E+00 -0.00000000000E+00 -0.66041092644E+03  0.66041092644E+03  0.00000000000E+00 0. -1.
         25    1    1    2    0    0 -0.33009227170E+03 -0.20806927656E+03  0.54561671475E+03  0.68233154046E+03  0.12500000000E+03 0.  0.
          2    1    1    2  501    0  0.30756220969E+03  0.19648279628E+03 -0.53568627767E+03  0.64819733889E+03  0.00000000000E+00 0. -1.
          1    1    1    2  502    0  0.22530062017E+02  0.11586480284E+02  0.14363692882E+04  0.14365926988E+04  0.00000000000E+00 0. -1.
<mgrwt>
<rscale>  4 0.38778205E+03</rscale>
<asrwt>0</asrwt>
<pdfrwt beam="1">  1        2 0.10160168E+00 0.38778205E+03</pdfrwt>
<pdfrwt beam="2">  1        1 0.32410933E+00 0.38778205E+03</pdfrwt>
<totfact> 0.16932045E+01</totfact>
</mgrwt>
</event>
<event>
 5    0  0.1226227E+000  0.4522144E+03  0.7546771E-02  0.1027064E+00
          1   -1    0    0  501    0 -0.00000000000E+00  0.00000000000E+00  0.63382587491E+03  0.63382587491E+03  0.00000000000E+00 0.  1.
          2   -1    0    0  502    0  0.00000000000E+00 -0.00000000000E+00 -0.11454176159E+04  0.11454176159E+04  0.00000000000E+00 0. -1.
         25    1    1    2    0    0 -0.58782317625E+03 -0.24997803695E+02 -0.33964136870E+03  0.69075483064E+03  0.12500000000E+03 0.  0.
          2    1    1    2  501    0  0.19220605412E+03 -0.74976217355E+02 -0.51538505329E+03  0.55514534454E+03  0.00000000000E+00 0. -1.
          1    1    1    2  502    0  0.39561712213E+03  0.99974021051E+02  0.34343468100E+03  0.53334331562E+03  0.00000000000E+00 0.  1.
<mgrwt>
<rscale>  4 0.45221439E+03</rscale>
<asrwt>0</asrwt>
<pdfrwt beam="1">  1        2 0.17621809E+00 0.45221439E+03</pdfrwt>
<pdfrwt beam="2">  1        1 0.97511674E-01 0.45221439E+03</pdfrwt>
<totfact> 0.91848172E+01</totfact>
</mgrwt>
</event>
<event>
 5    0  0.1226227E+000  0.2358051E+03  0.7546771E-02  0.1122619E+00
          1   -1    0    0  502    0  0.00000000000E+00  0.00000000000E+00  0.13212123784E+04  0.13212123784E+04  0.00000000000E+00 0. -1.
          3   -1    0    0  501    0 -0.00000000000E+00 -0.00000000000E+00 -0.67194672180E+02  0.67194672180E+02  0.00000000000E+00 0. -1.
         25    1    1    2    0    0  0.20746794250E+03  0.33991160513E+02  0.34762066505E+03  0.42504525985E+03  0.12500000000E+03 0.  0.
          1    1    1    2  501    0 -0.16240499272E+02 -0.20846277818E+02  0.60882821297E+03  0.60940143914E+03  0.00000000000E+00 0. -1.
          3    1    1    2  502    0 -0.19122744322E+03 -0.13144882695E+02  0.29756882825E+03  0.35396035164E+03  0.00000000000E+00 0. -1.
<mgrwt>
<rscale>  4 0.23580513E+03</rscale>
<asrwt>0</asrwt>
<pdfrwt beam="1">  1        1 0.20326342E+00 0.23580513E+03</pdfrwt>
<pdfrwt beam="2">  1        3 0.10337643E-01 0.23580513E+03</pdfrwt>
<totfact> 0.36822234E+02</totfact>
</mgrwt>
</event>
<event>
 5    0  0.1226227E+000  0.3001230E+03  0.7546771E-02  0.1085179E+00
          1   -1    0    0  502    0  0.00000000000E+00  0.00000000000E+00  0.14503470058E+04  0.14503470058E+04  0.00000000000E+00 0. -1.
          1   -1    0    0  501    0 -0.00000000000E+00 -0.00000000000E+00 -0.10270518109E+04  0.10270518109E+04  0.00000000000E+00 0. -1.
         25    1    1    2    0    0  0.20734089455E+03  0.25852381777E+03  0.85832286529E+03  0.92852999520E+03  0.12500000000E+03 0.  0.
          1    1    1    2  501    0 -0.13750097174E+03 -0.18729960171E+03  0.53000235933E+03  0.57869694912E+03  0.00000000000E+00 0. -1.
          1    1    1    2  502    0 -0.69839922808E+02 -0.71224216057E+02 -0.96503002971E+03  0.97017187241E+03  0.00000000000E+00 0. -1.
<mgrwt>
<rscale>  4 0.30012300E+03</rscale>
<asrwt>0</asrwt>
<pdfrwt beam="1">  1        1 0.22313031E+00 0.30012300E+03</pdfrwt>
<pdfrwt beam="2">  1        1 0.15800797E+00 0.30012300E+03</pdfrwt>
<totfact> 0.14105953E+01</totfact>
</mgrwt>
</event>
<event>
 5    0  0.1226227E+000  0.2425668E+03  0.7546771E-02  0.1118095E+00
          3   -1    0    0  501    0 -0.00000000000E+00  0.00000000000E+00  0.12073057296E+03  0.12073057296E+03  0.00000000000E+00 0.  1.
          1   -1    0    0  502    0  0.00000000000E+00 -0.00000000000E+00 -0.11298060468E+04  0.11298060468E+04  0.00000000000E+00 0.  1.
         25    1    1    2    0    0  0.11661782160E+03 -0.19854244467E+03 -0.23010452097E+03  0.34870031434E+03  0.12500000000E+03 0.  0.
          1    1    1    2  501    0 -0.10179865550E+03  0.17588744957E+03 -0.82433122173E+03  0.84901196947E+03  0.00000000000E+00 0.  1.
          3    1    1    2  502    0 -0.14819166094E+02  0.22654995097E+02  0.45360268817E+02  0.52824335998E+02  0.00000000000E+00 0.  1.
<mgrwt>
<rscale>  4 0.24256680E+03</rscale>
<asrwt>0</asrwt>
<pdfrwt beam="1">  1        1 0.17381632E+00 0.24256680E+03</pdfrwt>
<pdfrwt beam="2">  1        3 0.18573934E-01 0.24256680E+03</pdfrwt>
<totfact> 0.18261406E+02</totfact>
</mgrwt>
</event>
<event>
 5    0  0.1226227E+000  0.2313302E+03  0.7546771E-02  0.1125707E+00
         -2   -1    0    0    0  501 -0.00000000000E+00  0.00000000000E+00  0.77713822421E+03  0.77713822421E+03  0.00000000000E+00 0. -1.
          2   -1    0    0  502    0  0.00000000000E+00 -0.00000000000E+00 -0.22402254858E+03  0.22402254858E+03  0.00000000000E+00 0. -1.
         25    1    1    2    0    0  0.21896026000E+03  0.11981259672E+03  0.32363213890E+03  0.42738906762E+03  0.12500000000E+03 0.  0.
          2    1    1    2  502    0 -0.75293376415E+02 -0.20939214854E+02 -0.14273029497E+03  0.16272516816E+03  0.00000000000E+00 0. -1.
         -2    1    1    2    0  501 -0.14366688359E+03 -0.98873381864E+02  0.37221383170E+03  0.41104653701E+03  0.00000000000E+00 0. -1.
<mgrwt>
<rscale>  4 0.23133015E+03</rscale>
<asrwt>0</asrwt>
<pdfrwt beam="1">  1        2 0.34465008E-01 0.23133015E+03</pdfrwt>
<pdfrwt beam="2">  1       -2 0.11955973E+00 0.23133015E+03</pdfrwt>
<totfact> 0.85299329E+01</totfact>
</mgrwt>
</event>
<event>
 5    0  0.1226227E+000  0.1877323E+03  0.7546771E-02  0.1160523E+00
          2   -1    0    0  501    0  0.00000000000E+00  0.00000000000E+00  0.13713531795E+04  0.13713531795E+04  0.00000000000E+00 0.  1.
         -4   -1    0    0    0  501 -0.00000000000E+00 -0.00000000000E+00 -0.15040129584E+03  0.15040129584E+03  0.00000000000E+00 0. -1.
         25    1    1    2    0    0  0.88491381575E+02 -0.19000081137E+03  0.12301962988E+03  0.27329446074E+03  0.12500000000E+03 0.  0.
          2    1    1    2  502    0 -0.94161903392E+02  0.99272365492E+02  0.11400784340E+04  0.11482596842E+04  0.00000000000E+00 0.  1.
         -4    1    1    2    0  502  0.56705218161E+01  0.90728445880E+02 -0.42146180237E+02  0.10020033043E+03  0.00000000000E+00 0. -1.
<mgrwt>
<rscale>  4 0.18773232E+03</rscale>
<asrwt>0</asrwt>
<pdfrwt beam="1">  1        2 0.21097740E+00 0.18773232E+03</pdfrwt>
<pdfrwt beam="2">  1       -4 0.23138662E-01 0.18773232E+03</pdfrwt>
<totfact> 0.14937410E+02</totfact>
</mgrwt>
</event>
<event>
 5    0  0.1226227E+000  0.5943834E+03  0.7546771E-02  0.9917128E-01
          1   -1    0    0  501    0 -0.00000000000E+00  0.00000000000E+00  0.19348458910E+03  0.19348458910E+03  0.00000000000E+00 0.  1.
          2   -1    0    0  502    0  0.00000000000E+00 -0.00000000000E+00 -0.20211886680E+04  0.20211886680E+04  0.00000000000E+00 0.  1.
         25    1    1    2    0    0 -0.22208157956E+03  0.52550659096E+03 -0.75443949474E+03  0.95408666082E+03  0.12500000000E+03 0.  0.
          2    1    1    2  501    0  0.24150554890E+03 -0.53942324825E+03 -0.84558800634E+03  0.10316595598E+04  0.00000000000E+00 0.  1.
          1    1    1    2  502    0 -0.19423969342E+02  0.13916657292E+02 -0.22767657785E+03  0.22892703649E+03  0.00000000000E+00 0.  1.
<mgrwt>
<rscale>  4 0.59438337E+03</rscale>
<asrwt>0</asrwt>
<pdfrwt beam="1">  1        2 0.31095209E+00 0.59438337E+03</pdfrwt>
<pdfrwt beam="2">  1        1 0.29766861E-01 0.59438337E+03</pdfrwt>
<totfact> 0.14115010E+02</totfact>
</mgrwt>
</event>
<event>
 5    0  0.1226227E+000  0.3481730E+03  0.7546771E-02  0.1063367E+00
          2   -1    0    0  502    0  0.00000000000E+00  0.00000000000E+00  0.54153560103E+03  0.54153560103E+03  0.00000000000E+00 0.  1.
          2   -1    0    0  501    0 -0.00000000000E+00 -0.00000000000E+00 -0.66744572885E+03  0.66744572885E+03  0.00000000000E+00 0.  1.
         25    1    1    2    0    0 -0.21874447994E+03 -0.14821999813E+03 -0.28126258691E+03  0.40565004394E+03  0.12500000000E+03 0.  0.
          2    1    1    2  501    0 -0.31513779838E+02 -0.75786098512E+02 -0.25799147778E+03  0.27073280860E+03  0.00000000000E+00 0.  1.
          2    1    1    2  502    0  0.25025825978E+03  0.22400609664E+03  0.41334393687E+03  0.53259847734E+03  0.00000000000E+00 0.  1.
<mgrwt>
<rscale>  4 0.34817301E+03</rscale>
<asrwt>0</asrwt>
<pdfrwt beam="1">  1        2 0.83313170E-01 0.34817301E+03</pdfrwt>
<pdfrwt beam="2">  1        2 0.10268396E+00 0.34817301E+03</pdfrwt>
<totfact> 0.38826132E+02</totfact>
</mgrwt>
</event>
<event>
 5    0  0.1226227E+000  0.2519945E+03  0.7546771E-02  0.1112051E+00
         -4   -1    0    0    0  501 -0.00000000000E+00  0.00000000000E+00  0.22210431929E+03  0.22210431929E+03  0.00000000000E+00 0.  1.
          2   -1    0    0  501    0  0.00000000000E+00 -0.00000000000E+00 -0.10001283847E+04  0.10001283847E+04  0.00000000000E+00 0. -1.
         25    1    1    2    0    0 -0.24144225910E+03  0.58285118105E+02 -0.13260059177E+03  0.30805752126E+03  0.12500000000E+03 0.  0.
          2    1    1    2  502    0  0.21418818259E+03 -0.10131601999E+02 -0.75853233422E+03  0.78825790765E+03  0.00000000000E+00 0. -1.
         -4    1    1    2    0  502  0.27254076501E+02 -0.48153516106E+02  0.11310886062E+03  0.12591727503E+03  0.00000000000E+00 0.  1.
<mgrwt>
<rscale>  4 0.25199454E+03</rscale>
<asrwt>0</asrwt>
<pdfrwt beam="1">  1        2 0.15386590E+00 0.25199454E+03</pdfrwt>
<pdfrwt beam="2">  1       -4 0.34169896E-01 0.25199454E+03</pdfrwt>
<totfact> 0.11681922E+02</totfact>
</mgrwt>
</event>
<event>
 5    0  0.1931707E+000  0.3141637E+03  0.7546771E-02  0.1078367E+00
          2   -1    0    0  502    0  0.00000000000E+00  0.00000000000E+00  0.10641342103E+04  0.10641342103E+04  0.00000000000E+00 0.  1.
          2   -1    0    0  501    0 -0.00000000000E+00 -0.00000000000E+00 -0.10114114330E+04  0.10114114330E+04  0.00000000000E+00 0. -1.
         25    1    1    2    0    0  0.10999575916E+02  0.20207618637E+03 -0.25114513932E+03  0.34591134236E+03  0.12500000000E+03 0.  0.
          2    1    1    2  501    0  0.51747026709E+02  0.85722946278E+02 -0.68784792314E+03  0.69509779432E+03  0.00000000000E+00 0. -1.
          2    1    1    2  502    0 -0.62746602625E+02 -0.28779913265E+03  0.99171583975E+03  0.10345365067E+04  0.00000000000E+00 0.  1.
<mgrwt>
<rscale>  4 0.31416370E+03</rscale>
<asrwt>0</asrwt>
<pdfrwt beam="1">  1        2 0.16371296E+00 0.31416370E+03</pdfrwt>
<pdfrwt beam="2">  1        2 0.15560176E+00 0.31416370E+03</pdfrwt>
<totfact> 0.95655548E+01</totfact>
</mgrwt>
</event>
<event>
 5    0  0.1226227E+000  0.1778459E+03  0.7546771E-02  0.1169904E+00
          2   -1    0    0  502    0  0.00000000000E+00  0.00000000000E+00  0.16577479787E+04  0.16577479787E+04  0.00000000000E+00 0.  1.
          2   -1    0    0  501    0 -0.00000000000E+00 -0.00000000000E+00 -0.71302746411E+03  0.71302746411E+03  0.00000000000E+00 0. -1.
         25    1    1    2    0    0  0.20612166300E+03 -0.37795114093E+02  0.75284658847E+02  0.25535737794E+03  0.12500000000E+03 0.  0.
          2    1    1    2  501    0 -0.82753203695E+02  0.32221022985E+02  0.14849673895E+04  0.14876203934E+04  0.00000000000E+00 0.  1.
          2    1    1    2  502    0 -0.12336845931E+03  0.55740911079E+01 -0.61553153375E+03  0.62779767146E+03  0.00000000000E+00 0. -1.
<mgrwt>
<rscale>  4 0.17784591E+03</rscale>
<asrwt>0</asrwt>
<pdfrwt beam="1">  1        2 0.25503815E+00 0.17784591E+03</pdfrwt>
<pdfrwt beam="2">  1        2 0.10969653E+00 0.17784591E+03</pdfrwt>
<totfact> 0.75737090E+01</totfact>
</mgrwt>
</event>
<event>
 5    0  0.1226227E+000  0.2622493E+03  0.7546771E-02  0.1105799E+00
          2   -1    0    0  502    0  0.00000000000E+00  0.00000000000E+00  0.11971585344E+03  0.11971585344E+03  0.00000000000E+00 0. -1.
          1   -1    0    0  501    0 -0.00000000000E+00 -0.00000000000E+00 -0.70607071466E+03  0.70607071466E+03  0.00000000000E+00 0.  1.
         25    1    1    2    0    0  0.90026915120E+02 -0.18985457247E+03 -0.32277103412E+03  0.40491449048E+03  0.12500000000E+03 0.  0.
          2    1    1    2  501    0  0.55893475972E+02 -0.25642589248E+02 -0.20691551666E+02  0.64882689139E+02  0.00000000000E+00 0. -1.
          1    1    1    2  502    0 -0.14592039109E+03  0.21549716172E+03 -0.24289227543E+03  0.35598938848E+03  0.00000000000E+00 0.  1.
<mgrwt>
<rscale>  4 0.26224927E+03</rscale>
<asrwt>0</asrwt>
<pdfrwt beam="1">  1        2 0.18417824E-01 0.26224927E+03</pdfrwt>
<pdfrwt beam="2">  1        1 0.10862626E+00 0.26224927E+03</pdfrwt>
<totfact> 0.11541874E+03</totfact>
</mgrwt>
</event>
<event>
 5    0  0.1226227E+000  0.2220774E+03  0.7546771E-02  0.1132344E+00
          3   -1    0    0  501    0 -0.00000000000E+00  0.00000000000E+00  0.66551054964E+03  0.66551054964E+03  0.00000000000E+00 0.  1.
          2   -1    0    0  502    0  0.00000000000E+00 -0.00000000000E+00 -0.11309471016E+04  0.11309471016E+04  0.00000000000E+00 0.  1.
         25    1    1    2    0    0  0.74618801896E+02  0.21826360934E+03  0.22602128571E+03  0.34629119300E+03  0.12500000000E+03 0.  0.
          2    1    1    2  501    0  0.14801221536E+02 -0.73805298529E+02 -0.10503755702E+04  0.10530693884E+04  0.00000000000E+00 0.  1.
          3    1    1    2  502    0 -0.89420023432E+02 -0.14445831081E+03  0.35891773254E+03  0.39709706985E+03  0.00000000000E+00 0.  1.
<mgrwt>
<rscale>  4 0.22207736E+03</rscale>
<asrwt>0</asrwt>
<pdfrwt beam="1">  1        2 0.17399186E+00 0.22207736E+03</pdfrwt>
<pdfrwt beam="2">  1        3 0.10238624E+00 0.22207736E+03</pdfrwt>
<totfact> 0.11777958E+01</totfact>
</mgrwt>
</event>
<event>
 5    0  0.1226227E+000  0.2191523E+03  0.7546771E-02  0.1134517E+00
          1   -1    0    0  502    0  0.00000000000E+00  0.00000000000E+00  0.25121419540E+03  0.25121419540E+03  0.00000000000E+00 0.  1.
          1   -1    0    0  501    0 -0.00000000000E+00 -0.00000000000E+00 -0.67539360146E+03  0.67539360146E+03  0.00000000000E+00 0. -1.
         25    1    1    2    0    0  0.22898963251E+03  0.93364801069E+02 -0.22545348033E+03  0.35722193336E+03  0.12500000000E+03 0.  0.
          1    1    1    2  501    0 -0.83367020048E+02 -0.22104197077E+02  0.15662334638E+03  0.17880024662E+03  0.00000000000E+00 0.  1.
          1    1    1    2  502    0 -0.14562261246E+03 -0.71260603992E+02 -0.35534927210E+03  0.39058561689E+03  0.00000000000E+00 0. -1.
<mgrwt>
<rscale>  4 0.21915232E+03</rscale>
<asrwt>0</asrwt>
<pdfrwt beam="1">  1        1 0.38648339E-01 0.21915232E+03</pdfrwt>
<pdfrwt beam="2">  1        1 0.10390671E+00 0.21915232E+03</pdfrwt>
<totfact> 0.39351105E+02</totfact>
</mgrwt>
</event>
<event>
 5    0  0.1226227E+000  0.3719604E+03  0.7546771E-02  0.1053946E+00
          1   -1    0    0  502    0  0.00000000000E+00  0.00000000000E+00  0.62584299470E+03  0.62584299470E+03  0.00000000000E+00 0.  1.
          1   -1    0    0  501    0 -0.00000000000E+00 -0.00000000000E+00 -0.38364111945E+03  0.38364111945E+03  0.00000000000E+00 0. -1.
         25    1    1    2    0    0  0.32446640866E+03 -0.82010874284E+02 -0.51287151328E+01  0.35728915121E+03  0.12500000000E+03 0.  0.
          1    1    1    2  501    0  0.35735548284E+02  0.19437648848E+02  0.28203614825E+03  0.28495480435E+03  0.00000000000E+00 0.  1.
          1    1    1    2  502    0 -0.36020195695E+03  0.62573225437E+02 -0.34705557863E+02  0.36724015858E+03  0.00000000000E+00 0. -1.
<mgrwt>
<rscale>  4 0.37196042E+03</rscale>
<asrwt>0</asrwt>
<pdfrwt beam="1">  1        1 0.96283538E-01 0.37196042E+03</pdfrwt>
<pdfrwt beam="2">  1        1 0.59021711E-01 0.37196042E+03</pdfrwt>
<totfact> 0.25072606E+02</totfact>
</mgrwt>
</event>
<event>
 5    0  0.1226227E+000  0.4232815E+03  0.7546771E-02  0.1036004E+00
         -1   -1    0    0    0  501 -0.00000000000E+00  0.00000000000E+00  0.47108755325E+03  0.47108755325E+03  0.00000000000E+00 0. -1.
          2   -1    0    0  501    0  0.00000000000E+00 -0.00000000000E+00 -0.20574087098E+04  0.20574087098E+04  0.00000000000E+00 0. -1.
         25    1    1    2    0    0 -0.18468011115E+03 -0.33014934384E+03  0.32178229314E+03  0.51212711007E+03  0.12500000000E+03 0.  0.
          2    1    1    2  502    0  0.21183312254E+03  0.34604699807E+03 -0.19336999809E+04  0.19758080405E+04  0.00000000000E+00 0. -1.
         -1    1    1    2    0  502 -0.27153011394E+02 -0.15897654226E+02  0.25596531216E+02  0.40561112509E+02  0.00000000000E+00 0. -1.
<mgrwt>
<rscale>  4 0.42328153E+03</rscale>
<asrwt>0</asrwt>
<pdfrwt beam="1">  1        2 0.31652442E+00 0.42328153E+03</pdfrwt>
<pdfrwt beam="2">  1       -1 0.72475007E-01 0.42328153E+03</pdfrwt>
<totfact> 0.15168701E+01</totfact>
</mgrwt>
</event>
<event>
 5    0  0.1226227E+000  0.2382138E+03  0.7546771E-02  0.1120988E+00
          1   -1    0    0  502    0  0.00000000000E+00  0.00000000000E+00  0.76697105724E+03  0.76697105724E+03  0.00000000000E+00 0.  1.
          1   -1    0    0  501    0 -0.00000000000E+00 -0.00000000000E+00 -0.10979966242E+03  0.10979966242E+03  0.00000000000E+00 0.  1.
         25    1    1    2    0    0  0.12072129903E+03  0.21471470823E+03  0.26442806229E+03  0.38239147231E+03  0.12500000000E+03 0.  0.
          1    1    1    2  501    0 -0.11162569889E+03 -0.15049003399E+03  0.38611446363E+03  0.42917586839E+03  0.00000000000E+00 0.  1.
          1    1    1    2  502    0 -0.90956001434E+01 -0.64224674245E+02  0.66288689009E+01  0.65203378952E+02  0.00000000000E+00 0.  1.
<mgrwt>
<rscale>  4 0.23821379E+03</rscale>
<asrwt>0</asrwt>
<pdfrwt beam="1">  1        1 0.11799554E+00 0.23821379E+03</pdfrwt>
<pdfrwt beam="2">  1        1 0.16892256E-01 0.23821379E+03</pdfrwt>
<totfact> 0.93515903E+02</totfact>
</mgrwt>
</event>
<event>
 5    0  0.1226227E+000  0.2780318E+03  0.7546771E-02  0.1096769E+00
          2   -1    0    0  502    0  0.00000000000E+00  0.00000000000E+00  0.21050417812E+03  0.21050417812E+03  0.00000000000E+00 0.  1.
          2   -1    0    0  501    0 -0.00000000000E+00 -0.00000000000E+00 -0.39387192805E+04  0.39387192805E+04  0.00000000000E+00 0. -1.
         25    1    1    2    0    0  0.26390213982E+03 -0.54199905359E+02 -0.15979916759E+03  0.33725768057E+03  0.12500000000E+03 0.  0.
          2    1    1    2  501    0 -0.24442785049E+03  0.38085445295E+02 -0.36846855718E+04  0.36929802651E+04  0.00000000000E+00 0. -1.
          2    1    1    2  502    0 -0.19474289327E+02  0.16114460064E+02  0.11626963709E+03  0.11898551288E+03  0.00000000000E+00 0.  1.
<mgrwt>
<rscale>  4 0.27803179E+03</rscale>
<asrwt>0</asrwt>
<pdfrwt beam="1">  1        2 0.32385261E-01 0.27803179E+03</pdfrwt>
<pdfrwt beam="2">  1        2 0.60595676E+00 0.27803179E+03</pdfrwt>
<totfact> 0.12409572E+01</totfact>
</mgrwt>
</event>
<event>
 5    0  0.1226227E+000  0.2298135E+03  0.7546771E-02  0.1126771E+00
         -1   -1    0    0    0  501 -0.00000000000E+00  0.00000000000E+00  0.48645148219E+03  0.48645148219E+03  0.00000000000E+00 0.  1.
          3   -1    0    0  501    0  0.00000000000E+00 -0.00000000000E+00 -0.22321079883E+03  0.22321079883E+03  0.00000000000E+00 0.  1.
         25    1    1    2    0    0 -0.18223820414E+03 -0.11898789369E+03  0.31022065738E+03  0.39903726412E+03  0.12500000000E+03 0.  0.
          3    1    1    2  502    0  0.17206083723E+03  0.79446666760E+02 -0.12187570387E+03  0.22532286116E+03  0.00000000000E+00 0.  1.
         -1    1    1    2    0  502  0.10177366910E+02  0.39541226932E+02  0.74895729848E+02  0.85302155741E+02  0.00000000000E+00 0.  1.
<mgrwt>
<rscale>  4 0.22981348E+03</rscale>
<asrwt>0</asrwt>
<pdfrwt beam="1">  1        3 0.34340123E-01 0.22981348E+03</pdfrwt>
<pdfrwt beam="2">  1       -1 0.74838690E-01 0.22981348E+03</pdfrwt>
<totfact> 0.71995994E+01</totfact>
</mgrwt>
</event>
<event>
 5    0  0.1226227E+000  0.2936904E+03  0.7546771E-02  0.1088438E+00
          2   -1    0    0  501    0  0.00000000000E+00  0.00000000000E+00  0.34337510916E+03  0.34337510916E+03  0.00000000000E+00 0. -1.
         -4   -1    0    0    0  501 -0.00000000000E+00 -0.00000000000E+00 -0.20364032799E+04  0.20364032799E+04  0.00000000000E+00 0.  1.
         25    1    1    2    0    0 -0.18398582077E+03 -0.16557856275E+03 -0.16407167840E+03  0.32219801107E+03  0.12500000000E+03 0.  0.
          2    1    1    2  502    0  0.19399065517E+03  0.18926110444E+03  0.19471601802E+03  0.33371614828E+03  0.00000000000E+00 0. -1.
         -4    1    1    2    0  502 -0.10004834400E+02 -0.23682541688E+02 -0.17236725103E+04  0.17238642297E+04  0.00000000000E+00 0.  1.
<mgrwt>
<rscale>  4 0.29369043E+03</rscale>
<asrwt>0</asrwt>
<pdfrwt beam="1">  1        2 0.52826940E-01 0.29369043E+03</pdfrwt>
<pdfrwt beam="2">  1       -4 0.31329281E+00 0.29369043E+03</pdfrwt>
<totfact> 0.14703989E+00</totfact>
</mgrwt>
</event>
<event>
 5    0  0.1226227E+000  0.4018381E+03  0.7546771E-02  0.1043145E+00
          2   -1    0    0  502    0  0.00000000000E+00  0.00000000000E+00  0.25523119346E+03  0.25523119346E+03  0.00000000000E+00 0.  1.
          2   -1    0    0  501    0 -0.00000000000E+00 -0.00000000000E+00 -0.16090101111E+04  0.16090101111E+04  0.00000000000E+00 0.  1.
         25    1    1    2    0    0 -0.70625767785E+01  0.36673960309E+03 -0.44951214817E+02  0.39011976133E+03  0.12500000000E+03 0.  0.
          2    1    1    2  501    0  0.19475653878E+02 -0.41883207114E+03 -0.45542686754E+03  0.61904219289E+03  0.00000000000E+00 0.  1.
          2    1    1    2  502    0 -0.12413077099E+02  0.52092468054E+02 -0.85340083524E+03  0.85507935030E+03  0.00000000000E+00 0.  1.
<mgrwt>
<rscale>  4 0.40183811E+03</rscale>
<asrwt>0</asrwt>
<pdfrwt beam="1">  1        2 0.39266338E-01 0.40183811E+03</pdfrwt>
<pdfrwt beam="2">  1        2 0.24754002E+00 0.40183811E+03</pdfrwt>
<totfact> 0.23512803E+02</totfact>
</mgrwt>
</event>
<event>
 5    0  0.1226227E+000  0.3532758E+03  0.7546771E-02  0.1061279E+00
          1   -1    0    0  502    0  0.00000000000E+00  0.00000000000E+00  0.11812287230E+04  0.11812287230E+04  0.00000000000E+00 0. -1.
         -1   -1    0    0    0  501 -0.00000000000E+00 -0.00000000000E+00 -0.70586411817E+03  0.70586411817E+03  0.00000000000E+00 0. -1.
         25    1    1    2    0    0 -0.24311442697E+03  0.18132220504E+03 -0.44906752284E+03  0.55611959749E+03  0.12500000000E+03 0.  0.
          1    1    1    2  502    0  0.23970327757E+03 -0.22949330617E+03  0.10999573432E+04  0.11489260184E+04  0.00000000000E+00 0. -1.
         -1    1    1    2    0  501  0.34111493998E+01  0.48171101131E+02 -0.17552521557E+03  0.18204722526E+03  0.00000000000E+00 0. -1.
<mgrwt>
<rscale>  4 0.35327577E+03</rscale>
<asrwt>0</asrwt>
<pdfrwt beam="1">  1        1 0.18172750E+00 0.35327577E+03</pdfrwt>
<pdfrwt beam="2">  1       -1 0.10859448E+00 0.35327577E+03</pdfrwt>
<totfact> 0.97645862E+00</totfact>
</mgrwt>
</event>
<event>
 5    0  0.1226227E+000  0.1764040E+03  0.7546771E-02  0.1171329E+00
          2   -1    0    0  502    0  0.00000000000E+00  0.00000000000E+00  0.10516982134E+04  0.10516982134E+04  0.00000000000E+00 0. -1.
          2   -1    0    0  501    0 -0.00000000000E+00 -0.00000000000E+00 -0.87505327652E+03  0.87505327652E+03  0.00000000000E+00 0.  1.
         25    1    1    2    0    0  0.21014481936E+03 -0.97619618006E+01  0.46871475432E+03  0.52874820276E+03  0.12500000000E+03 0.  0.
          2    1    1    2  501    0 -0.86463399911E+02  0.82513367631E+01  0.54498303339E+03  0.55186095238E+03  0.00000000000E+00 0. -1.
          2    1    1    2  502    0 -0.12368141945E+03  0.15106250375E+01 -0.83705285086E+03  0.84614233474E+03  0.00000000000E+00 0.  1.
<mgrwt>
<rscale>  4 0.17640395E+03</rscale>
<asrwt>0</asrwt>
<pdfrwt beam="1">  1        2 0.16179972E+00 0.17640395E+03</pdfrwt>
<pdfrwt beam="2">  1        2 0.13462358E+00 0.17640395E+03</pdfrwt>
<totfact> 0.12535953E+02</totfact>
</mgrwt>
</event>
<event>
 5    0  0.1226227E+000  0.2872676E+03  0.7546771E-02  0.1091784E+00
          2   -1    0    0  502    0  0.00000000000E+00  0.00000000000E+00  0.74475331941E+03  0.74475331941E+03  0.00000000000E+00 0. -1.
          2   -1    0    0  501    0 -0.00000000000E+00 -0.00000000000E+00 -0.24511140998E+04  0.24511140998E+04  0.00000000000E+00 0. -1.
         25    1    1    2    0    0  0.24220840300E+03 -0.36214928438E+02 -0.12455529390E+04  0.12755404954E+04  0.12500000000E+03 0.  0.
          2    1    1    2  501    0  0.16367455993E+02  0.22927678370E+02 -0.11674263254E+04  0.11677661569E+04  0.00000000000E+00 0. -1.
          2    1    1    2  502    0 -0.25857585899E+03  0.13287250068E+02  0.70661848402E+03  0.75256076687E+03  0.00000000000E+00 0. -1.
<mgrwt>
<rscale>  4 0.28726764E+03</rscale>
<asrwt>0</asrwt>
<pdfrwt beam="1">  1        2 0.11457744E+00 0.28726764E+03</pdfrwt>
<pdfrwt beam="2">  1        2 0.37709447E+00 0.28726764E+03</pdfrwt>
<totfact> 0.25718451E+01</totfact>
</mgrwt>
</event>
<event>
 5    0  0.1226227E+000  0.4703594E+03  0.7546771E-02  0.1021819E+00
          1   -1    0    0  502    0  0.00000000000E+00  0.00000000000E+00  0.49818745071E+03  0.49818745071E+03  0.00000000000E+00 0. -1.
         -1   -1    0    0    0  501 -0.00000000000E+00 -0.00000000000E+00 -0.92724307030E+03  0.92724307030E+03  0.00000000000E+00 0.  1.
         25    1    1    2    0    0  0.21197510012E+03 -0.33221295264E+03 -0.24140845891E+03  0.47875038695E+03  0.12500000000E+03 0.  0.
          1    1    1    2  502    0 -0.30780816359E+03  0.36819893579E+03  0.21887457147E+03  0.52746791364E+03  0.00000000000E+00 0. -1.
         -1    1    1    2    0  501  0.95833063471E+02 -0.35985983148E+02 -0.40652173215E+03  0.41921222041E+03  0.00000000000E+00 0.  1.
<mgrwt>
<rscale>  4 0.47035943E+03</rscale>
<asrwt>0</asrwt>
<pdfrwt beam="1">  1        1 0.76644224E-01 0.47035943E+03</pdfrwt>
<pdfrwt beam="2">  1       -1 0.14265278E+00 0.47035943E+03</pdfrwt>
<totfact> 0.18959608E+01</totfact>
</mgrwt>
</event>
<event>
 5    0  0.1226227E+000  0.2473459E+03  0.7546771E-02  0.1114994E+00
         -1   -1    0    0    0  501  0.00000000000E+00  0.00000000000E+00  0.72669600749E+03  0.72669600749E+03  0.00000000000E+00 0. -1.
         -1   -1    0    0    0  502 -0.00000000000E+00 -0.00000000000E+00 -0.28902099834E+03  0.28902099834E+03  0.00000000000E+00 0.  1.
         25    1    1    2    0    0 -0.95172745189E+02 -0.23227949162E+03  0.41581192961E+03  0.50153382185E+03  0.12500000000E+03 0.  0.
         -1    1    1    2    0  502  0.95923254165E+01  0.68051984093E+02 -0.20796691043E+03  0.21902812851E+03  0.00000000000E+00 0.  1.
         -1    1    1    2    0  501  0.85580419773E+02  0.16422750753E+03  0.22982998997E+03  0.29515505547E+03  0.00000000000E+00 0. -1.
<mgrwt>
<rscale>  4 0.24734590E+03</rscale>
<asrwt>0</asrwt>
<pdfrwt beam="1">  1       -1 0.11179939E+00 0.24734590E+03</pdfrwt>
<pdfrwt beam="2">  1       -1 0.44464769E-01 0.24734590E+03</pdfrwt>
<totfact> 0.34129494E+01</totfact>
</mgrwt>
</event>
<event>
 5    0  0.1226227E+000  0.1952424E+03  0.7546771E-02  0.1153816E+00
          1   -1    0    0  501    0 -0.00000000000E+00  0.00000000000E+00  0.25862237023E+03  0.25862237023E+03  0.00000000000E+00 0.  1.
          2   -1    0    0  502    0  0.00000000000E+00 -0.00000000000E+00 -0.12356854970E+04  0.12356854970E+04  0.00000000000E+00 0. -1.
         25    1    1    2    0    0 -0.20787944083E+03  0.37123984092E+02 -0.38795419589E+03  0.45904848352E+03  0.12500000000E+03 0.  0.
          2    1    1    2  501    0  0.66399593440E+02  0.99632020271E+00 -0.78657210388E+03  0.78937036508E+03  0.00000000000E+00 0. -1.
          1    1    1    2  502    0  0.14147984739E+03 -0.38120304294E+02  0.19746317297E+03  0.24588901866E+03  0.00000000000E+00 0.  1.
<mgrwt>
<rscale>  4 0.19524240E+03</rscale>
<asrwt>0</asrwt>
<pdfrwt beam="1">  1        2 0.19010546E+00 0.19524240E+03</pdfrwt>
<pdfrwt beam="2">  1        1 0.39788057E-01 0.19524240E+03</pdfrwt>
<totfact> 0.28100862E+02</totfact>
</mgrwt>
</event>
<event>
 5    0  0.1226227E+000  0.3816069E+03  0.7546771E-02  0.1050341E+00
          2   -1    0    0  502    0  0.00000000000E+00  0.00000000000E+00  0.64984574579E+03  0.64984574579E+03  0.00000000000E+00 0. -1.
          2   -1    0    0  501    0 -0.00000000000E+00 -0.00000000000E+00 -0.20659619800E+04  0.20659619800E+04  0.00000000000E+00 0.  1.
         25    1    1    2    0    0 -0.20750584209E+03  0.20271531537E+02 -0.29979097163E+03  0.38596533026E+03  0.12500000000E+03 0.  0.
          2    1    1    2  501    0  0.38794557165E+03  0.27618660369E+02  0.53864182520E+03  0.66437908819E+03  0.00000000000E+00 0. -1.
          2    1    1    2  502    0 -0.18043972956E+03 -0.47890191906E+02 -0.16549670878E+04  0.16654633073E+04  0.00000000000E+00 0.  1.
<mgrwt>
<rscale>  4 0.38160685E+03</rscale>
<asrwt>0</asrwt>
<pdfrwt beam="1">  1        2 0.99976271E-01 0.38160685E+03</pdfrwt>
<pdfrwt beam="2">  1        2 0.31784030E+00 0.38160685E+03</pdfrwt>
<totfact> 0.47163995E+01</totfact>
</mgrwt>
</event>
<event>
 5    0  0.1226227E+000  0.3135261E+03  0.7546771E-02  0.1078668E+00
          2   -1    0    0  502    0  0.00000000000E+00  0.00000000000E+00  0.70591732092E+03  0.70591732092E+03  0.00000000000E+00 0.  1.
          1   -1    0    0  501    0 -0.00000000000E+00 -0.00000000000E+00 -0.70743142228E+03  0.70743142228E+03  0.00000000000E+00 0.  1.
         25    1    1    2    0    0 -0.14603678023E+03 -0.37796149464E+03  0.25881892094E+02  0.42482526402E+03  0.12500000000E+03 0.  0.
          2    1    1    2  501    0  0.49440734075E+02  0.12733244900E+03  0.43380845954E+03  0.45480514324E+03  0.00000000000E+00 0.  1.
          1    1    1    2  502    0  0.96596046160E+02  0.25062904565E+03 -0.46120445299E+03  0.53371833593E+03  0.00000000000E+00 0.  1.
<mgrwt>
<rscale>  4 0.31352613E+03</rscale>
<asrwt>0</asrwt>
<pdfrwt beam="1">  1        2 0.10860267E+00 0.31352613E+03</pdfrwt>
<pdfrwt beam="2">  1        1 0.10883560E+00 0.31352613E+03</pdfrwt>
<totfact> 0.15645420E+02</totfact>
</mgrwt>
</event>
<event>
 5    0  0.1226227E+000  0.2120766E+03  0.7546771E-02  0.1139932E+00
          1   -1    0    0  502    0  0.00000000000E+00  0.00000000000E+00  0.10294828793E+04  0.10294828793E+04  0.00000000000E+00 0.  1.
         -1   -1    0    0    0  501 -0.00000000000E+00 -0.00000000000E+00 -0.85921776062E+02  0.85921776062E+02  0.00000000000E+00 0.  1.
         25    1    1    2    0    0  0.15464086046E+03 -0.12753085118E+03  0.16456350149E+03  0.28789591826E+03  0.12500000000E+03 0.  0.
          1    1    1    2  502    0 -0.11992510425E+02  0.94385847005E+02  0.53133806975E+03  0.53978945228E+03  0.00000000000E+00 0.  1.
         -1    1    1    2    0  501 -0.14264835004E+03  0.33145004170E+02  0.24765953195E+03  0.28771928478E+03  0.00000000000E+00 0.  1.
<mgrwt>
<rscale>  4 0.21207659E+03</rscale>
<asrwt>0</asrwt>
<pdfrwt beam="1">  1        1 0.15838197E+00 0.21207659E+03</pdfrwt>
<pdfrwt beam="2">  1       -1 0.13218736E-01 0.21207659E+03</pdfrwt>
<totfact> 0.60273590E+02</totfact>
</mgrwt>
</event>
<event>
 5    0  0.1226227E+000  0.5035054E+03  0.7546771E-02  0.1012868E+00
          2   -1    0    0  502    0  0.00000000000E+00  0.00000000000E+00  0.23787116628E+04  0.23787116628E+04  0.00000000000E+00 0. -1.
          2   -1    0    0  501    0 -0.00000000000E+00 -0.00000000000E+00 -0.77979033800E+03  0.77979033800E+03  0.00000000000E+00 0.  1.
         25    1    1    2    0    0 -0.22245830857E+03  0.41166905769E+03  0.83488986371E+03  0.96520733350E+03  0.12500000000E+03 0.  0.
          2    1    1    2  501    0 -0.49944201588E+01  0.34372512504E+02 -0.67178587713E+03  0.67268319331E+03  0.00000000000E+00 0.  1.
          2    1    1    2  502    0  0.22745272873E+03 -0.44604157020E+03  0.14358173382E+04  0.15206114740E+04  0.00000000000E+00 0. -1.
<mgrwt>
<rscale>  4 0.50350541E+03</rscale>
<asrwt>0</asrwt>
<pdfrwt beam="1">  1        2 0.36595564E+00 0.50350541E+03</pdfrwt>
<pdfrwt beam="2">  1        2 0.11996775E+00 0.50350541E+03</pdfrwt>
<totfact> 0.24483532E+01</totfact>
</mgrwt>
</event>
<event>
 5    0  0.1226227E+000  0.2951537E+03  0.7546771E-02  0.1087689E+00
         -1   -1    0    0    0  501 -0.00000000000E+00  0.00000000000E+00  0.12432556909E+04  0.12432556909E+04  0.00000000000E+00 0.  1.
          2   -1    0    0  501    0  0.00000000000E+00 -0.00000000000E+00 -0.16851532918E+03  0.16851532918E+03  0.00000000000E+00 0. -1.
         25    1    1    2    0    0  0.28542542616E+03 -0.46547736814E+02  0.33208712557E+03  0.45775673089E+03  0.12500000000E+03 0.  0.
          2    1    1    2  502    0 -0.25008583860E+03  0.67259410841E+02  0.54502558629E+02  0.26464558170E+03  0.00000000000E+00 0. -1.
         -1    1    1    2    0  502 -0.35339587560E+02 -0.20711674027E+02  0.68815067754E+03  0.68936870751E+03  0.00000000000E+00 0.  1.
<mgrwt>
<rscale>  4 0.29515372E+03</rscale>
<asrwt>0</asrwt>
<pdfrwt beam="1">  1        2 0.25925436E-01 0.29515372E+03</pdfrwt>
<pdfrwt beam="2">  1       -1 0.19127010E+00 0.29515372E+03</pdfrwt>
<totfact> 0.45033380E+01</totfact>
</mgrwt>
</event>
<event>
 5    0  0.1226227E+000  0.2666082E+03  0.7546771E-02  0.1103237E+00
          2   -1    0    0  502    0  0.00000000000E+00  0.00000000000E+00  0.21751498183E+03  0.21751498183E+03  0.00000000000E+00 0. -1.
         -2   -1    0    0    0  501 -0.00000000000E+00 -0.00000000000E+00 -0.56929551310E+03  0.56929551310E+03  0.00000000000E+00 0. -1.
         25    1    1    2    0    0  0.93088822595E+02 -0.24204447045E+03  0.47505456380E+02  0.29177529531E+03  0.12500000000E+03 0.  0.
          2    1    1    2  502    0 -0.10964644681E+02  0.25944212551E+02  0.56765241529E+01  0.28732360229E+02  0.00000000000E+00 0. -1.
         -2    1    1    2    0  501 -0.82124177913E+02  0.21610025790E+03 -0.40496251180E+03  0.46630283939E+03  0.00000000000E+00 0. -1.
<mgrwt>
<rscale>  4 0.26660817E+03</rscale>
<asrwt>0</asrwt>
<pdfrwt beam="1">  1        2 0.33463843E-01 0.26660817E+03</pdfrwt>
<pdfrwt beam="2">  1       -2 0.87583925E-01 0.26660817E+03</pdfrwt>
<totfact> 0.18189462E+02</totfact>
</mgrwt>
</event>
<event>
 5    0  0.1226227E+000  0.1934471E+03  0.7546771E-02  0.1155388E+00
          2   -1    0    0  502    0  0.00000000000E+00  0.00000000000E+00  0.30578079589E+03  0.30578079589E+03  0.00000000000E+00 0.  1.
          2   -1    0    0  501    0 -0.00000000000E+00 -0.00000000000E+00 -0.24434299175E+04  0.24434299175E+04  0.00000000000E+00 0. -1.
         25    1    1    2    0    0  0.44878583378E+02 -0.23001411600E+03 -0.53300202087E+03  0.59551384120E+03  0.12500000000E+03 0.  0.
          2    1    1    2  501    0 -0.70109347199E+02  0.90867310625E+02  0.25973348608E+03  0.28396068830E+03  0.00000000000E+00 0.  1.
          2    1    1    2  502    0  0.25230763821E+02  0.13914680537E+03 -0.18643805868E+04  0.18697361839E+04  0.00000000000E+00 0. -1.
<mgrwt>
<rscale>  4 0.19344715E+03</rscale>
<asrwt>0</asrwt>
<pdfrwt beam="1">  1        2 0.47043202E-01 0.19344715E+03</pdfrwt>
<pdfrwt beam="2">  1        2 0.37591227E+00 0.19344715E+03</pdfrwt>
<totfact> 0.74718239E+01</totfact>
</mgrwt>
</event>
<event>
 5    0  0.1226227E+000  0.1825191E+03  0.7546771E-02  0.1165387E+00
          1   -1    0    0  502    0  0.00000000000E+00  0.00000000000E+00  0.43856924892E+03  0.43856924892E+03  0.00000000000E+00 0. -1.
          1   -1    0    0  501    0 -0.00000000000E+00 -0.00000000000E+00 -0.43846221440E+03  0.43846221440E+03  0.00000000000E+00 0.  1.
         25    1    1    2    0    0  0.19939098627E+03  0.48278950140E+02  0.15654657331E+02  0.24074403571E+03  0.12500000000E+03 0.  0.
          1    1    1    2  501    0 -0.10114882653E+03  0.31364461585E+02 -0.30368318613E+03  0.32161823968E+03  0.00000000000E+00 0.  1.
          1    1    1    2  502    0 -0.98242159736E+02 -0.79643411726E+02  0.28813556332E+03  0.31466918792E+03  0.00000000000E+00 0. -1.
<mgrwt>
<rscale>  4 0.18251906E+03</rscale>
<asrwt>0</asrwt>
<pdfrwt beam="1">  1        1 0.67472192E-01 0.18251906E+03</pdfrwt>
<pdfrwt beam="2">  1        1 0.67455725E-01 0.18251906E+03</pdfrwt>
<totfact> 0.35142507E+02</totfact>
</mgrwt>
</event>
<event>
 5    0  0.1226227E+000  0.3454343E+03  0.7546771E-02  0.1064505E+00
         -3   -1    0    0    0  502 -0.00000000000E+00  0.00000000000E+00  0.83196160605E+03  0.83196160605E+03  0.00000000000E+00 0.  1.
         -1   -1    0    0    0  501  0.00000000000E+00 -0.00000000000E+00 -0.24822523080E+03  0.24822523080E+03  0.00000000000E+00 0.  1.
         25    1    1    2    0    0  0.34518300421E+03  0.59232236923E+02  0.22177982087E+03  0.43297927575E+03  0.12500000000E+03 0.  0.
         -1    1    1    2    0  502 -0.43614823263E+02  0.98750729514E+01 -0.89419804222E+02  0.99978353963E+02  0.00000000000E+00 0.  1.
         -3    1    1    2    0  501 -0.30156818094E+03 -0.69107309874E+02  0.45137635860E+03  0.54722920714E+03  0.00000000000E+00 0.  1.
<mgrwt>
<rscale>  4 0.34543431E+03</rscale>
<asrwt>0</asrwt>
<pdfrwt beam="1">  1       -1 0.38188498E-01 0.34543431E+03</pdfrwt>
<pdfrwt beam="2">  1       -3 0.12799409E+00 0.34543431E+03</pdfrwt>
<totfact> 0.15335432E+01</totfact>
</mgrwt>
</event>
<event>
 5    0  0.1226227E+000  0.4055972E+03  0.7546771E-02  0.1041859E+00
          2   -1    0    0  502    0  0.00000000000E+00  0.00000000000E+00  0.12145834441E+04  0.12145834441E+04  0.00000000000E+00 0.  1.
          2   -1    0    0  501    0 -0.00000000000E+00 -0.00000000000E+00 -0.97270359373E+03  0.97270359373E+03  0.00000000000E+00 0.  1.
         25    1    1    2    0    0 -0.37855012790E+03 -0.60426994019E+02  0.24075310400E+03  0.46961545761E+03  0.12500000000E+03 0.  0.
          2    1    1    2  501    0 -0.64076391757E+01  0.20935269816E+02 -0.81455485172E+03  0.81484903499E+03  0.00000000000E+00 0.  1.
          2    1    1    2  502    0  0.38495776708E+03  0.39491724202E+02  0.81568159810E+03  0.90282254524E+03  0.00000000000E+00 0.  1.
<mgrwt>
<rscale>  4 0.40559721E+03</rscale>
<asrwt>0</asrwt>
<pdfrwt beam="1">  1        2 0.18685899E+00 0.40559721E+03</pdfrwt>
<pdfrwt beam="2">  1        2 0.14964671E+00 0.40559721E+03</pdfrwt>
<totfact> 0.80385862E+01</totfact>
</mgrwt>
</event>
<event>
 5    0  0.1226227E+000  0.3031187E+03  0.7546771E-02  0.1083692E+00
          2   -1    0    0  502    0  0.00000000000E+00  0.00000000000E+00  0.15595878988E+04  0.15595878988E+04  0.00000000000E+00 0.  1.
          1   -1    0    0  501    0 -0.00000000000E+00 -0.00000000000E+00 -0.99220893102E+03  0.99220893102E+03  0.00000000000E+00 0.  1.
         25    1    1    2    0    0  0.22076390036E+03  0.72903381109E+02  0.18871390969E+03  0.32448350095E+03  0.12500000000E+03 0.  0.
          2    1    1    2  501    0 -0.26775334560E+03 -0.10139034232E+03  0.12864206764E+04  0.13178960552E+04  0.00000000000E+00 0.  1.
          1    1    1    2  502    0  0.46989445242E+02  0.28486961209E+02 -0.90775561836E+03  0.90941727364E+03  0.00000000000E+00 0.  1.
<mgrwt>
<rscale>  4 0.30311873E+03</rscale>
<asrwt>0</asrwt>
<pdfrwt beam="1">  1        2 0.23993660E+00 0.30311873E+03</pdfrwt>
<pdfrwt beam="2">  1        1 0.15264753E+00 0.30311873E+03</pdfrwt>
<totfact> 0.27954925E+01</totfact>
</mgrwt>
</event>
<event>
 5    0  0.1226227E+000  0.2757113E+03  0.7546771E-02  0.1098055E+00
         -1   -1    0    0    0  501 -0.00000000000E+00  0.00000000000E+00  0.40450458989E+03  0.40450458989E+03  0.00000000000E+00 0. -1.
          2   -1    0    0  501    0  0.00000000000E+00 -0.00000000000E+00 -0.71137272944E+03  0.71137272944E+03  0.00000000000E+00 0. -1.
         25    1    1    2    0    0  0.98053366654E+02 -0.21301639680E+03 -0.15682750060E+03  0.30856168421E+03  0.12500000000E+03 0.  0.
          2    1    1    2  502    0 -0.12710024413E+03  0.21643049091E+03 -0.44500378853E+03  0.51090605913E+03  0.00000000000E+00 0. -1.
         -1    1    1    2    0  502  0.29046877472E+02 -0.34140941129E+01  0.29496314958E+03  0.29640957599E+03  0.00000000000E+00 0. -1.
<mgrwt>
<rscale>  4 0.27571127E+03</rscale>
<asrwt>0</asrwt>
<pdfrwt beam="1">  1        2 0.10944196E+00 0.27571127E+03</pdfrwt>
<pdfrwt beam="2">  1       -1 0.62231476E-01 0.27571127E+03</pdfrwt>
<totfact> 0.12815204E+02</totfact>
</mgrwt>
</event>
<event>
 5    0  0.1226227E+000  0.4056880E+03  0.7546771E-02  0.1041828E+00
          1   -1    0    0  501    0  0.00000000000E+00  0.00000000000E+00  0.13074203185E+04  0.13074203185E+04  0.00000000000E+00 0.  1.
         -3   -1    0    0    0  501 -0.00000000000E+00 -0.00000000000E+00 -0.15034595171E+04  0.15034595171E+04  0.00000000000E+00 0.  1.
         25    1    1    2    0    0 -0.35651972295E+03  0.20509483634E+03 -0.27885582275E+03  0.51240196586E+03  0.12500000000E+03 0.  0.
          1    1    1    2  502    0  0.33681164685E+03 -0.18437253777E+03  0.11594954800E+04  0.12214192917E+04  0.00000000000E+00 0.  1.
         -3    1    1    2    0  502  0.19708076095E+02 -0.20722298563E+02 -0.10766788558E+04  0.10770585780E+04  0.00000000000E+00 0.  1.
<mgrwt>
<rscale>  4 0.40568804E+03</rscale>
<asrwt>0</asrwt>
<pdfrwt beam="1">  1        1 0.20114159E+00 0.40568804E+03</pdfrwt>
<pdfrwt beam="2">  1       -3 0.23130146E+00 0.40568804E+03</pdfrwt>
<totfact> 0.51471968E-01</totfact>
</mgrwt>
</event>
<event>
 5    0  0.1226227E+000  0.2429082E+03  0.7546771E-02  0.1117870E+00
          1   -1    0    0  502    0  0.00000000000E+00  0.00000000000E+00  0.46549693373E+03  0.46549693373E+03  0.00000000000E+00 0.  1.
          1   -1    0    0  501    0 -0.00000000000E+00 -0.00000000000E+00 -0.82908715084E+03  0.82908715084E+03  0.00000000000E+00 0. -1.
         25    1    1    2    0    0  0.19087285067E+03 -0.13362965277E+03 -0.30727511902E+03  0.40537923972E+03  0.12500000000E+03 0.  0.
          1    1    1    2  501    0 -0.39553379554E+02 -0.70964831585E+01 -0.44616675578E+03  0.44797277135E+03  0.00000000000E+00 0. -1.
          1    1    1    2  502    0 -0.15131947112E+03  0.14072613593E+03  0.38985165769E+03  0.44123207349E+03  0.00000000000E+00 0.  1.
<mgrwt>
<rscale>  4 0.24290823E+03</rscale>
<asrwt>0</asrwt>
<pdfrwt beam="1">  1        1 0.71614913E-01 0.24290823E+03</pdfrwt>
<pdfrwt beam="2">  1        1 0.12755187E+00 0.24290823E+03</pdfrwt>
<totfact> 0.13145309E+02</totfact>
</mgrwt>
</event>
<event>
 5    0  0.1226227E+000  0.2494398E+03  0.7546771E-02  0.1113659E+00
          2   -1    0    0  501    0  0.00000000000E+00  0.00000000000E+00  0.68385186914E+03  0.68385186914E+03  0.00000000000E+00 0. -1.
         -1   -1    0    0    0  501 -0.00000000000E+00 -0.00000000000E+00 -0.16780681191E+03  0.16780681191E+03  0.00000000000E+00 0. -1.
         25    1    1    2    0    0  0.10206705150E+03 -0.19554357713E+03  0.21398367987E+03  0.33176646727E+03  0.12500000000E+03 0.  0.
          2    1    1    2  502    0 -0.13109482934E+03  0.17000989070E+03  0.37798223142E+03  0.43469504769E+03  0.00000000000E+00 0. -1.
         -1    1    1    2    0  502  0.29027777837E+02  0.25533686424E+02 -0.75920854061E+02  0.85197166091E+02  0.00000000000E+00 0. -1.
<mgrwt>
<rscale>  4 0.24943984E+03</rscale>
<asrwt>0</asrwt>
<pdfrwt beam="1">  1        2 0.10520798E+00 0.24943984E+03</pdfrwt>
<pdfrwt beam="2">  1       -1 0.25816433E-01 0.24943984E+03</pdfrwt>
<totfact> 0.65188568E+02</totfact>
</mgrwt>
</event>
<event>
 5    0  0.1226227E+000  0.2521087E+03  0.7546771E-02  0.1111979E+00
          2   -1    0    0  502    0  0.00000000000E+00  0.00000000000E+00  0.16706655630E+04  0.16706655630E+04  0.00000000000E+00 0. -1.
          2   -1    0    0  501    0 -0.00000000000E+00 -0.00000000000E+00 -0.52926251263E+03  0.52926251263E+03  0.00000000000E+00 0. -1.
         25    1    1    2    0    0  0.23403770050E+03  0.88619364573E+02 -0.22742369692E+03  0.36051848074E+03  0.12500000000E+03 0.  0.
          2    1    1    2  501    0 -0.21273122104E+03 -0.48564975733E+02  0.15944289458E+04  0.16092907731E+04  0.00000000000E+00 0. -1.
          2    1    1    2  502    0 -0.21306479460E+02 -0.40054388840E+02 -0.22560219854E+03  0.23011882174E+03  0.00000000000E+00 0. -1.
<mgrwt>
<rscale>  4 0.25210869E+03</rscale>
<asrwt>0</asrwt>
<pdfrwt beam="1">  1        2 0.25702547E+00 0.25210869E+03</pdfrwt>
<pdfrwt beam="2">  1        2 0.81425003E-01 0.25210869E+03</pdfrwt>
<totfact> 0.10166332E+02</totfact>
</mgrwt>
</event>
<event>
 5    0  0.1226227E+000  0.3761463E+03  0.7546771E-02  0.1052367E+00
          1   -1    0    0  501    0 -0.00000000000E+00  0.00000000000E+00  0.24584657431E+04  0.24584657431E+04  0.00000000000E+00 0. -1.
          2   -1    0    0  502    0  0.00000000000E+00 -0.00000000000E+00 -0.10245059834E+04  0.10245059834E+04  0.00000000000E+00 0.  1.
         25    1    1    2    0    0  0.79046783157E+02 -0.39031867629E+03 -0.89767798608E+03  0.98997365100E+03  0.12500000000E+03 0.  0.
          2    1    1    2  501    0 -0.65186188981E+02  0.36354921367E+02 -0.46950168000E+02  0.88177308968E+02  0.00000000000E+00 0.  1.
          1    1    1    2  502    0 -0.13860594175E+02  0.35396375493E+03  0.23785879137E+04  0.24048207665E+04  0.00000000000E+00 0. -1.
<mgrwt>
<rscale>  4 0.37614629E+03</rscale>
<asrwt>0</asrwt>
<pdfrwt beam="1">  1        2 0.15761631E+00 0.37614629E+03</pdfrwt>
<pdfrwt beam="2">  1        1 0.37822550E+00 0.37614629E+03</pdfrwt>
<totfact> 0.55775958E+00</totfact>
</mgrwt>
</event>
<event>
 5    0  0.1226227E+000  0.2502657E+03  0.7546771E-02  0.1113137E+00
          2   -1    0    0  502    0  0.00000000000E+00  0.00000000000E+00  0.41871772210E+03  0.41871772210E+03  0.00000000000E+00 0. -1.
          2   -1    0    0  501    0 -0.00000000000E+00 -0.00000000000E+00 -0.48665308440E+03  0.48665308440E+03  0.00000000000E+00 0. -1.
         25    1    1    2    0    0 -0.25579263513E+03 -0.79453355095E+02 -0.12053411828E+03  0.31921181290E+03  0.12500000000E+03 0.  0.
          2    1    1    2  501    0  0.19659174582E+03  0.26646487529E+02 -0.22352374739E+03  0.29886655127E+03  0.00000000000E+00 0. -1.
          2    1    1    2  502    0  0.59200889317E+02  0.52806867566E+02  0.27612250337E+03  0.28729244234E+03  0.00000000000E+00 0. -1.
<mgrwt>
<rscale>  4 0.25026573E+03</rscale>
<asrwt>0</asrwt>
<pdfrwt beam="1">  1        2 0.64418111E-01 0.25026573E+03</pdfrwt>
<pdfrwt beam="2">  1        2 0.74869705E-01 0.25026573E+03</pdfrwt>
<totfact> 0.75621444E+02</totfact>
</mgrwt>
</event>
<event>
 5    0  0.1226227E+000  0.2900511E+03  0.7546771E-02  0.1090322E+00
         -4   -1    0    0    0  501 -0.00000000000E+00  0.00000000000E+00  0.20212825127E+04  0.20212825127E+04  0.00000000000E+00 0. -1.
          1   -1    0    0  501    0  0.00000000000E+00 -0.00000000000E+00 -0.23657829794E+04  0.23657829794E+04  0.00000000000E+00 0. -1.
         25    1    1    2    0    0  0.20602635313E+03  0.34257286315E+03 -0.82718066368E+03  0.92717629128E+03  0.12500000000E+03 0.  0.
          1    1    1    2  502    0 -0.42198396431E+02 -0.14014602988E+03 -0.14763696297E+04  0.14836067194E+04  0.00000000000E+00 0. -1.
         -4    1    1    2    0  502 -0.16382795670E+03 -0.20242683327E+03  0.19590498268E+04  0.19762824813E+04  0.00000000000E+00 0. -1.
<mgrwt>
<rscale>  4 0.29005112E+03</rscale>
<asrwt>0</asrwt>
<pdfrwt beam="1">  1        1 0.36396661E+00 0.29005112E+03</pdfrwt>
<pdfrwt beam="2">  1       -4 0.31096654E+00 0.29005112E+03</pdfrwt>
<totfact> 0.27574416E-02</totfact>
</mgrwt>
</event>
<event>
 5    0  0.1226227E+000  0.1896269E+03  0.7546771E-02  0.1158798E+00
         -1   -1    0    0    0  501 -0.00000000000E+00  0.00000000000E+00  0.10904148097E+03  0.10904148097E+03  0.00000000000E+00 0.  1.
          2   -1    0    0  501    0  0.00000000000E+00 -0.00000000000E+00 -0.53108402079E+03  0.53108402079E+03  0.00000000000E+00 0.  1.
         25    1    1    2    0    0  0.19712503517E+03  0.55618509237E+02 -0.11716924883E+03  0.26703058052E+03  0.12500000000E+03 0.  0.
          2    1    1    2  502    0 -0.12821845249E+03 -0.13114883815E+02 -0.22538694583E+03  0.25963675989E+03  0.00000000000E+00 0.  1.
         -1    1    1    2    0  502 -0.68906582686E+02 -0.42503625422E+02 -0.79486345151E+02  0.11345816135E+03  0.00000000000E+00 0.  1.
<mgrwt>
<rscale>  4 0.18962687E+03</rscale>
<asrwt>0</asrwt>
<pdfrwt beam="1">  1        2 0.81705235E-01 0.18962687E+03</pdfrwt>
<pdfrwt beam="2">  1       -1 0.16775612E-01 0.18962687E+03</pdfrwt>
<totfact> 0.17657691E+03</totfact>
</mgrwt>
</event>
<event>
 5    0  0.1226227E+000  0.2742369E+03  0.7546771E-02  0.1098879E+00
          1   -1    0    0  502    0  0.00000000000E+00  0.00000000000E+00  0.39227123336E+03  0.39227123336E+03  0.00000000000E+00 0.  1.
          3   -1    0    0  501    0 -0.00000000000E+00 -0.00000000000E+00 -0.83742104290E+03  0.83742104290E+03  0.00000000000E+00 0.  1.
         25    1    1    2    0    0  0.28505219903E+03 -0.17220699368E+03 -0.96093261484E+02  0.36846834294E+03  0.12500000000E+03 0.  0.
          1    1    1    2  501    0 -0.17624565697E+03  0.14011377185E+03  0.19964438381E+03  0.30091905996E+03  0.00000000000E+00 0.  1.
          3    1    1    2  502    0 -0.10880654206E+03  0.32093221834E+02 -0.54870093187E+03  0.56030487336E+03  0.00000000000E+00 0.  1.
<mgrwt>
<rscale>  4 0.27423691E+03</rscale>
<asrwt>0</asrwt>
<pdfrwt beam="1">  1        1 0.60349422E-01 0.27423691E+03</pdfrwt>
<pdfrwt beam="2">  1        3 0.12883400E+00 0.27423691E+03</pdfrwt>
<totfact> 0.16744314E+01</totfact>
</mgrwt>
</event>
<event>
 5    0  0.1226227E+000  0.3287526E+03  0.7546771E-02  0.1071690E+00
          1   -1    0    0  501    0 -0.00000000000E+00  0.00000000000E+00  0.66146279759E+03  0.66146279759E+03  0.00000000000E+00 0.  1.
          2   -1    0    0  502    0  0.00000000000E+00 -0.00000000000E+00 -0.42435233584E+03  0.42435233584E+03  0.00000000000E+00 0. -1.
         25    1    1    2    0    0  0.10902807890E+03 -0.32925528616E+03 -0.19929860734E+02  0.36921316986E+03  0.12500000000E+03 0.  0.
          2    1    1    2  501    0 -0.88818171769E+02  0.26822142758E+03 -0.13934445254E+03  0.31503694752E+03  0.00000000000E+00 0. -1.
          1    1    1    2  502    0 -0.20209907132E+02  0.61033858576E+02  0.39638477503E+03  0.40156501605E+03  0.00000000000E+00 0.  1.
<mgrwt>
<rscale>  4 0.32875257E+03</rscale>
<asrwt>0</asrwt>
<pdfrwt beam="1">  1        2 0.65284974E-01 0.32875257E+03</pdfrwt>
<pdfrwt beam="2">  1        1 0.10176351E+00 0.32875257E+03</pdfrwt>
<totfact> 0.31009747E+02</totfact>
</mgrwt>
</event>
<event>
 5    0  0.1226227E+000  0.1777072E+03  0.7546771E-02  0.1170041E+00
          2   -1    0    0  502    0  0.00000000000E+00  0.00000000000E+00  0.61453196612E+03  0.61453196612E+03  0.00000000000E+00 0. -1.
          1   -1    0    0  501    0 -0.00000000000E+00 -0.00000000000E+00 -0.12127849838E+03  0.12127849838E+03  0.00000000000E+00 0.  1.
         25    1    1    2    0    0 -0.14531836959E+03  0.13976686803E+03  0.45091030630E+03  0.50950692858E+03  0.12500000000E+03 0.  0.
          2    1    1    2  501    0  0.66005128771E+02 -0.51553147948E+02  0.64393210857E+02  0.10564511201E+03  0.00000000000E+00 0. -1.
          1    1    1    2  502    0  0.79313240822E+02 -0.88213720080E+02 -0.22050049417E+02  0.12065842391E+03  0.00000000000E+00 0.  1.
<mgrwt>
<rscale>  4 0.17770723E+03</rscale>
<asrwt>0</asrwt>
<pdfrwt beam="1">  1        2 0.94543378E-01 0.17770723E+03</pdfrwt>
<pdfrwt beam="2">  1        1 0.18658231E-01 0.17770723E+03</pdfrwt>
<totfact> 0.18524615E+03</totfact>
</mgrwt>
</event>
<event>
 5    0  0.1226227E+000  0.1742232E+03  0.7546771E-02  0.1173514E+00
          2   -1    0    0  502    0  0.00000000000E+00  0.00000000000E+00  0.48658840987E+03  0.48658840987E+03  0.00000000000E+00 0. -1.
          1   -1    0    0  501    0 -0.00000000000E+00 -0.00000000000E+00 -0.57823913513E+03  0.57823913513E+03  0.00000000000E+00 0. -1.
         25    1    1    2    0    0 -0.18785329189E+03  0.77599754988E+02 -0.49818706181E+01  0.23866378083E+03  0.12500000000E+03 0.  0.
          2    1    1    2  501    0  0.86517745136E+02 -0.20736567724E+02  0.35679960468E+03  0.36772446664E+03  0.00000000000E+00 0. -1.
          1    1    1    2  502    0  0.10133554675E+03 -0.56863187264E+02 -0.44346845932E+03  0.45843929753E+03  0.00000000000E+00 0. -1.
<mgrwt>
<rscale>  4 0.17422319E+03</rscale>
<asrwt>0</asrwt>
<pdfrwt beam="1">  1        2 0.74859756E-01 0.17422319E+03</pdfrwt>
<pdfrwt beam="2">  1        1 0.88959867E-01 0.17422319E+03</pdfrwt>
<totfact> 0.33141269E+02</totfact>
</mgrwt>
</event>
<event>
 5    0  0.1226227E+000  0.2526099E+03  0.7546771E-02  0.1111666E+00
          2   -1    0    0  502    0  0.00000000000E+00  0.00000000000E+00  0.13475801156E+03  0.13475801156E+03  0.00000000000E+00 0.  1.
          2   -1    0    0  501    0 -0.00000000000E+00 -0.00000000000E+00 -0.22806981197E+04  0.22806981197E+04  0.00000000000E+00 0.  1.
         25    1    1    2    0    0  0.46599907439E+02 -0.23874463704E+03 -0.65138242711E+02  0.28113794435E+03  0.12500000000E+03 0.  0.
          2    1    1    2  501    0 -0.49546494319E+02  0.59126245957E+02 -0.17955920246E+04  0.17972483098E+04  0.00000000000E+00 0.  1.
          2    1    1    2  502    0  0.29465868796E+01  0.17961839108E+03 -0.28520984083E+03  0.33706987717E+03  0.00000000000E+00 0.  1.
<mgrwt>
<rscale>  4 0.25260988E+03</rscale>
<asrwt>0</asrwt>
<pdfrwt beam="1">  1        2 0.20732003E-01 0.25260988E+03</pdfrwt>
<pdfrwt beam="2">  1        2 0.35087662E+00 0.25260988E+03</pdfrwt>
<totfact> 0.21883084E+02</totfact>
</mgrwt>
</event>
<event>
 5    0  0.1226227E+000  0.2644977E+03  0.7546771E-02  0.1104471E+00
          2   -1    0    0  502    0  0.00000000000E+00  0.00000000000E+00  0.18143876929E+04  0.18143876929E+04  0.00000000000E+00 0. -1.
          3   -1    0    0  501    0 -0.00000000000E+00 -0.00000000000E+00 -0.20207886495E+03  0.20207886495E+03  0.00000000000E+00 0. -1.
         25    1    1    2    0    0 -0.96962721507E+01  0.23896394863E+03  0.29794346041E+02  0.27149675779E+03  0.12500000000E+03 0.  0.
          2    1    1    2  501    0  0.11363453534E+03 -0.21290016157E+02  0.14772817087E+04  0.14817986771E+04  0.00000000000E+00 0. -1.
          3    1    1    2  502    0 -0.10393826319E+03 -0.21767393247E+03  0.10523277319E+03  0.26317112301E+03  0.00000000000E+00 0. -1.
<mgrwt>
<rscale>  4 0.26449766E+03</rscale>
<asrwt>0</asrwt>
<pdfrwt beam="1">  1        2 0.27913656E+00 0.26449766E+03</pdfrwt>
<pdfrwt beam="2">  1        3 0.31089057E-01 0.26449766E+03</pdfrwt>
<totfact> 0.58833256E+01</totfact>
</mgrwt>
</event>
<event>
 5    0  0.1226227E+000  0.2585152E+03  0.7546771E-02  0.1108039E+00
         -4   -1    0    0    0  501 -0.00000000000E+00  0.00000000000E+00  0.20217100157E+03  0.20217100157E+03  0.00000000000E+00 0.  1.
          1   -1    0    0  501    0  0.00000000000E+00 -0.00000000000E+00 -0.11399664224E+04  0.11399664224E+04  0.00000000000E+00 0. -1.
         25    1    1    2    0    0  0.21602294066E+03  0.45854176992E+02 -0.99010026747E+03  0.10221017836E+04  0.12500000000E+03 0.  0.
          1    1    1    2  502    0  0.28843729170E+00  0.22079768919E+02 -0.62221788727E+02  0.66023862232E+02  0.00000000000E+00 0. -1.
         -4    1    1    2    0  502 -0.21631137795E+03 -0.67933945911E+02  0.11452663533E+03  0.25401177815E+03  0.00000000000E+00 0.  1.
<mgrwt>
<rscale>  4 0.25851522E+03</rscale>
<asrwt>0</asrwt>
<pdfrwt beam="1">  1        1 0.17537945E+00 0.25851522E+03</pdfrwt>
<pdfrwt beam="2">  1       -4 0.31103230E-01 0.25851522E+03</pdfrwt>
<totfact> 0.59462639E+01</totfact>
</mgrwt>
</event>
<event>
 5    0  0.1226227E+000  0.3133395E+03  0.7546771E-02  0.1078756E+00
          2   -1    0    0  502    0  0.00000000000E+00  0.00000000000E+00  0.93440425499E+03  0.93440425499E+03  0.00000000000E+00 0. -1.
          2   -1    0    0  501    0 -0.00000000000E+00 -0.00000000000E+00 -0.22944275835E+03  0.22944275835E+03  0.00000000000E+00 0. -1.
         25    1    1    2    0    0  0.31473776826E+03  0.10907490084E+03  0.33793074700E+03  0.49069276185E+03  0.12500000000E+03 0.  0.
          2    1    1    2  501    0 -0.23087900739E+03 -0.13589969364E+03  0.46795830406E+03  0.53922056445E+03  0.00000000000E+00 0. -1.
          2    1    1    2  502    0 -0.83858760866E+02  0.26824792799E+02 -0.10092755442E+03  0.13393368704E+03  0.00000000000E+00 0. -1.
<mgrwt>
<rscale>  4 0.31333946E+03</rscale>
<asrwt>0</asrwt>
<pdfrwt beam="1">  1        2 0.14375450E+00 0.31333946E+03</pdfrwt>
<pdfrwt beam="2">  1        2 0.35298886E-01 0.31333946E+03</pdfrwt>
<totfact> 0.65215265E+02</totfact>
</mgrwt>
</event>
<event>
 5    0  0.1226227E+000  0.2626230E+03  0.7546771E-02  0.1105577E+00
          2   -1    0    0  502    0  0.00000000000E+00  0.00000000000E+00  0.13037338304E+04  0.13037338304E+04  0.00000000000E+00 0.  1.
          1   -1    0    0  501    0 -0.00000000000E+00 -0.00000000000E+00 -0.48896394357E+03  0.48896394357E+03  0.00000000000E+00 0.  1.
         25    1    1    2    0    0  0.79515178238E+02  0.29198316668E+03  0.77422340171E+02  0.33644620960E+03  0.12500000000E+03 0.  0.
          2    1    1    2  501    0 -0.36921015206E+02 -0.76739079273E+02  0.10614501312E+04  0.10648607556E+04  0.00000000000E+00 0.  1.
          1    1    1    2  502    0 -0.42594163032E+02 -0.21524408741E+03 -0.32410258458E+03  0.39139080880E+03  0.00000000000E+00 0.  1.
<mgrwt>
<rscale>  4 0.26262299E+03</rscale>
<asrwt>0</asrwt>
<pdfrwt beam="1">  1        2 0.20057443E+00 0.26262299E+03</pdfrwt>
<pdfrwt beam="2">  1        1 0.75225223E-01 0.26262299E+03</pdfrwt>
<totfact> 0.11188693E+02</totfact>
</mgrwt>
</event>
<event>
 5    0  0.1226227E+000  0.2352660E+03  0.7546771E-02  0.1122987E+00
          2   -1    0    0  502    0  0.00000000000E+00  0.00000000000E+00  0.31092142001E+03  0.31092142001E+03  0.00000000000E+00 0.  1.
          2   -1    0    0  501    0 -0.00000000000E+00 -0.00000000000E+00 -0.99095280920E+03  0.99095280920E+03  0.00000000000E+00 0.  1.
         25    1    1    2    0    0  0.50387075873E+02 -0.24561912430E+03 -0.38604123503E+02  0.28281246434E+03  0.12500000000E+03 0.  0.
          2    1    1    2  501    0  0.56030779652E+02  0.18193359048E+03  0.13462713761E+03  0.23316034353E+03  0.00000000000E+00 0.  1.
          2    1    1    2  502    0 -0.10641785552E+03  0.63685533824E+02 -0.77605440329E+03  0.78590142134E+03  0.00000000000E+00 0.  1.
<mgrwt>
<rscale>  4 0.23526596E+03</rscale>
<asrwt>0</asrwt>
<pdfrwt beam="1">  1        2 0.47834065E-01 0.23526596E+03</pdfrwt>
<pdfrwt beam="2">  1        2 0.15245428E+00 0.23526596E+03</pdfrwt>
<totfact> 0.43725488E+02</totfact>
</mgrwt>
</event>
<event>
 5    0  0.1226227E+000  0.3703404E+03  0.7546771E-02  0.1054563E+00
          2   -1    0    0  502    0  0.00000000000E+00  0.00000000000E+00  0.74320079487E+03  0.74320079487E+03  0.00000000000E+00 0.  1.
          2   -1    0    0  501    0 -0.00000000000E+00 -0.00000000000E+00 -0.12604966611E+04  0.12604966611E+04  0.00000000000E+00 0.  1.
         25    1    1    2    0    0 -0.84324061133E+02 -0.26760876220E+03 -0.16707170828E+03  0.34966119688E+03  0.12500000000E+03 0.  0.
          2    1    1    2  501    0 -0.17394315733E+02  0.36476902246E+03  0.59514868708E+03  0.69825565640E+03  0.00000000000E+00 0.  1.
          2    1    1    2  502    0  0.10171837687E+03 -0.97160260253E+02 -0.94537284505E+03  0.95578060271E+03  0.00000000000E+00 0.  1.
<mgrwt>
<rscale>  4 0.37034042E+03</rscale>
<asrwt>0</asrwt>
<pdfrwt beam="1">  1        2 0.11433859E+00 0.37034042E+03</pdfrwt>
<pdfrwt beam="2">  1        2 0.19392256E+00 0.37034042E+03</pdfrwt>
<totfact> 0.10925794E+02</totfact>
</mgrwt>
</event>
<event>
 5    0  0.1226227E+000  0.2433062E+03  0.7546771E-02  0.1117610E+00
          2   -1    0    0  502    0  0.00000000000E+00  0.00000000000E+00  0.11692723831E+04  0.11692723831E+04  0.00000000000E+00 0. -1.
          1   -1    0    0  501    0 -0.00000000000E+00 -0.00000000000E+00 -0.53733457571E+03  0.53733457571E+03  0.00000000000E+00 0.  1.
         25    1    1    2    0    0 -0.33062972472E+03  0.14726597009E+02 -0.12588902959E+03  0.37550757023E+03  0.12500000000E+03 0.  0.
          2    1    1    2  501    0  0.15678229146E+03 -0.71901123380E+02  0.10071538277E+04  0.10218166622E+04  0.00000000000E+00 0. -1.
          1    1    1    2  502    0  0.17384743325E+03  0.57174526371E+02 -0.24932699075E+03  0.30928272637E+03  0.00000000000E+00 0.  1.
<mgrwt>
<rscale>  4 0.24330624E+03</rscale>
<asrwt>0</asrwt>
<pdfrwt beam="1">  1        2 0.17988806E+00 0.24330624E+03</pdfrwt>
<pdfrwt beam="2">  1        1 0.82666858E-01 0.24330624E+03</pdfrwt>
<totfact> 0.11815923E+02</totfact>
</mgrwt>
</event>
<event>
 5    0  0.1226227E+000  0.2871246E+03  0.7546771E-02  0.1091860E+00
         -1   -1    0    0    0  501 -0.00000000000E+00  0.00000000000E+00  0.59388614582E+02  0.59388614582E+02  0.00000000000E+00 0. -1.
          2   -1    0    0  501    0  0.00000000000E+00 -0.00000000000E+00 -0.28523434951E+04  0.28523434951E+04  0.00000000000E+00 0. -1.
         25    1    1    2    0    0  0.17812100486E+03 -0.34151172882E+03 -0.13281179487E+04  0.13884810546E+04  0.12500000000E+03 0.  0.
          2    1    1    2  502    0 -0.27010375058E+02  0.19927512684E+03 -0.88005881139E+03  0.90274229326E+03  0.00000000000E+00 0. -1.
         -1    1    1    2    0  502 -0.15111062980E+03  0.14223660198E+03 -0.58477812047E+03  0.62050876187E+03  0.00000000000E+00 0. -1.
<mgrwt>
<rscale>  4 0.28712460E+03</rscale>
<asrwt>0</asrwt>
<pdfrwt beam="1">  1        2 0.43882216E+00 0.28712460E+03</pdfrwt>
<pdfrwt beam="2">  1       -1 0.91367083E-02 0.28712460E+03</pdfrwt>
<totfact> 0.20226963E+02</totfact>
</mgrwt>
</event>
<event>
 5    0  0.1226227E+000  0.2069271E+03  0.7546771E-02  0.1144023E+00
          2   -1    0    0  502    0  0.00000000000E+00  0.00000000000E+00  0.29161719637E+03  0.29161719637E+03  0.00000000000E+00 0. -1.
          2   -1    0    0  501    0 -0.00000000000E+00 -0.00000000000E+00 -0.17507822395E+04  0.17507822395E+04  0.00000000000E+00 0. -1.
         25    1    1    2    0    0 -0.21403250142E+03  0.27006692813E+02  0.48664713670E+02  0.25403253232E+03  0.12500000000E+03 0.  0.
          2    1    1    2  501    0  0.14634136139E+03  0.13385986198E+02  0.10054800771E+03  0.17805864353E+03  0.00000000000E+00 0. -1.
          2    1    1    2  502    0  0.67691140030E+02 -0.40392679011E+02 -0.16083777645E+04  0.16103082600E+04  0.00000000000E+00 0. -1.
<mgrwt>
<rscale>  4 0.20692709E+03</rscale>
<asrwt>0</asrwt>
<pdfrwt beam="1">  1        2 0.44864185E-01 0.20692709E+03</pdfrwt>
<pdfrwt beam="2">  1        2 0.26935111E+00 0.20692709E+03</pdfrwt>
<totfact> 0.18030515E+02</totfact>
</mgrwt>
</event>
<event>
 5    0  0.1226227E+000  0.3014758E+03  0.7546771E-02  0.1084505E+00
          1   -1    0    0  501    0 -0.00000000000E+00  0.00000000000E+00  0.51180259871E+03  0.51180259871E+03  0.00000000000E+00 0. -1.
          2   -1    0    0  502    0  0.00000000000E+00 -0.00000000000E+00 -0.27113737191E+04  0.27113737191E+04  0.00000000000E+00 0. -1.
         25    1    1    2    0    0  0.21729962541E+02  0.30134914447E+03  0.20292037578E+03  0.38481836891E+03  0.12500000000E+03 0.  0.
          2    1    1    2  501    0 -0.59051649890E+02 -0.26729393316E+03 -0.26102398030E+04  0.26245542428E+04  0.00000000000E+00 0. -1.
          1    1    1    2  502    0  0.37321687349E+02 -0.34055211306E+02  0.20774830683E+03  0.21380370613E+03  0.00000000000E+00 0. -1.
<mgrwt>
<rscale>  4 0.30147577E+03</rscale>
<asrwt>0</asrwt>
<pdfrwt beam="1">  1        2 0.41713442E+00 0.30147577E+03</pdfrwt>
<pdfrwt beam="2">  1        1 0.78738862E-01 0.30147577E+03</pdfrwt>
<totfact> 0.18109662E+01</totfact>
</mgrwt>
</event>
<event>
 5    0  0.1226227E+000  0.2914268E+03  0.7546771E-02  0.1089607E+00
         -2   -1    0    0    0  501 -0.00000000000E+00  0.00000000000E+00  0.88754425253E+03  0.88754425253E+03  0.00000000000E+00 0.  1.
          2   -1    0    0  502    0  0.00000000000E+00 -0.00000000000E+00 -0.39274629596E+03  0.39274629596E+03  0.00000000000E+00 0. -1.
         25    1    1    2    0    0 -0.12831172451E+03  0.22997610138E+03 -0.19086269790E+03  0.34843431993E+03  0.12500000000E+03 0.  0.
          2    1    1    2  502    0 -0.27154484707E+02 -0.17355047210E+02 -0.99028210899E+02  0.10414005117E+03  0.00000000000E+00 0. -1.
         -2    1    1    2    0  501  0.15546620922E+03 -0.21262105417E+03  0.78468886537E+03  0.82771617740E+03  0.00000000000E+00 0.  1.
<mgrwt>
<rscale>  4 0.29142679E+03</rscale>
<asrwt>0</asrwt>
<pdfrwt beam="1">  1        2 0.60422507E-01 0.29142679E+03</pdfrwt>
<pdfrwt beam="2">  1       -2 0.13654527E+00 0.29142679E+03</pdfrwt>
<totfact> 0.33101242E+01</totfact>
</mgrwt>
</event>
<event>
 5    0  0.1226227E+000  0.2371908E+03  0.7546771E-02  0.1121679E+00
          1   -1    0    0  502    0  0.00000000000E+00  0.00000000000E+00  0.60636605031E+03  0.60636605031E+03  0.00000000000E+00 0.  1.
         -1   -1    0    0    0  501 -0.00000000000E+00 -0.00000000000E+00 -0.41306787807E+03  0.41306787807E+03  0.00000000000E+00 0.  1.
         25    1    1    2    0    0  0.51188431395E+01 -0.20950213444E+03  0.51010531761E+03  0.56546421810E+03  0.12500000000E+03 0.  0.
          1    1    1    2  502    0 -0.36112620367E+02  0.10562175144E+02  0.33203486820E+02  0.50181195985E+02  0.00000000000E+00 0.  1.
         -1    1    1    2    0  501  0.30993777227E+02  0.19893995930E+03 -0.35001063219E+03  0.40378851430E+03  0.00000000000E+00 0.  1.
<mgrwt>
<rscale>  4 0.23719075E+03</rscale>
<asrwt>0</asrwt>
<pdfrwt beam="1">  1        1 0.93287085E-01 0.23719075E+03</pdfrwt>
<pdfrwt beam="2">  1       -1 0.63548904E-01 0.23719075E+03</pdfrwt>
<totfact> 0.91892880E+01</totfact>
</mgrwt>
</event>
<event>
 5    0  0.1226227E+000  0.4583100E+03  0.7546771E-02  0.1025273E+00
          2   -1    0    0  502    0  0.00000000000E+00  0.00000000000E+00  0.22634642416E+04  0.22634642416E+04  0.00000000000E+00 0. -1.
          2   -1    0    0  501    0 -0.00000000000E+00 -0.00000000000E+00 -0.26663987040E+03  0.26663987040E+03  0.00000000000E+00 0. -1.
         25    1    1    2    0    0 -0.37637494743E+03 -0.19695450060E+03  0.27608364738E+03  0.52182023410E+03  0.12500000000E+03 0.  0.
          2    1    1    2  501    0 -0.57019257140E+02  0.48174065113E+02  0.14960997092E+04  0.14979607058E+04  0.00000000000E+00 0. -1.
          2    1    1    2  502    0  0.43339420457E+03  0.14878043549E+03  0.22464101460E+03  0.51032317210E+03  0.00000000000E+00 0. -1.
<mgrwt>
<rscale>  4 0.45830995E+03</rscale>
<asrwt>0</asrwt>
<pdfrwt beam="1">  1        2 0.34822525E+00 0.45830995E+03</pdfrwt>
<pdfrwt beam="2">  1        2 0.41021520E-01 0.45830995E+03</pdfrwt>
<totfact> 0.98625368E+01</totfact>
</mgrwt>
</event>
<event>
 5    0  0.1226227E+000  0.4727267E+03  0.7546771E-02  0.1021153E+00
          1   -1    0    0  501    0 -0.00000000000E+00  0.00000000000E+00  0.64589614129E+03  0.64589614129E+03  0.00000000000E+00 0.  1.
          2   -1    0    0  502    0  0.00000000000E+00 -0.00000000000E+00 -0.10475204669E+04  0.10475204669E+04  0.00000000000E+00 0. -1.
         25    1    1    2    0    0 -0.26039516340E+03 -0.35104683844E+03  0.95306050108E+02  0.46448656287E+03  0.12500000000E+03 0.  0.
          2    1    1    2  501    0  0.27436379036E+03  0.36925308537E+03 -0.80115786605E+03  0.92383832831E+03  0.00000000000E+00 0. -1.
          1    1    1    2  502    0 -0.13968626963E+02 -0.18206246936E+02  0.30422749029E+03  0.30509171705E+03  0.00000000000E+00 0.  1.
<mgrwt>
<rscale>  4 0.47272674E+03</rscale>
<asrwt>0</asrwt>
<pdfrwt beam="1">  1        2 0.16115699E+00 0.47272674E+03</pdfrwt>
<pdfrwt beam="2">  1        1 0.99368638E-01 0.47272674E+03</pdfrwt>
<totfact> 0.10198878E+02</totfact>
</mgrwt>
</event>
<event>
 5    0  0.1226227E+000  0.4654147E+03  0.7546771E-02  0.1023222E+00
          1   -1    0    0  501    0  0.00000000000E+00  0.00000000000E+00  0.18950522011E+04  0.18950522011E+04  0.00000000000E+00 0. -1.
         -2   -1    0    0    0  501 -0.00000000000E+00 -0.00000000000E+00 -0.86175305818E+03  0.86175305818E+03  0.00000000000E+00 0.  1.
         25    1    1    2    0    0  0.17078645098E+03 -0.36167449938E+03 -0.24727777791E+02  0.41977722465E+03  0.12500000000E+03 0.  0.
          1    1    1    2  502    0  0.51800838487E+02 -0.51844160904E+02  0.16103647567E+04  0.16120315734E+04  0.00000000000E+00 0. -1.
         -2    1    1    2    0  502 -0.22258728947E+03  0.41351866028E+03 -0.55233783597E+03  0.72499646129E+03  0.00000000000E+00 0.  1.
<mgrwt>
<rscale>  4 0.46541471E+03</rscale>
<asrwt>0</asrwt>
<pdfrwt beam="1">  1        1 0.29154649E+00 0.46541471E+03</pdfrwt>
<pdfrwt beam="2">  1       -2 0.13257739E+00 0.46541471E+03</pdfrwt>
<totfact> 0.14202854E+00</totfact>
</mgrwt>
</event>
<event>
 5    0  0.1226227E+000  0.2515295E+03  0.7546771E-02  0.1112342E+00
          2   -1    0    0  501    0  0.00000000000E+00  0.00000000000E+00  0.89420710298E+03  0.89420710298E+03  0.00000000000E+00 0.  1.
         -1   -1    0    0    0  501 -0.00000000000E+00 -0.00000000000E+00 -0.34114143033E+03  0.34114143033E+03  0.00000000000E+00 0. -1.
         25    1    1    2    0    0 -0.19143674996E+02 -0.31714753846E+03  0.16849073619E+02  0.34184489572E+03  0.12500000000E+03 0.  0.
          2    1    1    2  502    0 -0.74154613305E+01  0.12945816656E+03  0.65638057287E+03  0.66906641105E+03  0.00000000000E+00 0.  1.
         -1    1    1    2    0  502  0.26559136326E+02  0.18768937190E+03 -0.12016397385E+03  0.22443722654E+03  0.00000000000E+00 0. -1.
<mgrwt>
<rscale>  4 0.25152948E+03</rscale>
<asrwt>0</asrwt>
<pdfrwt beam="1">  1        2 0.13757032E+00 0.25152948E+03</pdfrwt>
<pdfrwt beam="2">  1       -1 0.52483297E-01 0.25152948E+03</pdfrwt>
<totfact> 0.13306075E+02</totfact>
</mgrwt>
</event>
<event>
 5    0  0.1226227E+000  0.2444040E+03  0.7546771E-02  0.1116893E+00
          1   -1    0    0  502    0  0.00000000000E+00  0.00000000000E+00  0.53784276072E+03  0.53784276072E+03  0.00000000000E+00 0. -1.
          1   -1    0    0  501    0 -0.00000000000E+00 -0.00000000000E+00 -0.53916057431E+03  0.53916057431E+03  0.00000000000E+00 0.  1.
         25    1    1    2    0    0  0.19133160988E+03 -0.17169731871E+03  0.42806878057E+02  0.28904183607E+03  0.12500000000E+03 0.  0.
          1    1    1    2  501    0 -0.17166799892E+03  0.10902867276E+03 -0.38789533547E+03  0.43797253865E+03  0.00000000000E+00 0.  1.
          1    1    1    2  502    0 -0.19663610966E+02  0.62668645948E+02  0.34377064382E+03  0.34998896030E+03  0.00000000000E+00 0. -1.
<mgrwt>
<rscale>  4 0.24440395E+03</rscale>
<asrwt>0</asrwt>
<pdfrwt beam="1">  1        1 0.82745040E-01 0.24440395E+03</pdfrwt>
<pdfrwt beam="2">  1        1 0.82947780E-01 0.24440395E+03</pdfrwt>
<totfact> 0.20181017E+02</totfact>
</mgrwt>
</event>
<event>
 5    0  0.1226227E+000  0.3062130E+03  0.7546771E-02  0.1082175E+00
          2   -1    0    0  501    0  0.00000000000E+00  0.00000000000E+00  0.14897898108E+04  0.14897898108E+04  0.00000000000E+00 0. -1.
         -1   -1    0    0    0  501 -0.00000000000E+00 -0.00000000000E+00 -0.44451602746E+03  0.44451602746E+03  0.00000000000E+00 0. -1.
         25    1    1    2    0    0 -0.42433440007E+03  0.29975304708E+02  0.84110604046E+01  0.44345681629E+03  0.12500000000E+03 0.  0.
          2    1    1    2  502    0  0.26781239663E+03 -0.31808581416E+02  0.12202743255E+04  0.12497218471E+04  0.00000000000E+00 0. -1.
         -1    1    1    2    0  502  0.15652200344E+03  0.18332767078E+01 -0.18341160261E+03  0.24112717482E+03  0.00000000000E+00 0. -1.
<mgrwt>
<rscale>  4 0.30621296E+03</rscale>
<asrwt>0</asrwt>
<pdfrwt beam="1">  1        2 0.22919843E+00 0.30621296E+03</pdfrwt>
<pdfrwt beam="2">  1       -1 0.68387082E-01 0.30621296E+03</pdfrwt>
<totfact> 0.35522168E+01</totfact>
</mgrwt>
</event>
<event>
 5    0  0.1226227E+000  0.7086384E+03  0.7546771E-02  0.9702572E-01
          1   -1    0    0  501    0 -0.00000000000E+00  0.00000000000E+00  0.18500283941E+04  0.18500283941E+04  0.00000000000E+00 0. -1.
          2   -1    0    0  502    0  0.00000000000E+00 -0.00000000000E+00 -0.12724420183E+04  0.12724420183E+04  0.00000000000E+00 0.  1.
         25    1    1    2    0    0  0.66473016463E+03  0.73060437690E+02  0.72724128347E+02  0.68419136078E+03  0.12500000000E+03 0.  0.
          2    1    1    2  501    0 -0.69608093009E+03 -0.12857689232E+03 -0.83627042925E+03  0.10956317398E+04  0.00000000000E+00 0.  1.
          1    1    1    2  502    0  0.31350765462E+02  0.55516454626E+02  0.13411326767E+04  0.13426473118E+04  0.00000000000E+00 0. -1.
<mgrwt>
<rscale>  4 0.70863842E+03</rscale>
<asrwt>0</asrwt>
<pdfrwt beam="1">  1        2 0.19576031E+00 0.70863842E+03</pdfrwt>
<pdfrwt beam="2">  1        1 0.28461975E+00 0.70863842E+03</pdfrwt>
<totfact> 0.90986447E+00</totfact>
</mgrwt>
</event>
<event>
 5    0  0.1226227E+000  0.2574969E+03  0.7546771E-02  0.1108657E+00
          1   -1    0    0  502    0  0.00000000000E+00  0.00000000000E+00  0.23576626497E+04  0.23576626497E+04  0.00000000000E+00 0.  1.
          1   -1    0    0  501    0 -0.00000000000E+00 -0.00000000000E+00 -0.15902821760E+04  0.15902821760E+04  0.00000000000E+00 0.  1.
         25    1    1    2    0    0 -0.18892937144E+03 -0.73703986727E+02 -0.93881730553E+03  0.96857086380E+03  0.12500000000E+03 0.  0.
          1    1    1    2  501    0  0.20845019369E+03  0.85353987806E+02  0.23371665543E+04  0.23479958026E+04  0.00000000000E+00 0.  1.
          1    1    1    2  502    0 -0.19520822249E+02 -0.11650001079E+02 -0.63096877507E+03  0.63137815938E+03  0.00000000000E+00 0.  1.
<mgrwt>
<rscale>  4 0.25749686E+03</rscale>
<asrwt>0</asrwt>
<pdfrwt beam="1">  1        1 0.36271733E+00 0.25749686E+03</pdfrwt>
<pdfrwt beam="2">  1        1 0.24465879E+00 0.25749686E+03</pdfrwt>
<totfact> 0.15096690E+00</totfact>
</mgrwt>
</event>
<event>
 5    0  0.1226227E+000  0.3905442E+03  0.7546771E-02  0.1047104E+00
         -2   -1    0    0    0  501 -0.00000000000E+00  0.00000000000E+00  0.57585712540E+03  0.57585712540E+03  0.00000000000E+00 0. -1.
          2   -1    0    0  502    0  0.00000000000E+00 -0.00000000000E+00 -0.10610173010E+04  0.10610173010E+04  0.00000000000E+00 0. -1.
         25    1    1    2    0    0  0.39355847811E+01 -0.31143355202E+03  0.13287665567E+03  0.36095366985E+03  0.12500000000E+03 0.  0.
          2    1    1    2  502    0 -0.41762078207E+02  0.37694691519E+03 -0.90388852107E+03  0.98022829309E+03  0.00000000000E+00 0. -1.
         -2    1    1    2    0  501  0.37826493426E+02 -0.65513363169E+02  0.28585168983E+03  0.29569246344E+03  0.00000000000E+00 0. -1.
<mgrwt>
<rscale>  4 0.39054424E+03</rscale>
<asrwt>0</asrwt>
<pdfrwt beam="1">  1        2 0.16323343E+00 0.39054424E+03</pdfrwt>
<pdfrwt beam="2">  1       -2 0.88593405E-01 0.39054424E+03</pdfrwt>
<totfact> 0.26996004E+01</totfact>
</mgrwt>
</event>
<event>
 5    0  0.1226227E+000  0.2472007E+03  0.7546771E-02  0.1115087E+00
         -2   -1    0    0    0  501 -0.00000000000E+00  0.00000000000E+00  0.24123073945E+03  0.24123073945E+03  0.00000000000E+00 0.  1.
          2   -1    0    0  502    0  0.00000000000E+00 -0.00000000000E+00 -0.65333376339E+03  0.65333376339E+03  0.00000000000E+00 0.  1.
         25    1    1    2    0    0  0.10085548775E+03 -0.18506198149E+03  0.11506685710E+03  0.27071229748E+03  0.12500000000E+03 0.  0.
          2    1    1    2  502    0 -0.14023278604E+02 -0.19684332716E+02 -0.31680105967E+03  0.31772163399E+03  0.00000000000E+00 0.  1.
         -2    1    1    2    0  501 -0.86832209146E+02  0.20474631421E+03 -0.21036882136E+03  0.30613057137E+03  0.00000000000E+00 0.  1.
<mgrwt>
<rscale>  4 0.24720068E+03</rscale>
<asrwt>0</asrwt>
<pdfrwt beam="1">  1        2 0.10051289E+00 0.24720068E+03</pdfrwt>
<pdfrwt beam="2">  1       -2 0.37112422E-01 0.24720068E+03</pdfrwt>
<totfact> 0.31667896E+02</totfact>
</mgrwt>
</event>
<event>
 5    0  0.1226227E+000  0.2910358E+03  0.7546771E-02  0.1089810E+00
          2   -1    0    0  502    0  0.00000000000E+00  0.00000000000E+00  0.19079985485E+04  0.19079985485E+04  0.00000000000E+00 0.  1.
          2   -1    0    0  501    0 -0.00000000000E+00 -0.00000000000E+00 -0.27931497492E+03  0.27931497492E+03  0.00000000000E+00 0.  1.
         25    1    1    2    0    0 -0.23861191185E+03  0.17450771781E+03  0.39230038009E+03  0.50686603384E+03  0.12500000000E+03 0.  0.
          2    1    1    2  501    0  0.33039063276E+02 -0.19635733090E+02  0.13834686849E+04  0.13840024364E+04  0.00000000000E+00 0.  1.
          2    1    1    2  502    0  0.20557284857E+03 -0.15487198472E+03 -0.14708549150E+03  0.29644505314E+03  0.00000000000E+00 0.  1.
<mgrwt>
<rscale>  4 0.29103583E+03</rscale>
<asrwt>0</asrwt>
<pdfrwt beam="1">  1        2 0.29353823E+00 0.29103583E+03</pdfrwt>
<pdfrwt beam="2">  1        2 0.42971536E-01 0.29103583E+03</pdfrwt>
<totfact> 0.15169882E+02</totfact>
</mgrwt>
</event>
<event>
 5    0  0.1226227E+000  0.3264100E+03  0.7546771E-02  0.1072736E+00
         -2   -1    0    0    0  501 -0.00000000000E+00  0.00000000000E+00  0.17885809886E+04  0.17885809886E+04  0.00000000000E+00 0.  1.
          2   -1    0    0  502    0  0.00000000000E+00 -0.00000000000E+00 -0.25209571256E+03  0.25209571256E+03  0.00000000000E+00 0.  1.
         25    1    1    2    0    0 -0.41458507656E+02  0.24094209424E+03  0.36313203107E+03  0.45526011534E+03  0.12500000000E+03 0.  0.
          2    1    1    2  502    0 -0.17127069165E+03 -0.29202030034E+03 -0.50391263348E+02  0.34227004697E+03  0.00000000000E+00 0.  1.
         -2    1    1    2    0  501  0.21272919931E+03  0.51078206101E+02  0.12237445083E+04  0.12431465388E+04  0.00000000000E+00 0.  1.
<mgrwt>
<rscale>  4 0.32641001E+03</rscale>
<asrwt>0</asrwt>
<pdfrwt beam="1">  1        2 0.38783957E-01 0.32641001E+03</pdfrwt>
<pdfrwt beam="2">  1       -2 0.27516630E+00 0.32641001E+03</pdfrwt>
<totfact> 0.66868850E+00</totfact>
</mgrwt>
</event>
<event>
 5    0  0.1226227E+000  0.2654408E+03  0.7546771E-02  0.1103918E+00
          2   -1    0    0  502    0  0.00000000000E+00  0.00000000000E+00  0.17587391235E+04  0.17587391235E+04  0.00000000000E+00 0.  1.
          1   -1    0    0  501    0 -0.00000000000E+00 -0.00000000000E+00 -0.11742345334E+03  0.11742345334E+03  0.00000000000E+00 0. -1.
         25    1    1    2    0    0  0.18431930783E+03  0.19349340215E+03  0.76695312878E+03  0.82173925649E+03  0.12500000000E+03 0.  0.
          2    1    1    2  501    0 -0.15874165426E+03 -0.15103530520E+03  0.94391657104E+03  0.96901448353E+03  0.00000000000E+00 0.  1.
          1    1    1    2  502    0 -0.25577653569E+02 -0.42458096948E+02 -0.69554029676E+02  0.85408836795E+02  0.00000000000E+00 0. -1.
<mgrwt>
<rscale>  4 0.26544084E+03</rscale>
<asrwt>0</asrwt>
<pdfrwt beam="1">  1        2 0.27057523E+00 0.26544084E+03</pdfrwt>
<pdfrwt beam="2">  1        1 0.18065148E-01 0.26544084E+03</pdfrwt>
<totfact> 0.39502092E+02</totfact>
</mgrwt>
</event>
<event>
 5    0  0.1226227E+000  0.3001814E+03  0.7546771E-02  0.1085150E+00
          2   -1    0    0  502    0  0.00000000000E+00  0.00000000000E+00  0.13363320393E+03  0.13363320393E+03  0.00000000000E+00 0. -1.
          2   -1    0    0  501    0 -0.00000000000E+00 -0.00000000000E+00 -0.28858611280E+04  0.28858611280E+04  0.00000000000E+00 0.  1.
         25    1    1    2    0    0 -0.51045902925E+02 -0.29679444658E+03 -0.57024149307E+03  0.65688125879E+03  0.12500000000E+03 0.  0.
          2    1    1    2  501    0  0.99219363093E+02  0.24623990798E+03 -0.10664546734E+03  0.28609758825E+03  0.00000000000E+00 0. -1.
          2    1    1    2  502    0 -0.48173460168E+02  0.50554538593E+02 -0.20753409636E+04  0.20765154849E+04  0.00000000000E+00 0.  1.
<mgrwt>
<rscale>  4 0.30018144E+03</rscale>
<asrwt>0</asrwt>
<pdfrwt beam="1">  1        2 0.20558955E-01 0.30018144E+03</pdfrwt>
<pdfrwt beam="2">  1        2 0.44397861E+00 0.30018144E+03</pdfrwt>
<totfact> 0.10013309E+02</totfact>
</mgrwt>
</event>
<event>
 5    0  0.1226227E+000  0.2783122E+03  0.7546771E-02  0.1096614E+00
          3   -1    0    0  501    0 -0.00000000000E+00  0.00000000000E+00  0.26617637427E+03  0.26617637427E+03  0.00000000000E+00 0.  1.
          2   -1    0    0  502    0  0.00000000000E+00 -0.00000000000E+00 -0.22354636905E+04  0.22354636905E+04  0.00000000000E+00 0. -1.
         25    1    1    2    0    0  0.16890956088E+03  0.23247770680E+03 -0.25730311804E+03  0.40547036695E+03  0.12500000000E+03 0.  0.
          2    1    1    2  501    0 -0.11608218212E+03 -0.21551326576E+03 -0.18920141261E+04  0.19077836602E+04  0.00000000000E+00 0. -1.
          3    1    1    2  502    0 -0.52827378756E+02 -0.16964441043E+02  0.18002992795E+03  0.18838603760E+03  0.00000000000E+00 0.  1.
<mgrwt>
<rscale>  4 0.27831218E+03</rscale>
<asrwt>0</asrwt>
<pdfrwt beam="1">  1        2 0.34391749E+00 0.27831218E+03</pdfrwt>
<pdfrwt beam="2">  1        3 0.40950211E-01 0.27831218E+03</pdfrwt>
<totfact> 0.20712510E+01</totfact>
</mgrwt>
</event>
<event>
 5    0  0.1226227E+000  0.2732262E+03  0.7546771E-02  0.1099447E+00
          2   -1    0    0  502    0  0.00000000000E+00  0.00000000000E+00  0.14842667861E+04  0.14842667861E+04  0.00000000000E+00 0.  1.
          2   -1    0    0  501    0 -0.00000000000E+00 -0.00000000000E+00 -0.50343474382E+02  0.50343474382E+02  0.00000000000E+00 0.  1.
         25    1    1    2    0    0  0.64722290696E+02 -0.24121485913E+03  0.87495754100E+03  0.91844938986E+03  0.12500000000E+03 0.  0.
          2    1    1    2  501    0 -0.18140153741E+02  0.10404437647E+02  0.25067248279E+02  0.32644822510E+02  0.00000000000E+00 0.  1.
          2    1    1    2  502    0 -0.46582136955E+02  0.23081042148E+03  0.53389852248E+03  0.58351604816E+03  0.00000000000E+00 0.  1.
<mgrwt>
<rscale>  4 0.27322624E+03</rscale>
<asrwt>0</asrwt>
<pdfrwt beam="1">  1        2 0.22834870E+00 0.27322624E+03</pdfrwt>
<pdfrwt beam="2">  1        2 0.77451510E-02 0.27322624E+03</pdfrwt>
<totfact> 0.19005215E+03</totfact>
</mgrwt>
</event>
<event>
 5    0  0.1226227E+000  0.3040862E+03  0.7546771E-02  0.1083216E+00
          1   -1    0    0  501    0  0.00000000000E+00  0.00000000000E+00  0.28262240181E+03  0.28262240181E+03  0.00000000000E+00 0.  1.
         -2   -1    0    0    0  501 -0.00000000000E+00 -0.00000000000E+00 -0.57866916796E+03  0.57866916796E+03  0.00000000000E+00 0.  1.
         25    1    1    2    0    0  0.14073610128E+03  0.20042965921E+03 -0.11291850555E+03  0.29724449093E+03  0.12500000000E+03 0.  0.
          1    1    1    2  502    0 -0.17070167822E+03 -0.24120565936E+03  0.71840218418E+02  0.30410565604E+03  0.00000000000E+00 0.  1.
         -2    1    1    2    0  502  0.29965576943E+02  0.40776000144E+02 -0.25496847902E+03  0.25994142279E+03  0.00000000000E+00 0.  1.
<mgrwt>
<rscale>  4 0.30408616E+03</rscale>
<asrwt>0</asrwt>
<pdfrwt beam="1">  1        1 0.43480369E-01 0.30408616E+03</pdfrwt>
<pdfrwt beam="2">  1       -2 0.89026026E-01 0.30408616E+03</pdfrwt>
<totfact> 0.93600077E+01</totfact>
</mgrwt>
</event>
<event>
 5    0  0.1226227E+000  0.2508199E+03  0.7546771E-02  0.1112788E+00
          2   -1    0    0  502    0  0.00000000000E+00  0.00000000000E+00  0.10922971189E+04  0.10922971189E+04  0.00000000000E+00 0. -1.
          1   -1    0    0  501    0 -0.00000000000E+00 -0.00000000000E+00 -0.34518598793E+03  0.34518598793E+03  0.00000000000E+00 0. -1.
         25    1    1    2    0    0 -0.23854510480E+03  0.19392034320E+02  0.33286681252E+03  0.42860836774E+03  0.12500000000E+03 0.  0.
          2    1    1    2  501    0  0.23689639603E+02 -0.68955276228E+01  0.67235584269E+03  0.67280838767E+03  0.00000000000E+00 0. -1.
          1    1    1    2  502    0  0.21485546520E+03 -0.12496506697E+02 -0.25811152424E+03  0.33606635141E+03  0.00000000000E+00 0. -1.
<mgrwt>
<rscale>  4 0.25081993E+03</rscale>
<asrwt>0</asrwt>
<pdfrwt beam="1">  1        2 0.16804571E+00 0.25081993E+03</pdfrwt>
<pdfrwt beam="2">  1        1 0.53105537E-01 0.25081993E+03</pdfrwt>
<totfact> 0.23250604E+02</totfact>
</mgrwt>
</event>
<event>
 5    0  0.1226227E+000  0.2942941E+03  0.7546771E-02  0.1088128E+00
         -1   -1    0    0    0  501 -0.00000000000E+00  0.00000000000E+00  0.10572830596E+04  0.10572830596E+04  0.00000000000E+00 0.  1.
          1   -1    0    0  502    0  0.00000000000E+00 -0.00000000000E+00 -0.11842199348E+04  0.11842199348E+04  0.00000000000E+00 0. -1.
         25    1    1    2    0    0  0.18160413913E+03  0.84036566183E+02  0.14341809475E+03  0.27610859766E+03  0.12500000000E+03 0.  0.
          1    1    1    2  502    0 -0.97817886698E+02  0.23106210791E+03 -0.10714772395E+04  0.11004642254E+04  0.00000000000E+00 0. -1.
         -1    1    1    2    0  501 -0.83786252429E+02 -0.31509867409E+03  0.80112226950E+03  0.86493017128E+03  0.00000000000E+00 0.  1.
<mgrwt>
<rscale>  4 0.29429414E+03</rscale>
<asrwt>0</asrwt>
<pdfrwt beam="1">  1        1 0.18218768E+00 0.29429414E+03</pdfrwt>
<pdfrwt beam="2">  1       -1 0.16265893E+00 0.29429414E+03</pdfrwt>
<totfact> 0.36079756E+00</totfact>
</mgrwt>
</event>
<event>
 5    0  0.1226227E+000  0.3031737E+03  0.7546771E-02  0.1083665E+00
          2   -1    0    0  501    0  0.00000000000E+00  0.00000000000E+00  0.62990071251E+03  0.62990071251E+03  0.00000000000E+00 0. -1.
         -3   -1    0    0    0  501 -0.00000000000E+00 -0.00000000000E+00 -0.14600143337E+04  0.14600143337E+04  0.00000000000E+00 0. -1.
         25    1    1    2    0    0  0.22370612541E+02 -0.25249745798E+03 -0.32228839224E+02  0.28446284234E+03  0.12500000000E+03 0.  0.
          2    1    1    2  502    0 -0.26167871976E+03  0.80289025904E+02  0.44808599427E+03  0.52507441217E+03  0.00000000000E+00 0. -1.
         -3    1    1    2    0  502  0.23930810722E+03  0.17220843208E+03 -0.12459707762E+04  0.12803777917E+04  0.00000000000E+00 0. -1.
<mgrwt>
<rscale>  4 0.30317370E+03</rscale>
<asrwt>0</asrwt>
<pdfrwt beam="1">  1        2 0.96907802E-01 0.30317370E+03</pdfrwt>
<pdfrwt beam="2">  1       -3 0.22461759E+00 0.30317370E+03</pdfrwt>
<totfact> 0.32859266E+00</totfact>
</mgrwt>
</event>
<event>
 5    0  0.1226227E+000  0.2429627E+03  0.7546771E-02  0.1117835E+00
         -4   -1    0    0    0  501 -0.00000000000E+00  0.00000000000E+00  0.91003153618E+03  0.91003153618E+03  0.00000000000E+00 0. -1.
          2   -1    0    0  501    0  0.00000000000E+00 -0.00000000000E+00 -0.36292088096E+03  0.36292088096E+03  0.00000000000E+00 0. -1.
         25    1    1    2    0    0 -0.28468432987E+03 -0.68767503052E+02  0.14313022828E+01  0.31843552844E+03  0.12500000000E+03 0.  0.
          2    1    1    2  502    0  0.83317541931E+02  0.62484576894E+02 -0.17640561463E+03  0.20485379180E+03  0.00000000000E+00 0. -1.
         -4    1    1    2    0  502  0.20136678794E+03  0.62829261589E+01  0.72208496757E+03  0.74966309689E+03  0.00000000000E+00 0. -1.
<mgrwt>
<rscale>  4 0.24296271E+03</rscale>
<asrwt>0</asrwt>
<pdfrwt beam="1">  1        2 0.55833982E-01 0.24296271E+03</pdfrwt>
<pdfrwt beam="2">  1       -4 0.14000485E+00 0.24296271E+03</pdfrwt>
<totfact> 0.17590549E+01</totfact>
</mgrwt>
</event>
<event>
 5    0  0.1226227E+000  0.2640052E+03  0.7546771E-02  0.1104760E+00
          2   -1    0    0  502    0  0.00000000000E+00  0.00000000000E+00  0.10123417449E+04  0.10123417449E+04  0.00000000000E+00 0.  1.
          1   -1    0    0  501    0 -0.00000000000E+00 -0.00000000000E+00 -0.21342848640E+03  0.21342848640E+03  0.00000000000E+00 0.  1.
         25    1    1    2    0    0  0.18558790828E+03  0.10434505102E+03  0.30305664698E+03  0.39089524511E+03  0.12500000000E+03 0.  0.
          2    1    1    2  501    0 -0.20508828024E+03 -0.12947223469E+03  0.64149001794E+03  0.68580879651E+03  0.00000000000E+00 0.  1.
          1    1    1    2  502    0  0.19500371953E+02  0.25127183666E+02 -0.14563340638E+03  0.14906618972E+03  0.00000000000E+00 0.  1.
<mgrwt>
<rscale>  4 0.26400521E+03</rscale>
<asrwt>0</asrwt>
<pdfrwt beam="1">  1        2 0.15574488E+00 0.26400521E+03</pdfrwt>
<pdfrwt beam="2">  1        1 0.32835152E-01 0.26400521E+03</pdfrwt>
<totfact> 0.47509418E+02</totfact>
</mgrwt>
</event>
<event>
 5    0  0.1226227E+000  0.2747529E+03  0.7546771E-02  0.1098590E+00
          2   -1    0    0  502    0  0.00000000000E+00  0.00000000000E+00  0.25672187326E+03  0.25672187326E+03  0.00000000000E+00 0.  1.
          2   -1    0    0  501    0 -0.00000000000E+00 -0.00000000000E+00 -0.83723541593E+03  0.83723541593E+03  0.00000000000E+00 0.  1.
         25    1    1    2    0    0 -0.12153283526E+03  0.21686660141E+03 -0.71883011729E+03  0.77080677889E+03  0.12500000000E+03 0.  0.
          2    1    1    2  501    0  0.49520791372E+02 -0.14047233053E+02 -0.20775945409E+02  0.55509219434E+02  0.00000000000E+00 0.  1.
          2    1    1    2  502    0  0.72012043884E+02 -0.20281936836E+03  0.15909252003E+03  0.26764129086E+03  0.00000000000E+00 0.  1.
<mgrwt>
<rscale>  4 0.27475288E+03</rscale>
<asrwt>0</asrwt>
<pdfrwt beam="1">  1        2 0.39495672E-01 0.27475288E+03</pdfrwt>
<pdfrwt beam="2">  1        2 0.12880545E+00 0.27475288E+03</pdfrwt>
<totfact> 0.67116193E+02</totfact>
</mgrwt>
</event>
<event>
 5    0  0.1226227E+000  0.2642274E+03  0.7546771E-02  0.1104630E+00
          1   -1    0    0  501    0  0.00000000000E+00  0.00000000000E+00  0.42665054377E+03  0.42665054377E+03  0.00000000000E+00 0.  1.
         -3   -1    0    0    0  501 -0.00000000000E+00 -0.00000000000E+00 -0.24080847774E+03  0.24080847774E+03  0.00000000000E+00 0.  1.
         25    1    1    2    0    0 -0.18922420546E+03 -0.21868787566E+03  0.62306619404E+01  0.31510951754E+03  0.12500000000E+03 0.  0.
          1    1    1    2  502    0  0.10819925990E+03  0.62733209301E+02  0.53473837459E+02  0.13602200809E+03  0.00000000000E+00 0.  1.
         -3    1    1    2    0  502  0.81024945566E+02  0.15595466636E+03  0.12613756663E+03  0.21632749589E+03  0.00000000000E+00 0.  1.
<mgrwt>
<rscale>  4 0.26422740E+03</rscale>
<asrwt>0</asrwt>
<pdfrwt beam="1">  1        1 0.65638545E-01 0.26422740E+03</pdfrwt>
<pdfrwt beam="2">  1       -3 0.37047458E-01 0.26422740E+03</pdfrwt>
<totfact> 0.21984648E+02</totfact>
</mgrwt>
</event>
<event>
 5    0  0.1226227E+000  0.2561900E+03  0.7546771E-02  0.1109454E+00
          1   -1    0    0  501    0 -0.00000000000E+00  0.00000000000E+00  0.33305511476E+03  0.33305511476E+03  0.00000000000E+00 0. -1.
          2   -1    0    0  502    0  0.00000000000E+00 -0.00000000000E+00 -0.78867311031E+03  0.78867311031E+03  0.00000000000E+00 0. -1.
         25    1    1    2    0    0  0.19173623690E+03 -0.13613039110E+03  0.57707182015E+02  0.27248740664E+03  0.12500000000E+03 0.  0.
          2    1    1    2  501    0 -0.95670119962E+01  0.19598869585E+02 -0.61139931720E+03  0.61178817288E+03  0.00000000000E+00 0. -1.
          1    1    1    2  502    0 -0.18216922491E+03  0.11653152151E+03  0.98074139636E+02  0.23745264554E+03  0.00000000000E+00 0. -1.
<mgrwt>
<rscale>  4 0.25618995E+03</rscale>
<asrwt>0</asrwt>
<pdfrwt beam="1">  1        2 0.12133432E+00 0.25618995E+03</pdfrwt>
<pdfrwt beam="2">  1        1 0.51239248E-01 0.25618995E+03</pdfrwt>
<totfact> 0.37914472E+02</totfact>
</mgrwt>
</event>
<event>
 5    0  0.1226227E+000  0.2580647E+03  0.7546771E-02  0.1108312E+00
          2   -1    0    0  502    0  0.00000000000E+00  0.00000000000E+00  0.27105075589E+04  0.27105075589E+04  0.00000000000E+00 0. -1.
          1   -1    0    0  501    0 -0.00000000000E+00 -0.00000000000E+00 -0.46929630464E+02  0.46929630464E+02  0.00000000000E+00 0. -1.
         25    1    1    2    0    0  0.10241299148E+03 -0.19527635696E+03  0.41419410648E+03  0.48559554596E+03  0.12500000000E+03 0.  0.
          2    1    1    2  501    0  0.45630550332E+02  0.31644238889E+00  0.84878127710E+03  0.85000700209E+03  0.00000000000E+00 0. -1.
          1    1    1    2  502    0 -0.14804354181E+03  0.19495991457E+03  0.14006025449E+04  0.14218346413E+04  0.00000000000E+00 0. -1.
<mgrwt>
<rscale>  4 0.25806473E+03</rscale>
<asrwt>0</asrwt>
<pdfrwt beam="1">  1        2 0.41700104E+00 0.25806473E+03</pdfrwt>
<pdfrwt beam="2">  1        1 0.72199453E-02 0.25806473E+03</pdfrwt>
<totfact> 0.41665845E+02</totfact>
</mgrwt>
</event>
<event>
 5    0  0.1226227E+000  0.2767820E+03  0.7546771E-02  0.1097460E+00
          2   -1    0    0  502    0  0.00000000000E+00  0.00000000000E+00  0.28282253466E+03  0.28282253466E+03  0.00000000000E+00 0. -1.
          4   -1    0    0  501    0 -0.00000000000E+00 -0.00000000000E+00 -0.92246393817E+03  0.92246393817E+03  0.00000000000E+00 0.  1.
         25    1    1    2    0    0  0.85722309515E+02 -0.20032938602E+03 -0.16137877336E+03  0.29857710184E+03  0.12500000000E+03 0.  0.
          2    1    1    2  501    0  0.41628005429E+02 -0.23479948772E+02  0.18717779542E+03  0.19318314090E+03  0.00000000000E+00 0. -1.
          4    1    1    2  502    0 -0.12735031494E+03  0.22380933479E+03 -0.66544042557E+03  0.71352623010E+03  0.00000000000E+00 0.  1.
<mgrwt>
<rscale>  4 0.27678203E+03</rscale>
<asrwt>0</asrwt>
<pdfrwt beam="1">  1        2 0.43511159E-01 0.27678203E+03</pdfrwt>
<pdfrwt beam="2">  1        4 0.14191753E+00 0.27678203E+03</pdfrwt>
<totfact> 0.22249694E+01</totfact>
</mgrwt>
</event>
<event>
 5    0  0.1226227E+000  0.2063935E+03  0.7546771E-02  0.1144454E+00
          2   -1    0    0  502    0  0.00000000000E+00  0.00000000000E+00  0.13214082203E+04  0.13214082203E+04  0.00000000000E+00 0.  1.
          1   -1    0    0  501    0 -0.00000000000E+00 -0.00000000000E+00 -0.18977349988E+03  0.18977349988E+03  0.00000000000E+00 0.  1.
         25    1    1    2    0    0  0.20249888500E+03  0.44374192088E+02  0.61096200615E+03  0.65717154557E+03  0.12500000000E+03 0.  0.
          2    1    1    2  501    0 -0.42191829747E+02 -0.70061393467E+02  0.64459828605E+03  0.64976588071E+03  0.00000000000E+00 0.  1.
          1    1    1    2  502    0 -0.16030705525E+03  0.25687201379E+02 -0.12392557174E+03  0.20424429395E+03  0.00000000000E+00 0.  1.
<mgrwt>
<rscale>  4 0.20639346E+03</rscale>
<asrwt>0</asrwt>
<pdfrwt beam="1">  1        2 0.20329357E+00 0.20639346E+03</pdfrwt>
<pdfrwt beam="2">  1        1 0.29195924E-01 0.20639346E+03</pdfrwt>
<totfact> 0.37040747E+02</totfact>
</mgrwt>
</event>
<event>
 5    0  0.1226227E+000  0.2528087E+03  0.7546771E-02  0.1111543E+00
          1   -1    0    0  501    0 -0.00000000000E+00  0.00000000000E+00  0.10704736911E+03  0.10704736911E+03  0.00000000000E+00 0. -1.
          2   -1    0    0  502    0  0.00000000000E+00 -0.00000000000E+00 -0.21085113175E+04  0.21085113175E+04  0.00000000000E+00 0.  1.
         25    1    1    2    0    0 -0.23646620910E+03  0.41412438138E+02 -0.29689224624E+03  0.40174776161E+03  0.12500000000E+03 0.  0.
          2    1    1    2  501    0  0.21313320786E+03 -0.41557950146E+02 -0.17496384179E+04  0.17630619447E+04  0.00000000000E+00 0.  1.
          1    1    1    2  502    0  0.23333001241E+02  0.14551200823E+00  0.45066715813E+02  0.50748980234E+02  0.00000000000E+00 0. -1.
<mgrwt>
<rscale>  4 0.25280872E+03</rscale>
<asrwt>0</asrwt>
<pdfrwt beam="1">  1        2 0.32438638E+00 0.25280872E+03</pdfrwt>
<pdfrwt beam="2">  1        1 0.16468825E-01 0.25280872E+03</pdfrwt>
<totfact> 0.29290637E+02</totfact>
</mgrwt>
</event>
<event>
 5    0  0.1226227E+000  0.3052873E+03  0.7546771E-02  0.1082627E+00
          1   -1    0    0  501    0 -0.00000000000E+00  0.00000000000E+00  0.21122250762E+03  0.21122250762E+03  0.00000000000E+00 0. -1.
          2   -1    0    0  502    0  0.00000000000E+00 -0.00000000000E+00 -0.10801299231E+04  0.10801299231E+04  0.00000000000E+00 0. -1.
         25    1    1    2    0    0 -0.99997869444E+02  0.24597802763E+03 -0.11361192975E+03  0.31470213623E+03  0.12500000000E+03 0.  0.
          2    1    1    2  501    0  0.15522590775E+03 -0.23602866366E+03 -0.83368351868E+03  0.88024588714E+03  0.00000000000E+00 0. -1.
          1    1    1    2  502    0 -0.55228038311E+02 -0.99493639634E+01  0.78388032912E+02  0.96404407382E+02  0.00000000000E+00 0. -1.
<mgrwt>
<rscale>  4 0.30528731E+03</rscale>
<asrwt>0</asrwt>
<pdfrwt beam="1">  1        2 0.16617383E+00 0.30528731E+03</pdfrwt>
<pdfrwt beam="2">  1        1 0.32495772E-01 0.30528731E+03</pdfrwt>
<totfact> 0.43538486E+02</totfact>
</mgrwt>
</event>
<event>
 5    0  0.1226227E+000  0.4455358E+03  0.7546771E-02  0.1029062E+00
          2   -1    0    0  502    0  0.00000000000E+00  0.00000000000E+00  0.51420662612E+03  0.51420662612E+03  0.00000000000E+00 0. -1.
          1   -1    0    0  501    0 -0.00000000000E+00 -0.00000000000E+00 -0.99535068405E+03  0.99535068405E+03  0.00000000000E+00 0.  1.
         25    1    1    2    0    0 -0.30577676749E+02  0.45657483437E+03 -0.39794509849E+03  0.61917757962E+03  0.12500000000E+03 0.  0.
          2    1    1    2  501    0  0.23916938950E+02 -0.42047946757E+03  0.29257908352E+03  0.51281334102E+03  0.00000000000E+00 0. -1.
          1    1    1    2  502    0  0.66607377990E+01 -0.36095366800E+02 -0.37577804296E+03  0.37756638953E+03  0.00000000000E+00 0.  1.
<mgrwt>
<rscale>  4 0.44553581E+03</rscale>
<asrwt>0</asrwt>
<pdfrwt beam="1">  1        2 0.79108711E-01 0.44553581E+03</pdfrwt>
<pdfrwt beam="2">  1        1 0.15313088E+00 0.44553581E+03</pdfrwt>
<totfact> 0.12848547E+02</totfact>
</mgrwt>
</event>
<event>
 5    0  0.1226227E+000  0.3023404E+03  0.7546771E-02  0.1084076E+00
          3   -1    0    0  501    0 -0.00000000000E+00  0.00000000000E+00  0.49012639133E+03  0.49012639133E+03  0.00000000000E+00 0. -1.
          1   -1    0    0  502    0  0.00000000000E+00 -0.00000000000E+00 -0.70797610145E+03  0.70797610145E+03  0.00000000000E+00 0. -1.
         25    1    1    2    0    0  0.26003772224E+03 -0.79626341875E+01  0.40672358557E+03  0.49873048391E+03  0.12500000000E+03 0.  0.
          1    1    1    2  501    0 -0.27331742380E+03  0.41608885673E+02 -0.57492795918E+03  0.63794660573E+03  0.00000000000E+00 0. -1.
          3    1    1    2  502    0  0.13279701562E+02 -0.33646251485E+02 -0.49645336507E+02  0.61425403128E+02  0.00000000000E+00 0. -1.
<mgrwt>
<rscale>  4 0.30234038E+03</rscale>
<asrwt>0</asrwt>
<pdfrwt beam="1">  1        1 0.10891940E+00 0.30234038E+03</pdfrwt>
<pdfrwt beam="2">  1        3 0.75404060E-01 0.30234038E+03</pdfrwt>
<totfact> 0.25608260E+01</totfact>
</mgrwt>
</event>
<event>
 5    0  0.1226227E+000  0.3239009E+03  0.7546771E-02  0.1073868E+00
          2   -1    0    0  502    0  0.00000000000E+00  0.00000000000E+00  0.25458167021E+04  0.25458167021E+04  0.00000000000E+00 0.  1.
          1   -1    0    0  501    0 -0.00000000000E+00 -0.00000000000E+00 -0.69794172224E+02  0.69794172224E+02  0.00000000000E+00 0. -1.
         25    1    1    2    0    0  0.23583100773E+03  0.86207134850E+02  0.13119700910E+04  0.13416178494E+04  0.12500000000E+03 0.  0.
          2    1    1    2  501    0  0.66263815062E+02  0.53401721846E+01  0.75197236474E+03  0.75490519137E+03  0.00000000000E+00 0.  1.
          1    1    1    2  502    0 -0.30209482279E+03 -0.91547307035E+02  0.41208007414E+03  0.51908783350E+03  0.00000000000E+00 0. -1.
<mgrwt>
<rscale>  4 0.32390087E+03</rscale>
<asrwt>0</asrwt>
<pdfrwt beam="1">  1        2 0.39166404E+00 0.32390087E+03</pdfrwt>
<pdfrwt beam="2">  1        1 0.10737567E-01 0.32390087E+03</pdfrwt>
<totfact> 0.29489317E+02</totfact>
</mgrwt>
</event>
<event>
 5    0  0.1226227E+000  0.2185268E+03  0.7546771E-02  0.1134986E+00
          1   -1    0    0  501    0 -0.00000000000E+00  0.00000000000E+00  0.26030930740E+03  0.26030930740E+03  0.00000000000E+00 0. -1.
          2   -1    0    0  502    0  0.00000000000E+00 -0.00000000000E+00 -0.73485263048E+03  0.73485263048E+03  0.00000000000E+00 0.  1.
         25    1    1    2    0    0  0.13356984530E+03 -0.18462314412E+03  0.47611810481E+01  0.25995052945E+03  0.12500000000E+03 0.  0.
          2    1    1    2  501    0 -0.22097848784E+02  0.69384289460E+02 -0.55369528312E+03  0.55846303467E+03  0.00000000000E+00 0.  1.
          1    1    1    2  502    0 -0.11147199651E+03  0.11523885466E+03  0.74390778988E+02  0.17674837377E+03  0.00000000000E+00 0. -1.
<mgrwt>
<rscale>  4 0.21852676E+03</rscale>
<asrwt>0</asrwt>
<pdfrwt beam="1">  1        2 0.11305425E+00 0.21852676E+03</pdfrwt>
<pdfrwt beam="2">  1        1 0.40047587E-01 0.21852676E+03</pdfrwt>
<totfact> 0.56815315E+02</totfact>
</mgrwt>
</event>
