<event>
 5    0  0.1702508E-001  0.2601504E+03  0.7546771E-02  0.1107053E+00
         21   -1    0    0  503  502  0.00000000000E+00  0.00000000000E+00  0.66947069316E+03  0.66947069316E+03  0.00000000000E+00 0.  1.
         21   -1    0    0  501  503 -0.00000000000E+00 -0.00000000000E+00 -0.25909518996E+03  0.25909518996E+03  0.00000000000E+00 0. -1.
         25    1    1    2    0    0  0.19897791165E+03  0.11091217154E+03  0.55965738471E+03  0.61703736304E+03  0.12500000000E+03 0.  0.
          1    1    1    2  501    0 -0.21946286240E+03 -0.79307526515E+02 -0.14201798419E+03  0.27317163024E+03  0.00000000000E+00 0. -1.
         -1    1    1    2    0  502  0.20484950749E+02 -0.31604645027E+02 -0.72638973155E+01  0.38356889846E+02  0.00000000000E+00 0.  1.
<mgrwt>
<rscale>  4 0.26015039E+03</rscale>
<asrwt>0</asrwt>
<pdfrwt beam="1">  1       21 0.10299549E+00 0.26015039E+03</pdfrwt>
<pdfrwt beam="2">  1       21 0.39860799E-01 0.26015039E+03</pdfrwt>
<totfact> 0.44235705E+03</totfact>
</mgrwt>
</event>
<event>
 5    0  0.1702508E-001  0.2708346E+03  0.7546771E-02  0.1100803E+00
         21   -1    0    0  503  502  0.00000000000E+00  0.00000000000E+00  0.18541253956E+03  0.18541253956E+03  0.00000000000E+00 0.  1.
         21   -1    0    0  501  503 -0.00000000000E+00 -0.00000000000E+00 -0.84288196308E+03  0.84288196308E+03  0.00000000000E+00 0. -1.
         25    1    1    2    0    0  0.13373373600E+03 -0.16645283210E+03 -0.30177251831E+03  0.39023442988E+03  0.12500000000E+03 0.  0.
          2    1    1    2  501    0 -0.16409784414E+03  0.18706533688E+03  0.29981025320E+02  0.25063999001E+03  0.00000000000E+00 0.  1.
         -2    1    1    2    0  502  0.30364108138E+02 -0.20612504772E+02 -0.38567793053E+03  0.38742008274E+03  0.00000000000E+00 0. -1.
<mgrwt>
<rscale>  4 0.27083463E+03</rscale>
<asrwt>0</asrwt>
<pdfrwt beam="1">  1       21 0.28525007E-01 0.27083463E+03</pdfrwt>
<pdfrwt beam="2">  1       21 0.12967415E+00 0.27083463E+03</pdfrwt>
<totfact> 0.48376516E+03</totfact>
</mgrwt>
</event>
<event>
 5    0  0.1702508E-001  0.3499433E+03  0.7546771E-02  0.1062638E+00
         21   -1    0    0  503  502  0.00000000000E+00  0.00000000000E+00  0.10083219845E+04  0.10083219845E+04  0.00000000000E+00 0.  1.
         21   -1    0    0  501  503 -0.00000000000E+00 -0.00000000000E+00 -0.57982283341E+03  0.57982283341E+03  0.00000000000E+00 0. -1.
         25    1    1    2    0    0 -0.26986726856E+03  0.17891617080E+03  0.82738833121E+03  0.89723786670E+03  0.12500000000E+03 0.  0.
          3    1    1    2  501    0  0.29075347110E+03 -0.18539099504E+03 -0.58428302074E+02  0.34974457606E+03  0.00000000000E+00 0.  1.
         -3    1    1    2    0  502 -0.20886202542E+02  0.64748242389E+01 -0.34046087800E+03  0.34116237521E+03  0.00000000000E+00 0. -1.
<mgrwt>
<rscale>  4 0.34994333E+03</rscale>
<asrwt>0</asrwt>
<pdfrwt beam="1">  1       21 0.15512646E+00 0.34994333E+03</pdfrwt>
<pdfrwt beam="2">  1       21 0.89203513E-01 0.34994333E+03</pdfrwt>
<totfact> 0.25451104E+02</totfact>
</mgrwt>
</event>
<event>
 5    0  0.1702508E-001  0.2399099E+03  0.7546771E-02  0.1119853E+00
         21   -1    0    0  503  502  0.00000000000E+00  0.00000000000E+00  0.44152044262E+03  0.44152044262E+03  0.00000000000E+00 0.  1.
         21   -1    0    0  501  503 -0.00000000000E+00 -0.00000000000E+00 -0.25351856251E+03  0.25351856251E+03  0.00000000000E+00 0.  1.
         25    1    1    2    0    0 -0.66373855978E+02 -0.19361347095E+03  0.32853510320E+03  0.40675788735E+03  0.12500000000E+03 0.  0.
          2    1    1    2  501    0  0.38975988046E+02 -0.13082836199E+02 -0.37767866721E+02  0.55827412656E+02  0.00000000000E+00 0. -1.
         -2    1    1    2    0  502  0.27397867932E+02  0.20669630714E+03 -0.10276535637E+03  0.23245370512E+03  0.00000000000E+00 0.  1.
<mgrwt>
<rscale>  4 0.23990987E+03</rscale>
<asrwt>0</asrwt>
<pdfrwt beam="1">  1       21 0.67926222E-01 0.23990987E+03</pdfrwt>
<pdfrwt beam="2">  1       21 0.39002856E-01 0.23990987E+03</pdfrwt>
<totfact> 0.12186669E+04</totfact>
</mgrwt>
</event>
<event>
 5    0  0.1702508E-001  0.2866992E+03  0.7546771E-02  0.1092085E+00
         21   -1    0    0  503  502  0.00000000000E+00  0.00000000000E+00  0.64845421112E+03  0.64845421112E+03  0.00000000000E+00 0.  1.
         21   -1    0    0  501  503 -0.00000000000E+00 -0.00000000000E+00 -0.16595991219E+03  0.16595991219E+03  0.00000000000E+00 0.  1.
         25    1    1    2    0    0 -0.12687619659E+02 -0.26370453905E+03  0.30744411450E+03  0.42408483013E+03  0.12500000000E+03 0.  0.
          4    1    1    2  501    0  0.33500487172E+02  0.25037988454E+03  0.22263007310E+03  0.33671429829E+03  0.00000000000E+00 0.  1.
         -4    1    1    2    0  502 -0.20812867513E+02  0.13324654501E+02 -0.47579888667E+02  0.53614994892E+02  0.00000000000E+00 0. -1.
<mgrwt>
<rscale>  4 0.28669920E+03</rscale>
<asrwt>0</asrwt>
<pdfrwt beam="1">  1       21 0.99762186E-01 0.28669920E+03</pdfrwt>
<pdfrwt beam="2">  1       21 0.25532294E-01 0.28669920E+03</pdfrwt>
<totfact> 0.11375667E+04</totfact>
</mgrwt>
</event>
<event>
 5    0  0.1702508E-001  0.2718016E+03  0.7546771E-02  0.1100253E+00
         21   -1    0    0  503  502  0.00000000000E+00  0.00000000000E+00  0.15221301060E+03  0.15221301060E+03  0.00000000000E+00 0.  1.
         21   -1    0    0  501  503 -0.00000000000E+00 -0.00000000000E+00 -0.11112322670E+04  0.11112322670E+04  0.00000000000E+00 0. -1.
         25    1    1    2    0    0  0.25329721728E+02 -0.21941826966E+03 -0.15382130285E+03  0.29676921180E+03  0.12500000000E+03 0.  0.
          1    1    1    2  501    0  0.15996821558E+03  0.29322404355E+03 -0.53772029958E+03  0.63301918635E+03  0.00000000000E+00 0. -1.
         -1    1    1    2    0  502 -0.18529793731E+03 -0.73805773896E+02 -0.26747765395E+03  0.33365687943E+03  0.00000000000E+00 0.  1.
<mgrwt>
<rscale>  4 0.27180158E+03</rscale>
<asrwt>0</asrwt>
<pdfrwt beam="1">  1       21 0.23417385E-01 0.27180158E+03</pdfrwt>
<pdfrwt beam="2">  1       21 0.17095882E+00 0.27180158E+03</pdfrwt>
<totfact> 0.33860597E+03</totfact>
</mgrwt>
</event>
<event>
 5    0  0.1702508E-001  0.4662859E+03  0.7546771E-02  0.1022974E+00
         21   -1    0    0  503  502  0.00000000000E+00  0.00000000000E+00  0.51157705900E+03  0.51157705900E+03  0.00000000000E+00 0.  1.
         21   -1    0    0  501  503 -0.00000000000E+00 -0.00000000000E+00 -0.55487943285E+03  0.55487943285E+03  0.00000000000E+00 0.  1.
         25    1    1    2    0    0  0.61378380699E+02  0.45440509224E+03  0.19263836362E+03  0.51282144320E+03  0.12500000000E+03 0.  0.
          3    1    1    2  501    0 -0.73770874696E+02 -0.42570652652E+03 -0.14224879395E+03  0.45486581324E+03  0.00000000000E+00 0.  1.
         -3    1    1    2    0  502  0.12392493997E+02 -0.28698565714E+02 -0.93691943523E+02  0.98769235405E+02  0.00000000000E+00 0. -1.
<mgrwt>
<rscale>  4 0.46628593E+03</rscale>
<asrwt>0</asrwt>
<pdfrwt beam="1">  1       21 0.78704163E-01 0.46628593E+03</pdfrwt>
<pdfrwt beam="2">  1       21 0.85366066E-01 0.46628593E+03</pdfrwt>
<totfact> 0.14427784E+03</totfact>
</mgrwt>
</event>
<event>
 5    0  0.1702508E-001  0.2479185E+03  0.7546771E-02  0.1114627E+00
         21   -1    0    0  503  502  0.00000000000E+00  0.00000000000E+00  0.15906766988E+03  0.15906766988E+03  0.00000000000E+00 0. -1.
         21   -1    0    0  501  503 -0.00000000000E+00 -0.00000000000E+00 -0.11612200346E+04  0.11612200346E+04  0.00000000000E+00 0.  1.
         25    1    1    2    0    0 -0.22261055033E+03 -0.11145440756E+03 -0.13448953161E+03  0.30933796436E+03  0.12500000000E+03 0.  0.
          4    1    1    2  501    0  0.16979372748E+03  0.92539521898E+02 -0.61616437118E+02  0.20295334027E+03  0.00000000000E+00 0. -1.
         -4    1    1    2    0  502  0.52816822848E+02  0.18914885667E+02 -0.80604639596E+03  0.80799639981E+03  0.00000000000E+00 0.  1.
<mgrwt>
<rscale>  4 0.24791850E+03</rscale>
<asrwt>0</asrwt>
<pdfrwt beam="1">  1       21 0.24471949E-01 0.24791850E+03</pdfrwt>
<pdfrwt beam="2">  1       21 0.17864924E+00 0.24791850E+03</pdfrwt>
<totfact> 0.27959066E+03</totfact>
</mgrwt>
</event>
<event>
 5    0  0.1702508E-001  0.2498356E+03  0.7546771E-02  0.1113409E+00
         21   -1    0    0  503  502  0.00000000000E+00  0.00000000000E+00  0.11371794391E+03  0.11371794391E+03  0.00000000000E+00 0.  1.
         21   -1    0    0  501  503 -0.00000000000E+00 -0.00000000000E+00 -0.77746384682E+03  0.77746384682E+03  0.00000000000E+00 0.  1.
         25    1    1    2    0    0  0.20293647283E+03 -0.74897302468E+02 -0.79472127220E+02  0.26217100703E+03  0.12500000000E+03 0.  0.
          2    1    1    2  501    0 -0.17487314510E+03  0.32829163695E+02 -0.39736435206E+03  0.43538121130E+03  0.00000000000E+00 0.  1.
         -2    1    1    2    0  502 -0.28063327737E+02  0.42068138773E+02 -0.18690942363E+03  0.19362957239E+03  0.00000000000E+00 0. -1.
<mgrwt>
<rscale>  4 0.24983558E+03</rscale>
<asrwt>0</asrwt>
<pdfrwt beam="1">  1       21 0.17495068E-01 0.24983558E+03</pdfrwt>
<pdfrwt beam="2">  1       21 0.11960983E+00 0.24983558E+03</pdfrwt>
<totfact> 0.15215264E+04</totfact>
</mgrwt>
</event>
<event>
 5    0  0.1702508E-001  0.2424476E+03  0.7546771E-02  0.1118173E+00
         21   -1    0    0  503  502  0.00000000000E+00  0.00000000000E+00  0.28475083376E+02  0.28475083376E+02  0.00000000000E+00 0. -1.
         21   -1    0    0  501  503 -0.00000000000E+00 -0.00000000000E+00 -0.21498439545E+04  0.21498439545E+04  0.00000000000E+00 0. -1.
         25    1    1    2    0    0  0.89669748540E+02  0.18739043381E+03 -0.76984895217E+03  0.80712344016E+03  0.12500000000E+03 0.  0.
          1    1    1    2  501    0 -0.17696957800E+02 -0.11960827364E+03 -0.52282490391E+03  0.53662389211E+03  0.00000000000E+00 0. -1.
         -1    1    1    2    0  502 -0.71972790740E+02 -0.67782160172E+02 -0.82869501499E+03  0.83457170556E+03  0.00000000000E+00 0.  1.
<mgrwt>
<rscale>  4 0.24244760E+03</rscale>
<asrwt>0</asrwt>
<pdfrwt beam="1">  1       21 0.43807829E-02 0.24244760E+03</pdfrwt>
<pdfrwt beam="2">  1       21 0.33074516E+00 0.24244760E+03</pdfrwt>
<totfact> 0.72312912E+03</totfact>
</mgrwt>
</event>
<event>
 5    0  0.1702508E-001  0.2544722E+03  0.7546771E-02  0.1110511E+00
         21   -1    0    0  503  502  0.00000000000E+00  0.00000000000E+00  0.17151119853E+04  0.17151119853E+04  0.00000000000E+00 0.  1.
         21   -1    0    0  501  503 -0.00000000000E+00 -0.00000000000E+00 -0.40838352565E+02  0.40838352565E+02  0.00000000000E+00 0.  1.
         25    1    1    2    0    0 -0.23858039498E+01 -0.23983328126E+03  0.93154318513E+03  0.97001206210E+03  0.12500000000E+03 0.  0.
          3    1    1    2  501    0  0.69692021213E+01  0.20750405532E+03  0.70988630152E+03  0.73962494809E+03  0.00000000000E+00 0.  1.
         -3    1    1    2    0  502 -0.45833981715E+01  0.32329225941E+02  0.32844146111E+02  0.46313327698E+02  0.00000000000E+00 0. -1.
<mgrwt>
<rscale>  4 0.25447225E+03</rscale>
<asrwt>0</asrwt>
<pdfrwt beam="1">  1       21 0.26386333E+00 0.25447225E+03</pdfrwt>
<pdfrwt beam="2">  1       21 0.62828248E-02 0.25447225E+03</pdfrwt>
<totfact> 0.95245205E+03</totfact>
</mgrwt>
</event>
<event>
 5    0  0.1702508E-001  0.2857818E+03  0.7546771E-02  0.1092572E+00
         21   -1    0    0  503  502  0.00000000000E+00  0.00000000000E+00  0.35158869237E+03  0.35158869237E+03  0.00000000000E+00 0. -1.
         21   -1    0    0  501  503 -0.00000000000E+00 -0.00000000000E+00 -0.99904809541E+03  0.99904809541E+03  0.00000000000E+00 0.  1.
         25    1    1    2    0    0 -0.16110203632E+03 -0.20150491790E+03  0.26568546119E+03  0.39086041285E+03  0.12500000000E+03 0.  0.
          4    1    1    2  501    0  0.17941948846E+03  0.17115050909E+03 -0.67690923685E+03  0.72089525212E+03  0.00000000000E+00 0.  1.
         -4    1    1    2    0  502 -0.18317452140E+02  0.30354408802E+02 -0.23623562739E+03  0.23888112281E+03  0.00000000000E+00 0. -1.
<mgrwt>
<rscale>  4 0.28578178E+03</rscale>
<asrwt>0</asrwt>
<pdfrwt beam="1">  1       21 0.54090569E-01 0.28578178E+03</pdfrwt>
<pdfrwt beam="2">  1       21 0.15369970E+00 0.28578178E+03</pdfrwt>
<totfact> 0.83371922E+02</totfact>
</mgrwt>
</event>
<event>
 5    0  0.1702508E-001  0.2989692E+03  0.7546771E-02  0.1085757E+00
         21   -1    0    0  503  502  0.00000000000E+00  0.00000000000E+00  0.74833832602E+03  0.74833832602E+03  0.00000000000E+00 0.  1.
         21   -1    0    0  501  503 -0.00000000000E+00 -0.00000000000E+00 -0.37913487950E+03  0.37913487950E+03  0.00000000000E+00 0. -1.
         25    1    1    2    0    0  0.25507950612E+03 -0.14533115616E+03  0.62168299938E+03  0.69878569756E+03  0.12500000000E+03 0.  0.
          2    1    1    2  501    0 -0.76599827077E+02  0.57530209010E+02 -0.20186317312E+03  0.22344126548E+03  0.00000000000E+00 0. -1.
         -2    1    1    2    0  502 -0.17847967905E+03  0.87800947154E+02 -0.50616379752E+02  0.20524624248E+03  0.00000000000E+00 0.  1.
<mgrwt>
<rscale>  4 0.29896915E+03</rscale>
<asrwt>0</asrwt>
<pdfrwt beam="1">  1       21 0.11512897E+00 0.29896915E+03</pdfrwt>
<pdfrwt beam="2">  1       21 0.58328443E-01 0.29896915E+03</pdfrwt>
<totfact> 0.14822949E+03</totfact>
</mgrwt>
</event>
<event>
 5    0  0.1702508E-001  0.2610117E+03  0.7546771E-02  0.1106537E+00
         21   -1    0    0  503  502  0.00000000000E+00  0.00000000000E+00  0.75187985482E+03  0.75187985482E+03  0.00000000000E+00 0. -1.
         21   -1    0    0  501  503 -0.00000000000E+00 -0.00000000000E+00 -0.44261983722E+03  0.44261983722E+03  0.00000000000E+00 0.  1.
         25    1    1    2    0    0  0.17490224328E+03 -0.14292325404E+03  0.65927837753E+03  0.70801894772E+03  0.12500000000E+03 0.  0.
          3    1    1    2  501    0 -0.23495870284E+03  0.14772143502E+03 -0.29149609690E+03  0.40248874383E+03  0.00000000000E+00 0.  1.
         -3    1    1    2    0  502  0.60056459562E+02 -0.47981809818E+01 -0.58522263024E+02  0.83992000484E+02  0.00000000000E+00 0. -1.
<mgrwt>
<rscale>  4 0.26101172E+03</rscale>
<asrwt>0</asrwt>
<pdfrwt beam="1">  1       21 0.11567382E+00 0.26101172E+03</pdfrwt>
<pdfrwt beam="2">  1       21 0.68095360E-01 0.26101172E+03</pdfrwt>
<totfact> 0.10718601E+03</totfact>
</mgrwt>
</event>
<event>
 5    0  0.1702508E-001  0.2379989E+03  0.7546771E-02  0.1121133E+00
         21   -1    0    0  503  502  0.00000000000E+00  0.00000000000E+00  0.28450628702E+03  0.28450628702E+03  0.00000000000E+00 0.  1.
         21   -1    0    0  501  503 -0.00000000000E+00 -0.00000000000E+00 -0.70162330007E+03  0.70162330007E+03  0.00000000000E+00 0. -1.
         25    1    1    2    0    0 -0.19353271080E+03  0.81409250549E+02  0.47036609189E+02  0.24883693220E+03  0.12500000000E+03 0.  0.
          2    1    1    2  501    0 -0.25517556935E+01 -0.46136226721E+02 -0.52650757814E+03  0.52853125992E+03  0.00000000000E+00 0. -1.
         -2    1    1    2    0  502  0.19608446649E+03 -0.35273023828E+02  0.62353955914E+02  0.20876139496E+03  0.00000000000E+00 0.  1.
<mgrwt>
<rscale>  4 0.23799890E+03</rscale>
<asrwt>0</asrwt>
<pdfrwt beam="1">  1       21 0.43770199E-01 0.23799890E+03</pdfrwt>
<pdfrwt beam="2">  1       21 0.10794204E+00 0.23799890E+03</pdfrwt>
<totfact> 0.33085654E+03</totfact>
</mgrwt>
</event>
<event>
 5    0  0.1702508E-001  0.3038253E+03  0.7546771E-02  0.1083344E+00
         21   -1    0    0  503  502  0.00000000000E+00  0.00000000000E+00  0.71955548876E+03  0.71955548876E+03  0.00000000000E+00 0. -1.
         21   -1    0    0  501  503 -0.00000000000E+00 -0.00000000000E+00 -0.44395589381E+03  0.44395589381E+03  0.00000000000E+00 0. -1.
         25    1    1    2    0    0 -0.20676821933E+03 -0.18981791801E+03  0.53424777941E+03  0.61630319513E+03  0.12500000000E+03 0.  0.
          3    1    1    2  501    0 -0.22208981073E+02  0.48761943985E+02 -0.27269011319E+03  0.27790441496E+03  0.00000000000E+00 0. -1.
         -3    1    1    2    0  502  0.22897720040E+03  0.14105597402E+03  0.14041928742E+02  0.26930377248E+03  0.00000000000E+00 0.  1.
<mgrwt>
<rscale>  4 0.30382531E+03</rscale>
<asrwt>0</asrwt>
<pdfrwt beam="1">  1       21 0.11070084E+00 0.30382531E+03</pdfrwt>
<pdfrwt beam="2">  1       21 0.68300907E-01 0.30382531E+03</pdfrwt>
<totfact> 0.11520069E+03</totfact>
</mgrwt>
</event>
<event>
 5    0  0.1702508E-001  0.2325533E+03  0.7546771E-02  0.1124855E+00
         21   -1    0    0  503  502  0.00000000000E+00  0.00000000000E+00  0.15563356528E+03  0.15563356528E+03  0.00000000000E+00 0.  1.
         21   -1    0    0  501  503 -0.00000000000E+00 -0.00000000000E+00 -0.50305637369E+03  0.50305637369E+03  0.00000000000E+00 0.  1.
         25    1    1    2    0    0  0.51715942577E+02 -0.20276339355E+03 -0.16692483858E+03  0.29542585231E+03  0.12500000000E+03 0.  0.
          2    1    1    2  501    0 -0.97186375439E+02  0.16517642788E+03 -0.22037946084E+03  0.29205402011E+03  0.00000000000E+00 0.  1.
         -2    1    1    2    0  502  0.45470432862E+02  0.37586965671E+02  0.39881491010E+02  0.71210066551E+02  0.00000000000E+00 0. -1.
<mgrwt>
<rscale>  4 0.23255332E+03</rscale>
<asrwt>0</asrwt>
<pdfrwt beam="1">  1       21 0.23943626E-01 0.23255332E+03</pdfrwt>
<pdfrwt beam="2">  1       21 0.77393288E-01 0.23255332E+03</pdfrwt>
<totfact> 0.23837432E+04</totfact>
</mgrwt>
</event>
<event>
 5    0  0.1702508E-001  0.3394569E+03  0.7546771E-02  0.1067027E+00
         21   -1    0    0  503  502  0.00000000000E+00  0.00000000000E+00  0.90320580002E+03  0.90320580002E+03  0.00000000000E+00 0. -1.
         21   -1    0    0  501  503 -0.00000000000E+00 -0.00000000000E+00 -0.30558119220E+03  0.30558119220E+03  0.00000000000E+00 0. -1.
         25    1    1    2    0    0 -0.21266337823E+03 -0.19280327535E+03  0.30579151894E+03  0.43764399742E+03  0.12500000000E+03 0.  0.
          4    1    1    2  501    0 -0.21157720852E+03  0.17581066371E+03  0.41344678736E+02  0.27817923557E+03  0.00000000000E+00 0.  1.
         -4    1    1    2    0  502  0.42424058675E+03  0.16992611634E+02  0.25048841014E+03  0.49296375923E+03  0.00000000000E+00 0. -1.
<mgrwt>
<rscale>  4 0.33945694E+03</rscale>
<asrwt>0</asrwt>
<pdfrwt beam="1">  1       21 0.13895474E+00 0.33945694E+03</pdfrwt>
<pdfrwt beam="2">  1       21 0.47012491E-01 0.33945694E+03</pdfrwt>
<totfact> 0.14173185E+03</totfact>
</mgrwt>
</event>
<event>
 5    0  0.1702508E-001  0.2906213E+03  0.7546771E-02  0.1090025E+00
         21   -1    0    0  503  502  0.00000000000E+00  0.00000000000E+00  0.30030111610E+03  0.30030111610E+03  0.00000000000E+00 0.  1.
         21   -1    0    0  501  503 -0.00000000000E+00 -0.00000000000E+00 -0.17948183406E+04  0.17948183406E+04  0.00000000000E+00 0. -1.
         25    1    1    2    0    0  0.86511428268E+02 -0.24684563546E+03  0.20819041657E+03  0.35691069543E+03  0.12500000000E+03 0.  0.
          1    1    1    2  501    0 -0.18056377275E+02 -0.19417555473E+02 -0.63892894831E+03  0.63947890912E+03  0.00000000000E+00 0.  1.
         -1    1    1    2    0  502 -0.68455050993E+02  0.26626319093E+03 -0.10637786927E+04  0.10987298521E+04  0.00000000000E+00 0. -1.
<mgrwt>
<rscale>  4 0.29062127E+03</rscale>
<asrwt>0</asrwt>
<pdfrwt beam="1">  1       21 0.46200173E-01 0.29062127E+03</pdfrwt>
<pdfrwt beam="2">  1       21 0.27612589E+00 0.29062127E+03</pdfrwt>
<totfact> 0.18675373E+02</totfact>
</mgrwt>
</event>
<event>
 5    0  0.1702508E-001  0.3928561E+03  0.7546771E-02  0.1046282E+00
         21   -1    0    0  503  502  0.00000000000E+00  0.00000000000E+00  0.11982734411E+04  0.11982734411E+04  0.00000000000E+00 0.  1.
         21   -1    0    0  501  503 -0.00000000000E+00 -0.00000000000E+00 -0.36274746522E+03  0.36274746522E+03  0.00000000000E+00 0. -1.
         25    1    1    2    0    0  0.13012463256E+03 -0.34725847567E+03  0.80189753908E+03  0.89229229074E+03  0.12500000000E+03 0.  0.
          2    1    1    2  501    0 -0.10600630298E+03  0.36150128119E+03  0.24897835637E+03  0.45156476227E+03  0.00000000000E+00 0. -1.
         -2    1    1    2    0  502 -0.24118329574E+02 -0.14242805522E+02 -0.21534991957E+03  0.21716385332E+03  0.00000000000E+00 0.  1.
<mgrwt>
<rscale>  4 0.39285612E+03</rscale>
<asrwt>0</asrwt>
<pdfrwt beam="1">  1       21 0.18434976E+00 0.39285612E+03</pdfrwt>
<pdfrwt beam="2">  1       21 0.55807303E-01 0.39285612E+03</pdfrwt>
<totfact> 0.43676158E+02</totfact>
</mgrwt>
</event>
<event>
 5    0  0.1702508E-001  0.2565092E+03  0.7546771E-02  0.1109259E+00
         21   -1    0    0  503  502  0.00000000000E+00  0.00000000000E+00  0.48339483262E+03  0.48339483262E+03  0.00000000000E+00 0.  1.
         21   -1    0    0  501  503 -0.00000000000E+00 -0.00000000000E+00 -0.15408467477E+04  0.15408467477E+04  0.00000000000E+00 0.  1.
         25    1    1    2    0    0  0.89069068430E+02  0.20540611776E+03  0.43441206990E+03  0.50444406889E+03  0.12500000000E+03 0.  0.
          2    1    1    2  501    0 -0.19971641083E+02  0.11819441878E+02 -0.55919154728E+03  0.55967289750E+03  0.00000000000E+00 0.  1.
         -2    1    1    2    0  502 -0.69097427347E+02 -0.21722555964E+03 -0.93267243774E+03  0.96012461396E+03  0.00000000000E+00 0. -1.
<mgrwt>
<rscale>  4 0.25650919E+03</rscale>
<asrwt>0</asrwt>
<pdfrwt beam="1">  1       21 0.74368435E-01 0.25650919E+03</pdfrwt>
<pdfrwt beam="2">  1       21 0.23705335E+00 0.25650919E+03</pdfrwt>
<totfact> 0.11840431E+02</totfact>
</mgrwt>
</event>
<event>
 5    0  0.1702508E-001  0.4121061E+03  0.7546771E-02  0.1039667E+00
         21   -1    0    0  503  502  0.00000000000E+00  0.00000000000E+00  0.39302817094E+03  0.39302817094E+03  0.00000000000E+00 0. -1.
         21   -1    0    0  501  503 -0.00000000000E+00 -0.00000000000E+00 -0.48144875414E+03  0.48144875414E+03  0.00000000000E+00 0.  1.
         25    1    1    2    0    0  0.20182062476E+03 -0.32746826348E+03 -0.13671893237E+03  0.42694741437E+03  0.12500000000E+03 0.  0.
          4    1    1    2  501    0  0.42804819257E+02  0.12874542824E+02 -0.68502964705E+01  0.45220935045E+02  0.00000000000E+00 0. -1.
         -4    1    1    2    0  502 -0.24462544402E+03  0.31459372066E+03  0.55148645635E+02  0.40230857566E+03  0.00000000000E+00 0.  1.
<mgrwt>
<rscale>  4 0.41210611E+03</rscale>
<asrwt>0</asrwt>
<pdfrwt beam="1">  1       21 0.60465873E-01 0.41210611E+03</pdfrwt>
<pdfrwt beam="2">  1       21 0.74069039E-01 0.41210611E+03</pdfrwt>
<totfact> 0.36926458E+03</totfact>
</mgrwt>
</event>
<event>
 5    0  0.1702508E-001  0.2699422E+03  0.7546771E-02  0.1101313E+00
         21   -1    0    0  503  502  0.00000000000E+00  0.00000000000E+00  0.52149799590E+03  0.52149799590E+03  0.00000000000E+00 0.  1.
         21   -1    0    0  501  503 -0.00000000000E+00 -0.00000000000E+00 -0.52827327292E+03  0.52827327292E+03  0.00000000000E+00 0. -1.
         25    1    1    2    0    0  0.33491567717E+02  0.23355867056E+03  0.31516715593E+03  0.41306981720E+03  0.12500000000E+03 0.  0.
          1    1    1    2  501    0  0.51204853768E+02  0.10490703039E+01 -0.37766764650E+03  0.38112450566E+03  0.00000000000E+00 0. -1.
         -1    1    1    2    0  502 -0.84696421485E+02 -0.23460774086E+03  0.55725213549E+02  0.25557694597E+03  0.00000000000E+00 0.  1.
<mgrwt>
<rscale>  4 0.26994221E+03</rscale>
<asrwt>0</asrwt>
<pdfrwt beam="1">  1       21 0.80230462E-01 0.26994221E+03</pdfrwt>
<pdfrwt beam="2">  1       21 0.81272811E-01 0.26994221E+03</pdfrwt>
<totfact> 0.17053414E+03</totfact>
</mgrwt>
</event>
<event>
 5    0  0.1702508E-001  0.2110242E+03  0.7546771E-02  0.1140758E+00
         21   -1    0    0  503  502  0.00000000000E+00  0.00000000000E+00  0.76809604684E+02  0.76809604684E+02  0.00000000000E+00 0.  1.
         21   -1    0    0  501  503 -0.00000000000E+00 -0.00000000000E+00 -0.13162770706E+04  0.13162770706E+04  0.00000000000E+00 0. -1.
         25    1    1    2    0    0  0.13965085124E+03 -0.17296722471E+03 -0.25652175149E+03  0.36172977492E+03  0.12500000000E+03 0.  0.
          3    1    1    2  501    0 -0.53847238561E+02  0.12466536594E+03 -0.19701430297E+03  0.23928145382E+03  0.00000000000E+00 0.  1.
         -3    1    1    2    0  502 -0.85803612675E+02  0.48301858768E+02 -0.78593141146E+03  0.79207544655E+03  0.00000000000E+00 0. -1.
<mgrwt>
<rscale>  4 0.21102418E+03</rscale>
<asrwt>0</asrwt>
<pdfrwt beam="1">  1       21 0.11816863E-01 0.21102418E+03</pdfrwt>
<pdfrwt beam="2">  1       21 0.20250415E+00 0.21102418E+03</pdfrwt>
<totfact> 0.76833892E+03</totfact>
</mgrwt>
</event>
<event>
 5    0  0.1702508E-001  0.2728225E+03  0.7546771E-02  0.1099675E+00
         21   -1    0    0  503  502  0.00000000000E+00  0.00000000000E+00  0.71714916428E+03  0.71714916428E+03  0.00000000000E+00 0. -1.
         21   -1    0    0  501  503 -0.00000000000E+00 -0.00000000000E+00 -0.11352099303E+03  0.11352099303E+03  0.00000000000E+00 0.  1.
         25    1    1    2    0    0  0.20868097071E+03  0.14796205300E+03  0.26417297710E+03  0.38839783533E+03  0.12500000000E+03 0.  0.
          4    1    1    2  501    0 -0.19413772717E+03 -0.13208952251E+03  0.34741004521E+03  0.41932187945E+03  0.00000000000E+00 0.  1.
         -4    1    1    2    0  502 -0.14543243540E+02 -0.15872530487E+02 -0.79548510567E+01  0.22950442524E+02  0.00000000000E+00 0. -1.
<mgrwt>
<rscale>  4 0.27282254E+03</rscale>
<asrwt>0</asrwt>
<pdfrwt beam="1">  1       21 0.11033064E+00 0.27282254E+03</pdfrwt>
<pdfrwt beam="2">  1       21 0.17464769E-01 0.27282254E+03</pdfrwt>
<totfact> 0.18411736E+04</totfact>
</mgrwt>
</event>
<event>
 5    0  0.1702508E-001  0.3130578E+03  0.7546771E-02  0.1078889E+00
         21   -1    0    0  503  502  0.00000000000E+00  0.00000000000E+00  0.18798882076E+03  0.18798882076E+03  0.00000000000E+00 0.  1.
         21   -1    0    0  501  503 -0.00000000000E+00 -0.00000000000E+00 -0.12477362026E+04  0.12477362026E+04  0.00000000000E+00 0. -1.
         25    1    1    2    0    0 -0.28610265201E+03  0.66433656135E+02  0.21463583504E+00  0.31920714940E+03  0.12500000000E+03 0.  0.
          3    1    1    2  501    0  0.25784222427E+03 -0.43079123130E+02 -0.59233502996E+03  0.64745595308E+03  0.00000000000E+00 0. -1.
         -3    1    1    2    0  502  0.28260427746E+02 -0.23354533005E+02 -0.46762698771E+03  0.46906192088E+03  0.00000000000E+00 0.  1.
<mgrwt>
<rscale>  4 0.31305784E+03</rscale>
<asrwt>0</asrwt>
<pdfrwt beam="1">  1       21 0.28921357E-01 0.31305784E+03</pdfrwt>
<pdfrwt beam="2">  1       21 0.19195941E+00 0.31305784E+03</pdfrwt>
<totfact> 0.15689210E+03</totfact>
</mgrwt>
</event>
<event>
 5    0  0.1702508E-001  0.2544336E+03  0.7546771E-02  0.1110535E+00
         21   -1    0    0  503  502  0.00000000000E+00  0.00000000000E+00  0.12243826666E+04  0.12243826666E+04  0.00000000000E+00 0.  1.
         21   -1    0    0  501  503 -0.00000000000E+00 -0.00000000000E+00 -0.17702691285E+03  0.17702691285E+03  0.00000000000E+00 0. -1.
         25    1    1    2    0    0  0.17876024132E+03 -0.13098175321E+03  0.11233748654E+04  0.11518279089E+04  0.12500000000E+03 0.  0.
          1    1    1    2  501    0 -0.15652854539E+03  0.80952457495E+02 -0.82267249210E+02  0.19447978350E+03  0.00000000000E+00 0. -1.
         -1    1    1    2    0  502 -0.22231695923E+02  0.50029295712E+02  0.62481375664E+01  0.55101887047E+02  0.00000000000E+00 0.  1.
<mgrwt>
<rscale>  4 0.25443357E+03</rscale>
<asrwt>0</asrwt>
<pdfrwt beam="1">  1       21 0.18836656E+00 0.25443357E+03</pdfrwt>
<pdfrwt beam="2">  1       21 0.27234910E-01 0.25443357E+03</pdfrwt>
<totfact> 0.19438048E+03</totfact>
</mgrwt>
</event>
<event>
 5    0  0.1702508E-001  0.2462142E+03  0.7546771E-02  0.1115721E+00
         21   -1    0    0  503  502  0.00000000000E+00  0.00000000000E+00  0.43860712891E+03  0.43860712891E+03  0.00000000000E+00 0. -1.
         21   -1    0    0  501  503 -0.00000000000E+00 -0.00000000000E+00 -0.36616485282E+03  0.36616485282E+03  0.00000000000E+00 0.  1.
         25    1    1    2    0    0  0.79806317642E+02 -0.19727232926E+03  0.11373751457E+03  0.27174738719E+03  0.12500000000E+03 0.  0.
          2    1    1    2  501    0 -0.24388295914E+03 -0.33801504727E+02  0.26985199717E+01  0.24622900214E+03  0.00000000000E+00 0. -1.
         -2    1    1    2    0  502  0.16407664150E+03  0.23107383398E+03 -0.43993758444E+02  0.28679559240E+03  0.00000000000E+00 0.  1.
<mgrwt>
<rscale>  4 0.24621421E+03</rscale>
<asrwt>0</asrwt>
<pdfrwt beam="1">  1       21 0.67478019E-01 0.24621421E+03</pdfrwt>
<pdfrwt beam="2">  1       21 0.56333055E-01 0.24621421E+03</pdfrwt>
<totfact> 0.57381151E+03</totfact>
</mgrwt>
</event>
<event>
 5    0  0.1702508E-001  0.2142032E+03  0.7546771E-02  0.1138280E+00
         21   -1    0    0  503  502  0.00000000000E+00  0.00000000000E+00  0.10579487843E+04  0.10579487843E+04  0.00000000000E+00 0. -1.
         21   -1    0    0  501  503 -0.00000000000E+00 -0.00000000000E+00 -0.66143571957E+02  0.66143571957E+02  0.00000000000E+00 0. -1.
         25    1    1    2    0    0 -0.13820787902E+02  0.21015839275E+03  0.73206755513E+03  0.77194913659E+03  0.12500000000E+03 0.  0.
          3    1    1    2  501    0 -0.24830207267E+02 -0.48500154711E+02  0.13107753930E+03  0.14195113775E+03  0.00000000000E+00 0.  1.
         -3    1    1    2    0  502  0.38650995169E+02 -0.16165823803E+03  0.12866011789E+03  0.21019208189E+03  0.00000000000E+00 0. -1.
<mgrwt>
<rscale>  4 0.21420320E+03</rscale>
<asrwt>0</asrwt>
<pdfrwt beam="1">  1       21 0.16276134E+00 0.21420320E+03</pdfrwt>
<pdfrwt beam="2">  1       21 0.10175935E-01 0.21420320E+03</pdfrwt>
<totfact> 0.18630399E+04</totfact>
</mgrwt>
</event>
<event>
 5    0  0.1702508E-001  0.2637069E+03  0.7546771E-02  0.1104936E+00
         21   -1    0    0  503  502  0.00000000000E+00  0.00000000000E+00  0.10147662296E+04  0.10147662296E+04  0.00000000000E+00 0.  1.
         21   -1    0    0  501  503 -0.00000000000E+00 -0.00000000000E+00 -0.94914110859E+02  0.94914110859E+02  0.00000000000E+00 0.  1.
         25    1    1    2    0    0 -0.23148914077E+03 -0.81795015222E+02  0.64535571796E+03  0.70170267886E+03  0.12500000000E+03 0.  0.
          2    1    1    2  501    0  0.21806000645E+03  0.12152387216E+02  0.25222078191E+03  0.33363628363E+03  0.00000000000E+00 0.  1.
         -2    1    1    2    0  502  0.13429134319E+02  0.69642628006E+02  0.22275618889E+02  0.74341377987E+02  0.00000000000E+00 0. -1.
<mgrwt>
<rscale>  4 0.26370694E+03</rscale>
<asrwt>0</asrwt>
<pdfrwt beam="1">  1       21 0.15611787E+00 0.26370694E+03</pdfrwt>
<pdfrwt beam="2">  1       21 0.14602172E-01 0.26370694E+03</pdfrwt>
<totfact> 0.10564047E+04</totfact>
</mgrwt>
</event>
<event>
 5    0  0.1702508E-001  0.2433919E+03  0.7546771E-02  0.1117554E+00
         21   -1    0    0  503  502  0.00000000000E+00  0.00000000000E+00  0.43705136834E+03  0.43705136834E+03  0.00000000000E+00 0.  1.
         21   -1    0    0  501  503 -0.00000000000E+00 -0.00000000000E+00 -0.56279015163E+03  0.56279015163E+03  0.00000000000E+00 0. -1.
         25    1    1    2    0    0  0.28282672559E+02  0.20181181647E+03  0.20070104842E+03  0.31214392461E+03  0.12500000000E+03 0.  0.
          3    1    1    2  501    0 -0.14764472916E+03  0.13503306656E+02 -0.40338355278E+03  0.42976690891E+03  0.00000000000E+00 0.  1.
         -3    1    1    2    0  502  0.11936205660E+03 -0.21531512312E+03  0.76943721065E+02  0.25793068645E+03  0.00000000000E+00 0. -1.
<mgrwt>
<rscale>  4 0.24339192E+03</rscale>
<asrwt>0</asrwt>
<pdfrwt beam="1">  1       21 0.67238673E-01 0.24339192E+03</pdfrwt>
<pdfrwt beam="2">  1       21 0.86583100E-01 0.24339192E+03</pdfrwt>
<totfact> 0.22313289E+03</totfact>
</mgrwt>
</event>
<event>
 5    0  0.1702508E-001  0.2626748E+03  0.7546771E-02  0.1105547E+00
         21   -1    0    0  503  502  0.00000000000E+00  0.00000000000E+00  0.22976577177E+03  0.22976577177E+03  0.00000000000E+00 0. -1.
         21   -1    0    0  501  503 -0.00000000000E+00 -0.00000000000E+00 -0.17362616713E+04  0.17362616713E+04  0.00000000000E+00 0. -1.
         25    1    1    2    0    0  0.38964547704E+02  0.24456140716E+03  0.10381792045E+03  0.29619533834E+03  0.12500000000E+03 0.  0.
          3    1    1    2  501    0  0.30919170701E+02 -0.74506180679E+02 -0.13428560915E+04  0.13452767925E+04  0.00000000000E+00 0. -1.
         -3    1    1    2    0  502 -0.69883718405E+02 -0.17005522648E+03 -0.26745772853E+03  0.32455531224E+03  0.00000000000E+00 0.  1.
<mgrwt>
<rscale>  4 0.26267480E+03</rscale>
<asrwt>0</asrwt>
<pdfrwt beam="1">  1       21 0.35348580E-01 0.26267480E+03</pdfrwt>
<pdfrwt beam="2">  1       21 0.26711718E+00 0.26267480E+03</pdfrwt>
<totfact> 0.37490877E+02</totfact>
</mgrwt>
</event>
<event>
 5    0  0.1702508E-001  0.2298707E+03  0.7546771E-02  0.1126731E+00
         21   -1    0    0  503  502  0.00000000000E+00  0.00000000000E+00  0.80018145044E+03  0.80018145044E+03  0.00000000000E+00 0.  1.
         21   -1    0    0  501  503 -0.00000000000E+00 -0.00000000000E+00 -0.12699952119E+03  0.12699952119E+03  0.00000000000E+00 0. -1.
         25    1    1    2    0    0  0.17691589891E+03 -0.10517874874E+03  0.60247824358E+03  0.64881957311E+03  0.12500000000E+03 0.  0.
          1    1    1    2  501    0 -0.15300410034E+03  0.73079075255E+02  0.12517882103E+03  0.21076181626E+03  0.00000000000E+00 0. -1.
         -1    1    1    2    0  502 -0.23911798579E+02  0.32099673483E+02 -0.54475135360E+02  0.67599582258E+02  0.00000000000E+00 0.  1.
<mgrwt>
<rscale>  4 0.22987070E+03</rscale>
<asrwt>0</asrwt>
<pdfrwt beam="1">  1       21 0.12310484E+00 0.22987070E+03</pdfrwt>
<pdfrwt beam="2">  1       21 0.19538388E-01 0.22987070E+03</pdfrwt>
<totfact> 0.11655027E+04</totfact>
</mgrwt>
</event>
<event>
 5    0  0.1702508E-001  0.2109878E+03  0.7546771E-02  0.1140786E+00
         21   -1    0    0  503  502  0.00000000000E+00  0.00000000000E+00  0.27882593299E+03  0.27882593299E+03  0.00000000000E+00 0.  1.
         21   -1    0    0  501  503 -0.00000000000E+00 -0.00000000000E+00 -0.10642152245E+04  0.10642152245E+04  0.00000000000E+00 0.  1.
         25    1    1    2    0    0 -0.61194976844E+02 -0.21792084520E+03  0.35618086586E+02  0.26101334843E+03  0.12500000000E+03 0.  0.
          2    1    1    2  501    0  0.12276035593E+03  0.11560336864E+03 -0.91478354232E+03  0.93019523387E+03  0.00000000000E+00 0.  1.
         -2    1    1    2    0  502 -0.61565379087E+02  0.10231747656E+03  0.93776164218E+02  0.15183257518E+03  0.00000000000E+00 0. -1.
<mgrwt>
<rscale>  4 0.21098782E+03</rscale>
<asrwt>0</asrwt>
<pdfrwt beam="1">  1       21 0.42896298E-01 0.21098782E+03</pdfrwt>
<pdfrwt beam="2">  1       21 0.16372542E+00 0.21098782E+03</pdfrwt>
<totfact> 0.12132604E+03</totfact>
</mgrwt>
</event>
<event>
 5    0  0.1702508E-001  0.2599621E+03  0.7546771E-02  0.1107166E+00
         21   -1    0    0  503  502  0.00000000000E+00  0.00000000000E+00  0.17333209008E+03  0.17333209008E+03  0.00000000000E+00 0. -1.
         21   -1    0    0  501  503 -0.00000000000E+00 -0.00000000000E+00 -0.52028311893E+03  0.52028311893E+03  0.00000000000E+00 0. -1.
         25    1    1    2    0    0 -0.16550900720E+03 -0.19167529206E+03 -0.62932992221E+02  0.28934099357E+03  0.12500000000E+03 0.  0.
          1    1    1    2  501    0  0.77910781845E+02  0.18085451337E+03 -0.21986195055E+03  0.29515711449E+03  0.00000000000E+00 0. -1.
         -1    1    1    2    0  502  0.87598225356E+02  0.10820778689E+02 -0.64156086088E+02  0.10911710095E+03  0.00000000000E+00 0.  1.
<mgrwt>
<rscale>  4 0.25996214E+03</rscale>
<asrwt>0</asrwt>
<pdfrwt beam="1">  1       21 0.26666476E-01 0.25996214E+03</pdfrwt>
<pdfrwt beam="2">  1       21 0.80043556E-01 0.25996214E+03</pdfrwt>
<totfact> 0.17714507E+04</totfact>
</mgrwt>
</event>
<event>
 5    0  0.1702508E-001  0.3128825E+03  0.7546771E-02  0.1078972E+00
         21   -1    0    0  503  502  0.00000000000E+00  0.00000000000E+00  0.46025943408E+03  0.46025943408E+03  0.00000000000E+00 0.  1.
         21   -1    0    0  501  503 -0.00000000000E+00 -0.00000000000E+00 -0.27408563815E+03  0.27408563815E+03  0.00000000000E+00 0.  1.
         25    1    1    2    0    0  0.12341002559E+03 -0.24096545662E+03  0.10665007539E+03  0.31669168647E+03  0.12500000000E+03 0.  0.
          3    1    1    2  501    0 -0.17046171408E+03  0.24983364697E+03  0.14590907802E+03  0.33580277869E+03  0.00000000000E+00 0.  1.
         -3    1    1    2    0  502  0.47051688498E+02 -0.88681903512E+01 -0.66385357482E+02  0.81850607076E+02  0.00000000000E+00 0. -1.
<mgrwt>
<rscale>  4 0.31288252E+03</rscale>
<asrwt>0</asrwt>
<pdfrwt beam="1">  1       21 0.70809144E-01 0.31288252E+03</pdfrwt>
<pdfrwt beam="2">  1       21 0.42167021E-01 0.31288252E+03</pdfrwt>
<totfact> 0.91417987E+03</totfact>
</mgrwt>
</event>
