<event>
 5    0  0.1911311E+001  0.5276765E+03  0.7546771E-02  0.1006797E+00
         21   -1    0    0  504  501  0.00000000000E+00  0.00000000000E+00  0.25239431915E+04  0.25239431915E+04  0.00000000000E+00 0.  1.
         21   -1    0    0  501  502 -0.00000000000E+00 -0.00000000000E+00 -0.14754585938E+03  0.14754585938E+03  0.00000000000E+00 0.  1.
         25    1    1    2    0    0  0.35852901030E+03  0.34439288382E+03  0.17174154585E+04  0.17922863518E+04  0.12500000000E+03 0.  0.
         21    1    1    2  503  502  0.19282440453E+02  0.10118102043E+02  0.15464538921E+03  0.15617101172E+03  0.00000000000E+00 0.  1.
         21    1    1    2  504  503 -0.37781145076E+03 -0.35451098586E+03  0.50433648436E+03  0.72303168733E+03  0.00000000000E+00 0.  1.
<mgrwt>
<rscale>  4 0.52767648E+03</rscale>
<asrwt>0</asrwt>
<pdfrwt beam="1">  1       21 0.38829892E+00 0.52767648E+03</pdfrwt>
<pdfrwt beam="2">  1       21 0.22699365E-01 0.52767648E+03</pdfrwt>
<totfact> 0.13551340E+02</totfact>
</mgrwt>
</event>
<event>
 5    0  0.1911311E+001  0.2601461E+03  0.7546771E-02  0.1107056E+00
         21   -1    0    0  503  501  0.00000000000E+00  0.00000000000E+00  0.19893076733E+04  0.19893076733E+04  0.00000000000E+00 0.  1.
         21   -1    0    0  504  502 -0.00000000000E+00 -0.00000000000E+00 -0.75860480320E+02  0.75860480320E+02  0.00000000000E+00 0.  1.
         25    1    1    2    0    0 -0.23103884129E+03  0.15827880190E+03  0.41222947588E+03  0.51379885763E+03  0.12500000000E+03 0.  0.
         21    1    1    2  503  502  0.70813636939E+02 -0.74192787817E+01  0.59033424862E+02  0.92490875901E+02  0.00000000000E+00 0.  1.
         21    1    1    2  504  501  0.16022520435E+03 -0.15085952311E+03  0.14421842922E+04  0.14588784201E+04  0.00000000000E+00 0.  1.
<mgrwt>
<rscale>  4 0.26014606E+03</rscale>
<asrwt>0</asrwt>
<pdfrwt beam="1">  1       21 0.30604729E+00 0.26014606E+03</pdfrwt>
<pdfrwt beam="2">  1       21 0.11670845E-01 0.26014606E+03</pdfrwt>
<totfact> 0.18025120E+03</totfact>
</mgrwt>
</event>
<event>
 5    0  0.4227405E+001  0.2447189E+03  0.7546771E-02  0.1116689E+00
         21   -1    0    0  503  501  0.00000000000E+00  0.00000000000E+00  0.37147899364E+03  0.37147899364E+03  0.00000000000E+00 0.  1.
         21   -1    0    0  504  502 -0.00000000000E+00 -0.00000000000E+00 -0.33616070598E+03  0.33616070598E+03  0.00000000000E+00 0.  1.
         25    1    1    2    0    0 -0.12535310870E+03  0.19007510945E+03  0.24216576257E+03  0.35512139566E+03  0.12500000000E+03 0.  0.
         21    1    1    2  503  502  0.13201056278E+03 -0.16103398560E+03 -0.23327547752E+03  0.31269183171E+03  0.00000000000E+00 0.  1.
         21    1    1    2  504  501 -0.66574540800E+01 -0.29041123853E+02  0.26428002620E+02  0.39826472251E+02  0.00000000000E+00 0. -1.
<mgrwt>
<rscale>  4 0.24471892E+03</rscale>
<asrwt>0</asrwt>
<pdfrwt beam="1">  1       21 0.57150614E-01 0.24471892E+03</pdfrwt>
<pdfrwt beam="2">  1       21 0.51717032E-01 0.24471892E+03</pdfrwt>
<totfact> 0.98794841E+03</totfact>
</mgrwt>
</event>
