<event>
 5    0  0.3275920E+000  0.2618836E+03  0.7546771E-02  0.1106017E+00
         21   -1    0    0  503  502  0.00000000000E+00  0.00000000000E+00  0.63086389571E+03  0.63086389571E+03  0.00000000000E+00 0. -1.
         -1   -1    0    0    0  501 -0.00000000000E+00 -0.00000000000E+00 -0.44457747956E+03  0.44457747956E+03  0.00000000000E+00 0.  1.
         25    1    1    2    0    0  0.10709084814E+03  0.20842068561E+03  0.55721713485E+03  0.61727106470E+03  0.12500000000E+03 0.  0.
         21    1    1    2  503  501 -0.70959740158E+02 -0.20255568588E+02 -0.71961666226E+02  0.10307305268E+03  0.00000000000E+00 0. -1.
         -1    1    1    2    0  502 -0.36131107982E+02 -0.18816511703E+03 -0.29896905247E+03  0.35509725789E+03  0.00000000000E+00 0.  1.
<mgrwt>
<rscale>  4 0.26188356E+03</rscale>
<asrwt>0</asrwt>
<pdfrwt beam="1">  1       21 0.97055983E-01 0.26188356E+03</pdfrwt>
<pdfrwt beam="2">  1       -1 0.68396536E-01 0.26188356E+03</pdfrwt>
<totfact> 0.17719100E+02</totfact>
</mgrwt>
</event>
<event>
 5    0  0.3275920E+000  0.2378863E+03  0.7546771E-02  0.1121209E+00
         21   -1    0    0  501  502  0.00000000000E+00  0.00000000000E+00  0.51686430146E+03  0.51686430146E+03  0.00000000000E+00 0.  1.
          1   -1    0    0  503    0 -0.00000000000E+00 -0.00000000000E+00 -0.73343334368E+03  0.73343334368E+03  0.00000000000E+00 0.  1.
         25    1    1    2    0    0 -0.12117586530E+03 -0.22365598948E+03  0.40529871630E+03  0.49456813626E+03  0.12500000000E+03 0.  0.
         21    1    1    2  503  502 -0.43242544047E+02  0.10729624218E+03 -0.15420215705E+02  0.11670554509E+03  0.00000000000E+00 0.  1.
          1    1    1    2  501    0  0.16441840935E+03  0.11635974730E+03 -0.60644754281E+03  0.63902396380E+03  0.00000000000E+00 0.  1.
<mgrwt>
<rscale>  4 0.23788635E+03</rscale>
<asrwt>0</asrwt>
<pdfrwt beam="1">  1       21 0.79517585E-01 0.23788635E+03</pdfrwt>
<pdfrwt beam="2">  1        1 0.11283590E+00 0.23788635E+03</pdfrwt>
<totfact> 0.39769516E+02</totfact>
</mgrwt>
</event>
<event>
 5    0  0.3275920E+000  0.3744870E+03  0.7546771E-02  0.1052990E+00
         21   -1    0    0  501  502  0.00000000000E+00  0.00000000000E+00  0.23397257931E+03  0.23397257931E+03  0.00000000000E+00 0.  1.
          4   -1    0    0  503    0 -0.00000000000E+00 -0.00000000000E+00 -0.80235523613E+03  0.80235523613E+03  0.00000000000E+00 0.  1.
         25    1    1    2    0    0 -0.35271901832E+03 -0.20194298754E+01 -0.62979285055E+02  0.37948145453E+03  0.12500000000E+03 0.  0.
         21    1    1    2  503  502 -0.23253550652E+00 -0.29562186680E+02 -0.15749458549E+03  0.16024519154E+03  0.00000000000E+00 0.  1.
          4    1    1    2  501    0  0.35295155383E+03  0.31581616555E+02 -0.34790878627E+03  0.49660116937E+03  0.00000000000E+00 0.  1.
<mgrwt>
<rscale>  4 0.37448703E+03</rscale>
<asrwt>0</asrwt>
<pdfrwt beam="1">  1       21 0.35995781E-01 0.37448703E+03</pdfrwt>
<pdfrwt beam="2">  1        4 0.12343927E+00 0.37448703E+03</pdfrwt>
<totfact> 0.15743218E+02</totfact>
</mgrwt>
</event>
<event>
 5    0  0.3275920E+000  0.4127781E+03  0.7546771E-02  0.1039443E+00
          2   -1    0    0  503    0 -0.00000000000E+00  0.00000000000E+00  0.93155609622E+03  0.93155609622E+03  0.00000000000E+00 0.  1.
         21   -1    0    0  501  502  0.00000000000E+00 -0.00000000000E+00 -0.23386040094E+03  0.23386040094E+03  0.00000000000E+00 0. -1.
         25    1    1    2    0    0  0.37604766570E+03  0.11553763369E+03  0.65172721617E+02  0.41789146357E+03  0.12500000000E+03 0.  0.
         21    1    1    2  503  502 -0.22743547532E+02  0.65724472784E+01  0.26968536098E+02  0.35885483929E+02  0.00000000000E+00 0. -1.
          2    1    1    2  501    0 -0.35330411817E+03 -0.12211008097E+03  0.60555443756E+03  0.71163954966E+03  0.00000000000E+00 0.  1.
<mgrwt>
<rscale>  4 0.41277814E+03</rscale>
<asrwt>0</asrwt>
<pdfrwt beam="1">  1       21 0.35978524E-01 0.41277814E+03</pdfrwt>
<pdfrwt beam="2">  1        2 0.14331632E+00 0.41277814E+03</pdfrwt>
<totfact> 0.25558569E+03</totfact>
</mgrwt>
</event>
<event>
 5    0  0.3275920E+000  0.3561715E+03  0.7546771E-02  0.1060110E+00
         21   -1    0    0  501  502  0.00000000000E+00  0.00000000000E+00  0.38744275845E+03  0.38744275845E+03  0.00000000000E+00 0. -1.
          2   -1    0    0  503    0 -0.00000000000E+00 -0.00000000000E+00 -0.84554242532E+03  0.84554242532E+03  0.00000000000E+00 0. -1.
         25    1    1    2    0    0 -0.29533026274E+03 -0.14749901245E+03  0.24462260608E+03  0.42946611295E+03  0.12500000000E+03 0.  0.
         21    1    1    2  503  502 -0.21937711480E+02 -0.18863252519E+02 -0.80462294858E+02  0.85505943503E+02  0.00000000000E+00 0. -1.
          2    1    1    2  501    0  0.31726797422E+03  0.16636226497E+03 -0.62225997809E+03  0.71801312732E+03  0.00000000000E+00 0. -1.
<mgrwt>
<rscale>  4 0.35617148E+03</rscale>
<asrwt>0</asrwt>
<pdfrwt beam="1">  1       21 0.59606578E-01 0.35617148E+03</pdfrwt>
<pdfrwt beam="2">  1        2 0.13008345E+00 0.35617148E+03</pdfrwt>
<totfact> 0.10256919E+03</totfact>
</mgrwt>
</event>
<event>
 5    0  0.3275920E+000  0.3695464E+03  0.7546771E-02  0.1054867E+00
         21   -1    0    0  501  502  0.00000000000E+00  0.00000000000E+00  0.45908896697E+03  0.45908896697E+03  0.00000000000E+00 0.  1.
          1   -1    0    0  503    0 -0.00000000000E+00 -0.00000000000E+00 -0.40303147242E+03  0.40303147242E+03  0.00000000000E+00 0. -1.
         25    1    1    2    0    0  0.34289155496E+03  0.49824928368E+02  0.17530509510E+03  0.40793874334E+03  0.12500000000E+03 0.  0.
         21    1    1    2  503  502 -0.60742507334E+01  0.41260707533E+02  0.51053599469E+02  0.65922776996E+02  0.00000000000E+00 0.  1.
          1    1    1    2  501    0 -0.33681730423E+03 -0.91085635901E+02 -0.17030120002E+03  0.38825891905E+03  0.00000000000E+00 0. -1.
<mgrwt>
<rscale>  4 0.36954643E+03</rscale>
<asrwt>0</asrwt>
<pdfrwt beam="1">  1       21 0.70629072E-01 0.36954643E+03</pdfrwt>
<pdfrwt beam="2">  1        1 0.62004842E-01 0.36954643E+03</pdfrwt>
<totfact> 0.11248980E+03</totfact>
</mgrwt>
</event>
<event>
 5    0  0.3275920E+000  0.2450488E+03  0.7546771E-02  0.1116474E+00
         21   -1    0    0  501  502  0.00000000000E+00  0.00000000000E+00  0.86258842368E+03  0.86258842368E+03  0.00000000000E+00 0.  1.
          2   -1    0    0  503    0 -0.00000000000E+00 -0.00000000000E+00 -0.78288533612E+03  0.78288533612E+03  0.00000000000E+00 0. -1.
         25    1    1    2    0    0 -0.90302905057E+02  0.18974941055E+03  0.82031153096E+03  0.85597632052E+03  0.12500000000E+03 0.  0.
         21    1    1    2  503  502 -0.34679999655E+02  0.79711667350E+01 -0.15210600605E+03  0.15621292825E+03  0.00000000000E+00 0. -1.
          2    1    1    2  501    0  0.12498290471E+03 -0.19772057729E+03 -0.58850243734E+03  0.63328451103E+03  0.00000000000E+00 0. -1.
<mgrwt>
<rscale>  4 0.24504881E+03</rscale>
<asrwt>0</asrwt>
<pdfrwt beam="1">  1       21 0.13270591E+00 0.24504881E+03</pdfrwt>
<pdfrwt beam="2">  1        2 0.12044390E+00 0.24504881E+03</pdfrwt>
<totfact> 0.18192530E+02</totfact>
</mgrwt>
</event>
<event>
 5    0  0.3275920E+000  0.2474711E+03  0.7546771E-02  0.1114914E+00
          3   -1    0    0  503    0 -0.00000000000E+00  0.00000000000E+00  0.15579756407E+03  0.15579756407E+03  0.00000000000E+00 0.  1.
         21   -1    0    0  501  502  0.00000000000E+00 -0.00000000000E+00 -0.71962758458E+03  0.71962758458E+03  0.00000000000E+00 0.  1.
         25    1    1    2    0    0 -0.13062379257E+03  0.15656016974E+03 -0.40523144241E+03  0.47054349836E+03  0.12500000000E+03 0.  0.
         21    1    1    2  503  502 -0.22698560675E+02  0.11404948574E+02  0.74806145730E+02  0.79001626234E+02  0.00000000000E+00 0.  1.
          3    1    1    2  501    0  0.15332235324E+03 -0.16796511831E+03 -0.23340472382E+03  0.32588002405E+03  0.00000000000E+00 0.  1.
<mgrwt>
<rscale>  4 0.24747110E+03</rscale>
<asrwt>0</asrwt>
<pdfrwt beam="1">  1       21 0.11071194E+00 0.24747110E+03</pdfrwt>
<pdfrwt beam="2">  1        3 0.23968856E-01 0.24747110E+03</pdfrwt>
<totfact> 0.50746002E+02</totfact>
</mgrwt>
</event>
<event>
 5    0  0.3275920E+000  0.2708689E+03  0.7546771E-02  0.1100783E+00
          2   -1    0    0  503    0 -0.00000000000E+00  0.00000000000E+00  0.31346728223E+03  0.31346728223E+03  0.00000000000E+00 0.  1.
         21   -1    0    0  501  502  0.00000000000E+00 -0.00000000000E+00 -0.54210678721E+03  0.54210678721E+03  0.00000000000E+00 0.  1.
         25    1    1    2    0    0  0.47176174651E+00  0.23376574574E+03 -0.35545544086E+03  0.44341878273E+03  0.12500000000E+03 0.  0.
         21    1    1    2  503  502 -0.67097443573E+02  0.24095078334E+02  0.12721066609E+03  0.14582590065E+03  0.00000000000E+00 0.  1.
          2    1    1    2  501    0  0.66625681826E+02 -0.25786082407E+03 -0.39473021085E+00  0.26632938607E+03  0.00000000000E+00 0.  1.
<mgrwt>
<rscale>  4 0.27086887E+03</rscale>
<asrwt>0</asrwt>
<pdfrwt beam="1">  1       21 0.83401045E-01 0.27086887E+03</pdfrwt>
<pdfrwt beam="2">  1        2 0.48225736E-01 0.27086887E+03</pdfrwt>
<totfact> 0.15688498E+03</totfact>
</mgrwt>
</event>
<event>
 5    0  0.3275920E+000  0.3362031E+03  0.7546771E-02  0.1068425E+00
         -2   -1    0    0    0  501 -0.00000000000E+00  0.00000000000E+00  0.10783498285E+03  0.10783498285E+03  0.00000000000E+00 0.  1.
         21   -1    0    0  503  502  0.00000000000E+00 -0.00000000000E+00 -0.14047902634E+04  0.14047902634E+04  0.00000000000E+00 0.  1.
         25    1    1    2    0    0 -0.29155225253E+03  0.12884446380E+03 -0.99659379227E+03  0.10537683800E+04  0.12500000000E+03 0.  0.
         21    1    1    2  503  501  0.37903986803E+02  0.26174070807E+02 -0.65147721536E+02  0.79787341223E+02  0.00000000000E+00 0. -1.
         -2    1    1    2    0  502  0.25364826572E+03 -0.15501853460E+03 -0.23521376674E+03  0.37906952507E+03  0.00000000000E+00 0.  1.
<mgrwt>
<rscale>  4 0.33620310E+03</rscale>
<asrwt>0</asrwt>
<pdfrwt beam="1">  1       21 0.21612156E+00 0.33620310E+03</pdfrwt>
<pdfrwt beam="2">  1       -2 0.16589999E-01 0.33620310E+03</pdfrwt>
<totfact> 0.22401958E+02</totfact>
</mgrwt>
</event>
<event>
 5    0  0.3275920E+000  0.3142474E+03  0.7546771E-02  0.1078328E+00
         21   -1    0    0  501  502  0.00000000000E+00  0.00000000000E+00  0.38613322616E+03  0.38613322616E+03  0.00000000000E+00 0. -1.
          1   -1    0    0  503    0 -0.00000000000E+00 -0.00000000000E+00 -0.54153588483E+03  0.54153588483E+03  0.00000000000E+00 0.  1.
         25    1    1    2    0    0  0.12007192797E+03  0.25947982701E+03  0.24806178282E+03  0.39863102816E+03  0.12500000000E+03 0.  0.
         21    1    1    2  503  502  0.28780635414E+02  0.22988996859E+01 -0.89314498433E+02  0.93865273371E+02  0.00000000000E+00 0.  1.
          1    1    1    2  501    0 -0.14885256338E+03 -0.26177872670E+03 -0.31414994305E+03  0.43517280946E+03  0.00000000000E+00 0.  1.
<mgrwt>
<rscale>  4 0.31424740E+03</rscale>
<asrwt>0</asrwt>
<pdfrwt beam="1">  1       21 0.59405111E-01 0.31424740E+03</pdfrwt>
<pdfrwt beam="2">  1        1 0.83313214E-01 0.31424740E+03</pdfrwt>
<totfact> 0.11307953E+03</totfact>
</mgrwt>
</event>
<event>
 5    0  0.3275920E+000  0.3039072E+03  0.7546771E-02  0.1083304E+00
         21   -1    0    0  501  502  0.00000000000E+00  0.00000000000E+00  0.20283841830E+03  0.20283841830E+03  0.00000000000E+00 0.  1.
          1   -1    0    0  503    0 -0.00000000000E+00 -0.00000000000E+00 -0.15282444199E+04  0.15282444199E+04  0.00000000000E+00 0. -1.
         25    1    1    2    0    0  0.34234381496E+02 -0.31590884971E+03 -0.18917403525E+03  0.39036163978E+03  0.12500000000E+03 0.  0.
         21    1    1    2  503  502 -0.23322738109E+03  0.19484502396E+03 -0.10487710699E+04  0.10919159087E+04  0.00000000000E+00 0. -1.
          1    1    1    2  501    0  0.19899299959E+03  0.12106382575E+03 -0.87460896513E+02  0.24880528976E+03  0.00000000000E+00 0. -1.
<mgrwt>
<rscale>  4 0.30390721E+03</rscale>
<asrwt>0</asrwt>
<pdfrwt beam="1">  1       21 0.31205911E-01 0.30390721E+03</pdfrwt>
<pdfrwt beam="2">  1        1 0.23511452E+00 0.30390721E+03</pdfrwt>
<totfact> 0.72445135E+02</totfact>
</mgrwt>
</event>
<event>
 5    0  0.3275920E+000  0.2557474E+03  0.7546771E-02  0.1109726E+00
         -3   -1    0    0    0  501 -0.00000000000E+00  0.00000000000E+00  0.74567916526E+03  0.74567916526E+03  0.00000000000E+00 0.  1.
         21   -1    0    0  503  502  0.00000000000E+00 -0.00000000000E+00 -0.10312661806E+03  0.10312661806E+03  0.00000000000E+00 0.  1.
         25    1    1    2    0    0 -0.19667646696E+03 -0.67658354989E+02  0.23566375621E+03  0.33826275534E+03  0.12500000000E+03 0.  0.
         21    1    1    2  503  501 -0.33066686253E+02  0.46428790147E+01  0.17476271888E+03  0.17792405677E+03  0.00000000000E+00 0.  1.
         -3    1    1    2    0  502  0.22974315322E+03  0.63015475974E+02  0.23212607211E+03  0.33261897122E+03  0.00000000000E+00 0.  1.
<mgrwt>
<rscale>  4 0.25574744E+03</rscale>
<asrwt>0</asrwt>
<pdfrwt beam="1">  1       21 0.15865634E-01 0.25574744E+03</pdfrwt>
<pdfrwt beam="2">  1       -3 0.11471987E+00 0.25574744E+03</pdfrwt>
<totfact> 0.11465019E+03</totfact>
</mgrwt>
</event>
<event>
 5    0  0.3275920E+000  0.2304605E+03  0.7546771E-02  0.1126316E+00
          1   -1    0    0  503    0 -0.00000000000E+00  0.00000000000E+00  0.53055248307E+03  0.53055248307E+03  0.00000000000E+00 0.  1.
         21   -1    0    0  501  502  0.00000000000E+00 -0.00000000000E+00 -0.73370637543E+03  0.73370637543E+03  0.00000000000E+00 0.  1.
         25    1    1    2    0    0 -0.20404996199E+03  0.30823717317E+02 -0.64083716433E+03  0.68475087421E+03  0.12500000000E+03 0.  0.
         21    1    1    2  503  502  0.12418446078E+03 -0.93442912686E+02  0.28598987229E+02  0.15802297396E+03  0.00000000000E+00 0.  1.
          1    1    1    2  501    0  0.79865501211E+02  0.62619195368E+02  0.40908428474E+03  0.42148501033E+03  0.00000000000E+00 0.  1.
<mgrwt>
<rscale>  4 0.23046047E+03</rscale>
<asrwt>0</asrwt>
<pdfrwt beam="1">  1       21 0.11287790E+00 0.23046047E+03</pdfrwt>
<pdfrwt beam="2">  1        1 0.81623459E-01 0.23046047E+03</pdfrwt>
<totfact> 0.27588158E+02</totfact>
</mgrwt>
</event>
<event>
 5    0  0.3275920E+000  0.3926153E+03  0.7546771E-02  0.1046367E+00
         21   -1    0    0  501  502  0.00000000000E+00  0.00000000000E+00  0.19497033023E+03  0.19497033023E+03  0.00000000000E+00 0. -1.
          1   -1    0    0  503    0 -0.00000000000E+00 -0.00000000000E+00 -0.11755368973E+04  0.11755368973E+04  0.00000000000E+00 0. -1.
         25    1    1    2    0    0  0.35629185826E+03  0.13576840155E+03 -0.15706902667E+03  0.43089746606E+03  0.12500000000E+03 0.  0.
         21    1    1    2  503  502 -0.21819825622E+02 -0.16044148822E+02 -0.33233336942E+03  0.33343513302E+03  0.00000000000E+00 0. -1.
          1    1    1    2  501    0 -0.33447203264E+03 -0.11972425272E+03 -0.49116417094E+03  0.60617462841E+03  0.00000000000E+00 0. -1.
<mgrwt>
<rscale>  4 0.39261533E+03</rscale>
<asrwt>0</asrwt>
<pdfrwt beam="1">  1       21 0.29995436E-01 0.39261533E+03</pdfrwt>
<pdfrwt beam="2">  1        1 0.18085183E+00 0.39261533E+03</pdfrwt>
<totfact> 0.13266199E+03</totfact>
</mgrwt>
</event>
<event>
 5    0  0.3315091E+000  0.3080704E+03  0.7546771E-02  0.1081274E+00
         21   -1    0    0  501  502  0.00000000000E+00  0.00000000000E+00  0.30874264654E+03  0.30874264654E+03  0.00000000000E+00 0. -1.
          2   -1    0    0  503    0 -0.00000000000E+00 -0.00000000000E+00 -0.40578732734E+03  0.40578732734E+03  0.00000000000E+00 0. -1.
         25    1    1    2    0    0  0.16653849653E+03 -0.22704036174E+03  0.14405074027E+03  0.34008530174E+03  0.12500000000E+03 0.  0.
         21    1    1    2  503  502 -0.18042704785E+02  0.25396148522E+02 -0.76286522280E+01  0.32073351719E+02  0.00000000000E+00 0.  1.
          2    1    1    2  501    0 -0.14849579175E+03  0.20164421322E+03 -0.23346676885E+03  0.34237132042E+03  0.00000000000E+00 0. -1.
<mgrwt>
<rscale>  4 0.30807044E+03</rscale>
<asrwt>0</asrwt>
<pdfrwt beam="1">  1       21 0.47498869E-01 0.30807044E+03</pdfrwt>
<pdfrwt beam="2">  1        2 0.62428819E-01 0.30807044E+03</pdfrwt>
<totfact> 0.40203613E+03</totfact>
</mgrwt>
</event>
<event>
 5    0  0.3275920E+000  0.3374583E+03  0.7546771E-02  0.1067884E+00
          1   -1    0    0  503    0 -0.00000000000E+00  0.00000000000E+00  0.38846843417E+03  0.38846843417E+03  0.00000000000E+00 0.  1.
         21   -1    0    0  501  502  0.00000000000E+00 -0.00000000000E+00 -0.53381900070E+03  0.53381900070E+03  0.00000000000E+00 0.  1.
         25    1    1    2    0    0 -0.20506729339E+03 -0.26004246816E+03 -0.29337708708E+03  0.45974970939E+03  0.12500000000E+03 0.  0.
         21    1    1    2  503  502  0.84326732029E+02 -0.19580522064E+01  0.15221550805E+03  0.17402411498E+03  0.00000000000E+00 0.  1.
          1    1    1    2  501    0  0.12074056136E+03  0.26200052036E+03 -0.41889874986E+01  0.28851361050E+03  0.00000000000E+00 0.  1.
<mgrwt>
<rscale>  4 0.33745834E+03</rscale>
<asrwt>0</asrwt>
<pdfrwt beam="1">  1       21 0.82126000E-01 0.33745834E+03</pdfrwt>
<pdfrwt beam="2">  1        1 0.59764375E-01 0.33745834E+03</pdfrwt>
<totfact> 0.84490715E+02</totfact>
</mgrwt>
</event>
