<event>
 5    0  0.1911311E+001  0.2844764E+03  0.7546771E-02  0.1093269E+00
         21   -1    0    0  504  501  0.00000000000E+00  0.00000000000E+00  0.30302267938E+03  0.30302267938E+03  0.00000000000E+00 0. -1.
         21   -1    0    0  503  502 -0.00000000000E+00 -0.00000000000E+00 -0.92210663947E+03  0.92210663947E+03  0.00000000000E+00 0.  1.
         25    1    1    2    0    0  0.30880780617E+03  0.18644312048E+03  0.35448916163E+02  0.38341221157E+03  0.12500000000E+03 0.  0.
         21    1    1    2  503  501 -0.19924765893E+03 -0.14235867574E+03 -0.67839047633E+03  0.72123453919E+03  0.00000000000E+00 0.  1.
         21    1    1    2  504  502 -0.10956014724E+03 -0.44084444740E+02  0.23857600073E+02  0.12048256809E+03  0.00000000000E+00 0. -1.
<mgrwt>
<rscale>  4 0.28447639E+03</rscale>
<asrwt>0</asrwt>
<pdfrwt beam="1">  1       21 0.46618875E-01 0.28447639E+03</pdfrwt>
<pdfrwt beam="2">  1       21 0.14186256E+00 0.28447639E+03</pdfrwt>
<totfact> 0.14126045E+03</totfact>
</mgrwt>
</event>
<event>
 5    0  0.1911311E+001  0.3827117E+03  0.7546771E-02  0.1049936E+00
         21   -1    0    0  504  501  0.00000000000E+00  0.00000000000E+00  0.48323584182E+03  0.48323584182E+03  0.00000000000E+00 0. -1.
         21   -1    0    0  503  502 -0.00000000000E+00 -0.00000000000E+00 -0.78761864190E+03  0.78761864190E+03  0.00000000000E+00 0. -1.
         25    1    1    2    0    0  0.23488098809E+03 -0.27860318717E+03  0.20807162542E+03  0.43784428257E+03  0.12500000000E+03 0.  0.
         21    1    1    2  503  501 -0.26977676748E+03  0.24106955973E+03 -0.61775426357E+03  0.71590108748E+03  0.00000000000E+00 0. -1.
         21    1    1    2  504  502  0.34895779386E+02  0.37533627443E+02  0.10529983807E+03  0.11710911367E+03  0.00000000000E+00 0. -1.
<mgrwt>
<rscale>  4 0.38271167E+03</rscale>
<asrwt>0</asrwt>
<pdfrwt beam="1">  1       21 0.74343976E-01 0.38271167E+03</pdfrwt>
<pdfrwt beam="2">  1       21 0.12117210E+00 0.38271167E+03</pdfrwt>
<totfact> 0.72697764E+02</totfact>
</mgrwt>
</event>
<event>
 5    0  0.1911311E+001  0.2517117E+03  0.7546771E-02  0.1112228E+00
         21   -1    0    0  504  501  0.00000000000E+00  0.00000000000E+00  0.26381962541E+03  0.26381962541E+03  0.00000000000E+00 0.  1.
         21   -1    0    0  503  502 -0.00000000000E+00 -0.00000000000E+00 -0.27052367255E+03  0.27052367255E+03  0.00000000000E+00 0.  1.
         25    1    1    2    0    0 -0.28875556199E+02  0.22351192178E+03  0.57591462682E+02  0.26407035710E+03  0.12500000000E+03 0.  0.
         21    1    1    2  503  501  0.13994230937E+01 -0.21588269396E+03 -0.88056706542E+02  0.23315505464E+03  0.00000000000E+00 0.  1.
         21    1    1    2  504  502  0.27476133105E+02 -0.76292278262E+01  0.23761196719E+02  0.37117886216E+02  0.00000000000E+00 0.  1.
<mgrwt>
<rscale>  4 0.25171169E+03</rscale>
<asrwt>0</asrwt>
<pdfrwt beam="1">  1       21 0.40587635E-01 0.25171169E+03</pdfrwt>
<pdfrwt beam="2">  1       21 0.41619027E-01 0.25171169E+03</pdfrwt>
<totfact> 0.31575693E+04</totfact>
</mgrwt>
</event>
<event>
 5    0  0.1911311E+001  0.2866441E+03  0.7546771E-02  0.1092114E+00
         21   -1    0    0  504  501  0.00000000000E+00  0.00000000000E+00  0.19740749069E+03  0.19740749069E+03  0.00000000000E+00 0.  1.
         21   -1    0    0  503  502 -0.00000000000E+00 -0.00000000000E+00 -0.68381498442E+03  0.68381498442E+03  0.00000000000E+00 0.  1.
         25    1    1    2    0    0  0.31778659165E+03  0.21250696849E+01 -0.37651596888E+03  0.50831300256E+03  0.12500000000E+03 0.  0.
         21    1    1    2  503  501 -0.20792945466E+03  0.22296822255E+02 -0.14562890700E+03  0.25483246448E+03  0.00000000000E+00 0.  1.
         21    1    1    2  504  502 -0.10985713699E+03 -0.24421891940E+02  0.35737382152E+02  0.11807700807E+03  0.00000000000E+00 0.  1.
<mgrwt>
<rscale>  4 0.28664407E+03</rscale>
<asrwt>0</asrwt>
<pdfrwt beam="1">  1       21 0.30370383E-01 0.28664407E+03</pdfrwt>
<pdfrwt beam="2">  1       21 0.10520231E+00 0.28664407E+03</pdfrwt>
<totfact> 0.71324302E+03</totfact>
</mgrwt>
</event>
<event>
 5    0  0.1950702E+001  0.2540017E+03  0.7546771E-02  0.1110802E+00
         21   -1    0    0  504  501  0.00000000000E+00  0.00000000000E+00  0.11652515300E+03  0.11652515300E+03  0.00000000000E+00 0. -1.
         21   -1    0    0  503  502 -0.00000000000E+00 -0.00000000000E+00 -0.86479994002E+03  0.86479994002E+03  0.00000000000E+00 0. -1.
         25    1    1    2    0    0 -0.22985783700E+03  0.10982347318E+02 -0.96964655582E+02  0.27925325712E+03  0.12500000000E+03 0.  0.
         21    1    1    2  503  501  0.21692532104E+03 -0.33554339200E+02 -0.63374510422E+03  0.67068274595E+03  0.00000000000E+00 0. -1.
         21    1    1    2  504  502  0.12932515959E+02  0.22571991882E+02 -0.17565027222E+02  0.31389089950E+02  0.00000000000E+00 0. -1.
<mgrwt>
<rscale>  4 0.25400165E+03</rscale>
<asrwt>0</asrwt>
<pdfrwt beam="1">  1       21 0.17926947E-01 0.25400165E+03</pdfrwt>
<pdfrwt beam="2">  1       21 0.13304614E+00 0.25400165E+03</pdfrwt>
<totfact> 0.11082213E+04</totfact>
</mgrwt>
</event>
<event>
 5    0  0.1911311E+001  0.4341716E+03  0.7546771E-02  0.1032550E+00
         21   -1    0    0  502  501  0.00000000000E+00  0.00000000000E+00  0.43384483152E+03  0.43384483152E+03  0.00000000000E+00 0. -1.
         21   -1    0    0  504  502 -0.00000000000E+00 -0.00000000000E+00 -0.60808596199E+03  0.60808596199E+03  0.00000000000E+00 0. -1.
         25    1    1    2    0    0 -0.40796369961E+03  0.66208166335E+02  0.18103450351E+03  0.46820550290E+03  0.12500000000E+03 0.  0.
         21    1    1    2  503  501 -0.63633103683E+01 -0.22163274487E+02  0.41852435837E+01  0.23435415906E+02  0.00000000000E+00 0. -1.
         21    1    1    2  504  503  0.41432700997E+03 -0.44044891848E+02 -0.35946087758E+03  0.55028987470E+03  0.00000000000E+00 0. -1.
<mgrwt>
<rscale>  4 0.43417157E+03</rscale>
<asrwt>0</asrwt>
<pdfrwt beam="1">  1       21 0.66745359E-01 0.43417157E+03</pdfrwt>
<pdfrwt beam="2">  1       21 0.93551687E-01 0.43417157E+03</pdfrwt>
<totfact> 0.17093148E+03</totfact>
</mgrwt>
</event>
