<event>
 5    0  0.1911311E+001  0.4365157E+03  0.7546771E-02  0.1031821E+00
         21   -1    0    0  504  501  0.00000000000E+00  0.00000000000E+00  0.10132267709E+04  0.10132267709E+04  0.00000000000E+00 0. -1.
         21   -1    0    0  503  502 -0.00000000000E+00 -0.00000000000E+00 -0.39081723995E+03  0.39081723995E+03  0.00000000000E+00 0. -1.
         25    1    1    2    0    0 -0.16659537383E+03 -0.38248385935E+03  0.62314017776E+03  0.76024772435E+03  0.12500000000E+03 0.  0.
         21    1    1    2  503  501  0.19537659241E+03  0.37024649474E+03 -0.18442604346E+03  0.45745758846E+03  0.00000000000E+00 0. -1.
         21    1    1    2  504  502 -0.28781218580E+02  0.12237364614E+02  0.18369539670E+03  0.18633869809E+03  0.00000000000E+00 0. -1.
<mgrwt>
<rscale>  4 0.43651569E+03</rscale>
<asrwt>0</asrwt>
<pdfrwt beam="1">  1       21 0.15588104E+00 0.43651569E+03</pdfrwt>
<pdfrwt beam="2">  1       21 0.60125730E-01 0.43651569E+03</pdfrwt>
<totfact> 0.58485016E+02</totfact>
</mgrwt>
</event>
<event>
 5    0  0.1911311E+001  0.2352627E+03  0.7546771E-02  0.1122990E+00
         21   -1    0    0  502  501  0.00000000000E+00  0.00000000000E+00  0.53380723077E+02  0.53380723077E+02  0.00000000000E+00 0.  1.
         21   -1    0    0  504  502 -0.00000000000E+00 -0.00000000000E+00 -0.24488525933E+04  0.24488525933E+04  0.00000000000E+00 0.  1.
         25    1    1    2    0    0 -0.17578201612E+03 -0.12792101108E+03 -0.19042599723E+04  0.19207014719E+04  0.12500000000E+03 0.  0.
         21    1    1    2  503  501  0.10617391976E+03  0.16796131576E+03 -0.21012666029E+03  0.28920082675E+03  0.00000000000E+00 0.  1.
         21    1    1    2  504  503  0.69608096363E+02 -0.40040304676E+02 -0.28108523767E+03  0.29233101771E+03  0.00000000000E+00 0. -1.
<mgrwt>
<rscale>  4 0.23526270E+03</rscale>
<asrwt>0</asrwt>
<pdfrwt beam="1">  1       21 0.82124177E-02 0.23526270E+03</pdfrwt>
<pdfrwt beam="2">  1       21 0.37674661E+00 0.23526270E+03</pdfrwt>
<totfact> 0.13100246E+03</totfact>
</mgrwt>
</event>
<event>
 5    0  0.1911311E+001  0.2573385E+03  0.7546771E-02  0.1108753E+00
         21   -1    0    0  504  501  0.00000000000E+00  0.00000000000E+00  0.12966315194E+04  0.12966315194E+04  0.00000000000E+00 0.  1.
         21   -1    0    0  503  502 -0.00000000000E+00 -0.00000000000E+00 -0.46985072566E+02  0.46985072566E+02  0.00000000000E+00 0. -1.
         25    1    1    2    0    0  0.14496431178E+03 -0.17199847227E+03  0.60034031151E+03  0.65317043394E+03  0.12500000000E+03 0.  0.
         21    1    1    2  503  501 -0.40305697462E+02  0.30878352518E+02  0.80969853913E+02  0.95572690371E+02  0.00000000000E+00 0. -1.
         21    1    1    2  504  502 -0.10465861432E+03  0.14112011975E+03  0.56833628137E+03  0.59487346761E+03  0.00000000000E+00 0.  1.
<mgrwt>
<rscale>  4 0.25733854E+03</rscale>
<asrwt>0</asrwt>
<pdfrwt beam="1">  1       21 0.19948174E+00 0.25733854E+03</pdfrwt>
<pdfrwt beam="2">  1       21 0.72284737E-02 0.25733854E+03</pdfrwt>
<totfact> 0.18525742E+04</totfact>
</mgrwt>
</event>
