<event>
 5    0  0.1911311E+001  0.2797742E+03  0.7546771E-02  0.1095812E+00
         21   -1    0    0  503  501  0.00000000000E+00  0.00000000000E+00  0.56332396396E+03  0.56332396396E+03  0.00000000000E+00 0.  1.
         21   -1    0    0  504  502 -0.00000000000E+00 -0.00000000000E+00 -0.34154311924E+03  0.34154311924E+03  0.00000000000E+00 0.  1.
         25    1    1    2    0    0  0.21209903425E+03  0.10450680571E+03 -0.20720164251E+03  0.33832705098E+03  0.12500000000E+03 0.  0.
         21    1    1    2  503  502  0.47122246703E+01  0.23941623973E+02 -0.32555561729E+02  0.40685022051E+02  0.00000000000E+00 0.  1.
         21    1    1    2  504  501 -0.21681125892E+03 -0.12844842968E+03  0.46153804896E+03  0.52585501017E+03  0.00000000000E+00 0.  1.
<mgrwt>
<rscale>  4 0.27977417E+03</rscale>
<asrwt>0</asrwt>
<pdfrwt beam="1">  1       21 0.86665225E-01 0.27977417E+03</pdfrwt>
<pdfrwt beam="2">  1       21 0.52545095E-01 0.27977417E+03</pdfrwt>
<totfact> 0.37047936E+03</totfact>
</mgrwt>
</event>
<event>
 5    0  0.1911311E+001  0.3628518E+03  0.7546771E-02  0.1057460E+00
         21   -1    0    0  504  501  0.00000000000E+00  0.00000000000E+00  0.92333077521E+03  0.92333077521E+03  0.00000000000E+00 0. -1.
         21   -1    0    0  503  502 -0.00000000000E+00 -0.00000000000E+00 -0.20028659564E+03  0.20028659564E+03  0.00000000000E+00 0. -1.
         25    1    1    2    0    0 -0.35119984039E+03  0.44910229271E+02  0.60848858544E+03  0.71501161892E+03  0.12500000000E+03 0.  0.
         21    1    1    2  503  501  0.37743746719E+02 -0.56302834050E+01 -0.41395242519E+02  0.56301479650E+02  0.00000000000E+00 0. -1.
         21    1    1    2  504  502  0.31345609367E+03 -0.39279945866E+02  0.15595083665E+03  0.35230427227E+03  0.00000000000E+00 0. -1.
<mgrwt>
<rscale>  4 0.36285179E+03</rscale>
<asrwt>0</asrwt>
<pdfrwt beam="1">  1       21 0.14205089E+00 0.36285179E+03</pdfrwt>
<pdfrwt beam="2">  1       21 0.30813323E-01 0.36285179E+03</pdfrwt>
<totfact> 0.31239261E+03</totfact>
</mgrwt>
</event>
<event>
 5    0  0.1911311E+001  0.3598870E+03  0.7546771E-02  0.1058629E+00
         21   -1    0    0  504  501  0.00000000000E+00  0.00000000000E+00  0.90400124049E+03  0.90400124049E+03  0.00000000000E+00 0.  1.
         21   -1    0    0  503  502 -0.00000000000E+00 -0.00000000000E+00 -0.20128032392E+03  0.20128032392E+03  0.00000000000E+00 0.  1.
         25    1    1    2    0    0 -0.20730894719E+02 -0.32773298443E+03  0.59439356722E+03  0.69048344790E+03  0.12500000000E+03 0.  0.
         21    1    1    2  503  501 -0.21957172621E+02  0.34024774018E+03  0.55017381945E+02  0.34536582697E+03  0.00000000000E+00 0.  1.
         21    1    1    2  504  502  0.42688067341E+02 -0.12514755750E+02  0.53309967413E+02  0.69432289537E+02  0.00000000000E+00 0.  1.
<mgrwt>
<rscale>  4 0.35988705E+03</rscale>
<asrwt>0</asrwt>
<pdfrwt beam="1">  1       21 0.13907711E+00 0.35988705E+03</pdfrwt>
<pdfrwt beam="2">  1       21 0.30966204E-01 0.35988705E+03</pdfrwt>
<totfact> 0.32760266E+03</totfact>
</mgrwt>
</event>
