<event>
 5    0  0.1829809E+000  0.4493618E+03  0.7546771E-02  0.1027913E+00
         21   -1    0    0  502  501  0.00000000000E+00  0.00000000000E+00  0.38452451713E+03  0.38452451713E+03  0.00000000000E+00 0.  1.
         21   -1    0    0  503  502 -0.00000000000E+00 -0.00000000000E+00 -0.19717388347E+04  0.19717388347E+04  0.00000000000E+00 0.  1.
         25    1    1    2    0    0  0.35504312498E+03  0.24544940528E+03  0.21675599416E+03  0.49890799969E+03  0.12500000000E+03 0.  0.
         21    1    1    2  503  504 -0.31472128025E+03 -0.22162443024E+03 -0.17043259495E+04  0.17472532199E+04  0.00000000000E+00 0.  1.
         21    1    1    2  504  501 -0.40321844732E+02 -0.23824975046E+02 -0.99644362299E+02  0.11010213230E+03  0.00000000000E+00 0.  1.
<mgrwt>
<rscale>  4 0.44936180E+03</rscale>
<asrwt>0</asrwt>
<pdfrwt beam="1">  1       21 0.59157619E-01 0.44936180E+03</pdfrwt>
<pdfrwt beam="2">  1       21 0.30334443E+00 0.44936180E+03</pdfrwt>
<totfact> 0.66829590E+01</totfact>
</mgrwt>
</event>
<event>
 5    0  0.1829809E+000  0.2949740E+03  0.7546771E-02  0.1087780E+00
         21   -1    0    0  502  501  0.00000000000E+00  0.00000000000E+00  0.23460342003E+03  0.23460342003E+03  0.00000000000E+00 0.  1.
         21   -1    0    0  503  502 -0.00000000000E+00 -0.00000000000E+00 -0.53761221958E+03  0.53761221958E+03  0.00000000000E+00 0.  1.
         25    1    1    2    0    0  0.30233997670E+02  0.30000063463E+03 -0.14267296777E+02  0.32671552022E+03  0.12500000000E+03 0.  0.
         21    1    1    2  503  504  0.29006601793E+02 -0.25560389031E+03 -0.26094087295E+03  0.36642171178E+03  0.00000000000E+00 0.  1.
         21    1    1    2  504  501 -0.59240599462E+02 -0.44396744327E+02 -0.27800629823E+02  0.79078407610E+02  0.00000000000E+00 0. -1.
<mgrwt>
<rscale>  4 0.29497401E+03</rscale>
<asrwt>0</asrwt>
<pdfrwt beam="1">  1       21 0.36092834E-01 0.29497401E+03</pdfrwt>
<pdfrwt beam="2">  1       21 0.82709572E-01 0.29497401E+03</pdfrwt>
<totfact> 0.88923189E+03</totfact>
</mgrwt>
</event>
<event>
 5    0  0.1829809E+000  0.3841449E+03  0.7546771E-02  0.1049412E+00
         21   -1    0    0  502  501  0.00000000000E+00  0.00000000000E+00  0.27812038226E+03  0.27812038226E+03  0.00000000000E+00 0.  1.
         21   -1    0    0  503  502 -0.00000000000E+00 -0.00000000000E+00 -0.62876447133E+03  0.62876447133E+03  0.00000000000E+00 0.  1.
         25    1    1    2    0    0 -0.20171341887E+03 -0.30208281061E+03  0.10934895527E+02  0.38430053312E+03  0.12500000000E+03 0.  0.
         21    1    1    2  503  504  0.66675433020E+02  0.10169328642E+03 -0.58432102133E+02  0.13491274377E+03  0.00000000000E+00 0.  1.
         21    1    1    2  504  501  0.13503798585E+03  0.20038952419E+03 -0.30314688247E+03  0.38767157669E+03  0.00000000000E+00 0.  1.
<mgrwt>
<rscale>  4 0.38414493E+03</rscale>
<asrwt>0</asrwt>
<pdfrwt beam="1">  1       21 0.42787751E-01 0.38414493E+03</pdfrwt>
<pdfrwt beam="2">  1       21 0.96732995E-01 0.38414493E+03</pdfrwt>
<totfact> 0.41827823E+03</totfact>
</mgrwt>
</event>
<event>
 5    0  0.1829809E+000  0.2372084E+03  0.7546771E-02  0.1121667E+00
         21   -1    0    0  502  501  0.00000000000E+00  0.00000000000E+00  0.84550107299E+03  0.84550107299E+03  0.00000000000E+00 0. -1.
         21   -1    0    0  503  502 -0.00000000000E+00 -0.00000000000E+00 -0.61082884367E+02  0.61082884367E+02  0.00000000000E+00 0.  1.
         25    1    1    2    0    0 -0.10744022353E+03  0.17058548283E+03  0.52172975939E+03  0.57312280570E+03  0.12500000000E+03 0.  0.
         21    1    1    2  503  504  0.23370373936E+02 -0.63333506838E+02  0.10742751400E+03  0.12687780827E+03  0.00000000000E+00 0. -1.
         21    1    1    2  504  501  0.84069849594E+02 -0.10725197599E+03  0.15526091523E+03  0.20658334338E+03  0.00000000000E+00 0.  1.
<mgrwt>
<rscale>  4 0.23720837E+03</rscale>
<asrwt>0</asrwt>
<pdfrwt beam="1">  1       21 0.13007708E+00 0.23720837E+03</pdfrwt>
<pdfrwt beam="2">  1       21 0.93973674E-02 0.23720837E+03</pdfrwt>
<totfact> 0.38154247E+04</totfact>
</mgrwt>
</event>
<event>
 5    0  0.1829809E+000  0.2375321E+03  0.7546771E-02  0.1121448E+00
         21   -1    0    0  502  501  0.00000000000E+00  0.00000000000E+00  0.82317223329E+02  0.82317223329E+02  0.00000000000E+00 0. -1.
         21   -1    0    0  503  502 -0.00000000000E+00 -0.00000000000E+00 -0.76716587395E+03  0.76716587395E+03  0.00000000000E+00 0. -1.
         25    1    1    2    0    0  0.28535891099E+02  0.22125672245E+03 -0.41994704918E+03  0.49168013833E+03  0.12500000000E+03 0.  0.
         21    1    1    2  503  504  0.99393605090E+00 -0.19232103075E+03 -0.18021656960E+03  0.26356475245E+03  0.00000000000E+00 0. -1.
         21    1    1    2  504  501 -0.29529827150E+02 -0.28935691702E+02 -0.84685031845E+02  0.94238206500E+02  0.00000000000E+00 0. -1.
<mgrwt>
<rscale>  4 0.23753205E+03</rscale>
<asrwt>0</asrwt>
<pdfrwt beam="1">  1       21 0.12664188E-01 0.23753205E+03</pdfrwt>
<pdfrwt beam="2">  1       21 0.11802552E+00 0.23753205E+03</pdfrwt>
<totfact> 0.28593544E+04</totfact>
</mgrwt>
</event>
<event>
 5    0  0.1829809E+000  0.3685282E+03  0.7546771E-02  0.1056987E+00
         21   -1    0    0  502  501  0.00000000000E+00  0.00000000000E+00  0.12505202331E+04  0.12505202331E+04  0.00000000000E+00 0. -1.
         21   -1    0    0  503  502 -0.00000000000E+00 -0.00000000000E+00 -0.12003300601E+03  0.12003300601E+03  0.00000000000E+00 0. -1.
         25    1    1    2    0    0 -0.11889934189E+03 -0.30565569707E+03  0.80765309291E+03  0.88061965521E+03  0.12500000000E+03 0.  0.
         21    1    1    2  503  504  0.15242956514E+03  0.18497425723E+03  0.17864012228E+03  0.29893568113E+03  0.00000000000E+00 0. -1.
         21    1    1    2  504  501 -0.33530223255E+02  0.12068143985E+03  0.14419401195E+03  0.19099790281E+03  0.00000000000E+00 0. -1.
<mgrwt>
<rscale>  4 0.36406075E+03</rscale>
<asrwt>0</asrwt>
<pdfrwt beam="1">  1       21 0.19238772E+00 0.36852821E+03</pdfrwt>
<pdfrwt beam="2">  1       21 0.18466617E-01 0.36852821E+03</pdfrwt>
<totfact> 0.35747167E+03</totfact>
</mgrwt>
</event>
<event>
 5    0  0.1829809E+000  0.2660484E+03  0.7546771E-02  0.1103563E+00
         21   -1    0    0  502  501  0.00000000000E+00  0.00000000000E+00  0.48767709366E+03  0.48767709366E+03  0.00000000000E+00 0. -1.
         21   -1    0    0  503  502 -0.00000000000E+00 -0.00000000000E+00 -0.19363441565E+03  0.19363441565E+03  0.00000000000E+00 0. -1.
         25    1    1    2    0    0 -0.23373956802E+03  0.54069235515E+02  0.30957052915E+03  0.41111626142E+03  0.12500000000E+03 0.  0.
         21    1    1    2  503  504  0.26454788870E+02  0.35139260535E+02 -0.52330847568E+01  0.44294566948E+02  0.00000000000E+00 0.  1.
         21    1    1    2  504  501  0.20728477915E+03 -0.89208496050E+02 -0.10294766383E+02  0.22590068094E+03  0.00000000000E+00 0. -1.
<mgrwt>
<rscale>  4 0.26604838E+03</rscale>
<asrwt>0</asrwt>
<pdfrwt beam="1">  1       21 0.75027245E-01 0.26604838E+03</pdfrwt>
<pdfrwt beam="2">  1       21 0.29789910E-01 0.26604838E+03</pdfrwt>
<totfact> 0.16480161E+04</totfact>
</mgrwt>
</event>
<event>
 5    0  0.1829809E+000  0.2725014E+03  0.7546771E-02  0.1099856E+00
         21   -1    0    0  502  501  0.00000000000E+00  0.00000000000E+00  0.31215277373E+03  0.31215277373E+03  0.00000000000E+00 0.  1.
         21   -1    0    0  503  502 -0.00000000000E+00 -0.00000000000E+00 -0.27098529717E+03  0.27098529717E+03  0.00000000000E+00 0.  1.
         25    1    1    2    0    0 -0.22413844801E+01 -0.24213008734E+03  0.14125512246E+03  0.30693649607E+03  0.12500000000E+03 0.  0.
         21    1    1    2  503  504 -0.42136088280E+02  0.10985592268E+03 -0.51856913202E+02  0.12858037615E+03  0.00000000000E+00 0.  1.
         21    1    1    2  504  501  0.44377472760E+02  0.13227416466E+03 -0.48230732697E+02  0.14762119869E+03  0.00000000000E+00 0.  1.
<mgrwt>
<rscale>  4 0.27250138E+03</rscale>
<asrwt>0</asrwt>
<pdfrwt beam="1">  1       21 0.48023504E-01 0.27250138E+03</pdfrwt>
<pdfrwt beam="2">  1       21 0.41690046E-01 0.27250138E+03</pdfrwt>
<totfact> 0.22036696E+04</totfact>
</mgrwt>
</event>
<event>
 5    0  0.1829809E+000  0.2318607E+03  0.7546771E-02  0.1125337E+00
         21   -1    0    0  502  501  0.00000000000E+00  0.00000000000E+00  0.13389893541E+03  0.13389893541E+03  0.00000000000E+00 0. -1.
         21   -1    0    0  503  502 -0.00000000000E+00 -0.00000000000E+00 -0.10100580411E+04  0.10100580411E+04  0.00000000000E+00 0. -1.
         25    1    1    2    0    0  0.93680751187E+02  0.23316392610E+03 -0.78585521527E+02  0.29144842386E+03  0.12500000000E+03 0.  0.
         21    1    1    2  503  504 -0.42387362598E+02 -0.18444063087E+03 -0.73192600473E+03  0.75599650213E+03  0.00000000000E+00 0. -1.
         21    1    1    2  504  501 -0.51293388589E+02 -0.48723295237E+02 -0.65647579450E+02  0.96512050539E+02  0.00000000000E+00 0. -1.
<mgrwt>
<rscale>  4 0.23186067E+03</rscale>
<asrwt>0</asrwt>
<pdfrwt beam="1">  1       21 0.20599836E-01 0.23186067E+03</pdfrwt>
<pdfrwt beam="2">  1       21 0.15539355E+00 0.23186067E+03</pdfrwt>
<totfact> 0.57664199E+03</totfact>
</mgrwt>
</event>
<event>
 5    0  0.1829809E+000  0.4517058E+03  0.7546771E-02  0.1027215E+00
         21   -1    0    0  502  501  0.00000000000E+00  0.00000000000E+00  0.70248931899E+03  0.70248931899E+03  0.00000000000E+00 0.  1.
         21   -1    0    0  503  502 -0.00000000000E+00 -0.00000000000E+00 -0.43667273313E+03  0.43667273313E+03  0.00000000000E+00 0.  1.
         25    1    1    2    0    0  0.26660364533E+03  0.34254285519E+03  0.47251370828E+03  0.65368747567E+03  0.12500000000E+03 0.  0.
         21    1    1    2  503  504 -0.25883056719E+03 -0.30841675460E+03 -0.20098926175E+03  0.45001204469E+03  0.00000000000E+00 0.  1.
         21    1    1    2  504  501 -0.77730781394E+01 -0.34126100584E+02 -0.57078606661E+01  0.35462531751E+02  0.00000000000E+00 0. -1.
<mgrwt>
<rscale>  4 0.45170578E+03</rscale>
<asrwt>0</asrwt>
<pdfrwt beam="1">  1       21 0.10807528E+00 0.45170578E+03</pdfrwt>
<pdfrwt beam="2">  1       21 0.67180421E-01 0.45170578E+03</pdfrwt>
<totfact> 0.11776718E+03</totfact>
</mgrwt>
</event>
<event>
 5    0  0.1829809E+000  0.2456053E+03  0.7546771E-02  0.1116114E+00
         21   -1    0    0  502  501  0.00000000000E+00  0.00000000000E+00  0.83184652917E+02  0.83184652917E+02  0.00000000000E+00 0.  1.
         21   -1    0    0  503  502 -0.00000000000E+00 -0.00000000000E+00 -0.68022471986E+03  0.68022471986E+03  0.00000000000E+00 0.  1.
         25    1    1    2    0    0 -0.38261742892E+01  0.21138189408E+03 -0.22500581291E+03  0.33309091941E+03  0.12500000000E+03 0.  0.
         21    1    1    2  503  504  0.17168420193E+02 -0.65037507947E+02 -0.90746071124E+02  0.11295787496E+03  0.00000000000E+00 0.  1.
         21    1    1    2  504  501 -0.13342245904E+02 -0.14634438613E+03 -0.28128818291E+03  0.31736057840E+03  0.00000000000E+00 0.  1.
<mgrwt>
<rscale>  4 0.24560526E+03</rscale>
<asrwt>0</asrwt>
<pdfrwt beam="1">  1       21 0.12797638E-01 0.24560526E+03</pdfrwt>
<pdfrwt beam="2">  1       21 0.10464996E+00 0.24560526E+03</pdfrwt>
<totfact> 0.37490224E+04</totfact>
</mgrwt>
</event>
<event>
 5    0  0.1829809E+000  0.3531721E+03  0.7546771E-02  0.1061321E+00
         21   -1    0    0  502  501  0.00000000000E+00  0.00000000000E+00  0.48518535548E+03  0.48518535548E+03  0.00000000000E+00 0. -1.
         21   -1    0    0  503  502 -0.00000000000E+00 -0.00000000000E+00 -0.32074724553E+03  0.32074724553E+03  0.00000000000E+00 0. -1.
         25    1    1    2    0    0  0.32226351819E+03  0.13177027595E+03  0.23197201194E+03  0.43663851766E+03  0.12500000000E+03 0.  0.
         21    1    1    2  503  504 -0.15380057589E+02 -0.28585409875E+02  0.14106957408E+02  0.35393192516E+02  0.00000000000E+00 0.  1.
         21    1    1    2  504  501 -0.30688346060E+03 -0.10318486608E+03 -0.81640859400E+02  0.33390089084E+03  0.00000000000E+00 0. -1.
<mgrwt>
<rscale>  4 0.35317211E+03</rscale>
<asrwt>0</asrwt>
<pdfrwt beam="1">  1       21 0.74643901E-01 0.35317211E+03</pdfrwt>
<pdfrwt beam="2">  1       21 0.49345730E-01 0.35317211E+03</pdfrwt>
<totfact> 0.57491831E+03</totfact>
</mgrwt>
</event>
<event>
 5    0  0.1829809E+000  0.3127978E+03  0.7546771E-02  0.1079524E+00
         21   -1    0    0  502  501  0.00000000000E+00  0.00000000000E+00  0.13043913298E+03  0.13043913298E+03  0.00000000000E+00 0. -1.
         21   -1    0    0  503  502 -0.00000000000E+00 -0.00000000000E+00 -0.85738769196E+03  0.85738769196E+03  0.00000000000E+00 0. -1.
         25    1    1    2    0    0  0.18508118714E+03  0.21283078875E+03 -0.17843724809E+03  0.35639422271E+03  0.12500000000E+03 0.  0.
         21    1    1    2  503  504 -0.36948801808E+02 -0.90980914496E+02 -0.85274964375E+02  0.13005598912E+03  0.00000000000E+00 0. -1.
         21    1    1    2  504  501 -0.14813238533E+03 -0.12184987425E+03 -0.46323634651E+03  0.50137661311E+03  0.00000000000E+00 0. -1.
<mgrwt>
<rscale>  4 0.31171972E+03</rscale>
<asrwt>0</asrwt>
<pdfrwt beam="1">  1       21 0.20067558E-01 0.31279781E+03</pdfrwt>
<pdfrwt beam="2">  1       21 0.13190581E+00 0.31279781E+03</pdfrwt>
<totfact> 0.88969673E+03</totfact>
</mgrwt>
</event>
<event>
 5    0  0.1829809E+000  0.2579113E+03  0.7546771E-02  0.1108405E+00
         21   -1    0    0  502  501  0.00000000000E+00  0.00000000000E+00  0.11003871973E+03  0.11003871973E+03  0.00000000000E+00 0. -1.
         21   -1    0    0  503  502 -0.00000000000E+00 -0.00000000000E+00 -0.57514862087E+03  0.57514862087E+03  0.00000000000E+00 0. -1.
         25    1    1    2    0    0 -0.26723724497E+02  0.22400686705E+03 -0.16989928874E+03  0.30884300583E+03  0.12500000000E+03 0.  0.
         21    1    1    2  503  504  0.24025874417E+02 -0.13056681606E+03 -0.12601563557E+03  0.18304337329E+03  0.00000000000E+00 0. -1.
         21    1    1    2  504  501  0.26978500798E+01 -0.93440050982E+02 -0.16919497682E+03  0.19330096147E+03  0.00000000000E+00 0. -1.
<mgrwt>
<rscale>  4 0.25791129E+03</rscale>
<asrwt>0</asrwt>
<pdfrwt beam="1">  1       21 0.16929034E-01 0.25791129E+03</pdfrwt>
<pdfrwt beam="2">  1       21 0.88484400E-01 0.25791129E+03</pdfrwt>
<totfact> 0.33259179E+04</totfact>
</mgrwt>
</event>
<event>
 5    0  0.1829809E+000  0.2397637E+03  0.7546771E-02  0.1119950E+00
         21   -1    0    0  502  501  0.00000000000E+00  0.00000000000E+00  0.14662713910E+03  0.14662713910E+03  0.00000000000E+00 0. -1.
         21   -1    0    0  503  502 -0.00000000000E+00 -0.00000000000E+00 -0.37481404086E+03  0.37481404086E+03  0.00000000000E+00 0. -1.
         25    1    1    2    0    0  0.83437462652E+02  0.18681491863E+03 -0.53732958669E+02  0.24571091722E+03  0.12500000000E+03 0.  0.
         21    1    1    2  503  504 -0.17352686910E+02 -0.85467319051E+02 -0.10398184700E+03  0.13571294291E+03  0.00000000000E+00 0. -1.
         21    1    1    2  504  501 -0.66084775742E+02 -0.10134759957E+03 -0.70472096085E+02  0.14001731983E+03  0.00000000000E+00 0. -1.
<mgrwt>
<rscale>  4 0.23976368E+03</rscale>
<asrwt>0</asrwt>
<pdfrwt beam="1">  1       21 0.22558022E-01 0.23976368E+03</pdfrwt>
<pdfrwt beam="2">  1       21 0.57663697E-01 0.23976368E+03</pdfrwt>
<totfact> 0.50840642E+04</totfact>
</mgrwt>
</event>
<event>
 5    0  0.1829809E+000  0.3838682E+03  0.7546771E-02  0.1049743E+00
         21   -1    0    0  502  501  0.00000000000E+00  0.00000000000E+00  0.12656365807E+03  0.12656365807E+03  0.00000000000E+00 0. -1.
         21   -1    0    0  503  502 -0.00000000000E+00 -0.00000000000E+00 -0.13368635665E+04  0.13368635665E+04  0.00000000000E+00 0. -1.
         25    1    1    2    0    0  0.13803337745E+03  0.33280588662E+03 -0.33481379709E+03  0.50748226587E+03  0.12500000000E+03 0.  0.
         21    1    1    2  503  504 -0.12057678323E+03 -0.23444385969E+03 -0.75340765083E+03  0.79820158628E+03  0.00000000000E+00 0. -1.
         21    1    1    2  504  501 -0.17456594217E+02 -0.98362026929E+02 -0.12207846050E+03  0.15774337242E+03  0.00000000000E+00 0. -1.
<mgrwt>
<rscale>  4 0.38324048E+03</rscale>
<asrwt>0</asrwt>
<pdfrwt beam="1">  1       21 0.19471333E-01 0.38386825E+03</pdfrwt>
<pdfrwt beam="2">  1       21 0.20567131E+00 0.38386825E+03</pdfrwt>
<totfact> 0.26202446E+03</totfact>
</mgrwt>
</event>
<event>
 5    0  0.1829809E+000  0.2525354E+03  0.7546771E-02  0.1111713E+00
         21   -1    0    0  502  501  0.00000000000E+00  0.00000000000E+00  0.67019217357E+03  0.67019217357E+03  0.00000000000E+00 0. -1.
         21   -1    0    0  503  502 -0.00000000000E+00 -0.00000000000E+00 -0.23443504262E+03  0.23443504262E+03  0.00000000000E+00 0. -1.
         25    1    1    2    0    0  0.25150733725E+02 -0.22984416468E+03  0.55113613992E+03  0.61060375381E+03  0.12500000000E+03 0.  0.
         21    1    1    2  503  504 -0.80451672333E+01  0.14985775884E+03 -0.14339124269E+03  0.20756473949E+03  0.00000000000E+00 0. -1.
         21    1    1    2  504  501 -0.17105566491E+02  0.79986405835E+02  0.28012233716E+02  0.86458722875E+02  0.00000000000E+00 0. -1.
<mgrwt>
<rscale>  4 0.25253541E+03</rscale>
<asrwt>0</asrwt>
<pdfrwt beam="1">  1       21 0.10310649E+00 0.25253541E+03</pdfrwt>
<pdfrwt beam="2">  1       21 0.36066930E-01 0.25253541E+03</pdfrwt>
<totfact> 0.54246779E+03</totfact>
</mgrwt>
</event>
<event>
 5    0  0.1829809E+000  0.2441466E+03  0.7546771E-02  0.1117061E+00
         21   -1    0    0  502  501  0.00000000000E+00  0.00000000000E+00  0.77304338993E+02  0.77304338993E+02  0.00000000000E+00 0. -1.
         21   -1    0    0  503  502 -0.00000000000E+00 -0.00000000000E+00 -0.76862370650E+03  0.76862370650E+03  0.00000000000E+00 0. -1.
         25    1    1    2    0    0 -0.20890039143E+03  0.18524829725E+02 -0.22913768036E+03  0.33483073248E+03  0.12500000000E+03 0.  0.
         21    1    1    2  503  504  0.68791614411E+02 -0.14640002791E+02 -0.95996096574E+02  0.11900364050E+03  0.00000000000E+00 0.  1.
         21    1    1    2  504  501  0.14010877702E+03 -0.38848269341E+01 -0.36618559058E+03  0.39209367251E+03  0.00000000000E+00 0. -1.
<mgrwt>
<rscale>  4 0.24414656E+03</rscale>
<asrwt>0</asrwt>
<pdfrwt beam="1">  1       21 0.11892975E-01 0.24414656E+03</pdfrwt>
<pdfrwt beam="2">  1       21 0.11824980E+00 0.24414656E+03</pdfrwt>
<totfact> 0.31767368E+04</totfact>
</mgrwt>
</event>
<event>
 5    0  0.1829809E+000  0.3382146E+03  0.7546771E-02  0.1067559E+00
         21   -1    0    0  502  501  0.00000000000E+00  0.00000000000E+00  0.19417845292E+04  0.19417845292E+04  0.00000000000E+00 0.  1.
         21   -1    0    0  503  502 -0.00000000000E+00 -0.00000000000E+00 -0.81414481234E+03  0.81414481234E+03  0.00000000000E+00 0. -1.
         25    1    1    2    0    0  0.28679639039E+03 -0.12849885838E+03  0.18954233899E+04  0.19253620317E+04  0.12500000000E+03 0.  0.
         21    1    1    2  503  504 -0.24150984134E+02  0.16963553346E+02 -0.10267109420E+03  0.10682876841E+03  0.00000000000E+00 0. -1.
         21    1    1    2  504  501 -0.26264540626E+03  0.11153530503E+03 -0.66511257888E+03  0.72373854138E+03  0.00000000000E+00 0. -1.
<mgrwt>
<rscale>  4 0.33821462E+03</rscale>
<asrwt>0</asrwt>
<pdfrwt beam="1">  1       21 0.29873608E+00 0.33821462E+03</pdfrwt>
<pdfrwt beam="2">  1       21 0.12525305E+00 0.33821462E+03</pdfrwt>
<totfact> 0.13416679E+01</totfact>
</mgrwt>
</event>
<event>
 5    0  0.1829809E+000  0.1911267E+03  0.7546771E-02  0.1157449E+00
         21   -1    0    0  502  501  0.00000000000E+00  0.00000000000E+00  0.20585534363E+04  0.20585534363E+04  0.00000000000E+00 0.  1.
         21   -1    0    0  503  502 -0.00000000000E+00 -0.00000000000E+00 -0.17208948069E+03  0.17208948069E+03  0.00000000000E+00 0.  1.
         25    1    1    2    0    0  0.75382583225E+02 -0.18992468985E+03  0.18006730412E+04  0.18165358028E+04  0.12500000000E+03 0.  0.
         21    1    1    2  503  504 -0.17477255864E+01  0.66688414333E+02  0.21243931013E+03  0.22266759899E+03  0.00000000000E+00 0.  1.
         21    1    1    2  504  501 -0.73634857638E+02  0.12323627552E+03 -0.12664839566E+03  0.19143951522E+03  0.00000000000E+00 0.  1.
<mgrwt>
<rscale>  4 0.19112670E+03</rscale>
<asrwt>0</asrwt>
<pdfrwt beam="1">  1       21 0.31670051E+00 0.19112670E+03</pdfrwt>
<pdfrwt beam="2">  1       21 0.26475306E-01 0.19112670E+03</pdfrwt>
<totfact> 0.37202601E+02</totfact>
</mgrwt>
</event>
<event>
 5    0  0.1829809E+000  0.2435943E+03  0.7546771E-02  0.1117421E+00
         21   -1    0    0  502  501  0.00000000000E+00  0.00000000000E+00  0.10253758516E+04  0.10253758516E+04  0.00000000000E+00 0. -1.
         21   -1    0    0  503  502 -0.00000000000E+00 -0.00000000000E+00 -0.52770249268E+02  0.52770249268E+02  0.00000000000E+00 0. -1.
         25    1    1    2    0    0  0.13892127393E+03  0.15624997628E+03  0.41354776390E+03  0.47995825700E+03  0.12500000000E+03 0.  0.
         21    1    1    2  503  504 -0.97879422663E+02 -0.13447926719E+03  0.43953631595E+03  0.46995449537E+03  0.00000000000E+00 0. -1.
         21    1    1    2  504  501 -0.41041851263E+02 -0.21770709090E+02  0.11952152246E+03  0.12823334847E+03  0.00000000000E+00 0. -1.
<mgrwt>
<rscale>  4 0.24359428E+03</rscale>
<asrwt>0</asrwt>
<pdfrwt beam="1">  1       21 0.15775012E+00 0.24359428E+03</pdfrwt>
<pdfrwt beam="2">  1       21 0.81185006E-02 0.24359428E+03</pdfrwt>
<totfact> 0.29679486E+04</totfact>
</mgrwt>
</event>
<event>
 5    0  0.1829809E+000  0.2718423E+03  0.7546771E-02  0.1100230E+00
         21   -1    0    0  502  501  0.00000000000E+00  0.00000000000E+00  0.37124845591E+03  0.37124845591E+03  0.00000000000E+00 0.  1.
         21   -1    0    0  503  502 -0.00000000000E+00 -0.00000000000E+00 -0.29186717247E+03  0.29186717247E+03  0.00000000000E+00 0.  1.
         25    1    1    2    0    0 -0.96880643112E+02  0.22110487944E+03  0.24367873461E+03  0.36507198252E+03  0.12500000000E+03 0.  0.
         21    1    1    2  503  504  0.32214435871E+02 -0.86971703557E+02 -0.29879162001E+02  0.97440296695E+02  0.00000000000E+00 0.  1.
         21    1    1    2  504  501  0.64666207241E+02 -0.13413317588E+03 -0.13441828917E+03  0.20060334916E+03  0.00000000000E+00 0.  1.
<mgrwt>
<rscale>  4 0.27184228E+03</rscale>
<asrwt>0</asrwt>
<pdfrwt beam="1">  1       21 0.57115147E-01 0.27184228E+03</pdfrwt>
<pdfrwt beam="2">  1       21 0.44902642E-01 0.27184228E+03</pdfrwt>
<totfact> 0.13103683E+04</totfact>
</mgrwt>
</event>
<event>
 5    0  0.1829809E+000  0.3254388E+03  0.7546771E-02  0.1073173E+00
         21   -1    0    0  502  501  0.00000000000E+00  0.00000000000E+00  0.18456242341E+03  0.18456242341E+03  0.00000000000E+00 0.  1.
         21   -1    0    0  503  502 -0.00000000000E+00 -0.00000000000E+00 -0.53887000526E+03  0.53887000526E+03  0.00000000000E+00 0.  1.
         25    1    1    2    0    0 -0.29727650105E+03 -0.43727166814E+02 -0.17666708640E+03  0.37029939591E+03  0.12500000000E+03 0.  0.
         21    1    1    2  503  504  0.26741322303E+03  0.24424868689E+02 -0.14663096067E+03  0.30595268374E+03  0.00000000000E+00 0.  1.
         21    1    1    2  504  501  0.29863278017E+02  0.19302298125E+02 -0.31009534770E+02  0.47180349018E+02  0.00000000000E+00 0.  1.
<mgrwt>
<rscale>  4 0.32543875E+03</rscale>
<asrwt>0</asrwt>
<pdfrwt beam="1">  1       21 0.28394220E-01 0.32543875E+03</pdfrwt>
<pdfrwt beam="2">  1       21 0.82903076E-01 0.32543875E+03</pdfrwt>
<totfact> 0.14056910E+04</totfact>
</mgrwt>
</event>
<event>
 5    0  0.1829809E+000  0.3279452E+03  0.7546771E-02  0.1072050E+00
         21   -1    0    0  502  501  0.00000000000E+00  0.00000000000E+00  0.23097380882E+03  0.23097380882E+03  0.00000000000E+00 0.  1.
         21   -1    0    0  503  502 -0.00000000000E+00 -0.00000000000E+00 -0.60826884740E+03  0.60826884740E+03  0.00000000000E+00 0.  1.
         25    1    1    2    0    0  0.14394054372E+03  0.26464588964E+03  0.60425648553E+01  0.32621747289E+03  0.12500000000E+03 0.  0.
         21    1    1    2  503  504 -0.16369743678E+03 -0.25613947610E+03 -0.38602826436E+03  0.49134723252E+03  0.00000000000E+00 0.  1.
         21    1    1    2  504  501  0.19756893061E+02 -0.85064135400E+01  0.26906609175E+01  0.21677950801E+02  0.00000000000E+00 0.  1.
<mgrwt>
<rscale>  4 0.32794524E+03</rscale>
<asrwt>0</asrwt>
<pdfrwt beam="1">  1       21 0.35534432E-01 0.32794524E+03</pdfrwt>
<pdfrwt beam="2">  1       21 0.93579822E-01 0.32794524E+03</pdfrwt>
<totfact> 0.67742997E+03</totfact>
</mgrwt>
</event>
<event>
 5    0  0.1829809E+000  0.3224315E+03  0.7546771E-02  0.1074536E+00
         21   -1    0    0  502  501  0.00000000000E+00  0.00000000000E+00  0.59583906293E+03  0.59583906293E+03  0.00000000000E+00 0.  1.
         21   -1    0    0  503  502 -0.00000000000E+00 -0.00000000000E+00 -0.16535147610E+03  0.16535147610E+03  0.00000000000E+00 0.  1.
         25    1    1    2    0    0 -0.21666394442E+03 -0.20345473096E+03  0.20143154276E+03  0.38017990317E+03  0.12500000000E+03 0.  0.
         21    1    1    2  503  504  0.17588973892E+03  0.19140469229E+03  0.18049676105E+03  0.31646806669E+03  0.00000000000E+00 0.  1.
         21    1    1    2  504  501  0.40774205501E+02  0.12050038670E+02  0.48559283024E+02  0.64542569162E+02  0.00000000000E+00 0.  1.
<mgrwt>
<rscale>  4 0.32243153E+03</rscale>
<asrwt>0</asrwt>
<pdfrwt beam="1">  1       21 0.91667547E-01 0.32243153E+03</pdfrwt>
<pdfrwt beam="2">  1       21 0.25438689E-01 0.32243153E+03</pdfrwt>
<totfact> 0.13790517E+04</totfact>
</mgrwt>
</event>
<event>
 5    0  0.1829809E+000  0.2839395E+03  0.7546771E-02  0.1093557E+00
         21   -1    0    0  502  501  0.00000000000E+00  0.00000000000E+00  0.18444588177E+03  0.18444588177E+03  0.00000000000E+00 0. -1.
         21   -1    0    0  503  502 -0.00000000000E+00 -0.00000000000E+00 -0.42576331015E+03  0.42576331015E+03  0.00000000000E+00 0. -1.
         25    1    1    2    0    0  0.16338108390E+03  0.19571221588E+03 -0.20593697984E+03  0.35075873430E+03  0.12500000000E+03 0.  0.
         21    1    1    2  503  504 -0.15199974864E+03 -0.17635954681E+03 -0.40758901283E+02  0.23636391724E+03  0.00000000000E+00 0. -1.
         21    1    1    2  504  501 -0.11381335261E+02 -0.19352669071E+02  0.53784527456E+01  0.23086540374E+02  0.00000000000E+00 0. -1.
<mgrwt>
<rscale>  4 0.28393952E+03</rscale>
<asrwt>0</asrwt>
<pdfrwt beam="1">  1       21 0.28376290E-01 0.28393952E+03</pdfrwt>
<pdfrwt beam="2">  1       21 0.65502048E-01 0.28393952E+03</pdfrwt>
<totfact> 0.24330568E+04</totfact>
</mgrwt>
</event>
<event>
 5    0  0.1829809E+000  0.3452424E+03  0.7546771E-02  0.1064585E+00
         21   -1    0    0  502  501  0.00000000000E+00  0.00000000000E+00  0.11446577124E+04  0.11446577124E+04  0.00000000000E+00 0. -1.
         21   -1    0    0  503  502 -0.00000000000E+00 -0.00000000000E+00 -0.13605829889E+03  0.13605829889E+03  0.00000000000E+00 0. -1.
         25    1    1    2    0    0 -0.17744728157E+03  0.26847681531E+03  0.83004972724E+03  0.89898547696E+03  0.12500000000E+03 0.  0.
         21    1    1    2  503  504  0.61203800851E+02 -0.34567332539E+02  0.10326305188E+02  0.71045325647E+02  0.00000000000E+00 0. -1.
         21    1    1    2  504  501  0.11624348072E+03 -0.23390948277E+03  0.16822338106E+03  0.31068520866E+03  0.00000000000E+00 0. -1.
<mgrwt>
<rscale>  4 0.34524243E+03</rscale>
<asrwt>0</asrwt>
<pdfrwt beam="1">  1       21 0.17610118E+00 0.34524243E+03</pdfrwt>
<pdfrwt beam="2">  1       21 0.20932047E-01 0.34524243E+03</pdfrwt>
<totfact> 0.36951608E+03</totfact>
</mgrwt>
</event>
<event>
 5    0  0.1829809E+000  0.2372790E+03  0.7546771E-02  0.1121619E+00
         21   -1    0    0  502  501  0.00000000000E+00  0.00000000000E+00  0.17209808072E+03  0.17209808072E+03  0.00000000000E+00 0. -1.
         21   -1    0    0  503  502 -0.00000000000E+00 -0.00000000000E+00 -0.30257280065E+03  0.30257280065E+03  0.00000000000E+00 0. -1.
         25    1    1    2    0    0 -0.17612301356E+03  0.98270096335E+02 -0.58258953857E+02  0.24432648944E+03  0.12500000000E+03 0.  0.
         21    1    1    2  503  504  0.15071607436E+02 -0.46477906930E+02 -0.86404379759E+01  0.49618608925E+02  0.00000000000E+00 0. -1.
         21    1    1    2  504  501  0.16105140612E+03 -0.51792189405E+02 -0.63575328099E+02  0.18072578300E+03  0.00000000000E+00 0. -1.
<mgrwt>
<rscale>  4 0.23727901E+03</rscale>
<asrwt>0</asrwt>
<pdfrwt beam="1">  1       21 0.26476628E-01 0.23727901E+03</pdfrwt>
<pdfrwt beam="2">  1       21 0.46549662E-01 0.23727901E+03</pdfrwt>
<totfact> 0.58814192E+04</totfact>
</mgrwt>
</event>
<event>
 5    0  0.1829809E+000  0.2174446E+03  0.7546771E-02  0.1135803E+00
         21   -1    0    0  502  501  0.00000000000E+00  0.00000000000E+00  0.12743952736E+03  0.12743952736E+03  0.00000000000E+00 0. -1.
         21   -1    0    0  503  502 -0.00000000000E+00 -0.00000000000E+00 -0.67942493710E+03  0.67942493710E+03  0.00000000000E+00 0. -1.
         25    1    1    2    0    0  0.18183444500E+02  0.22088483579E+03 -0.83302877149E+02  0.26774076581E+03  0.12500000000E+03 0.  0.
         21    1    1    2  503  504  0.30036130216E+02 -0.90727805010E+02 -0.32741043702E+03  0.34107374274E+03  0.00000000000E+00 0. -1.
         21    1    1    2  504  501 -0.48219574717E+02 -0.13015703078E+03 -0.14127209557E+03  0.19804995591E+03  0.00000000000E+00 0. -1.
<mgrwt>
<rscale>  4 0.21744458E+03</rscale>
<asrwt>0</asrwt>
<pdfrwt beam="1">  1       21 0.19606081E-01 0.21744458E+03</pdfrwt>
<pdfrwt beam="2">  1       21 0.10452691E+00 0.21744458E+03</pdfrwt>
<totfact> 0.17421371E+04</totfact>
</mgrwt>
</event>
<event>
 5    0  0.1829809E+000  0.2868267E+03  0.7546771E-02  0.1092018E+00
         21   -1    0    0  502  501  0.00000000000E+00  0.00000000000E+00  0.50453811241E+03  0.50453811241E+03  0.00000000000E+00 0. -1.
         21   -1    0    0  503  502 -0.00000000000E+00 -0.00000000000E+00 -0.52311643460E+03  0.52311643460E+03  0.00000000000E+00 0.  1.
         25    1    1    2    0    0  0.11889254576E+03  0.22914870906E+03  0.42192644415E+03  0.51018770328E+03  0.12500000000E+03 0.  0.
         21    1    1    2  503  504 -0.10198302529E+03 -0.10582248741E+03 -0.24483103955E+03  0.28555415286E+03  0.00000000000E+00 0.  1.
         21    1    1    2  504  501 -0.16909520469E+02 -0.12332622165E+03 -0.19567372680E+03  0.23191269087E+03  0.00000000000E+00 0.  1.
<mgrwt>
<rscale>  4 0.28682672E+03</rscale>
<asrwt>0</asrwt>
<pdfrwt beam="1">  1       21 0.77621248E-01 0.28682672E+03</pdfrwt>
<pdfrwt beam="2">  1       21 0.80479452E-01 0.28682672E+03</pdfrwt>
<totfact> 0.18599925E+03</totfact>
</mgrwt>
</event>
<event>
 5    0  0.1829809E+000  0.2682315E+03  0.7546771E-02  0.1102296E+00
         21   -1    0    0  502  501  0.00000000000E+00  0.00000000000E+00  0.18240345858E+03  0.18240345858E+03  0.00000000000E+00 0.  1.
         21   -1    0    0  503  502 -0.00000000000E+00 -0.00000000000E+00 -0.70965950345E+03  0.70965950345E+03  0.00000000000E+00 0.  1.
         25    1    1    2    0    0 -0.11407039554E+03 -0.20811318498E+03  0.43503876844E+02  0.27173652718E+03  0.12500000000E+03 0.  0.
         21    1    1    2  503  504  0.75716809853E+02  0.14756005141E+03 -0.45371304030E+03  0.48307610891E+03  0.00000000000E+00 0.  1.
         21    1    1    2  504  501  0.38353585691E+02  0.60553133567E+02 -0.11704688141E+03  0.13725032593E+03  0.00000000000E+00 0.  1.
<mgrwt>
<rscale>  4 0.26823153E+03</rscale>
<asrwt>0</asrwt>
<pdfrwt beam="1">  1       21 0.28062070E-01 0.26823153E+03</pdfrwt>
<pdfrwt beam="2">  1       21 0.10917839E+00 0.26823153E+03</pdfrwt>
<totfact> 0.76830437E+03</totfact>
</mgrwt>
</event>
<event>
 5    0  0.1829809E+000  0.2118938E+03  0.7546771E-02  0.1140075E+00
         21   -1    0    0  502  501  0.00000000000E+00  0.00000000000E+00  0.30347572081E+03  0.30347572081E+03  0.00000000000E+00 0. -1.
         21   -1    0    0  503  502 -0.00000000000E+00 -0.00000000000E+00 -0.25116975327E+03  0.25116975327E+03  0.00000000000E+00 0. -1.
         25    1    1    2    0    0  0.21919377254E+03 -0.24604008717E+01  0.10463510528E+03  0.27317662556E+03  0.12500000000E+03 0.  0.
         21    1    1    2  503  504 -0.11334795561E+03  0.85151984080E+02 -0.18631453788E+02  0.14298863768E+03  0.00000000000E+00 0. -1.
         21    1    1    2  504  501 -0.10584581693E+03 -0.82691583208E+02 -0.33697683951E+02  0.13848021085E+03  0.00000000000E+00 0. -1.
<mgrwt>
<rscale>  4 0.21189375E+03</rscale>
<asrwt>0</asrwt>
<pdfrwt beam="1">  1       21 0.46688573E-01 0.21189375E+03</pdfrwt>
<pdfrwt beam="2">  1       21 0.38641500E-01 0.21189375E+03</pdfrwt>
<totfact> 0.28067327E+04</totfact>
</mgrwt>
</event>
<event>
 5    0  0.1829809E+000  0.2036042E+03  0.7546771E-02  0.1146733E+00
         21   -1    0    0  502  501  0.00000000000E+00  0.00000000000E+00  0.15739226112E+03  0.15739226112E+03  0.00000000000E+00 0. -1.
         21   -1    0    0  503  502 -0.00000000000E+00 -0.00000000000E+00 -0.73269446712E+03  0.73269446712E+03  0.00000000000E+00 0. -1.
         25    1    1    2    0    0  0.22848611112E+03  0.39798652033E+02 -0.39372799963E+02  0.26639266704E+03  0.12500000000E+03 0.  0.
         21    1    1    2  503  504 -0.13558106380E+03 -0.73866038154E+02 -0.49157906346E+03  0.51525565702E+03  0.00000000000E+00 0. -1.
         21    1    1    2  504  501 -0.92905047318E+02  0.34067386121E+02 -0.44350342573E+02  0.10843840418E+03  0.00000000000E+00 0. -1.
<mgrwt>
<rscale>  4 0.20360423E+03</rscale>
<asrwt>0</asrwt>
<pdfrwt beam="1">  1       21 0.24214194E-01 0.20360423E+03</pdfrwt>
<pdfrwt beam="2">  1       21 0.11272222E+00 0.20360423E+03</pdfrwt>
<totfact> 0.98307499E+03</totfact>
</mgrwt>
</event>
<event>
 5    0  0.1829809E+000  0.2914289E+03  0.7546771E-02  0.1089605E+00
         21   -1    0    0  502  501  0.00000000000E+00  0.00000000000E+00  0.29513824557E+04  0.29513824557E+04  0.00000000000E+00 0. -1.
         21   -1    0    0  503  502 -0.00000000000E+00 -0.00000000000E+00 -0.15804513652E+03  0.15804513652E+03  0.00000000000E+00 0. -1.
         25    1    1    2    0    0  0.24395098632E+03 -0.98763288389E+02  0.27036290954E+04  0.27192832799E+04  0.12500000000E+03 0.  0.
         21    1    1    2  503  504  0.31810653738E+02  0.76967968761E+02  0.76694500740E+02  0.11321674942E+03  0.00000000000E+00 0. -1.
         21    1    1    2  504  501 -0.27576164006E+03  0.21795319629E+02  0.13013723001E+02  0.27692756286E+03  0.00000000000E+00 0. -1.
<mgrwt>
<rscale>  4 0.29142886E+03</rscale>
<asrwt>0</asrwt>
<pdfrwt beam="1">  1       21 0.45405880E+00 0.29142886E+03</pdfrwt>
<pdfrwt beam="2">  1       21 0.24314639E-01 0.29142886E+03</pdfrwt>
<totfact> 0.53615029E+01</totfact>
</mgrwt>
</event>
<event>
 5    0  0.1829809E+000  0.3743747E+03  0.7546771E-02  0.1053033E+00
         21   -1    0    0  502  501  0.00000000000E+00  0.00000000000E+00  0.64491740993E+03  0.64491740993E+03  0.00000000000E+00 0.  1.
         21   -1    0    0  503  502 -0.00000000000E+00 -0.00000000000E+00 -0.22161427724E+03  0.22161427724E+03  0.00000000000E+00 0.  1.
         25    1    1    2    0    0  0.12331809833E+03  0.33064188553E+03  0.30729225465E+03  0.48433969444E+03  0.12500000000E+03 0.  0.
         21    1    1    2  503  504 -0.74946089616E+02 -0.99883627837E+02  0.65726959018E+02  0.14111586941E+03  0.00000000000E+00 0.  1.
         21    1    1    2  504  501 -0.48372008712E+02 -0.23075825770E+03  0.50283919014E+02  0.24107612332E+03  0.00000000000E+00 0.  1.
<mgrwt>
<rscale>  4 0.37437469E+03</rscale>
<asrwt>0</asrwt>
<pdfrwt beam="1">  1       21 0.99218062E-01 0.37437469E+03</pdfrwt>
<pdfrwt beam="2">  1       21 0.34094504E-01 0.37437469E+03</pdfrwt>
<totfact> 0.62790638E+03</totfact>
</mgrwt>
</event>
<event>
 5    0  0.1829809E+000  0.2566268E+03  0.7546771E-02  0.1109187E+00
         21   -1    0    0  502  501  0.00000000000E+00  0.00000000000E+00  0.31302779172E+02  0.31302779172E+02  0.00000000000E+00 0.  1.
         21   -1    0    0  503  502 -0.00000000000E+00 -0.00000000000E+00 -0.20299357816E+04  0.20299357816E+04  0.00000000000E+00 0.  1.
         25    1    1    2    0    0  0.17681943887E+03  0.13772146397E+03 -0.11387303760E+04  0.11672892464E+04  0.12500000000E+03 0.  0.
         21    1    1    2  503  504 -0.15394344078E+03 -0.69725895961E+02 -0.66889075856E+03  0.68990950886E+03  0.00000000000E+00 0.  1.
         21    1    1    2  504  501 -0.22875998092E+02 -0.67995568009E+02 -0.19101186789E+03  0.20403980551E+03  0.00000000000E+00 0.  1.
<mgrwt>
<rscale>  4 0.25662680E+03</rscale>
<asrwt>0</asrwt>
<pdfrwt beam="1">  1       21 0.48158138E-02 0.25662680E+03</pdfrwt>
<pdfrwt beam="2">  1       21 0.31229771E+00 0.25662680E+03</pdfrwt>
<totfact> 0.78030562E+03</totfact>
</mgrwt>
</event>
<event>
 5    0  0.1829809E+000  0.2382324E+03  0.7546771E-02  0.1120976E+00
         21   -1    0    0  502  501  0.00000000000E+00  0.00000000000E+00  0.74542888562E+03  0.74542888562E+03  0.00000000000E+00 0.  1.
         21   -1    0    0  503  502 -0.00000000000E+00 -0.00000000000E+00 -0.13050950217E+03  0.13050950217E+03  0.00000000000E+00 0.  1.
         25    1    1    2    0    0 -0.19023066320E+03 -0.70299078358E+02  0.62287606896E+03  0.66688024632E+03  0.12500000000E+03 0.  0.
         21    1    1    2  503  504  0.17909125416E+02  0.23484990844E+02  0.52730940725E+01  0.30001451452E+02  0.00000000000E+00 0.  1.
         21    1    1    2  504  501  0.17232153779E+03  0.46814087514E+02 -0.13229779578E+02  0.17905669003E+03  0.00000000000E+00 0.  1.
<mgrwt>
<rscale>  4 0.23823238E+03</rscale>
<asrwt>0</asrwt>
<pdfrwt beam="1">  1       21 0.11468136E+00 0.23823238E+03</pdfrwt>
<pdfrwt beam="2">  1       21 0.20078385E-01 0.23823238E+03</pdfrwt>
<totfact> 0.13138758E+04</totfact>
</mgrwt>
</event>
<event>
 5    0  0.1829809E+000  0.3256818E+03  0.7546771E-02  0.1073064E+00
         21   -1    0    0  502  501  0.00000000000E+00  0.00000000000E+00  0.86939904443E+02  0.86939904443E+02  0.00000000000E+00 0.  1.
         21   -1    0    0  503  502 -0.00000000000E+00 -0.00000000000E+00 -0.14270262646E+04  0.14270262646E+04  0.00000000000E+00 0.  1.
         25    1    1    2    0    0  0.21395160096E+02 -0.30317356907E+03 -0.40529902595E+03  0.52178948465E+03  0.12500000000E+03 0.  0.
         21    1    1    2  503  504 -0.55561212454E+02  0.29096310155E+03 -0.82767544158E+03  0.87908657786E+03  0.00000000000E+00 0.  1.
         21    1    1    2  504  501  0.34166052357E+02  0.12210467527E+02 -0.10711189264E+03  0.11309010653E+03  0.00000000000E+00 0. -1.
<mgrwt>
<rscale>  4 0.32568176E+03</rscale>
<asrwt>0</asrwt>
<pdfrwt beam="1">  1       21 0.13375371E-01 0.32568176E+03</pdfrwt>
<pdfrwt beam="2">  1       21 0.21954248E+00 0.32568176E+03</pdfrwt>
<totfact> 0.44236927E+03</totfact>
</mgrwt>
</event>
<event>
 5    0  0.1829809E+000  0.2504026E+03  0.7546771E-02  0.1113051E+00
         21   -1    0    0  502  501  0.00000000000E+00  0.00000000000E+00  0.15421796962E+03  0.15421796962E+03  0.00000000000E+00 0.  1.
         21   -1    0    0  503  502 -0.00000000000E+00 -0.00000000000E+00 -0.76261329738E+03  0.76261329738E+03  0.00000000000E+00 0.  1.
         25    1    1    2    0    0 -0.11975583628E+03 -0.24686674969E+03 -0.13933009169E+03  0.33214835071E+03  0.12500000000E+03 0.  0.
         21    1    1    2  503  504 -0.38392645240E+02  0.16050563846E+03 -0.26754326701E+03  0.31434925625E+03  0.00000000000E+00 0.  1.
         21    1    1    2  504  501  0.15814848152E+03  0.86361111233E+02 -0.20152196906E+03  0.27033366005E+03  0.00000000000E+00 0.  1.
<mgrwt>
<rscale>  4 0.25040261E+03</rscale>
<asrwt>0</asrwt>
<pdfrwt beam="1">  1       21 0.23725842E-01 0.25040261E+03</pdfrwt>
<pdfrwt beam="2">  1       21 0.11732512E+00 0.25040261E+03</pdfrwt>
<totfact> 0.89919750E+03</totfact>
</mgrwt>
</event>
<event>
 5    0  0.1829809E+000  0.2883695E+03  0.7546771E-02  0.1091204E+00
         21   -1    0    0  502  501  0.00000000000E+00  0.00000000000E+00  0.11497081839E+04  0.11497081839E+04  0.00000000000E+00 0. -1.
         21   -1    0    0  503  502 -0.00000000000E+00 -0.00000000000E+00 -0.66023982744E+02  0.66023982744E+02  0.00000000000E+00 0. -1.
         25    1    1    2    0    0 -0.94293169418E+02  0.24215851384E+03  0.58059484275E+03  0.64826485255E+03  0.12500000000E+03 0.  0.
         21    1    1    2  503  504  0.91536926703E+02 -0.21219791761E+03  0.46158169915E+03  0.51620212144E+03  0.00000000000E+00 0. -1.
         21    1    1    2  504  501  0.27562427146E+01 -0.29960596234E+02  0.41507659237E+02  0.51265192636E+02  0.00000000000E+00 0. -1.
<mgrwt>
<rscale>  4 0.28836946E+03</rscale>
<asrwt>0</asrwt>
<pdfrwt beam="1">  1       21 0.17687817E+00 0.28836946E+03</pdfrwt>
<pdfrwt beam="2">  1       21 0.10157537E-01 0.28836946E+03</pdfrwt>
<totfact> 0.14201084E+04</totfact>
</mgrwt>
</event>
<event>
 5    0  0.1829809E+000  0.3192600E+03  0.7546771E-02  0.1075990E+00
         21   -1    0    0  502  501  0.00000000000E+00  0.00000000000E+00  0.32020227731E+03  0.32020227731E+03  0.00000000000E+00 0. -1.
         21   -1    0    0  503  502 -0.00000000000E+00 -0.00000000000E+00 -0.55622910504E+03  0.55622910504E+03  0.00000000000E+00 0. -1.
         25    1    1    2    0    0  0.47425469372E+02  0.29187449119E+03  0.16021259805E+03  0.35879377130E+03  0.12500000000E+03 0.  0.
         21    1    1    2  503  504  0.36675992628E+02 -0.16726512739E+02 -0.23114351190E+02  0.46466954866E+02  0.00000000000E+00 0. -1.
         21    1    1    2  504  501 -0.84101462000E+02 -0.27514797845E+03 -0.37312507459E+03  0.47117065618E+03  0.00000000000E+00 0. -1.
<mgrwt>
<rscale>  4 0.31926005E+03</rscale>
<asrwt>0</asrwt>
<pdfrwt beam="1">  1       21 0.49261889E-01 0.31926005E+03</pdfrwt>
<pdfrwt beam="2">  1       21 0.85573708E-01 0.31926005E+03</pdfrwt>
<totfact> 0.42825413E+03</totfact>
</mgrwt>
</event>
<event>
 5    0  0.1829809E+000  0.2543937E+03  0.7546771E-02  0.1110559E+00
         21   -1    0    0  502  501  0.00000000000E+00  0.00000000000E+00  0.96690427762E+03  0.96690427762E+03  0.00000000000E+00 0.  1.
         21   -1    0    0  503  502 -0.00000000000E+00 -0.00000000000E+00 -0.62469508494E+02  0.62469508494E+02  0.00000000000E+00 0.  1.
         25    1    1    2    0    0 -0.20213376342E+03  0.90736526808E+02  0.50184790950E+03  0.56264331497E+03  0.12500000000E+03 0.  0.
         21    1    1    2  503  504  0.11510032487E+03 -0.89622894834E+02  0.21357155626E+03  0.25863711587E+03  0.00000000000E+00 0.  1.
         21    1    1    2  504  501  0.87033438550E+02 -0.11136319732E+01  0.18901530336E+03  0.20809335527E+03  0.00000000000E+00 0.  1.
<mgrwt>
<rscale>  4 0.25439374E+03</rscale>
<asrwt>0</asrwt>
<pdfrwt beam="1">  1       21 0.14875449E+00 0.25439374E+03</pdfrwt>
<pdfrwt beam="2">  1       21 0.96106943E-02 0.25439374E+03</pdfrwt>
<totfact> 0.25657979E+04</totfact>
</mgrwt>
</event>
<event>
 5    0  0.1829809E+000  0.2693145E+03  0.7546771E-02  0.1101673E+00
         21   -1    0    0  502  501  0.00000000000E+00  0.00000000000E+00  0.15688623889E+03  0.15688623889E+03  0.00000000000E+00 0.  1.
         21   -1    0    0  503  502 -0.00000000000E+00 -0.00000000000E+00 -0.43533187777E+03  0.43533187777E+03  0.00000000000E+00 0. -1.
         25    1    1    2    0    0  0.13456519134E+03  0.19697088783E+03 -0.16470475263E+03  0.31568651683E+03  0.12500000000E+03 0.  0.
         21    1    1    2  503  504 -0.13438625945E+03 -0.14215771923E+03 -0.10141837977E+03  0.22035011146E+03  0.00000000000E+00 0. -1.
         21    1    1    2  504  501 -0.17893189300E+00 -0.54813168604E+02 -0.12322506489E+02  0.56181488367E+02  0.00000000000E+00 0. -1.
<mgrwt>
<rscale>  4 0.26931454E+03</rscale>
<asrwt>0</asrwt>
<pdfrwt beam="1">  1       21 0.24136345E-01 0.26931454E+03</pdfrwt>
<pdfrwt beam="2">  1       21 0.66974134E-01 0.26931454E+03</pdfrwt>
<totfact> 0.31878162E+04</totfact>
</mgrwt>
</event>
<event>
 5    0  0.1829809E+000  0.2394964E+03  0.7546771E-02  0.1120129E+00
         21   -1    0    0  502  501  0.00000000000E+00  0.00000000000E+00  0.28919289298E+02  0.28919289298E+02  0.00000000000E+00 0. -1.
         21   -1    0    0  503  502 -0.00000000000E+00 -0.00000000000E+00 -0.18567385377E+04  0.18567385377E+04  0.00000000000E+00 0.  1.
         25    1    1    2    0    0 -0.77934258437E+02 -0.18883799950E+03 -0.75051779897E+03  0.78780423029E+03  0.12500000000E+03 0.  0.
         21    1    1    2  503  504  0.43060263513E+02  0.65060181520E+02 -0.52586037749E+03  0.53161654426E+03  0.00000000000E+00 0.  1.
         21    1    1    2  504  501  0.34873994924E+02  0.12377781798E+03 -0.55144107197E+03  0.56623705248E+03  0.00000000000E+00 0.  1.
<mgrwt>
<rscale>  4 0.23949643E+03</rscale>
<asrwt>0</asrwt>
<pdfrwt beam="1">  1       21 0.44491206E-02 0.23949643E+03</pdfrwt>
<pdfrwt beam="2">  1       21 0.28565214E+00 0.23949643E+03</pdfrwt>
<totfact> 0.12955904E+04</totfact>
</mgrwt>
</event>
<event>
 5    0  0.1829809E+000  0.3005845E+03  0.7546771E-02  0.1084949E+00
         21   -1    0    0  502  501  0.00000000000E+00  0.00000000000E+00  0.11244916569E+03  0.11244916569E+03  0.00000000000E+00 0. -1.
         21   -1    0    0  503  502 -0.00000000000E+00 -0.00000000000E+00 -0.85661310832E+03  0.85661310832E+03  0.00000000000E+00 0. -1.
         25    1    1    2    0    0  0.11201130018E+03 -0.24935818888E+03 -0.23540567311E+03  0.38179427531E+03  0.12500000000E+03 0.  0.
         21    1    1    2  503  504  0.15858124958E+02  0.63639748185E+02 -0.86206694107E+02  0.10831939709E+03  0.00000000000E+00 0.  1.
         21    1    1    2  504  501 -0.12786942514E+03  0.18571844069E+03 -0.42255157541E+03  0.47894860161E+03  0.00000000000E+00 0. -1.
<mgrwt>
<rscale>  4 0.30058449E+03</rscale>
<asrwt>0</asrwt>
<pdfrwt beam="1">  1       21 0.17299872E-01 0.30058449E+03</pdfrwt>
<pdfrwt beam="2">  1       21 0.13178663E+00 0.30058449E+03</pdfrwt>
<totfact> 0.11846502E+04</totfact>
</mgrwt>
</event>
<event>
 5    0  0.1829809E+000  0.2948624E+03  0.7546771E-02  0.1087837E+00
         21   -1    0    0  502  501  0.00000000000E+00  0.00000000000E+00  0.78862931839E+03  0.78862931839E+03  0.00000000000E+00 0. -1.
         21   -1    0    0  503  502 -0.00000000000E+00 -0.00000000000E+00 -0.10580464438E+03  0.10580464438E+03  0.00000000000E+00 0. -1.
         25    1    1    2    0    0  0.16040834971E+03 -0.21351350294E+03  0.40357503487E+03  0.49981662974E+03  0.12500000000E+03 0.  0.
         21    1    1    2  503  504 -0.84996224465E+02  0.76981562662E+02  0.72649910791E+02  0.13575171712E+03  0.00000000000E+00 0. -1.
         21    1    1    2  504  501 -0.75412125247E+02  0.13653194027E+03  0.20659972834E+03  0.25886561591E+03  0.00000000000E+00 0. -1.
<mgrwt>
<rscale>  4 0.29486243E+03</rscale>
<asrwt>0</asrwt>
<pdfrwt beam="1">  1       21 0.12132758E+00 0.29486243E+03</pdfrwt>
<pdfrwt beam="2">  1       21 0.16277638E-01 0.29486243E+03</pdfrwt>
<totfact> 0.16414511E+04</totfact>
</mgrwt>
</event>
<event>
 5    0  0.1829809E+000  0.3767616E+03  0.7546771E-02  0.1052137E+00
         21   -1    0    0  502  501  0.00000000000E+00  0.00000000000E+00  0.46350206970E+03  0.46350206970E+03  0.00000000000E+00 0.  1.
         21   -1    0    0  503  502 -0.00000000000E+00 -0.00000000000E+00 -0.32718605489E+03  0.32718605489E+03  0.00000000000E+00 0.  1.
         25    1    1    2    0    0  0.23857782016E+03  0.26344814917E+03 -0.55376192387E+02  0.38080943562E+03  0.12500000000E+03 0.  0.
         21    1    1    2  503  504 -0.21630406474E+03 -0.24830412643E+03  0.19504959383E+03  0.38273585105E+03  0.00000000000E+00 0.  1.
         21    1    1    2  504  501 -0.22273755421E+02 -0.15144022734E+02 -0.33573866329E+01  0.27142837916E+02  0.00000000000E+00 0.  1.
<mgrwt>
<rscale>  4 0.37676160E+03</rscale>
<asrwt>0</asrwt>
<pdfrwt beam="1">  1       21 0.71308011E-01 0.37676160E+03</pdfrwt>
<pdfrwt beam="2">  1       21 0.50336316E-01 0.37676160E+03</pdfrwt>
<totfact> 0.60544727E+03</totfact>
</mgrwt>
</event>
<event>
 5    0  0.1829809E+000  0.2535093E+03  0.7546771E-02  0.1111107E+00
         21   -1    0    0  502  501  0.00000000000E+00  0.00000000000E+00  0.26529493145E+03  0.26529493145E+03  0.00000000000E+00 0. -1.
         21   -1    0    0  503  502 -0.00000000000E+00 -0.00000000000E+00 -0.22315216457E+03  0.22315216457E+03  0.00000000000E+00 0. -1.
         25    1    1    2    0    0  0.21735197612E+03  0.37417531927E+02  0.68610572611E+02  0.26262970870E+03  0.12500000000E+03 0.  0.
         21    1    1    2  503  504 -0.25230596318E+02  0.76172570897E+01  0.20650174789E+01  0.26436147475E+02  0.00000000000E+00 0.  1.
         21    1    1    2  504  501 -0.19212137980E+03 -0.45034789017E+02 -0.28532823209E+02  0.19938123984E+03  0.00000000000E+00 0. -1.
<mgrwt>
<rscale>  4 0.25350928E+03</rscale>
<asrwt>0</asrwt>
<pdfrwt beam="1">  1       21 0.40814605E-01 0.25350928E+03</pdfrwt>
<pdfrwt beam="2">  1       21 0.34331102E-01 0.25350928E+03</pdfrwt>
<totfact> 0.46005647E+04</totfact>
</mgrwt>
</event>
<event>
 5    0  0.1829809E+000  0.2528567E+03  0.7546771E-02  0.1111513E+00
         21   -1    0    0  502  501  0.00000000000E+00  0.00000000000E+00  0.76517066706E+03  0.76517066706E+03  0.00000000000E+00 0.  1.
         21   -1    0    0  503  502 -0.00000000000E+00 -0.00000000000E+00 -0.91548198530E+02  0.91548198530E+02  0.00000000000E+00 0.  1.
         25    1    1    2    0    0  0.21931096172E+03 -0.14636551505E+02  0.53062936847E+03  0.58779592824E+03  0.12500000000E+03 0.  0.
         21    1    1    2  503  504 -0.11455368541E+03  0.35540872449E+02  0.63079092935E+02  0.13551631791E+03  0.00000000000E+00 0.  1.
         21    1    1    2  504  501 -0.10475727631E+03 -0.20904320943E+02  0.79914007125E+02  0.13340661944E+03  0.00000000000E+00 0.  1.
<mgrwt>
<rscale>  4 0.25285673E+03</rscale>
<asrwt>0</asrwt>
<pdfrwt beam="1">  1       21 0.11771856E+00 0.25285673E+03</pdfrwt>
<pdfrwt beam="2">  1       21 0.14084339E-01 0.25285673E+03</pdfrwt>
<totfact> 0.23552216E+04</totfact>
</mgrwt>
</event>
<event>
 5    0  0.1829809E+000  0.3174868E+03  0.7546771E-02  0.1076812E+00
         21   -1    0    0  502  501  0.00000000000E+00  0.00000000000E+00  0.17140863608E+03  0.17140863608E+03  0.00000000000E+00 0.  1.
         21   -1    0    0  503  502 -0.00000000000E+00 -0.00000000000E+00 -0.66714425399E+03  0.66714425399E+03  0.00000000000E+00 0.  1.
         25    1    1    2    0    0 -0.20098471774E+03 -0.21160814310E+03 -0.81011836115E+02  0.32765954981E+03  0.12500000000E+03 0.  0.
         21    1    1    2  503  504  0.57072699288E+02  0.24262083249E+02 -0.91693835602E+02  0.11069643705E+03  0.00000000000E+00 0.  1.
         21    1    1    2  504  501  0.14391201845E+03  0.18734605985E+03 -0.32302994619E+03  0.40019690320E+03  0.00000000000E+00 0.  1.
<mgrwt>
<rscale>  4 0.31748679E+03</rscale>
<asrwt>0</asrwt>
<pdfrwt beam="1">  1       21 0.26370559E-01 0.31748679E+03</pdfrwt>
<pdfrwt beam="2">  1       21 0.10263758E+00 0.31748679E+03</pdfrwt>
<totfact> 0.98382663E+03</totfact>
</mgrwt>
</event>
<event>
 5    0  0.1829809E+000  0.2809896E+03  0.7546771E-02  0.1095150E+00
         21   -1    0    0  502  501  0.00000000000E+00  0.00000000000E+00  0.12332880317E+04  0.12332880317E+04  0.00000000000E+00 0.  1.
         21   -1    0    0  503  502 -0.00000000000E+00 -0.00000000000E+00 -0.64071050248E+02  0.64071050248E+02  0.00000000000E+00 0.  1.
         25    1    1    2    0    0  0.20219587731E+03 -0.14982320139E+03  0.79499644492E+03  0.84319304546E+03  0.12500000000E+03 0.  0.
         21    1    1    2  503  504 -0.94018114023E+02  0.92431851328E+02  0.22863156343E+03  0.26392317955E+03  0.00000000000E+00 0.  1.
         21    1    1    2  504  501 -0.10817776329E+03  0.57391350057E+02  0.14558897313E+03  0.19024285697E+03  0.00000000000E+00 0.  1.
<mgrwt>
<rscale>  4 0.28098962E+03</rscale>
<asrwt>0</asrwt>
<pdfrwt beam="1">  1       21 0.18973660E+00 0.28098962E+03</pdfrwt>
<pdfrwt beam="2">  1       21 0.98570856E-02 0.28098962E+03</pdfrwt>
<totfact> 0.12279706E+04</totfact>
</mgrwt>
</event>
<event>
 5    0  0.1829809E+000  0.2463891E+03  0.7546771E-02  0.1115608E+00
         21   -1    0    0  502  501  0.00000000000E+00  0.00000000000E+00  0.30616868754E+03  0.30616868754E+03  0.00000000000E+00 0. -1.
         21   -1    0    0  503  502 -0.00000000000E+00 -0.00000000000E+00 -0.45372520282E+03  0.45372520282E+03  0.00000000000E+00 0. -1.
         25    1    1    2    0    0  0.19717900639E+03  0.78759271991E+02  0.22143555529E+03  0.33127222737E+03  0.12500000000E+03 0.  0.
         21    1    1    2  503  504 -0.15594839214E+02 -0.20210894795E+02 -0.28051441484E+02  0.37928388417E+02  0.00000000000E+00 0. -1.
         21    1    1    2  504  501 -0.18158416717E+03 -0.58548377195E+02 -0.34094062908E+03  0.39069327457E+03  0.00000000000E+00 0. -1.
<mgrwt>
<rscale>  4 0.24638909E+03</rscale>
<asrwt>0</asrwt>
<pdfrwt beam="1">  1       21 0.47102875E-01 0.24638909E+03</pdfrwt>
<pdfrwt beam="2">  1       21 0.69803877E-01 0.24638909E+03</pdfrwt>
<totfact> 0.77619659E+03</totfact>
</mgrwt>
</event>
<event>
 5    0  0.1829809E+000  0.2854897E+03  0.7546771E-02  0.1092728E+00
         21   -1    0    0  502  501  0.00000000000E+00  0.00000000000E+00  0.98621706670E+03  0.98621706670E+03  0.00000000000E+00 0.  1.
         21   -1    0    0  503  502 -0.00000000000E+00 -0.00000000000E+00 -0.92265505665E+02  0.92265505665E+02  0.00000000000E+00 0. -1.
         25    1    1    2    0    0 -0.25407709394E+03  0.36389467960E+02  0.68419285058E+03  0.74136645449E+03  0.12500000000E+03 0.  0.
         21    1    1    2  503  504  0.18110232467E+03 -0.41813535674E+02  0.11969918721E+03  0.22107536992E+03  0.00000000000E+00 0. -1.
         21    1    1    2  504  501  0.72974769275E+02  0.54240677139E+01  0.90059523243E+02  0.11604074796E+03  0.00000000000E+00 0.  1.
<mgrwt>
<rscale>  4 0.28548969E+03</rscale>
<asrwt>0</asrwt>
<pdfrwt beam="1">  1       21 0.15172569E+00 0.28548969E+03</pdfrwt>
<pdfrwt beam="2">  1       21 0.14194694E-01 0.28548969E+03</pdfrwt>
<totfact> 0.11872412E+04</totfact>
</mgrwt>
</event>
<event>
 5    0  0.1829809E+000  0.2590498E+03  0.7546771E-02  0.1107715E+00
         21   -1    0    0  502  501  0.00000000000E+00  0.00000000000E+00  0.30627592872E+03  0.30627592872E+03  0.00000000000E+00 0. -1.
         21   -1    0    0  503  502 -0.00000000000E+00 -0.00000000000E+00 -0.19978266167E+03  0.19978266167E+03  0.00000000000E+00 0. -1.
         25    1    1    2    0    0  0.42585384267E+02  0.22286386809E+03  0.63285027495E+02  0.26666798338E+03  0.12500000000E+03 0.  0.
         21    1    1    2  503  504 -0.10458952603E+02 -0.26762979873E+02 -0.14881488457E+02  0.32359009255E+02  0.00000000000E+00 0. -1.
         21    1    1    2  504  501 -0.32126431664E+02 -0.19610088821E+03  0.58089728016E+02  0.20703159776E+03  0.00000000000E+00 0. -1.
<mgrwt>
<rscale>  4 0.25904984E+03</rscale>
<asrwt>0</asrwt>
<pdfrwt beam="1">  1       21 0.47119374E-01 0.25904984E+03</pdfrwt>
<pdfrwt beam="2">  1       21 0.30735794E-01 0.25904984E+03</pdfrwt>
<totfact> 0.42507257E+04</totfact>
</mgrwt>
</event>
<event>
 5    0  0.1829809E+000  0.2851267E+03  0.7546771E-02  0.1092921E+00
         21   -1    0    0  502  501  0.00000000000E+00  0.00000000000E+00  0.40654905086E+03  0.40654905086E+03  0.00000000000E+00 0. -1.
         21   -1    0    0  503  502 -0.00000000000E+00 -0.00000000000E+00 -0.19450019349E+03  0.19450019349E+03  0.00000000000E+00 0.  1.
         25    1    1    2    0    0  0.25392302044E+03  0.34573524768E+02  0.53924496471E+02  0.29018111628E+03  0.12500000000E+03 0.  0.
         21    1    1    2  503  504 -0.47985698217E+02 -0.33767022255E+02  0.55541082375E+02  0.80793878832E+02  0.00000000000E+00 0.  1.
         21    1    1    2  504  501 -0.20593732222E+03 -0.80650251275E+00  0.10258327852E+03  0.23007424924E+03  0.00000000000E+00 0.  1.
<mgrwt>
<rscale>  4 0.28512669E+03</rscale>
<asrwt>0</asrwt>
<pdfrwt beam="1">  1       21 0.62546008E-01 0.28512669E+03</pdfrwt>
<pdfrwt beam="2">  1       21 0.29923107E-01 0.28512669E+03</pdfrwt>
<totfact> 0.24250408E+04</totfact>
</mgrwt>
</event>
<event>
 5    0  0.1829809E+000  0.3034299E+03  0.7546771E-02  0.1083538E+00
         21   -1    0    0  502  501  0.00000000000E+00  0.00000000000E+00  0.14669236550E+03  0.14669236550E+03  0.00000000000E+00 0.  1.
         21   -1    0    0  503  502 -0.00000000000E+00 -0.00000000000E+00 -0.11835249521E+04  0.11835249521E+04  0.00000000000E+00 0.  1.
         25    1    1    2    0    0 -0.26631127942E+03  0.26504681421E+03 -0.52329438929E+03  0.65622673607E+03  0.12500000000E+03 0.  0.
         21    1    1    2  503  504  0.79728911159E+02 -0.22025998814E+03 -0.35381406279E+03  0.42432953312E+03  0.00000000000E+00 0.  1.
         21    1    1    2  504  501  0.18658236826E+03 -0.44786826071E+02 -0.15972413448E+03  0.24966104837E+03  0.00000000000E+00 0.  1.
<mgrwt>
<rscale>  4 0.30342994E+03</rscale>
<asrwt>0</asrwt>
<pdfrwt beam="1">  1       21 0.22568055E-01 0.30342994E+03</pdfrwt>
<pdfrwt beam="2">  1       21 0.18208077E+00 0.30342994E+03</pdfrwt>
<totfact> 0.29769648E+03</totfact>
</mgrwt>
</event>
<event>
 5    0  0.1829809E+000  0.3469059E+03  0.7546771E-02  0.1063892E+00
         21   -1    0    0  502  501  0.00000000000E+00  0.00000000000E+00  0.30923214676E+03  0.30923214676E+03  0.00000000000E+00 0.  1.
         21   -1    0    0  503  502 -0.00000000000E+00 -0.00000000000E+00 -0.48123140701E+03  0.48123140701E+03  0.00000000000E+00 0.  1.
         25    1    1    2    0    0 -0.26639968063E+03 -0.20367993730E+03 -0.92213603217E+01  0.35800047512E+03  0.12500000000E+03 0.  0.
         21    1    1    2  503  504 -0.23116793986E+02  0.67898987770E+02  0.39451576560E+01  0.71834691990E+02  0.00000000000E+00 0. -1.
         21    1    1    2  504  501  0.28951647462E+03  0.13578094953E+03 -0.16672305759E+03  0.36062838666E+03  0.00000000000E+00 0.  1.
<mgrwt>
<rscale>  4 0.34690587E+03</rscale>
<asrwt>0</asrwt>
<pdfrwt beam="1">  1       21 0.47574177E-01 0.34690587E+03</pdfrwt>
<pdfrwt beam="2">  1       21 0.74035600E-01 0.34690587E+03</pdfrwt>
<totfact> 0.63417764E+03</totfact>
</mgrwt>
</event>
<event>
 5    0  0.1829809E+000  0.3888983E+03  0.7546771E-02  0.1047693E+00
         21   -1    0    0  502  501  0.00000000000E+00  0.00000000000E+00  0.95110772828E+02  0.95110772828E+02  0.00000000000E+00 0.  1.
         21   -1    0    0  503  502 -0.00000000000E+00 -0.00000000000E+00 -0.23317107105E+04  0.23317107105E+04  0.00000000000E+00 0.  1.
         25    1    1    2    0    0 -0.28988627551E+03  0.27784118174E+03 -0.60040576034E+03  0.73303605099E+03  0.12500000000E+03 0.  0.
         21    1    1    2  503  504  0.14506730423E+02 -0.48525926292E+02 -0.65869904324E+02  0.83090643551E+02  0.00000000000E+00 0.  1.
         21    1    1    2  504  501  0.27537954509E+03 -0.22931525545E+03 -0.15703242731E+04  0.16106947888E+04  0.00000000000E+00 0.  1.
<mgrwt>
<rscale>  4 0.38889834E+03</rscale>
<asrwt>0</asrwt>
<pdfrwt beam="1">  1       21 0.14632428E-01 0.38889834E+03</pdfrwt>
<pdfrwt beam="2">  1       21 0.35872469E+00 0.38889834E+03</pdfrwt>
<totfact> 0.51949099E+02</totfact>
</mgrwt>
</event>
<event>
 5    0  0.1829809E+000  0.3153104E+03  0.7546771E-02  0.1077828E+00
         21   -1    0    0  502  501  0.00000000000E+00  0.00000000000E+00  0.12440741156E+04  0.12440741156E+04  0.00000000000E+00 0.  1.
         21   -1    0    0  503  502 -0.00000000000E+00 -0.00000000000E+00 -0.75214721298E+02  0.75214721298E+02  0.00000000000E+00 0.  1.
         25    1    1    2    0    0  0.20111769867E+03 -0.20820013687E+03  0.62926442050E+03  0.70384255102E+03  0.12500000000E+03 0.  0.
         21    1    1    2  503  504 -0.83381929734E+02  0.82786831516E+02  0.15827644786E+03  0.19712341217E+03  0.00000000000E+00 0.  1.
         21    1    1    2  504  501 -0.11773576894E+03  0.12541330535E+03  0.38131852597E+03  0.41832287374E+03  0.00000000000E+00 0.  1.
<mgrwt>
<rscale>  4 0.31531036E+03</rscale>
<asrwt>0</asrwt>
<pdfrwt beam="1">  1       21 0.19139600E+00 0.31531036E+03</pdfrwt>
<pdfrwt beam="2">  1       21 0.11571497E-01 0.31531036E+03</pdfrwt>
<totfact> 0.88167242E+03</totfact>
</mgrwt>
</event>
<event>
 5    0  0.1829809E+000  0.2334588E+03  0.7546771E-02  0.1124229E+00
         21   -1    0    0  502  501  0.00000000000E+00  0.00000000000E+00  0.16082031155E+04  0.16082031155E+04  0.00000000000E+00 0.  1.
         21   -1    0    0  503  502 -0.00000000000E+00 -0.00000000000E+00 -0.18942029799E+03  0.18942029799E+03  0.00000000000E+00 0. -1.
         25    1    1    2    0    0 -0.17978543529E+03 -0.13703283770E+03  0.14189612994E+04  0.14422818624E+04  0.12500000000E+03 0.  0.
         21    1    1    2  503  504  0.76610271170E+02  0.10874148411E+03  0.13057585200E+03  0.18639714896E+03  0.00000000000E+00 0.  1.
         21    1    1    2  504  501  0.10317516412E+03  0.28291353595E+02 -0.13075433390E+03  0.16894440214E+03  0.00000000000E+00 0. -1.
<mgrwt>
<rscale>  4 0.23345883E+03</rscale>
<asrwt>0</asrwt>
<pdfrwt beam="1">  1       21 0.24741585E+00 0.23345883E+03</pdfrwt>
<pdfrwt beam="2">  1       21 0.29141585E-01 0.23345883E+03</pdfrwt>
<totfact> 0.74035437E+02</totfact>
</mgrwt>
</event>
<event>
 5    0  0.1829809E+000  0.2107823E+03  0.7546771E-02  0.1140948E+00
         21   -1    0    0  502  501  0.00000000000E+00  0.00000000000E+00  0.22308050449E+03  0.22308050449E+03  0.00000000000E+00 0. -1.
         21   -1    0    0  503  502 -0.00000000000E+00 -0.00000000000E+00 -0.28244403694E+03  0.28244403694E+03  0.00000000000E+00 0. -1.
         25    1    1    2    0    0 -0.37061904626E+02 -0.21231547756E+03 -0.26886782618E+02  0.25059797658E+03  0.12500000000E+03 0.  0.
         21    1    1    2  503  504  0.75455329267E+02  0.67048809320E+02 -0.27367662499E+02  0.10458507779E+03  0.00000000000E+00 0. -1.
         21    1    1    2  504  501 -0.38393424641E+02  0.14526666824E+03 -0.51090873325E+01  0.15034148706E+03  0.00000000000E+00 0. -1.
<mgrwt>
<rscale>  4 0.21078232E+03</rscale>
<asrwt>0</asrwt>
<pdfrwt beam="1">  1       21 0.34320078E-01 0.21078232E+03</pdfrwt>
<pdfrwt beam="2">  1       21 0.43452929E-01 0.21078232E+03</pdfrwt>
<totfact> 0.41269902E+04</totfact>
</mgrwt>
</event>
<event>
 5    0  0.1829809E+000  0.2614110E+03  0.7546771E-02  0.1106298E+00
         21   -1    0    0  502  501  0.00000000000E+00  0.00000000000E+00  0.39822160423E+03  0.39822160423E+03  0.00000000000E+00 0. -1.
         21   -1    0    0  503  502 -0.00000000000E+00 -0.00000000000E+00 -0.20727759427E+03  0.20727759427E+03  0.00000000000E+00 0. -1.
         25    1    1    2    0    0  0.20949264696E+03 -0.93933802651E+02  0.24763270427E+03  0.36008010864E+03  0.12500000000E+03 0.  0.
         21    1    1    2  503  504 -0.81267080500E+02  0.31094536232E+02 -0.54374004180E+02  0.10260478004E+03  0.00000000000E+00 0. -1.
         21    1    1    2  504  501 -0.12822556646E+03  0.62839266418E+02 -0.23146901327E+01  0.14281430982E+03  0.00000000000E+00 0. -1.
<mgrwt>
<rscale>  4 0.26141103E+03</rscale>
<asrwt>0</asrwt>
<pdfrwt beam="1">  1       21 0.61264862E-01 0.26141103E+03</pdfrwt>
<pdfrwt beam="2">  1       21 0.31888861E-01 0.26141103E+03</pdfrwt>
<totfact> 0.22605189E+04</totfact>
</mgrwt>
</event>
<event>
 5    0  0.1829809E+000  0.2279483E+03  0.7546771E-02  0.1128092E+00
         21   -1    0    0  502  501  0.00000000000E+00  0.00000000000E+00  0.67655998255E+03  0.67655998255E+03  0.00000000000E+00 0.  1.
         21   -1    0    0  503  502 -0.00000000000E+00 -0.00000000000E+00 -0.11415917298E+03  0.11415917298E+03  0.00000000000E+00 0.  1.
         25    1    1    2    0    0 -0.65191171669E+02  0.23208402074E+03  0.24343976394E+03  0.36469274768E+03  0.12500000000E+03 0.  0.
         21    1    1    2  503  504 -0.44056870756E+02 -0.10937305412E+03  0.14147688596E+03  0.18417161043E+03  0.00000000000E+00 0.  1.
         21    1    1    2  504  501  0.10924804243E+03 -0.12271096661E+03  0.17748415967E+03  0.24185479742E+03  0.00000000000E+00 0.  1.
<mgrwt>
<rscale>  4 0.22794829E+03</rscale>
<asrwt>0</asrwt>
<pdfrwt beam="1">  1       21 0.10408615E+00 0.22794829E+03</pdfrwt>
<pdfrwt beam="2">  1       21 0.17562950E-01 0.22794829E+03</pdfrwt>
<totfact> 0.21470034E+04</totfact>
</mgrwt>
</event>
<event>
 5    0  0.1829809E+000  0.3108172E+03  0.7546771E-02  0.1079955E+00
         21   -1    0    0  502  501  0.00000000000E+00  0.00000000000E+00  0.17447914642E+04  0.17447914642E+04  0.00000000000E+00 0. -1.
         21   -1    0    0  503  502 -0.00000000000E+00 -0.00000000000E+00 -0.52951328668E+02  0.52951328668E+02  0.00000000000E+00 0. -1.
         25    1    1    2    0    0  0.53347654287E+02 -0.27952883980E+03  0.96622967953E+03  0.10149912010E+04  0.12500000000E+03 0.  0.
         21    1    1    2  503  504 -0.11181513701E+02  0.17682254951E+02  0.11710448866E+03  0.11895860479E+03  0.00000000000E+00 0.  1.
         21    1    1    2  504  501 -0.42166140586E+02  0.26184658485E+03  0.60850596731E+03  0.66379298705E+03  0.00000000000E+00 0. -1.
<mgrwt>
<rscale>  4 0.31081722E+03</rscale>
<asrwt>0</asrwt>
<pdfrwt beam="1">  1       21 0.26842941E+00 0.31081722E+03</pdfrwt>
<pdfrwt beam="2">  1       21 0.81463596E-02 0.31081722E+03</pdfrwt>
<totfact> 0.54673915E+03</totfact>
</mgrwt>
</event>
<event>
 5    0  0.1829809E+000  0.2628637E+03  0.7546771E-02  0.1105435E+00
         21   -1    0    0  502  501  0.00000000000E+00  0.00000000000E+00  0.80446490111E+03  0.80446490111E+03  0.00000000000E+00 0.  1.
         21   -1    0    0  503  502 -0.00000000000E+00 -0.00000000000E+00 -0.14206511304E+03  0.14206511304E+03  0.00000000000E+00 0. -1.
         25    1    1    2    0    0 -0.15367634411E+03 -0.14072106692E+03  0.54693363748E+03  0.59848161310E+03  0.12500000000E+03 0.  0.
         21    1    1    2  503  504 -0.59963880097E+02  0.35032805538E+02  0.81840622399E+02  0.10733523119E+03  0.00000000000E+00 0. -1.
         21    1    1    2  504  501  0.21364022421E+03  0.10568826138E+03  0.33625528190E+02  0.24071316985E+03  0.00000000000E+00 0. -1.
<mgrwt>
<rscale>  4 0.26286366E+03</rscale>
<asrwt>0</asrwt>
<pdfrwt beam="1">  1       21 0.12376383E+00 0.26286366E+03</pdfrwt>
<pdfrwt beam="2">  1       21 0.21856172E-01 0.26286366E+03</pdfrwt>
<totfact> 0.91324816E+03</totfact>
</mgrwt>
</event>
<event>
 5    0  0.1829809E+000  0.2060463E+03  0.7546771E-02  0.1144736E+00
         21   -1    0    0  502  501  0.00000000000E+00  0.00000000000E+00  0.12178810452E+04  0.12178810452E+04  0.00000000000E+00 0. -1.
         21   -1    0    0  503  502 -0.00000000000E+00 -0.00000000000E+00 -0.64805454034E+02  0.64805454034E+02  0.00000000000E+00 0. -1.
         25    1    1    2    0    0 -0.19463261299E+03 -0.47774220635E+02  0.94218823176E+03  0.97134334520E+03  0.12500000000E+03 0.  0.
         21    1    1    2  503  504  0.86945515592E+02 -0.66586394203E+01  0.26782593097E+02  0.91220433311E+02  0.00000000000E+00 0. -1.
         21    1    1    2  504  501  0.10768709739E+03  0.54432860056E+02  0.18410476628E+03  0.22012272069E+03  0.00000000000E+00 0. -1.
<mgrwt>
<rscale>  4 0.20604627E+03</rscale>
<asrwt>0</asrwt>
<pdfrwt beam="1">  1       21 0.18736630E+00 0.20604627E+03</pdfrwt>
<pdfrwt beam="2">  1       21 0.99700707E-02 0.20604627E+03</pdfrwt>
<totfact> 0.13106843E+04</totfact>
</mgrwt>
</event>
<event>
 5    0  0.1829809E+000  0.3153307E+03  0.7546771E-02  0.1077819E+00
         21   -1    0    0  502  501  0.00000000000E+00  0.00000000000E+00  0.25191712323E+04  0.25191712323E+04  0.00000000000E+00 0.  1.
         21   -1    0    0  503  502 -0.00000000000E+00 -0.00000000000E+00 -0.48776739359E+02  0.48776739359E+02  0.00000000000E+00 0.  1.
         25    1    1    2    0    0  0.28944043523E+03 -0.57188517051E+01  0.18814020097E+04  0.19076443570E+04  0.12500000000E+03 0.  0.
         21    1    1    2  503  504 -0.17517663445E+03 -0.11105693102E+02  0.42406966261E+03  0.45896107506E+03  0.00000000000E+00 0.  1.
         21    1    1    2  504  501 -0.11426380078E+03  0.16824544807E+02  0.16492282067E+03  0.20134253960E+03  0.00000000000E+00 0.  1.
<mgrwt>
<rscale>  4 0.31533073E+03</rscale>
<asrwt>0</asrwt>
<pdfrwt beam="1">  1       21 0.38756470E+00 0.31533073E+03</pdfrwt>
<pdfrwt beam="2">  1       21 0.75041157E-02 0.31533073E+03</pdfrwt>
<totfact> 0.12117827E+03</totfact>
</mgrwt>
</event>
<event>
 5    0  0.1829809E+000  0.3274202E+03  0.7546771E-02  0.1072284E+00
         21   -1    0    0  502  501  0.00000000000E+00  0.00000000000E+00  0.15517352479E+03  0.15517352479E+03  0.00000000000E+00 0.  1.
         21   -1    0    0  503  502 -0.00000000000E+00 -0.00000000000E+00 -0.17582168052E+04  0.17582168052E+04  0.00000000000E+00 0.  1.
         25    1    1    2    0    0 -0.18005065489E+03  0.24322988912E+03 -0.51898488583E+02  0.33150787382E+03  0.12500000000E+03 0.  0.
         21    1    1    2  503  504  0.38605244923E+02 -0.58596578661E+02 -0.52750322269E+03  0.53214995435E+03  0.00000000000E+00 0.  1.
         21    1    1    2  504  501  0.14144540997E+03 -0.18463331045E+03 -0.10236415691E+04  0.10497325018E+04  0.00000000000E+00 0.  1.
<mgrwt>
<rscale>  4 0.32742025E+03</rscale>
<asrwt>0</asrwt>
<pdfrwt beam="1">  1       21 0.23872850E-01 0.32742025E+03</pdfrwt>
<pdfrwt beam="2">  1       21 0.27049489E+00 0.32742025E+03</pdfrwt>
<totfact> 0.73054796E+02</totfact>
</mgrwt>
</event>
<event>
 5    0  0.1829809E+000  0.2672117E+03  0.7546771E-02  0.1102886E+00
         21   -1    0    0  502  501  0.00000000000E+00  0.00000000000E+00  0.44142107684E+03  0.44142107684E+03  0.00000000000E+00 0.  1.
         21   -1    0    0  503  502 -0.00000000000E+00 -0.00000000000E+00 -0.16257534392E+03  0.16257534392E+03  0.00000000000E+00 0.  1.
         25    1    1    2    0    0  0.17475827257E+03 -0.15886036956E+03  0.60987349142E+02  0.27408306698E+03  0.12500000000E+03 0.  0.
         21    1    1    2  503  504 -0.14884989214E+03  0.10270714051E+03  0.18928407398E+03  0.26178905203E+03  0.00000000000E+00 0.  1.
         21    1    1    2  504  501 -0.25908380432E+02  0.56153229047E+02  0.28574309794E+02  0.68124301752E+02  0.00000000000E+00 0.  1.
<mgrwt>
<rscale>  4 0.26721166E+03</rscale>
<asrwt>0</asrwt>
<pdfrwt beam="1">  1       21 0.67910935E-01 0.26721166E+03</pdfrwt>
<pdfrwt beam="2">  1       21 0.25011591E-01 0.26721166E+03</pdfrwt>
<totfact> 0.28895722E+04</totfact>
</mgrwt>
</event>
<event>
 5    0  0.1829809E+000  0.2487299E+03  0.7546771E-02  0.1114110E+00
         21   -1    0    0  502  501  0.00000000000E+00  0.00000000000E+00  0.23454814959E+03  0.23454814959E+03  0.00000000000E+00 0.  1.
         21   -1    0    0  503  502 -0.00000000000E+00 -0.00000000000E+00 -0.41683024890E+03  0.41683024890E+03  0.00000000000E+00 0.  1.
         25    1    1    2    0    0 -0.84259357841E+02  0.19295066041E+03  0.99096466485E+02  0.26414902310E+03  0.12500000000E+03 0.  0.
         21    1    1    2  503  504 -0.27350432408E+02  0.11214384162E+02 -0.13768539240E+02  0.32609526796E+02  0.00000000000E+00 0.  1.
         21    1    1    2  504  501  0.11160979025E+03 -0.20416504457E+03 -0.26761002655E+03  0.35461984859E+03  0.00000000000E+00 0.  1.
<mgrwt>
<rscale>  4 0.24872991E+03</rscale>
<asrwt>0</asrwt>
<pdfrwt beam="1">  1       21 0.36084331E-01 0.24872991E+03</pdfrwt>
<pdfrwt beam="2">  1       21 0.64127730E-01 0.24872991E+03</pdfrwt>
<totfact> 0.16097547E+04</totfact>
</mgrwt>
</event>
<event>
 5    0  0.1829809E+000  0.3614096E+03  0.7546771E-02  0.1058027E+00
         21   -1    0    0  502  501  0.00000000000E+00  0.00000000000E+00  0.31210414114E+03  0.31210414114E+03  0.00000000000E+00 0. -1.
         21   -1    0    0  503  502 -0.00000000000E+00 -0.00000000000E+00 -0.76658142797E+03  0.76658142797E+03  0.00000000000E+00 0.  1.
         25    1    1    2    0    0 -0.33472037079E+03 -0.54352087850E+02  0.14130889407E+03  0.38805293404E+03  0.12500000000E+03 0.  0.
         21    1    1    2  503  504  0.19373038019E+03  0.66588884511E+02 -0.39532867670E+03  0.44525307677E+03  0.00000000000E+00 0.  1.
         21    1    1    2  504  501  0.14098999059E+03 -0.12236796661E+02 -0.20045750420E+03  0.24537955830E+03  0.00000000000E+00 0. -1.
<mgrwt>
<rscale>  4 0.36140957E+03</rscale>
<asrwt>0</asrwt>
<pdfrwt beam="1">  1       21 0.48016021E-01 0.36140957E+03</pdfrwt>
<pdfrwt beam="2">  1       21 0.11793560E+00 0.36140957E+03</pdfrwt>
<totfact> 0.20425876E+03</totfact>
</mgrwt>
</event>
<event>
 5    0  0.1829809E+000  0.4058405E+03  0.7546771E-02  0.1041776E+00
         21   -1    0    0  502  501  0.00000000000E+00  0.00000000000E+00  0.33475889116E+03  0.33475889116E+03  0.00000000000E+00 0.  1.
         21   -1    0    0  503  502 -0.00000000000E+00 -0.00000000000E+00 -0.13188144344E+04  0.13188144344E+04  0.00000000000E+00 0. -1.
         25    1    1    2    0    0 -0.21401333771E+03 -0.32137179231E+03  0.16414697792E+03  0.43777935992E+03  0.12500000000E+03 0.  0.
         21    1    1    2  503  504  0.21942853002E+03  0.27113338272E+03 -0.10201946078E+04  0.10781740253E+04  0.00000000000E+00 0. -1.
         21    1    1    2  504  501 -0.54151923162E+01  0.50238409592E+02 -0.12800791338E+03  0.13761994040E+03  0.00000000000E+00 0.  1.
<mgrwt>
<rscale>  4 0.40584053E+03</rscale>
<asrwt>0</asrwt>
<pdfrwt beam="1">  1       21 0.51501367E-01 0.40584053E+03</pdfrwt>
<pdfrwt beam="2">  1       21 0.20289453E+00 0.40584053E+03</pdfrwt>
<totfact> 0.38603818E+02</totfact>
</mgrwt>
</event>
<event>
 5    0  0.1829809E+000  0.2026421E+03  0.7546771E-02  0.1147529E+00
         21   -1    0    0  502  501  0.00000000000E+00  0.00000000000E+00  0.84621216977E+02  0.84621216977E+02  0.00000000000E+00 0. -1.
         21   -1    0    0  503  502 -0.00000000000E+00 -0.00000000000E+00 -0.11766259747E+04  0.11766259747E+04  0.00000000000E+00 0. -1.
         25    1    1    2    0    0 -0.88693791717E+02 -0.18531538111E+03 -0.14751151356E+03  0.28212235962E+03  0.12500000000E+03 0.  0.
         21    1    1    2  503  504  0.53393032415E+02  0.14550883545E+03 -0.88837447684E+03  0.90179423828E+03  0.00000000000E+00 0. -1.
         21    1    1    2  504  501  0.35300759302E+02  0.39806545668E+02 -0.56118767294E+02  0.77330593739E+02  0.00000000000E+00 0. -1.
<mgrwt>
<rscale>  4 0.20264211E+03</rscale>
<asrwt>0</asrwt>
<pdfrwt beam="1">  1       21 0.13018648E-01 0.20264211E+03</pdfrwt>
<pdfrwt beam="2">  1       21 0.18101939E+00 0.20264211E+03</pdfrwt>
<totfact> 0.90058091E+03</totfact>
</mgrwt>
</event>
<event>
 5    0  0.1829809E+000  0.3133988E+03  0.7546771E-02  0.1078728E+00
         21   -1    0    0  502  501  0.00000000000E+00  0.00000000000E+00  0.12589717822E+04  0.12589717822E+04  0.00000000000E+00 0. -1.
         21   -1    0    0  503  502 -0.00000000000E+00 -0.00000000000E+00 -0.99009059522E+02  0.99009059522E+02  0.00000000000E+00 0.  1.
         25    1    1    2    0    0 -0.28587093483E+03  0.29522984178E+02  0.92351504958E+03  0.97524296705E+03  0.12500000000E+03 0.  0.
         21    1    1    2  503  504  0.19015006159E+03  0.17071485882E+02  0.17929866216E+03  0.26190931982E+03  0.00000000000E+00 0.  1.
         21    1    1    2  504  501  0.95720873245E+02 -0.46594470060E+02  0.57149010908E+02  0.12082855483E+03  0.00000000000E+00 0.  1.
<mgrwt>
<rscale>  4 0.31339878E+03</rscale>
<asrwt>0</asrwt>
<pdfrwt beam="1">  1       21 0.19368796E+00 0.31339878E+03</pdfrwt>
<pdfrwt beam="2">  1       21 0.15232164E-01 0.31339878E+03</pdfrwt>
<totfact> 0.51610742E+03</totfact>
</mgrwt>
</event>
<event>
 5    0  0.1829809E+000  0.3605521E+03  0.7546771E-02  0.1058365E+00
         21   -1    0    0  502  501  0.00000000000E+00  0.00000000000E+00  0.73855753603E+02  0.73855753603E+02  0.00000000000E+00 0. -1.
         21   -1    0    0  503  502 -0.00000000000E+00 -0.00000000000E+00 -0.16872223713E+04  0.16872223713E+04  0.00000000000E+00 0. -1.
         25    1    1    2    0    0 -0.33413225476E+02  0.33653589169E+03 -0.90727697914E+03  0.97629368886E+03  0.12500000000E+03 0.  0.
         21    1    1    2  503  504  0.26859024129E+01 -0.23750982581E+02 -0.24529190291E+02  0.34249152131E+02  0.00000000000E+00 0.  1.
         21    1    1    2  504  501  0.30727323063E+02 -0.31278490911E+03 -0.68156044824E+03  0.75053528388E+03  0.00000000000E+00 0. -1.
<mgrwt>
<rscale>  4 0.36055215E+03</rscale>
<asrwt>0</asrwt>
<pdfrwt beam="1">  1       21 0.11362424E-01 0.36055215E+03</pdfrwt>
<pdfrwt beam="2">  1       21 0.25957267E+00 0.36055215E+03</pdfrwt>
<totfact> 0.33095155E+03</totfact>
</mgrwt>
</event>
<event>
 5    0  0.1829809E+000  0.3717555E+03  0.7546771E-02  0.1054024E+00
         21   -1    0    0  502  501  0.00000000000E+00  0.00000000000E+00  0.59325626570E+03  0.59325626570E+03  0.00000000000E+00 0. -1.
         21   -1    0    0  503  502 -0.00000000000E+00 -0.00000000000E+00 -0.29715143547E+03  0.29715143547E+03  0.00000000000E+00 0. -1.
         25    1    1    2    0    0  0.50586756301E+02  0.36929417155E+03  0.25297031925E+03  0.46749993313E+03  0.12500000000E+03 0.  0.
         21    1    1    2  503  504  0.28553063975E+01 -0.34093891324E+03 -0.11848791290E+02  0.34115669302E+03  0.00000000000E+00 0. -1.
         21    1    1    2  504  501 -0.53442062699E+02 -0.28355258312E+02  0.54983302262E+02  0.81751075021E+02  0.00000000000E+00 0. -1.
<mgrwt>
<rscale>  4 0.37175546E+03</rscale>
<asrwt>0</asrwt>
<pdfrwt beam="1">  1       21 0.91270194E-01 0.37175546E+03</pdfrwt>
<pdfrwt beam="2">  1       21 0.45715606E-01 0.37175546E+03</pdfrwt>
<totfact> 0.42065896E+03</totfact>
</mgrwt>
</event>
<event>
 5    0  0.1829809E+000  0.2558406E+03  0.7546771E-02  0.1109668E+00
         21   -1    0    0  502  501  0.00000000000E+00  0.00000000000E+00  0.16889965955E+03  0.16889965955E+03  0.00000000000E+00 0. -1.
         21   -1    0    0  503  502 -0.00000000000E+00 -0.00000000000E+00 -0.39880921265E+03  0.39880921265E+03  0.00000000000E+00 0. -1.
         25    1    1    2    0    0 -0.17230067471E+03 -0.14192211349E+03 -0.15998183463E+02  0.25634030249E+03  0.12500000000E+03 0.  0.
         21    1    1    2  503  504  0.97317234161E+01  0.18630314051E+02 -0.30337686879E+02  0.36907591190E+02  0.00000000000E+00 0.  1.
         21    1    1    2  504  501  0.16256895130E+03  0.12329179944E+03 -0.18357368276E+03  0.27446097853E+03  0.00000000000E+00 0. -1.
<mgrwt>
<rscale>  4 0.25584059E+03</rscale>
<asrwt>0</asrwt>
<pdfrwt beam="1">  1       21 0.25984563E-01 0.25584059E+03</pdfrwt>
<pdfrwt beam="2">  1       21 0.61355264E-01 0.25584059E+03</pdfrwt>
<totfact> 0.33696078E+04</totfact>
</mgrwt>
</event>
<event>
 5    0  0.1829809E+000  0.3578380E+03  0.7546771E-02  0.1059443E+00
         21   -1    0    0  502  501  0.00000000000E+00  0.00000000000E+00  0.26215258779E+03  0.26215258779E+03  0.00000000000E+00 0.  1.
         21   -1    0    0  503  502 -0.00000000000E+00 -0.00000000000E+00 -0.57508646621E+03  0.57508646621E+03  0.00000000000E+00 0.  1.
         25    1    1    2    0    0 -0.32041913214E+03 -0.98765409188E+02 -0.33639730567E+03  0.49113254174E+03  0.12500000000E+03 0.  0.
         21    1    1    2  503  504  0.21778562060E+03  0.41496894326E+02  0.46024477728E+02  0.22643061040E+03  0.00000000000E+00 0.  1.
         21    1    1    2  504  501  0.10263351154E+03  0.57268514862E+02 -0.22561050486E+02  0.11967590186E+03  0.00000000000E+00 0.  1.
<mgrwt>
<rscale>  4 0.35783799E+03</rscale>
<asrwt>0</asrwt>
<pdfrwt beam="1">  1       21 0.40331167E-01 0.35783799E+03</pdfrwt>
<pdfrwt beam="2">  1       21 0.88474841E-01 0.35783799E+03</pdfrwt>
<totfact> 0.59017830E+03</totfact>
</mgrwt>
</event>
<event>
 5    0  0.1829809E+000  0.2384282E+03  0.7546771E-02  0.1120844E+00
         21   -1    0    0  502  501  0.00000000000E+00  0.00000000000E+00  0.20457528397E+03  0.20457528397E+03  0.00000000000E+00 0.  1.
         21   -1    0    0  503  502 -0.00000000000E+00 -0.00000000000E+00 -0.32882930918E+03  0.32882930918E+03  0.00000000000E+00 0.  1.
         25    1    1    2    0    0 -0.51017701830E+02 -0.19652028860E+03  0.69526723553E+02  0.24835860166E+03  0.12500000000E+03 0.  0.
         21    1    1    2  503  504  0.38836595036E+02  0.10969167872E+03 -0.79165448594E+02  0.14073987973E+03  0.00000000000E+00 0.  1.
         21    1    1    2  504  501  0.12181106795E+02  0.86828609883E+02 -0.11461530017E+03  0.14430611175E+03  0.00000000000E+00 0.  1.
<mgrwt>
<rscale>  4 0.23842825E+03</rscale>
<asrwt>0</asrwt>
<pdfrwt beam="1">  1       21 0.31473121E-01 0.23842825E+03</pdfrwt>
<pdfrwt beam="2">  1       21 0.50589124E-01 0.23842825E+03</pdfrwt>
<totfact> 0.35271683E+04</totfact>
</mgrwt>
</event>
