<event>
 5    0  0.1856407E+000  0.2481488E+03  0.7546771E-02  0.1114480E+00
         21   -1    0    0  502  501  0.00000000000E+00  0.00000000000E+00  0.80135277501E+03  0.80135277501E+03  0.00000000000E+00 0.  1.
         21   -1    0    0  503  502 -0.00000000000E+00 -0.00000000000E+00 -0.13656822427E+03  0.13656822427E+03  0.00000000000E+00 0. -1.
         25    1    1    2    0    0  0.21340034113E+03  0.20325685580E+02  0.67193759080E+03  0.71629460770E+03  0.12500000000E+03 0.  0.
         21    1    1    2  503  504 -0.88770270206E+02 -0.12264021945E+02  0.24273213375E+02  0.92842641035E+02  0.00000000000E+00 0. -1.
         21    1    1    2  504  501 -0.12463007093E+03 -0.80616636355E+01 -0.31426253435E+02  0.12878375055E+03  0.00000000000E+00 0. -1.
<mgrwt>
<rscale>  4 0.24814882E+03</rscale>
<asrwt>0</asrwt>
<pdfrwt beam="1">  1       21 0.12328504E+00 0.24814882E+03</pdfrwt>
<pdfrwt beam="2">  1       21 0.21010497E-01 0.24814882E+03</pdfrwt>
<totfact> 0.10020644E+04</totfact>
</mgrwt>
</event>
<event>
 5    0  0.2209691E+000  0.3241893E+03  0.7546771E-02  0.1073737E+00
         21   -1    0    0  502  501  0.00000000000E+00  0.00000000000E+00  0.37756995805E+03  0.37756995805E+03  0.00000000000E+00 0.  1.
         21   -1    0    0  503  502 -0.00000000000E+00 -0.00000000000E+00 -0.29217945190E+03  0.29217945190E+03  0.00000000000E+00 0. -1.
         25    1    1    2    0    0 -0.29514850665E+02 -0.29766187352E+03  0.15208538635E+03  0.35809032673E+03  0.12500000000E+03 0.  0.
         21    1    1    2  503  504  0.77751280826E+01  0.26348889382E+03 -0.62720768793E+02  0.27096262587E+03  0.00000000000E+00 0. -1.
         21    1    1    2  504  501  0.21739722583E+02  0.34172979698E+02 -0.39741114041E+01  0.40696457351E+02  0.00000000000E+00 0. -1.
<mgrwt>
<rscale>  4 0.32418932E+03</rscale>
<asrwt>0</asrwt>
<pdfrwt beam="1">  1       21 0.58087686E-01 0.32418932E+03</pdfrwt>
<pdfrwt beam="2">  1       21 0.44950685E-01 0.32418932E+03</pdfrwt>
<totfact> 0.12322248E+04</totfact>
</mgrwt>
</event>
<event>
 5    0  0.1856407E+000  0.2405767E+03  0.7546771E-02  0.1119409E+00
         21   -1    0    0  502  501  0.00000000000E+00  0.00000000000E+00  0.14273464498E+03  0.14273464498E+03  0.00000000000E+00 0. -1.
         21   -1    0    0  503  502 -0.00000000000E+00 -0.00000000000E+00 -0.14196117442E+04  0.14196117442E+04  0.00000000000E+00 0.  1.
         25    1    1    2    0    0 -0.89601182316E+02 -0.18751355588E+03  0.22339420782E+02  0.24354415459E+03  0.12500000000E+03 0.  0.
         21    1    1    2  503  504 -0.13420473050E+02  0.35669074460E+02 -0.13751243090E+03  0.14269569237E+03  0.00000000000E+00 0.  1.
         21    1    1    2  504  501  0.10302165537E+03  0.15184448142E+03 -0.11617040891E+04  0.11761065422E+04  0.00000000000E+00 0.  1.
<mgrwt>
<rscale>  4 0.24057667E+03</rscale>
<asrwt>0</asrwt>
<pdfrwt beam="1">  1       21 0.21959176E-01 0.24057667E+03</pdfrwt>
<pdfrwt beam="2">  1       21 0.21840181E+00 0.24057667E+03</pdfrwt>
<totfact> 0.19013134E+03</totfact>
</mgrwt>
</event>
<event>
 5    0  0.1856407E+000  0.2906545E+03  0.7546771E-02  0.1090008E+00
         21   -1    0    0  502  501  0.00000000000E+00  0.00000000000E+00  0.22426758017E+04  0.22426758017E+04  0.00000000000E+00 0.  1.
         21   -1    0    0  503  502 -0.00000000000E+00 -0.00000000000E+00 -0.10445192838E+03  0.10445192838E+03  0.00000000000E+00 0. -1.
         25    1    1    2    0    0 -0.26285398191E+03 -0.47384837891E+01  0.20109533130E+04  0.20319136045E+04  0.12500000000E+03 0.  0.
         21    1    1    2  503  504  0.25785951168E+03  0.31432656123E+02  0.12404527643E+03  0.28786588933E+03  0.00000000000E+00 0. -1.
         21    1    1    2  504  501  0.49944702320E+01 -0.26694172334E+02  0.32252838816E+01  0.27348236243E+02  0.00000000000E+00 0.  1.
<mgrwt>
<rscale>  4 0.29065447E+03</rscale>
<asrwt>0</asrwt>
<pdfrwt beam="1">  1       21 0.34502701E+00 0.29065447E+03</pdfrwt>
<pdfrwt beam="2">  1       21 0.16069529E-01 0.29065447E+03</pdfrwt>
<totfact> 0.57435157E+02</totfact>
</mgrwt>
</event>
<event>
 5    0  0.1856407E+000  0.3485029E+03  0.7546771E-02  0.1063231E+00
         21   -1    0    0  502  501  0.00000000000E+00  0.00000000000E+00  0.10525829093E+04  0.10525829093E+04  0.00000000000E+00 0.  1.
         21   -1    0    0  503  502 -0.00000000000E+00 -0.00000000000E+00 -0.23522311132E+03  0.23522311132E+03  0.00000000000E+00 0. -1.
         25    1    1    2    0    0  0.31524267557E+03  0.12320506004E+03  0.84218489145E+03  0.91621930929E+03  0.12500000000E+03 0.  0.
         21    1    1    2  503  504 -0.31053415673E+03 -0.90463246748E+02 -0.53465946568E+02  0.32783176929E+03  0.00000000000E+00 0. -1.
         21    1    1    2  504  501 -0.47085188351E+01 -0.32741813293E+02  0.28640853095E+02  0.43754942045E+02  0.00000000000E+00 0. -1.
<mgrwt>
<rscale>  4 0.34850286E+03</rscale>
<asrwt>0</asrwt>
<pdfrwt beam="1">  1       21 0.16193583E+00 0.34850286E+03</pdfrwt>
<pdfrwt beam="2">  1       21 0.36188172E-01 0.34850286E+03</pdfrwt>
<totfact> 0.15993604E+03</totfact>
</mgrwt>
</event>
<event>
 5    0  0.1856407E+000  0.2758687E+03  0.7546771E-02  0.1097967E+00
         21   -1    0    0  502  501  0.00000000000E+00  0.00000000000E+00  0.17380328526E+03  0.17380328526E+03  0.00000000000E+00 0.  1.
         21   -1    0    0  503  502 -0.00000000000E+00 -0.00000000000E+00 -0.10099514482E+04  0.10099514482E+04  0.00000000000E+00 0.  1.
         25    1    1    2    0    0 -0.23039550297E+03  0.86002757194E+02  0.30024368348E+02  0.27749779229E+03  0.12500000000E+03 0.  0.
         21    1    1    2  503  504  0.15793665171E+03 -0.59529662273E+02 -0.73456445343E+03  0.75370597907E+03  0.00000000000E+00 0.  1.
         21    1    1    2  504  501  0.72458851254E+02 -0.26473094922E+02 -0.13160807783E+03  0.15255096207E+03  0.00000000000E+00 0.  1.
<mgrwt>
<rscale>  4 0.27586874E+03</rscale>
<asrwt>0</asrwt>
<pdfrwt beam="1">  1       21 0.26738967E-01 0.27586874E+03</pdfrwt>
<pdfrwt beam="2">  1       21 0.15537714E+00 0.27586874E+03</pdfrwt>
<totfact> 0.34031649E+03</totfact>
</mgrwt>
</event>
<event>
 5    0  0.1856407E+000  0.3305066E+03  0.7546771E-02  0.1070913E+00
         21   -1    0    0  502  501  0.00000000000E+00  0.00000000000E+00  0.32002893918E+03  0.32002893918E+03  0.00000000000E+00 0. -1.
         21   -1    0    0  503  502 -0.00000000000E+00 -0.00000000000E+00 -0.14244426027E+04  0.14244426027E+04  0.00000000000E+00 0.  1.
         25    1    1    2    0    0 -0.27490763697E+03 -0.13429605759E+03  0.21068522611E+03  0.39194757871E+03  0.12500000000E+03 0.  0.
         21    1    1    2  503  504  0.23675459609E+03  0.12936859248E+03 -0.12283162526E+04  0.12575968305E+04  0.00000000000E+00 0.  1.
         21    1    1    2  504  501  0.38153040884E+02  0.49274651127E+01 -0.86782637005E+02  0.94927132721E+02  0.00000000000E+00 0. -1.
<mgrwt>
<rscale>  4 0.33050664E+03</rscale>
<asrwt>0</asrwt>
<pdfrwt beam="1">  1       21 0.49235222E-01 0.33050664E+03</pdfrwt>
<pdfrwt beam="2">  1       21 0.21914502E+00 0.33050664E+03</pdfrwt>
<totfact> 0.35027230E+02</totfact>
</mgrwt>
</event>
<event>
 5    0  0.1856407E+000  0.2799653E+03  0.7546771E-02  0.1095708E+00
         21   -1    0    0  502  501  0.00000000000E+00  0.00000000000E+00  0.35971095273E+03  0.35971095273E+03  0.00000000000E+00 0. -1.
         21   -1    0    0  503  502 -0.00000000000E+00 -0.00000000000E+00 -0.75636987152E+03  0.75636987152E+03  0.00000000000E+00 0. -1.
         25    1    1    2    0    0 -0.21257807763E+03 -0.17012909905E+03  0.17481979352E+03  0.34687218055E+03  0.12500000000E+03 0.  0.
         21    1    1    2  503  504  0.43224907362E+02  0.24362838935E+03 -0.10736150246E+03  0.26972148028E+03  0.00000000000E+00 0. -1.
         21    1    1    2  504  501  0.16935317027E+03 -0.73499290296E+02 -0.46411720985E+03  0.49948716343E+03  0.00000000000E+00 0. -1.
<mgrwt>
<rscale>  4 0.27996529E+03</rscale>
<asrwt>0</asrwt>
<pdfrwt beam="1">  1       21 0.55340147E-01 0.27996529E+03</pdfrwt>
<pdfrwt beam="2">  1       21 0.11636460E+00 0.27996529E+03</pdfrwt>
<totfact> 0.16359532E+03</totfact>
</mgrwt>
</event>
<event>
 5    0  0.1856407E+000  0.3210452E+03  0.7546771E-02  0.1075370E+00
         21   -1    0    0  502  501  0.00000000000E+00  0.00000000000E+00  0.74443543752E+03  0.74443543752E+03  0.00000000000E+00 0.  1.
         21   -1    0    0  503  502 -0.00000000000E+00 -0.00000000000E+00 -0.16475779280E+03  0.16475779280E+03  0.00000000000E+00 0.  1.
         25    1    1    2    0    0 -0.99897170586E+02  0.27630596660E+03  0.47340071428E+03  0.57101459539E+03  0.12500000000E+03 0.  0.
         21    1    1    2  503  504 -0.16674333381E+01 -0.97507629983E+02  0.88650793805E+02  0.13179332867E+03  0.00000000000E+00 0. -1.
         21    1    1    2  504  501  0.10156460392E+03 -0.17879833661E+03  0.17626136624E+02  0.20638530626E+03  0.00000000000E+00 0.  1.
<mgrwt>
<rscale>  4 0.32060679E+03</rscale>
<asrwt>0</asrwt>
<pdfrwt beam="1">  1       21 0.11452853E+00 0.32104517E+03</pdfrwt>
<pdfrwt beam="2">  1       21 0.25347353E-01 0.32104517E+03</pdfrwt>
<totfact> 0.81067842E+03</totfact>
</mgrwt>
</event>
