<event>
 5    0  0.1964779E+000  0.2227432E+03  0.7546771E-02  0.1131854E+00
         21   -1    0    0  502  501  0.00000000000E+00  0.00000000000E+00  0.58083012048E+03  0.58083012048E+03  0.00000000000E+00 0. -1.
         21   -1    0    0  503  502 -0.00000000000E+00 -0.00000000000E+00 -0.10755116600E+03  0.10755116600E+03  0.00000000000E+00 0. -1.
         25    1    1    2    0    0  0.13711911985E+03  0.15326555430E+03  0.13407228955E+03  0.27548568382E+03  0.12500000000E+03 0.  0.
         21    1    1    2  503  504  0.34456652100E+01 -0.43842022394E+02  0.22188469784E+02  0.49257727594E+02  0.00000000000E+00 0. -1.
         21    1    1    2  504  501 -0.14056478506E+03 -0.10942353191E+03  0.31701819515E+03  0.36363787508E+03  0.00000000000E+00 0. -1.
<mgrwt>
<rscale>  4 0.22274320E+03</rscale>
<asrwt>0</asrwt>
<pdfrwt beam="1">  1       21 0.89358478E-01 0.22274320E+03</pdfrwt>
<pdfrwt beam="2">  1       21 0.16546334E-01 0.22274320E+03</pdfrwt>
<totfact> 0.34465853E+04</totfact>
</mgrwt>
</event>
<event>
 5    0  0.1856407E+000  0.4375369E+03  0.7546771E-02  0.1031505E+00
         21   -1    0    0  502  501  0.00000000000E+00  0.00000000000E+00  0.15243056460E+03  0.15243056460E+03  0.00000000000E+00 0. -1.
         21   -1    0    0  503  502 -0.00000000000E+00 -0.00000000000E+00 -0.12686701673E+04  0.12686701673E+04  0.00000000000E+00 0. -1.
         25    1    1    2    0    0  0.27378392501E+03  0.31757824662E+03 -0.45348443958E+03  0.63014817088E+03  0.12500000000E+03 0.  0.
         21    1    1    2  503  504 -0.41925025093E+02 -0.54757612789E+02 -0.50485045627E+02  0.85468378477E+02  0.00000000000E+00 0. -1.
         21    1    1    2  504  501 -0.23185889992E+03 -0.26282063383E+03 -0.61227011751E+03  0.70548418255E+03  0.00000000000E+00 0. -1.
<mgrwt>
<rscale>  4 0.43753695E+03</rscale>
<asrwt>0</asrwt>
<pdfrwt beam="1">  1       21 0.23450856E-01 0.43753695E+03</pdfrwt>
<pdfrwt beam="2">  1       21 0.19518002E+00 0.43753695E+03</pdfrwt>
<totfact> 0.21024361E+03</totfact>
</mgrwt>
</event>
<event>
 5    0  0.1856407E+000  0.2463581E+03  0.7546771E-02  0.1115628E+00
         21   -1    0    0  502  501  0.00000000000E+00  0.00000000000E+00  0.27120403879E+03  0.27120403879E+03  0.00000000000E+00 0.  1.
         21   -1    0    0  503  502 -0.00000000000E+00 -0.00000000000E+00 -0.27810871917E+03  0.27810871917E+03  0.00000000000E+00 0. -1.
         25    1    1    2    0    0 -0.21288327926E+03  0.96295418545E+02  0.81841662520E+02  0.27733581800E+03  0.12500000000E+03 0.  0.
         21    1    1    2  503  504  0.17551003483E+03 -0.10636886127E+03 -0.10436282802E+03  0.23023836962E+03  0.00000000000E+00 0. -1.
         21    1    1    2  504  501  0.37373244422E+02  0.10073442724E+02  0.15616485118E+02  0.41738570344E+02  0.00000000000E+00 0. -1.
<mgrwt>
<rscale>  4 0.24635810E+03</rscale>
<asrwt>0</asrwt>
<pdfrwt beam="1">  1       21 0.41723698E-01 0.24635810E+03</pdfrwt>
<pdfrwt beam="2">  1       21 0.42785957E-01 0.24635810E+03</pdfrwt>
<totfact> 0.28269161E+04</totfact>
</mgrwt>
</event>
<event>
 5    0  0.1856407E+000  0.4724214E+03  0.7546771E-02  0.1021239E+00
         21   -1    0    0  502  501  0.00000000000E+00  0.00000000000E+00  0.57157954172E+03  0.57157954172E+03  0.00000000000E+00 0. -1.
         21   -1    0    0  503  502 -0.00000000000E+00 -0.00000000000E+00 -0.51192224578E+03  0.51192224578E+03  0.00000000000E+00 0. -1.
         25    1    1    2    0    0 -0.32102924576E+03 -0.32412860405E+03  0.27232159030E+03  0.54580507247E+03  0.12500000000E+03 0.  0.
         21    1    1    2  503  504  0.30057335302E+03  0.34236108325E+03 -0.22444571108E+03  0.50786940161E+03  0.00000000000E+00 0. -1.
         21    1    1    2  504  501  0.20455892737E+02 -0.18232479208E+02  0.11781416712E+02  0.29827313413E+02  0.00000000000E+00 0. -1.
<mgrwt>
<rscale>  4 0.47242142E+03</rscale>
<asrwt>0</asrwt>
<pdfrwt beam="1">  1       21 0.87935314E-01 0.47242142E+03</pdfrwt>
<pdfrwt beam="2">  1       21 0.78757268E-01 0.47242142E+03</pdfrwt>
<totfact> 0.13403758E+03</totfact>
</mgrwt>
</event>
<event>
 5    0  0.1856407E+000  0.2786071E+03  0.7546771E-02  0.1096452E+00
         21   -1    0    0  502  501  0.00000000000E+00  0.00000000000E+00  0.18296301771E+03  0.18296301771E+03  0.00000000000E+00 0. -1.
         21   -1    0    0  503  502 -0.00000000000E+00 -0.00000000000E+00 -0.11437756274E+04  0.11437756274E+04  0.00000000000E+00 0. -1.
         25    1    1    2    0    0 -0.16015606490E+03  0.19064870827E+03  0.51036279517E+02  0.28324299977E+03  0.12500000000E+03 0.  0.
         21    1    1    2  503  504  0.13096611973E+03 -0.14496371559E+03 -0.69046973830E+03  0.71757582377E+03  0.00000000000E+00 0. -1.
         21    1    1    2  504  501  0.29189945170E+02 -0.45684992682E+02 -0.32137915088E+03  0.32591982155E+03  0.00000000000E+00 0. -1.
<mgrwt>
<rscale>  4 0.27860706E+03</rscale>
<asrwt>0</asrwt>
<pdfrwt beam="1">  1       21 0.28148156E-01 0.27860706E+03</pdfrwt>
<pdfrwt beam="2">  1       21 0.17596548E+00 0.27860706E+03</pdfrwt>
<totfact> 0.21778427E+03</totfact>
</mgrwt>
</event>
<event>
 5    0  0.1856407E+000  0.3406678E+03  0.7546771E-02  0.1066512E+00
         21   -1    0    0  502  501  0.00000000000E+00  0.00000000000E+00  0.52685914258E+03  0.52685914258E+03  0.00000000000E+00 0.  1.
         21   -1    0    0  503  502 -0.00000000000E+00 -0.00000000000E+00 -0.31733599078E+03  0.31733599078E+03  0.00000000000E+00 0.  1.
         25    1    1    2    0    0  0.14224583271E+03 -0.28318843224E+03  0.35415816965E+03  0.49140876489E+03  0.12500000000E+03 0.  0.
         21    1    1    2  503  504 -0.11481789303E+03  0.25637157262E+03 -0.11196388032E+03  0.30239947471E+03  0.00000000000E+00 0.  1.
         21    1    1    2  504  501 -0.27427939678E+02  0.26816859616E+02 -0.32671137536E+02  0.50386893758E+02  0.00000000000E+00 0. -1.
<mgrwt>
<rscale>  4 0.34066782E+03</rscale>
<asrwt>0</asrwt>
<pdfrwt beam="1">  1       21 0.81055253E-01 0.34066782E+03</pdfrwt>
<pdfrwt beam="2">  1       21 0.48820922E-01 0.34066782E+03</pdfrwt>
<totfact> 0.48980046E+03</totfact>
</mgrwt>
</event>
