<event>
 5    0  0.3040647E+000  0.1928476E+03  0.7546771E-02  0.1155918E+00
         -1   -1    0    0    0  501 -0.00000000000E+00  0.00000000000E+00  0.46148271911E+03  0.46148271911E+03  0.00000000000E+00 0.  1.
         21   -1    0    0  501  502  0.00000000000E+00 -0.00000000000E+00 -0.93378402718E+03  0.93378402718E+03  0.00000000000E+00 0. -1.
         25    1    1    2    0    0 -0.26879905442E+03 -0.15537342649E+02 -0.68117795965E+02  0.30456423756E+03  0.12500000000E+03 0.  0.
         21    1    1    2  503  502  0.13208910083E+03  0.33615058574E+02 -0.72699954546E+03  0.73966603397E+03  0.00000000000E+00 0. -1.
         -1    1    1    2    0  503  0.13670995359E+03 -0.18077715925E+02  0.32281603335E+03  0.35103647476E+03  0.00000000000E+00 0.  1.
<mgrwt>
<rscale>  4 0.19284758E+03</rscale>
<asrwt>0</asrwt>
<pdfrwt beam="1">  1       21 0.14365908E+00 0.19284758E+03</pdfrwt>
<pdfrwt beam="2">  1       -1 0.70997343E-01 0.19284758E+03</pdfrwt>
<totfact> 0.64974836E+01</totfact>
</mgrwt>
</event>
<event>
 5    0  0.3040647E+000  0.2640161E+03  0.7546771E-02  0.1104754E+00
          2   -1    0    0  502    0 -0.00000000000E+00  0.00000000000E+00  0.23494348758E+04  0.23494348758E+04  0.00000000000E+00 0.  1.
         21   -1    0    0  503  502  0.00000000000E+00 -0.00000000000E+00 -0.56933422474E+02  0.56933422474E+02  0.00000000000E+00 0.  1.
         25    1    1    2    0    0  0.24039984877E+01  0.26166902774E+03  0.48841644561E+03  0.56802472097E+03  0.12500000000E+03 0.  0.
         21    1    1    2  503  501  0.45082941812E+02 -0.19553191166E+03  0.62437399337E+03  0.65582626031E+03  0.00000000000E+00 0.  1.
          2    1    1    2  501    0 -0.47486940299E+02 -0.66137116086E+02  0.11797110143E+04  0.11825173170E+04  0.00000000000E+00 0.  1.
<mgrwt>
<rscale>  4 0.26401613E+03</rscale>
<asrwt>0</asrwt>
<pdfrwt beam="1">  1       21 0.87589899E-02 0.26401613E+03</pdfrwt>
<pdfrwt beam="2">  1        2 0.36145144E+00 0.26401613E+03</pdfrwt>
<totfact> 0.62653975E+03</totfact>
</mgrwt>
</event>
<event>
 5    0  0.3040647E+000  0.2461396E+03  0.7546771E-02  0.1115769E+00
         21   -1    0    0  503  502  0.00000000000E+00  0.00000000000E+00  0.13261309074E+03  0.13261309074E+03  0.00000000000E+00 0.  1.
          2   -1    0    0  502    0 -0.00000000000E+00 -0.00000000000E+00 -0.14109604303E+04  0.14109604303E+04  0.00000000000E+00 0.  1.
         25    1    1    2    0    0 -0.27582499417E+03  0.90099545353E+02 -0.40133137884E+03  0.51077316993E+03  0.12500000000E+03 0.  0.
         21    1    1    2  503  501  0.83612641229E+02 -0.46233173010E+02  0.33452251245E+02  0.10123059406E+03  0.00000000000E+00 0.  1.
          2    1    1    2  501    0  0.19221235294E+03 -0.43866372343E+02 -0.91046821198E+03  0.93156975706E+03  0.00000000000E+00 0.  1.
<mgrwt>
<rscale>  4 0.24613960E+03</rscale>
<asrwt>0</asrwt>
<pdfrwt beam="1">  1       21 0.20402012E-01 0.24613960E+03</pdfrwt>
<pdfrwt beam="2">  1        2 0.21707085E+00 0.24613960E+03</pdfrwt>
<totfact> 0.42559051E+03</totfact>
</mgrwt>
</event>
<event>
 5    0  0.3040647E+000  0.2897201E+03  0.7546771E-02  0.1090495E+00
         21   -1    0    0  503  502  0.00000000000E+00  0.00000000000E+00  0.38523595404E+03  0.38523595404E+03  0.00000000000E+00 0.  1.
          1   -1    0    0  502    0 -0.00000000000E+00 -0.00000000000E+00 -0.44529088831E+03  0.44529088831E+03  0.00000000000E+00 0.  1.
         25    1    1    2    0    0 -0.21169109092E+03  0.21833536004E+03  0.60628890240E+02  0.33434160637E+03  0.12500000000E+03 0.  0.
         21    1    1    2  503  501  0.50454317782E+02 -0.26879123154E+02  0.12994931495E+03  0.14196812988E+03  0.00000000000E+00 0. -1.
          1    1    1    2  501    0  0.16123677314E+03 -0.19145623689E+03 -0.25063313947E+03  0.35421710610E+03  0.00000000000E+00 0.  1.
<mgrwt>
<rscale>  4 0.28972008E+03</rscale>
<asrwt>0</asrwt>
<pdfrwt beam="1">  1       21 0.59267070E-01 0.28972008E+03</pdfrwt>
<pdfrwt beam="2">  1        1 0.68506290E-01 0.28972008E+03</pdfrwt>
<totfact> 0.14874983E+03</totfact>
</mgrwt>
</event>
<event>
 5    0  0.3040647E+000  0.3099421E+03  0.7546771E-02  0.1080374E+00
          2   -1    0    0  502    0 -0.00000000000E+00  0.00000000000E+00  0.12455292664E+04  0.12455292664E+04  0.00000000000E+00 0. -1.
         21   -1    0    0  503  502  0.00000000000E+00 -0.00000000000E+00 -0.16607403860E+03  0.16607403860E+03  0.00000000000E+00 0. -1.
         25    1    1    2    0    0 -0.32202683481E+02 -0.32412840769E+03  0.11852016700E+03  0.36846745783E+03  0.12500000000E+03 0.  0.
         21    1    1    2  503  501 -0.34591017204E+01  0.49435934321E+02  0.73065787195E+01  0.50092545149E+02  0.00000000000E+00 0. -1.
          2    1    1    2  501    0  0.35661785201E+02  0.27469247337E+03  0.95362848212E+03  0.99304330206E+03  0.00000000000E+00 0. -1.
<mgrwt>
<rscale>  4 0.30994214E+03</rscale>
<asrwt>0</asrwt>
<pdfrwt beam="1">  1       21 0.25549853E-01 0.30994214E+03</pdfrwt>
<pdfrwt beam="2">  1        2 0.19161988E+00 0.30994214E+03</pdfrwt>
<totfact> 0.33471414E+03</totfact>
</mgrwt>
</event>
<event>
 5    0  0.3040647E+000  0.2485074E+03  0.7546771E-02  0.1114252E+00
          1   -1    0    0  502    0 -0.00000000000E+00  0.00000000000E+00  0.31796099215E+03  0.31796099215E+03  0.00000000000E+00 0.  1.
         21   -1    0    0  503  502  0.00000000000E+00 -0.00000000000E+00 -0.19499379249E+03  0.19499379249E+03  0.00000000000E+00 0.  1.
         25    1    1    2    0    0  0.11884757675E+03 -0.18626329080E+03  0.32172092808E+02  0.25588826381E+03  0.12500000000E+03 0.  0.
         21    1    1    2  503  501 -0.13521027520E+03  0.15969833945E+03  0.80741685426E+02  0.22428686521E+03  0.00000000000E+00 0.  1.
          1    1    1    2  501    0  0.16362698444E+02  0.26564951347E+02  0.10053421427E+02  0.32779655624E+02  0.00000000000E+00 0.  1.
<mgrwt>
<rscale>  4 0.24850737E+03</rscale>
<asrwt>0</asrwt>
<pdfrwt beam="1">  1       21 0.29999045E-01 0.24850737E+03</pdfrwt>
<pdfrwt beam="2">  1        1 0.48917076E-01 0.24850737E+03</pdfrwt>
<totfact> 0.93823872E+03</totfact>
</mgrwt>
</event>
<event>
 5    0  0.3040647E+000  0.2399496E+03  0.7546771E-02  0.1119826E+00
         -4   -1    0    0    0  501 -0.00000000000E+00  0.00000000000E+00  0.79997293178E+02  0.79997293178E+02  0.00000000000E+00 0.  1.
         21   -1    0    0  501  502  0.00000000000E+00 -0.00000000000E+00 -0.86863365380E+03  0.86863365380E+03  0.00000000000E+00 0. -1.
         25    1    1    2    0    0  0.55107277090E+02  0.21001715474E+03 -0.54526845975E+03  0.60007225437E+03  0.12500000000E+03 0.  0.
         21    1    1    2  503  502 -0.15624801309E+02 -0.13225462590E+02 -0.99564860806E+02  0.10164747308E+03  0.00000000000E+00 0.  1.
         -4    1    1    2    0  503 -0.39482475781E+02 -0.19679169215E+03 -0.14380304007E+03  0.24691121952E+03  0.00000000000E+00 0.  1.
<mgrwt>
<rscale>  4 0.23994962E+03</rscale>
<asrwt>0</asrwt>
<pdfrwt beam="1">  1       21 0.13363594E+00 0.23994962E+03</pdfrwt>
<pdfrwt beam="2">  1       -4 0.12307277E-01 0.23994962E+03</pdfrwt>
<totfact> 0.89705534E+02</totfact>
</mgrwt>
</event>
<event>
 5    0  0.3040647E+000  0.2636052E+03  0.7546771E-02  0.1104996E+00
          1   -1    0    0  502    0 -0.00000000000E+00  0.00000000000E+00  0.20442593452E+04  0.20442593452E+04  0.00000000000E+00 0.  1.
         21   -1    0    0  503  502  0.00000000000E+00 -0.00000000000E+00 -0.50190897295E+02  0.50190897295E+02  0.00000000000E+00 0.  1.
         25    1    1    2    0    0  0.16697769678E+03  0.11128801264E+03  0.41118032160E+03  0.47430035827E+03  0.12500000000E+03 0.  0.
         21    1    1    2  503  501 -0.88273912360E+01  0.75273927097E+02  0.16834419731E+03  0.18461813482E+03  0.00000000000E+00 0.  1.
          1    1    1    2  501    0 -0.15815030554E+03 -0.18656193974E+03  0.14145439290E+04  0.14355317494E+04  0.00000000000E+00 0.  1.
<mgrwt>
<rscale>  4 0.26360524E+03</rscale>
<asrwt>0</asrwt>
<pdfrwt beam="1">  1       21 0.77216781E-02 0.26360524E+03</pdfrwt>
<pdfrwt beam="2">  1        1 0.31450137E+00 0.26360524E+03</pdfrwt>
<totfact> 0.44802578E+03</totfact>
</mgrwt>
</event>
<event>
 5    0  0.3040647E+000  0.2754344E+03  0.7546771E-02  0.1098209E+00
         21   -1    0    0  503  502  0.00000000000E+00  0.00000000000E+00  0.44578080111E+03  0.44578080111E+03  0.00000000000E+00 0.  1.
          2   -1    0    0  502    0 -0.00000000000E+00 -0.00000000000E+00 -0.14948859843E+04  0.14948859843E+04  0.00000000000E+00 0.  1.
         25    1    1    2    0    0  0.15598981824E+03 -0.15619259267E+03  0.87186404746E+02  0.26824507185E+03  0.12500000000E+03 0.  0.
         21    1    1    2  503  501  0.54263430207E+00 -0.34885746347E+02  0.25601120583E+03  0.25837772207E+03  0.00000000000E+00 0.  1.
          2    1    1    2  501    0 -0.15653245255E+03  0.19107833901E+03 -0.13923027938E+04  0.14140439915E+04  0.00000000000E+00 0.  1.
<mgrwt>
<rscale>  4 0.27543441E+03</rscale>
<asrwt>0</asrwt>
<pdfrwt beam="1">  1       21 0.68581661E-01 0.27543441E+03</pdfrwt>
<pdfrwt beam="2">  1        2 0.22998246E+00 0.27543441E+03</pdfrwt>
<totfact> 0.32373778E+02</totfact>
</mgrwt>
</event>
<event>
 5    0  0.3040647E+000  0.5574857E+03  0.7546771E-02  0.9997760E-01
         21   -1    0    0  503  502  0.00000000000E+00  0.00000000000E+00  0.68223349104E+03  0.68223349104E+03  0.00000000000E+00 0. -1.
          1   -1    0    0  502    0 -0.00000000000E+00 -0.00000000000E+00 -0.71795167570E+03  0.71795167570E+03  0.00000000000E+00 0. -1.
         25    1    1    2    0    0 -0.48480162375E+03  0.34396086731E+03  0.24194431425E+03  0.65383770450E+03  0.12500000000E+03 0.  0.
         21    1    1    2  503  501  0.40620345328E+03 -0.25399168073E+03 -0.40486577105E+02  0.48078288474E+03  0.00000000000E+00 0. -1.
          1    1    1    2  501    0  0.78598170472E+02 -0.89969186580E+02 -0.23717592181E+03  0.26556457750E+03  0.00000000000E+00 0. -1.
<mgrwt>
<rscale>  4 0.55748572E+03</rscale>
<asrwt>0</asrwt>
<pdfrwt beam="1">  1       21 0.10495900E+00 0.55748572E+03</pdfrwt>
<pdfrwt beam="2">  1        1 0.11045410E+00 0.55748572E+03</pdfrwt>
<totfact> 0.18945215E+02</totfact>
</mgrwt>
</event>
<event>
 5    0  0.3040647E+000  0.4250418E+03  0.7546771E-02  0.1035438E+00
          2   -1    0    0  502    0 -0.00000000000E+00  0.00000000000E+00  0.92682337472E+03  0.92682337472E+03  0.00000000000E+00 0. -1.
         21   -1    0    0  503  502  0.00000000000E+00 -0.00000000000E+00 -0.26568165659E+03  0.26568165659E+03  0.00000000000E+00 0. -1.
         25    1    1    2    0    0  0.36751446765E+02 -0.40276156442E+03  0.19960333642E+03  0.46801072479E+03  0.12500000000E+03 0.  0.
         21    1    1    2  503  501 -0.15843880535E+03  0.38691140991E+03  0.27229801391E+03  0.49894839667E+03  0.00000000000E+00 0. -1.
          2    1    1    2  501    0  0.12168735859E+03  0.15850154506E+02  0.18924036781E+03  0.22554590984E+03  0.00000000000E+00 0. -1.
<mgrwt>
<rscale>  4 0.42504184E+03</rscale>
<asrwt>0</asrwt>
<pdfrwt beam="1">  1       21 0.40874101E-01 0.42504184E+03</pdfrwt>
<pdfrwt beam="2">  1        2 0.14258821E+00 0.42504184E+03</pdfrwt>
<totfact> 0.19775029E+03</totfact>
</mgrwt>
</event>
<event>
 5    0  0.3040647E+000  0.2861934E+03  0.7546771E-02  0.1092353E+00
         21   -1    0    0  503  502  0.00000000000E+00  0.00000000000E+00  0.87555277342E+02  0.87555277342E+02  0.00000000000E+00 0. -1.
          1   -1    0    0  502    0 -0.00000000000E+00 -0.00000000000E+00 -0.12323101617E+04  0.12323101617E+04  0.00000000000E+00 0. -1.
         25    1    1    2    0    0 -0.17380045182E+03 -0.16621187376E+03 -0.42073591758E+03  0.50047646935E+03  0.12500000000E+03 0.  0.
         21    1    1    2  503  501 -0.49988769561E+02  0.16445707066E+02 -0.65243460178E+01  0.53027402860E+02  0.00000000000E+00 0. -1.
          1    1    1    2  501    0  0.22378922138E+03  0.14976616669E+03 -0.71749462071E+03  0.76636156678E+03  0.00000000000E+00 0. -1.
<mgrwt>
<rscale>  4 0.28619344E+03</rscale>
<asrwt>0</asrwt>
<pdfrwt beam="1">  1       21 0.13470043E-01 0.28619344E+03</pdfrwt>
<pdfrwt beam="2">  1        1 0.18958617E+00 0.28619344E+03</pdfrwt>
<totfact> 0.56797364E+03</totfact>
</mgrwt>
</event>
<event>
 5    0  0.3040647E+000  0.2330702E+03  0.7546771E-02  0.1124497E+00
         -1   -1    0    0    0  501 -0.00000000000E+00  0.00000000000E+00  0.56868731876E+03  0.56868731876E+03  0.00000000000E+00 0. -1.
         21   -1    0    0  501  502  0.00000000000E+00 -0.00000000000E+00 -0.19969078655E+03  0.19969078655E+03  0.00000000000E+00 0. -1.
         25    1    1    2    0    0  0.54904238368E+02 -0.23978348399E+03  0.88061779511E+02  0.28963851884E+03  0.12500000000E+03 0.  0.
         21    1    1    2  503  502 -0.41929715652E+02  0.54564998978E+02 -0.59495429381E+02  0.90967831047E+02  0.00000000000E+00 0. -1.
         -1    1    1    2    0  503 -0.12974522715E+02  0.18521848501E+03  0.34043018209E+03  0.38777175543E+03  0.00000000000E+00 0. -1.
<mgrwt>
<rscale>  4 0.23307021E+03</rscale>
<asrwt>0</asrwt>
<pdfrwt beam="1">  1       21 0.30721660E-01 0.23307021E+03</pdfrwt>
<pdfrwt beam="2">  1       -1 0.87490356E-01 0.23307021E+03</pdfrwt>
<totfact> 0.12673599E+03</totfact>
</mgrwt>
</event>
<event>
 5    0  0.3040647E+000  0.2530738E+03  0.7546771E-02  0.1111378E+00
         21   -1    0    0  503  502  0.00000000000E+00  0.00000000000E+00  0.90560036603E+02  0.90560036603E+02  0.00000000000E+00 0. -1.
          2   -1    0    0  502    0 -0.00000000000E+00 -0.00000000000E+00 -0.90402334259E+03  0.90402334259E+03  0.00000000000E+00 0. -1.
         25    1    1    2    0    0  0.20834266793E+03 -0.60711914550E+02 -0.47574189558E+03  0.53763180250E+03  0.12500000000E+03 0.  0.
         21    1    1    2  503  501 -0.91919812814E+01 -0.45880525406E+02  0.43886721206E+01  0.46997612433E+02  0.00000000000E+00 0.  1.
          2    1    1    2  501    0 -0.19915068665E+03  0.10659243996E+03 -0.34211008253E+03  0.40995396426E+03  0.00000000000E+00 0. -1.
<mgrwt>
<rscale>  4 0.25307382E+03</rscale>
<asrwt>0</asrwt>
<pdfrwt beam="1">  1       21 0.13932314E-01 0.25307382E+03</pdfrwt>
<pdfrwt beam="2">  1        2 0.13908051E+00 0.25307382E+03</pdfrwt>
<totfact> 0.16959464E+04</totfact>
</mgrwt>
</event>
<event>
 5    0  0.3040647E+000  0.2601769E+03  0.7546771E-02  0.1107037E+00
         21   -1    0    0  501  502  0.00000000000E+00  0.00000000000E+00  0.89458453398E+03  0.89458453398E+03  0.00000000000E+00 0.  1.
         -3   -1    0    0    0  501 -0.00000000000E+00 -0.00000000000E+00 -0.25385551963E+03  0.25385551963E+03  0.00000000000E+00 0.  1.
         25    1    1    2    0    0  0.85787226411E+02  0.22313385022E+03 -0.72697987419E+02  0.27938890583E+03  0.12500000000E+03 0.  0.
         21    1    1    2  503  502 -0.10386239435E+03 -0.20216803867E+03  0.77173346113E+03  0.80450720808E+03  0.00000000000E+00 0.  1.
         -3    1    1    2    0  503  0.18075167938E+02 -0.20965811552E+02 -0.58306459358E+02  0.64543939707E+02  0.00000000000E+00 0.  1.
<mgrwt>
<rscale>  4 0.26017692E+03</rscale>
<asrwt>0</asrwt>
<pdfrwt beam="1">  1       21 0.13762839E+00 0.26017692E+03</pdfrwt>
<pdfrwt beam="2">  1       -3 0.39054696E-01 0.26017692E+03</pdfrwt>
<totfact> 0.11688520E+02</totfact>
</mgrwt>
</event>
<event>
 5    0  0.3040647E+000  0.1830518E+03  0.7546771E-02  0.1164882E+00
          2   -1    0    0  502    0 -0.00000000000E+00  0.00000000000E+00  0.72784999423E+02  0.72784999423E+02  0.00000000000E+00 0.  1.
         21   -1    0    0  503  502  0.00000000000E+00 -0.00000000000E+00 -0.27046826626E+04  0.27046826626E+04  0.00000000000E+00 0.  1.
         25    1    1    2    0    0  0.22558874046E+03  0.71799646797E+02 -0.36680449382E+03  0.45411012518E+03  0.12500000000E+03 0.  0.
         21    1    1    2  503  501 -0.12891863811E+03 -0.11352143119E+02 -0.21728537974E+04  0.21767045071E+04  0.00000000000E+00 0.  1.
          2    1    1    2  501    0 -0.96670102351E+02 -0.60447503678E+02 -0.92239371940E+02  0.14665302972E+03  0.00000000000E+00 0.  1.
<mgrwt>
<rscale>  4 0.18305182E+03</rscale>
<asrwt>0</asrwt>
<pdfrwt beam="1">  1       21 0.41610491E+00 0.18305182E+03</pdfrwt>
<pdfrwt beam="2">  1        2 0.11197695E-01 0.18305182E+03</pdfrwt>
<totfact> 0.47236401E+01</totfact>
</mgrwt>
</event>
<event>
 5    0  0.3040647E+000  0.2779589E+03  0.7546771E-02  0.1096809E+00
         21   -1    0    0  503  502  0.00000000000E+00  0.00000000000E+00  0.31391448418E+02  0.31391448418E+02  0.00000000000E+00 0. -1.
          2   -1    0    0  502    0 -0.00000000000E+00 -0.00000000000E+00 -0.25494413448E+04  0.25494413448E+04  0.00000000000E+00 0. -1.
         25    1    1    2    0    0  0.16498255602E+03  0.18551788329E+03 -0.17355070987E+04  0.17576251075E+04  0.12500000000E+03 0.  0.
         21    1    1    2  503  501 -0.18685142133E+02 -0.15099896717E+02 -0.33550016179E+02  0.41264330881E+02  0.00000000000E+00 0. -1.
          2    1    1    2  501    0 -0.14629741389E+03 -0.17041798658E+03 -0.74899278151E+03  0.78194335486E+03  0.00000000000E+00 0. -1.
<mgrwt>
<rscale>  4 0.27795886E+03</rscale>
<asrwt>0</asrwt>
<pdfrwt beam="1">  1       21 0.48294523E-02 0.27795886E+03</pdfrwt>
<pdfrwt beam="2">  1        2 0.39222185E+00 0.27795886E+03</pdfrwt>
<totfact> 0.13611411E+04</totfact>
</mgrwt>
</event>
<event>
 5    0  0.3040647E+000  0.4533306E+03  0.7546771E-02  0.1026733E+00
          2   -1    0    0  502    0 -0.00000000000E+00  0.00000000000E+00  0.21000193839E+04  0.21000193839E+04  0.00000000000E+00 0. -1.
         21   -1    0    0  503  502  0.00000000000E+00 -0.00000000000E+00 -0.52222515369E+03  0.52222515369E+03  0.00000000000E+00 0. -1.
         25    1    1    2    0    0 -0.39005499372E+03  0.94679208195E+02 -0.39268627912E+03  0.57526912346E+03  0.12500000000E+03 0.  0.
         21    1    1    2  503  501 -0.30241805534E+02  0.26765805092E+02  0.14884781171E+02  0.43041048253E+02  0.00000000000E+00 0. -1.
          2    1    1    2  501    0  0.42029679926E+03 -0.12144501329E+03  0.19555957282E+04  0.20039343659E+04  0.00000000000E+00 0. -1.
<mgrwt>
<rscale>  4 0.45333061E+03</rscale>
<asrwt>0</asrwt>
<pdfrwt beam="1">  1       21 0.80342333E-01 0.45333061E+03</pdfrwt>
<pdfrwt beam="2">  1        2 0.32307990E+00 0.45333061E+03</pdfrwt>
<totfact> 0.98870149E+01</totfact>
</mgrwt>
</event>
<event>
 5    0  0.3040647E+000  0.5959566E+03  0.7546771E-02  0.9913830E-01
          3   -1    0    0  502    0 -0.00000000000E+00  0.00000000000E+00  0.80075263034E+03  0.80075263034E+03  0.00000000000E+00 0.  1.
         21   -1    0    0  503  502  0.00000000000E+00 -0.00000000000E+00 -0.49408055493E+03  0.49408055493E+03  0.00000000000E+00 0. -1.
         25    1    1    2    0    0  0.42122795286E+03 -0.37749094086E+03  0.12326231508E+03  0.59224234653E+03  0.12500000000E+03 0.  0.
         21    1    1    2  503  501  0.64233652562E+02  0.24982231405E+02 -0.15289937190E+02  0.70596431827E+02  0.00000000000E+00 0.  1.
          3    1    1    2  501    0 -0.48546160542E+03  0.35250870946E+03  0.19869969752E+03  0.63199440692E+03  0.00000000000E+00 0.  1.
<mgrwt>
<rscale>  4 0.59595661E+03</rscale>
<asrwt>0</asrwt>
<pdfrwt beam="1">  1       21 0.76012393E-01 0.59595661E+03</pdfrwt>
<pdfrwt beam="2">  1        3 0.12319271E+00 0.59595661E+03</pdfrwt>
<totfact> 0.38049785E+01</totfact>
</mgrwt>
</event>
<event>
 5    0  0.3040647E+000  0.2351116E+03  0.7546771E-02  0.1123093E+00
          1   -1    0    0  502    0 -0.00000000000E+00  0.00000000000E+00  0.26025296538E+03  0.26025296538E+03  0.00000000000E+00 0.  1.
         21   -1    0    0  503  502  0.00000000000E+00 -0.00000000000E+00 -0.86035578097E+03  0.86035578097E+03  0.00000000000E+00 0.  1.
         25    1    1    2    0    0  0.19883591300E+03 -0.82063197801E+02  0.10618007899E+02  0.24901371614E+03  0.12500000000E+03 0.  0.
         21    1    1    2  503  501 -0.11014702815E+02  0.46090239493E+02 -0.66977509717E+03  0.67144941332E+03  0.00000000000E+00 0.  1.
          1    1    1    2  501    0 -0.18782121018E+03  0.35972958309E+02  0.59054273686E+02  0.20014561690E+03  0.00000000000E+00 0.  1.
<mgrwt>
<rscale>  4 0.23511165E+03</rscale>
<asrwt>0</asrwt>
<pdfrwt beam="1">  1       21 0.13236243E+00 0.23511165E+03</pdfrwt>
<pdfrwt beam="2">  1        1 0.40038918E-01 0.23511165E+03</pdfrwt>
<totfact> 0.46076720E+02</totfact>
</mgrwt>
</event>
<event>
 5    0  0.3040647E+000  0.2682095E+03  0.7546771E-02  0.1102309E+00
         21   -1    0    0  503  502  0.00000000000E+00  0.00000000000E+00  0.10554957568E+03  0.10554957568E+03  0.00000000000E+00 0. -1.
          3   -1    0    0  502    0 -0.00000000000E+00 -0.00000000000E+00 -0.12633524220E+04  0.12633524220E+04  0.00000000000E+00 0.  1.
         25    1    1    2    0    0 -0.23558953007E+03  0.52191659006E+02 -0.13986761614E+03  0.30563760566E+03  0.12500000000E+03 0.  0.
         21    1    1    2  503  501  0.35466439657E+02  0.59291502361E+02 -0.14268344093E+03  0.15853048574E+03  0.00000000000E+00 0.  1.
          3    1    1    2  501    0  0.20012309041E+03 -0.11148316137E+03 -0.87525178922E+03  0.90473390625E+03  0.00000000000E+00 0.  1.
<mgrwt>
<rscale>  4 0.26820954E+03</rscale>
<asrwt>0</asrwt>
<pdfrwt beam="1">  1       21 0.16238395E-01 0.26820954E+03</pdfrwt>
<pdfrwt beam="2">  1        3 0.19436193E+00 0.26820954E+03</pdfrwt>
<totfact> 0.28801149E+02</totfact>
</mgrwt>
</event>
<event>
 5    0  0.3040647E+000  0.2691005E+03  0.7546771E-02  0.1101796E+00
         21   -1    0    0  503  502  0.00000000000E+00  0.00000000000E+00  0.50219985492E+03  0.50219985492E+03  0.00000000000E+00 0.  1.
          2   -1    0    0  502    0 -0.00000000000E+00 -0.00000000000E+00 -0.82927292326E+03  0.82927292326E+03  0.00000000000E+00 0. -1.
         25    1    1    2    0    0 -0.12910035372E+03  0.25399806486E+03 -0.46232377528E+03  0.55727030378E+03  0.12500000000E+03 0.  0.
         21    1    1    2  503  501 -0.58479072968E+01 -0.96322458539E+02  0.41488901661E+03  0.42596374275E+03  0.00000000000E+00 0.  1.
          2    1    1    2  501    0  0.13494826102E+03 -0.15767560632E+03 -0.27963830967E+03  0.34823873164E+03  0.00000000000E+00 0. -1.
<mgrwt>
<rscale>  4 0.26910051E+03</rscale>
<asrwt>0</asrwt>
<pdfrwt beam="1">  1       21 0.77261516E-01 0.26910051E+03</pdfrwt>
<pdfrwt beam="2">  1        2 0.12758045E+00 0.26910051E+03</pdfrwt>
<totfact> 0.61135146E+02</totfact>
</mgrwt>
</event>
<event>
 5    0  0.3040647E+000  0.2825780E+03  0.7546771E-02  0.1094289E+00
          2   -1    0    0  502    0 -0.00000000000E+00  0.00000000000E+00  0.19208314944E+04  0.19208314944E+04  0.00000000000E+00 0.  1.
         21   -1    0    0  503  502  0.00000000000E+00 -0.00000000000E+00 -0.15961616528E+03  0.15961616528E+03  0.00000000000E+00 0. -1.
         25    1    1    2    0    0 -0.20524416831E+03 -0.10851838928E+03  0.13900654086E+03  0.29807587598E+03  0.12500000000E+03 0.  0.
         21    1    1    2  503  501 -0.26971255918E+02  0.66832770102E+00 -0.67855886644E+02  0.73022713315E+02  0.00000000000E+00 0. -1.
          2    1    1    2  501    0  0.23221542423E+03  0.10785006158E+03  0.16900646749E+04  0.17093490704E+04  0.00000000000E+00 0.  1.
<mgrwt>
<rscale>  4 0.28257802E+03</rscale>
<asrwt>0</asrwt>
<pdfrwt beam="1">  1       21 0.24556335E-01 0.28257802E+03</pdfrwt>
<pdfrwt beam="2">  1        2 0.29551252E+00 0.28257802E+03</pdfrwt>
<totfact> 0.15820104E+03</totfact>
</mgrwt>
</event>
<event>
 5    0  0.3040647E+000  0.2667376E+03  0.7546771E-02  0.1103161E+00
          2   -1    0    0  502    0 -0.00000000000E+00  0.00000000000E+00  0.18667955126E+03  0.18667955126E+03  0.00000000000E+00 0. -1.
         21   -1    0    0  503  502  0.00000000000E+00 -0.00000000000E+00 -0.50059566064E+03  0.50059566064E+03  0.00000000000E+00 0.  1.
         25    1    1    2    0    0 -0.23408739431E+03  0.16636648991E+02 -0.13056222104E+03  0.29621812880E+03  0.12500000000E+03 0.  0.
         21    1    1    2  503  501  0.41286255105E+01  0.44463804612E+02 -0.14288772412E+03  0.14970296314E+03  0.00000000000E+00 0.  1.
          2    1    1    2  501    0  0.22995876880E+03 -0.61100453603E+02 -0.40466164222E+02  0.24135411997E+03  0.00000000000E+00 0. -1.
<mgrwt>
<rscale>  4 0.26673755E+03</rscale>
<asrwt>0</asrwt>
<pdfrwt beam="1">  1       21 0.77014716E-01 0.26673755E+03</pdfrwt>
<pdfrwt beam="2">  1        2 0.28719931E-01 0.26673755E+03</pdfrwt>
<totfact> 0.33160902E+03</totfact>
</mgrwt>
</event>
<event>
 5    0  0.3040647E+000  0.2374871E+03  0.7546771E-02  0.1121478E+00
         21   -1    0    0  503  502  0.00000000000E+00  0.00000000000E+00  0.18967017042E+03  0.18967017042E+03  0.00000000000E+00 0.  1.
          1   -1    0    0  502    0 -0.00000000000E+00 -0.00000000000E+00 -0.13502033136E+04  0.13502033136E+04  0.00000000000E+00 0.  1.
         25    1    1    2    0    0  0.21184446701E+03 -0.96629973695E+02  0.32196191964E+02  0.26622739302E+03  0.12500000000E+03 0.  0.
         21    1    1    2  503  501 -0.31529735265E+02  0.95611208599E+01  0.23865695800E+02  0.40683051434E+02  0.00000000000E+00 0. -1.
          1    1    1    2  501    0 -0.18031473174E+03  0.87068852835E+02 -0.12165950309E+04  0.12329630395E+04  0.00000000000E+00 0.  1.
<mgrwt>
<rscale>  4 0.23748710E+03</rscale>
<asrwt>0</asrwt>
<pdfrwt beam="1">  1       21 0.29180027E-01 0.23748710E+03</pdfrwt>
<pdfrwt beam="2">  1        1 0.20772358E+00 0.23748710E+03</pdfrwt>
<totfact> 0.11211186E+03</totfact>
</mgrwt>
</event>
<event>
 5    0  0.3040647E+000  0.3069237E+03  0.7546771E-02  0.1081830E+00
          1   -1    0    0  502    0 -0.00000000000E+00  0.00000000000E+00  0.79879237624E+03  0.79879237624E+03  0.00000000000E+00 0. -1.
         21   -1    0    0  503  502  0.00000000000E+00 -0.00000000000E+00 -0.57793829006E+03  0.57793829006E+03  0.00000000000E+00 0.  1.
         25    1    1    2    0    0  0.14004970780E+03 -0.19091059322E+03 -0.23366087706E+03  0.35536344878E+03  0.12500000000E+03 0.  0.
         21    1    1    2  503  501  0.55622032915E+02 -0.15685541031E+02 -0.25261026092E+03  0.25913662548E+03  0.00000000000E+00 0.  1.
          1    1    1    2  501    0 -0.19567174071E+03  0.20659613426E+03  0.70712522416E+03  0.76223059204E+03  0.00000000000E+00 0. -1.
<mgrwt>
<rscale>  4 0.30692373E+03</rscale>
<asrwt>0</asrwt>
<pdfrwt beam="1">  1       21 0.88913583E-01 0.30692373E+03</pdfrwt>
<pdfrwt beam="2">  1        1 0.12289114E+00 0.30692373E+03</pdfrwt>
<totfact> 0.26087980E+02</totfact>
</mgrwt>
</event>
<event>
 5    0  0.3040647E+000  0.1987756E+03  0.7546771E-02  0.1150776E+00
         21   -1    0    0  501  502  0.00000000000E+00  0.00000000000E+00  0.80630036355E+02  0.80630036355E+02  0.00000000000E+00 0.  1.
         -4   -1    0    0    0  501 -0.00000000000E+00 -0.00000000000E+00 -0.13737604324E+04  0.13737604324E+04  0.00000000000E+00 0.  1.
         25    1    1    2    0    0  0.18124832267E+03 -0.90507188930E+02 -0.14468183624E+03  0.27856837483E+03  0.12500000000E+03 0.  0.
         21    1    1    2  503  502 -0.45048897876E+02  0.25803722826E+02 -0.71452215470E+02  0.88321313436E+02  0.00000000000E+00 0. -1.
         -4    1    1    2    0  503 -0.13619942480E+03  0.64703466104E+02 -0.10769963443E+04  0.10875007805E+04  0.00000000000E+00 0.  1.
<mgrwt>
<rscale>  4 0.19877562E+03</rscale>
<asrwt>0</asrwt>
<pdfrwt beam="1">  1       21 0.12404620E-01 0.19877562E+03</pdfrwt>
<pdfrwt beam="2">  1       -4 0.21134777E+00 0.19877562E+03</pdfrwt>
<totfact> 0.28681787E+02</totfact>
</mgrwt>
</event>
<event>
 5    0  0.3040647E+000  0.3115196E+03  0.7546771E-02  0.1079620E+00
         21   -1    0    0  503  502  0.00000000000E+00  0.00000000000E+00  0.12404043915E+03  0.12404043915E+03  0.00000000000E+00 0.  1.
          2   -1    0    0  502    0 -0.00000000000E+00 -0.00000000000E+00 -0.19427912756E+04  0.19427912756E+04  0.00000000000E+00 0. -1.
         25    1    1    2    0    0  0.13379285709E+03  0.25968782121E+03 -0.17693298801E+03  0.36368746932E+03  0.12500000000E+03 0.  0.
         21    1    1    2  503  501 -0.34398723813E+02  0.70885771054E+01  0.16892484802E+01  0.35162105821E+02  0.00000000000E+00 0.  1.
          2    1    1    2  501    0 -0.99394133279E+02 -0.26677639831E+03 -0.16435070969E+04  0.16679821396E+04  0.00000000000E+00 0. -1.
<mgrwt>
<rscale>  4 0.31151965E+03</rscale>
<asrwt>0</asrwt>
<pdfrwt beam="1">  1       21 0.19083144E-01 0.31151965E+03</pdfrwt>
<pdfrwt beam="2">  1        2 0.29889097E+00 0.31151965E+03</pdfrwt>
<totfact> 0.24591177E+03</totfact>
</mgrwt>
</event>
<event>
 5    0  0.3040647E+000  0.2743123E+03  0.7546771E-02  0.1098837E+00
          2   -1    0    0  502    0 -0.00000000000E+00  0.00000000000E+00  0.20250479560E+04  0.20250479560E+04  0.00000000000E+00 0.  1.
         21   -1    0    0  503  502  0.00000000000E+00 -0.00000000000E+00 -0.87101253220E+02  0.87101253220E+02  0.00000000000E+00 0.  1.
         25    1    1    2    0    0  0.33274021523E+03  0.43177286097E+02  0.72634195042E+03  0.80980118412E+03  0.12500000000E+03 0.  0.
         21    1    1    2  503  501 -0.13349884437E+03  0.57262528153E+02  0.12071412236E+03  0.18887254410E+03  0.00000000000E+00 0.  1.
          2    1    1    2  501    0 -0.19924137086E+03 -0.10043981425E+03  0.10908906300E+04  0.11134754810E+04  0.00000000000E+00 0.  1.
<mgrwt>
<rscale>  4 0.27431230E+03</rscale>
<asrwt>0</asrwt>
<pdfrwt beam="1">  1       21 0.13400194E-01 0.27431230E+03</pdfrwt>
<pdfrwt beam="2">  1        2 0.31154581E+00 0.27431230E+03</pdfrwt>
<totfact> 0.43372932E+03</totfact>
</mgrwt>
</event>
<event>
 5    0  0.3040647E+000  0.2828798E+03  0.7546771E-02  0.1094126E+00
         21   -1    0    0  503  502  0.00000000000E+00  0.00000000000E+00  0.26357400372E+03  0.26357400372E+03  0.00000000000E+00 0. -1.
          2   -1    0    0  502    0 -0.00000000000E+00 -0.00000000000E+00 -0.10955020379E+04  0.10955020379E+04  0.00000000000E+00 0.  1.
         25    1    1    2    0    0 -0.22490295280E+02 -0.22555302309E+03  0.14380139470E+03  0.29611453987E+03  0.12500000000E+03 0.  0.
         21    1    1    2  503  501 -0.23915897433E+01 -0.28988429249E+02  0.19746667689E+02  0.35156501769E+02  0.00000000000E+00 0.  1.
          2    1    1    2  501    0  0.24881885023E+02  0.25454145234E+03 -0.99547609660E+03  0.10278050000E+04  0.00000000000E+00 0.  1.
<mgrwt>
<rscale>  4 0.28287985E+03</rscale>
<asrwt>0</asrwt>
<pdfrwt beam="1">  1       21 0.40549847E-01 0.28287985E+03</pdfrwt>
<pdfrwt beam="2">  1        2 0.16853877E+00 0.28287985E+03</pdfrwt>
<totfact> 0.16476534E+03</totfact>
</mgrwt>
</event>
<event>
 5    0  0.3040647E+000  0.2936802E+03  0.7546771E-02  0.1088443E+00
          2   -1    0    0  502    0 -0.00000000000E+00  0.00000000000E+00  0.23565278989E+04  0.23565278989E+04  0.00000000000E+00 0. -1.
         21   -1    0    0  503  502  0.00000000000E+00 -0.00000000000E+00 -0.23289235177E+03  0.23289235177E+03  0.00000000000E+00 0.  1.
         25    1    1    2    0    0  0.56981241507E+02 -0.23298119684E+03  0.21019295815E+03  0.34253931106E+03  0.12500000000E+03 0.  0.
         21    1    1    2  503  501 -0.90705275902E+02 -0.36047418743E+02 -0.14272812394E+03  0.17291090434E+03  0.00000000000E+00 0.  1.
          2    1    1    2  501    0  0.33724034395E+02  0.26902861559E+03  0.20561707129E+04  0.20739700352E+04  0.00000000000E+00 0. -1.
<mgrwt>
<rscale>  4 0.29368018E+03</rscale>
<asrwt>0</asrwt>
<pdfrwt beam="1">  1       21 0.35829594E-01 0.29368018E+03</pdfrwt>
<pdfrwt beam="2">  1        2 0.36254274E+00 0.29368018E+03</pdfrwt>
<totfact> 0.43906859E+02</totfact>
</mgrwt>
</event>
<event>
 5    0  0.3040647E+000  0.1854496E+03  0.7546771E-02  0.1162631E+00
         21   -1    0    0  503  502  0.00000000000E+00  0.00000000000E+00  0.99427171895E+02  0.99427171895E+02  0.00000000000E+00 0. -1.
          2   -1    0    0  502    0 -0.00000000000E+00 -0.00000000000E+00 -0.11532722775E+04  0.11532722775E+04  0.00000000000E+00 0.  1.
         25    1    1    2    0    0 -0.38157105518E+02  0.20674784634E+03 -0.16178884545E+03  0.29325972648E+03  0.12500000000E+03 0.  0.
         21    1    1    2  503  501 -0.27091710064E+02 -0.91935720480E+02 -0.51950891867E+02  0.10901849669E+03  0.00000000000E+00 0. -1.
          2    1    1    2  501    0  0.65248815582E+02 -0.11481212586E+03 -0.84010536825E+03  0.85042122618E+03  0.00000000000E+00 0.  1.
<mgrwt>
<rscale>  4 0.18544964E+03</rscale>
<asrwt>0</asrwt>
<pdfrwt beam="1">  1       21 0.15296487E-01 0.18544964E+03</pdfrwt>
<pdfrwt beam="2">  1        2 0.17742651E+00 0.18544964E+03</pdfrwt>
<totfact> 0.10297540E+04</totfact>
</mgrwt>
</event>
<event>
 5    0  0.3040647E+000  0.2605550E+03  0.7546771E-02  0.1106810E+00
         21   -1    0    0  503  502  0.00000000000E+00  0.00000000000E+00  0.36874232959E+03  0.36874232959E+03  0.00000000000E+00 0.  1.
          2   -1    0    0  502    0 -0.00000000000E+00 -0.00000000000E+00 -0.18333127882E+04  0.18333127882E+04  0.00000000000E+00 0.  1.
         25    1    1    2    0    0 -0.11680953291E+02  0.24796314277E+03  0.83388995235E+02  0.29017389505E+03  0.12500000000E+03 0.  0.
         21    1    1    2  503  501 -0.20024827689E+02 -0.22314823378E+02  0.17316346356E+03  0.17573995043E+03  0.00000000000E+00 0.  1.
          2    1    1    2  501    0  0.31705780979E+02 -0.22564831939E+03 -0.17211229174E+04  0.17361412723E+04  0.00000000000E+00 0.  1.
<mgrwt>
<rscale>  4 0.26055500E+03</rscale>
<asrwt>0</asrwt>
<pdfrwt beam="1">  1       21 0.56729588E-01 0.26055500E+03</pdfrwt>
<pdfrwt beam="2">  1        2 0.28204812E+00 0.26055500E+03</pdfrwt>
<totfact> 0.32702061E+02</totfact>
</mgrwt>
</event>
<event>
 5    0  0.3040647E+000  0.2414264E+03  0.7546771E-02  0.1118846E+00
          1   -1    0    0  502    0 -0.00000000000E+00  0.00000000000E+00  0.60397867050E+03  0.60397867050E+03  0.00000000000E+00 0.  1.
         21   -1    0    0  503  502  0.00000000000E+00 -0.00000000000E+00 -0.30100790823E+03  0.30100790823E+03  0.00000000000E+00 0.  1.
         25    1    1    2    0    0 -0.21164523376E+03  0.68063908975E+02 -0.10082820291E+03  0.27425850430E+03  0.12500000000E+03 0.  0.
         21    1    1    2  503  501  0.15061988868E+03 -0.12940638348E+03 -0.18704995202E+02  0.19945485654E+03  0.00000000000E+00 0.  1.
          1    1    1    2  501    0  0.61025345087E+02  0.61342474505E+02  0.42250396039E+03  0.43127321788E+03  0.00000000000E+00 0.  1.
<mgrwt>
<rscale>  4 0.24142639E+03</rscale>
<asrwt>0</asrwt>
<pdfrwt beam="1">  1       21 0.46308909E-01 0.24142639E+03</pdfrwt>
<pdfrwt beam="2">  1        1 0.92919795E-01 0.24142639E+03</pdfrwt>
<totfact> 0.16920301E+03</totfact>
</mgrwt>
</event>
<event>
 5    0  0.3040647E+000  0.2401040E+03  0.7546771E-02  0.1119724E+00
          3   -1    0    0  502    0 -0.00000000000E+00  0.00000000000E+00  0.24731866714E+03  0.24731866714E+03  0.00000000000E+00 0.  1.
         21   -1    0    0  503  502  0.00000000000E+00 -0.00000000000E+00 -0.25519033779E+03  0.25519033779E+03  0.00000000000E+00 0. -1.
         25    1    1    2    0    0  0.14113842072E+03 -0.14500335635E+03 -0.39944363917E+02  0.24117748519E+03  0.12500000000E+03 0.  0.
         21    1    1    2  503  501 -0.12616406470E+02 -0.16957668609E+02 -0.37613126710E+02  0.43144913232E+02  0.00000000000E+00 0. -1.
          3    1    1    2  501    0 -0.12852201425E+03  0.16196102496E+03  0.69685819973E+02  0.21818660650E+03  0.00000000000E+00 0.  1.
<mgrwt>
<rscale>  4 0.24010401E+03</rscale>
<asrwt>0</asrwt>
<pdfrwt beam="1">  1       21 0.39260052E-01 0.24010401E+03</pdfrwt>
<pdfrwt beam="2">  1        3 0.38049026E-01 0.24010401E+03</pdfrwt>
<totfact> 0.21079879E+03</totfact>
</mgrwt>
</event>
<event>
 5    0  0.3040647E+000  0.2382532E+03  0.7546771E-02  0.1120962E+00
          1   -1    0    0  502    0 -0.00000000000E+00  0.00000000000E+00  0.54470281731E+03  0.54470281731E+03  0.00000000000E+00 0. -1.
         21   -1    0    0  503  502  0.00000000000E+00 -0.00000000000E+00 -0.39932044535E+03  0.39932044535E+03  0.00000000000E+00 0. -1.
         25    1    1    2    0    0  0.23901086524E+02  0.20395148323E+03  0.41551343268E+03  0.48004570843E+03  0.12500000000E+03 0.  0.
         21    1    1    2  503  501 -0.17003559953E+03 -0.12251268002E+03 -0.16030205393E+03  0.26385263002E+03  0.00000000000E+00 0. -1.
          1    1    1    2  501    0  0.14613451301E+03 -0.81438803209E+02 -0.10982900678E+03  0.20012492421E+03  0.00000000000E+00 0. -1.
<mgrwt>
<rscale>  4 0.23825323E+03</rscale>
<asrwt>0</asrwt>
<pdfrwt beam="1">  1       21 0.61433915E-01 0.23825323E+03</pdfrwt>
<pdfrwt beam="2">  1        1 0.83800433E-01 0.23825323E+03</pdfrwt>
<totfact> 0.10728164E+03</totfact>
</mgrwt>
</event>
<event>
 5    0  0.3040647E+000  0.2716199E+03  0.7546771E-02  0.1100356E+00
          2   -1    0    0  502    0 -0.00000000000E+00  0.00000000000E+00  0.93461890674E+03  0.93461890674E+03  0.00000000000E+00 0.  1.
         21   -1    0    0  503  502  0.00000000000E+00 -0.00000000000E+00 -0.44062492221E+03  0.44062492221E+03  0.00000000000E+00 0.  1.
         25    1    1    2    0    0  0.23141266524E+03  0.36218481201E+01  0.52493773949E+03  0.58715378715E+03  0.12500000000E+03 0.  0.
         21    1    1    2  503  501  0.22964691488E+02  0.55342761394E+01 -0.36630665991E+03  0.36706753379E+03  0.00000000000E+00 0.  1.
          2    1    1    2  501    0 -0.25437735673E+03 -0.91561242595E+01  0.33536290495E+03  0.42102250800E+03  0.00000000000E+00 0.  1.
<mgrwt>
<rscale>  4 0.27161994E+03</rscale>
<asrwt>0</asrwt>
<pdfrwt beam="1">  1       21 0.67788450E-01 0.27161994E+03</pdfrwt>
<pdfrwt beam="2">  1        2 0.14378752E+00 0.27161994E+03</pdfrwt>
<totfact> 0.69785082E+02</totfact>
</mgrwt>
</event>
<event>
 5    0  0.3040647E+000  0.2984187E+03  0.7546771E-02  0.1086034E+00
         21   -1    0    0  503  502  0.00000000000E+00  0.00000000000E+00  0.74199012267E+03  0.74199012267E+03  0.00000000000E+00 0. -1.
          2   -1    0    0  502    0 -0.00000000000E+00 -0.00000000000E+00 -0.15557838516E+04  0.15557838516E+04  0.00000000000E+00 0. -1.
         25    1    1    2    0    0 -0.71835827101E+02 -0.25480543399E+03 -0.83144336056E+03  0.88148128572E+03  0.12500000000E+03 0.  0.
         21    1    1    2  503  501 -0.20365210070E+03  0.76533703338E+02  0.66002700505E+03  0.69495843995E+03  0.00000000000E+00 0. -1.
          2    1    1    2  501    0  0.27548792780E+03  0.17827173066E+03 -0.64237737339E+03  0.72133424857E+03  0.00000000000E+00 0. -1.
<mgrwt>
<rscale>  4 0.29841872E+03</rscale>
<asrwt>0</asrwt>
<pdfrwt beam="1">  1       21 0.11415233E+00 0.29841872E+03</pdfrwt>
<pdfrwt beam="2">  1        2 0.23935136E+00 0.29841872E+03</pdfrwt>
<totfact> 0.90021391E+01</totfact>
</mgrwt>
</event>
<event>
 5    0  0.3040647E+000  0.2110331E+03  0.7546771E-02  0.1140750E+00
         21   -1    0    0  501  502  0.00000000000E+00  0.00000000000E+00  0.27831738314E+04  0.27831738314E+04  0.00000000000E+00 0. -1.
         -4   -1    0    0    0  501 -0.00000000000E+00 -0.00000000000E+00 -0.79838884474E+02  0.79838884474E+02  0.00000000000E+00 0. -1.
         25    1    1    2    0    0 -0.21113227973E+03  0.93510526473E+02  0.16137493896E+04  0.16349719113E+04  0.12500000000E+03 0.  0.
         21    1    1    2  503  502  0.63748286269E+02 -0.14197755168E+03  0.10584097210E+04  0.10697909173E+04  0.00000000000E+00 0.  1.
         -4    1    1    2    0  503  0.14738399347E+03  0.48467025211E+02  0.31175836266E+02  0.15824988730E+03  0.00000000000E+00 0. -1.
<mgrwt>
<rscale>  4 0.21103310E+03</rscale>
<asrwt>0</asrwt>
<pdfrwt beam="1">  1       21 0.42818051E+00 0.21103310E+03</pdfrwt>
<pdfrwt beam="2">  1       -4 0.12282907E-01 0.21103310E+03</pdfrwt>
<totfact> 0.12709356E+01</totfact>
</mgrwt>
</event>
<event>
 5    0  0.3040647E+000  0.2460394E+03  0.7546771E-02  0.1115834E+00
         21   -1    0    0  501  502  0.00000000000E+00  0.00000000000E+00  0.10663614736E+04  0.10663614736E+04  0.00000000000E+00 0.  1.
         -2   -1    0    0    0  501 -0.00000000000E+00 -0.00000000000E+00 -0.10835165539E+03  0.10835165539E+03  0.00000000000E+00 0. -1.
         25    1    1    2    0    0 -0.14845192454E+03  0.15123631328E+03  0.91964422447E+03  0.95198786545E+03  0.12500000000E+03 0.  0.
         21    1    1    2  503  502  0.49332399664E+02 -0.55540062944E+02  0.41147108835E+02  0.84920367486E+02  0.00000000000E+00 0.  1.
         -2    1    1    2    0  503  0.99119524873E+02 -0.95696250336E+02 -0.27815151309E+01  0.13780489602E+03  0.00000000000E+00 0. -1.
<mgrwt>
<rscale>  4 0.24603942E+03</rscale>
<asrwt>0</asrwt>
<pdfrwt beam="1">  1       21 0.16405560E+00 0.24603942E+03</pdfrwt>
<pdfrwt beam="2">  1       -2 0.16669486E-01 0.24603942E+03</pdfrwt>
<totfact> 0.51992237E+02</totfact>
</mgrwt>
</event>
<event>
 5    0  0.3040647E+000  0.2516421E+03  0.7546771E-02  0.1112271E+00
          1   -1    0    0  502    0 -0.00000000000E+00  0.00000000000E+00  0.10826348048E+04  0.10826348048E+04  0.00000000000E+00 0. -1.
         21   -1    0    0  503  502  0.00000000000E+00 -0.00000000000E+00 -0.49602811229E+03  0.49602811229E+03  0.00000000000E+00 0. -1.
         25    1    1    2    0    0 -0.27465209197E+03 -0.64593876858E+02  0.46089560492E+03  0.55466737707E+03  0.12500000000E+03 0.  0.
         21    1    1    2  503  501  0.79546581180E+02  0.45249368833E+02 -0.42743913417E+03  0.43712627166E+03  0.00000000000E+00 0. -1.
          1    1    1    2  501    0  0.19510551078E+03  0.19344508024E+02  0.55315022179E+03  0.58686926841E+03  0.00000000000E+00 0. -1.
<mgrwt>
<rscale>  4 0.25164211E+03</rscale>
<asrwt>0</asrwt>
<pdfrwt beam="1">  1       21 0.76312017E-01 0.25164211E+03</pdfrwt>
<pdfrwt beam="2">  1        1 0.16655920E+00 0.25164211E+03</pdfrwt>
<totfact> 0.22972842E+02</totfact>
</mgrwt>
</event>
<event>
 5    0  0.3040647E+000  0.2494070E+03  0.7546771E-02  0.1113680E+00
         21   -1    0    0  503  502  0.00000000000E+00  0.00000000000E+00  0.13603579339E+03  0.13603579339E+03  0.00000000000E+00 0.  1.
          1   -1    0    0  502    0 -0.00000000000E+00 -0.00000000000E+00 -0.15198983522E+04  0.15198983522E+04  0.00000000000E+00 0.  1.
         25    1    1    2    0    0  0.19654588216E+03  0.86852310755E+02 -0.66674383176E+02  0.25737925528E+03  0.12500000000E+03 0.  0.
         21    1    1    2  503  501  0.12060281512E+02 -0.30389739791E+02  0.23688056014E+02  0.40374629069E+02  0.00000000000E+00 0. -1.
          1    1    1    2  501    0 -0.20860616367E+03 -0.56462570964E+02 -0.13408762316E+04  0.13581802612E+04  0.00000000000E+00 0.  1.
<mgrwt>
<rscale>  4 0.24940701E+03</rscale>
<asrwt>0</asrwt>
<pdfrwt beam="1">  1       21 0.20928584E-01 0.24940701E+03</pdfrwt>
<pdfrwt beam="2">  1        1 0.23383051E+00 0.24940701E+03</pdfrwt>
<totfact> 0.16250796E+03</totfact>
</mgrwt>
</event>
<event>
 5    0  0.3040647E+000  0.3881403E+03  0.7546771E-02  0.1047965E+00
         21   -1    0    0  503  502  0.00000000000E+00  0.00000000000E+00  0.70770984470E+02  0.70770984470E+02  0.00000000000E+00 0.  1.
          2   -1    0    0  502    0 -0.00000000000E+00 -0.00000000000E+00 -0.24036309208E+04  0.24036309208E+04  0.00000000000E+00 0.  1.
         25    1    1    2    0    0  0.11050300113E+03  0.35928375701E+03 -0.10024119805E+04  0.10778453089E+04  0.12500000000E+03 0.  0.
         21    1    1    2  503  501  0.20273578394E+02 -0.21362615698E+02 -0.16915927351E+02  0.33963626551E+02  0.00000000000E+00 0.  1.
          2    1    1    2  501    0 -0.13077657952E+03 -0.33792114132E+03 -0.13135320285E+04  0.13625929698E+04  0.00000000000E+00 0.  1.
<mgrwt>
<rscale>  4 0.38814032E+03</rscale>
<asrwt>0</asrwt>
<pdfrwt beam="1">  1       21 0.10887845E-01 0.38814032E+03</pdfrwt>
<pdfrwt beam="2">  1        2 0.36978932E+00 0.38814032E+03</pdfrwt>
<totfact> 0.38095370E+03</totfact>
</mgrwt>
</event>
<event>
 5    0  0.3040647E+000  0.3071255E+03  0.7546771E-02  0.1081732E+00
          1   -1    0    0  502    0 -0.00000000000E+00  0.00000000000E+00  0.30594836228E+03  0.30594836228E+03  0.00000000000E+00 0. -1.
         21   -1    0    0  503  502  0.00000000000E+00 -0.00000000000E+00 -0.42697200443E+03  0.42697200443E+03  0.00000000000E+00 0. -1.
         25    1    1    2    0    0  0.18987290000E+03 -0.20401537959E+03 -0.30643661959E+02  0.30698212860E+03  0.12500000000E+03 0.  0.
         21    1    1    2  503  501 -0.14454727783E+02 -0.17032194459E+02 -0.13796352034E+03  0.13976039406E+03  0.00000000000E+00 0. -1.
          1    1    1    2  501    0 -0.17541817221E+03  0.22104757405E+03  0.47583540139E+02  0.28617784405E+03  0.00000000000E+00 0. -1.
<mgrwt>
<rscale>  4 0.30712554E+03</rscale>
<asrwt>0</asrwt>
<pdfrwt beam="1">  1       21 0.65688001E-01 0.30712554E+03</pdfrwt>
<pdfrwt beam="2">  1        1 0.47068979E-01 0.30712554E+03</pdfrwt>
<totfact> 0.19147135E+03</totfact>
</mgrwt>
</event>
<event>
 5    0  0.3040647E+000  0.4260674E+03  0.7546771E-02  0.1035110E+00
         21   -1    0    0  503  502  0.00000000000E+00  0.00000000000E+00  0.88188679586E+03  0.88188679586E+03  0.00000000000E+00 0. -1.
          2   -1    0    0  502    0 -0.00000000000E+00 -0.00000000000E+00 -0.53555970144E+03  0.53555970144E+03  0.00000000000E+00 0.  1.
         25    1    1    2    0    0  0.29378769864E+03  0.30314145272E+03  0.67185866468E+03  0.80325899779E+03  0.12500000000E+03 0.  0.
         21    1    1    2  503  501  0.15933994814E+02 -0.41031390708E+02  0.46265016151E+02  0.63858585434E+02  0.00000000000E+00 0. -1.
          2    1    1    2  501    0 -0.30972169345E+03 -0.26211006201E+03 -0.37179658640E+03  0.55032891407E+03  0.00000000000E+00 0.  1.
<mgrwt>
<rscale>  4 0.42606737E+03</rscale>
<asrwt>0</asrwt>
<pdfrwt beam="1">  1       21 0.13567489E+00 0.42606737E+03</pdfrwt>
<pdfrwt beam="2">  1        2 0.82393800E-01 0.42606737E+03</pdfrwt>
<totfact> 0.24941015E+02</totfact>
</mgrwt>
</event>
<event>
 5    0  0.3040647E+000  0.3296955E+03  0.7546771E-02  0.1071272E+00
         21   -1    0    0  503  502  0.00000000000E+00  0.00000000000E+00  0.52671660589E+03  0.52671660589E+03  0.00000000000E+00 0. -1.
          2   -1    0    0  502    0 -0.00000000000E+00 -0.00000000000E+00 -0.11754573768E+04  0.11754573768E+04  0.00000000000E+00 0.  1.
         25    1    1    2    0    0  0.15695209707E+03 -0.28752774050E+03  0.78323665910E+02  0.35925723232E+03  0.12500000000E+03 0.  0.
         21    1    1    2  503  501 -0.14364843209E+02  0.20397007662E+02  0.28522247833E+03  0.28631145417E+03  0.00000000000E+00 0. -1.
          2    1    1    2  501    0 -0.14258725386E+03  0.26713073284E+03 -0.10122869152E+04  0.10566052962E+04  0.00000000000E+00 0.  1.
<mgrwt>
<rscale>  4 0.32969553E+03</rscale>
<asrwt>0</asrwt>
<pdfrwt beam="1">  1       21 0.81033325E-01 0.32969553E+03</pdfrwt>
<pdfrwt beam="2">  1        2 0.18083960E+00 0.32969553E+03</pdfrwt>
<totfact> 0.32523780E+02</totfact>
</mgrwt>
</event>
<event>
 5    0  0.3040647E+000  0.3070496E+03  0.7546771E-02  0.1081769E+00
         21   -1    0    0  503  502  0.00000000000E+00  0.00000000000E+00  0.31936897448E+03  0.31936897448E+03  0.00000000000E+00 0. -1.
          1   -1    0    0  502    0 -0.00000000000E+00 -0.00000000000E+00 -0.58529748604E+03  0.58529748604E+03  0.00000000000E+00 0. -1.
         25    1    1    2    0    0  0.14103056975E+03  0.30593696290E+03  0.49243635156E+02  0.36268027583E+03  0.12500000000E+03 0.  0.
         21    1    1    2  503  501 -0.22355086833E-01 -0.77188741724E+02  0.47482883388E+02  0.90624094829E+02  0.00000000000E+00 0. -1.
          1    1    1    2  501    0 -0.14100821467E+03 -0.22874822118E+03 -0.36265503011E+03  0.45136208986E+03  0.00000000000E+00 0. -1.
<mgrwt>
<rscale>  4 0.30704963E+03</rscale>
<asrwt>0</asrwt>
<pdfrwt beam="1">  1       21 0.49133689E-01 0.30704963E+03</pdfrwt>
<pdfrwt beam="2">  1        1 0.90045766E-01 0.30704963E+03</pdfrwt>
<totfact> 0.15272676E+03</totfact>
</mgrwt>
</event>
<event>
 5    0  0.3040647E+000  0.2572650E+03  0.7546771E-02  0.1108798E+00
         21   -1    0    0  503  502  0.00000000000E+00  0.00000000000E+00  0.10999581711E+03  0.10999581711E+03  0.00000000000E+00 0.  1.
          2   -1    0    0  502    0 -0.00000000000E+00 -0.00000000000E+00 -0.38679626516E+04  0.38679626516E+04  0.00000000000E+00 0. -1.
         25    1    1    2    0    0 -0.19128826077E+03  0.12431974855E+03 -0.70044073211E+02  0.26940261836E+03  0.12500000000E+03 0.  0.
         21    1    1    2  503  501 -0.72516813016E+01 -0.18940874881E+02 -0.80437123736E+01  0.21818453926E+02  0.00000000000E+00 0.  1.
          2    1    1    2  501    0  0.19853994207E+03 -0.10537887367E+03 -0.36798790489E+04  0.36867373964E+04  0.00000000000E+00 0. -1.
<mgrwt>
<rscale>  4 0.25726498E+03</rscale>
<asrwt>0</asrwt>
<pdfrwt beam="1">  1       21 0.16922433E-01 0.25726498E+03</pdfrwt>
<pdfrwt beam="2">  1        2 0.59507118E+00 0.25726498E+03</pdfrwt>
<totfact> 0.22312729E+02</totfact>
</mgrwt>
</event>
<event>
 5    0  0.3040647E+000  0.4050642E+03  0.7546771E-02  0.1042040E+00
         21   -1    0    0  503  502  0.00000000000E+00  0.00000000000E+00  0.67008233483E+03  0.67008233483E+03  0.00000000000E+00 0. -1.
          2   -1    0    0  502    0 -0.00000000000E+00 -0.00000000000E+00 -0.10771164758E+04  0.10771164758E+04  0.00000000000E+00 0.  1.
         25    1    1    2    0    0 -0.27694017458E+03  0.30615916442E+03  0.46398407226E+03  0.63351046839E+03  0.12500000000E+03 0.  0.
         21    1    1    2  503  501  0.25313628084E+02 -0.16837240145E+02  0.81448849401E+02  0.86937836937E+02  0.00000000000E+00 0.  1.
          2    1    1    2  501    0  0.25162654649E+03 -0.28932192427E+03 -0.95246706264E+03  0.10267505053E+04  0.00000000000E+00 0.  1.
<mgrwt>
<rscale>  4 0.40506422E+03</rscale>
<asrwt>0</asrwt>
<pdfrwt beam="1">  1       21 0.10308959E+00 0.40506422E+03</pdfrwt>
<pdfrwt beam="2">  1        2 0.16571023E+00 0.40506422E+03</pdfrwt>
<totfact> 0.20394432E+02</totfact>
</mgrwt>
</event>
<event>
 5    0  0.3040647E+000  0.2648045E+03  0.7546771E-02  0.1104290E+00
         21   -1    0    0  503  502  0.00000000000E+00  0.00000000000E+00  0.38376134231E+02  0.38376134231E+02  0.00000000000E+00 0.  1.
          2   -1    0    0  502    0 -0.00000000000E+00 -0.00000000000E+00 -0.36945669279E+04  0.36945669279E+04  0.00000000000E+00 0.  1.
         25    1    1    2    0    0 -0.15307836185E+01  0.24452850784E+03 -0.57133524020E+03  0.63391284191E+03  0.12500000000E+03 0.  0.
         21    1    1    2  503  501  0.46834115223E+02 -0.61305638925E+02 -0.38903724274E+03  0.39661289937E+03  0.00000000000E+00 0. -1.
          2    1    1    2  501    0 -0.45303331605E+02 -0.18322286891E+03 -0.26958183108E+04  0.27024173209E+04  0.00000000000E+00 0.  1.
<mgrwt>
<rscale>  4 0.26480449E+03</rscale>
<asrwt>0</asrwt>
<pdfrwt beam="1">  1       21 0.59040184E-02 0.26480449E+03</pdfrwt>
<pdfrwt beam="2">  1        2 0.56839513E+00 0.26480449E+03</pdfrwt>
<totfact> 0.19273361E+03</totfact>
</mgrwt>
</event>
<event>
 5    0  0.3040647E+000  0.2473946E+03  0.7546771E-02  0.1114963E+00
          1   -1    0    0  502    0 -0.00000000000E+00  0.00000000000E+00  0.24256345297E+04  0.24256345297E+04  0.00000000000E+00 0.  1.
         21   -1    0    0  503  502  0.00000000000E+00 -0.00000000000E+00 -0.29502493438E+02  0.29502493438E+02  0.00000000000E+00 0.  1.
         25    1    1    2    0    0  0.10136208685E+03  0.20249211170E+03  0.84700768710E+03  0.88562088388E+03  0.12500000000E+03 0.  0.
         21    1    1    2  503  501  0.10894856703E+02 -0.26317245475E+02  0.67880887633E+02  0.73614606008E+02  0.00000000000E+00 0.  1.
          1    1    1    2  501    0 -0.11225694355E+03 -0.17617486623E+03  0.14812434616E+04  0.14959015333E+04  0.00000000000E+00 0.  1.
<mgrwt>
<rscale>  4 0.24739461E+03</rscale>
<asrwt>0</asrwt>
<pdfrwt beam="1">  1       21 0.45388471E-02 0.24739461E+03</pdfrwt>
<pdfrwt beam="2">  1        1 0.37317438E+00 0.24739461E+03</pdfrwt>
<totfact> 0.63369690E+03</totfact>
</mgrwt>
</event>
<event>
 5    0  0.3040647E+000  0.2208382E+03  0.7546771E-02  0.1133260E+00
          1   -1    0    0  502    0 -0.00000000000E+00  0.00000000000E+00  0.23523254611E+04  0.23523254611E+04  0.00000000000E+00 0.  1.
         21   -1    0    0  503  502  0.00000000000E+00 -0.00000000000E+00 -0.17190699661E+03  0.17190699661E+03  0.00000000000E+00 0. -1.
         25    1    1    2    0    0  0.13960951126E+03 -0.20324707910E+03  0.99720199715E+03  0.10348125501E+04  0.12500000000E+03 0.  0.
         21    1    1    2  503  501 -0.96357082355E+02  0.15053190022E+03 -0.99723707396E+02  0.20466889876E+03  0.00000000000E+00 0. -1.
          1    1    1    2  501    0 -0.43252428903E+02  0.52715178874E+02  0.12829401747E+04  0.12847510088E+04  0.00000000000E+00 0.  1.
<mgrwt>
<rscale>  4 0.22083818E+03</rscale>
<asrwt>0</asrwt>
<pdfrwt beam="1">  1       21 0.26447232E-01 0.22083818E+03</pdfrwt>
<pdfrwt beam="2">  1        1 0.36189620E+00 0.22083818E+03</pdfrwt>
<totfact> 0.30406973E+02</totfact>
</mgrwt>
</event>
<event>
 5    0  0.3040647E+000  0.3776140E+03  0.7546771E-02  0.1051819E+00
         21   -1    0    0  503  502  0.00000000000E+00  0.00000000000E+00  0.27324083350E+03  0.27324083350E+03  0.00000000000E+00 0.  1.
          2   -1    0    0  502    0 -0.00000000000E+00 -0.00000000000E+00 -0.13177707852E+04  0.13177707852E+04  0.00000000000E+00 0.  1.
         25    1    1    2    0    0  0.37262755031E+03 -0.20424178684E+03 -0.36548428817E+03  0.57425583466E+03  0.12500000000E+03 0.  0.
         21    1    1    2  503  501 -0.30625541586E+03  0.12932193683E+03 -0.20963211281E+01  0.33244689449E+03  0.00000000000E+00 0.  1.
          2    1    1    2  501    0 -0.66372134444E+02  0.74919850009E+02 -0.67694934241E+03  0.68430888957E+03  0.00000000000E+00 0.  1.
<mgrwt>
<rscale>  4 0.37761396E+03</rscale>
<asrwt>0</asrwt>
<pdfrwt beam="1">  1       21 0.42037050E-01 0.37761396E+03</pdfrwt>
<pdfrwt beam="2">  1        2 0.20273397E+00 0.37761396E+03</pdfrwt>
<totfact> 0.11040590E+03</totfact>
</mgrwt>
</event>
<event>
 5    0  0.3040647E+000  0.2636878E+03  0.7546771E-02  0.1104948E+00
         21   -1    0    0  503  502  0.00000000000E+00  0.00000000000E+00  0.54580026044E+02  0.54580026044E+02  0.00000000000E+00 0.  1.
          2   -1    0    0  502    0 -0.00000000000E+00 -0.00000000000E+00 -0.18692331789E+04  0.18692331789E+04  0.00000000000E+00 0.  1.
         25    1    1    2    0    0 -0.21548643149E+03 -0.40306984879E+02 -0.61784977972E+03  0.66739973441E+03  0.12500000000E+03 0.  0.
         21    1    1    2  503  501  0.24777619646E+03 -0.47068232887E+02 -0.57786743024E+03  0.63050712051E+03  0.00000000000E+00 0.  1.
          2    1    1    2  501    0 -0.32289764963E+02  0.87375217766E+02 -0.61893594293E+03  0.62590635007E+03  0.00000000000E+00 0.  1.
<mgrwt>
<rscale>  4 0.26368777E+03</rscale>
<asrwt>0</asrwt>
<pdfrwt beam="1">  1       21 0.83969274E-02 0.26368777E+03</pdfrwt>
<pdfrwt beam="2">  1        2 0.28757432E+00 0.26368777E+03</pdfrwt>
<totfact> 0.12122220E+04</totfact>
</mgrwt>
</event>
<event>
 5    0  0.3040647E+000  0.1971661E+03  0.7546771E-02  0.1152152E+00
         21   -1    0    0  503  502  0.00000000000E+00  0.00000000000E+00  0.81838118467E+02  0.81838118467E+02  0.00000000000E+00 0. -1.
          1   -1    0    0  502    0 -0.00000000000E+00 -0.00000000000E+00 -0.21307026142E+04  0.21307026142E+04  0.00000000000E+00 0. -1.
         25    1    1    2    0    0  0.45895184991E+01 -0.21837125156E+03 -0.19159763104E+03  0.31629372331E+03  0.12500000000E+03 0.  0.
         21    1    1    2  503  501  0.42175136109E+02  0.76298341033E+02 -0.10016298210E+03  0.13278856101E+03  0.00000000000E+00 0.  1.
          1    1    1    2  501    0 -0.46764654608E+02  0.14207291053E+03 -0.17571038826E+04  0.17634584484E+04  0.00000000000E+00 0. -1.
<mgrwt>
<rscale>  4 0.19716614E+03</rscale>
<asrwt>0</asrwt>
<pdfrwt beam="1">  1       21 0.12590480E-01 0.19716614E+03</pdfrwt>
<pdfrwt beam="2">  1        1 0.32780041E+00 0.19716614E+03</pdfrwt>
<totfact> 0.17085251E+03</totfact>
</mgrwt>
</event>
<event>
 5    0  0.3040647E+000  0.2293165E+03  0.7546771E-02  0.1127122E+00
         21   -1    0    0  503  502  0.00000000000E+00  0.00000000000E+00  0.58855362672E+02  0.58855362672E+02  0.00000000000E+00 0.  1.
          2   -1    0    0  502    0 -0.00000000000E+00 -0.00000000000E+00 -0.30950803257E+04  0.30950803257E+04  0.00000000000E+00 0. -1.
         25    1    1    2    0    0  0.20520237865E+03  0.86006894832E+02 -0.38532788583E+03  0.46217721900E+03  0.12500000000E+03 0.  0.
         21    1    1    2  503  501 -0.24224722602E+02 -0.29283314651E+02 -0.41563509862E+01  0.38231203952E+02  0.00000000000E+00 0.  1.
          2    1    1    2  501    0 -0.18097765605E+03 -0.56723580182E+02 -0.26467407263E+04  0.26535272655E+04  0.00000000000E+00 0. -1.
<mgrwt>
<rscale>  4 0.22931648E+03</rscale>
<asrwt>0</asrwt>
<pdfrwt beam="1">  1       21 0.90546713E-02 0.22931648E+03</pdfrwt>
<pdfrwt beam="2">  1        2 0.47616620E+00 0.22931648E+03</pdfrwt>
<totfact> 0.22767466E+03</totfact>
</mgrwt>
</event>
<event>
 5    0  0.3040647E+000  0.2231764E+03  0.7546771E-02  0.1131537E+00
          1   -1    0    0  502    0 -0.00000000000E+00  0.00000000000E+00  0.11806310626E+04  0.11806310626E+04  0.00000000000E+00 0. -1.
         21   -1    0    0  503  502  0.00000000000E+00 -0.00000000000E+00 -0.11740683652E+03  0.11740683652E+03  0.00000000000E+00 0.  1.
         25    1    1    2    0    0  0.22736349549E+03 -0.82048229924E+02  0.60433358043E+03  0.66277458276E+03  0.12500000000E+03 0.  0.
         21    1    1    2  503  501 -0.71626157000E+02  0.40900429831E+02 -0.53390874105E+02  0.98253432330E+02  0.00000000000E+00 0.  1.
          1    1    1    2  501    0 -0.15573733849E+03  0.41147800093E+02  0.51228151975E+03  0.53700988402E+03  0.00000000000E+00 0. -1.
<mgrwt>
<rscale>  4 0.22317639E+03</rscale>
<asrwt>0</asrwt>
<pdfrwt beam="1">  1       21 0.18062591E-01 0.22317639E+03</pdfrwt>
<pdfrwt beam="2">  1        1 0.18163554E+00 0.22317639E+03</pdfrwt>
<totfact> 0.36736298E+03</totfact>
</mgrwt>
</event>
<event>
 5    0  0.3040647E+000  0.2845259E+03  0.7546771E-02  0.1093242E+00
         21   -1    0    0  503  502  0.00000000000E+00  0.00000000000E+00  0.76834255492E+02  0.76834255492E+02  0.00000000000E+00 0. -1.
          2   -1    0    0  502    0 -0.00000000000E+00 -0.00000000000E+00 -0.16605995469E+04  0.16605995469E+04  0.00000000000E+00 0. -1.
         25    1    1    2    0    0 -0.23571146024E+03  0.41734214458E+02 -0.47239770747E+03  0.54413806260E+03  0.12500000000E+03 0.  0.
         21    1    1    2  503  501 -0.22552972385E+02  0.45618512052E+01  0.20863631924E+02  0.31060234817E+02  0.00000000000E+00 0. -1.
          2    1    1    2  501    0  0.25826443263E+03 -0.46296065663E+02 -0.11322312159E+04  0.11622355050E+04  0.00000000000E+00 0. -1.
<mgrwt>
<rscale>  4 0.28452589E+03</rscale>
<asrwt>0</asrwt>
<pdfrwt beam="1">  1       21 0.11820655E-01 0.28452589E+03</pdfrwt>
<pdfrwt beam="2">  1        2 0.25547684E+00 0.28452589E+03</pdfrwt>
<totfact> 0.84404569E+03</totfact>
</mgrwt>
</event>
<event>
 5    0  0.3040647E+000  0.3519669E+03  0.7546771E-02  0.1061811E+00
         21   -1    0    0  501  502  0.00000000000E+00  0.00000000000E+00  0.37183674651E+03  0.37183674651E+03  0.00000000000E+00 0.  1.
         -4   -1    0    0    0  501 -0.00000000000E+00 -0.00000000000E+00 -0.53836000376E+03  0.53836000376E+03  0.00000000000E+00 0.  1.
         25    1    1    2    0    0 -0.27760488405E+03  0.14901951364E+03  0.16923082012E+03  0.37886060441E+03  0.12500000000E+03 0.  0.
         21    1    1    2  503  502 -0.70563310353E+01  0.22557257950E+02  0.29297545992E+02  0.37642634008E+02  0.00000000000E+00 0.  1.
         -4    1    1    2    0  503  0.28466121509E+03 -0.17157677159E+03 -0.36505162337E+03  0.49369351185E+03  0.00000000000E+00 0.  1.
<mgrwt>
<rscale>  4 0.35196688E+03</rscale>
<asrwt>0</asrwt>
<pdfrwt beam="1">  1       21 0.57205653E-01 0.35196688E+03</pdfrwt>
<pdfrwt beam="2">  1       -4 0.82824616E-01 0.35196688E+03</pdfrwt>
<totfact> 0.15450003E+02</totfact>
</mgrwt>
</event>
<event>
 5    0  0.3040647E+000  0.3071745E+03  0.7546771E-02  0.1081708E+00
         21   -1    0    0  503  502  0.00000000000E+00  0.00000000000E+00  0.62788593895E+03  0.62788593895E+03  0.00000000000E+00 0. -1.
          2   -1    0    0  502    0 -0.00000000000E+00 -0.00000000000E+00 -0.81009150515E+03  0.81009150515E+03  0.00000000000E+00 0.  1.
         25    1    1    2    0    0  0.89366606347E+02 -0.27151628619E+03  0.48103012505E+03  0.57334323507E+03  0.12500000000E+03 0.  0.
         21    1    1    2  503  501  0.19268266874E+02  0.13041329361E+02  0.73106066623E+02  0.76719224168E+02  0.00000000000E+00 0.  1.
          2    1    1    2  501    0 -0.10863487322E+03  0.25847495683E+03 -0.73634175787E+03  0.78791498487E+03  0.00000000000E+00 0.  1.
<mgrwt>
<rscale>  4 0.30717451E+03</rscale>
<asrwt>0</asrwt>
<pdfrwt beam="1">  1       21 0.96597837E-01 0.30717451E+03</pdfrwt>
<pdfrwt beam="2">  1        2 0.12462946E+00 0.30717451E+03</pdfrwt>
<totfact> 0.36872820E+02</totfact>
</mgrwt>
</event>
<event>
 5    0  0.3040647E+000  0.3395424E+03  0.7546771E-02  0.1066991E+00
          2   -1    0    0  502    0 -0.00000000000E+00  0.00000000000E+00  0.21775554094E+04  0.21775554094E+04  0.00000000000E+00 0. -1.
         21   -1    0    0  503  502  0.00000000000E+00 -0.00000000000E+00 -0.24777111432E+03  0.24777111432E+03  0.00000000000E+00 0.  1.
         25    1    1    2    0    0  0.24941728047E+03  0.19547236260E+03 -0.10974675025E+03  0.35789352262E+03  0.12500000000E+03 0.  0.
         21    1    1    2  503  501 -0.20441193036E+02 -0.72545179750E+01  0.35508898486E+02  0.41609521452E+02  0.00000000000E+00 0.  1.
          2    1    1    2  501    0 -0.22897608744E+03 -0.18821784463E+03  0.20040221468E+04  0.20258234796E+04  0.00000000000E+00 0. -1.
<mgrwt>
<rscale>  4 0.33954238E+03</rscale>
<asrwt>0</asrwt>
<pdfrwt beam="1">  1       21 0.38118634E-01 0.33954238E+03</pdfrwt>
<pdfrwt beam="2">  1        2 0.33500851E+00 0.33954238E+03</pdfrwt>
<totfact> 0.47257858E+02</totfact>
</mgrwt>
</event>
<event>
 5    0  0.3040647E+000  0.2491905E+03  0.7546771E-02  0.1113817E+00
         21   -1    0    0  503  502  0.00000000000E+00  0.00000000000E+00  0.76919579063E+03  0.76919579063E+03  0.00000000000E+00 0. -1.
          2   -1    0    0  502    0 -0.00000000000E+00 -0.00000000000E+00 -0.15097203134E+03  0.15097203134E+03  0.00000000000E+00 0. -1.
         25    1    1    2    0    0 -0.72695616028E+02  0.20114535541E+03  0.62687811952E+03  0.67405139517E+03  0.12500000000E+03 0.  0.
         21    1    1    2  503  501 -0.19984878514E+02  0.35700958766E+01  0.52492476093E+01  0.20968918767E+02  0.00000000000E+00 0.  1.
          2    1    1    2  501    0  0.92680494542E+02 -0.20471545129E+03 -0.13903607836E+02  0.22514750804E+03  0.00000000000E+00 0. -1.
<mgrwt>
<rscale>  4 0.24919047E+03</rscale>
<asrwt>0</asrwt>
<pdfrwt beam="1">  1       21 0.11833781E+00 0.24919047E+03</pdfrwt>
<pdfrwt beam="2">  1        2 0.23226467E-01 0.24919047E+03</pdfrwt>
<totfact> 0.15299054E+03</totfact>
</mgrwt>
</event>
<event>
 5    0  0.3040647E+000  0.3326856E+03  0.7546771E-02  0.1069955E+00
          1   -1    0    0  502    0 -0.00000000000E+00  0.00000000000E+00  0.55201258056E+03  0.55201258056E+03  0.00000000000E+00 0. -1.
         21   -1    0    0  503  502  0.00000000000E+00 -0.00000000000E+00 -0.94229934304E+03  0.94229934304E+03  0.00000000000E+00 0. -1.
         25    1    1    2    0    0  0.17686517091E+03 -0.15330855395E+03 -0.47169431096E+03  0.54120728412E+03  0.12500000000E+03 0.  0.
         21    1    1    2  503  501  0.13956346815E+03  0.10960885170E+03 -0.36402348228E+03  0.40497550254E+03  0.00000000000E+00 0. -1.
          1    1    1    2  501    0 -0.31642863906E+03  0.43699702252E+02  0.44543103076E+03  0.54812913694E+03  0.00000000000E+00 0. -1.
<mgrwt>
<rscale>  4 0.33268564E+03</rscale>
<asrwt>0</asrwt>
<pdfrwt beam="1">  1       21 0.14496913E+00 0.33268564E+03</pdfrwt>
<pdfrwt beam="2">  1        1 0.84925013E-01 0.33268564E+03</pdfrwt>
<totfact> 0.13076613E+02</totfact>
</mgrwt>
</event>
<event>
 5    0  0.3040647E+000  0.2810931E+03  0.7546771E-02  0.1095093E+00
         -1   -1    0    0    0  501 -0.00000000000E+00  0.00000000000E+00  0.31992448499E+03  0.31992448499E+03  0.00000000000E+00 0.  1.
         21   -1    0    0  501  502  0.00000000000E+00 -0.00000000000E+00 -0.24946308482E+03  0.24946308482E+03  0.00000000000E+00 0. -1.
         25    1    1    2    0    0 -0.25027857608E+03 -0.70571768689E+02  0.81359406004E+01  0.28863633470E+03  0.12500000000E+03 0.  0.
         21    1    1    2  503  502  0.92010533340E+01  0.18917374613E+02 -0.10718125344E+02  0.23609418790E+02  0.00000000000E+00 0. -1.
         -1    1    1    2    0  503  0.24107752275E+03  0.51654394075E+02  0.73043584908E+02  0.25714181632E+03  0.00000000000E+00 0.  1.
<mgrwt>
<rscale>  4 0.28109313E+03</rscale>
<asrwt>0</asrwt>
<pdfrwt beam="1">  1       21 0.38378936E-01 0.28109313E+03</pdfrwt>
<pdfrwt beam="2">  1       -1 0.49219152E-01 0.28109313E+03</pdfrwt>
<totfact> 0.25023151E+03</totfact>
</mgrwt>
</event>
<event>
 5    0  0.3040647E+000  0.3244432E+03  0.7546771E-02  0.1073622E+00
          2   -1    0    0  502    0 -0.00000000000E+00  0.00000000000E+00  0.57480759532E+03  0.57480759532E+03  0.00000000000E+00 0. -1.
         21   -1    0    0  503  502  0.00000000000E+00 -0.00000000000E+00 -0.26286368936E+03  0.26286368936E+03  0.00000000000E+00 0.  1.
         25    1    1    2    0    0  0.17453146836E+03 -0.26104454068E+03 -0.17615137476E+02  0.33843873705E+03  0.12500000000E+03 0.  0.
         21    1    1    2  503  501 -0.60830529943E+02 -0.12342265748E+02  0.87727177137E+01  0.62686884378E+02  0.00000000000E+00 0. -1.
          2    1    1    2  501    0 -0.11370093842E+03  0.27338680643E+03  0.32078632572E+03  0.43654566324E+03  0.00000000000E+00 0. -1.
<mgrwt>
<rscale>  4 0.32444316E+03</rscale>
<asrwt>0</asrwt>
<pdfrwt beam="1">  1       21 0.40440568E-01 0.32444316E+03</pdfrwt>
<pdfrwt beam="2">  1        2 0.88431937E-01 0.32444316E+03</pdfrwt>
<totfact> 0.37746251E+03</totfact>
</mgrwt>
</event>
<event>
 5    0  0.3040647E+000  0.2496955E+03  0.7546771E-02  0.1113497E+00
         21   -1    0    0  503  502  0.00000000000E+00  0.00000000000E+00  0.67514705063E+02  0.67514705063E+02  0.00000000000E+00 0. -1.
          2   -1    0    0  502    0 -0.00000000000E+00 -0.00000000000E+00 -0.21575045982E+04  0.21575045982E+04  0.00000000000E+00 0. -1.
         25    1    1    2    0    0 -0.12938971264E+03  0.16721043559E+03 -0.32789175453E+03  0.40968162053E+03  0.12500000000E+03 0.  0.
         21    1    1    2  503  501 -0.28754552731E+02 -0.18199700317E+02  0.54674258983E+01  0.34466594557E+02  0.00000000000E+00 0. -1.
          2    1    1    2  501    0  0.15814426537E+03 -0.14901073527E+03 -0.17675655645E+04  0.17808710882E+04  0.00000000000E+00 0. -1.
<mgrwt>
<rscale>  4 0.24969554E+03</rscale>
<asrwt>0</asrwt>
<pdfrwt beam="1">  1       21 0.10386876E-01 0.24969554E+03</pdfrwt>
<pdfrwt beam="2">  1        2 0.33192382E+00 0.24969554E+03</pdfrwt>
<totfact> 0.58963329E+03</totfact>
</mgrwt>
</event>
<event>
 5    0  0.3040647E+000  0.3455265E+03  0.7546771E-02  0.1064466E+00
         21   -1    0    0  503  502  0.00000000000E+00  0.00000000000E+00  0.24823750222E+03  0.24823750222E+03  0.00000000000E+00 0. -1.
          2   -1    0    0  502    0 -0.00000000000E+00 -0.00000000000E+00 -0.13421758312E+04  0.13421758312E+04  0.00000000000E+00 0. -1.
         25    1    1    2    0    0 -0.14643530867E+03 -0.32873979375E+03  0.25076989238E+02  0.38179445649E+03  0.12500000000E+03 0.  0.
         21    1    1    2  503  501  0.17958008628E+02  0.37822985782E+02  0.34110930602E+01  0.42008378727E+02  0.00000000000E+00 0. -1.
          2    1    1    2  501    0  0.12847730005E+03  0.29091680797E+03 -0.11224264113E+04  0.11666104982E+04  0.00000000000E+00 0. -1.
<mgrwt>
<rscale>  4 0.34552648E+03</rscale>
<asrwt>0</asrwt>
<pdfrwt beam="1">  1       21 0.38190385E-01 0.34552648E+03</pdfrwt>
<pdfrwt beam="2">  1        2 0.20648859E+00 0.34552648E+03</pdfrwt>
<totfact> 0.13163077E+03</totfact>
</mgrwt>
</event>
<event>
 5    0  0.3040647E+000  0.4122540E+03  0.7546771E-02  0.1039617E+00
          2   -1    0    0  502    0 -0.00000000000E+00  0.00000000000E+00  0.11960299262E+04  0.11960299262E+04  0.00000000000E+00 0. -1.
         21   -1    0    0  503  502  0.00000000000E+00 -0.00000000000E+00 -0.15441576544E+03  0.15441576544E+03  0.00000000000E+00 0. -1.
         25    1    1    2    0    0 -0.40307276589E+03 -0.14287806933E+02  0.42259677328E+03  0.59739838368E+03  0.12500000000E+03 0.  0.
         21    1    1    2  503  501  0.37882982616E+03  0.47636845707E+02  0.51453429455E+03  0.64072368969E+03  0.00000000000E+00 0. -1.
          2    1    1    2  501    0  0.24242939734E+02 -0.33349038774E+02  0.10448309288E+03  0.11232361823E+03  0.00000000000E+00 0. -1.
<mgrwt>
<rscale>  4 0.41225401E+03</rscale>
<asrwt>0</asrwt>
<pdfrwt beam="1">  1       21 0.23756272E-01 0.41225401E+03</pdfrwt>
<pdfrwt beam="2">  1        2 0.18400460E+00 0.41225401E+03</pdfrwt>
<totfact> 0.40078520E+03</totfact>
</mgrwt>
</event>
<event>
 5    0  0.3040647E+000  0.2449618E+03  0.7546771E-02  0.1116531E+00
          1   -1    0    0  502    0 -0.00000000000E+00  0.00000000000E+00  0.54678089958E+03  0.54678089958E+03  0.00000000000E+00 0.  1.
         21   -1    0    0  503  502  0.00000000000E+00 -0.00000000000E+00 -0.13918244790E+03  0.13918244790E+03  0.00000000000E+00 0. -1.
         25    1    1    2    0    0 -0.17063630977E+03 -0.11524304310E+03  0.39493388397E+02  0.24409513908E+03  0.12500000000E+03 0.  0.
         21    1    1    2  503  501 -0.20571156983E+02 -0.48891749402E+00  0.24889971884E+02  0.32294306623E+02  0.00000000000E+00 0.  1.
          1    1    1    2  501    0  0.19120746675E+03  0.11573196060E+03  0.34321509141E+03  0.40957390177E+03  0.00000000000E+00 0.  1.
<mgrwt>
<rscale>  4 0.24496176E+03</rscale>
<asrwt>0</asrwt>
<pdfrwt beam="1">  1       21 0.21412685E-01 0.24496176E+03</pdfrwt>
<pdfrwt beam="2">  1        1 0.84120137E-01 0.24496176E+03</pdfrwt>
<totfact> 0.88865493E+03</totfact>
</mgrwt>
</event>
<event>
 5    0  0.3040647E+000  0.2693439E+03  0.7546771E-02  0.1101656E+00
          2   -1    0    0  502    0 -0.00000000000E+00  0.00000000000E+00  0.80727368278E+03  0.80727368278E+03  0.00000000000E+00 0.  1.
         21   -1    0    0  503  502  0.00000000000E+00 -0.00000000000E+00 -0.10247498720E+03  0.10247498720E+03  0.00000000000E+00 0.  1.
         25    1    1    2    0    0 -0.23711262315E+03 -0.21029495541E+02  0.21396688977E+03  0.34361528728E+03  0.12500000000E+03 0.  0.
         21    1    1    2  503  501 -0.21067002344E+01  0.34089976799E+02  0.25071985114E+02  0.42369436409E+02  0.00000000000E+00 0.  1.
          2    1    1    2  501    0  0.23921932338E+03 -0.13060481258E+02  0.46575982070E+03  0.52376394628E+03  0.00000000000E+00 0.  1.
<mgrwt>
<rscale>  4 0.26934387E+03</rscale>
<asrwt>0</asrwt>
<pdfrwt beam="1">  1       21 0.15765383E-01 0.26934387E+03</pdfrwt>
<pdfrwt beam="2">  1        2 0.12419595E+00 0.26934387E+03</pdfrwt>
<totfact> 0.15640929E+04</totfact>
</mgrwt>
</event>
<event>
 5    0  0.3040647E+000  0.2110849E+03  0.7546771E-02  0.1140710E+00
         -3   -1    0    0    0  501 -0.00000000000E+00  0.00000000000E+00  0.10842189122E+04  0.10842189122E+04  0.00000000000E+00 0.  1.
         21   -1    0    0  501  502  0.00000000000E+00 -0.00000000000E+00 -0.12480721091E+04  0.12480721091E+04  0.00000000000E+00 0. -1.
         25    1    1    2    0    0  0.20749082217E+03 -0.73876354945E+02  0.13834888317E+03  0.28857506923E+03  0.12500000000E+03 0.  0.
         21    1    1    2  503  502 -0.51936418088E+02  0.19217382824E+02 -0.11644901808E+04  0.11658061933E+04  0.00000000000E+00 0. -1.
         -3    1    1    2    0  503 -0.15555440408E+03  0.54658972121E+02  0.86228810073E+03  0.87790975876E+03  0.00000000000E+00 0.  1.
<mgrwt>
<rscale>  4 0.21108486E+03</rscale>
<asrwt>0</asrwt>
<pdfrwt beam="1">  1       21 0.19201109E+00 0.21108486E+03</pdfrwt>
<pdfrwt beam="2">  1       -3 0.16680291E+00 0.21108486E+03</pdfrwt>
<totfact> 0.19196580E+00</totfact>
</mgrwt>
</event>
<event>
 5    0  0.3040647E+000  0.6767393E+03  0.7546771E-02  0.9757859E-01
          2   -1    0    0  502    0 -0.00000000000E+00  0.00000000000E+00  0.19222171199E+04  0.19222171199E+04  0.00000000000E+00 0. -1.
         21   -1    0    0  503  502  0.00000000000E+00 -0.00000000000E+00 -0.32189690076E+03  0.32189690076E+03  0.00000000000E+00 0. -1.
         25    1    1    2    0    0  0.32179063638E+01  0.67989664327E+03  0.37314578933E+03  0.78557786409E+03  0.12500000000E+03 0.  0.
         21    1    1    2  503  501 -0.78383331726E+00 -0.20630646156E+02 -0.31496350817E+02  0.37659767262E+02  0.00000000000E+00 0. -1.
          2    1    1    2  501    0 -0.24340730465E+01 -0.65926599711E+03  0.12586707806E+04  0.14208763893E+04  0.00000000000E+00 0. -1.
<mgrwt>
<rscale>  4 0.67673931E+03</rscale>
<asrwt>0</asrwt>
<pdfrwt beam="1">  1       21 0.49522601E-01 0.67673931E+03</pdfrwt>
<pdfrwt beam="2">  1        2 0.29572570E+00 0.67673931E+03</pdfrwt>
<totfact> 0.33835947E+02</totfact>
</mgrwt>
</event>
<event>
 5    0  0.3040647E+000  0.3056365E+03  0.7546771E-02  0.1082456E+00
         21   -1    0    0  503  502  0.00000000000E+00  0.00000000000E+00  0.92962024345E+03  0.92962024345E+03  0.00000000000E+00 0. -1.
          4   -1    0    0  502    0 -0.00000000000E+00 -0.00000000000E+00 -0.30233529015E+03  0.30233529015E+03  0.00000000000E+00 0. -1.
         25    1    1    2    0    0 -0.24409519765E+03  0.11018446800E+03  0.76455889255E+03  0.81969407872E+03  0.12500000000E+03 0.  0.
         21    1    1    2  503  501 -0.11343778010E+01  0.24922455460E+02  0.63173041128E+02  0.67920900499E+02  0.00000000000E+00 0.  1.
          4    1    1    2  501    0  0.24522957545E+03 -0.13510692346E+03 -0.20044698038E+03  0.34434055438E+03  0.00000000000E+00 0. -1.
<mgrwt>
<rscale>  4 0.30563651E+03</rscale>
<asrwt>0</asrwt>
<pdfrwt beam="1">  1       21 0.14301850E+00 0.30563651E+03</pdfrwt>
<pdfrwt beam="2">  1        4 0.46513122E-01 0.30563651E+03</pdfrwt>
<totfact> 0.61644718E+01</totfact>
</mgrwt>
</event>
<event>
 5    0  0.3040647E+000  0.3327652E+03  0.7546771E-02  0.1069920E+00
         21   -1    0    0  503  502  0.00000000000E+00  0.00000000000E+00  0.95742329880E+02  0.95742329880E+02  0.00000000000E+00 0.  1.
          1   -1    0    0  502    0 -0.00000000000E+00 -0.00000000000E+00 -0.13905772223E+04  0.13905772223E+04  0.00000000000E+00 0.  1.
         25    1    1    2    0    0  0.38674646147E+02 -0.32626028827E+03 -0.42739931498E+03  0.55338655423E+03  0.12500000000E+03 0.  0.
         21    1    1    2  503  501 -0.15077182229E+02  0.27055603788E+02 -0.29129622617E+02  0.42518960878E+02  0.00000000000E+00 0.  1.
          1    1    1    2  501    0 -0.23597463918E+02  0.29920468448E+03 -0.83830595485E+03  0.89041403710E+03  0.00000000000E+00 0.  1.
<mgrwt>
<rscale>  4 0.33276516E+03</rscale>
<asrwt>0</asrwt>
<pdfrwt beam="1">  1       21 0.14729589E-01 0.33276516E+03</pdfrwt>
<pdfrwt beam="2">  1        1 0.21393496E+00 0.33276516E+03</pdfrwt>
<totfact> 0.37069311E+03</totfact>
</mgrwt>
</event>
<event>
 5    0  0.3040647E+000  0.3998944E+03  0.7546771E-02  0.1043816E+00
          2   -1    0    0  502    0 -0.00000000000E+00  0.00000000000E+00  0.21545824143E+04  0.21545824143E+04  0.00000000000E+00 0. -1.
         21   -1    0    0  503  502  0.00000000000E+00 -0.00000000000E+00 -0.10165295797E+03  0.10165295797E+03  0.00000000000E+00 0. -1.
         25    1    1    2    0    0  0.27222545296E+03 -0.28502817052E+03  0.55553026637E+03  0.69252193617E+03  0.12500000000E+03 0.  0.
         21    1    1    2  503  501 -0.23586769995E+02  0.41909505261E+01  0.44489744633E+01  0.24365819479E+02  0.00000000000E+00 0.  1.
          2    1    1    2  501    0 -0.24863868296E+03  0.28083722000E+03  0.14929502155E+04  0.15393476166E+04  0.00000000000E+00 0. -1.
<mgrwt>
<rscale>  4 0.39989436E+03</rscale>
<asrwt>0</asrwt>
<pdfrwt beam="1">  1       21 0.15638918E-01 0.39989436E+03</pdfrwt>
<pdfrwt beam="2">  1        2 0.33147418E+00 0.39989436E+03</pdfrwt>
<totfact> 0.26722314E+03</totfact>
</mgrwt>
</event>
<event>
 5    0  0.3040647E+000  0.2410046E+03  0.7546771E-02  0.1119125E+00
         21   -1    0    0  503  502  0.00000000000E+00  0.00000000000E+00  0.41315132057E+03  0.41315132057E+03  0.00000000000E+00 0. -1.
          1   -1    0    0  502    0 -0.00000000000E+00 -0.00000000000E+00 -0.21831361263E+03  0.21831361263E+03  0.00000000000E+00 0. -1.
         25    1    1    2    0    0  0.11385900816E+03 -0.17948719878E+03  0.28881068270E+03  0.37975800019E+03  0.12500000000E+03 0.  0.
         21    1    1    2  503  501  0.32282251309E+01  0.37038570054E+02  0.11953795447E+02  0.39053429232E+02  0.00000000000E+00 0. -1.
          1    1    1    2  501    0 -0.11708723329E+03  0.14244862872E+03 -0.10592677020E+03  0.21265350378E+03  0.00000000000E+00 0. -1.
<mgrwt>
<rscale>  4 0.24100461E+03</rscale>
<asrwt>0</asrwt>
<pdfrwt beam="1">  1       21 0.63561741E-01 0.24100461E+03</pdfrwt>
<pdfrwt beam="2">  1        1 0.33586710E-01 0.24100461E+03</pdfrwt>
<totfact> 0.32105655E+03</totfact>
</mgrwt>
</event>
<event>
 5    0  0.3040647E+000  0.2898998E+03  0.7546771E-02  0.1090401E+00
          2   -1    0    0  502    0 -0.00000000000E+00  0.00000000000E+00  0.37142207813E+03  0.37142207813E+03  0.00000000000E+00 0.  1.
         21   -1    0    0  503  502  0.00000000000E+00 -0.00000000000E+00 -0.24287300377E+03  0.24287300377E+03  0.00000000000E+00 0.  1.
         25    1    1    2    0    0  0.25641041106E+03 -0.10107846508E+03  0.10436720691E+03  0.32012602031E+03  0.12500000000E+03 0.  0.
         21    1    1    2  503  501 -0.16703978236E+02  0.35343716612E+02 -0.16269537737E+02  0.42342638688E+02  0.00000000000E+00 0. -1.
          2    1    1    2  501    0 -0.23970643282E+03  0.65734748463E+02  0.40451405185E+02  0.25182642290E+03  0.00000000000E+00 0.  1.
<mgrwt>
<rscale>  4 0.28989981E+03</rscale>
<asrwt>0</asrwt>
<pdfrwt beam="1">  1       21 0.37365078E-01 0.28989981E+03</pdfrwt>
<pdfrwt beam="2">  1        2 0.57141858E-01 0.28989981E+03</pdfrwt>
<totfact> 0.72833333E+03</totfact>
</mgrwt>
</event>
<event>
 5    0  0.3040647E+000  0.5073864E+03  0.7546771E-02  0.1011869E+00
          2   -1    0    0  502    0 -0.00000000000E+00  0.00000000000E+00  0.17174200721E+04  0.17174200721E+04  0.00000000000E+00 0.  1.
         21   -1    0    0  503  502  0.00000000000E+00 -0.00000000000E+00 -0.86958032426E+03  0.86958032426E+03  0.00000000000E+00 0.  1.
         25    1    1    2    0    0  0.14975169046E+03  0.43412357765E+03 -0.43959825230E+03  0.64788924431E+03  0.12500000000E+03 0.  0.
         21    1    1    2  503  501  0.20503579397E+02  0.29628707038E+02 -0.28686362822E+03  0.28911762009E+03  0.00000000000E+00 0.  1.
          2    1    1    2  501    0 -0.17025526986E+03 -0.46375228469E+03  0.15743016283E+04  0.16499935319E+04  0.00000000000E+00 0.  1.
<mgrwt>
<rscale>  4 0.50738639E+03</rscale>
<asrwt>0</asrwt>
<pdfrwt beam="1">  1       21 0.13378159E+00 0.50738639E+03</pdfrwt>
<pdfrwt beam="2">  1        2 0.26421847E+00 0.50738639E+03</pdfrwt>
<totfact> 0.44363252E+01</totfact>
</mgrwt>
</event>
<event>
 5    0  0.3040647E+000  0.4527970E+03  0.7546771E-02  0.1026891E+00
          4   -1    0    0  502    0 -0.00000000000E+00  0.00000000000E+00  0.11732597006E+04  0.11732597006E+04  0.00000000000E+00 0.  1.
         21   -1    0    0  503  502  0.00000000000E+00 -0.00000000000E+00 -0.19721901363E+03  0.19721901363E+03  0.00000000000E+00 0.  1.
         25    1    1    2    0    0 -0.64747646371E+02  0.42692360505E+03  0.27626041719E+03  0.52763703468E+03  0.12500000000E+03 0.  0.
         21    1    1    2  503  501  0.26274768855E+02  0.85983630060E+01  0.18258939774E+02  0.33131317608E+02  0.00000000000E+00 0.  1.
          4    1    1    2  501    0  0.38472877515E+02 -0.43552196806E+03  0.68152133001E+03  0.80971036193E+03  0.00000000000E+00 0.  1.
<mgrwt>
<rscale>  4 0.45279697E+03</rscale>
<asrwt>0</asrwt>
<pdfrwt beam="1">  1       21 0.30341387E-01 0.45279697E+03</pdfrwt>
<pdfrwt beam="2">  1        4 0.18050149E+00 0.45279697E+03</pdfrwt>
<totfact> 0.80562386E+01</totfact>
</mgrwt>
</event>
<event>
 5    0  0.3040647E+000  0.3063424E+03  0.7546771E-02  0.1082112E+00
         21   -1    0    0  503  502  0.00000000000E+00  0.00000000000E+00  0.10352912554E+03  0.10352912554E+03  0.00000000000E+00 0. -1.
          2   -1    0    0  502    0 -0.00000000000E+00 -0.00000000000E+00 -0.12555186868E+04  0.12555186868E+04  0.00000000000E+00 0.  1.
         25    1    1    2    0    0  0.12567401244E+03 -0.23143681531E+03 -0.19535778728E+03  0.35092252982E+03  0.12500000000E+03 0.  0.
         21    1    1    2  503  501  0.13365403532E+02 -0.16316928158E+02 -0.18968099807E+02  0.28366617112E+02  0.00000000000E+00 0.  1.
          2    1    1    2  501    0 -0.13903941597E+03  0.24775374347E+03 -0.93766367413E+03  0.97975866538E+03  0.00000000000E+00 0.  1.
<mgrwt>
<rscale>  4 0.30634239E+03</rscale>
<asrwt>0</asrwt>
<pdfrwt beam="1">  1       21 0.15927559E-01 0.30634239E+03</pdfrwt>
<pdfrwt beam="2">  1        2 0.19315671E+00 0.30634239E+03</pdfrwt>
<totfact> 0.80798800E+03</totfact>
</mgrwt>
</event>
<event>
 5    0  0.3040647E+000  0.2658988E+03  0.7546771E-02  0.1103650E+00
          2   -1    0    0  502    0 -0.00000000000E+00  0.00000000000E+00  0.62236489900E+03  0.62236489900E+03  0.00000000000E+00 0. -1.
         21   -1    0    0  503  502  0.00000000000E+00 -0.00000000000E+00 -0.14306565360E+03  0.14306565360E+03  0.00000000000E+00 0. -1.
         25    1    1    2    0    0 -0.20889769267E+03  0.11942088984E+03  0.15773064682E+03  0.31369340427E+03  0.12500000000E+03 0.  0.
         21    1    1    2  503  501 -0.14280510949E+01 -0.20919259849E+02 -0.26193969691E+02  0.33552627479E+02  0.00000000000E+00 0. -1.
          2    1    1    2  501    0  0.21032574376E+03 -0.98501629987E+02  0.34776256827E+03  0.41818452086E+03  0.00000000000E+00 0. -1.
<mgrwt>
<rscale>  4 0.26589875E+03</rscale>
<asrwt>0</asrwt>
<pdfrwt beam="1">  1       21 0.22010101E-01 0.26589875E+03</pdfrwt>
<pdfrwt beam="2">  1        2 0.95748444E-01 0.26589875E+03</pdfrwt>
<totfact> 0.11537200E+04</totfact>
</mgrwt>
</event>
<event>
 5    0  0.3040647E+000  0.2348700E+03  0.7546771E-02  0.1123258E+00
          2   -1    0    0  502    0 -0.00000000000E+00  0.00000000000E+00  0.17394603862E+04  0.17394603862E+04  0.00000000000E+00 0. -1.
         21   -1    0    0  503  502  0.00000000000E+00 -0.00000000000E+00 -0.93135182415E+02  0.93135182415E+02  0.00000000000E+00 0. -1.
         25    1    1    2    0    0 -0.14509337971E+03  0.17896937402E+03  0.45052160202E+03  0.52122628441E+03  0.12500000000E+03 0.  0.
         21    1    1    2  503  501  0.99415534103E+02 -0.16089541913E+03  0.99017433581E+02  0.21348357424E+03  0.00000000000E+00 0. -1.
          2    1    1    2  501    0  0.45677845605E+02 -0.18073954894E+02  0.10967861682E+04  0.10978857100E+04  0.00000000000E+00 0. -1.
<mgrwt>
<rscale>  4 0.23486997E+03</rscale>
<asrwt>0</asrwt>
<pdfrwt beam="1">  1       21 0.14328491E-01 0.23486997E+03</pdfrwt>
<pdfrwt beam="2">  1        2 0.26760927E+00 0.23486997E+03</pdfrwt>
<totfact> 0.55044815E+03</totfact>
</mgrwt>
</event>
<event>
 5    0  0.3040647E+000  0.2636673E+03  0.7546771E-02  0.1104960E+00
         21   -1    0    0  503  502  0.00000000000E+00  0.00000000000E+00  0.13992605401E+03  0.13992605401E+03  0.00000000000E+00 0.  1.
          2   -1    0    0  502    0 -0.00000000000E+00 -0.00000000000E+00 -0.66488987472E+03  0.66488987472E+03  0.00000000000E+00 0.  1.
         25    1    1    2    0    0  0.15042982722E+03  0.17682285055E+03 -0.49182289072E+03  0.55804140458E+03  0.12500000000E+03 0.  0.
         21    1    1    2  503  501 -0.37502454670E+02 -0.75779167084E+01  0.82649282999E+01  0.39142917210E+02  0.00000000000E+00 0.  1.
          2    1    1    2  501    0 -0.11292737255E+03 -0.16924493384E+03 -0.41405858284E+02  0.20763160694E+03  0.00000000000E+00 0.  1.
<mgrwt>
<rscale>  4 0.26366732E+03</rscale>
<asrwt>0</asrwt>
<pdfrwt beam="1">  1       21 0.21527086E-01 0.26366732E+03</pdfrwt>
<pdfrwt beam="2">  1        2 0.10229075E+00 0.26366732E+03</pdfrwt>
<totfact> 0.11128917E+04</totfact>
</mgrwt>
</event>
<event>
 5    0  0.3040647E+000  0.2750175E+03  0.7546771E-02  0.1098442E+00
          1   -1    0    0  502    0 -0.00000000000E+00  0.00000000000E+00  0.19316170510E+04  0.19316170510E+04  0.00000000000E+00 0.  1.
         21   -1    0    0  503  502  0.00000000000E+00 -0.00000000000E+00 -0.57990871059E+02  0.57990871059E+02  0.00000000000E+00 0.  1.
         25    1    1    2    0    0  0.10009658734E+03  0.20984501299E+03  0.35589241583E+03  0.44310119377E+03  0.12500000000E+03 0.  0.
         21    1    1    2  503  501  0.29459498250E+02  0.18550485121E+01  0.51038963472E+02  0.58959978244E+02  0.00000000000E+00 0. -1.
          1    1    1    2  501    0 -0.12955608559E+03 -0.21170006151E+03  0.14666948006E+04  0.14875467500E+04  0.00000000000E+00 0.  1.
<mgrwt>
<rscale>  4 0.27501748E+03</rscale>
<asrwt>0</asrwt>
<pdfrwt beam="1">  1       21 0.89216739E-02 0.27501748E+03</pdfrwt>
<pdfrwt beam="2">  1        1 0.29717181E+00 0.27501748E+03</pdfrwt>
<totfact> 0.40966800E+03</totfact>
</mgrwt>
</event>
<event>
 5    0  0.3040647E+000  0.2250546E+03  0.7546771E-02  0.1130170E+00
          1   -1    0    0  502    0 -0.00000000000E+00  0.00000000000E+00  0.28351229423E+03  0.28351229423E+03  0.00000000000E+00 0. -1.
         21   -1    0    0  503  502  0.00000000000E+00 -0.00000000000E+00 -0.64791860264E+03  0.64791860264E+03  0.00000000000E+00 0.  1.
         25    1    1    2    0    0 -0.25206580675E+03 -0.42673323225E+02 -0.15666800089E+03  0.32485080568E+03  0.12500000000E+03 0.  0.
         21    1    1    2  503  501  0.75778268991E+02  0.44161281472E+02 -0.36190790627E+03  0.37238407250E+03  0.00000000000E+00 0.  1.
          1    1    1    2  501    0  0.17628753776E+03 -0.14879582476E+01  0.15416959875E+03  0.23419601869E+03  0.00000000000E+00 0. -1.
<mgrwt>
<rscale>  4 0.22505456E+03</rscale>
<asrwt>0</asrwt>
<pdfrwt beam="1">  1       21 0.99679784E-01 0.22505456E+03</pdfrwt>
<pdfrwt beam="2">  1        1 0.43617277E-01 0.22505456E+03</pdfrwt>
<totfact> 0.83642300E+02</totfact>
</mgrwt>
</event>
<event>
 5    0  0.3040647E+000  0.2172359E+03  0.7546771E-02  0.1135961E+00
         21   -1    0    0  503  502  0.00000000000E+00  0.00000000000E+00  0.10689373041E+04  0.10689373041E+04  0.00000000000E+00 0. -1.
          1   -1    0    0  502    0 -0.00000000000E+00 -0.00000000000E+00 -0.11074447653E+04  0.11074447653E+04  0.00000000000E+00 0. -1.
         25    1    1    2    0    0  0.16456280871E+03  0.11639667378E+03  0.73121600763E+03  0.76872033503E+03  0.12500000000E+03 0.  0.
         21    1    1    2  503  501 -0.27770587122E+01 -0.43441893456E+02  0.31020656716E+03  0.31324594885E+03  0.00000000000E+00 0. -1.
          1    1    1    2  501    0 -0.16178575000E+03 -0.72954780326E+02 -0.10799300360E+04  0.10944157855E+04  0.00000000000E+00 0. -1.
<mgrwt>
<rscale>  4 0.21723588E+03</rscale>
<asrwt>0</asrwt>
<pdfrwt beam="1">  1       21 0.16445189E+00 0.21723588E+03</pdfrwt>
<pdfrwt beam="2">  1        1 0.17037612E+00 0.21723588E+03</pdfrwt>
<totfact> 0.34194551E+01</totfact>
</mgrwt>
</event>
<event>
 5    0  0.3040647E+000  0.3445404E+03  0.7546771E-02  0.1064878E+00
         21   -1    0    0  503  502  0.00000000000E+00  0.00000000000E+00  0.57851376966E+02  0.57851376966E+02  0.00000000000E+00 0. -1.
          2   -1    0    0  502    0 -0.00000000000E+00 -0.00000000000E+00 -0.30482795502E+04  0.30482795502E+04  0.00000000000E+00 0. -1.
         25    1    1    2    0    0  0.13795469896E+03  0.28541152743E+03 -0.66135789096E+03  0.74398286196E+03  0.12500000000E+03 0.  0.
         21    1    1    2  503  501 -0.17343261912E+02  0.13486693215E+02 -0.17158016180E+02  0.27876103509E+02  0.00000000000E+00 0.  1.
          2    1    1    2  501    0 -0.12061143705E+03 -0.29889822064E+03 -0.23119122661E+04  0.23342719617E+04  0.00000000000E+00 0. -1.
<mgrwt>
<rscale>  4 0.34454038E+03</rscale>
<asrwt>0</asrwt>
<pdfrwt beam="1">  1       21 0.89002067E-02 0.34454038E+03</pdfrwt>
<pdfrwt beam="2">  1        2 0.46896635E+00 0.34454038E+03</pdfrwt>
<totfact> 0.23691750E+03</totfact>
</mgrwt>
</event>
<event>
 5    0  0.3040647E+000  0.2317906E+03  0.7546771E-02  0.1125386E+00
         21   -1    0    0  501  502  0.00000000000E+00  0.00000000000E+00  0.43040121550E+03  0.43040121550E+03  0.00000000000E+00 0.  1.
         -1   -1    0    0    0  501 -0.00000000000E+00 -0.00000000000E+00 -0.23797890372E+03  0.23797890372E+03  0.00000000000E+00 0.  1.
         25    1    1    2    0    0  0.23625208175E+01  0.20413355065E+03  0.23988915392E+03  0.33889215715E+03  0.12500000000E+03 0.  0.
         21    1    1    2  503  502 -0.17376410353E+02 -0.10950167062E+02  0.89741224820E+02  0.92061573024E+02  0.00000000000E+00 0. -1.
         -1    1    1    2    0  503  0.15013889535E+02 -0.19318338359E+03 -0.13720806696E+03  0.23742638904E+03  0.00000000000E+00 0.  1.
<mgrwt>
<rscale>  4 0.23179056E+03</rscale>
<asrwt>0</asrwt>
<pdfrwt beam="1">  1       21 0.66215571E-01 0.23179056E+03</pdfrwt>
<pdfrwt beam="2">  1       -1 0.36612139E-01 0.23179056E+03</pdfrwt>
<totfact> 0.13695232E+03</totfact>
</mgrwt>
</event>
<event>
 5    0  0.3040647E+000  0.2504852E+03  0.7546771E-02  0.1112999E+00
         -1   -1    0    0    0  501 -0.00000000000E+00  0.00000000000E+00  0.70266707977E+03  0.70266707977E+03  0.00000000000E+00 0. -1.
         21   -1    0    0  501  502  0.00000000000E+00 -0.00000000000E+00 -0.20909843491E+03  0.20909843491E+03  0.00000000000E+00 0. -1.
         25    1    1    2    0    0  0.52255205815E+02 -0.21536571738E+03  0.13196002891E+03  0.28662073894E+03  0.12500000000E+03 0.  0.
         21    1    1    2  503  502 -0.20011645115E+02  0.19121063540E+01 -0.10717489720E+03  0.10904393922E+03  0.00000000000E+00 0. -1.
         -1    1    1    2    0  503 -0.32243560700E+02  0.21345361103E+03  0.46878351314E+03  0.51610083653E+03  0.00000000000E+00 0. -1.
<mgrwt>
<rscale>  4 0.25048518E+03</rscale>
<asrwt>0</asrwt>
<pdfrwt beam="1">  1       21 0.32168990E-01 0.25048518E+03</pdfrwt>
<pdfrwt beam="2">  1       -1 0.10810263E+00 0.25048518E+03</pdfrwt>
<totfact> 0.72120072E+02</totfact>
</mgrwt>
</event>
<event>
 5    0  0.3040647E+000  0.2478622E+03  0.7546771E-02  0.1114663E+00
         21   -1    0    0  503  502  0.00000000000E+00  0.00000000000E+00  0.83856602159E+02  0.83856602159E+02  0.00000000000E+00 0. -1.
          1   -1    0    0  502    0 -0.00000000000E+00 -0.00000000000E+00 -0.93674990016E+03  0.93674990016E+03  0.00000000000E+00 0.  1.
         25    1    1    2    0    0  0.20751173340E+03 -0.53577225896E+02 -0.23107004122E+03  0.33904277398E+03  0.12500000000E+03 0.  0.
         21    1    1    2  503  501 -0.10102931914E+02 -0.30445136790E+02 -0.10605936431E+02  0.33785521677E+02  0.00000000000E+00 0.  1.
          1    1    1    2  501    0 -0.19740880149E+03  0.84022362686E+02 -0.61121732035E+03  0.64777820667E+03  0.00000000000E+00 0.  1.
<mgrwt>
<rscale>  4 0.24786219E+03</rscale>
<asrwt>0</asrwt>
<pdfrwt beam="1">  1       21 0.12901016E-01 0.24786219E+03</pdfrwt>
<pdfrwt beam="2">  1        1 0.14411536E+00 0.24786219E+03</pdfrwt>
<totfact> 0.10185677E+04</totfact>
</mgrwt>
</event>
<event>
 5    0  0.3040647E+000  0.3039901E+03  0.7546771E-02  0.1083263E+00
         21   -1    0    0  503  502  0.00000000000E+00  0.00000000000E+00  0.12604267695E+04  0.12604267695E+04  0.00000000000E+00 0. -1.
          2   -1    0    0  502    0 -0.00000000000E+00 -0.00000000000E+00 -0.88776735685E+02  0.88776735685E+02  0.00000000000E+00 0. -1.
         25    1    1    2    0    0  0.72996835631E+02  0.23842531148E+03  0.35813735586E+03  0.45394111163E+03  0.12500000000E+03 0.  0.
         21    1    1    2  503  501 -0.11566731314E+03 -0.27632031117E+03  0.55660458426E+03  0.63209216489E+03  0.00000000000E+00 0. -1.
          2    1    1    2  501    0  0.42670477513E+02  0.37894999688E+02  0.25690809373E+03  0.26317022871E+03  0.00000000000E+00 0. -1.
<mgrwt>
<rscale>  4 0.30399005E+03</rscale>
<asrwt>0</asrwt>
<pdfrwt beam="1">  1       21 0.19391180E+00 0.30399005E+03</pdfrwt>
<pdfrwt beam="2">  1        2 0.13657960E-01 0.30399005E+03</pdfrwt>
<totfact> 0.73513784E+02</totfact>
</mgrwt>
</event>
<event>
 5    0  0.3040647E+000  0.2254717E+03  0.7546771E-02  0.1129868E+00
          2   -1    0    0  502    0 -0.00000000000E+00  0.00000000000E+00  0.14105124766E+04  0.14105124766E+04  0.00000000000E+00 0. -1.
         21   -1    0    0  503  502  0.00000000000E+00 -0.00000000000E+00 -0.18291363474E+03  0.18291363474E+03  0.00000000000E+00 0.  1.
         25    1    1    2    0    0  0.97846020790E+01 -0.25242010103E+03  0.95174219765E+03  0.99259753004E+03  0.12500000000E+03 0.  0.
         21    1    1    2  503  501  0.34088869883E+02  0.18120251305E+03 -0.10412378697E+03  0.21175024156E+03  0.00000000000E+00 0.  1.
          2    1    1    2  501    0 -0.43873471962E+02  0.71217587980E+02  0.37998043120E+03  0.38907833976E+03  0.00000000000E+00 0. -1.
<mgrwt>
<rscale>  4 0.22547170E+03</rscale>
<asrwt>0</asrwt>
<pdfrwt beam="1">  1       21 0.28140560E-01 0.22547170E+03</pdfrwt>
<pdfrwt beam="2">  1        2 0.21700191E+00 0.22547170E+03</pdfrwt>
<totfact> 0.23237257E+03</totfact>
</mgrwt>
</event>
<event>
 5    0  0.3040647E+000  0.2366111E+03  0.7546771E-02  0.1122071E+00
         -3   -1    0    0    0  501 -0.00000000000E+00  0.00000000000E+00  0.18286302177E+03  0.18286302177E+03  0.00000000000E+00 0.  1.
         21   -1    0    0  501  502  0.00000000000E+00 -0.00000000000E+00 -0.61194169312E+03  0.61194169312E+03  0.00000000000E+00 0.  1.
         25    1    1    2    0    0 -0.18465697075E+03 -0.12245963878E+03 -0.32700540531E+03  0.41430917813E+03  0.12500000000E+03 0.  0.
         21    1    1    2  503  502  0.15683774045E+02  0.21150197023E+02 -0.17005387623E+03  0.17208030807E+03  0.00000000000E+00 0.  1.
         -3    1    1    2    0  503  0.16897319670E+03  0.10130944176E+03  0.67980610191E+02  0.20841522870E+03  0.00000000000E+00 0.  1.
<mgrwt>
<rscale>  4 0.23661113E+03</rscale>
<asrwt>0</asrwt>
<pdfrwt beam="1">  1       21 0.94144875E-01 0.23661113E+03</pdfrwt>
<pdfrwt beam="2">  1       -3 0.28132773E-01 0.23661113E+03</pdfrwt>
<totfact> 0.55911887E+02</totfact>
</mgrwt>
</event>
<event>
 5    0  0.3040647E+000  0.1998469E+03  0.7546771E-02  0.1149868E+00
         21   -1    0    0  503  502  0.00000000000E+00  0.00000000000E+00  0.73414832326E+02  0.73414832326E+02  0.00000000000E+00 0. -1.
          1   -1    0    0  502    0 -0.00000000000E+00 -0.00000000000E+00 -0.21922708454E+04  0.21922708454E+04  0.00000000000E+00 0. -1.
         25    1    1    2    0    0  0.22062354885E+03 -0.15369090829E+03 -0.40051714953E+03  0.49833184995E+03  0.12500000000E+03 0.  0.
         21    1    1    2  503  501 -0.82514200836E+02  0.99959452134E+02 -0.17955684789E+03  0.22145235839E+03  0.00000000000E+00 0. -1.
          1    1    1    2  501    0 -0.13810934801E+03  0.53731456158E+02 -0.15387820156E+04  0.15459014694E+04  0.00000000000E+00 0. -1.
<mgrwt>
<rscale>  4 0.19984686E+03</rscale>
<asrwt>0</asrwt>
<pdfrwt beam="1">  1       21 0.11294589E-01 0.19984686E+03</pdfrwt>
<pdfrwt beam="2">  1        1 0.33727246E+00 0.19984686E+03</pdfrwt>
<totfact> 0.18903705E+03</totfact>
</mgrwt>
</event>
<event>
 5    0  0.3040647E+000  0.2039670E+03  0.7546771E-02  0.1146435E+00
         21   -1    0    0  503  502  0.00000000000E+00  0.00000000000E+00  0.37436365654E+03  0.37436365654E+03  0.00000000000E+00 0. -1.
          2   -1    0    0  502    0 -0.00000000000E+00 -0.00000000000E+00 -0.16233719039E+03  0.16233719039E+03  0.00000000000E+00 0.  1.
         25    1    1    2    0    0  0.79411717471E+02  0.18600379469E+03  0.16703023525E+02  0.23834349898E+03  0.12500000000E+03 0.  0.
         21    1    1    2  503  501 -0.57658114138E+02 -0.14018335203E+03  0.19582177976E+03  0.24763279214E+03  0.00000000000E+00 0. -1.
          2    1    1    2  501    0 -0.21753603333E+02 -0.45820442652E+02 -0.49833713419E+00  0.50724555815E+02  0.00000000000E+00 0.  1.
<mgrwt>
<rscale>  4 0.20396697E+03</rscale>
<asrwt>0</asrwt>
<pdfrwt beam="1">  1       21 0.57594408E-01 0.20396697E+03</pdfrwt>
<pdfrwt beam="2">  1        2 0.24974953E-01 0.20396697E+03</pdfrwt>
<totfact> 0.74565671E+03</totfact>
</mgrwt>
</event>
<event>
 5    0  0.3040647E+000  0.2446481E+03  0.7546771E-02  0.1116735E+00
         21   -1    0    0  503  502  0.00000000000E+00  0.00000000000E+00  0.59948944832E+03  0.59948944832E+03  0.00000000000E+00 0. -1.
          3   -1    0    0  502    0 -0.00000000000E+00 -0.00000000000E+00 -0.94745893077E+03  0.94745893077E+03  0.00000000000E+00 0.  1.
         25    1    1    2    0    0 -0.95890254880E+02 -0.17566625499E+03  0.45529641950E+03  0.51280932493E+03  0.12500000000E+03 0.  0.
         21    1    1    2  503  501  0.26208213467E+02 -0.23095764549E+02  0.10037323892E+03  0.10627827570E+03  0.00000000000E+00 0. -1.
          3    1    1    2  501    0  0.69682041413E+02  0.19876201954E+03 -0.90363914087E+03  0.92786077846E+03  0.00000000000E+00 0.  1.
<mgrwt>
<rscale>  4 0.24464813E+03</rscale>
<asrwt>0</asrwt>
<pdfrwt beam="1">  1       21 0.92229146E-01 0.24464813E+03</pdfrwt>
<pdfrwt beam="2">  1        3 0.14576291E+00 0.24464813E+03</pdfrwt>
<totfact> 0.17636512E+01</totfact>
</mgrwt>
</event>
<event>
 5    0  0.3040647E+000  0.2669112E+03  0.7546771E-02  0.1103061E+00
          3   -1    0    0  502    0 -0.00000000000E+00  0.00000000000E+00  0.59253578841E+03  0.59253578841E+03  0.00000000000E+00 0. -1.
         21   -1    0    0  503  502  0.00000000000E+00 -0.00000000000E+00 -0.38975190514E+03  0.38975190514E+03  0.00000000000E+00 0. -1.
         25    1    1    2    0    0 -0.22024630888E+03  0.86545974680E+02  0.28997496402E+03  0.39459995193E+03  0.12500000000E+03 0.  0.
         21    1    1    2  503  501 -0.21960996755E+02 -0.78488029811E+02 -0.27134201845E+03  0.28331810246E+03  0.00000000000E+00 0. -1.
          3    1    1    2  501    0  0.24220730564E+03 -0.80579448696E+01  0.18415093771E+03  0.30436963915E+03  0.00000000000E+00 0. -1.
<mgrwt>
<rscale>  4 0.26691124E+03</rscale>
<asrwt>0</asrwt>
<pdfrwt beam="1">  1       21 0.59961831E-01 0.26691124E+03</pdfrwt>
<pdfrwt beam="2">  1        3 0.91159352E-01 0.26691124E+03</pdfrwt>
<totfact> 0.14027342E+02</totfact>
</mgrwt>
</event>
<event>
 5    0  0.3040647E+000  0.2310843E+03  0.7546771E-02  0.1125879E+00
         21   -1    0    0  503  502  0.00000000000E+00  0.00000000000E+00  0.76704005908E+02  0.76704005908E+02  0.00000000000E+00 0. -1.
          1   -1    0    0  502    0 -0.00000000000E+00 -0.00000000000E+00 -0.13331103720E+04  0.13331103720E+04  0.00000000000E+00 0. -1.
         25    1    1    2    0    0  0.21537511276E+03  0.86727841257E+02 -0.44006052669E+03  0.51301698295E+03  0.12500000000E+03 0.  0.
         21    1    1    2  503  501 -0.29509298727E+02 -0.79110182264E+02 -0.31358397375E+02  0.90069799240E+02  0.00000000000E+00 0. -1.
          1    1    1    2  501    0 -0.18586581403E+03 -0.76176589936E+01 -0.78498744206E+03  0.80672759575E+03  0.00000000000E+00 0. -1.
<mgrwt>
<rscale>  4 0.23108426E+03</rscale>
<asrwt>0</asrwt>
<pdfrwt beam="1">  1       21 0.11800617E-01 0.23108426E+03</pdfrwt>
<pdfrwt beam="2">  1        1 0.20509389E+00 0.23108426E+03</pdfrwt>
<totfact> 0.62551245E+03</totfact>
</mgrwt>
</event>
<event>
 5    0  0.3040647E+000  0.2968126E+03  0.7546771E-02  0.1086845E+00
         21   -1    0    0  503  502  0.00000000000E+00  0.00000000000E+00  0.76492745995E+03  0.76492745995E+03  0.00000000000E+00 0.  1.
          3   -1    0    0  502    0 -0.00000000000E+00 -0.00000000000E+00 -0.22054600654E+03  0.22054600654E+03  0.00000000000E+00 0.  1.
         25    1    1    2    0    0 -0.11330389955E+03 -0.24288157097E+03  0.38155002218E+03  0.48273662653E+03  0.12500000000E+03 0.  0.
         21    1    1    2  503  501 -0.23748371985E+02  0.10537068035E+02  0.22452060935E+03  0.22601884655E+03  0.00000000000E+00 0.  1.
          3    1    1    2  501    0  0.13705227153E+03  0.23234450293E+03 -0.61689178118E+02  0.27671799340E+03  0.00000000000E+00 0.  1.
<mgrwt>
<rscale>  4 0.29681260E+03</rscale>
<asrwt>0</asrwt>
<pdfrwt beam="1">  1       21 0.11768115E+00 0.29681260E+03</pdfrwt>
<pdfrwt beam="2">  1        3 0.33930155E-01 0.29681260E+03</pdfrwt>
<totfact> 0.22587490E+02</totfact>
</mgrwt>
</event>
<event>
 5    0  0.3040647E+000  0.3367415E+03  0.7546771E-02  0.1068192E+00
          1   -1    0    0  502    0 -0.00000000000E+00  0.00000000000E+00  0.20122473040E+04  0.20122473040E+04  0.00000000000E+00 0.  1.
         21   -1    0    0  503  502  0.00000000000E+00 -0.00000000000E+00 -0.21269438073E+03  0.21269438073E+03  0.00000000000E+00 0.  1.
         25    1    1    2    0    0  0.19238627620E+03  0.27886047851E+03  0.79029511209E+00  0.36111116060E+03  0.12500000000E+03 0.  0.
         21    1    1    2  503  501 -0.46972583889E+01 -0.31156161114E+02 -0.63655739705E+01  0.32144846301E+02  0.00000000000E+00 0. -1.
          1    1    1    2  501    0 -0.18768901781E+03 -0.24770431739E+03  0.18051282021E+04  0.18316856778E+04  0.00000000000E+00 0.  1.
<mgrwt>
<rscale>  4 0.33674153E+03</rscale>
<asrwt>0</asrwt>
<pdfrwt beam="1">  1       21 0.32722214E-01 0.33674153E+03</pdfrwt>
<pdfrwt beam="2">  1        1 0.30957649E+00 0.33674153E+03</pdfrwt>
<totfact> 0.31273102E+02</totfact>
</mgrwt>
</event>
<event>
 5    0  0.3040647E+000  0.1996901E+03  0.7546771E-02  0.1150001E+00
          4   -1    0    0  502    0 -0.00000000000E+00  0.00000000000E+00  0.75116416384E+02  0.75116416384E+02  0.00000000000E+00 0.  1.
         21   -1    0    0  503  502  0.00000000000E+00 -0.00000000000E+00 -0.18483900610E+04  0.18483900610E+04  0.00000000000E+00 0.  1.
         25    1    1    2    0    0  0.21475938458E+03  0.11867533127E+03 -0.14768738072E+04  0.15023270848E+04  0.12500000000E+03 0.  0.
         21    1    1    2  503  501 -0.75417272942E+02 -0.64556710426E+02 -0.24291290830E+03  0.26241572921E+03  0.00000000000E+00 0.  1.
          4    1    1    2  501    0 -0.13934211164E+03 -0.54118620840E+02 -0.53486929093E+02  0.15876366329E+03  0.00000000000E+00 0.  1.
<mgrwt>
<rscale>  4 0.19969012E+03</rscale>
<asrwt>0</asrwt>
<pdfrwt beam="1">  1       21 0.28436767E+00 0.19969012E+03</pdfrwt>
<pdfrwt beam="2">  1        4 0.11556373E-01 0.19969012E+03</pdfrwt>
<totfact> 0.10425321E+02</totfact>
</mgrwt>
</event>
<event>
 5    0  0.3040647E+000  0.2650097E+03  0.7546771E-02  0.1104170E+00
          2   -1    0    0  502    0 -0.00000000000E+00  0.00000000000E+00  0.86075953557E+03  0.86075953557E+03  0.00000000000E+00 0. -1.
         21   -1    0    0  503  502  0.00000000000E+00 -0.00000000000E+00 -0.34149668617E+03  0.34149668617E+03  0.00000000000E+00 0.  1.
         25    1    1    2    0    0  0.24594825100E+01  0.21276410355E+03  0.19972684535E+03  0.31747507866E+03  0.12500000000E+03 0.  0.
         21    1    1    2  503  501  0.33918231999E+02  0.27532803403E+02 -0.25617529782E+03  0.25987359415E+03  0.00000000000E+00 0.  1.
          2    1    1    2  501    0 -0.36377714509E+02 -0.24029690695E+03  0.57571130187E+03  0.62490754893E+03  0.00000000000E+00 0. -1.
<mgrwt>
<rscale>  4 0.26500972E+03</rscale>
<asrwt>0</asrwt>
<pdfrwt beam="1">  1       21 0.52537952E-01 0.26500972E+03</pdfrwt>
<pdfrwt beam="2">  1        2 0.13242454E+00 0.26500972E+03</pdfrwt>
<totfact> 0.13565791E+03</totfact>
</mgrwt>
</event>
<event>
 5    0  0.5139256E+000  0.2542471E+03  0.7546771E-02  0.1110650E+00
         21   -1    0    0  503  502  0.00000000000E+00  0.00000000000E+00  0.62197510877E+03  0.62197510877E+03  0.00000000000E+00 0. -1.
          2   -1    0    0  502    0 -0.00000000000E+00 -0.00000000000E+00 -0.18558859231E+04  0.18558859231E+04  0.00000000000E+00 0. -1.
         25    1    1    2    0    0  0.13647137514E+03 -0.16242735035E+03 -0.15903722806E+04  0.16093216184E+04  0.12500000000E+03 0.  0.
         21    1    1    2  503  501 -0.12260739985E+03  0.18450664821E+03  0.59172607885E+03  0.63183465410E+03  0.00000000000E+00 0. -1.
          2    1    1    2  501    0 -0.13863975291E+02 -0.22079297855E+02 -0.23526461251E+03  0.23670475936E+03  0.00000000000E+00 0. -1.
<mgrwt>
<rscale>  4 0.25424713E+03</rscale>
<asrwt>0</asrwt>
<pdfrwt beam="1">  1       21 0.95688479E-01 0.25424713E+03</pdfrwt>
<pdfrwt beam="2">  1        2 0.28552091E+00 0.25424713E+03</pdfrwt>
<totfact> 0.98765694E+01</totfact>
</mgrwt>
</event>
<event>
 5    0  0.3040647E+000  0.2667272E+03  0.7546771E-02  0.1103167E+00
          1   -1    0    0  502    0 -0.00000000000E+00  0.00000000000E+00  0.70296696826E+03  0.70296696826E+03  0.00000000000E+00 0.  1.
         21   -1    0    0  503  502  0.00000000000E+00 -0.00000000000E+00 -0.26398463862E+03  0.26398463862E+03  0.00000000000E+00 0.  1.
         25    1    1    2    0    0 -0.46662948551E+02  0.23713086316E+03 -0.15478857222E+03  0.31303830296E+03  0.12500000000E+03 0.  0.
         21    1    1    2  503  501  0.50394586775E+01 -0.50340240444E+02  0.30625271795E+02  0.59139185184E+02  0.00000000000E+00 0.  1.
          1    1    1    2  501    0  0.41623489873E+02 -0.18679062272E+03  0.56314563007E+03  0.59477411873E+03  0.00000000000E+00 0.  1.
<mgrwt>
<rscale>  4 0.26672717E+03</rscale>
<asrwt>0</asrwt>
<pdfrwt beam="1">  1       21 0.40613022E-01 0.26672717E+03</pdfrwt>
<pdfrwt beam="2">  1        1 0.10814876E+00 0.26672717E+03</pdfrwt>
<totfact> 0.17681276E+03</totfact>
</mgrwt>
</event>
<event>
 5    0  0.3040647E+000  0.3588621E+03  0.7546771E-02  0.1059035E+00
          2   -1    0    0  502    0 -0.00000000000E+00  0.00000000000E+00  0.29714243704E+04  0.29714243704E+04  0.00000000000E+00 0.  1.
         21   -1    0    0  503  502  0.00000000000E+00 -0.00000000000E+00 -0.20373600942E+03  0.20373600942E+03  0.00000000000E+00 0. -1.
         25    1    1    2    0    0  0.37746198047E+03  0.35805254884E+01  0.16770059540E+04  0.17235035064E+04  0.12500000000E+03 0.  0.
         21    1    1    2  503  501 -0.33264685633E+03 -0.42731589157E+01 -0.26358727190E+02  0.33371690609E+03  0.00000000000E+00 0. -1.
          2    1    1    2  501    0 -0.44815124137E+02  0.69263342729E+00  0.11170411341E+04  0.11179399673E+04  0.00000000000E+00 0.  1.
<mgrwt>
<rscale>  4 0.35886208E+03</rscale>
<asrwt>0</asrwt>
<pdfrwt beam="1">  1       21 0.31344004E-01 0.35886208E+03</pdfrwt>
<pdfrwt beam="2">  1        2 0.45714218E+00 0.35886208E+03</pdfrwt>
<totfact> 0.24900220E+02</totfact>
</mgrwt>
</event>
<event>
 5    0  0.3040647E+000  0.5886043E+03  0.7546771E-02  0.9929335E-01
          4   -1    0    0  502    0 -0.00000000000E+00  0.00000000000E+00  0.12358686203E+04  0.12358686203E+04  0.00000000000E+00 0.  1.
         21   -1    0    0  503  502  0.00000000000E+00 -0.00000000000E+00 -0.95143522973E+03  0.95143522973E+03  0.00000000000E+00 0.  1.
         25    1    1    2    0    0 -0.54673027159E+03 -0.95600612837E+02 -0.75854225815E+03  0.94819028915E+03  0.12500000000E+03 0.  0.
         21    1    1    2  503  501 -0.24352408948E+02  0.13647294204E+02 -0.16723956351E+02  0.32541960246E+02  0.00000000000E+00 0.  1.
          4    1    1    2  501    0  0.57108268054E+03  0.81953318633E+02  0.10596996051E+04  0.12065716006E+04  0.00000000000E+00 0.  1.
<mgrwt>
<rscale>  4 0.58860428E+03</rscale>
<asrwt>0</asrwt>
<pdfrwt beam="1">  1       21 0.14637465E+00 0.58860428E+03</pdfrwt>
<pdfrwt beam="2">  1        4 0.19013363E+00 0.58860428E+03</pdfrwt>
<totfact> 0.18788100E+00</totfact>
</mgrwt>
</event>
<event>
 5    0  0.3040647E+000  0.2488465E+03  0.7546771E-02  0.1114036E+00
          2   -1    0    0  502    0 -0.00000000000E+00  0.00000000000E+00  0.58122230912E+02  0.58122230912E+02  0.00000000000E+00 0.  1.
         21   -1    0    0  503  502  0.00000000000E+00 -0.00000000000E+00 -0.14799944341E+04  0.14799944341E+04  0.00000000000E+00 0.  1.
         25    1    1    2    0    0 -0.74094932393E+02 -0.20527190821E+03 -0.35430704911E+03  0.43449407402E+03  0.12500000000E+03 0.  0.
         21    1    1    2  503  501  0.43788265228E+02  0.21029015307E+03 -0.10412443383E+04  0.10631693810E+04  0.00000000000E+00 0.  1.
          2    1    1    2  501    0  0.30306667165E+02 -0.50182448604E+01 -0.26320815794E+02  0.40453210011E+02  0.00000000000E+00 0.  1.
<mgrwt>
<rscale>  4 0.24884650E+03</rscale>
<asrwt>0</asrwt>
<pdfrwt beam="1">  1       21 0.22769146E+00 0.24884650E+03</pdfrwt>
<pdfrwt beam="2">  1        2 0.89418812E-02 0.24884650E+03</pdfrwt>
<totfact> 0.77638857E+02</totfact>
</mgrwt>
</event>
<event>
 5    0  0.3040647E+000  0.3530567E+03  0.7546771E-02  0.1061367E+00
         21   -1    0    0  503  502  0.00000000000E+00  0.00000000000E+00  0.66904216111E+02  0.66904216111E+02  0.00000000000E+00 0. -1.
          2   -1    0    0  502    0 -0.00000000000E+00 -0.00000000000E+00 -0.23987038947E+04  0.23987038947E+04  0.00000000000E+00 0. -1.
         25    1    1    2    0    0 -0.22262705967E+03  0.22469287561E+03 -0.78204337460E+03  0.85279923534E+03  0.12500000000E+03 0.  0.
         21    1    1    2  503  501  0.36016980074E+02  0.80604126657E+02 -0.27867665041E+03  0.29232674112E+03  0.00000000000E+00 0.  1.
          2    1    1    2  501    0  0.18661007960E+03 -0.30529700226E+03 -0.12710796536E+04  0.13204821343E+04  0.00000000000E+00 0. -1.
<mgrwt>
<rscale>  4 0.35305674E+03</rscale>
<asrwt>0</asrwt>
<pdfrwt beam="1">  1       21 0.10292957E-01 0.35305674E+03</pdfrwt>
<pdfrwt beam="2">  1        2 0.36903134E+00 0.35305674E+03</pdfrwt>
<totfact> 0.42861195E+03</totfact>
</mgrwt>
</event>
<event>
 5    0  0.3040647E+000  0.2757499E+03  0.7546771E-02  0.1098033E+00
         21   -1    0    0  501  502  0.00000000000E+00  0.00000000000E+00  0.18785971923E+03  0.18785971923E+03  0.00000000000E+00 0.  1.
         -2   -1    0    0    0  501 -0.00000000000E+00 -0.00000000000E+00 -0.56517203058E+03  0.56517203058E+03  0.00000000000E+00 0. -1.
         25    1    1    2    0    0  0.25118987036E+03 -0.10302824846E+03 -0.91376443140E+02  0.31254731692E+03  0.12500000000E+03 0.  0.
         21    1    1    2  503  502 -0.93212831753E+02 -0.57738783170E+02 -0.91237301921E+02  0.14264166413E+03  0.00000000000E+00 0.  1.
         -2    1    1    2    0  503 -0.15797703861E+03  0.16076703163E+03 -0.19469856630E+03  0.29784276876E+03  0.00000000000E+00 0. -1.
<mgrwt>
<rscale>  4 0.27574992E+03</rscale>
<asrwt>0</asrwt>
<pdfrwt beam="1">  1       21 0.28901495E-01 0.27574992E+03</pdfrwt>
<pdfrwt beam="2">  1       -2 0.86949543E-01 0.27574992E+03</pdfrwt>
<totfact> 0.10851146E+03</totfact>
</mgrwt>
</event>
<event>
 5    0  0.3040647E+000  0.3031045E+03  0.7546771E-02  0.1083699E+00
          1   -1    0    0  502    0 -0.00000000000E+00  0.00000000000E+00  0.72356601865E+03  0.72356601865E+03  0.00000000000E+00 0. -1.
         21   -1    0    0  503  502  0.00000000000E+00 -0.00000000000E+00 -0.13730942585E+03  0.13730942585E+03  0.00000000000E+00 0. -1.
         25    1    1    2    0    0  0.20745349874E+03 -0.16497111816E+03  0.37386058074E+03  0.47502542858E+03  0.12500000000E+03 0.  0.
         21    1    1    2  503  501  0.22208163579E+02 -0.16836834071E+02  0.91658562348E+01  0.29337594168E+02  0.00000000000E+00 0. -1.
          1    1    1    2  501    0 -0.22966166232E+03  0.18180795223E+03  0.20323015583E+03  0.35651242176E+03  0.00000000000E+00 0. -1.
<mgrwt>
<rscale>  4 0.30310454E+03</rscale>
<asrwt>0</asrwt>
<pdfrwt beam="1">  1       21 0.21124527E-01 0.30310454E+03</pdfrwt>
<pdfrwt beam="2">  1        1 0.11131785E+00 0.30310454E+03</pdfrwt>
<totfact> 0.60529800E+03</totfact>
</mgrwt>
</event>
<event>
 5    0  0.3040647E+000  0.2549505E+03  0.7546771E-02  0.1110216E+00
         21   -1    0    0  501  502  0.00000000000E+00  0.00000000000E+00  0.19952793638E+04  0.19952793638E+04  0.00000000000E+00 0.  1.
         -3   -1    0    0    0  501 -0.00000000000E+00 -0.00000000000E+00 -0.40791769437E+02  0.40791769437E+02  0.00000000000E+00 0. -1.
         25    1    1    2    0    0 -0.82845818112E+02  0.20070533873E+03  0.91477235023E+03  0.94846165728E+03  0.12500000000E+03 0.  0.
         21    1    1    2  503  502 -0.43554526381E+02 -0.12262729896E+02  0.50123806122E+03  0.50327623164E+03  0.00000000000E+00 0.  1.
         -3    1    1    2    0  503  0.12640034449E+03 -0.18844260883E+03  0.53847718291E+03  0.58433324433E+03  0.00000000000E+00 0. -1.
<mgrwt>
<rscale>  4 0.25495052E+03</rscale>
<asrwt>0</asrwt>
<pdfrwt beam="1">  1       21 0.30696598E+00 0.25495052E+03</pdfrwt>
<pdfrwt beam="2">  1       -3 0.62756584E-02 0.25495052E+03</pdfrwt>
<totfact> 0.23286247E+02</totfact>
</mgrwt>
</event>
<event>
 5    0  0.3040647E+000  0.3121246E+03  0.7546771E-02  0.1079332E+00
         21   -1    0    0  503  502  0.00000000000E+00  0.00000000000E+00  0.10520441023E+04  0.10520441023E+04  0.00000000000E+00 0.  1.
          2   -1    0    0  502    0 -0.00000000000E+00 -0.00000000000E+00 -0.96182207765E+03  0.96182207765E+03  0.00000000000E+00 0.  1.
         25    1    1    2    0    0 -0.25450273392E+03 -0.34418734037E+02  0.96439075443E+03  0.10057985972E+04  0.12500000000E+03 0.  0.
         21    1    1    2  503  501 -0.26936976742E+02 -0.20046151782E+02  0.38706852444E+02  0.51241285536E+02  0.00000000000E+00 0. -1.
          2    1    1    2  501    0  0.28143971066E+03  0.54464885819E+02 -0.91287558222E+03  0.95682629726E+03  0.00000000000E+00 0.  1.
<mgrwt>
<rscale>  4 0.31212460E+03</rscale>
<asrwt>0</asrwt>
<pdfrwt beam="1">  1       21 0.16185294E+00 0.31212460E+03</pdfrwt>
<pdfrwt beam="2">  1        2 0.14797263E+00 0.31212460E+03</pdfrwt>
<totfact> 0.78369627E+01</totfact>
</mgrwt>
</event>
<event>
 5    0  0.3040647E+000  0.3003221E+03  0.7546771E-02  0.1085080E+00
          2   -1    0    0  502    0 -0.00000000000E+00  0.00000000000E+00  0.96795370140E+03  0.96795370140E+03  0.00000000000E+00 0.  1.
         21   -1    0    0  503  502  0.00000000000E+00 -0.00000000000E+00 -0.93192647843E+02  0.93192647843E+02  0.00000000000E+00 0.  1.
         25    1    1    2    0    0  0.26132039886E+03 -0.79246713703E+02  0.52738317137E+03  0.60689900473E+03  0.12500000000E+03 0.  0.
         21    1    1    2  503  501 -0.14527932073E+03 -0.45298650768E+01  0.13656088965E+03  0.19943790334E+03  0.00000000000E+00 0.  1.
          2    1    1    2  501    0 -0.11604107813E+03  0.83776578780E+02  0.21081699254E+03  0.25480944117E+03  0.00000000000E+00 0.  1.
<mgrwt>
<rscale>  4 0.30032215E+03</rscale>
<asrwt>0</asrwt>
<pdfrwt beam="1">  1       21 0.14337331E-01 0.30032215E+03</pdfrwt>
<pdfrwt beam="2">  1        2 0.14891595E+00 0.30032215E+03</pdfrwt>
<totfact> 0.14526143E+04</totfact>
</mgrwt>
</event>
<event>
 5    0  0.3040647E+000  0.2873392E+03  0.7546771E-02  0.1091747E+00
         21   -1    0    0  503  502  0.00000000000E+00  0.00000000000E+00  0.29359610014E+03  0.29359610014E+03  0.00000000000E+00 0. -1.
          1   -1    0    0  502    0 -0.00000000000E+00 -0.00000000000E+00 -0.35412058730E+03  0.35412058730E+03  0.00000000000E+00 0. -1.
         25    1    1    2    0    0 -0.56433277437E+02  0.26481354951E+03  0.46476253083E+02  0.30182109420E+03  0.12500000000E+03 0.  0.
         21    1    1    2  503  501  0.69156875469E+02 -0.93948316706E+01 -0.31045123217E+01  0.69861107088E+02  0.00000000000E+00 0. -1.
          1    1    1    2  501    0 -0.12723598032E+02 -0.25541871784E+03 -0.10389622793E+03  0.27603448615E+03  0.00000000000E+00 0. -1.
<mgrwt>
<rscale>  4 0.28733917E+03</rscale>
<asrwt>0</asrwt>
<pdfrwt beam="1">  1       21 0.45168631E-01 0.28733917E+03</pdfrwt>
<pdfrwt beam="2">  1        1 0.54480090E-01 0.28733917E+03</pdfrwt>
<totfact> 0.35571792E+03</totfact>
</mgrwt>
</event>
<event>
 5    0  0.3040647E+000  0.2263530E+03  0.7546771E-02  0.1129233E+00
          2   -1    0    0  502    0 -0.00000000000E+00  0.00000000000E+00  0.14127505806E+04  0.14127505806E+04  0.00000000000E+00 0.  1.
         21   -1    0    0  503  502  0.00000000000E+00 -0.00000000000E+00 -0.40443109523E+02  0.40443109523E+02  0.00000000000E+00 0.  1.
         25    1    1    2    0    0 -0.26333659034E+02 -0.20735002378E+03  0.82971083648E+03  0.86471530930E+03  0.12500000000E+03 0.  0.
         21    1    1    2  503  501  0.23710031991E+02  0.34947726624E+02  0.44348472914E+02  0.61239662499E+02  0.00000000000E+00 0.  1.
          2    1    1    2  501    0  0.26236270436E+01  0.17240229715E+03  0.49824816167E+03  0.52723871832E+03  0.00000000000E+00 0.  1.
<mgrwt>
<rscale>  4 0.22635298E+03</rscale>
<asrwt>0</asrwt>
<pdfrwt beam="1">  1       21 0.62220179E-02 0.22635298E+03</pdfrwt>
<pdfrwt beam="2">  1        2 0.21734621E+00 0.22635298E+03</pdfrwt>
<totfact> 0.35933477E+04</totfact>
</mgrwt>
</event>
<event>
 5    0  0.3040647E+000  0.2581979E+03  0.7546771E-02  0.1108231E+00
         21   -1    0    0  503  502  0.00000000000E+00  0.00000000000E+00  0.36188972678E+03  0.36188972678E+03  0.00000000000E+00 0. -1.
          2   -1    0    0  502    0 -0.00000000000E+00 -0.00000000000E+00 -0.84981595970E+03  0.84981595970E+03  0.00000000000E+00 0.  1.
         25    1    1    2    0    0  0.11167661488E+03  0.21694373026E+03  0.11570684824E+03  0.29757238302E+03  0.12500000000E+03 0.  0.
         21    1    1    2  503  501 -0.16361862015E+02 -0.13702596125E+02  0.13781008829E+03  0.13945283111E+03  0.00000000000E+00 0.  1.
          2    1    1    2  501    0 -0.95314752864E+02 -0.20324113413E+03 -0.74144316945E+03  0.77468047235E+03  0.00000000000E+00 0.  1.
<mgrwt>
<rscale>  4 0.25819791E+03</rscale>
<asrwt>0</asrwt>
<pdfrwt beam="1">  1       21 0.55675343E-01 0.25819791E+03</pdfrwt>
<pdfrwt beam="2">  1        2 0.13074092E+00 0.25819791E+03</pdfrwt>
<totfact> 0.12229312E+03</totfact>
</mgrwt>
</event>
<event>
 5    0  0.3040647E+000  0.2716365E+03  0.7546771E-02  0.1100347E+00
         -1   -1    0    0    0  501 -0.00000000000E+00  0.00000000000E+00  0.42511915972E+03  0.42511915972E+03  0.00000000000E+00 0. -1.
         21   -1    0    0  501  502  0.00000000000E+00 -0.00000000000E+00 -0.33827986218E+03  0.33827986218E+03  0.00000000000E+00 0. -1.
         25    1    1    2    0    0 -0.11407132871E+03 -0.23374919346E+03 -0.17793932673E+03  0.33902560003E+03  0.12500000000E+03 0.  0.
         21    1    1    2  503  502  0.25602745967E+01  0.23329400917E+02 -0.34613736291E+02  0.41820170889E+02  0.00000000000E+00 0.  1.
         -1    1    1    2    0  503  0.11151105411E+03  0.21041979255E+03  0.29939236056E+03  0.38255325099E+03  0.00000000000E+00 0. -1.
<mgrwt>
<rscale>  4 0.27163652E+03</rscale>
<asrwt>0</asrwt>
<pdfrwt beam="1">  1       21 0.52043055E-01 0.27163652E+03</pdfrwt>
<pdfrwt beam="2">  1       -1 0.65402948E-01 0.27163652E+03</pdfrwt>
<totfact> 0.77635070E+02</totfact>
</mgrwt>
</event>
<event>
 5    0  0.3040647E+000  0.2593219E+03  0.7546771E-02  0.1107551E+00
         21   -1    0    0  503  502  0.00000000000E+00  0.00000000000E+00  0.46986740565E+03  0.46986740565E+03  0.00000000000E+00 0.  1.
          2   -1    0    0  502    0 -0.00000000000E+00 -0.00000000000E+00 -0.15316449727E+04  0.15316449727E+04  0.00000000000E+00 0. -1.
         25    1    1    2    0    0 -0.14576172719E+03 -0.20103178922E+03  0.33005667529E+03  0.43153524803E+03  0.12500000000E+03 0.  0.
         21    1    1    2  503  501  0.14054517477E+03 -0.26640357901E+02  0.15911712407E+02  0.14392997399E+03  0.00000000000E+00 0.  1.
          2    1    1    2  501    0  0.52165524184E+01  0.22767214712E+03 -0.14077459548E+04  0.14260471564E+04  0.00000000000E+00 0. -1.
<mgrwt>
<rscale>  4 0.25932188E+03</rscale>
<asrwt>0</asrwt>
<pdfrwt beam="1">  1       21 0.72287292E-01 0.25932188E+03</pdfrwt>
<pdfrwt beam="2">  1        2 0.23563769E+00 0.25932188E+03</pdfrwt>
<totfact> 0.27783234E+02</totfact>
</mgrwt>
</event>
<event>
 5    0  0.3040647E+000  0.2907087E+03  0.7546771E-02  0.1089980E+00
         21   -1    0    0  503  502  0.00000000000E+00  0.00000000000E+00  0.84900905005E+03  0.84900905005E+03  0.00000000000E+00 0. -1.
          3   -1    0    0  502    0 -0.00000000000E+00 -0.00000000000E+00 -0.18829070099E+03  0.18829070099E+03  0.00000000000E+00 0. -1.
         25    1    1    2    0    0 -0.12747125946E+03 -0.20198449897E+03  0.40364464985E+02  0.27258200573E+03  0.12500000000E+03 0.  0.
         21    1    1    2  503  501 -0.13063504932E+02 -0.92819490153E+02  0.26974250691E+03  0.28556458630E+03  0.00000000000E+00 0. -1.
          3    1    1    2  501    0  0.14053476439E+03  0.29480398912E+03  0.35061137716E+03  0.47915315902E+03  0.00000000000E+00 0. -1.
<mgrwt>
<rscale>  4 0.29070869E+03</rscale>
<asrwt>0</asrwt>
<pdfrwt beam="1">  1       21 0.13061677E+00 0.29070869E+03</pdfrwt>
<pdfrwt beam="2">  1        3 0.28967801E-01 0.29070869E+03</pdfrwt>
<totfact> 0.23421454E+02</totfact>
</mgrwt>
</event>
<event>
 5    0  0.3040647E+000  0.2895845E+03  0.7546771E-02  0.1090566E+00
          1   -1    0    0  502    0 -0.00000000000E+00  0.00000000000E+00  0.13957327853E+04  0.13957327853E+04  0.00000000000E+00 0.  1.
         21   -1    0    0  503  502  0.00000000000E+00 -0.00000000000E+00 -0.10462222621E+03  0.10462222621E+03  0.00000000000E+00 0.  1.
         25    1    1    2    0    0 -0.18078336135E+03  0.14215820901E+03  0.45634204246E+03  0.52608425166E+03  0.12500000000E+03 0.  0.
         21    1    1    2  503  501 -0.27544545218E+02  0.47026675460E+02 -0.31838473108E+02  0.63118131674E+02  0.00000000000E+00 0.  1.
          1    1    1    2  501    0  0.20832790656E+03 -0.18918488447E+03  0.86660698973E+03  0.91115262817E+03  0.00000000000E+00 0.  1.
<mgrwt>
<rscale>  4 0.28958446E+03</rscale>
<asrwt>0</asrwt>
<pdfrwt beam="1">  1       21 0.16095728E-01 0.28958446E+03</pdfrwt>
<pdfrwt beam="2">  1        1 0.21472811E+00 0.28958446E+03</pdfrwt>
<totfact> 0.31623858E+03</totfact>
</mgrwt>
</event>
<event>
 5    0  0.3040647E+000  0.1761322E+03  0.7546771E-02  0.1171600E+00
         21   -1    0    0  503  502  0.00000000000E+00  0.00000000000E+00  0.22069077970E+03  0.22069077970E+03  0.00000000000E+00 0.  1.
          2   -1    0    0  502    0 -0.00000000000E+00 -0.00000000000E+00 -0.11523260016E+04  0.11523260016E+04  0.00000000000E+00 0. -1.
         25    1    1    2    0    0 -0.16370590580E+03 -0.11911977997E+03  0.56227399008E+02  0.24449062554E+03  0.12500000000E+03 0.  0.
         21    1    1    2  503  501  0.74876096945E+02  0.35144885551E+02  0.41076122466E+02  0.92351722837E+02  0.00000000000E+00 0.  1.
          2    1    1    2  501    0  0.88829808859E+02  0.83974894423E+02 -0.10289387434E+04  0.10361744330E+04  0.00000000000E+00 0. -1.
<mgrwt>
<rscale>  4 0.17613216E+03</rscale>
<asrwt>0</asrwt>
<pdfrwt beam="1">  1       21 0.33952427E-01 0.17613216E+03</pdfrwt>
<pdfrwt beam="2">  1        2 0.17728093E+00 0.17613216E+03</pdfrwt>
<totfact> 0.22910625E+03</totfact>
</mgrwt>
</event>
<event>
 5    0  0.3040647E+000  0.2449296E+03  0.7546771E-02  0.1116552E+00
         21   -1    0    0  503  502  0.00000000000E+00  0.00000000000E+00  0.10577129329E+03  0.10577129329E+03  0.00000000000E+00 0.  1.
          4   -1    0    0  502    0 -0.00000000000E+00 -0.00000000000E+00 -0.63700766256E+03  0.63700766256E+03  0.00000000000E+00 0. -1.
         25    1    1    2    0    0 -0.15424423122E+03 -0.15606474876E+03 -0.24635467954E+03  0.35279330606E+03  0.12500000000E+03 0.  0.
         21    1    1    2  503  501  0.29123145073E+02 -0.74695705628E+01  0.87850447229E+01  0.31322979968E+02  0.00000000000E+00 0.  1.
          4    1    1    2  501    0  0.12512108615E+03  0.16353431932E+03 -0.29366673446E+03  0.35866266982E+03  0.00000000000E+00 0. -1.
<mgrwt>
<rscale>  4 0.24492957E+03</rscale>
<asrwt>0</asrwt>
<pdfrwt beam="1">  1       21 0.16272506E-01 0.24492957E+03</pdfrwt>
<pdfrwt beam="2">  1        4 0.98001181E-01 0.24492957E+03</pdfrwt>
<totfact> 0.12770463E+03</totfact>
</mgrwt>
</event>
<event>
 5    0  0.3040647E+000  0.3951280E+03  0.7546771E-02  0.1045480E+00
         21   -1    0    0  503  502  0.00000000000E+00  0.00000000000E+00  0.15480970689E+04  0.15480970689E+04  0.00000000000E+00 0.  1.
          2   -1    0    0  502    0 -0.00000000000E+00 -0.00000000000E+00 -0.98162059355E+03  0.98162059355E+03  0.00000000000E+00 0. -1.
         25    1    1    2    0    0  0.11911505339E+03 -0.33269576254E+03  0.52624284325E+03  0.64608930994E+03  0.12500000000E+03 0.  0.
         21    1    1    2  503  501  0.11429016515E+02 -0.20172731902E+02  0.92338342152E+03  0.92367445817E+03  0.00000000000E+00 0.  1.
          2    1    1    2  501    0 -0.13054406991E+03  0.35286849444E+03 -0.88314978945E+03  0.95995389429E+03  0.00000000000E+00 0. -1.
<mgrwt>
<rscale>  4 0.39512800E+03</rscale>
<asrwt>0</asrwt>
<pdfrwt beam="1">  1       21 0.23816878E+00 0.39512800E+03</pdfrwt>
<pdfrwt beam="2">  1        2 0.15101855E+00 0.39512800E+03</pdfrwt>
<totfact> 0.22462299E+01</totfact>
</mgrwt>
</event>
<event>
 5    0  0.3040647E+000  0.2137385E+03  0.7546771E-02  0.1138639E+00
         21   -1    0    0  501  502  0.00000000000E+00  0.00000000000E+00  0.72815928059E+03  0.72815928059E+03  0.00000000000E+00 0. -1.
         -1   -1    0    0    0  501 -0.00000000000E+00 -0.00000000000E+00 -0.85651685027E+03  0.85651685027E+03  0.00000000000E+00 0. -1.
         25    1    1    2    0    0 -0.25295169546E+03  0.74169615297E+02 -0.37987969061E+02  0.29420023430E+03  0.12500000000E+03 0.  0.
         21    1    1    2  503  502  0.86080336155E+02 -0.71600503748E+02  0.58457652232E+03  0.59520262672E+03  0.00000000000E+00 0. -1.
         -1    1    1    2    0  503  0.16687135930E+03 -0.25691115491E+01 -0.67494612294E+03  0.69527326985E+03  0.00000000000E+00 0. -1.
<mgrwt>
<rscale>  4 0.21373849E+03</rscale>
<asrwt>0</asrwt>
<pdfrwt beam="1">  1       21 0.11202450E+00 0.21373849E+03</pdfrwt>
<pdfrwt beam="2">  1       -1 0.13177182E+00 0.21373849E+03</pdfrwt>
<totfact> 0.30514942E+01</totfact>
</mgrwt>
</event>
<event>
 5    0  0.3040647E+000  0.2263669E+03  0.7546771E-02  0.1129223E+00
          1   -1    0    0  502    0 -0.00000000000E+00  0.00000000000E+00  0.14816761527E+04  0.14816761527E+04  0.00000000000E+00 0. -1.
         21   -1    0    0  503  502  0.00000000000E+00 -0.00000000000E+00 -0.56912620143E+02  0.56912620143E+02  0.00000000000E+00 0. -1.
         25    1    1    2    0    0 -0.17644041047E+03 -0.16379769951E+03  0.94621428790E+03  0.98433093187E+03  0.12500000000E+03 0.  0.
         21    1    1    2  503  501  0.34003924799E+02  0.11076417402E+03  0.13076433387E+03  0.17471199203E+03  0.00000000000E+00 0. -1.
          1    1    1    2  501    0  0.14243648567E+03  0.53033525484E+02  0.34778491080E+03  0.37954584895E+03  0.00000000000E+00 0. -1.
<mgrwt>
<rscale>  4 0.22636691E+03</rscale>
<asrwt>0</asrwt>
<pdfrwt beam="1">  1       21 0.87557888E-02 0.22636691E+03</pdfrwt>
<pdfrwt beam="2">  1        1 0.22795015E+00 0.22636691E+03</pdfrwt>
<totfact> 0.84666907E+03</totfact>
</mgrwt>
</event>
<event>
 5    0  0.3040647E+000  0.2251845E+03  0.7546771E-02  0.1130076E+00
         -3   -1    0    0    0  501 -0.00000000000E+00  0.00000000000E+00  0.21840587934E+04  0.21840587934E+04  0.00000000000E+00 0. -1.
         21   -1    0    0  501  502  0.00000000000E+00 -0.00000000000E+00 -0.61358442217E+03  0.61358442217E+03  0.00000000000E+00 0.  1.
         25    1    1    2    0    0  0.17764246498E+03  0.12442023082E+03 -0.41181213315E+03  0.48192475783E+03  0.12500000000E+03 0.  0.
         21    1    1    2  503  502 -0.13891474931E+02 -0.34021768330E+02 -0.16056617479E+03  0.16471778982E+03  0.00000000000E+00 0.  1.
         -3    1    1    2    0  503 -0.16375099005E+03 -0.90398462490E+02  0.21428526791E+04  0.21510006679E+04  0.00000000000E+00 0. -1.
<mgrwt>
<rscale>  4 0.22518448E+03</rscale>
<asrwt>0</asrwt>
<pdfrwt beam="1">  1       21 0.94397605E-01 0.22518448E+03</pdfrwt>
<pdfrwt beam="2">  1       -3 0.33600904E+00 0.22518448E+03</pdfrwt>
<totfact> 0.12959280E+00</totfact>
</mgrwt>
</event>
<event>
 5    0  0.3040647E+000  0.2865486E+03  0.7546771E-02  0.1092165E+00
          1   -1    0    0  502    0 -0.00000000000E+00  0.00000000000E+00  0.29387893335E+03  0.29387893335E+03  0.00000000000E+00 0. -1.
         21   -1    0    0  503  502  0.00000000000E+00 -0.00000000000E+00 -0.42560624132E+03  0.42560624132E+03  0.00000000000E+00 0. -1.
         25    1    1    2    0    0  0.47920697536E+02  0.24874751783E+03  0.14912741987E+01  0.28248707011E+03  0.12500000000E+03 0.  0.
         21    1    1    2  503  501 -0.41321212923E+02  0.14349971832E+02 -0.16610787828E+03  0.17177075291E+03  0.00000000000E+00 0. -1.
          1    1    1    2  501    0 -0.65994846132E+01 -0.26309748966E+03  0.32889296111E+02  0.26522735165E+03  0.00000000000E+00 0. -1.
<mgrwt>
<rscale>  4 0.28654855E+03</rscale>
<asrwt>0</asrwt>
<pdfrwt beam="1">  1       21 0.65477883E-01 0.28654855E+03</pdfrwt>
<pdfrwt beam="2">  1        1 0.45212144E-01 0.28654855E+03</pdfrwt>
<totfact> 0.20408333E+03</totfact>
</mgrwt>
</event>
<event>
 5    0  0.3040647E+000  0.2543757E+03  0.7546771E-02  0.1110570E+00
          2   -1    0    0  502    0 -0.00000000000E+00  0.00000000000E+00  0.27973290309E+04  0.27973290309E+04  0.00000000000E+00 0. -1.
         21   -1    0    0  503  502  0.00000000000E+00 -0.00000000000E+00 -0.73356005706E+02  0.73356005706E+02  0.00000000000E+00 0.  1.
         25    1    1    2    0    0 -0.23824298182E+03 -0.60271115332E+01  0.20880015993E+03  0.34061496040E+03  0.12500000000E+03 0.  0.
         21    1    1    2  503  501  0.18073526119E+02  0.14353531274E+02  0.49987406337E+02  0.55058305447E+02  0.00000000000E+00 0.  1.
          2    1    1    2  501    0  0.22016945570E+03 -0.83264197406E+01  0.24651854590E+04  0.24750117708E+04  0.00000000000E+00 0. -1.
<mgrwt>
<rscale>  4 0.25437574E+03</rscale>
<asrwt>0</asrwt>
<pdfrwt beam="1">  1       21 0.11285541E-01 0.25437574E+03</pdfrwt>
<pdfrwt beam="2">  1        2 0.43035823E+00 0.25437574E+03</pdfrwt>
<totfact> 0.22667937E+03</totfact>
</mgrwt>
</event>
<event>
 5    0  0.3040647E+000  0.2567754E+03  0.7546771E-02  0.1109096E+00
          2   -1    0    0  502    0 -0.00000000000E+00  0.00000000000E+00  0.51060873057E+03  0.51060873057E+03  0.00000000000E+00 0. -1.
         21   -1    0    0  503  502  0.00000000000E+00 -0.00000000000E+00 -0.66187400180E+03  0.66187400180E+03  0.00000000000E+00 0. -1.
         25    1    1    2    0    0  0.21846887890E+03 -0.72705167251E+02 -0.11338671843E+03  0.28547546358E+03  0.12500000000E+03 0.  0.
         21    1    1    2  503  501  0.43609755450E+01  0.48927835880E+02 -0.43138101604E+03  0.43416878312E+03  0.00000000000E+00 0. -1.
          2    1    1    2  501    0 -0.22282985444E+03  0.23777331370E+02  0.39350246324E+03  0.45283848566E+03  0.00000000000E+00 0. -1.
<mgrwt>
<rscale>  4 0.25677539E+03</rscale>
<asrwt>0</asrwt>
<pdfrwt beam="1">  1       21 0.10182677E+00 0.25677539E+03</pdfrwt>
<pdfrwt beam="2">  1        2 0.78555189E-01 0.25677539E+03</pdfrwt>
<totfact> 0.57799948E+02</totfact>
</mgrwt>
</event>
<event>
 5    0  0.3040647E+000  0.2415358E+03  0.7546771E-02  0.1118774E+00
         -4   -1    0    0    0  501 -0.00000000000E+00  0.00000000000E+00  0.25193371370E+03  0.25193371370E+03  0.00000000000E+00 0. -1.
         21   -1    0    0  501  502  0.00000000000E+00 -0.00000000000E+00 -0.74659205698E+03  0.74659205698E+03  0.00000000000E+00 0. -1.
         25    1    1    2    0    0 -0.90881675463E+02 -0.22302167091E+03 -0.60610908468E+03  0.66407180874E+03  0.12500000000E+03 0.  0.
         21    1    1    2  503  502  0.51424984628E+02  0.13460363329E+03 -0.44573237065E+02  0.15082917689E+03  0.00000000000E+00 0. -1.
         -4    1    1    2    0  503  0.39456690835E+02  0.88418037616E+02  0.15602397847E+03  0.18362478505E+03  0.00000000000E+00 0. -1.
<mgrwt>
<rscale>  4 0.24153576E+03</rscale>
<asrwt>0</asrwt>
<pdfrwt beam="1">  1       21 0.11486032E+00 0.24153576E+03</pdfrwt>
<pdfrwt beam="2">  1       -4 0.38759033E-01 0.24153576E+03</pdfrwt>
<totfact> 0.15813129E+02</totfact>
</mgrwt>
</event>
<event>
 5    0  0.3040647E+000  0.2056641E+03  0.7546771E-02  0.1145046E+00
         21   -1    0    0  503  502  0.00000000000E+00  0.00000000000E+00  0.28012441678E+03  0.28012441678E+03  0.00000000000E+00 0.  1.
          4   -1    0    0  502    0 -0.00000000000E+00 -0.00000000000E+00 -0.34646618340E+03  0.34646618340E+03  0.00000000000E+00 0.  1.
         25    1    1    2    0    0  0.12485321288E+03  0.21072346734E+03  0.70247431689E+02  0.28381755779E+03  0.12500000000E+03 0.  0.
         21    1    1    2  503  501 -0.42199690291E+02 -0.12013667033E+03  0.34827248688E+02  0.13200973703E+03  0.00000000000E+00 0.  1.
          4    1    1    2  501    0 -0.82653522586E+02 -0.90586797000E+02 -0.17141644699E+03  0.21076330536E+03  0.00000000000E+00 0.  1.
<mgrwt>
<rscale>  4 0.20566414E+03</rscale>
<asrwt>0</asrwt>
<pdfrwt beam="1">  1       21 0.43096065E-01 0.20566414E+03</pdfrwt>
<pdfrwt beam="2">  1        4 0.53302489E-01 0.20566414E+03</pdfrwt>
<totfact> 0.73975584E+02</totfact>
</mgrwt>
</event>
<event>
 5    0  0.3040647E+000  0.2952767E+03  0.7546771E-02  0.1087626E+00
          2   -1    0    0  502    0 -0.00000000000E+00  0.00000000000E+00  0.24963166735E+04  0.24963166735E+04  0.00000000000E+00 0. -1.
         21   -1    0    0  503  502  0.00000000000E+00 -0.00000000000E+00 -0.20189737146E+03  0.20189737146E+03  0.00000000000E+00 0. -1.
         25    1    1    2    0    0 -0.22026577647E+03 -0.17431019050E+03 -0.57680236835E+02  0.31281474472E+03  0.12500000000E+03 0.  0.
         21    1    1    2  503  501 -0.12076168485E+01  0.25187345370E+02  0.84565209506E+01  0.26596493224E+02  0.00000000000E+00 0. -1.
          2    1    1    2  501    0  0.22147339332E+03  0.14912284513E+03  0.23436430179E+04  0.23588028070E+04  0.00000000000E+00 0. -1.
<mgrwt>
<rscale>  4 0.29527671E+03</rscale>
<asrwt>0</asrwt>
<pdfrwt beam="1">  1       21 0.31061136E-01 0.29527671E+03</pdfrwt>
<pdfrwt beam="2">  1        2 0.38404870E+00 0.29527671E+03</pdfrwt>
<totfact> 0.48931389E+02</totfact>
</mgrwt>
</event>
<event>
 5    0  0.3040647E+000  0.4628797E+03  0.7546771E-02  0.1024001E+00
         21   -1    0    0  503  502  0.00000000000E+00  0.00000000000E+00  0.58827055398E+03  0.58827055398E+03  0.00000000000E+00 0. -1.
          2   -1    0    0  502    0 -0.00000000000E+00 -0.00000000000E+00 -0.42852018081E+03  0.42852018081E+03  0.00000000000E+00 0. -1.
         25    1    1    2    0    0  0.30558015692E+03  0.32340476662E+03  0.27762420558E+03  0.53913827067E+03  0.12500000000E+03 0.  0.
         21    1    1    2  503  501 -0.44653944609E+02  0.77343925121E+00  0.16337124754E+01  0.44690513466E+02  0.00000000000E+00 0.  1.
          2    1    1    2  501    0 -0.26092621231E+03 -0.32417820587E+03 -0.11950754489E+03  0.43296195066E+03  0.00000000000E+00 0. -1.
<mgrwt>
<rscale>  4 0.46270050E+03</rscale>
<asrwt>0</asrwt>
<pdfrwt beam="1">  1       21 0.90503162E-01 0.46287972E+03</pdfrwt>
<pdfrwt beam="2">  1        2 0.65926182E-01 0.46287972E+03</pdfrwt>
<totfact> 0.87199651E+02</totfact>
</mgrwt>
</event>
<event>
 5    0  0.3040647E+000  0.2699407E+03  0.7546771E-02  0.1101314E+00
          2   -1    0    0  502    0 -0.00000000000E+00  0.00000000000E+00  0.20743520499E+04  0.20743520499E+04  0.00000000000E+00 0.  1.
         21   -1    0    0  503  502  0.00000000000E+00 -0.00000000000E+00 -0.89746294974E+02  0.89746294974E+02  0.00000000000E+00 0. -1.
         25    1    1    2    0    0 -0.24932761463E+03  0.60471021242E+02  0.42760986522E+03  0.51409746222E+03  0.12500000000E+03 0.  0.
         21    1    1    2  503  501  0.24806480864E+02  0.11873098140E+02 -0.32797843314E+02  0.42802225157E+02  0.00000000000E+00 0. -1.
          2    1    1    2  501    0  0.22452113376E+03 -0.72344119381E+02  0.15897937330E+04  0.16071986575E+04  0.00000000000E+00 0.  1.
<mgrwt>
<rscale>  4 0.26994067E+03</rscale>
<asrwt>0</asrwt>
<pdfrwt beam="1">  1       21 0.13807124E-01 0.26994067E+03</pdfrwt>
<pdfrwt beam="2">  1        2 0.31913105E+00 0.26994067E+03</pdfrwt>
<totfact> 0.38751492E+03</totfact>
</mgrwt>
</event>
<event>
 5    0  0.3040647E+000  0.2843251E+03  0.7546771E-02  0.1093350E+00
          1   -1    0    0  502    0 -0.00000000000E+00  0.00000000000E+00  0.11486015824E+04  0.11486015824E+04  0.00000000000E+00 0.  1.
         21   -1    0    0  503  502  0.00000000000E+00 -0.00000000000E+00 -0.17808095431E+03  0.17808095431E+03  0.00000000000E+00 0.  1.
         25    1    1    2    0    0 -0.26616703408E+03  0.60804203546E+02  0.32505953214E+03  0.44252767217E+03  0.12500000000E+03 0.  0.
         21    1    1    2  503  501  0.23139658776E+02 -0.54155465589E+01 -0.97573660389E+02  0.10042604819E+03  0.00000000000E+00 0.  1.
          1    1    1    2  501    0  0.24302737530E+03 -0.55388656987E+02  0.74303475635E+03  0.78372881637E+03  0.00000000000E+00 0.  1.
<mgrwt>
<rscale>  4 0.28432510E+03</rscale>
<asrwt>0</asrwt>
<pdfrwt beam="1">  1       21 0.27397071E-01 0.28432510E+03</pdfrwt>
<pdfrwt beam="2">  1        1 0.17670793E+00 0.28432510E+03</pdfrwt>
<totfact> 0.17140586E+03</totfact>
</mgrwt>
</event>
<event>
 5    0  0.3040647E+000  0.2767858E+03  0.7546771E-02  0.1097458E+00
         21   -1    0    0  503  502  0.00000000000E+00  0.00000000000E+00  0.21218234055E+03  0.21218234055E+03  0.00000000000E+00 0.  1.
          2   -1    0    0  502    0 -0.00000000000E+00 -0.00000000000E+00 -0.32462030308E+04  0.32462030308E+04  0.00000000000E+00 0.  1.
         25    1    1    2    0    0 -0.19672052476E+03  0.82084102328E+02 -0.12551333547E+04  0.12792269161E+04  0.12500000000E+03 0.  0.
         21    1    1    2  503  501 -0.51942667878E+02  0.32061261858E+02  0.18576940703E+03  0.19554088536E+03  0.00000000000E+00 0.  1.
          2    1    1    2  501    0  0.24866319264E+03 -0.11414536419E+03 -0.19646567426E+04  0.19836175699E+04  0.00000000000E+00 0.  1.
<mgrwt>
<rscale>  4 0.27678584E+03</rscale>
<asrwt>0</asrwt>
<pdfrwt beam="1">  1       21 0.32643438E-01 0.27678584E+03</pdfrwt>
<pdfrwt beam="2">  1        2 0.49941584E+00 0.27678584E+03</pdfrwt>
<totfact> 0.16411466E+02</totfact>
</mgrwt>
</event>
<event>
 5    0  0.3040647E+000  0.1959800E+03  0.7546771E-02  0.1153176E+00
          1   -1    0    0  502    0 -0.00000000000E+00  0.00000000000E+00  0.26528588742E+04  0.26528588742E+04  0.00000000000E+00 0. -1.
         21   -1    0    0  503  502  0.00000000000E+00 -0.00000000000E+00 -0.59579174156E+02  0.59579174156E+02  0.00000000000E+00 0. -1.
         25    1    1    2    0    0  0.12761161423E+03 -0.15407828978E+03  0.30561606170E+03  0.38607126368E+03  0.12500000000E+03 0.  0.
         21    1    1    2  503  501 -0.10762705518E+03  0.58521989898E+01  0.15687616787E+03  0.19033644760E+03  0.00000000000E+00 0. -1.
          1    1    1    2  501    0 -0.19984559051E+02  0.14822609079E+03  0.21307874704E+04  0.21360303370E+04  0.00000000000E+00 0. -1.
<mgrwt>
<rscale>  4 0.19597998E+03</rscale>
<asrwt>0</asrwt>
<pdfrwt beam="1">  1       21 0.91660288E-02 0.19597998E+03</pdfrwt>
<pdfrwt beam="2">  1        1 0.40813204E+00 0.19597998E+03</pdfrwt>
<totfact> 0.13669750E+03</totfact>
</mgrwt>
</event>
<event>
 5    0  0.3040647E+000  0.3068402E+03  0.7546771E-02  0.1081870E+00
          2   -1    0    0  502    0 -0.00000000000E+00  0.00000000000E+00  0.12960442522E+04  0.12960442522E+04  0.00000000000E+00 0. -1.
         21   -1    0    0  503  502  0.00000000000E+00 -0.00000000000E+00 -0.19050496462E+03  0.19050496462E+03  0.00000000000E+00 0. -1.
         25    1    1    2    0    0  0.40536717399E+03  0.35764789786E+02  0.23864018142E+03  0.48803258305E+03  0.12500000000E+03 0.  0.
         21    1    1    2  503  501 -0.20667863901E+03 -0.22958229592E+02  0.15516754965E+03  0.25946118899E+03  0.00000000000E+00 0. -1.
          2    1    1    2  501    0 -0.19868853497E+03 -0.12806560193E+02  0.71173155646E+03  0.73905544473E+03  0.00000000000E+00 0. -1.
<mgrwt>
<rscale>  4 0.30684016E+03</rscale>
<asrwt>0</asrwt>
<pdfrwt beam="1">  1       21 0.29308457E-01 0.30684016E+03</pdfrwt>
<pdfrwt beam="2">  1        2 0.19939142E+00 0.30684016E+03</pdfrwt>
<totfact> 0.24015533E+03</totfact>
</mgrwt>
</event>
<event>
 5    0  0.3040647E+000  0.4065131E+03  0.7546771E-02  0.1041547E+00
          1   -1    0    0  502    0 -0.00000000000E+00  0.00000000000E+00  0.35842354471E+04  0.35842354471E+04  0.00000000000E+00 0.  1.
         21   -1    0    0  503  502  0.00000000000E+00 -0.00000000000E+00 -0.99259734052E+02  0.99259734052E+02  0.00000000000E+00 0. -1.
         25    1    1    2    0    0 -0.31447252020E+03  0.51250246765E+02  0.33343672273E+03  0.47783323641E+03  0.12500000000E+03 0.  0.
         21    1    1    2  503  501 -0.85684093238E+02 -0.53103669614E+02  0.17193572459E+03  0.19930794503E+03  0.00000000000E+00 0. -1.
          1    1    1    2  501    0  0.40015661344E+03  0.18534228488E+01  0.29796032657E+04  0.30063539997E+04  0.00000000000E+00 0.  1.
<mgrwt>
<rscale>  4 0.40651315E+03</rscale>
<asrwt>0</asrwt>
<pdfrwt beam="1">  1       21 0.15270731E-01 0.40651315E+03</pdfrwt>
<pdfrwt beam="2">  1        1 0.55142074E+00 0.40651315E+03</pdfrwt>
<totfact> 0.10473720E+02</totfact>
</mgrwt>
</event>
<event>
 5    0  0.3040647E+000  0.3015314E+03  0.7546771E-02  0.1084478E+00
          4   -1    0    0  502    0 -0.00000000000E+00  0.00000000000E+00  0.68814706218E+03  0.68814706218E+03  0.00000000000E+00 0.  1.
         21   -1    0    0  503  502  0.00000000000E+00 -0.00000000000E+00 -0.14903216717E+03  0.14903216717E+03  0.00000000000E+00 0.  1.
         25    1    1    2    0    0 -0.72286932224E+02 -0.24570956214E+03  0.11316607794E+03  0.30664336075E+03  0.12500000000E+03 0.  0.
         21    1    1    2  503  501 -0.12193993905E+02 -0.24042486500E+02  0.12553449358E+02  0.29737581194E+02  0.00000000000E+00 0.  1.
          4    1    1    2  501    0  0.84480926129E+02  0.26975204864E+03  0.41339536772E+03  0.50079828741E+03  0.00000000000E+00 0.  1.
<mgrwt>
<rscale>  4 0.30153140E+03</rscale>
<asrwt>0</asrwt>
<pdfrwt beam="1">  1       21 0.22928026E-01 0.30153140E+03</pdfrwt>
<pdfrwt beam="2">  1        4 0.10586878E+00 0.30153140E+03</pdfrwt>
<totfact> 0.55858279E+02</totfact>
</mgrwt>
</event>
<event>
 5    0  0.3040647E+000  0.2860417E+03  0.7546771E-02  0.1092434E+00
          2   -1    0    0  502    0 -0.00000000000E+00  0.00000000000E+00  0.18526702081E+04  0.18526702081E+04  0.00000000000E+00 0.  1.
         21   -1    0    0  503  502  0.00000000000E+00 -0.00000000000E+00 -0.99765408382E+02  0.99765408382E+02  0.00000000000E+00 0.  1.
         25    1    1    2    0    0  0.19118053465E+03 -0.11707262972E+03  0.37381271544E+03  0.45345004541E+03  0.12500000000E+03 0.  0.
         21    1    1    2  503  501  0.38037396977E+02 -0.21228142607E+02 -0.37402985394E+02  0.57414814497E+02  0.00000000000E+00 0.  1.
          2    1    1    2  501    0 -0.22921793163E+03  0.13830077233E+03  0.14164950697E+04  0.14415707566E+04  0.00000000000E+00 0.  1.
<mgrwt>
<rscale>  4 0.28604169E+03</rscale>
<asrwt>0</asrwt>
<pdfrwt beam="1">  1       21 0.15348526E-01 0.28604169E+03</pdfrwt>
<pdfrwt beam="2">  1        2 0.28502616E+00 0.28604169E+03</pdfrwt>
<totfact> 0.41515431E+03</totfact>
</mgrwt>
</event>
<event>
 5    0  0.3040647E+000  0.2112595E+03  0.7546771E-02  0.1140572E+00
          2   -1    0    0  502    0 -0.00000000000E+00  0.00000000000E+00  0.16443820350E+04  0.16443820350E+04  0.00000000000E+00 0. -1.
         21   -1    0    0  503  502  0.00000000000E+00 -0.00000000000E+00 -0.52443027623E+02  0.52443027623E+02  0.00000000000E+00 0. -1.
         25    1    1    2    0    0  0.70361675311E+02  0.21676724578E+03  0.75721969715E+03  0.80059070314E+03  0.12500000000E+03 0.  0.
         21    1    1    2  503  501 -0.32287233004E+02 -0.70208359797E+02  0.39614214445E+02  0.86838730913E+02  0.00000000000E+00 0. -1.
          2    1    1    2  501    0 -0.38074442307E+02 -0.14655888598E+03  0.79510509574E+03  0.80939562853E+03  0.00000000000E+00 0. -1.
<mgrwt>
<rscale>  4 0.21125948E+03</rscale>
<asrwt>0</asrwt>
<pdfrwt beam="1">  1       21 0.80681594E-02 0.21125948E+03</pdfrwt>
<pdfrwt beam="2">  1        2 0.25298181E+00 0.21125948E+03</pdfrwt>
<totfact> 0.17324917E+04</totfact>
</mgrwt>
</event>
<event>
 5    0  0.3040647E+000  0.2571290E+03  0.7546771E-02  0.1108881E+00
          1   -1    0    0  502    0 -0.00000000000E+00  0.00000000000E+00  0.91600945482E+03  0.91600945482E+03  0.00000000000E+00 0. -1.
         21   -1    0    0  503  502  0.00000000000E+00 -0.00000000000E+00 -0.82979121732E+02  0.82979121732E+02  0.00000000000E+00 0.  1.
         25    1    1    2    0    0 -0.56502927152E+02  0.21030008625E+03  0.22421095343E+03  0.33662183335E+03  0.12500000000E+03 0.  0.
         21    1    1    2  503  501 -0.24081667444E+02  0.25848668620E+01  0.21156003061E+02  0.32158742343E+02  0.00000000000E+00 0.  1.
          1    1    1    2  501    0  0.80584594596E+02 -0.21288495311E+03  0.58766337661E+03  0.63020800086E+03  0.00000000000E+00 0. -1.
<mgrwt>
<rscale>  4 0.25712896E+03</rscale>
<asrwt>0</asrwt>
<pdfrwt beam="1">  1       21 0.12766019E-01 0.25712896E+03</pdfrwt>
<pdfrwt beam="2">  1        1 0.14092452E+00 0.25712896E+03</pdfrwt>
<totfact> 0.10750058E+04</totfact>
</mgrwt>
</event>
<event>
 5    0  0.3040647E+000  0.1741981E+03  0.7546771E-02  0.1173539E+00
         21   -1    0    0  503  502  0.00000000000E+00  0.00000000000E+00  0.14450205126E+03  0.14450205126E+03  0.00000000000E+00 0.  1.
          2   -1    0    0  502    0 -0.00000000000E+00 -0.00000000000E+00 -0.53983106323E+03  0.53983106323E+03  0.00000000000E+00 0.  1.
         25    1    1    2    0    0 -0.81556958922E+02 -0.19160640232E+03 -0.27290013293E+03  0.36532729642E+03  0.12500000000E+03 0.  0.
         21    1    1    2  503  501  0.48160193507E+02  0.10051304569E+03  0.49215705005E+02  0.12183785213E+03  0.00000000000E+00 0.  1.
          2    1    1    2  501    0  0.33396765415E+02  0.91093356626E+02 -0.17164458404E+03  0.19716796594E+03  0.00000000000E+00 0.  1.
<mgrwt>
<rscale>  4 0.17419809E+03</rscale>
<asrwt>0</asrwt>
<pdfrwt beam="1">  1       21 0.22231085E-01 0.17419809E+03</pdfrwt>
<pdfrwt beam="2">  1        2 0.83050934E-01 0.17419809E+03</pdfrwt>
<totfact> 0.13591427E+04</totfact>
</mgrwt>
</event>
<event>
 5    0  0.3040647E+000  0.2570015E+03  0.7546771E-02  0.1108958E+00
         21   -1    0    0  501  502  0.00000000000E+00  0.00000000000E+00  0.89689922254E+03  0.89689922254E+03  0.00000000000E+00 0.  1.
         -2   -1    0    0    0  501 -0.00000000000E+00 -0.00000000000E+00 -0.69817739379E+03  0.69817739379E+03  0.00000000000E+00 0.  1.
         25    1    1    2    0    0 -0.57115069524E+01 -0.30902363726E+03  0.46259640345E+03  0.57021808300E+03  0.12500000000E+03 0.  0.
         21    1    1    2  503  502  0.16828065692E+02  0.18702154712E+03  0.35090691566E+03  0.39798983195E+03  0.00000000000E+00 0.  1.
         -2    1    1    2    0  503 -0.11116558740E+02  0.12200209014E+03 -0.61478149036E+03  0.62686870138E+03  0.00000000000E+00 0.  1.
<mgrwt>
<rscale>  4 0.25700151E+03</rscale>
<asrwt>0</asrwt>
<pdfrwt beam="1">  1       21 0.13798450E+00 0.25700151E+03</pdfrwt>
<pdfrwt beam="2">  1       -2 0.10741191E+00 0.25700151E+03</pdfrwt>
<totfact> 0.21111171E+01</totfact>
</mgrwt>
</event>
<event>
 5    0  0.3040647E+000  0.2150695E+03  0.7546771E-02  0.1137613E+00
          3   -1    0    0  502    0 -0.00000000000E+00  0.00000000000E+00  0.39795445879E+03  0.39795445879E+03  0.00000000000E+00 0.  1.
         21   -1    0    0  503  502  0.00000000000E+00 -0.00000000000E+00 -0.19015805869E+03  0.19015805869E+03  0.00000000000E+00 0.  1.
         25    1    1    2    0    0  0.20953600900E+03 -0.44786728133E+02  0.90627153066E+02  0.26410125134E+03  0.12500000000E+03 0.  0.
         21    1    1    2  503  501 -0.15583734644E+03  0.38775779029E+02 -0.33412653717E+02  0.16402818359E+03  0.00000000000E+00 0.  1.
          3    1    1    2  501    0 -0.53698662563E+02  0.60109491033E+01  0.15058190075E+03  0.15998308255E+03  0.00000000000E+00 0.  1.
<mgrwt>
<rscale>  4 0.21506946E+03</rscale>
<asrwt>0</asrwt>
<pdfrwt beam="1">  1       21 0.29255086E-01 0.21506946E+03</pdfrwt>
<pdfrwt beam="2">  1        3 0.61223763E-01 0.21506946E+03</pdfrwt>
<totfact> 0.14576496E+03</totfact>
</mgrwt>
</event>
<event>
 5    0  0.3040647E+000  0.2329128E+03  0.7546771E-02  0.1124606E+00
         21   -1    0    0  503  502  0.00000000000E+00  0.00000000000E+00  0.80471388082E+03  0.80471388082E+03  0.00000000000E+00 0. -1.
          4   -1    0    0  502    0 -0.00000000000E+00 -0.00000000000E+00 -0.15404526390E+03  0.15404526390E+03  0.00000000000E+00 0.  1.
         25    1    1    2    0    0 -0.16525788218E+03 -0.17864496061E+03  0.19434381981E+03  0.33558711219E+03  0.12500000000E+03 0.  0.
         21    1    1    2  503  501  0.47049680474E+02  0.44136117374E+02  0.43849757413E+03  0.44321754456E+03  0.00000000000E+00 0. -1.
          4    1    1    2  501    0  0.11820820171E+03  0.13450884323E+03  0.17827222980E+02  0.17995448796E+03  0.00000000000E+00 0.  1.
<mgrwt>
<rscale>  4 0.23291284E+03</rscale>
<asrwt>0</asrwt>
<pdfrwt beam="1">  1       21 0.12380213E+00 0.23291284E+03</pdfrwt>
<pdfrwt beam="2">  1        4 0.23699272E-01 0.23291284E+03</pdfrwt>
<totfact> 0.33725015E+02</totfact>
</mgrwt>
</event>
<event>
 5    0  0.3040647E+000  0.3385959E+03  0.7546771E-02  0.1067396E+00
         21   -1    0    0  503  502  0.00000000000E+00  0.00000000000E+00  0.68821149045E+03  0.68821149045E+03  0.00000000000E+00 0.  1.
          1   -1    0    0  502    0 -0.00000000000E+00 -0.00000000000E+00 -0.22862980694E+03  0.22862980694E+03  0.00000000000E+00 0.  1.
         25    1    1    2    0    0 -0.70206945578E+02  0.28893949003E+03  0.34100629927E+03  0.46938826173E+03  0.12500000000E+03 0.  0.
         21    1    1    2  503  501 -0.10487039518E+02  0.22225051909E+02  0.12353668020E+03  0.12595730342E+03  0.00000000000E+00 0.  1.
          1    1    1    2  501    0  0.80693985096E+02 -0.31116454194E+03 -0.49612959537E+01  0.32149573224E+03  0.00000000000E+00 0.  1.
<mgrwt>
<rscale>  4 0.33859590E+03</rscale>
<asrwt>0</asrwt>
<pdfrwt beam="1">  1       21 0.10587869E+00 0.33859590E+03</pdfrwt>
<pdfrwt beam="2">  1        1 0.35173817E-01 0.33859590E+03</pdfrwt>
<totfact> 0.90882799E+02</totfact>
</mgrwt>
</event>
<event>
 5    0  0.3040647E+000  0.2805740E+03  0.7546771E-02  0.1095376E+00
          2   -1    0    0  502    0 -0.00000000000E+00  0.00000000000E+00  0.26740017266E+04  0.26740017266E+04  0.00000000000E+00 0.  1.
         21   -1    0    0  503  502  0.00000000000E+00 -0.00000000000E+00 -0.46865397672E+03  0.46865397672E+03  0.00000000000E+00 0.  1.
         25    1    1    2    0    0 -0.24377495768E+03 -0.33555760369E+03  0.99187559860E+03  0.10823434476E+04  0.12500000000E+03 0.  0.
         21    1    1    2  503  501  0.16465434190E+03  0.18221671318E+03 -0.38276393249E+03  0.45477710022E+03  0.00000000000E+00 0.  1.
          2    1    1    2  501    0  0.79120615784E+02  0.15334089051E+03  0.15962360838E+04  0.16055351556E+04  0.00000000000E+00 0.  1.
<mgrwt>
<rscale>  4 0.28057402E+03</rscale>
<asrwt>0</asrwt>
<pdfrwt beam="1">  1       21 0.72100614E-01 0.28057402E+03</pdfrwt>
<pdfrwt beam="2">  1        2 0.41138487E+00 0.28057402E+03</pdfrwt>
<totfact> 0.67421074E+01</totfact>
</mgrwt>
</event>
<event>
 5    0  0.3040647E+000  0.3260418E+03  0.7546771E-02  0.1072902E+00
          4   -1    0    0  502    0 -0.00000000000E+00  0.00000000000E+00  0.36708299166E+03  0.36708299166E+03  0.00000000000E+00 0.  1.
         21   -1    0    0  503  502  0.00000000000E+00 -0.00000000000E+00 -0.64072323859E+03  0.64072323859E+03  0.00000000000E+00 0. -1.
         25    1    1    2    0    0  0.24778614261E+03 -0.11348479790E+03 -0.47478197911E+02  0.30357198669E+03  0.12500000000E+03 0.  0.
         21    1    1    2  503  501  0.40453812746E+02 -0.22075401550E+02 -0.35694260162E+03  0.35990534196E+03  0.00000000000E+00 0. -1.
          4    1    1    2  501    0 -0.28823995536E+03  0.13556019945E+03  0.13078055260E+03  0.34432890160E+03  0.00000000000E+00 0.  1.
<mgrwt>
<rscale>  4 0.32604185E+03</rscale>
<asrwt>0</asrwt>
<pdfrwt beam="1">  1       21 0.98572806E-01 0.32604185E+03</pdfrwt>
<pdfrwt beam="2">  1        4 0.56474306E-01 0.32604185E+03</pdfrwt>
<totfact> 0.10432152E+02</totfact>
</mgrwt>
</event>
<event>
 5    0  0.3040647E+000  0.2858027E+03  0.7546771E-02  0.1092561E+00
         21   -1    0    0  503  502  0.00000000000E+00  0.00000000000E+00  0.28363144831E+03  0.28363144831E+03  0.00000000000E+00 0.  1.
          2   -1    0    0  502    0 -0.00000000000E+00 -0.00000000000E+00 -0.65601151561E+03  0.65601151561E+03  0.00000000000E+00 0.  1.
         25    1    1    2    0    0  0.17030810847E+03  0.16010233497E+03 -0.45131953575E+03  0.52340417730E+03  0.12500000000E+03 0.  0.
         21    1    1    2  503  501 -0.21207699110E+03 -0.15148370310E+03  0.17310000418E+03  0.31286989933E+03  0.00000000000E+00 0.  1.
          2    1    1    2  501    0  0.41768882628E+02 -0.86186318700E+01 -0.94160535734E+02  0.10336888730E+03  0.00000000000E+00 0.  1.
<mgrwt>
<rscale>  4 0.28580273E+03</rscale>
<asrwt>0</asrwt>
<pdfrwt beam="1">  1       21 0.43635608E-01 0.28580273E+03</pdfrwt>
<pdfrwt beam="2">  1        2 0.10092485E+00 0.28580273E+03</pdfrwt>
<totfact> 0.27901379E+03</totfact>
</mgrwt>
</event>
<event>
 5    0  0.3040647E+000  0.3262327E+03  0.7546771E-02  0.1072816E+00
         -2   -1    0    0    0  501 -0.00000000000E+00  0.00000000000E+00  0.91446051860E+03  0.91446051860E+03  0.00000000000E+00 0.  1.
         21   -1    0    0  501  502  0.00000000000E+00 -0.00000000000E+00 -0.81928443565E+03  0.81928443565E+03  0.00000000000E+00 0.  1.
         25    1    1    2    0    0  0.14115347772E+03 -0.23483063555E+03 -0.67236470972E+03  0.73672860305E+03  0.12500000000E+03 0.  0.
         21    1    1    2  503  502  0.57907243281E+00 -0.32250043104E+02 -0.85816056872E+02  0.91677675702E+02  0.00000000000E+00 0.  1.
         -2    1    1    2    0  503 -0.14173255015E+03  0.26708067866E+03  0.85335684954E+03  0.90533867549E+03  0.00000000000E+00 0.  1.
<mgrwt>
<rscale>  4 0.32623273E+03</rscale>
<asrwt>0</asrwt>
<pdfrwt beam="1">  1       21 0.12604376E+00 0.32623273E+03</pdfrwt>
<pdfrwt beam="2">  1       -2 0.14068623E+00 0.32623273E+03</pdfrwt>
<totfact> 0.13210491E+01</totfact>
</mgrwt>
</event>
<event>
 5    0  0.3040647E+000  0.2890017E+03  0.7546771E-02  0.1090872E+00
          2   -1    0    0  502    0 -0.00000000000E+00  0.00000000000E+00  0.68270309224E+03  0.68270309224E+03  0.00000000000E+00 0.  1.
         21   -1    0    0  503  502  0.00000000000E+00 -0.00000000000E+00 -0.20164715572E+03  0.20164715572E+03  0.00000000000E+00 0.  1.
         25    1    1    2    0    0 -0.91533249125E+02 -0.22340098917E+03  0.70967356188E+01  0.27195900668E+03  0.12500000000E+03 0.  0.
         21    1    1    2  503  501 -0.10402748352E+01 -0.25242654397E+02 -0.32189225385E+02  0.40919677462E+02  0.00000000000E+00 0. -1.
          2    1    1    2  501    0  0.92573523960E+02  0.24864364357E+03  0.50614842629E+03  0.57147156382E+03  0.00000000000E+00 0.  1.
<mgrwt>
<rscale>  4 0.28900168E+03</rscale>
<asrwt>0</asrwt>
<pdfrwt beam="1">  1       21 0.31022640E-01 0.28900168E+03</pdfrwt>
<pdfrwt beam="2">  1        2 0.10503124E+00 0.28900168E+03</pdfrwt>
<totfact> 0.52885760E+03</totfact>
</mgrwt>
</event>
<event>
 5    0  0.3040647E+000  0.2275692E+03  0.7546771E-02  0.1128362E+00
          2   -1    0    0  502    0 -0.00000000000E+00  0.00000000000E+00  0.12471908575E+04  0.12471908575E+04  0.00000000000E+00 0. -1.
         21   -1    0    0  503  502  0.00000000000E+00 -0.00000000000E+00 -0.33137657629E+03  0.33137657629E+03  0.00000000000E+00 0.  1.
         25    1    1    2    0    0 -0.20126284962E+03 -0.67124614661E+02 -0.26457591774E+03  0.36143860444E+03  0.12500000000E+03 0.  0.
         21    1    1    2  503  501  0.22351108955E+02  0.42647049138E+01  0.11979418451E+01  0.22785847453E+02  0.00000000000E+00 0.  1.
          2    1    1    2  501    0  0.17891174066E+03  0.62859909747E+02  0.11791922571E+04  0.11943429819E+04  0.00000000000E+00 0. -1.
<mgrwt>
<rscale>  4 0.22756916E+03</rscale>
<asrwt>0</asrwt>
<pdfrwt beam="1">  1       21 0.50981012E-01 0.22756916E+03</pdfrwt>
<pdfrwt beam="2">  1        2 0.19187551E+00 0.22756916E+03</pdfrwt>
<totfact> 0.86091855E+02</totfact>
</mgrwt>
</event>
<event>
 5    0  0.3040647E+000  0.6896065E+03  0.7546771E-02  0.9735173E-01
          2   -1    0    0  502    0 -0.00000000000E+00  0.00000000000E+00  0.31548968909E+04  0.31548968909E+04  0.00000000000E+00 0.  1.
         21   -1    0    0  503  502  0.00000000000E+00 -0.00000000000E+00 -0.37420921679E+03  0.37420921679E+03  0.00000000000E+00 0. -1.
         25    1    1    2    0    0  0.92677257318E+03 -0.88226028566E+02  0.86875129335E+03  0.12794706109E+04  0.12500000000E+03 0.  0.
         21    1    1    2  503  501 -0.34760484115E+03 -0.12801006408E+03  0.18233896232E+03  0.41287189209E+03  0.00000000000E+00 0. -1.
          2    1    1    2  501    0 -0.57916773202E+03  0.21623609265E+03  0.17295974184E+04  0.18367636047E+04  0.00000000000E+00 0.  1.
<mgrwt>
<rscale>  4 0.68960649E+03</rscale>
<asrwt>0</asrwt>
<pdfrwt beam="1">  1       21 0.57570651E-01 0.68960649E+03</pdfrwt>
<pdfrwt beam="2">  1        2 0.48536874E+00 0.68960649E+03</pdfrwt>
<totfact> 0.47717398E+01</totfact>
</mgrwt>
</event>
<event>
 5    0  0.3040647E+000  0.2501626E+03  0.7546771E-02  0.1113202E+00
         21   -1    0    0  503  502  0.00000000000E+00  0.00000000000E+00  0.22362586960E+03  0.22362586960E+03  0.00000000000E+00 0. -1.
          2   -1    0    0  502    0 -0.00000000000E+00 -0.00000000000E+00 -0.28233787834E+03  0.28233787834E+03  0.00000000000E+00 0.  1.
         25    1    1    2    0    0 -0.73656186209E+02  0.19302955642E+03 -0.67014962514E+02  0.25060257106E+03  0.12500000000E+03 0.  0.
         21    1    1    2  503  501 -0.16756659546E+02  0.17764782160E+02  0.89071700928E+01  0.25994437932E+02  0.00000000000E+00 0. -1.
          2    1    1    2  501    0  0.90412845754E+02 -0.21079433858E+03 -0.60421631795E+00  0.22936673894E+03  0.00000000000E+00 0.  1.
<mgrwt>
<rscale>  4 0.25016260E+03</rscale>
<asrwt>0</asrwt>
<pdfrwt beam="1">  1       21 0.34403980E-01 0.25016260E+03</pdfrwt>
<pdfrwt beam="2">  1        2 0.43436597E-01 0.25016260E+03</pdfrwt>
<totfact> 0.11656334E+04</totfact>
</mgrwt>
</event>
<event>
 5    0  0.3040647E+000  0.2152265E+03  0.7546771E-02  0.1137493E+00
         21   -1    0    0  501  502  0.00000000000E+00  0.00000000000E+00  0.33867452870E+03  0.33867452870E+03  0.00000000000E+00 0. -1.
         -4   -1    0    0    0  501 -0.00000000000E+00 -0.00000000000E+00 -0.60135684071E+03  0.60135684071E+03  0.00000000000E+00 0. -1.
         25    1    1    2    0    0 -0.20241377151E+03  0.16079485117E+03 -0.40861652607E+03  0.49941844623E+03  0.12500000000E+03 0.  0.
         21    1    1    2  503  502  0.79656542064E+02 -0.15166292836E+03  0.23346163203E+03  0.28957061688E+03  0.00000000000E+00 0. -1.
         -4    1    1    2    0  503  0.12275722945E+03 -0.91319228105E+01 -0.87527417965E+02  0.15104230630E+03  0.00000000000E+00 0. -1.
<mgrwt>
<rscale>  4 0.21522650E+03</rscale>
<asrwt>0</asrwt>
<pdfrwt beam="1">  1       21 0.52103774E-01 0.21522650E+03</pdfrwt>
<pdfrwt beam="2">  1       -4 0.92516436E-01 0.21522650E+03</pdfrwt>
<totfact> 0.14975143E+02</totfact>
</mgrwt>
</event>
<event>
 5    0  0.3040647E+000  0.2808993E+03  0.7546771E-02  0.1095199E+00
         21   -1    0    0  501  502  0.00000000000E+00  0.00000000000E+00  0.12821016281E+03  0.12821016281E+03  0.00000000000E+00 0. -1.
         -1   -1    0    0    0  501 -0.00000000000E+00 -0.00000000000E+00 -0.10712231633E+04  0.10712231633E+04  0.00000000000E+00 0.  1.
         25    1    1    2    0    0 -0.22735321825E+03 -0.17113930281E+03 -0.18214165087E+03  0.36024814752E+03  0.12500000000E+03 0.  0.
         21    1    1    2  503  502  0.37939668485E+02  0.16570422447E+02 -0.14977749291E+01  0.41427535222E+02  0.00000000000E+00 0. -1.
         -1    1    1    2    0  503  0.18941354976E+03  0.15456888036E+03 -0.75937357464E+03  0.79775764332E+03  0.00000000000E+00 0.  1.
<mgrwt>
<rscale>  4 0.28089931E+03</rscale>
<asrwt>0</asrwt>
<pdfrwt beam="1">  1       21 0.19724641E-01 0.28089931E+03</pdfrwt>
<pdfrwt beam="2">  1       -1 0.16480356E+00 0.28089931E+03</pdfrwt>
<totfact> 0.63747816E+02</totfact>
</mgrwt>
</event>
<event>
 5    0  0.4600498E+000  0.3206676E+03  0.7546771E-02  0.1075342E+00
          1   -1    0    0  502    0 -0.00000000000E+00  0.00000000000E+00  0.23226305360E+04  0.23226305360E+04  0.00000000000E+00 0.  1.
         21   -1    0    0  503  502  0.00000000000E+00 -0.00000000000E+00 -0.28040059010E+03  0.28040059010E+03  0.00000000000E+00 0.  1.
         25    1    1    2    0    0 -0.24352295706E+03 -0.16329908302E+03 -0.16452113635E+03  0.35869517063E+03  0.12500000000E+03 0.  0.
         21    1    1    2  503  501 -0.12713428712E+02  0.16303799317E+02  0.30205109113E+01  0.20894224751E+02  0.00000000000E+00 0. -1.
          1    1    1    2  501    0  0.25623638577E+03  0.14699528370E+03  0.22037305713E+04  0.22234417307E+04  0.00000000000E+00 0.  1.
<mgrwt>
<rscale>  4 0.32066765E+03</rscale>
<asrwt>0</asrwt>
<pdfrwt beam="1">  1       21 0.43138554E-01 0.32066765E+03</pdfrwt>
<pdfrwt beam="2">  1        1 0.35732776E+00 0.32066765E+03</pdfrwt>
<totfact> 0.11255971E+02</totfact>
</mgrwt>
</event>
<event>
 5    0  0.3040647E+000  0.2244623E+03  0.7546771E-02  0.1130599E+00
         21   -1    0    0  503  502  0.00000000000E+00  0.00000000000E+00  0.26914693172E+03  0.26914693172E+03  0.00000000000E+00 0.  1.
          1   -1    0    0  502    0 -0.00000000000E+00 -0.00000000000E+00 -0.55555784752E+03  0.55555784752E+03  0.00000000000E+00 0. -1.
         25    1    1    2    0    0  0.47958556719E+02  0.29397564590E+03 -0.69635263569E+02  0.33044783776E+03  0.12500000000E+03 0.  0.
         21    1    1    2  503  501 -0.14437364414E+02 -0.12971369982E+03  0.80230291139E+02  0.15320241848E+03  0.00000000000E+00 0.  1.
          1    1    1    2  501    0 -0.33521192305E+02 -0.16426194608E+03 -0.29700594337E+03  0.34105452300E+03  0.00000000000E+00 0. -1.
<mgrwt>
<rscale>  4 0.22446228E+03</rscale>
<asrwt>0</asrwt>
<pdfrwt beam="1">  1       21 0.41407220E-01 0.22446228E+03</pdfrwt>
<pdfrwt beam="2">  1        1 0.85470438E-01 0.22446228E+03</pdfrwt>
<totfact> 0.24041907E+03</totfact>
</mgrwt>
</event>
<event>
 5    0  0.3040647E+000  0.2061456E+03  0.7546771E-02  0.1144655E+00
         21   -1    0    0  503  502  0.00000000000E+00  0.00000000000E+00  0.62095601284E+03  0.62095601284E+03  0.00000000000E+00 0.  1.
          2   -1    0    0  502    0 -0.00000000000E+00 -0.00000000000E+00 -0.84730678347E+03  0.84730678347E+03  0.00000000000E+00 0.  1.
         25    1    1    2    0    0  0.20822223023E+03  0.11845555403E+02  0.37375350004E+02  0.24600555102E+03  0.12500000000E+03 0.  0.
         21    1    1    2  503  501 -0.15502224935E+03 -0.33350821167E+02  0.46499074813E+03  0.49128461294E+03  0.00000000000E+00 0.  1.
          2    1    1    2  501    0 -0.53199980880E+02  0.21505265764E+02 -0.72871686876E+03  0.73097263234E+03  0.00000000000E+00 0.  1.
<mgrwt>
<rscale>  4 0.20614559E+03</rscale>
<asrwt>0</asrwt>
<pdfrwt beam="1">  1       21 0.95531695E-01 0.20614559E+03</pdfrwt>
<pdfrwt beam="2">  1        2 0.13035489E+00 0.20614559E+03</pdfrwt>
<totfact> 0.37766063E+02</totfact>
</mgrwt>
</event>
<event>
 5    0  0.3040647E+000  0.9843083E+03  0.7546771E-02  0.9325925E-01
          2   -1    0    0  502    0 -0.00000000000E+00  0.00000000000E+00  0.23795725156E+04  0.23795725156E+04  0.00000000000E+00 0. -1.
         21   -1    0    0  503  502  0.00000000000E+00 -0.00000000000E+00 -0.65281850796E+03  0.65281850796E+03  0.00000000000E+00 0. -1.
         25    1    1    2    0    0  0.37368472658E+03  0.91322152257E+03  0.80856983182E+02  0.99788610367E+03  0.12500000000E+03 0.  0.
         21    1    1    2  503  501 -0.11242130579E+03  0.25959563560E+02 -0.69546432419E+01  0.11558899601E+03  0.00000000000E+00 0. -1.
          2    1    1    2  501    0 -0.26126342079E+03 -0.93918108612E+03  0.16528516677E+04  0.19189159239E+04  0.00000000000E+00 0. -1.
<mgrwt>
<rscale>  4 0.98430825E+03</rscale>
<asrwt>0</asrwt>
<pdfrwt beam="1">  1       21 0.10043362E+00 0.98430825E+03</pdfrwt>
<pdfrwt beam="2">  1        2 0.36608807E+00 0.98430825E+03</pdfrwt>
<totfact> 0.35055818E+01</totfact>
</mgrwt>
</event>
<event>
 5    0  0.3040647E+000  0.4388810E+03  0.7546771E-02  0.1031091E+00
          2   -1    0    0  502    0 -0.00000000000E+00  0.00000000000E+00  0.11003726773E+04  0.11003726773E+04  0.00000000000E+00 0.  1.
         21   -1    0    0  503  502  0.00000000000E+00 -0.00000000000E+00 -0.19953750651E+03  0.19953750651E+03  0.00000000000E+00 0.  1.
         25    1    1    2    0    0  0.17429596148E+03  0.38579661740E+03  0.64168355128E+03  0.77884587190E+03  0.12500000000E+03 0.  0.
         21    1    1    2  503  501  0.21757122495E+02 -0.17940366315E+02 -0.34400200569E+01  0.28408851803E+02  0.00000000000E+00 0.  1.
          2    1    1    2  501    0 -0.19605308397E+03 -0.36785625108E+03  0.26259163955E+03  0.49265546009E+03  0.00000000000E+00 0.  1.
<mgrwt>
<rscale>  4 0.43888098E+03</rscale>
<asrwt>0</asrwt>
<pdfrwt beam="1">  1       21 0.30698078E-01 0.43888098E+03</pdfrwt>
<pdfrwt beam="2">  1        2 0.16928810E+00 0.43888098E+03</pdfrwt>
<totfact> 0.27451802E+03</totfact>
</mgrwt>
</event>
<event>
 5    0  0.3040647E+000  0.3346126E+03  0.7546771E-02  0.1069114E+00
          2   -1    0    0  502    0 -0.00000000000E+00  0.00000000000E+00  0.20419771767E+04  0.20419771767E+04  0.00000000000E+00 0. -1.
         21   -1    0    0  503  502  0.00000000000E+00 -0.00000000000E+00 -0.24676411009E+03  0.24676411009E+03  0.00000000000E+00 0. -1.
         25    1    1    2    0    0 -0.21805617770E+03 -0.18870204296E+03 -0.43326767482E+02  0.31726828778E+03  0.12500000000E+03 0.  0.
         21    1    1    2  503  501 -0.38769956533E+02  0.11423422631E+02 -0.46020368225E+02  0.61249313512E+02  0.00000000000E+00 0.  1.
          2    1    1    2  501    0  0.25682613423E+03  0.17727862033E+03  0.18845602023E+04  0.19102236855E+04  0.00000000000E+00 0. -1.
<mgrwt>
<rscale>  4 0.33461255E+03</rscale>
<asrwt>0</asrwt>
<pdfrwt beam="1">  1       21 0.37963711E-01 0.33461255E+03</pdfrwt>
<pdfrwt beam="2">  1        2 0.31415032E+00 0.33461255E+03</pdfrwt>
<totfact> 0.56412464E+02</totfact>
</mgrwt>
</event>
<event>
 5    0  0.3040647E+000  0.2061549E+03  0.7546771E-02  0.1144648E+00
         21   -1    0    0  503  502  0.00000000000E+00  0.00000000000E+00  0.55030220839E+02  0.55030220839E+02  0.00000000000E+00 0.  1.
          1   -1    0    0  502    0 -0.00000000000E+00 -0.00000000000E+00 -0.16735791779E+04  0.16735791779E+04  0.00000000000E+00 0.  1.
         25    1    1    2    0    0 -0.38561523724E+01  0.21134994457E+03 -0.82780681487E+03  0.86346557067E+03  0.12500000000E+03 0.  0.
         21    1    1    2  503  501  0.70422136855E+02 -0.14046111352E+03 -0.15055405475E+03  0.21761232771E+03  0.00000000000E+00 0.  1.
          1    1    1    2  501    0 -0.66565984482E+02 -0.70888831053E+02 -0.64018808742E+03  0.64753150034E+03  0.00000000000E+00 0.  1.
<mgrwt>
<rscale>  4 0.20615489E+03</rscale>
<asrwt>0</asrwt>
<pdfrwt beam="1">  1       21 0.84661872E-02 0.20615489E+03</pdfrwt>
<pdfrwt beam="2">  1        1 0.25747374E+00 0.20615489E+03</pdfrwt>
<totfact> 0.67751312E+03</totfact>
</mgrwt>
</event>
<event>
 5    0  0.3040647E+000  0.2722899E+03  0.7546771E-02  0.1099976E+00
          1   -1    0    0  502    0 -0.00000000000E+00  0.00000000000E+00  0.33235134079E+03  0.33235134079E+03  0.00000000000E+00 0. -1.
         21   -1    0    0  503  502  0.00000000000E+00 -0.00000000000E+00 -0.27024657239E+03  0.27024657239E+03  0.00000000000E+00 0. -1.
         25    1    1    2    0    0 -0.22713034680E+03  0.69519900015E+02 -0.58997148071E+02  0.27482153194E+03  0.12500000000E+03 0.  0.
         21    1    1    2  503  501 -0.14891641958E+02 -0.34389473601E+02 -0.22951572788E+02  0.43945097431E+02  0.00000000000E+00 0.  1.
          1    1    1    2  501    0  0.24202198876E+03 -0.35130426414E+02  0.14405348926E+03  0.28383128381E+03  0.00000000000E+00 0. -1.
<mgrwt>
<rscale>  4 0.27228995E+03</rscale>
<asrwt>0</asrwt>
<pdfrwt beam="1">  1       21 0.41576396E-01 0.27228995E+03</pdfrwt>
<pdfrwt beam="2">  1        1 0.51130976E-01 0.27228995E+03</pdfrwt>
<totfact> 0.45915134E+03</totfact>
</mgrwt>
</event>
