<event>
 5    0  0.3372079E-003  0.5764338E+03  0.7546771E-02  0.9955542E-01
         21   -1    0    0  501  502  0.00000000000E+00  0.00000000000E+00  0.36702804929E+04  0.36702804929E+04  0.00000000000E+00 0. -1.
         21   -1    0    0  502  503 -0.00000000000E+00 -0.00000000000E+00 -0.22632870278E+02  0.22632870278E+02  0.00000000000E+00 0. -1.
         25    1    1    2    0    0 -0.48656354141E+02 -0.24732123377E+03  0.12307866695E+04  0.12625355676E+04  0.12500000000E+03 0.  0.
          3    1    1    2  501    0  0.56914193033E+02  0.21210358755E+03  0.21062557719E+04  0.21176733775E+04  0.00000000000E+00 0. -1.
         -3    1    1    2    0  503 -0.82578388920E+01  0.35217646218E+02  0.31060518116E+03  0.31270441806E+03  0.00000000000E+00 0.  1.
<mgrwt>
<rscale>  4 0.57643380E+03</rscale>
<asrwt>0</asrwt>
<pdfrwt beam="1">  1       21 0.56465806E+00 0.57643380E+03</pdfrwt>
<pdfrwt beam="2">  1       21 0.34819830E-02 0.57643380E+03</pdfrwt>
<totfact> 0.22620764E+02</totfact>
</mgrwt>
</event>
<event>
 5    0  0.3372079E-003  0.4915379E+03  0.7546771E-02  0.1016012E+00
         21   -1    0    0  503  502  0.00000000000E+00  0.00000000000E+00  0.90444865911E+02  0.90444865911E+02  0.00000000000E+00 0.  1.
         21   -1    0    0  501  503 -0.00000000000E+00 -0.00000000000E+00 -0.66783634456E+03  0.66783634456E+03  0.00000000000E+00 0.  1.
         25    1    1    2    0    0 -0.10090090634E+03 -0.17511996741E+03 -0.23351984443E+03  0.33317339874E+03  0.12500000000E+03 0.  0.
          3    1    1    2  501    0 -0.10848324626E+02  0.33568617932E+02 -0.17337201079E+03  0.17692482128E+03  0.00000000000E+00 0. -1.
         -3    1    1    2    0  502  0.11174923097E+03  0.14155134948E+03 -0.17049962343E+03  0.24818299046E+03  0.00000000000E+00 0.  1.
<mgrwt>
<rscale>  4 0.49153787E+03</rscale>
<asrwt>0</asrwt>
<pdfrwt beam="1">  1       21 0.13914595E-01 0.49153787E+03</pdfrwt>
<pdfrwt beam="2">  1       21 0.10274405E+00 0.49153787E+03</pdfrwt>
<totfact> 0.31135582E+04</totfact>
</mgrwt>
</event>
<event>
 5    0  0.3372079E-003  0.6622689E+03  0.7546771E-02  0.9784026E-01
         21   -1    0    0  501  502  0.00000000000E+00  0.00000000000E+00  0.82564875166E+03  0.82564875166E+03  0.00000000000E+00 0. -1.
         21   -1    0    0  502  503 -0.00000000000E+00 -0.00000000000E+00 -0.13280468359E+03  0.13280468359E+03  0.00000000000E+00 0. -1.
         25    1    1    2    0    0  0.22588273404E+03 -0.15763739971E+03  0.23211252147E+03  0.38127913914E+03  0.12500000000E+03 0.  0.
          4    1    1    2  501    0 -0.99874145117E+02  0.10623189691E+03  0.40440476283E+03  0.42988751202E+03  0.00000000000E+00 0. -1.
         -4    1    1    2    0  503 -0.12600858892E+03  0.51405502792E+02  0.56326783767E+02  0.14728678410E+03  0.00000000000E+00 0.  1.
<mgrwt>
<rscale>  4 0.66226889E+03</rscale>
<asrwt>0</asrwt>
<pdfrwt beam="1">  1       21 0.12702288E+00 0.66226889E+03</pdfrwt>
<pdfrwt beam="2">  1       21 0.20431490E-01 0.66226889E+03</pdfrwt>
<totfact> 0.85147686E+03</totfact>
</mgrwt>
</event>
<event>
 5    0  0.3372079E-003  0.5257411E+03  0.7546771E-02  0.1007270E+00
         21   -1    0    0  501  502  0.00000000000E+00  0.00000000000E+00  0.70089914197E+03  0.70089914197E+03  0.00000000000E+00 0.  1.
         21   -1    0    0  502  503 -0.00000000000E+00 -0.00000000000E+00 -0.98588989568E+02  0.98588989568E+02  0.00000000000E+00 0.  1.
         25    1    1    2    0    0 -0.70339440695E+02 -0.21689406697E+03  0.26345120868E+03  0.37016511526E+03  0.12500000000E+03 0.  0.
          4    1    1    2  501    0  0.84560325706E+02  0.14350828709E+03  0.30444019683E+03  0.34702868843E+03  0.00000000000E+00 0.  1.
         -4    1    1    2    0  503 -0.14220885011E+02  0.73385779875E+02  0.34418746895E+02  0.82294327850E+02  0.00000000000E+00 0. -1.
<mgrwt>
<rscale>  4 0.52574115E+03</rscale>
<asrwt>0</asrwt>
<pdfrwt beam="1">  1       21 0.10783063E+00 0.52574115E+03</pdfrwt>
<pdfrwt beam="2">  1       21 0.15167537E-01 0.52574115E+03</pdfrwt>
<totfact> 0.23367395E+04</totfact>
</mgrwt>
</event>
<event>
 5    0  0.3372079E-003  0.5741549E+03  0.7546771E-02  0.9960526E-01
         21   -1    0    0  503  502  0.00000000000E+00  0.00000000000E+00  0.93485015968E+02  0.93485015968E+02  0.00000000000E+00 0. -1.
         21   -1    0    0  501  503 -0.00000000000E+00 -0.00000000000E+00 -0.88156856568E+03  0.88156856568E+03  0.00000000000E+00 0. -1.
         25    1    1    2    0    0 -0.65955656784E+02 -0.22092067229E+03 -0.20178673455E+03  0.33090629844E+03  0.12500000000E+03 0.  0.
          3    1    1    2  501    0  0.39711747230E+02  0.19691333118E+03 -0.57122745191E+03  0.60551852547E+03  0.00000000000E+00 0. -1.
         -3    1    1    2    0  502  0.26243909554E+02  0.24007341109E+02 -0.15069363251E+02  0.38628757741E+02  0.00000000000E+00 0.  1.
<mgrwt>
<rscale>  4 0.57415486E+03</rscale>
<asrwt>0</asrwt>
<pdfrwt beam="1">  1       21 0.14382310E-01 0.57415486E+03</pdfrwt>
<pdfrwt beam="2">  1       21 0.13562593E+00 0.57415486E+03</pdfrwt>
<totfact> 0.14185393E+04</totfact>
</mgrwt>
</event>
<event>
 5    0  0.3372079E-003  0.4842792E+03  0.7546771E-02  0.1017966E+00
         21   -1    0    0  503  502  0.00000000000E+00  0.00000000000E+00  0.10582068705E+04  0.10582068705E+04  0.00000000000E+00 0. -1.
         21   -1    0    0  501  503 -0.00000000000E+00 -0.00000000000E+00 -0.55406544756E+02  0.55406544756E+02  0.00000000000E+00 0. -1.
         25    1    1    2    0    0  0.15542809940E+03  0.14696984043E+03  0.41627325495E+03  0.48442383392E+03  0.12500000000E+03 0.  0.
          4    1    1    2  501    0 -0.12779108350E+03 -0.14042519859E+03  0.42922523698E+03  0.46934433147E+03  0.00000000000E+00 0. -1.
         -4    1    1    2    0  502 -0.27637015899E+02 -0.65446418434E+01  0.15730183381E+03  0.15984524987E+03  0.00000000000E+00 0.  1.
<mgrwt>
<rscale>  4 0.48427920E+03</rscale>
<asrwt>0</asrwt>
<pdfrwt beam="1">  1       21 0.16280104E+00 0.48427920E+03</pdfrwt>
<pdfrwt beam="2">  1       21 0.85240846E-02 0.48427920E+03</pdfrwt>
<totfact> 0.22824230E+04</totfact>
</mgrwt>
</event>
<event>
 5    0  0.3372079E-003  0.5759542E+03  0.7546771E-02  0.9956589E-01
         21   -1    0    0  503  502  0.00000000000E+00  0.00000000000E+00  0.10593243938E+03  0.10593243938E+03  0.00000000000E+00 0.  1.
         21   -1    0    0  501  503 -0.00000000000E+00 -0.00000000000E+00 -0.78286507983E+03  0.78286507983E+03  0.00000000000E+00 0.  1.
         25    1    1    2    0    0  0.24487308322E+03  0.18277579097E+02 -0.17114777617E+03  0.32436624065E+03  0.12500000000E+03 0.  0.
          4    1    1    2  501    0 -0.95500340092E+02 -0.11958689380E+02 -0.14656737940E+03  0.17534343989E+03  0.00000000000E+00 0. -1.
         -4    1    1    2    0  502 -0.14937274312E+03 -0.63188897166E+01 -0.35921748488E+03  0.38908783867E+03  0.00000000000E+00 0.  1.
<mgrwt>
<rscale>  4 0.57595419E+03</rscale>
<asrwt>0</asrwt>
<pdfrwt beam="1">  1       21 0.16297299E-01 0.57595419E+03</pdfrwt>
<pdfrwt beam="2">  1       21 0.12044078E+00 0.57595419E+03</pdfrwt>
<totfact> 0.15295532E+04</totfact>
</mgrwt>
</event>
<event>
 5    0  0.3372079E-003  0.6683799E+03  0.7546771E-02  0.9772889E-01
         21   -1    0    0  503  502  0.00000000000E+00  0.00000000000E+00  0.29532916312E+03  0.29532916312E+03  0.00000000000E+00 0.  1.
         21   -1    0    0  501  503 -0.00000000000E+00 -0.00000000000E+00 -0.37816424436E+03  0.37816424436E+03  0.00000000000E+00 0.  1.
         25    1    1    2    0    0 -0.77430841158E+02  0.19390672472E+03  0.18683802819E+03  0.30680417506E+03  0.12500000000E+03 0.  0.
          3    1    1    2  501    0  0.55939363816E+02 -0.18899959173E+03 -0.27994175963E+03  0.34237033587E+03  0.00000000000E+00 0.  1.
         -3    1    1    2    0  502  0.21491477342E+02 -0.49071329948E+01  0.10268650203E+02  0.24318896553E+02  0.00000000000E+00 0. -1.
<mgrwt>
<rscale>  4 0.66837992E+03</rscale>
<asrwt>0</asrwt>
<pdfrwt beam="1">  1       21 0.45435256E-01 0.66837992E+03</pdfrwt>
<pdfrwt beam="2">  1       21 0.58179114E-01 0.66837992E+03</pdfrwt>
<totfact> 0.10941295E+04</totfact>
</mgrwt>
</event>
<event>
 5    0  0.3372079E-003  0.6440082E+03  0.7546771E-02  0.9818088E-01
         21   -1    0    0  501  502  0.00000000000E+00  0.00000000000E+00  0.29281302745E+03  0.29281302745E+03  0.00000000000E+00 0. -1.
         21   -1    0    0  502  503 -0.00000000000E+00 -0.00000000000E+00 -0.35410523929E+03  0.35410523929E+03  0.00000000000E+00 0. -1.
         25    1    1    2    0    0 -0.14876699668E+03 -0.22876056743E+03  0.11254505006E+01  0.30014876837E+03  0.12500000000E+03 0.  0.
          2    1    1    2  501    0 -0.20154536603E+02  0.14649935057E+03 -0.57953868949E+02  0.15882983344E+03  0.00000000000E+00 0. -1.
         -2    1    1    2    0  503  0.16892153328E+03  0.82261216861E+02 -0.44637933879E+01  0.18793966494E+03  0.00000000000E+00 0.  1.
<mgrwt>
<rscale>  4 0.64400816E+03</rscale>
<asrwt>0</asrwt>
<pdfrwt beam="1">  1       21 0.45048158E-01 0.64400816E+03</pdfrwt>
<pdfrwt beam="2">  1       21 0.54477729E-01 0.64400816E+03</pdfrwt>
<totfact> 0.12921684E+04</totfact>
</mgrwt>
</event>
<event>
 5    0  0.3372079E-003  0.7442122E+03  0.7546771E-02  0.9644475E-01
         21   -1    0    0  501  502  0.00000000000E+00  0.00000000000E+00  0.71096593558E+02  0.71096593558E+02  0.00000000000E+00 0. -1.
         21   -1    0    0  502  503 -0.00000000000E+00 -0.00000000000E+00 -0.19475326790E+04  0.19475326790E+04  0.00000000000E+00 0. -1.
         25    1    1    2    0    0 -0.23236736445E+03 -0.16241409507E+03 -0.61526744381E+03  0.68887731691E+03  0.12500000000E+03 0.  0.
          2    1    1    2  501    0  0.21729635457E+03  0.14833878956E+03 -0.47249140394E+03  0.54080516732E+03  0.00000000000E+00 0. -1.
         -2    1    1    2    0  503  0.15071009880E+02  0.14075305511E+02 -0.78867723768E+03  0.78894678831E+03  0.00000000000E+00 0.  1.
<mgrwt>
<rscale>  4 0.74421217E+03</rscale>
<asrwt>0</asrwt>
<pdfrwt beam="1">  1       21 0.10937941E-01 0.74421217E+03</pdfrwt>
<pdfrwt beam="2">  1       21 0.29962033E+00 0.74421217E+03</pdfrwt>
<totfact> 0.17346946E+03</totfact>
</mgrwt>
</event>
<event>
 5    0  0.3372079E-003  0.5338180E+03  0.7546771E-02  0.1005310E+00
         21   -1    0    0  501  502  0.00000000000E+00  0.00000000000E+00  0.62759556850E+02  0.62759556850E+02  0.00000000000E+00 0.  1.
         21   -1    0    0  502  503 -0.00000000000E+00 -0.00000000000E+00 -0.11351324594E+04  0.11351324594E+04  0.00000000000E+00 0.  1.
         25    1    1    2    0    0 -0.57978353218E+02 -0.21732009296E+03 -0.74209387588E+03  0.78544117085E+03  0.12500000000E+03 0.  0.
          3    1    1    2  501    0  0.13039345583E+02  0.42275969126E+02 -0.11023499780E+02  0.45593855355E+02  0.00000000000E+00 0. -1.
         -3    1    1    2    0  503  0.44939007635E+02  0.17504412383E+03 -0.31925552688E+03  0.36685699004E+03  0.00000000000E+00 0.  1.
<mgrwt>
<rscale>  4 0.53381798E+03</rscale>
<asrwt>0</asrwt>
<pdfrwt beam="1">  1       21 0.96553167E-02 0.53381798E+03</pdfrwt>
<pdfrwt beam="2">  1       21 0.17463576E+00 0.53381798E+03</pdfrwt>
<totfact> 0.14748333E+04</totfact>
</mgrwt>
</event>
<event>
 5    0  0.3372079E-003  0.5319609E+03  0.7546771E-02  0.1005758E+00
         21   -1    0    0  501  502  0.00000000000E+00  0.00000000000E+00  0.13418174696E+04  0.13418174696E+04  0.00000000000E+00 0.  1.
         21   -1    0    0  502  503 -0.00000000000E+00 -0.00000000000E+00 -0.52723717120E+02  0.52723717120E+02  0.00000000000E+00 0.  1.
         25    1    1    2    0    0  0.10427131574E+03  0.17628911490E+03  0.30630484067E+03  0.38909897807E+03  0.12500000000E+03 0.  0.
          2    1    1    2  501    0 -0.77320378270E+02 -0.12243924583E+03  0.79968522464E+03  0.81269075811E+03  0.00000000000E+00 0.  1.
         -2    1    1    2    0  503 -0.26950937474E+02 -0.53849869065E+02  0.18310368721E+03  0.19275145057E+03  0.00000000000E+00 0. -1.
<mgrwt>
<rscale>  4 0.53196092E+03</rscale>
<asrwt>0</asrwt>
<pdfrwt beam="1">  1       21 0.20643343E+00 0.53196092E+03</pdfrwt>
<pdfrwt beam="2">  1       21 0.81113421E-02 0.53196092E+03</pdfrwt>
<totfact> 0.12169076E+04</totfact>
</mgrwt>
</event>
<event>
 5    0  0.3372079E-003  0.4657837E+03  0.7546771E-02  0.1023117E+00
         21   -1    0    0  501  502  0.00000000000E+00  0.00000000000E+00  0.84271803807E+02  0.84271803807E+02  0.00000000000E+00 0. -1.
         21   -1    0    0  502  503 -0.00000000000E+00 -0.00000000000E+00 -0.64361518026E+03  0.64361518026E+03  0.00000000000E+00 0. -1.
         25    1    1    2    0    0  0.20890423713E+03 -0.62965644846E+01 -0.27460167789E+03  0.36703093673E+03  0.12500000000E+03 0.  0.
          3    1    1    2  501    0 -0.91244872267E+02  0.39476198486E+02 -0.12916440566E+03  0.16299521665E+03  0.00000000000E+00 0.  1.
         -3    1    1    2    0  503 -0.11765936486E+03 -0.33179634002E+02 -0.15557729290E+03  0.19786083069E+03  0.00000000000E+00 0. -1.
<mgrwt>
<rscale>  4 0.46578369E+03</rscale>
<asrwt>0</asrwt>
<pdfrwt beam="1">  1       21 0.12964893E-01 0.46578369E+03</pdfrwt>
<pdfrwt beam="2">  1       21 0.99017719E-01 0.46578369E+03</pdfrwt>
<totfact> 0.39043772E+04</totfact>
</mgrwt>
</event>
<event>
 5    0  0.3372079E-003  0.7331508E+03  0.7546771E-02  0.9662161E-01
         21   -1    0    0  501  502  0.00000000000E+00  0.00000000000E+00  0.17277447015E+04  0.17277447015E+04  0.00000000000E+00 0. -1.
         21   -1    0    0  502  503 -0.00000000000E+00 -0.00000000000E+00 -0.77776251615E+02  0.77776251615E+02  0.00000000000E+00 0. -1.
         25    1    1    2    0    0  0.25126646606E+03 -0.69331410371E+02  0.13209240744E+04  0.13521860418E+04  0.12500000000E+03 0.  0.
          2    1    1    2  501    0 -0.14870038892E+03  0.89983772628E+02  0.29663763299E+03  0.34380629766E+03  0.00000000000E+00 0.  1.
         -2    1    1    2    0  503 -0.10256607714E+03 -0.20652362257E+02  0.32406742525E+02  0.10952861364E+03  0.00000000000E+00 0. -1.
<mgrwt>
<rscale>  4 0.73315075E+03</rscale>
<asrwt>0</asrwt>
<pdfrwt beam="1">  1       21 0.26580685E+00 0.73315075E+03</pdfrwt>
<pdfrwt beam="2">  1       21 0.11965579E-01 0.73315075E+03</pdfrwt>
<totfact> 0.23846622E+03</totfact>
</mgrwt>
</event>
<event>
 5    0  0.3372079E-003  0.5281886E+03  0.7546771E-02  0.1006672E+00
         21   -1    0    0  501  502  0.00000000000E+00  0.00000000000E+00  0.25151979726E+03  0.25151979726E+03  0.00000000000E+00 0.  1.
         21   -1    0    0  502  503 -0.00000000000E+00 -0.00000000000E+00 -0.27729749922E+03  0.27729749922E+03  0.00000000000E+00 0.  1.
         25    1    1    2    0    0 -0.23693840728E+03 -0.80333605656E+01 -0.78184275532E+02  0.27918116818E+03  0.12500000000E+03 0.  0.
          2    1    1    2  501    0  0.18515271871E+03  0.30373893145E+02  0.42345331037E+02  0.19234663940E+03  0.00000000000E+00 0.  1.
         -2    1    1    2    0  503  0.51785688574E+02 -0.22340532579E+02  0.10061242531E+02  0.57289488899E+02  0.00000000000E+00 0. -1.
<mgrwt>
<rscale>  4 0.52818864E+03</rscale>
<asrwt>0</asrwt>
<pdfrwt beam="1">  1       21 0.38695353E-01 0.52818864E+03</pdfrwt>
<pdfrwt beam="2">  1       21 0.42661154E-01 0.52818864E+03</pdfrwt>
<totfact> 0.30536261E+04</totfact>
</mgrwt>
</event>
<event>
 5    0  0.3372079E-003  0.6799777E+03  0.7546771E-02  0.9752099E-01
         21   -1    0    0  503  502  0.00000000000E+00  0.00000000000E+00  0.59432500551E+03  0.59432500551E+03  0.00000000000E+00 0. -1.
         21   -1    0    0  501  503 -0.00000000000E+00 -0.00000000000E+00 -0.19449360432E+03  0.19449360432E+03  0.00000000000E+00 0. -1.
         25    1    1    2    0    0 -0.23160113552E+03  0.18387552716E+03  0.83822015399E+02  0.33181384198E+03  0.12500000000E+03 0.  0.
          2    1    1    2  501    0  0.21344223514E+03 -0.16682053517E+03  0.19582736742E+03  0.33426791130E+03  0.00000000000E+00 0. -1.
         -2    1    1    2    0  502  0.18158900378E+02 -0.17054991986E+02  0.12018201838E+03  0.12273685655E+03  0.00000000000E+00 0.  1.
<mgrwt>
<rscale>  4 0.67997768E+03</rscale>
<asrwt>0</asrwt>
<pdfrwt beam="1">  1       21 0.91434615E-01 0.67997768E+03</pdfrwt>
<pdfrwt beam="2">  1       21 0.29922093E-01 0.67997768E+03</pdfrwt>
<totfact> 0.91359171E+03</totfact>
</mgrwt>
</event>
<event>
 5    0  0.3372079E-003  0.6496103E+03  0.7546771E-02  0.9807511E-01
         21   -1    0    0  501  502  0.00000000000E+00  0.00000000000E+00  0.14213134095E+03  0.14213134095E+03  0.00000000000E+00 0. -1.
         21   -1    0    0  502  503 -0.00000000000E+00 -0.00000000000E+00 -0.74225987903E+03  0.74225987903E+03  0.00000000000E+00 0. -1.
         25    1    1    2    0    0 -0.19293237418E+03  0.16338709035E+03 -0.55038325894E+03  0.61843752637E+03  0.12500000000E+03 0.  0.
          3    1    1    2  501    0  0.29671990738E+01 -0.25147663965E+02 -0.11922273704E+02  0.27988388369E+02  0.00000000000E+00 0.  1.
         -3    1    1    2    0  503  0.18996517511E+03 -0.13823942638E+03 -0.37823005434E+02  0.23796530524E+03  0.00000000000E+00 0. -1.
<mgrwt>
<rscale>  4 0.64961032E+03</rscale>
<asrwt>0</asrwt>
<pdfrwt beam="1">  1       21 0.21866360E-01 0.64961032E+03</pdfrwt>
<pdfrwt beam="2">  1       21 0.11419383E+00 0.64961032E+03</pdfrwt>
<totfact> 0.98468388E+03</totfact>
</mgrwt>
</event>
<event>
 5    0  0.3372079E-003  0.8180741E+03  0.7546771E-02  0.9534218E-01
         21   -1    0    0  503  502  0.00000000000E+00  0.00000000000E+00  0.31260554756E+03  0.31260554756E+03  0.00000000000E+00 0.  1.
         21   -1    0    0  501  503 -0.00000000000E+00 -0.00000000000E+00 -0.53521547048E+03  0.53521547048E+03  0.00000000000E+00 0.  1.
         25    1    1    2    0    0 -0.26444282295E+03  0.15792483763E+03  0.84031695797E+01  0.33251447218E+03  0.12500000000E+03 0.  0.
          3    1    1    2  501    0  0.30109806311E+03 -0.29544679748E+02 -0.23286357778E+03  0.38178315516E+03  0.00000000000E+00 0.  1.
         -3    1    1    2    0  502 -0.36655240163E+02 -0.12838015788E+03  0.18504852892E+01  0.13352339070E+03  0.00000000000E+00 0. -1.
<mgrwt>
<rscale>  4 0.81807414E+03</rscale>
<asrwt>0</asrwt>
<pdfrwt beam="1">  1       21 0.48093162E-01 0.81807414E+03</pdfrwt>
<pdfrwt beam="2">  1       21 0.82340840E-01 0.81807414E+03</pdfrwt>
<totfact> 0.42811622E+03</totfact>
</mgrwt>
</event>
<event>
 5    0  0.3372079E-003  0.4661985E+03  0.7546771E-02  0.1022999E+00
         21   -1    0    0  503  502  0.00000000000E+00  0.00000000000E+00  0.50633865748E+03  0.50633865748E+03  0.00000000000E+00 0.  1.
         21   -1    0    0  501  503 -0.00000000000E+00 -0.00000000000E+00 -0.10731012991E+03  0.10731012991E+03  0.00000000000E+00 0.  1.
         25    1    1    2    0    0 -0.71367270878E+02  0.20277371603E+03  0.22145296817E+03  0.33298180788E+03  0.12500000000E+03 0.  0.
          2    1    1    2  501    0 -0.11384052507E+01 -0.20416296524E+02  0.23612780332E+02  0.31235949246E+02  0.00000000000E+00 0. -1.
         -2    1    1    2    0  502  0.72505676129E+02 -0.18235741951E+03  0.15396277906E+03  0.24943103026E+03  0.00000000000E+00 0.  1.
<mgrwt>
<rscale>  4 0.46619853E+03</rscale>
<asrwt>0</asrwt>
<pdfrwt beam="1">  1       21 0.77898254E-01 0.46619853E+03</pdfrwt>
<pdfrwt beam="2">  1       21 0.16509251E-01 0.46619853E+03</pdfrwt>
<totfact> 0.43934631E+04</totfact>
</mgrwt>
</event>
<event>
 5    0  0.3372079E-003  0.6035332E+03  0.7546771E-02  0.9898103E-01
         21   -1    0    0  501  502  0.00000000000E+00  0.00000000000E+00  0.11571768642E+04  0.11571768642E+04  0.00000000000E+00 0. -1.
         21   -1    0    0  502  503 -0.00000000000E+00 -0.00000000000E+00 -0.78694185504E+02  0.78694185504E+02  0.00000000000E+00 0. -1.
         25    1    1    2    0    0  0.15841646034E+03 -0.23451568246E+03  0.46502662677E+03  0.55854108518E+03  0.12500000000E+03 0.  0.
          1    1    1    2  501    0 -0.86242968982E+01  0.39242983459E+02  0.10553999960E+03  0.11292954336E+03  0.00000000000E+00 0.  1.
         -1    1    1    2    0  503 -0.14979216344E+03  0.19527269901E+03  0.50791605236E+03  0.56440042120E+03  0.00000000000E+00 0. -1.
<mgrwt>
<rscale>  4 0.60353323E+03</rscale>
<asrwt>0</asrwt>
<pdfrwt beam="1">  1       21 0.17802720E+00 0.60353323E+03</pdfrwt>
<pdfrwt beam="2">  1       21 0.12106799E-01 0.60353323E+03</pdfrwt>
<totfact> 0.90757728E+03</totfact>
</mgrwt>
</event>
<event>
 5    0  0.3372079E-003  0.4910043E+03  0.7546771E-02  0.1016154E+00
         21   -1    0    0  501  502  0.00000000000E+00  0.00000000000E+00  0.25130908750E+03  0.25130908750E+03  0.00000000000E+00 0.  1.
         21   -1    0    0  502  503 -0.00000000000E+00 -0.00000000000E+00 -0.23982942570E+03  0.23982942570E+03  0.00000000000E+00 0.  1.
         25    1    1    2    0    0 -0.15878804934E+03  0.14981901552E+03 -0.69274414254E+01  0.25165923680E+03  0.12500000000E+03 0.  0.
          1    1    1    2  501    0  0.13038634674E+03 -0.58103611104E+02  0.98408843432E+01  0.14308554100E+03  0.00000000000E+00 0.  1.
         -1    1    1    2    0  503  0.28401702604E+02 -0.91715404412E+02  0.85662188870E+01  0.96393735394E+02  0.00000000000E+00 0. -1.
<mgrwt>
<rscale>  4 0.49100433E+03</rscale>
<asrwt>0</asrwt>
<pdfrwt beam="1">  1       21 0.38662937E-01 0.49100433E+03</pdfrwt>
<pdfrwt beam="2">  1       21 0.36896835E-01 0.49100433E+03</pdfrwt>
<totfact> 0.41583691E+04</totfact>
</mgrwt>
</event>
<event>
 5    0  0.3372079E-003  0.6701034E+03  0.7546771E-02  0.9769771E-01
         21   -1    0    0  501  502  0.00000000000E+00  0.00000000000E+00  0.11897554388E+03  0.11897554388E+03  0.00000000000E+00 0. -1.
         21   -1    0    0  502  503 -0.00000000000E+00 -0.00000000000E+00 -0.94355229712E+03  0.94355229712E+03  0.00000000000E+00 0. -1.
         25    1    1    2    0    0 -0.69816372236E+02  0.27163359132E+03 -0.17675041017E+03  0.35429485074E+03  0.12500000000E+03 0.  0.
          2    1    1    2  501    0  0.63594466779E+02 -0.13619652822E+03 -0.35717854426E+03  0.38751808085E+03  0.00000000000E+00 0. -1.
         -2    1    1    2    0  503  0.62219054572E+01 -0.13543706310E+03 -0.29064779881E+03  0.32071490941E+03  0.00000000000E+00 0.  1.
<mgrwt>
<rscale>  4 0.67010342E+03</rscale>
<asrwt>0</asrwt>
<pdfrwt beam="1">  1       21 0.18303930E-01 0.67010342E+03</pdfrwt>
<pdfrwt beam="2">  1       21 0.14516189E+00 0.67010342E+03</pdfrwt>
<totfact> 0.73511228E+03</totfact>
</mgrwt>
</event>
<event>
 5    0  0.3372079E-003  0.5724466E+03  0.7546771E-02  0.9964279E-01
         21   -1    0    0  501  502  0.00000000000E+00  0.00000000000E+00  0.12072216672E+03  0.12072216672E+03  0.00000000000E+00 0.  1.
         21   -1    0    0  502  503 -0.00000000000E+00 -0.00000000000E+00 -0.67861418871E+03  0.67861418871E+03  0.00000000000E+00 0.  1.
         25    1    1    2    0    0 -0.19440801394E+03 -0.66676071442E+02 -0.11226612583E+03  0.26545970956E+03  0.12500000000E+03 0.  0.
          1    1    1    2  501    0  0.69959422476E+02  0.10275110599E+03 -0.84760113843E+02  0.15045393805E+03  0.00000000000E+00 0. -1.
         -1    1    1    2    0  503  0.12444859147E+03 -0.36075034550E+02 -0.36086578231E+03  0.38342270783E+03  0.00000000000E+00 0.  1.
<mgrwt>
<rscale>  4 0.57244659E+03</rscale>
<asrwt>0</asrwt>
<pdfrwt beam="1">  1       21 0.18572641E-01 0.57244659E+03</pdfrwt>
<pdfrwt beam="2">  1       21 0.10440218E+00 0.57244659E+03</pdfrwt>
<totfact> 0.17121939E+04</totfact>
</mgrwt>
</event>
<event>
 5    0  0.3372079E-003  0.5230878E+03  0.7546771E-02  0.1007922E+00
         21   -1    0    0  503  502  0.00000000000E+00  0.00000000000E+00  0.10976563680E+03  0.10976563680E+03  0.00000000000E+00 0. -1.
         21   -1    0    0  501  503 -0.00000000000E+00 -0.00000000000E+00 -0.62319338528E+03  0.62319338528E+03  0.00000000000E+00 0. -1.
         25    1    1    2    0    0  0.21980203403E+03 -0.35475985743E+02 -0.33565463185E+03  0.42173512020E+03  0.12500000000E+03 0.  0.
          3    1    1    2  501    0 -0.19776223309E+03  0.60311332159E+02 -0.18477513109E+03  0.27728903096E+03  0.00000000000E+00 0. -1.
         -3    1    1    2    0  502 -0.22039800938E+02 -0.24835346416E+02  0.70020144605E+01  0.33934870907E+02  0.00000000000E+00 0.  1.
<mgrwt>
<rscale>  4 0.52308783E+03</rscale>
<asrwt>0</asrwt>
<pdfrwt beam="1">  1       21 0.16887021E-01 0.52308783E+03</pdfrwt>
<pdfrwt beam="2">  1       21 0.95875905E-01 0.52308783E+03</pdfrwt>
<totfact> 0.25507437E+04</totfact>
</mgrwt>
</event>
<event>
 5    0  0.3372079E-003  0.4877402E+03  0.7546771E-02  0.1017029E+00
         21   -1    0    0  501  502  0.00000000000E+00  0.00000000000E+00  0.15803821288E+03  0.15803821288E+03  0.00000000000E+00 0.  1.
         21   -1    0    0  502  503 -0.00000000000E+00 -0.00000000000E+00 -0.37631802977E+03  0.37631802977E+03  0.00000000000E+00 0.  1.
         25    1    1    2    0    0 -0.18231212366E+03  0.99827794067E+02 -0.20946705882E+03  0.32047581443E+03  0.12500000000E+03 0.  0.
          3    1    1    2  501    0  0.16614959405E+03 -0.77300121423E+02  0.40956108581E+01  0.18329694597E+03  0.00000000000E+00 0.  1.
         -3    1    1    2    0  503  0.16162529614E+02 -0.22527672644E+02 -0.12908368924E+02  0.30583482250E+02  0.00000000000E+00 0. -1.
<mgrwt>
<rscale>  4 0.48774021E+03</rscale>
<asrwt>0</asrwt>
<pdfrwt beam="1">  1       21 0.24313571E-01 0.48774021E+03</pdfrwt>
<pdfrwt beam="2">  1       21 0.57895081E-01 0.48774021E+03</pdfrwt>
<totfact> 0.40635964E+04</totfact>
</mgrwt>
</event>
<event>
 5    0  0.3372079E-003  0.5755923E+03  0.7546771E-02  0.9957380E-01
         21   -1    0    0  501  502  0.00000000000E+00  0.00000000000E+00  0.19592113493E+03  0.19592113493E+03  0.00000000000E+00 0. -1.
         21   -1    0    0  502  503 -0.00000000000E+00 -0.00000000000E+00 -0.42275488896E+03  0.42275488896E+03  0.00000000000E+00 0. -1.
         25    1    1    2    0    0 -0.68922214092E+02 -0.25940050989E+03 -0.15577446417E+03  0.33455878379E+03  0.12500000000E+03 0.  0.
          4    1    1    2  501    0  0.29398200527E+02  0.16674929583E+03 -0.18019896965E+02  0.17027712277E+03  0.00000000000E+00 0. -1.
         -4    1    1    2    0  503  0.39524013566E+02  0.92651214059E+02 -0.53039392890E+02  0.11384011733E+03  0.00000000000E+00 0.  1.
<mgrwt>
<rscale>  4 0.57559228E+03</rscale>
<asrwt>0</asrwt>
<pdfrwt beam="1">  1       21 0.30141713E-01 0.57559228E+03</pdfrwt>
<pdfrwt beam="2">  1       21 0.65039214E-01 0.57559228E+03</pdfrwt>
<totfact> 0.20212800E+04</totfact>
</mgrwt>
</event>
<event>
 5    0  0.3372079E-003  0.4988233E+03  0.7546771E-02  0.1014087E+00
         21   -1    0    0  501  502  0.00000000000E+00  0.00000000000E+00  0.30171696191E+03  0.30171696191E+03  0.00000000000E+00 0.  1.
         21   -1    0    0  502  503 -0.00000000000E+00 -0.00000000000E+00 -0.20617389468E+03  0.20617389468E+03  0.00000000000E+00 0.  1.
         25    1    1    2    0    0 -0.16413144580E+03 -0.15288723474E+03  0.25921972050E+01  0.25679828179E+03  0.12500000000E+03 0.  0.
          2    1    1    2  501    0  0.68716369590E+02  0.10751801355E+03  0.51204234042E+02  0.13749158618E+03  0.00000000000E+00 0.  1.
         -2    1    1    2    0  503  0.95415076206E+02  0.45369221192E+02  0.41746635980E+02  0.11360098862E+03  0.00000000000E+00 0. -1.
<mgrwt>
<rscale>  4 0.49882326E+03</rscale>
<asrwt>0</asrwt>
<pdfrwt beam="1">  1       21 0.46417994E-01 0.49882326E+03</pdfrwt>
<pdfrwt beam="2">  1       21 0.31719061E-01 0.49882326E+03</pdfrwt>
<totfact> 0.38528537E+04</totfact>
</mgrwt>
</event>
<event>
 5    0  0.3372079E-003  0.4496768E+03  0.7546771E-02  0.1027818E+00
         21   -1    0    0  503  502  0.00000000000E+00  0.00000000000E+00  0.33089474714E+03  0.33089474714E+03  0.00000000000E+00 0. -1.
         21   -1    0    0  501  503 -0.00000000000E+00 -0.00000000000E+00 -0.15277461406E+03  0.15277461406E+03  0.00000000000E+00 0. -1.
         25    1    1    2    0    0 -0.11401245696E+03 -0.16498139952E+03  0.13450361171E+03  0.27190793312E+03  0.12500000000E+03 0.  0.
          4    1    1    2  501    0  0.19426718184E+02  0.73453381924E+01  0.15212348472E+02  0.25744259916E+02  0.00000000000E+00 0.  1.
         -4    1    1    2    0  502  0.94585738778E+02  0.15763606133E+03  0.28404172900E+02  0.18601716816E+03  0.00000000000E+00 0. -1.
<mgrwt>
<rscale>  4 0.44967685E+03</rscale>
<asrwt>0</asrwt>
<pdfrwt beam="1">  1       21 0.50906884E-01 0.44967685E+03</pdfrwt>
<pdfrwt beam="2">  1       21 0.23503787E-01 0.44967685E+03</pdfrwt>
<totfact> 0.57727297E+04</totfact>
</mgrwt>
</event>
<event>
 5    0  0.3372079E-003  0.5657274E+03  0.7546771E-02  0.9979178E-01
         21   -1    0    0  501  502  0.00000000000E+00  0.00000000000E+00  0.21977942330E+04  0.21977942330E+04  0.00000000000E+00 0. -1.
         21   -1    0    0  502  503 -0.00000000000E+00 -0.00000000000E+00 -0.36405532880E+02  0.36405532880E+02  0.00000000000E+00 0. -1.
         25    1    1    2    0    0  0.33620369933E+02  0.23495528299E+03  0.10650739802E+04  0.10983359675E+04  0.12500000000E+03 0.  0.
          2    1    1    2  501    0  0.61107779979E+02 -0.82373519096E+02  0.58505434507E+03  0.59397655181E+03  0.00000000000E+00 0.  1.
         -2    1    1    2    0  503 -0.94728149912E+02 -0.15258176389E+03  0.51126037485E+03  0.54188724652E+03  0.00000000000E+00 0. -1.
<mgrwt>
<rscale>  4 0.56572739E+03</rscale>
<asrwt>0</asrwt>
<pdfrwt beam="1">  1       21 0.33812209E+00 0.56572739E+03</pdfrwt>
<pdfrwt beam="2">  1       21 0.56008529E-02 0.56572739E+03</pdfrwt>
<totfact> 0.35310079E+03</totfact>
</mgrwt>
</event>
<event>
 5    0  0.3372079E-003  0.4543652E+03  0.7546771E-02  0.1026428E+00
         21   -1    0    0  501  502  0.00000000000E+00  0.00000000000E+00  0.42820208594E+03  0.42820208594E+03  0.00000000000E+00 0.  1.
         21   -1    0    0  502  503 -0.00000000000E+00 -0.00000000000E+00 -0.12053170382E+03  0.12053170382E+03  0.00000000000E+00 0.  1.
         25    1    1    2    0    0  0.20276848421E+03  0.27557032134E+01  0.15320010404E+03  0.28322768926E+03  0.12500000000E+03 0.  0.
          3    1    1    2  501    0 -0.18956388351E+03 -0.22584838731E+02  0.14557450709E+03  0.24007598377E+03  0.00000000000E+00 0.  1.
         -3    1    1    2    0  503 -0.13204600702E+02  0.19829135518E+02  0.88957709879E+01  0.25430116723E+02  0.00000000000E+00 0. -1.
<mgrwt>
<rscale>  4 0.45436517E+03</rscale>
<asrwt>0</asrwt>
<pdfrwt beam="1">  1       21 0.65877243E-01 0.45436517E+03</pdfrwt>
<pdfrwt beam="2">  1       21 0.18543339E-01 0.45436517E+03</pdfrwt>
<totfact> 0.51736174E+04</totfact>
</mgrwt>
</event>
<event>
 5    0  0.3372079E-003  0.5428560E+03  0.7546771E-02  0.1003161E+00
         21   -1    0    0  501  502  0.00000000000E+00  0.00000000000E+00  0.11851202745E+03  0.11851202745E+03  0.00000000000E+00 0. -1.
         21   -1    0    0  502  503 -0.00000000000E+00 -0.00000000000E+00 -0.62165129019E+03  0.62165129019E+03  0.00000000000E+00 0. -1.
         25    1    1    2    0    0  0.17363549657E+03 -0.10344793734E+03 -0.40821872271E+03  0.47235398483E+03  0.12500000000E+03 0.  0.
          4    1    1    2  501    0 -0.15636690196E+03  0.85036255212E+02 -0.89600147631E+01  0.17821911961E+03  0.00000000000E+00 0. -1.
         -4    1    1    2    0  503 -0.17268594615E+02  0.18411682131E+02 -0.85960525265E+02  0.89590213208E+02  0.00000000000E+00 0.  1.
<mgrwt>
<rscale>  4 0.54285598E+03</rscale>
<asrwt>0</asrwt>
<pdfrwt beam="1">  1       21 0.18232620E-01 0.54285598E+03</pdfrwt>
<pdfrwt beam="2">  1       21 0.95638659E-01 0.54285598E+03</pdfrwt>
<totfact> 0.22110393E+04</totfact>
</mgrwt>
</event>
<event>
 5    0  0.3372079E-003  0.4692819E+03  0.7546771E-02  0.1022123E+00
         21   -1    0    0  503  502  0.00000000000E+00  0.00000000000E+00  0.28781095798E+03  0.28781095798E+03  0.00000000000E+00 0.  1.
         21   -1    0    0  501  503 -0.00000000000E+00 -0.00000000000E+00 -0.19129349610E+03  0.19129349610E+03  0.00000000000E+00 0.  1.
         25    1    1    2    0    0  0.42144104370E+02  0.19870018857E+03  0.88059268407E+02  0.25423871701E+03  0.12500000000E+03 0.  0.
          4    1    1    2  501    0 -0.23841815047E+02 -0.19104540549E+02 -0.27137647913E+02  0.40864012879E+02  0.00000000000E+00 0. -1.
         -4    1    1    2    0  502 -0.18302289323E+02 -0.17959564803E+03  0.35595841385E+02  0.18400172420E+03  0.00000000000E+00 0.  1.
<mgrwt>
<rscale>  4 0.46928185E+03</rscale>
<asrwt>0</asrwt>
<pdfrwt beam="1">  1       21 0.44278609E-01 0.46928185E+03</pdfrwt>
<pdfrwt beam="2">  1       21 0.29429769E-01 0.46928185E+03</pdfrwt>
<totfact> 0.49700285E+04</totfact>
</mgrwt>
</event>
<event>
 5    0  0.3372079E-003  0.6066966E+03  0.7546771E-02  0.9891609E-01
         21   -1    0    0  501  502  0.00000000000E+00  0.00000000000E+00  0.29617606526E+04  0.29617606526E+04  0.00000000000E+00 0. -1.
         21   -1    0    0  502  503 -0.00000000000E+00 -0.00000000000E+00 -0.31069425432E+02  0.31069425432E+02  0.00000000000E+00 0. -1.
         25    1    1    2    0    0  0.17596363346E+03  0.16911931916E+03  0.17980605216E+04  0.18188488623E+04  0.12500000000E+03 0.  0.
          2    1    1    2  501    0 -0.52876550386E+02 -0.13026685684E+03  0.87067487231E+03  0.88195244591E+03  0.00000000000E+00 0. -1.
         -2    1    1    2    0  503 -0.12308708307E+03 -0.38852462320E+02  0.26195583322E+03  0.29202876982E+03  0.00000000000E+00 0.  1.
<mgrwt>
<rscale>  4 0.60669664E+03</rscale>
<asrwt>0</asrwt>
<pdfrwt beam="1">  1       21 0.45565526E+00 0.60669664E+03</pdfrwt>
<pdfrwt beam="2">  1       21 0.47799139E-02 0.60669664E+03</pdfrwt>
<totfact> 0.79436936E+02</totfact>
</mgrwt>
</event>
<event>
 5    0  0.3372079E-003  0.5761702E+03  0.7546771E-02  0.9956117E-01
         21   -1    0    0  503  502  0.00000000000E+00  0.00000000000E+00  0.17034284478E+03  0.17034284478E+03  0.00000000000E+00 0. -1.
         21   -1    0    0  501  503 -0.00000000000E+00 -0.00000000000E+00 -0.48721169758E+03  0.48721169758E+03  0.00000000000E+00 0. -1.
         25    1    1    2    0    0  0.19835413052E+03 -0.11245584665E+03 -0.35462991182E+02  0.26243723494E+03  0.12500000000E+03 0.  0.
          1    1    1    2  501    0 -0.86933150071E+02  0.11533494788E+02 -0.21222600132E+03  0.22963072469E+03  0.00000000000E+00 0. -1.
         -1    1    1    2    0  502 -0.11142098045E+03  0.10092235187E+03 -0.69179860294E+02  0.16548658272E+03  0.00000000000E+00 0.  1.
<mgrwt>
<rscale>  4 0.57617021E+03</rscale>
<asrwt>0</asrwt>
<pdfrwt beam="1">  1       21 0.26206591E-01 0.57617021E+03</pdfrwt>
<pdfrwt beam="2">  1       21 0.74955646E-01 0.57617021E+03</pdfrwt>
<totfact> 0.19340821E+04</totfact>
</mgrwt>
</event>
<event>
 5    0  0.3372079E-003  0.6309992E+03  0.7546771E-02  0.9843101E-01
         21   -1    0    0  501  502  0.00000000000E+00  0.00000000000E+00  0.14063956883E+03  0.14063956883E+03  0.00000000000E+00 0. -1.
         21   -1    0    0  502  503 -0.00000000000E+00 -0.00000000000E+00 -0.70776668244E+03  0.70776668244E+03  0.00000000000E+00 0. -1.
         25    1    1    2    0    0 -0.20819174559E+03  0.81599347256E+02 -0.55301902357E+03  0.60947296645E+03  0.12500000000E+03 0.  0.
          2    1    1    2  501    0  0.19726383733E+02 -0.38591523679E+02 -0.14248429129E+02  0.45622950888E+02  0.00000000000E+00 0.  1.
         -2    1    1    2    0  503  0.18846536186E+03 -0.43007823576E+02  0.14033908596E+00  0.19331033393E+03  0.00000000000E+00 0. -1.
<mgrwt>
<rscale>  4 0.63099921E+03</rscale>
<asrwt>0</asrwt>
<pdfrwt beam="1">  1       21 0.21636857E-01 0.63099921E+03</pdfrwt>
<pdfrwt beam="2">  1       21 0.10888718E+00 0.63099921E+03</pdfrwt>
<totfact> 0.11368996E+04</totfact>
</mgrwt>
</event>
<event>
 5    0  0.3372079E-003  0.5201655E+03  0.7546771E-02  0.1008645E+00
         21   -1    0    0  501  502  0.00000000000E+00  0.00000000000E+00  0.93573930077E+03  0.93573930077E+03  0.00000000000E+00 0. -1.
         21   -1    0    0  502  503 -0.00000000000E+00 -0.00000000000E+00 -0.72288343493E+02  0.72288343493E+02  0.00000000000E+00 0. -1.
         25    1    1    2    0    0 -0.12265014942E+03  0.20573866669E+03  0.51680951251E+03  0.58317109869E+03  0.12500000000E+03 0.  0.
          3    1    1    2  501    0  0.10186100052E+03 -0.19911795778E+03  0.32014032001E+03  0.39052970314E+03  0.00000000000E+00 0. -1.
         -3    1    1    2    0  503  0.20789148894E+02 -0.66207089142E+01  0.26501124755E+02  0.34326842435E+02  0.00000000000E+00 0.  1.
<mgrwt>
<rscale>  4 0.52016553E+03</rscale>
<asrwt>0</asrwt>
<pdfrwt beam="1">  1       21 0.14395988E+00 0.52016553E+03</pdfrwt>
<pdfrwt beam="2">  1       21 0.11121284E-01 0.52016553E+03</pdfrwt>
<totfact> 0.19649073E+04</totfact>
</mgrwt>
</event>
<event>
 5    0  0.3372079E-003  0.5491326E+03  0.7546771E-02  0.1001695E+00
         21   -1    0    0  503  502  0.00000000000E+00  0.00000000000E+00  0.42557015699E+03  0.42557015699E+03  0.00000000000E+00 0.  1.
         21   -1    0    0  501  503 -0.00000000000E+00 -0.00000000000E+00 -0.17714272451E+03  0.17714272451E+03  0.00000000000E+00 0.  1.
         25    1    1    2    0    0  0.21848389697E+03  0.27780523156E+02  0.19063552328E+03  0.31697614017E+03  0.12500000000E+03 0.  0.
          3    1    1    2  501    0 -0.10409085653E+03 -0.73651335561E+02 -0.34111466574E+02  0.13199627948E+03  0.00000000000E+00 0.  1.
         -3    1    1    2    0  502 -0.11439304044E+03  0.45870812405E+02  0.91903375780E+02  0.15374046185E+03  0.00000000000E+00 0. -1.
<mgrwt>
<rscale>  4 0.54913261E+03</rscale>
<asrwt>0</asrwt>
<pdfrwt beam="1">  1       21 0.65472332E-01 0.54913261E+03</pdfrwt>
<pdfrwt beam="2">  1       21 0.27252727E-01 0.54913261E+03</pdfrwt>
<totfact> 0.24457781E+04</totfact>
</mgrwt>
</event>
<event>
 5    0  0.3372079E-003  0.5008243E+03  0.7546771E-02  0.1013564E+00
         21   -1    0    0  501  502  0.00000000000E+00  0.00000000000E+00  0.16224487248E+03  0.16224487248E+03  0.00000000000E+00 0.  1.
         21   -1    0    0  502  503 -0.00000000000E+00 -0.00000000000E+00 -0.38649141165E+03  0.38649141165E+03  0.00000000000E+00 0.  1.
         25    1    1    2    0    0 -0.13865266644E+03  0.17083326383E+03 -0.10917659366E+03  0.27559588993E+03  0.12500000000E+03 0.  0.
          2    1    1    2  501    0  0.14317455618E+03 -0.96399119780E+02 -0.71942109593E+02  0.18699575119E+03  0.00000000000E+00 0.  1.
         -2    1    1    2    0  503 -0.45218897364E+01 -0.74434144054E+02 -0.43127835927E+02  0.86144643011E+02  0.00000000000E+00 0. -1.
<mgrwt>
<rscale>  4 0.50082432E+03</rscale>
<asrwt>0</asrwt>
<pdfrwt beam="1">  1       21 0.24960750E-01 0.50082432E+03</pdfrwt>
<pdfrwt beam="2">  1       21 0.59460217E-01 0.50082432E+03</pdfrwt>
<totfact> 0.36321625E+04</totfact>
</mgrwt>
</event>
<event>
 5    0  0.3372079E-003  0.5928505E+03  0.7546771E-02  0.9920351E-01
         21   -1    0    0  501  502  0.00000000000E+00  0.00000000000E+00  0.16829553634E+03  0.16829553634E+03  0.00000000000E+00 0. -1.
         21   -1    0    0  502  503 -0.00000000000E+00 -0.00000000000E+00 -0.52210501249E+03  0.52210501249E+03  0.00000000000E+00 0. -1.
         25    1    1    2    0    0 -0.14830910000E+03 -0.23426156761E+03 -0.12620306958E+03  0.32928146922E+03  0.12500000000E+03 0.  0.
          4    1    1    2  501    0  0.52230758540E+01  0.25768524377E+02 -0.32049888981E+02  0.41454707255E+02  0.00000000000E+00 0.  1.
         -4    1    1    2    0  503  0.14308602415E+03  0.20849304323E+03 -0.19555651759E+03  0.31966437236E+03  0.00000000000E+00 0. -1.
<mgrwt>
<rscale>  4 0.59285055E+03</rscale>
<asrwt>0</asrwt>
<pdfrwt beam="1">  1       21 0.25891621E-01 0.59285055E+03</pdfrwt>
<pdfrwt beam="2">  1       21 0.80323849E-01 0.59285055E+03</pdfrwt>
<totfact> 0.16822887E+04</totfact>
</mgrwt>
</event>
<event>
 5    0  0.3372079E-003  0.5944122E+03  0.7546771E-02  0.9917067E-01
         21   -1    0    0  503  502  0.00000000000E+00  0.00000000000E+00  0.22310413055E+03  0.22310413055E+03  0.00000000000E+00 0. -1.
         21   -1    0    0  501  503 -0.00000000000E+00 -0.00000000000E+00 -0.39592039719E+03  0.39592039719E+03  0.00000000000E+00 0. -1.
         25    1    1    2    0    0 -0.49413895934E+02  0.22318540336E+03 -0.23535210226E+03  0.35109695160E+03  0.12500000000E+03 0.  0.
          2    1    1    2  501    0 -0.23440383039E+02 -0.16662302641E+03  0.38451711478E+02  0.17260132851E+03  0.00000000000E+00 0.  1.
         -2    1    1    2    0  502  0.72854278973E+02 -0.56562376954E+02  0.24084124135E+02  0.95326247627E+02  0.00000000000E+00 0. -1.
<mgrwt>
<rscale>  4 0.59441223E+03</rscale>
<asrwt>0</asrwt>
<pdfrwt beam="1">  1       21 0.34323713E-01 0.59441223E+03</pdfrwt>
<pdfrwt beam="2">  1       21 0.60910829E-01 0.59441223E+03</pdfrwt>
<totfact> 0.17932417E+04</totfact>
</mgrwt>
</event>
<event>
 5    0  0.3372079E-003  0.1391606E+04  0.7546771E-02  0.8959917E-01
         21   -1    0    0  501  502  0.00000000000E+00  0.00000000000E+00  0.26508130368E+03  0.26508130368E+03  0.00000000000E+00 0.  1.
         21   -1    0    0  502  503 -0.00000000000E+00 -0.00000000000E+00 -0.18263887978E+04  0.18263887978E+04  0.00000000000E+00 0.  1.
         25    1    1    2    0    0 -0.58750323746E+03 -0.28075721270E+03 -0.11162465877E+04  0.12983127940E+04  0.12500000000E+03 0.  0.
          3    1    1    2  501    0  0.20655507559E+02  0.21467812034E+02 -0.39596872018E+02  0.49552287734E+02  0.00000000000E+00 0. -1.
         -3    1    1    2    0  503  0.56684772990E+03  0.25928940067E+03 -0.40546403439E+03  0.74360501974E+03  0.00000000000E+00 0.  1.
<mgrwt>
<rscale>  4 0.13916056E+04</rscale>
<asrwt>0</asrwt>
<pdfrwt beam="1">  1       21 0.40781738E-01 0.13916056E+04</pdfrwt>
<pdfrwt beam="2">  1       21 0.28098290E+00 0.13916056E+04</pdfrwt>
<totfact> 0.15041581E+02</totfact>
</mgrwt>
</event>
<event>
 5    0  0.3372079E-003  0.4584117E+03  0.7546771E-02  0.1025243E+00
         21   -1    0    0  501  502  0.00000000000E+00  0.00000000000E+00  0.83331028319E+03  0.83331028319E+03  0.00000000000E+00 0. -1.
         21   -1    0    0  502  503 -0.00000000000E+00 -0.00000000000E+00 -0.63044128603E+02  0.63044128603E+02  0.00000000000E+00 0. -1.
         25    1    1    2    0    0 -0.66699234777E+02 -0.18911451870E+03  0.38213946831E+03  0.44929796611E+03  0.12500000000E+03 0.  0.
          4    1    1    2  501    0  0.59160220821E+02  0.15947140148E+03  0.37854683898E+03  0.41500454085E+03  0.00000000000E+00 0. -1.
         -4    1    1    2    0  503  0.75390139568E+01  0.29643117218E+02  0.95798472901E+01  0.32051904841E+02  0.00000000000E+00 0.  1.
<mgrwt>
<rscale>  4 0.45841170E+03</rscale>
<asrwt>0</asrwt>
<pdfrwt beam="1">  1       21 0.12820157E+00 0.45841170E+03</pdfrwt>
<pdfrwt beam="2">  1       21 0.96990973E-02 0.45841170E+03</pdfrwt>
<totfact> 0.34693338E+04</totfact>
</mgrwt>
</event>
<event>
 5    0  0.3372079E-003  0.8562627E+03  0.7546771E-02  0.9481970E-01
         21   -1    0    0  503  502  0.00000000000E+00  0.00000000000E+00  0.17409628106E+04  0.17409628106E+04  0.00000000000E+00 0. -1.
         21   -1    0    0  501  503 -0.00000000000E+00 -0.00000000000E+00 -0.10528451978E+03  0.10528451978E+03  0.00000000000E+00 0. -1.
         25    1    1    2    0    0 -0.30627727501E+03 -0.13197536304E+01  0.14364385394E+04  0.14740380553E+04  0.12500000000E+03 0.  0.
          2    1    1    2  501    0  0.19710631071E+03  0.17991936628E+02  0.16165485567E+03  0.25555214706E+03  0.00000000000E+00 0. -1.
         -2    1    1    2    0  502  0.10917096430E+03 -0.16672182997E+02  0.37584895750E+02  0.11665712804E+03  0.00000000000E+00 0.  1.
<mgrwt>
<rscale>  4 0.85626265E+03</rscale>
<asrwt>0</asrwt>
<pdfrwt beam="1">  1       21 0.26784041E+00 0.85626265E+03</pdfrwt>
<pdfrwt beam="2">  1       21 0.16197620E-01 0.85626265E+03</pdfrwt>
<totfact> 0.12754387E+03</totfact>
</mgrwt>
</event>
<event>
 5    0  0.3372079E-003  0.5064133E+03  0.7546771E-02  0.1012118E+00
         21   -1    0    0  503  502  0.00000000000E+00  0.00000000000E+00  0.36719266564E+02  0.36719266564E+02  0.00000000000E+00 0. -1.
         21   -1    0    0  501  503 -0.00000000000E+00 -0.00000000000E+00 -0.17460480876E+04  0.17460480876E+04  0.00000000000E+00 0. -1.
         25    1    1    2    0    0 -0.81769884642E+02  0.20670430203E+03 -0.10192310119E+04  0.10506521014E+04  0.12500000000E+03 0.  0.
          4    1    1    2  501    0  0.10024562446E+03 -0.16301724657E+03 -0.60675695981E+03  0.63622151503E+03  0.00000000000E+00 0. -1.
         -4    1    1    2    0  502 -0.18475739816E+02 -0.43687055461E+02 -0.83340849383E+02  0.95893737817E+02  0.00000000000E+00 0.  1.
<mgrwt>
<rscale>  4 0.50641329E+03</rscale>
<asrwt>0</asrwt>
<pdfrwt beam="1">  1       21 0.56491183E-02 0.50641329E+03</pdfrwt>
<pdfrwt beam="2">  1       21 0.26862276E+00 0.50641329E+03</pdfrwt>
<totfact> 0.94138959E+03</totfact>
</mgrwt>
</event>
<event>
 5    0  0.3372079E-003  0.5514167E+03  0.7546771E-02  0.1001167E+00
         21   -1    0    0  501  502  0.00000000000E+00  0.00000000000E+00  0.32689033732E+02  0.32689033732E+02  0.00000000000E+00 0.  1.
         21   -1    0    0  502  503 -0.00000000000E+00 -0.00000000000E+00 -0.23254006906E+04  0.23254006906E+04  0.00000000000E+00 0.  1.
         25    1    1    2    0    0 -0.19681145506E+03 -0.11471179066E+03 -0.85838662807E+03  0.89685347019E+03  0.12500000000E+03 0.  0.
          1    1    1    2  501    0  0.77744698350E+02  0.78740931352E+02 -0.29376893948E+03  0.31391808198E+03  0.00000000000E+00 0. -1.
         -1    1    1    2    0  503  0.11906675671E+03  0.35970859307E+02 -0.11405560894E+04  0.11473181722E+04  0.00000000000E+00 0.  1.
<mgrwt>
<rscale>  4 0.55141673E+03</rscale>
<asrwt>0</asrwt>
<pdfrwt beam="1">  1       21 0.50290817E-02 0.55141673E+03</pdfrwt>
<pdfrwt beam="2">  1       21 0.35775398E+00 0.55141673E+03</pdfrwt>
<totfact> 0.32388017E+03</totfact>
</mgrwt>
</event>
<event>
 5    0  0.3372079E-003  0.5159081E+03  0.7546771E-02  0.1009708E+00
         21   -1    0    0  503  502  0.00000000000E+00  0.00000000000E+00  0.50239631370E+03  0.50239631370E+03  0.00000000000E+00 0.  1.
         21   -1    0    0  501  503 -0.00000000000E+00 -0.00000000000E+00 -0.13244582123E+03  0.13244582123E+03  0.00000000000E+00 0.  1.
         25    1    1    2    0    0 -0.15775292400E+03 -0.17826887576E+03  0.22507531193E+03  0.35064180175E+03  0.12500000000E+03 0.  0.
          3    1    1    2  501    0  0.43519341735E+02  0.17452679529E+02  0.33979339227E+02  0.57906170846E+02  0.00000000000E+00 0. -1.
         -3    1    1    2    0  502  0.11423358227E+03  0.16081619623E+03  0.11089584131E+03  0.22629416233E+03  0.00000000000E+00 0.  1.
<mgrwt>
<rscale>  4 0.51590810E+03</rscale>
<asrwt>0</asrwt>
<pdfrwt beam="1">  1       21 0.77291740E-01 0.51590810E+03</pdfrwt>
<pdfrwt beam="2">  1       21 0.20376280E-01 0.51590810E+03</pdfrwt>
<totfact> 0.29724284E+04</totfact>
</mgrwt>
</event>
<event>
 5    0  0.3372079E-003  0.5202815E+03  0.7546771E-02  0.1008617E+00
         21   -1    0    0  501  502  0.00000000000E+00  0.00000000000E+00  0.85765144413E+02  0.85765144413E+02  0.00000000000E+00 0. -1.
         21   -1    0    0  502  503 -0.00000000000E+00 -0.00000000000E+00 -0.78905258383E+03  0.78905258383E+03  0.00000000000E+00 0. -1.
         25    1    1    2    0    0 -0.22584181029E+03  0.18737897673E+02 -0.34764872569E+03  0.43340543208E+03  0.12500000000E+03 0.  0.
          4    1    1    2  501    0  0.59456891502E+02  0.45696969600E+02 -0.59718250707E+02  0.95862424574E+02  0.00000000000E+00 0.  1.
         -4    1    1    2    0  503  0.16638491879E+03 -0.64434867274E+02 -0.29592046302E+03  0.34554987159E+03  0.00000000000E+00 0. -1.
<mgrwt>
<rscale>  4 0.52028150E+03</rscale>
<asrwt>0</asrwt>
<pdfrwt beam="1">  1       21 0.13194637E-01 0.52028150E+03</pdfrwt>
<pdfrwt beam="2">  1       21 0.12139271E+00 0.52028150E+03</pdfrwt>
<totfact> 0.22481599E+04</totfact>
</mgrwt>
</event>
<event>
 5    0  0.3372079E-003  0.4946095E+03  0.7546771E-02  0.1015196E+00
         21   -1    0    0  503  502  0.00000000000E+00  0.00000000000E+00  0.10515872892E+03  0.10515872892E+03  0.00000000000E+00 0. -1.
         21   -1    0    0  501  503 -0.00000000000E+00 -0.00000000000E+00 -0.58159344333E+03  0.58159344333E+03  0.00000000000E+00 0. -1.
         25    1    1    2    0    0 -0.13582110691E+03  0.18264397907E+03 -0.25157222628E+03  0.36155190666E+03  0.12500000000E+03 0.  0.
          4    1    1    2  501    0  0.46362657798E+02 -0.10760293150E+03 -0.12760366412E+03  0.17323562567E+03  0.00000000000E+00 0.  1.
         -4    1    1    2    0  502  0.89458449113E+02 -0.75041047575E+02 -0.97258824015E+02  0.15196463992E+03  0.00000000000E+00 0. -1.
<mgrwt>
<rscale>  4 0.49460945E+03</rscale>
<asrwt>0</asrwt>
<pdfrwt beam="1">  1       21 0.16178266E-01 0.49460945E+03</pdfrwt>
<pdfrwt beam="2">  1       21 0.89475916E-01 0.49460945E+03</pdfrwt>
<totfact> 0.32810943E+04</totfact>
</mgrwt>
</event>
<event>
 5    0  0.3372079E-003  0.6169959E+03  0.7546771E-02  0.9870759E-01
         21   -1    0    0  503  502  0.00000000000E+00  0.00000000000E+00  0.22325815067E+03  0.22325815067E+03  0.00000000000E+00 0. -1.
         21   -1    0    0  501  503 -0.00000000000E+00 -0.00000000000E+00 -0.42628223825E+03  0.42628223825E+03  0.00000000000E+00 0. -1.
         25    1    1    2    0    0  0.20214783473E+03 -0.44022543375E+02 -0.49011592439E+02  0.24663508997E+03  0.12500000000E+03 0.  0.
          2    1    1    2  501    0 -0.70721240944E+02  0.14624815896E+03 -0.17060766445E+03  0.23557799789E+03  0.00000000000E+00 0. -1.
         -2    1    1    2    0  502 -0.13142659378E+03 -0.10222561559E+03  0.16595169309E+02  0.16732730106E+03  0.00000000000E+00 0.  1.
<mgrwt>
<rscale>  4 0.61699590E+03</rscale>
<asrwt>0</asrwt>
<pdfrwt beam="1">  1       21 0.34347409E-01 0.61699590E+03</pdfrwt>
<pdfrwt beam="2">  1       21 0.65581881E-01 0.61699590E+03</pdfrwt>
<totfact> 0.15124132E+04</totfact>
</mgrwt>
</event>
<event>
 5    0  0.3372079E-003  0.1470072E+04  0.7546771E-02  0.8904602E-01
         21   -1    0    0  503  502  0.00000000000E+00  0.00000000000E+00  0.85096512149E+03  0.85096512149E+03  0.00000000000E+00 0. -1.
         21   -1    0    0  501  503 -0.00000000000E+00 -0.00000000000E+00 -0.63490046029E+03  0.63490046029E+03  0.00000000000E+00 0. -1.
         25    1    1    2    0    0  0.52291691869E+03  0.22337640190E+03  0.49741464455E+03  0.76575808804E+03  0.12500000000E+03 0.  0.
          4    1    1    2  501    0 -0.57337925573E+03 -0.20626610739E+03 -0.26385334229E+03  0.66402414429E+03  0.00000000000E+00 0. -1.
         -4    1    1    2    0  502  0.50462337037E+02 -0.17110294513E+02 -0.17496641055E+02  0.56083349452E+02  0.00000000000E+00 0.  1.
<mgrwt>
<rscale>  4 0.14700723E+04</rscale>
<asrwt>0</asrwt>
<pdfrwt beam="1">  1       21 0.13091771E+00 0.14700723E+04</pdfrwt>
<pdfrwt beam="2">  1       21 0.97676994E-01 0.14700723E+04</pdfrwt>
<totfact> 0.23784849E+02</totfact>
</mgrwt>
</event>
<event>
 5    0  0.3372079E-003  0.5554276E+03  0.7546771E-02  0.1000245E+00
         21   -1    0    0  503  502  0.00000000000E+00  0.00000000000E+00  0.31540755479E+03  0.31540755479E+03  0.00000000000E+00 0.  1.
         21   -1    0    0  501  503 -0.00000000000E+00 -0.00000000000E+00 -0.24452478084E+03  0.24452478084E+03  0.00000000000E+00 0.  1.
         25    1    1    2    0    0 -0.19715378221E+03 -0.10659145021E+03  0.12592905043E+03  0.28585744146E+03  0.12500000000E+03 0.  0.
          1    1    1    2  501    0  0.18347295309E+03  0.12556167170E+03 -0.83281462677E+02  0.23741074100E+03  0.00000000000E+00 0.  1.
         -1    1    1    2    0  502  0.13680829116E+02 -0.18970221488E+02  0.28235186190E+02  0.36664153172E+02  0.00000000000E+00 0. -1.
<mgrwt>
<rscale>  4 0.55542763E+03</rscale>
<asrwt>0</asrwt>
<pdfrwt beam="1">  1       21 0.48524239E-01 0.55542763E+03</pdfrwt>
<pdfrwt beam="2">  1       21 0.37619197E-01 0.55542763E+03</pdfrwt>
<totfact> 0.24534637E+04</totfact>
</mgrwt>
</event>
<event>
 5    0  0.3372079E-003  0.7853029E+03  0.7546771E-02  0.9581538E-01
         21   -1    0    0  503  502  0.00000000000E+00  0.00000000000E+00  0.15996420040E+04  0.15996420040E+04  0.00000000000E+00 0. -1.
         21   -1    0    0  501  503 -0.00000000000E+00 -0.00000000000E+00 -0.96381046775E+02  0.96381046775E+02  0.00000000000E+00 0. -1.
         25    1    1    2    0    0  0.29116316739E+03 -0.23835068418E+03  0.72752816340E+03  0.82855854786E+03  0.12500000000E+03 0.  0.
          4    1    1    2  501    0 -0.64204563760E+02  0.19004464677E+02  0.19969492354E+03  0.21062159949E+03  0.00000000000E+00 0. -1.
         -4    1    1    2    0  502 -0.22695860363E+03  0.21934621950E+03  0.57603787029E+03  0.65684290343E+03  0.00000000000E+00 0.  1.
<mgrwt>
<rscale>  4 0.78530292E+03</rscale>
<asrwt>0</asrwt>
<pdfrwt beam="1">  1       21 0.24609875E+00 0.78530292E+03</pdfrwt>
<pdfrwt beam="2">  1       21 0.14827854E-01 0.78530292E+03</pdfrwt>
<totfact> 0.20985072E+03</totfact>
</mgrwt>
</event>
<event>
 5    0  0.3372079E-003  0.7075158E+03  0.7546771E-02  0.9704465E-01
         21   -1    0    0  501  502  0.00000000000E+00  0.00000000000E+00  0.20522219440E+03  0.20522219440E+03  0.00000000000E+00 0. -1.
         21   -1    0    0  502  503 -0.00000000000E+00 -0.00000000000E+00 -0.60980077143E+03  0.60980077143E+03  0.00000000000E+00 0. -1.
         25    1    1    2    0    0  0.21069865729E+03  0.96874947373E+02 -0.24465678300E+03  0.35952833140E+03  0.12500000000E+03 0.  0.
          1    1    1    2  501    0  0.79121382580E+02 -0.10468734850E+03 -0.83954617098E+02  0.15578193685E+03  0.00000000000E+00 0. -1.
         -1    1    1    2    0  503 -0.28982003987E+03  0.78124011230E+01 -0.75967176927E+02  0.29971269758E+03  0.00000000000E+00 0.  1.
<mgrwt>
<rscale>  4 0.70751580E+03</rscale>
<asrwt>0</asrwt>
<pdfrwt beam="1">  1       21 0.31572646E-01 0.70751580E+03</pdfrwt>
<pdfrwt beam="2">  1       21 0.93815501E-01 0.70751580E+03</pdfrwt>
<totfact> 0.76674002E+03</totfact>
</mgrwt>
</event>
<event>
 5    0  0.3372079E-003  0.5115570E+03  0.7546771E-02  0.1010806E+00
         21   -1    0    0  503  502  0.00000000000E+00  0.00000000000E+00  0.83378706246E+03  0.83378706246E+03  0.00000000000E+00 0.  1.
         21   -1    0    0  501  503 -0.00000000000E+00 -0.00000000000E+00 -0.78464454717E+02  0.78464454717E+02  0.00000000000E+00 0.  1.
         25    1    1    2    0    0  0.21388766355E+03 -0.81476861664E+02  0.43287511336E+03  0.50536350815E+03  0.12500000000E+03 0.  0.
          3    1    1    2  501    0 -0.25780873508E+02 -0.75758857206E+01  0.50501357964E+01  0.27341385386E+02  0.00000000000E+00 0. -1.
         -3    1    1    2    0  502 -0.18810679004E+03  0.89052747385E+02  0.31739735859E+03  0.37954662364E+03  0.00000000000E+00 0.  1.
<mgrwt>
<rscale>  4 0.51155702E+03</rscale>
<asrwt>0</asrwt>
<pdfrwt beam="1">  1       21 0.12827493E+00 0.51155702E+03</pdfrwt>
<pdfrwt beam="2">  1       21 0.12071455E-01 0.51155702E+03</pdfrwt>
<totfact> 0.23002362E+04</totfact>
</mgrwt>
</event>
<event>
 5    0  0.3372079E-003  0.6074708E+03  0.7546771E-02  0.9890027E-01
         21   -1    0    0  501  502  0.00000000000E+00  0.00000000000E+00  0.26916878435E+03  0.26916878435E+03  0.00000000000E+00 0.  1.
         21   -1    0    0  502  503 -0.00000000000E+00 -0.00000000000E+00 -0.34274105329E+03  0.34274105329E+03  0.00000000000E+00 0.  1.
         25    1    1    2    0    0 -0.22379667814E+03 -0.22280796737E+02 -0.21236063778E+03  0.33362168324E+03  0.12500000000E+03 0.  0.
          2    1    1    2  501    0  0.63505890656E+02 -0.16778236496E+02  0.49944657220E+01  0.65874517500E+02  0.00000000000E+00 0. -1.
         -2    1    1    2    0  503  0.16029078749E+03  0.39059033233E+02  0.13379390311E+03  0.21241363690E+03  0.00000000000E+00 0.  1.
<mgrwt>
<rscale>  4 0.60747080E+03</rscale>
<asrwt>0</asrwt>
<pdfrwt beam="1">  1       21 0.41410582E-01 0.60747080E+03</pdfrwt>
<pdfrwt beam="2">  1       21 0.52729393E-01 0.60747080E+03</pdfrwt>
<totfact> 0.16662543E+04</totfact>
</mgrwt>
</event>
<event>
 5    0  0.3372079E-003  0.6205931E+03  0.7546771E-02  0.9863580E-01
         21   -1    0    0  501  502  0.00000000000E+00  0.00000000000E+00  0.10395139028E+03  0.10395139028E+03  0.00000000000E+00 0.  1.
         21   -1    0    0  502  503 -0.00000000000E+00 -0.00000000000E+00 -0.92624016222E+03  0.92624016222E+03  0.00000000000E+00 0.  1.
         25    1    1    2    0    0  0.77660839119E+02  0.21967447866E+03 -0.16535470328E+03  0.31185775668E+03  0.12500000000E+03 0.  0.
          3    1    1    2  501    0 -0.82854946582E+02 -0.10432036321E+03 -0.16019858434E+03  0.20835370594E+03  0.00000000000E+00 0.  1.
         -3    1    1    2    0  503  0.51941074632E+01 -0.11535411544E+03 -0.49673548431E+03  0.50998008988E+03  0.00000000000E+00 0. -1.
<mgrwt>
<rscale>  4 0.62059311E+03</rscale>
<asrwt>0</asrwt>
<pdfrwt beam="1">  1       21 0.15992522E-01 0.62059311E+03</pdfrwt>
<pdfrwt beam="2">  1       21 0.14249849E+00 0.62059311E+03</pdfrwt>
<totfact> 0.10085256E+04</totfact>
</mgrwt>
</event>
<event>
 5    0  0.3372079E-003  0.6148525E+03  0.7546771E-02  0.9875062E-01
         21   -1    0    0  503  502  0.00000000000E+00  0.00000000000E+00  0.45746467566E+02  0.45746467566E+02  0.00000000000E+00 0.  1.
         21   -1    0    0  501  503 -0.00000000000E+00 -0.00000000000E+00 -0.20659717301E+04  0.20659717301E+04  0.00000000000E+00 0.  1.
         25    1    1    2    0    0  0.22838693578E+03 -0.68839114442E+02 -0.49536533865E+03  0.56383617732E+03  0.12500000000E+03 0.  0.
          4    1    1    2  501    0 -0.20864764982E+03  0.63881633863E+02 -0.14998378954E+04  0.15156280604E+04  0.00000000000E+00 0.  1.
         -4    1    1    2    0  502 -0.19739285961E+02  0.49574805795E+01 -0.25022028422E+02  0.32253959917E+02  0.00000000000E+00 0. -1.
<mgrwt>
<rscale>  4 0.61485253E+03</rscale>
<asrwt>0</asrwt>
<pdfrwt beam="1">  1       21 0.70379196E-02 0.61485253E+03</pdfrwt>
<pdfrwt beam="2">  1       21 0.31784174E+00 0.61485253E+03</pdfrwt>
<totfact> 0.30896841E+03</totfact>
</mgrwt>
</event>
<event>
 5    0  0.3372079E-003  0.7336197E+03  0.7546771E-02  0.9661405E-01
         21   -1    0    0  501  502  0.00000000000E+00  0.00000000000E+00  0.43398103311E+03  0.43398103311E+03  0.00000000000E+00 0.  1.
         21   -1    0    0  502  503 -0.00000000000E+00 -0.00000000000E+00 -0.31003539572E+03  0.31003539572E+03  0.00000000000E+00 0.  1.
         25    1    1    2    0    0 -0.23057897640E+03 -0.90996848097E+02 -0.18083843959E+03  0.33132254972E+03  0.12500000000E+03 0.  0.
          4    1    1    2  501    0  0.18487695931E+03  0.24396461037E+02  0.26112910256E+03  0.32087861505E+03  0.00000000000E+00 0. -1.
         -4    1    1    2    0  503  0.45702017095E+02  0.66600387060E+02  0.43654974416E+02  0.91815264060E+02  0.00000000000E+00 0.  1.
<mgrwt>
<rscale>  4 0.73361974E+03</rscale>
<asrwt>0</asrwt>
<pdfrwt beam="1">  1       21 0.66766313E-01 0.73361974E+03</pdfrwt>
<pdfrwt beam="2">  1       21 0.47697753E-01 0.73361974E+03</pdfrwt>
<totfact> 0.71732974E+03</totfact>
</mgrwt>
</event>
<event>
 5    0  0.3372079E-003  0.4658958E+03  0.7546771E-02  0.1023085E+00
         21   -1    0    0  503  502  0.00000000000E+00  0.00000000000E+00  0.99266141893E+02  0.99266141893E+02  0.00000000000E+00 0.  1.
         21   -1    0    0  501  503 -0.00000000000E+00 -0.00000000000E+00 -0.54665894719E+03  0.54665894719E+03  0.00000000000E+00 0.  1.
         25    1    1    2    0    0  0.14790757624E+03 -0.13989871451E+03 -0.14912588958E+03  0.28162356502E+03  0.12500000000E+03 0.  0.
          4    1    1    2  501    0 -0.69851784250E+01  0.29044100932E+02 -0.42372802949E+02  0.51844063752E+02  0.00000000000E+00 0.  1.
         -4    1    1    2    0  502 -0.14092239781E+03  0.11085461358E+03 -0.25589411276E+03  0.31245746031E+03  0.00000000000E+00 0. -1.
<mgrwt>
<rscale>  4 0.46589580E+03</rscale>
<asrwt>0</asrwt>
<pdfrwt beam="1">  1       21 0.15271715E-01 0.46589580E+03</pdfrwt>
<pdfrwt beam="2">  1       21 0.84101374E-01 0.46589580E+03</pdfrwt>
<totfact> 0.42542584E+04</totfact>
</mgrwt>
</event>
<event>
 5    0  0.3372079E-003  0.5004650E+03  0.7546771E-02  0.1013658E+00
         21   -1    0    0  503  502  0.00000000000E+00  0.00000000000E+00  0.24470151007E+04  0.24470151007E+04  0.00000000000E+00 0. -1.
         21   -1    0    0  501  503 -0.00000000000E+00 -0.00000000000E+00 -0.25588846686E+02  0.25588846686E+02  0.00000000000E+00 0. -1.
         25    1    1    2    0    0  0.21310614216E+03 -0.72933858138E+01  0.14151373263E+04  0.14365605011E+04  0.12500000000E+03 0.  0.
          4    1    1    2  501    0 -0.31337857912E+02 -0.60817556969E+01  0.33293450169E+02  0.46124862222E+02  0.00000000000E+00 0.  1.
         -4    1    1    2    0  502 -0.18176828425E+03  0.13375141511E+02  0.97299547764E+03  0.98991858406E+03  0.00000000000E+00 0. -1.
<mgrwt>
<rscale>  4 0.50046496E+03</rscale>
<asrwt>0</asrwt>
<pdfrwt beam="1">  1       21 0.37646368E+00 0.50046496E+03</pdfrwt>
<pdfrwt beam="2">  1       21 0.39367476E-02 0.50046496E+03</pdfrwt>
<totfact> 0.38548478E+03</totfact>
</mgrwt>
</event>
<event>
 5    0  0.3372079E-003  0.5266216E+03  0.7546771E-02  0.1007055E+00
         21   -1    0    0  501  502  0.00000000000E+00  0.00000000000E+00  0.10602937646E+03  0.10602937646E+03  0.00000000000E+00 0.  1.
         21   -1    0    0  502  503 -0.00000000000E+00 -0.00000000000E+00 -0.65389975277E+03  0.65389975277E+03  0.00000000000E+00 0.  1.
         25    1    1    2    0    0  0.12617915715E+03 -0.20795417622E+03 -0.31180705684E+03  0.41474662121E+03  0.12500000000E+03 0.  0.
          1    1    1    2  501    0 -0.28516077301E+02  0.10044885239E+02 -0.38709743391E+02  0.49117314844E+02  0.00000000000E+00 0. -1.
         -1    1    1    2    0  503 -0.97663079851E+02  0.19790929098E+03 -0.19735357608E+03  0.29606519318E+03  0.00000000000E+00 0.  1.
<mgrwt>
<rscale>  4 0.52662162E+03</rscale>
<asrwt>0</asrwt>
<pdfrwt beam="1">  1       21 0.16312212E-01 0.52662162E+03</pdfrwt>
<pdfrwt beam="2">  1       21 0.10059996E+00 0.52662162E+03</pdfrwt>
<totfact> 0.24203131E+04</totfact>
</mgrwt>
</event>
<event>
 5    0  0.3372079E-003  0.5683133E+03  0.7546771E-02  0.9973418E-01
         21   -1    0    0  501  502  0.00000000000E+00  0.00000000000E+00  0.26999456218E+03  0.26999456218E+03  0.00000000000E+00 0.  1.
         21   -1    0    0  502  503 -0.00000000000E+00 -0.00000000000E+00 -0.29906159620E+03  0.29906159620E+03  0.00000000000E+00 0.  1.
         25    1    1    2    0    0  0.15011353985E+03  0.14085512555E+03 -0.91350331437E+02  0.25757353182E+03  0.12500000000E+03 0.  0.
          4    1    1    2  501    0 -0.13438725643E+02 -0.13549398692E+03  0.10076852228E+03  0.16939160228E+03  0.00000000000E+00 0.  1.
         -4    1    1    2    0  503 -0.13667481421E+03 -0.53611386305E+01 -0.38485224866E+02  0.14209102428E+03  0.00000000000E+00 0. -1.
<mgrwt>
<rscale>  4 0.56831331E+03</rscale>
<asrwt>0</asrwt>
<pdfrwt beam="1">  1       21 0.41537625E-01 0.56831331E+03</pdfrwt>
<pdfrwt beam="2">  1       21 0.46009476E-01 0.56831331E+03</pdfrwt>
<totfact> 0.22321715E+04</totfact>
</mgrwt>
</event>
<event>
 5    0  0.3372079E-003  0.6692882E+03  0.7546771E-02  0.9771245E-01
         21   -1    0    0  503  502  0.00000000000E+00  0.00000000000E+00  0.30375471087E+03  0.30375471087E+03  0.00000000000E+00 0. -1.
         21   -1    0    0  501  503 -0.00000000000E+00 -0.00000000000E+00 -0.36867470805E+03  0.36867470805E+03  0.00000000000E+00 0. -1.
         25    1    1    2    0    0 -0.17760762056E+03 -0.14476256280E+03  0.18978495060E+03  0.32271348584E+03  0.12500000000E+03 0.  0.
          2    1    1    2  501    0  0.30451811999E+02  0.20406982436E+01 -0.14092152530E+02  0.33616455290E+02  0.00000000000E+00 0.  1.
         -2    1    1    2    0  502  0.14715580856E+03  0.14272186456E+03 -0.24061279525E+03  0.31609947778E+03  0.00000000000E+00 0. -1.
<mgrwt>
<rscale>  4 0.66928822E+03</rscale>
<asrwt>0</asrwt>
<pdfrwt beam="1">  1       21 0.46731494E-01 0.66928822E+03</pdfrwt>
<pdfrwt beam="2">  1       21 0.56719185E-01 0.66928822E+03</pdfrwt>
<totfact> 0.10897220E+04</totfact>
</mgrwt>
</event>
<event>
 5    0  0.3372079E-003  0.5124893E+03  0.7546771E-02  0.1010569E+00
         21   -1    0    0  503  502  0.00000000000E+00  0.00000000000E+00  0.14834886565E+03  0.14834886565E+03  0.00000000000E+00 0.  1.
         21   -1    0    0  501  503 -0.00000000000E+00 -0.00000000000E+00 -0.44261418525E+03  0.44261418525E+03  0.00000000000E+00 0.  1.
         25    1    1    2    0    0 -0.17357367919E+03 -0.13385135561E+03 -0.16006973421E+03  0.29881654458E+03  0.12500000000E+03 0.  0.
          4    1    1    2  501    0  0.52732737936E+01 -0.25596814486E+02 -0.23878239868E+02  0.35400207168E+02  0.00000000000E+00 0. -1.
         -4    1    1    2    0  502  0.16830040540E+03  0.15944817009E+03 -0.11031734552E+03  0.25674629914E+03  0.00000000000E+00 0.  1.
<mgrwt>
<rscale>  4 0.51248927E+03</rscale>
<asrwt>0</asrwt>
<pdfrwt beam="1">  1       21 0.22822902E-01 0.51248927E+03</pdfrwt>
<pdfrwt beam="2">  1       21 0.68094490E-01 0.51248927E+03</pdfrwt>
<totfact> 0.31905868E+04</totfact>
</mgrwt>
</event>
<event>
 5    0  0.3372079E-003  0.6769083E+03  0.7546771E-02  0.9757558E-01
         21   -1    0    0  503  502  0.00000000000E+00  0.00000000000E+00  0.50502844215E+03  0.50502844215E+03  0.00000000000E+00 0. -1.
         21   -1    0    0  501  503 -0.00000000000E+00 -0.00000000000E+00 -0.22682127616E+03  0.22682127616E+03  0.00000000000E+00 0. -1.
         25    1    1    2    0    0  0.10116056833E+02  0.24958654718E+03  0.26139140953E+03  0.38255228155E+03  0.12500000000E+03 0.  0.
          4    1    1    2  501    0  0.10971829322E+03 -0.67296958988E+02  0.24443937852E+02  0.13101332243E+03  0.00000000000E+00 0.  1.
         -4    1    1    2    0  502 -0.11983435006E+03 -0.18228958819E+03 -0.76281813935E+01  0.21828411433E+03  0.00000000000E+00 0. -1.
<mgrwt>
<rscale>  4 0.67690825E+03</rscale>
<asrwt>0</asrwt>
<pdfrwt beam="1">  1       21 0.77696683E-01 0.67690825E+03</pdfrwt>
<pdfrwt beam="2">  1       21 0.34895581E-01 0.67690825E+03</pdfrwt>
<totfact> 0.98364220E+03</totfact>
</mgrwt>
</event>
<event>
 5    0  0.3372079E-003  0.4629782E+03  0.7546771E-02  0.1023921E+00
         21   -1    0    0  501  502  0.00000000000E+00  0.00000000000E+00  0.23049151657E+03  0.23049151657E+03  0.00000000000E+00 0. -1.
         21   -1    0    0  502  503 -0.00000000000E+00 -0.00000000000E+00 -0.23249104286E+03  0.23249104286E+03  0.00000000000E+00 0. -1.
         25    1    1    2    0    0 -0.10119381034E+03  0.18311581518E+03  0.23397430795E+02  0.24483469686E+03  0.12500000000E+03 0.  0.
          4    1    1    2  501    0  0.10906978619E+02 -0.40040499378E+02  0.15145403634E+02  0.44176770188E+02  0.00000000000E+00 0. -1.
         -4    1    1    2    0  503  0.90286831720E+02 -0.14307531580E+03 -0.40542360722E+02  0.17397109238E+03  0.00000000000E+00 0.  1.
<mgrwt>
<rscale>  4 0.46297824E+03</rscale>
<asrwt>0</asrwt>
<pdfrwt beam="1">  1       21 0.35460234E-01 0.46297824E+03</pdfrwt>
<pdfrwt beam="2">  1       21 0.35767852E-01 0.46297824E+03</pdfrwt>
<totfact> 0.53155406E+04</totfact>
</mgrwt>
</event>
<event>
 5    0  0.3372079E-003  0.4756350E+03  0.7546771E-02  0.1020342E+00
         21   -1    0    0  501  502  0.00000000000E+00  0.00000000000E+00  0.12043663775E+03  0.12043663775E+03  0.00000000000E+00 0. -1.
         21   -1    0    0  502  503 -0.00000000000E+00 -0.00000000000E+00 -0.46960097406E+03  0.46960097406E+03  0.00000000000E+00 0. -1.
         25    1    1    2    0    0  0.23923561149E+01 -0.21112573026E+03 -0.18874028090E+03  0.30956048032E+03  0.12500000000E+03 0.  0.
          1    1    1    2  501    0  0.14258221503E+02  0.13908328140E+03 -0.51851562319E+02  0.14911753941E+03  0.00000000000E+00 0. -1.
         -1    1    1    2    0  503 -0.16650577618E+02  0.72042448854E+02 -0.10857249309E+03  0.13135959207E+03  0.00000000000E+00 0.  1.
<mgrwt>
<rscale>  4 0.47563500E+03</rscale>
<asrwt>0</asrwt>
<pdfrwt beam="1">  1       21 0.18528714E-01 0.47563500E+03</pdfrwt>
<pdfrwt beam="2">  1       21 0.72246304E-01 0.47563500E+03</pdfrwt>
<totfact> 0.41913659E+04</totfact>
</mgrwt>
</event>
<event>
 5    0  0.3372079E-003  0.7476541E+03  0.7546771E-02  0.9639038E-01
         21   -1    0    0  501  502  0.00000000000E+00  0.00000000000E+00  0.56799359496E+03  0.56799359496E+03  0.00000000000E+00 0. -1.
         21   -1    0    0  502  503 -0.00000000000E+00 -0.00000000000E+00 -0.24603563406E+03  0.24603563406E+03  0.00000000000E+00 0. -1.
         25    1    1    2    0    0 -0.21303309294E+03  0.25482829871E+03  0.10251377321E+03  0.36939766405E+03  0.12500000000E+03 0.  0.
          3    1    1    2  501    0  0.10551686416E+03 -0.25297821528E+03  0.12397531910E+03  0.30083494773E+03  0.00000000000E+00 0. -1.
         -3    1    1    2    0  503  0.10751622878E+03 -0.18500834238E+01  0.95468868592E+02  0.14379661724E+03  0.00000000000E+00 0.  1.
<mgrwt>
<rscale>  4 0.74765410E+03</rscale>
<asrwt>0</asrwt>
<pdfrwt beam="1">  1       21 0.87383630E-01 0.74765410E+03</pdfrwt>
<pdfrwt beam="2">  1       21 0.37851636E-01 0.74765410E+03</pdfrwt>
<totfact> 0.62321068E+03</totfact>
</mgrwt>
</event>
<event>
 5    0  0.3372079E-003  0.6046679E+03  0.7546771E-02  0.9895769E-01
         21   -1    0    0  503  502  0.00000000000E+00  0.00000000000E+00  0.18183513136E+03  0.18183513136E+03  0.00000000000E+00 0.  1.
         21   -1    0    0  501  503 -0.00000000000E+00 -0.00000000000E+00 -0.50268507252E+03  0.50268507252E+03  0.00000000000E+00 0.  1.
         25    1    1    2    0    0 -0.53172036933E+02 -0.20623618524E+03  0.25637864350E+02  0.24827994221E+03  0.12500000000E+03 0.  0.
          3    1    1    2  501    0 -0.43902994037E+02  0.14005308642E+03 -0.20903138905E+03  0.25541429386E+03  0.00000000000E+00 0.  1.
         -3    1    1    2    0  502  0.97075030971E+02  0.66183098815E+02 -0.13745641646E+03  0.18082596781E+03  0.00000000000E+00 0. -1.
<mgrwt>
<rscale>  4 0.60466786E+03</rscale>
<asrwt>0</asrwt>
<pdfrwt beam="1">  1       21 0.27974636E-01 0.60466786E+03</pdfrwt>
<pdfrwt beam="2">  1       21 0.77336164E-01 0.60466786E+03</pdfrwt>
<totfact> 0.15730005E+04</totfact>
</mgrwt>
</event>
<event>
 5    0  0.3372079E-003  0.5644413E+03  0.7546771E-02  0.9982055E-01
         21   -1    0    0  501  502  0.00000000000E+00  0.00000000000E+00  0.57013262945E+03  0.57013262945E+03  0.00000000000E+00 0.  1.
         21   -1    0    0  502  503 -0.00000000000E+00 -0.00000000000E+00 -0.13970171090E+03  0.13970171090E+03  0.00000000000E+00 0.  1.
         25    1    1    2    0    0 -0.57511753700E+02 -0.22492755199E+03  0.33256541575E+03  0.42441107574E+03  0.12500000000E+03 0.  0.
          1    1    1    2  501    0  0.17907737916E+01  0.19739594375E+03  0.10372507997E+03  0.22299609345E+03  0.00000000000E+00 0.  1.
         -1    1    1    2    0  503  0.55720979908E+02  0.27531608241E+02 -0.58595771856E+01  0.62427171160E+02  0.00000000000E+00 0. -1.
<mgrwt>
<rscale>  4 0.56444133E+03</rscale>
<asrwt>0</asrwt>
<pdfrwt beam="1">  1       21 0.87712711E-01 0.56444133E+03</pdfrwt>
<pdfrwt beam="2">  1       21 0.21492571E-01 0.56444133E+03</pdfrwt>
<totfact> 0.19768583E+04</totfact>
</mgrwt>
</event>
<event>
 5    0  0.3372079E-003  0.7089328E+03  0.7546771E-02  0.9702077E-01
         21   -1    0    0  501  502  0.00000000000E+00  0.00000000000E+00  0.13011673348E+03  0.13011673348E+03  0.00000000000E+00 0.  1.
         21   -1    0    0  502  503 -0.00000000000E+00 -0.00000000000E+00 -0.96564394534E+03  0.96564394534E+03  0.00000000000E+00 0.  1.
         25    1    1    2    0    0 -0.87550005578E+02  0.20534975503E+03 -0.32214946533E+03  0.41138644045E+03  0.12500000000E+03 0.  0.
          4    1    1    2  501    0  0.20455549349E+02 -0.29171284599E+02  0.66051392884E+02  0.75047850377E+02  0.00000000000E+00 0. -1.
         -4    1    1    2    0  503  0.67094456229E+02 -0.17617847043E+03 -0.57942913942E+03  0.60932638800E+03  0.00000000000E+00 0.  1.
<mgrwt>
<rscale>  4 0.70893282E+03</rscale>
<asrwt>0</asrwt>
<pdfrwt beam="1">  1       21 0.20017959E-01 0.70893282E+03</pdfrwt>
<pdfrwt beam="2">  1       21 0.14856061E+00 0.70893282E+03</pdfrwt>
<totfact> 0.57660480E+03</totfact>
</mgrwt>
</event>
<event>
 5    0  0.3372079E-003  0.6606992E+03  0.7546771E-02  0.9786907E-01
         21   -1    0    0  503  502  0.00000000000E+00  0.00000000000E+00  0.63874109551E+02  0.63874109551E+02  0.00000000000E+00 0. -1.
         21   -1    0    0  501  503 -0.00000000000E+00 -0.00000000000E+00 -0.17085304532E+04  0.17085304532E+04  0.00000000000E+00 0. -1.
         25    1    1    2    0    0 -0.15241747988E+03  0.15438255866E+03 -0.69167415283E+03  0.73559716985E+03  0.12500000000E+03 0.  0.
          2    1    1    2  501    0 -0.26956704325E+02  0.93935212551E+02 -0.17082841788E+03  0.19680659648E+03  0.00000000000E+00 0.  1.
         -2    1    1    2    0  502  0.17937418421E+03 -0.24831777121E+03 -0.78215377295E+03  0.84000079643E+03  0.00000000000E+00 0. -1.
<mgrwt>
<rscale>  4 0.66069921E+03</rscale>
<asrwt>0</asrwt>
<pdfrwt beam="1">  1       21 0.98267861E-02 0.66069921E+03</pdfrwt>
<pdfrwt beam="2">  1       21 0.26285084E+00 0.66069921E+03</pdfrwt>
<totfact> 0.36374941E+03</totfact>
</mgrwt>
</event>
<event>
 5    0  0.3372079E-003  0.5505647E+03  0.7546771E-02  0.1001363E+00
         21   -1    0    0  503  502  0.00000000000E+00  0.00000000000E+00  0.14164492459E+03  0.14164492459E+03  0.00000000000E+00 0.  1.
         21   -1    0    0  501  503 -0.00000000000E+00 -0.00000000000E+00 -0.53500245843E+03  0.53500245843E+03  0.00000000000E+00 0.  1.
         25    1    1    2    0    0  0.17638467279E+03 -0.10106817005E+03 -0.13834721129E+03  0.27584647662E+03  0.12500000000E+03 0.  0.
          2    1    1    2  501    0 -0.14830236992E+03  0.14106430416E+03 -0.27926771137E+03  0.34624151317E+03  0.00000000000E+00 0.  1.
         -2    1    1    2    0  502 -0.28082302862E+02 -0.39996134103E+02  0.24257388813E+02  0.54559393226E+02  0.00000000000E+00 0. -1.
<mgrwt>
<rscale>  4 0.55056474E+03</rscale>
<asrwt>0</asrwt>
<pdfrwt beam="1">  1       21 0.21791527E-01 0.55056474E+03</pdfrwt>
<pdfrwt beam="2">  1       21 0.82308071E-01 0.55056474E+03</pdfrwt>
<totfact> 0.22420732E+04</totfact>
</mgrwt>
</event>
<event>
 5    0  0.3372079E-003  0.5534033E+03  0.7546771E-02  0.1000709E+00
         21   -1    0    0  501  502  0.00000000000E+00  0.00000000000E+00  0.28784492301E+03  0.28784492301E+03  0.00000000000E+00 0. -1.
         21   -1    0    0  502  503 -0.00000000000E+00 -0.00000000000E+00 -0.26598973579E+03  0.26598973579E+03  0.00000000000E+00 0. -1.
         25    1    1    2    0    0 -0.24054873210E+03 -0.52600980338E+02 -0.49145489379E+02  0.28048321656E+03  0.12500000000E+03 0.  0.
          2    1    1    2  501    0  0.53909929947E+02  0.29563167134E+02 -0.19704252139E+02  0.64564068569E+02  0.00000000000E+00 0. -1.
         -2    1    1    2    0  503  0.18663880215E+03  0.23037813204E+02  0.90704928737E+02  0.20878737367E+03  0.00000000000E+00 0.  1.
<mgrwt>
<rscale>  4 0.55340327E+03</rscale>
<asrwt>0</asrwt>
<pdfrwt beam="1">  1       21 0.44283834E-01 0.55340327E+03</pdfrwt>
<pdfrwt beam="2">  1       21 0.40921498E-01 0.55340327E+03</pdfrwt>
<totfact> 0.25030805E+04</totfact>
</mgrwt>
</event>
<event>
 5    0  0.3372079E-003  0.4700108E+03  0.7546771E-02  0.1021917E+00
         21   -1    0    0  501  502  0.00000000000E+00  0.00000000000E+00  0.22116679802E+03  0.22116679802E+03  0.00000000000E+00 0.  1.
         21   -1    0    0  502  503 -0.00000000000E+00 -0.00000000000E+00 -0.24970991853E+03  0.24970991853E+03  0.00000000000E+00 0.  1.
         25    1    1    2    0    0  0.55523446502E+02 -0.20788719891E+03 -0.43844898474E+02  0.25268026378E+03  0.12500000000E+03 0.  0.
          3    1    1    2  501    0 -0.37542280873E+02  0.17977418145E+03  0.18943429527E+02  0.18462673883E+03  0.00000000000E+00 0.  1.
         -3    1    1    2    0  503 -0.17981165629E+02  0.28113017463E+02 -0.36416515604E+01  0.33569713945E+02  0.00000000000E+00 0. -1.
<mgrwt>
<rscale>  4 0.47001082E+03</rscale>
<asrwt>0</asrwt>
<pdfrwt beam="1">  1       21 0.34025661E-01 0.47001082E+03</pdfrwt>
<pdfrwt beam="2">  1       21 0.38416910E-01 0.47001082E+03</pdfrwt>
<totfact> 0.49877535E+04</totfact>
</mgrwt>
</event>
<event>
 5    0  0.3372079E-003  0.6091251E+03  0.7546771E-02  0.9886653E-01
         21   -1    0    0  503  502  0.00000000000E+00  0.00000000000E+00  0.97557469785E+03  0.97557469785E+03  0.00000000000E+00 0. -1.
         21   -1    0    0  501  503 -0.00000000000E+00 -0.00000000000E+00 -0.95080732486E+02  0.95080732486E+02  0.00000000000E+00 0. -1.
         25    1    1    2    0    0  0.12500056719E+02 -0.22753744636E+03  0.18623698630E+03  0.31974795696E+03  0.12500000000E+03 0.  0.
          2    1    1    2  501    0 -0.22040170883E+02  0.26123324539E+02  0.72750187076E+01  0.34944572035E+02  0.00000000000E+00 0.  1.
         -2    1    1    2    0  502  0.95401141641E+01  0.20141412182E+03  0.68698196035E+03  0.71596290134E+03  0.00000000000E+00 0. -1.
<mgrwt>
<rscale>  4 0.60912513E+03</rscale>
<asrwt>0</asrwt>
<pdfrwt beam="1">  1       21 0.15008841E+00 0.60912513E+03</pdfrwt>
<pdfrwt beam="2">  1       21 0.14627806E-01 0.60912513E+03</pdfrwt>
<totfact> 0.10372276E+04</totfact>
</mgrwt>
</event>
<event>
 5    0  0.3372079E-003  0.6774104E+03  0.7546771E-02  0.9756663E-01
         21   -1    0    0  503  502  0.00000000000E+00  0.00000000000E+00  0.60390059476E+02  0.60390059476E+02  0.00000000000E+00 0.  1.
         21   -1    0    0  501  503 -0.00000000000E+00 -0.00000000000E+00 -0.18996704403E+04  0.18996704403E+04  0.00000000000E+00 0.  1.
         25    1    1    2    0    0  0.16858816860E+03  0.12121641643E+03 -0.35136906418E+03  0.42684963332E+03  0.12500000000E+03 0.  0.
          3    1    1    2  501    0 -0.18200697886E+03  0.94231581706E+01 -0.12336229137E+04  0.12470127624E+04  0.00000000000E+00 0.  1.
         -3    1    1    2    0  502  0.13418810260E+02 -0.13063957460E+03 -0.25428840294E+03  0.28619810410E+03  0.00000000000E+00 0. -1.
<mgrwt>
<rscale>  4 0.67741040E+03</rscale>
<asrwt>0</asrwt>
<pdfrwt beam="1">  1       21 0.92907774E-02 0.67741040E+03</pdfrwt>
<pdfrwt beam="2">  1       21 0.29225702E+00 0.67741040E+03</pdfrwt>
<totfact> 0.26418374E+03</totfact>
</mgrwt>
</event>
<event>
 5    0  0.3372079E-003  0.5791852E+03  0.7546771E-02  0.9949557E-01
         21   -1    0    0  503  502  0.00000000000E+00  0.00000000000E+00  0.64572754482E+03  0.64572754482E+03  0.00000000000E+00 0. -1.
         21   -1    0    0  501  503 -0.00000000000E+00 -0.00000000000E+00 -0.12987500993E+03  0.12987500993E+03  0.00000000000E+00 0. -1.
         25    1    1    2    0    0 -0.21801183035E+03 -0.16019589458E+03  0.28368747758E+03  0.41145530467E+03  0.12500000000E+03 0.  0.
          4    1    1    2  501    0  0.19864082162E+03  0.12893465603E+03  0.16857549081E+03  0.29068886742E+03  0.00000000000E+00 0. -1.
         -4    1    1    2    0  502  0.19371008733E+02  0.31261238546E+02  0.63589566506E+02  0.73458382661E+02  0.00000000000E+00 0.  1.
<mgrwt>
<rscale>  4 0.57918519E+03</rscale>
<asrwt>0</asrwt>
<pdfrwt beam="1">  1       21 0.99342697E-01 0.57918519E+03</pdfrwt>
<pdfrwt beam="2">  1       21 0.19980771E-01 0.57918519E+03</pdfrwt>
<totfact> 0.16807606E+04</totfact>
</mgrwt>
</event>
<event>
 5    0  0.3372079E-003  0.4668032E+03  0.7546771E-02  0.1022826E+00
         21   -1    0    0  501  502  0.00000000000E+00  0.00000000000E+00  0.31375175230E+02  0.31375175230E+02  0.00000000000E+00 0. -1.
         21   -1    0    0  502  503 -0.00000000000E+00 -0.00000000000E+00 -0.17362867489E+04  0.17362867489E+04  0.00000000000E+00 0. -1.
         25    1    1    2    0    0 -0.84330883864E+02 -0.18784207688E+03 -0.11233652400E+04  0.11488998243E+04  0.12500000000E+03 0.  0.
          4    1    1    2  501    0  0.40770096404E+02  0.12926763055E+03 -0.32762829362E+03  0.35455975498E+03  0.00000000000E+00 0. -1.
         -4    1    1    2    0  503  0.43560787460E+02  0.58574446323E+02 -0.25391804000E+03  0.26420234481E+03  0.00000000000E+00 0.  1.
<mgrwt>
<rscale>  4 0.46680317E+03</rscale>
<asrwt>0</asrwt>
<pdfrwt beam="1">  1       21 0.48269494E-02 0.46680317E+03</pdfrwt>
<pdfrwt beam="2">  1       21 0.26712107E+00 0.46680317E+03</pdfrwt>
<totfact> 0.12813913E+04</totfact>
</mgrwt>
</event>
<event>
 5    0  0.3372079E-003  0.6044800E+03  0.7546771E-02  0.9896155E-01
         21   -1    0    0  503  502  0.00000000000E+00  0.00000000000E+00  0.13050834183E+03  0.13050834183E+03  0.00000000000E+00 0. -1.
         21   -1    0    0  501  503 -0.00000000000E+00 -0.00000000000E+00 -0.69994773633E+03  0.69994773633E+03  0.00000000000E+00 0. -1.
         25    1    1    2    0    0 -0.16455124371E+03 -0.20737604792E+03 -0.41668004492E+03  0.50924374998E+03  0.12500000000E+03 0.  0.
          3    1    1    2  501    0  0.16474305865E+02  0.53547645611E+02 -0.75781031466E+02  0.94241805130E+02  0.00000000000E+00 0.  1.
         -3    1    1    2    0  502  0.14807693784E+03  0.15382840230E+03 -0.76978318105E+02  0.22697052305E+03  0.00000000000E+00 0. -1.
<mgrwt>
<rscale>  4 0.60448000E+03</rscale>
<asrwt>0</asrwt>
<pdfrwt beam="1">  1       21 0.20078207E-01 0.60448000E+03</pdfrwt>
<pdfrwt beam="2">  1       21 0.10768426E+00 0.60448000E+03</pdfrwt>
<totfact> 0.13571032E+04</totfact>
</mgrwt>
</event>
<event>
 5    0  0.3372079E-003  0.5077717E+03  0.7546771E-02  0.1011770E+00
         21   -1    0    0  501  502  0.00000000000E+00  0.00000000000E+00  0.11110952650E+04  0.11110952650E+04  0.00000000000E+00 0.  1.
         21   -1    0    0  502  503 -0.00000000000E+00 -0.00000000000E+00 -0.58013050542E+02  0.58013050542E+02  0.00000000000E+00 0.  1.
         25    1    1    2    0    0 -0.17470685974E+03  0.15249637419E+03  0.53918824849E+03  0.60010548930E+03  0.12500000000E+03 0.  0.
          2    1    1    2  501    0  0.13316280355E+03 -0.15084145726E+03  0.39997324813E+03  0.44773214839E+03  0.00000000000E+00 0.  1.
         -2    1    1    2    0  503  0.41544056182E+02 -0.16549169323E+01  0.11392071782E+03  0.12127067784E+03  0.00000000000E+00 0. -1.
<mgrwt>
<rscale>  4 0.50777170E+03</rscale>
<asrwt>0</asrwt>
<pdfrwt beam="1">  1       21 0.17093772E+00 0.50777170E+03</pdfrwt>
<pdfrwt beam="2">  1       21 0.89250855E-02 0.50777170E+03</pdfrwt>
<totfact> 0.18192102E+04</totfact>
</mgrwt>
</event>
<event>
 5    0  0.3372079E-003  0.6308409E+03  0.7546771E-02  0.9843409E-01
         21   -1    0    0  503  502  0.00000000000E+00  0.00000000000E+00  0.27659387067E+04  0.27659387067E+04  0.00000000000E+00 0.  1.
         21   -1    0    0  501  503 -0.00000000000E+00 -0.00000000000E+00 -0.35969725442E+02  0.35969725442E+02  0.00000000000E+00 0.  1.
         25    1    1    2    0    0  0.19226006085E+03 -0.80151736539E+02  0.19025271871E+04  0.19179736519E+04  0.12500000000E+03 0.  0.
          3    1    1    2  501    0 -0.25431708396E+02 -0.16692278906E+02 -0.37518335181E+01  0.30650941613E+02  0.00000000000E+00 0.  1.
         -3    1    1    2    0  502 -0.16682835246E+03  0.96844015446E+02  0.83119362765E+03  0.85328383856E+03  0.00000000000E+00 0. -1.
<mgrwt>
<rscale>  4 0.63084089E+03</rscale>
<asrwt>0</asrwt>
<pdfrwt beam="1">  1       21 0.42552886E+00 0.63084089E+03</pdfrwt>
<pdfrwt beam="2">  1       21 0.55338061E-02 0.63084089E+03</pdfrwt>
<totfact> 0.97355556E+02</totfact>
</mgrwt>
</event>
<event>
 5    0  0.3372079E-003  0.7400718E+03  0.7546771E-02  0.9651056E-01
         21   -1    0    0  501  502  0.00000000000E+00  0.00000000000E+00  0.12937932047E+04  0.12937932047E+04  0.00000000000E+00 0.  1.
         21   -1    0    0  502  503 -0.00000000000E+00 -0.00000000000E+00 -0.10583343251E+03  0.10583343251E+03  0.00000000000E+00 0.  1.
         25    1    1    2    0    0  0.27575129075E+03 -0.76987298937E+02  0.26174492179E+03  0.40755517741E+03  0.12500000000E+03 0.  0.
          1    1    1    2  501    0 -0.17857182051E+03  0.12903340046E+03  0.76984748269E+03  0.80075130978E+03  0.00000000000E+00 0. -1.
         -1    1    1    2    0  503 -0.97179470239E+02 -0.52046101520E+02  0.15636736776E+03  0.19132015006E+03  0.00000000000E+00 0.  1.
<mgrwt>
<rscale>  4 0.74007182E+03</rscale>
<asrwt>0</asrwt>
<pdfrwt beam="1">  1       21 0.19904510E+00 0.74007182E+03</pdfrwt>
<pdfrwt beam="2">  1       21 0.16282068E-01 0.74007182E+03</pdfrwt>
<totfact> 0.36095641E+03</totfact>
</mgrwt>
</event>
<event>
 5    0  0.3372079E-003  0.6160568E+03  0.7546771E-02  0.9872642E-01
         21   -1    0    0  503  502  0.00000000000E+00  0.00000000000E+00  0.52695328807E+03  0.52695328807E+03  0.00000000000E+00 0. -1.
         21   -1    0    0  501  503 -0.00000000000E+00 -0.00000000000E+00 -0.18005673983E+03  0.18005673983E+03  0.00000000000E+00 0. -1.
         25    1    1    2    0    0 -0.19965970332E+03  0.19884921179E+03  0.12870206487E+03  0.33405722213E+03  0.12500000000E+03 0.  0.
          2    1    1    2  501    0  0.55654646244E+02 -0.24296971093E+02  0.10167153194E+03  0.11842669826E+03  0.00000000000E+00 0. -1.
         -2    1    1    2    0  502  0.14400505707E+03 -0.17455224069E+03  0.11652295143E+03  0.25452610751E+03  0.00000000000E+00 0.  1.
<mgrwt>
<rscale>  4 0.61605679E+03</rscale>
<asrwt>0</asrwt>
<pdfrwt beam="1">  1       21 0.81069736E-01 0.61605679E+03</pdfrwt>
<pdfrwt beam="2">  1       21 0.27701037E-01 0.61605679E+03</pdfrwt>
<totfact> 0.14343666E+04</totfact>
</mgrwt>
</event>
<event>
 5    0  0.3372079E-003  0.9509004E+03  0.7546771E-02  0.9364099E-01
         21   -1    0    0  501  502  0.00000000000E+00  0.00000000000E+00  0.13153906669E+04  0.13153906669E+04  0.00000000000E+00 0.  1.
         21   -1    0    0  502  503 -0.00000000000E+00 -0.00000000000E+00 -0.17185227542E+03  0.17185227542E+03  0.00000000000E+00 0.  1.
         25    1    1    2    0    0 -0.26939488459E+03  0.23153104777E+03  0.91513125813E+03  0.98958094643E+03  0.12500000000E+03 0.  0.
          1    1    1    2  501    0  0.19993018743E+03 -0.27348552672E+03  0.24071315247E+03  0.41558300608E+03  0.00000000000E+00 0.  1.
         -1    1    1    2    0  503  0.69464697158E+02  0.41954478953E+02 -0.12306019156E+02  0.82078989778E+02  0.00000000000E+00 0. -1.
<mgrwt>
<rscale>  4 0.95090037E+03</rscale>
<asrwt>0</asrwt>
<pdfrwt beam="1">  1       21 0.20236779E+00 0.95090037E+03</pdfrwt>
<pdfrwt beam="2">  1       21 0.26438812E-01 0.95090037E+03</pdfrwt>
<totfact> 0.12821692E+03</totfact>
</mgrwt>
</event>
<event>
 5    0  0.3372079E-003  0.6021607E+03  0.7546771E-02  0.9900933E-01
         21   -1    0    0  503  502  0.00000000000E+00  0.00000000000E+00  0.19198000157E+03  0.19198000157E+03  0.00000000000E+00 0. -1.
         21   -1    0    0  501  503 -0.00000000000E+00 -0.00000000000E+00 -0.47218135728E+03  0.47218135728E+03  0.00000000000E+00 0. -1.
         25    1    1    2    0    0  0.80160241112E+02 -0.19195473382E+03  0.51947044763E+02  0.24818497044E+03  0.12500000000E+03 0.  0.
          2    1    1    2  501    0 -0.47328537653E+02  0.20621132364E+03 -0.25812907831E+03  0.33375697977E+03  0.00000000000E+00 0. -1.
         -2    1    1    2    0  502 -0.32831703460E+02 -0.14256589824E+02 -0.74019322156E+02  0.82219408645E+02  0.00000000000E+00 0.  1.
<mgrwt>
<rscale>  4 0.60216070E+03</rscale>
<asrwt>0</asrwt>
<pdfrwt beam="1">  1       21 0.29535385E-01 0.60216070E+03</pdfrwt>
<pdfrwt beam="2">  1       21 0.72643285E-01 0.60216070E+03</pdfrwt>
<totfact> 0.16310875E+04</totfact>
</mgrwt>
</event>
<event>
 5    0  0.3372079E-003  0.1072784E+04  0.7546771E-02  0.9232132E-01
         21   -1    0    0  501  502  0.00000000000E+00  0.00000000000E+00  0.17885068444E+03  0.17885068444E+03  0.00000000000E+00 0. -1.
         21   -1    0    0  502  503 -0.00000000000E+00 -0.00000000000E+00 -0.16086955928E+04  0.16086955928E+04  0.00000000000E+00 0. -1.
         25    1    1    2    0    0 -0.48962489199E+02  0.37715677844E+03 -0.36824437598E+03  0.54394253493E+03  0.12500000000E+03 0.  0.
          1    1    1    2  501    0  0.13950719574E+03  0.33658881956E+02 -0.60904686539E+03  0.62572618791E+03  0.00000000000E+00 0.  1.
         -1    1    1    2    0  503 -0.90544706537E+02 -0.41081566040E+03 -0.45255366696E+03  0.61787755437E+03  0.00000000000E+00 0. -1.
<mgrwt>
<rscale>  4 0.10727839E+04</rscale>
<asrwt>0</asrwt>
<pdfrwt beam="1">  1       21 0.27515489E-01 0.10727839E+04</pdfrwt>
<pdfrwt beam="2">  1       21 0.24749163E+00 0.10727839E+04</pdfrwt>
<totfact> 0.58370739E+02</totfact>
</mgrwt>
</event>
<event>
 5    0  0.3372079E-003  0.5217778E+03  0.7546771E-02  0.1008246E+00
         21   -1    0    0  501  502  0.00000000000E+00  0.00000000000E+00  0.22441753068E+03  0.22441753068E+03  0.00000000000E+00 0.  1.
         21   -1    0    0  502  503 -0.00000000000E+00 -0.00000000000E+00 -0.30328742034E+03  0.30328742034E+03  0.00000000000E+00 0.  1.
         25    1    1    2    0    0  0.21718723266E+03 -0.25364860275E+02 -0.65035428363E+02  0.26013126900E+03  0.12500000000E+03 0.  0.
          4    1    1    2  501    0 -0.18679116035E+02  0.14945000019E+02  0.52763151113E+02  0.57932827627E+02  0.00000000000E+00 0. -1.
         -4    1    1    2    0  503 -0.19850811663E+03  0.10419860256E+02 -0.66597612405E+02  0.20964085440E+03  0.00000000000E+00 0.  1.
<mgrwt>
<rscale>  4 0.52177778E+03</rscale>
<asrwt>0</asrwt>
<pdfrwt beam="1">  1       21 0.34525774E-01 0.52177778E+03</pdfrwt>
<pdfrwt beam="2">  1       21 0.46659603E-01 0.52177778E+03</pdfrwt>
<totfact> 0.31972992E+04</totfact>
</mgrwt>
</event>
<event>
 5    0  0.3372079E-003  0.5702625E+03  0.7546771E-02  0.9969098E-01
         21   -1    0    0  501  502  0.00000000000E+00  0.00000000000E+00  0.16724928326E+04  0.16724928326E+04  0.00000000000E+00 0. -1.
         21   -1    0    0  502  503 -0.00000000000E+00 -0.00000000000E+00 -0.48609970544E+02  0.48609970544E+02  0.00000000000E+00 0. -1.
         25    1    1    2    0    0 -0.14096475337E+03  0.17346595762E+03  0.66135277340E+03  0.70920659263E+03  0.12500000000E+03 0.  0.
          4    1    1    2  501    0  0.50995291835E+02  0.42681871691E+02  0.34760610734E+03  0.35390997135E+03  0.00000000000E+00 0. -1.
         -4    1    1    2    0  503  0.89969461539E+02 -0.21614782931E+03  0.61492398127E+03  0.65798623912E+03  0.00000000000E+00 0.  1.
<mgrwt>
<rscale>  4 0.57026249E+03</rscale>
<asrwt>0</asrwt>
<pdfrwt beam="1">  1       21 0.25730655E+00 0.57026249E+03</pdfrwt>
<pdfrwt beam="2">  1       21 0.74784583E-02 0.57026249E+03</pdfrwt>
<totfact> 0.66008849E+03</totfact>
</mgrwt>
</event>
<event>
 5    0  0.3372079E-003  0.9833382E+03  0.7546771E-02  0.9327010E-01
         21   -1    0    0  501  502  0.00000000000E+00  0.00000000000E+00  0.13349695898E+04  0.13349695898E+04  0.00000000000E+00 0. -1.
         21   -1    0    0  502  503 -0.00000000000E+00 -0.00000000000E+00 -0.18108164787E+03  0.18108164787E+03  0.00000000000E+00 0. -1.
         25    1    1    2    0    0 -0.32113547281E+03  0.14174679421E+03  0.10072886023E+04  0.10739997551E+04  0.12500000000E+03 0.  0.
          2    1    1    2  501    0  0.79853288256E+02 -0.15604583915E+03  0.58655961995E+02  0.18484418692E+03  0.00000000000E+00 0.  1.
         -2    1    1    2    0  503  0.24128218455E+03  0.14299044945E+02  0.87943377591E+02  0.25720729564E+03  0.00000000000E+00 0. -1.
<mgrwt>
<rscale>  4 0.98333818E+03</rscale>
<asrwt>0</asrwt>
<pdfrwt beam="1">  1       21 0.20537993E+00 0.98333818E+03</pdfrwt>
<pdfrwt beam="2">  1       21 0.27858716E-01 0.98333818E+03</pdfrwt>
<totfact> 0.10949027E+03</totfact>
</mgrwt>
</event>
<event>
 5    0  0.3372079E-003  0.6071935E+03  0.7546771E-02  0.9890593E-01
         21   -1    0    0  501  502  0.00000000000E+00  0.00000000000E+00  0.55979089624E+02  0.55979089624E+02  0.00000000000E+00 0. -1.
         21   -1    0    0  502  503 -0.00000000000E+00 -0.00000000000E+00 -0.16465254176E+04  0.16465254176E+04  0.00000000000E+00 0. -1.
         25    1    1    2    0    0  0.14782469079E+03 -0.23892385068E+03 -0.97143080036E+03  0.10189404033E+04  0.12500000000E+03 0.  0.
          3    1    1    2  501    0 -0.27784890598E+02  0.27868484064E+02 -0.42545757219E+02  0.57955103372E+02  0.00000000000E+00 0.  1.
         -3    1    1    2    0  503 -0.12003980019E+03  0.21105536662E+03 -0.57656977039E+03  0.62560900052E+03  0.00000000000E+00 0. -1.
<mgrwt>
<rscale>  4 0.60719352E+03</rscale>
<asrwt>0</asrwt>
<pdfrwt beam="1">  1       21 0.86121672E-02 0.60719352E+03</pdfrwt>
<pdfrwt beam="2">  1       21 0.25331162E+00 0.60719352E+03</pdfrwt>
<totfact> 0.53703092E+03</totfact>
</mgrwt>
</event>
<event>
 5    0  0.3372079E-003  0.6163775E+03  0.7546771E-02  0.9871999E-01
         21   -1    0    0  501  502  0.00000000000E+00  0.00000000000E+00  0.18005528196E+03  0.18005528196E+03  0.00000000000E+00 0. -1.
         21   -1    0    0  502  503 -0.00000000000E+00 -0.00000000000E+00 -0.52750639214E+03  0.52750639214E+03  0.00000000000E+00 0. -1.
         25    1    1    2    0    0  0.71401287204E+02 -0.24950802596E+03 -0.53130212746E+02  0.29291674302E+03  0.12500000000E+03 0.  0.
          1    1    1    2  501    0 -0.50316445396E+02  0.23784627779E+02 -0.10681336908E+03  0.12044313600E+03  0.00000000000E+00 0.  1.
         -1    1    1    2    0  503 -0.21084841808E+02  0.22572339818E+03 -0.18750752835E+03  0.29420179508E+03  0.00000000000E+00 0. -1.
<mgrwt>
<rscale>  4 0.61637752E+03</rscale>
<asrwt>0</asrwt>
<pdfrwt beam="1">  1       21 0.27700813E-01 0.61637752E+03</pdfrwt>
<pdfrwt beam="2">  1       21 0.81154829E-01 0.61637752E+03</pdfrwt>
<totfact> 0.14307905E+04</totfact>
</mgrwt>
</event>
<event>
 5    0  0.3372079E-003  0.6390795E+03  0.7546771E-02  0.9827489E-01
         21   -1    0    0  501  502  0.00000000000E+00  0.00000000000E+00  0.29215429359E+03  0.29215429359E+03  0.00000000000E+00 0. -1.
         21   -1    0    0  502  503 -0.00000000000E+00 -0.00000000000E+00 -0.34949225289E+03  0.34949225289E+03  0.00000000000E+00 0. -1.
         25    1    1    2    0    0  0.25460912117E+03  0.52727099178E+02  0.71863308071E+02  0.29731344843E+03  0.12500000000E+03 0.  0.
          4    1    1    2  501    0 -0.99399250542E+02  0.66588924100E+02 -0.23782986820E+02  0.12198330330E+03  0.00000000000E+00 0. -1.
         -4    1    1    2    0  503 -0.15520987063E+03 -0.11931602328E+03 -0.10541828056E+03  0.22234979475E+03  0.00000000000E+00 0.  1.
<mgrwt>
<rscale>  4 0.63907953E+03</rscale>
<asrwt>0</asrwt>
<pdfrwt beam="1">  1       21 0.44946814E-01 0.63907953E+03</pdfrwt>
<pdfrwt beam="2">  1       21 0.53768039E-01 0.63907953E+03</pdfrwt>
<totfact> 0.13370560E+04</totfact>
</mgrwt>
</event>
<event>
 5    0  0.3372079E-003  0.5409439E+03  0.7546771E-02  0.1003612E+00
         21   -1    0    0  503  502  0.00000000000E+00  0.00000000000E+00  0.84422181621E+03  0.84422181621E+03  0.00000000000E+00 0.  1.
         21   -1    0    0  501  503 -0.00000000000E+00 -0.00000000000E+00 -0.86653858686E+02  0.86653858686E+02  0.00000000000E+00 0.  1.
         25    1    1    2    0    0 -0.12667721725E+03 -0.18966219586E+03  0.27475820787E+03  0.37833310548E+03  0.12500000000E+03 0.  0.
          1    1    1    2  501    0 -0.10614417149E+02  0.10003311910E+03  0.13838572280E+03  0.17108447925E+03  0.00000000000E+00 0.  1.
         -1    1    1    2    0  502  0.13729163440E+03  0.89629076762E+02  0.34442402686E+03  0.38145809017E+03  0.00000000000E+00 0. -1.
<mgrwt>
<rscale>  4 0.54094391E+03</rscale>
<asrwt>0</asrwt>
<pdfrwt beam="1">  1       21 0.12988027E+00 0.54094391E+03</pdfrwt>
<pdfrwt beam="2">  1       21 0.13331363E-01 0.54094391E+03</pdfrwt>
<totfact> 0.18431075E+04</totfact>
</mgrwt>
</event>
<event>
 5    0  0.3372079E-003  0.6613329E+03  0.7546771E-02  0.9785743E-01
         21   -1    0    0  501  502  0.00000000000E+00  0.00000000000E+00  0.34832182448E+03  0.34832182448E+03  0.00000000000E+00 0. -1.
         21   -1    0    0  502  503 -0.00000000000E+00 -0.00000000000E+00 -0.31390595011E+03  0.31390595011E+03  0.00000000000E+00 0. -1.
         25    1    1    2    0    0 -0.15170891430E+03 -0.21838548624E+03  0.19387657800E+02  0.29446340444E+03  0.12500000000E+03 0.  0.
          3    1    1    2  501    0  0.20071150209E+02 -0.10014698590E+02  0.90753512923E+02  0.93484465910E+02  0.00000000000E+00 0. -1.
         -3    1    1    2    0  503  0.13163776409E+03  0.22840018483E+03 -0.75725296356E+02  0.27427990424E+03  0.00000000000E+00 0.  1.
<mgrwt>
<rscale>  4 0.66133288E+03</rscale>
<asrwt>0</asrwt>
<pdfrwt beam="1">  1       21 0.53587973E-01 0.66133288E+03</pdfrwt>
<pdfrwt beam="2">  1       21 0.48293223E-01 0.66133288E+03</pdfrwt>
<totfact> 0.11515675E+04</totfact>
</mgrwt>
</event>
<event>
 5    0  0.3372079E-003  0.4747276E+03  0.7546771E-02  0.1020594E+00
         21   -1    0    0  503  502  0.00000000000E+00  0.00000000000E+00  0.17272024123E+03  0.17272024123E+03  0.00000000000E+00 0. -1.
         21   -1    0    0  501  503 -0.00000000000E+00 -0.00000000000E+00 -0.32620133293E+03  0.32620133293E+03  0.00000000000E+00 0. -1.
         25    1    1    2    0    0  0.16240730007E+03  0.12463572607E+03 -0.54457945268E+02  0.24596923209E+03  0.12500000000E+03 0.  0.
          3    1    1    2  501    0 -0.15084641922E+03 -0.71999321782E+02 -0.10701630117E+03  0.19847174420E+03  0.00000000000E+00 0.  1.
         -3    1    1    2    0  502 -0.11560880855E+02 -0.52636404291E+02  0.79931547472E+01  0.54480597882E+02  0.00000000000E+00 0. -1.
<mgrwt>
<rscale>  4 0.47472760E+03</rscale>
<asrwt>0</asrwt>
<pdfrwt beam="1">  1       21 0.26572345E-01 0.47472760E+03</pdfrwt>
<pdfrwt beam="2">  1       21 0.50184820E-01 0.47472760E+03</pdfrwt>
<totfact> 0.46620148E+04</totfact>
</mgrwt>
</event>
<event>
 5    0  0.3372079E-003  0.8486979E+03  0.7546771E-02  0.9492086E-01
         21   -1    0    0  501  502  0.00000000000E+00  0.00000000000E+00  0.57284288068E+03  0.57284288068E+03  0.00000000000E+00 0.  1.
         21   -1    0    0  502  503 -0.00000000000E+00 -0.00000000000E+00 -0.31434802868E+03  0.31434802868E+03  0.00000000000E+00 0.  1.
         25    1    1    2    0    0  0.48844029702E+01 -0.37029052193E+03  0.32576074684E+03  0.50880643884E+03  0.12500000000E+03 0.  0.
          2    1    1    2  501    0  0.35766758820E+01  0.35202258969E+03 -0.60898278042E+02  0.35726922136E+03  0.00000000000E+00 0.  1.
         -2    1    1    2    0  503 -0.84610788521E+01  0.18267932233E+02 -0.63676167888E+01  0.21115249157E+02  0.00000000000E+00 0. -1.
<mgrwt>
<rscale>  4 0.84869790E+03</rscale>
<asrwt>0</asrwt>
<pdfrwt beam="1">  1       21 0.88129674E-01 0.84869790E+03</pdfrwt>
<pdfrwt beam="2">  1       21 0.48361235E-01 0.84869790E+03</pdfrwt>
<totfact> 0.35804410E+03</totfact>
</mgrwt>
</event>
<event>
 5    0  0.3372079E-003  0.5858909E+03  0.7546771E-02  0.9935118E-01
         21   -1    0    0  501  502  0.00000000000E+00  0.00000000000E+00  0.85700041412E+03  0.85700041412E+03  0.00000000000E+00 0.  1.
         21   -1    0    0  502  503 -0.00000000000E+00 -0.00000000000E+00 -0.10013653094E+03  0.10013653094E+03  0.00000000000E+00 0.  1.
         25    1    1    2    0    0 -0.19992558979E+03  0.15255897397E+03  0.42551118279E+03  0.50983256925E+03  0.12500000000E+03 0.  0.
          4    1    1    2  501    0  0.22440342959E+03 -0.10682319676E+03  0.27040072315E+03  0.36726645050E+03  0.00000000000E+00 0.  1.
         -4    1    1    2    0  503 -0.24477839797E+02 -0.45735777204E+02  0.60951977238E+02  0.80037925303E+02  0.00000000000E+00 0. -1.
<mgrwt>
<rscale>  4 0.58589094E+03</rscale>
<asrwt>0</asrwt>
<pdfrwt beam="1">  1       21 0.13184621E+00 0.58589094E+03</pdfrwt>
<pdfrwt beam="2">  1       21 0.15405621E-01 0.58589094E+03</pdfrwt>
<totfact> 0.13407479E+04</totfact>
</mgrwt>
</event>
<event>
 5    0  0.3372079E-003  0.4761109E+03  0.7546771E-02  0.1020210E+00
         21   -1    0    0  501  502  0.00000000000E+00  0.00000000000E+00  0.26959111053E+03  0.26959111053E+03  0.00000000000E+00 0. -1.
         21   -1    0    0  502  503 -0.00000000000E+00 -0.00000000000E+00 -0.21020870248E+03  0.21020870248E+03  0.00000000000E+00 0. -1.
         25    1    1    2    0    0 -0.77465072915E+02  0.19248833308E+03  0.34429917068E+02  0.24466919520E+03  0.12500000000E+03 0.  0.
          1    1    1    2  501    0  0.86949587222E+02 -0.78502534039E+02  0.28994265079E+02  0.12067951763E+03  0.00000000000E+00 0.  1.
         -1    1    1    2    0  503 -0.94845143073E+01 -0.11398579904E+03 -0.40417740966E+01  0.11445110018E+03  0.00000000000E+00 0. -1.
<mgrwt>
<rscale>  4 0.47611090E+03</rscale>
<asrwt>0</asrwt>
<pdfrwt beam="1">  1       21 0.41475556E-01 0.47611090E+03</pdfrwt>
<pdfrwt beam="2">  1       21 0.32339800E-01 0.47611090E+03</pdfrwt>
<totfact> 0.47117063E+04</totfact>
</mgrwt>
</event>
<event>
 5    0  0.3372079E-003  0.5105087E+03  0.7546771E-02  0.1011072E+00
         21   -1    0    0  501  502  0.00000000000E+00  0.00000000000E+00  0.12948104063E+04  0.12948104063E+04  0.00000000000E+00 0.  1.
         21   -1    0    0  502  503 -0.00000000000E+00 -0.00000000000E+00 -0.50319950419E+02  0.50319950419E+02  0.00000000000E+00 0.  1.
         25    1    1    2    0    0 -0.15836673656E+03 -0.15397845683E+03  0.42580835662E+03  0.49570872999E+03  0.12500000000E+03 0.  0.
          4    1    1    2  501    0  0.10421280879E+02  0.26395711985E+02  0.15531427384E+03  0.15788559265E+03  0.00000000000E+00 0. -1.
         -4    1    1    2    0  503  0.14794545568E+03  0.12758274484E+03  0.66336782539E+03  0.69153603405E+03  0.00000000000E+00 0.  1.
<mgrwt>
<rscale>  4 0.51050875E+03</rscale>
<asrwt>0</asrwt>
<pdfrwt beam="1">  1       21 0.19920158E+00 0.51050875E+03</pdfrwt>
<pdfrwt beam="2">  1       21 0.77415318E-02 0.51050875E+03</pdfrwt>
<totfact> 0.14865181E+04</totfact>
</mgrwt>
</event>
<event>
 5    0  0.3372079E-003  0.5641213E+03  0.7546771E-02  0.9982772E-01
         21   -1    0    0  501  502  0.00000000000E+00  0.00000000000E+00  0.34342933318E+03  0.34342933318E+03  0.00000000000E+00 0. -1.
         21   -1    0    0  502  503 -0.00000000000E+00 -0.00000000000E+00 -0.23165813495E+03  0.23165813495E+03  0.00000000000E+00 0. -1.
         25    1    1    2    0    0 -0.31889948548E+02  0.22214819429E+03 -0.57924923128E+02  0.26333834845E+03  0.12500000000E+03 0.  0.
          4    1    1    2  501    0  0.50093620445E+02 -0.16107109253E+03  0.18056467705E+03  0.24709688435E+03  0.00000000000E+00 0.  1.
         -4    1    1    2    0  503 -0.18203671897E+02 -0.61077101759E+02 -0.10868555693E+02  0.64652235327E+02  0.00000000000E+00 0. -1.
<mgrwt>
<rscale>  4 0.56412126E+03</rscale>
<asrwt>0</asrwt>
<pdfrwt beam="1">  1       21 0.52835282E-01 0.56412126E+03</pdfrwt>
<pdfrwt beam="2">  1       21 0.35639713E-01 0.56412126E+03</pdfrwt>
<totfact> 0.22796054E+04</totfact>
</mgrwt>
</event>
<event>
 5    0  0.3372079E-003  0.5151648E+03  0.7546771E-02  0.1009895E+00
         21   -1    0    0  501  502  0.00000000000E+00  0.00000000000E+00  0.22326143471E+03  0.22326143471E+03  0.00000000000E+00 0. -1.
         21   -1    0    0  502  503 -0.00000000000E+00 -0.00000000000E+00 -0.29717938324E+03  0.29717938324E+03  0.00000000000E+00 0. -1.
         25    1    1    2    0    0 -0.14714071249E+03 -0.14060857206E+03 -0.15399311602E+03  0.28418310926E+03  0.12500000000E+03 0.  0.
          2    1    1    2  501    0  0.10220879168E+03  0.48857814035E+02  0.70993252950E+02  0.13369280105E+03  0.00000000000E+00 0. -1.
         -2    1    1    2    0  503  0.44931920804E+02  0.91750758028E+02  0.90819145424E+01  0.10256490763E+03  0.00000000000E+00 0.  1.
<mgrwt>
<rscale>  4 0.51516481E+03</rscale>
<asrwt>0</asrwt>
<pdfrwt beam="1">  1       21 0.34347913E-01 0.51516481E+03</pdfrwt>
<pdfrwt beam="2">  1       21 0.45719905E-01 0.51516481E+03</pdfrwt>
<totfact> 0.33771093E+04</totfact>
</mgrwt>
</event>
<event>
 5    0  0.3372079E-003  0.5023589E+03  0.7546771E-02  0.1013165E+00
         21   -1    0    0  503  502  0.00000000000E+00  0.00000000000E+00  0.13672005167E+03  0.13672005167E+03  0.00000000000E+00 0.  1.
         21   -1    0    0  501  503 -0.00000000000E+00 -0.00000000000E+00 -0.46146205661E+03  0.46146205661E+03  0.00000000000E+00 0.  1.
         25    1    1    2    0    0 -0.15652033064E+03 -0.16197202483E+03 -0.11573930083E+03  0.28240774863E+03  0.12500000000E+03 0.  0.
          3    1    1    2  501    0  0.23186861677E+02 -0.30912449097E+01 -0.12257757617E+02  0.26409069869E+02  0.00000000000E+00 0. -1.
         -3    1    1    2    0  502  0.13333346896E+03  0.16506326974E+03 -0.19674494649E+03  0.28936528978E+03  0.00000000000E+00 0.  1.
<mgrwt>
<rscale>  4 0.50235890E+03</rscale>
<asrwt>0</asrwt>
<pdfrwt beam="1">  1       21 0.21033854E-01 0.50235890E+03</pdfrwt>
<pdfrwt beam="2">  1       21 0.70994161E-01 0.50235890E+03</pdfrwt>
<totfact> 0.34055762E+04</totfact>
</mgrwt>
</event>
<event>
 5    0  0.3372079E-003  0.4897029E+03  0.7546771E-02  0.1016502E+00
         21   -1    0    0  501  502  0.00000000000E+00  0.00000000000E+00  0.78331042334E+02  0.78331042334E+02  0.00000000000E+00 0.  1.
         21   -1    0    0  502  503 -0.00000000000E+00 -0.00000000000E+00 -0.76537016648E+03  0.76537016648E+03  0.00000000000E+00 0.  1.
         25    1    1    2    0    0 -0.21473643763E+03  0.26306646086E+00 -0.37797642625E+03  0.45233061543E+03  0.12500000000E+03 0.  0.
          2    1    1    2  501    0  0.18498676089E+03  0.40645669990E+02 -0.24897477872E+03  0.31282680933E+03  0.00000000000E+00 0.  1.
         -2    1    1    2    0  503  0.29749676740E+02 -0.40908736451E+02 -0.60087919167E+02  0.78543784057E+02  0.00000000000E+00 0. -1.
<mgrwt>
<rscale>  4 0.48970294E+03</rscale>
<asrwt>0</asrwt>
<pdfrwt beam="1">  1       21 0.12050929E-01 0.48970294E+03</pdfrwt>
<pdfrwt beam="2">  1       21 0.11774926E+00 0.48970294E+03</pdfrwt>
<totfact> 0.28898391E+04</totfact>
</mgrwt>
</event>
<event>
 5    0  0.3372079E-003  0.5347284E+03  0.7546771E-02  0.1005092E+00
         21   -1    0    0  501  502  0.00000000000E+00  0.00000000000E+00  0.22133605582E+03  0.22133605582E+03  0.00000000000E+00 0. -1.
         21   -1    0    0  502  503 -0.00000000000E+00 -0.00000000000E+00 -0.32296413233E+03  0.32296413233E+03  0.00000000000E+00 0. -1.
         25    1    1    2    0    0  0.13849534679E+02  0.24859366199E+03 -0.70548585623E+02  0.28738949411E+03  0.12500000000E+03 0.  0.
          4    1    1    2  501    0  0.19274949613E+02 -0.14464710106E+03 -0.17372341687E+02  0.14695613558E+03  0.00000000000E+00 0. -1.
         -4    1    1    2    0  503 -0.33124484292E+02 -0.10394656093E+03 -0.13707149202E+02  0.10995455847E+03  0.00000000000E+00 0.  1.
<mgrwt>
<rscale>  4 0.53472837E+03</rscale>
<asrwt>0</asrwt>
<pdfrwt beam="1">  1       21 0.34051701E-01 0.53472837E+03</pdfrwt>
<pdfrwt beam="2">  1       21 0.49686789E-01 0.53472837E+03</pdfrwt>
<totfact> 0.28698229E+04</totfact>
</mgrwt>
</event>
<event>
 5    0  0.3372079E-003  0.5101241E+03  0.7546771E-02  0.1011170E+00
         21   -1    0    0  501  502  0.00000000000E+00  0.00000000000E+00  0.54481289891E+03  0.54481289891E+03  0.00000000000E+00 0. -1.
         21   -1    0    0  502  503 -0.00000000000E+00 -0.00000000000E+00 -0.11941100900E+03  0.11941100900E+03  0.00000000000E+00 0. -1.
         25    1    1    2    0    0  0.17843097241E+03 -0.91080871400E+02  0.10171102353E+03  0.25710594967E+03  0.12500000000E+03 0.  0.
          4    1    1    2  501    0 -0.63855655582E+02 -0.34296981285E+01  0.21157370229E+03  0.22102655741E+03  0.00000000000E+00 0.  1.
         -4    1    1    2    0  503 -0.11457531682E+03  0.94510569529E+02  0.11211716410E+03  0.18609140083E+03  0.00000000000E+00 0. -1.
<mgrwt>
<rscale>  4 0.51012413E+03</rscale>
<asrwt>0</asrwt>
<pdfrwt beam="1">  1       21 0.83817368E-01 0.51012413E+03</pdfrwt>
<pdfrwt beam="2">  1       21 0.18370925E-01 0.51012413E+03</pdfrwt>
<totfact> 0.30030627E+04</totfact>
</mgrwt>
</event>
<event>
 5    0  0.3372079E-003  0.6543917E+03  0.7546771E-02  0.9798573E-01
         21   -1    0    0  503  502  0.00000000000E+00  0.00000000000E+00  0.43018997331E+03  0.43018997331E+03  0.00000000000E+00 0.  1.
         21   -1    0    0  501  503 -0.00000000000E+00 -0.00000000000E+00 -0.24886008272E+03  0.24886008272E+03  0.00000000000E+00 0.  1.
         25    1    1    2    0    0  0.14369171884E+02  0.29250437078E+03  0.53636750806E+02  0.32290429087E+03  0.12500000000E+03 0.  0.
          3    1    1    2  501    0 -0.42108889919E+02 -0.29120016973E+03  0.86893214436E+02  0.30679166902E+03  0.00000000000E+00 0.  1.
         -3    1    1    2    0  502  0.27739718035E+02 -0.13042010467E+01  0.40799925354E+02  0.49354096142E+02  0.00000000000E+00 0. -1.
<mgrwt>
<rscale>  4 0.65439166E+03</rscale>
<asrwt>0</asrwt>
<pdfrwt beam="1">  1       21 0.66183073E-01 0.65439166E+03</pdfrwt>
<pdfrwt beam="2">  1       21 0.38286167E-01 0.65439166E+03</pdfrwt>
<totfact> 0.11778837E+04</totfact>
</mgrwt>
</event>
<event>
 5    0  0.3372079E-003  0.4873993E+03  0.7546771E-02  0.1017121E+00
         21   -1    0    0  501  502  0.00000000000E+00  0.00000000000E+00  0.31886110267E+03  0.31886110267E+03  0.00000000000E+00 0. -1.
         21   -1    0    0  502  503 -0.00000000000E+00 -0.00000000000E+00 -0.18625512139E+03  0.18625512139E+03  0.00000000000E+00 0. -1.
         25    1    1    2    0    0  0.16305160870E+03  0.12517449378E+03  0.18215988905E+00  0.24058161645E+03  0.12500000000E+03 0.  0.
          2    1    1    2  501    0 -0.83806630849E+02 -0.90161190562E+01  0.74363896855E+02  0.11240476383E+03  0.00000000000E+00 0.  1.
         -2    1    1    2    0  503 -0.79244977846E+02 -0.11615837472E+03  0.58059924533E+02  0.15212984378E+03  0.00000000000E+00 0. -1.
<mgrwt>
<rscale>  4 0.48739928E+03</rscale>
<asrwt>0</asrwt>
<pdfrwt beam="1">  1       21 0.49055554E-01 0.48739928E+03</pdfrwt>
<pdfrwt beam="2">  1       21 0.28654634E-01 0.48739928E+03</pdfrwt>
<totfact> 0.42062536E+04</totfact>
</mgrwt>
</event>
<event>
 5    0  0.3372079E-003  0.7001341E+03  0.7546771E-02  0.9717003E-01
         21   -1    0    0  501  502  0.00000000000E+00  0.00000000000E+00  0.56636583610E+03  0.56636583610E+03  0.00000000000E+00 0. -1.
         21   -1    0    0  502  503 -0.00000000000E+00 -0.00000000000E+00 -0.21637414714E+03  0.21637414714E+03  0.00000000000E+00 0. -1.
         25    1    1    2    0    0 -0.12674014183E+03  0.22206615785E+03 -0.44271277426E+02  0.28803018595E+03  0.12500000000E+03 0.  0.
          2    1    1    2  501    0  0.16163999515E+02 -0.20483608094E+02  0.17522210272E+03  0.17715427842E+03  0.00000000000E+00 0.  1.
         -2    1    1    2    0  503  0.11057614231E+03 -0.20158254976E+03  0.21904086366E+03  0.31755551888E+03  0.00000000000E+00 0. -1.
<mgrwt>
<rscale>  4 0.70013406E+03</rscale>
<asrwt>0</asrwt>
<pdfrwt beam="1">  1       21 0.87133205E-01 0.70013406E+03</pdfrwt>
<pdfrwt beam="2">  1       21 0.33288331E-01 0.70013406E+03</pdfrwt>
<totfact> 0.82356750E+03</totfact>
</mgrwt>
</event>
<event>
 5    0  0.3372079E-003  0.4730947E+03  0.7546771E-02  0.1021050E+00
         21   -1    0    0  503  502  0.00000000000E+00  0.00000000000E+00  0.10553241705E+04  0.10553241705E+04  0.00000000000E+00 0. -1.
         21   -1    0    0  501  503 -0.00000000000E+00 -0.00000000000E+00 -0.53021280817E+02  0.53021280817E+02  0.00000000000E+00 0. -1.
         25    1    1    2    0    0 -0.14907715635E+02 -0.21106499068E+03  0.52566297690E+03  0.58027341449E+03  0.12500000000E+03 0.  0.
          1    1    1    2  501    0 -0.26782098479E+02  0.10997518022E+03  0.29612602516E+03  0.31702120409E+03  0.00000000000E+00 0. -1.
         -1    1    1    2    0  502  0.41689814114E+02  0.10108981045E+03  0.18051388764E+03  0.21105083276E+03  0.00000000000E+00 0.  1.
<mgrwt>
<rscale>  4 0.47309466E+03</rscale>
<asrwt>0</asrwt>
<pdfrwt beam="1">  1       21 0.16235755E+00 0.47309466E+03</pdfrwt>
<pdfrwt beam="2">  1       21 0.81571209E-02 0.47309466E+03</pdfrwt>
<totfact> 0.24949561E+04</totfact>
</mgrwt>
</event>
<event>
 5    0  0.3372079E-003  0.6599053E+03  0.7546771E-02  0.9788368E-01
         21   -1    0    0  503  502  0.00000000000E+00  0.00000000000E+00  0.16169024158E+03  0.16169024158E+03  0.00000000000E+00 0.  1.
         21   -1    0    0  501  503 -0.00000000000E+00 -0.00000000000E+00 -0.67331670345E+03  0.67331670345E+03  0.00000000000E+00 0.  1.
         25    1    1    2    0    0  0.25838788202E+03  0.15935215569E+03 -0.24815134568E+03  0.41153553608E+03  0.12500000000E+03 0.  0.
          1    1    1    2  501    0 -0.22419025038E+02 -0.10421540915E+01 -0.85009277638E+02  0.87921988452E+02  0.00000000000E+00 0. -1.
         -1    1    1    2    0  502 -0.23596885698E+03 -0.15831000160E+03 -0.17846583855E+03  0.33554942050E+03  0.00000000000E+00 0.  1.
<mgrwt>
<rscale>  4 0.65990527E+03</rscale>
<asrwt>0</asrwt>
<pdfrwt beam="1">  1       21 0.24875421E-01 0.65990527E+03</pdfrwt>
<pdfrwt beam="2">  1       21 0.10358719E+00 0.65990527E+03</pdfrwt>
<totfact> 0.97561479E+03</totfact>
</mgrwt>
</event>
<event>
 5    0  0.3372079E-003  0.5472938E+03  0.7546771E-02  0.1002122E+00
         21   -1    0    0  503  502  0.00000000000E+00  0.00000000000E+00  0.11426594040E+04  0.11426594040E+04  0.00000000000E+00 0.  1.
         21   -1    0    0  501  503 -0.00000000000E+00 -0.00000000000E+00 -0.65533630455E+02  0.65533630455E+02  0.00000000000E+00 0.  1.
         25    1    1    2    0    0  0.17274752684E+03  0.13786641278E+03  0.57557478058E+03  0.62909473360E+03  0.12500000000E+03 0.  0.
          3    1    1    2  501    0 -0.21292577758E+02  0.55712403357E+00 -0.13132963247E+02  0.25023168833E+02  0.00000000000E+00 0. -1.
         -3    1    1    2    0  502 -0.15145494908E+03 -0.13842353682E+03  0.51468395623E+03  0.55407513204E+03  0.00000000000E+00 0.  1.
<mgrwt>
<rscale>  4 0.54729378E+03</rscale>
<asrwt>0</asrwt>
<pdfrwt beam="1">  1       21 0.17579374E+00 0.54729378E+03</pdfrwt>
<pdfrwt beam="2">  1       21 0.10082098E-01 0.54729378E+03</pdfrwt>
<totfact> 0.13333645E+04</totfact>
</mgrwt>
</event>
<event>
 5    0  0.3372079E-003  0.4619823E+03  0.7546771E-02  0.1024208E+00
         21   -1    0    0  503  502  0.00000000000E+00  0.00000000000E+00  0.35798238573E+02  0.35798238573E+02  0.00000000000E+00 0. -1.
         21   -1    0    0  501  503 -0.00000000000E+00 -0.00000000000E+00 -0.14904897490E+04  0.14904897490E+04  0.00000000000E+00 0. -1.
         25    1    1    2    0    0  0.85377242231E+02  0.18664522225E+03 -0.91560743734E+03  0.94661908484E+03  0.12500000000E+03 0.  0.
          4    1    1    2  501    0 -0.75791377742E+02 -0.14772298973E+03 -0.48294132158E+03  0.51068457459E+03  0.00000000000E+00 0. -1.
         -4    1    1    2    0  502 -0.95858644884E+01 -0.38922232528E+02 -0.56142751550E+02  0.68984328181E+02  0.00000000000E+00 0.  1.
<mgrwt>
<rscale>  4 0.46198228E+03</rscale>
<asrwt>0</asrwt>
<pdfrwt beam="1">  1       21 0.55074219E-02 0.46198228E+03</pdfrwt>
<pdfrwt beam="2">  1       21 0.22930609E+00 0.46198228E+03</pdfrwt>
<totfact> 0.17489254E+04</totfact>
</mgrwt>
</event>
<event>
 5    0  0.3372079E-003  0.5434750E+03  0.7546771E-02  0.1003016E+00
         21   -1    0    0  501  502  0.00000000000E+00  0.00000000000E+00  0.24629423719E+03  0.24629423719E+03  0.00000000000E+00 0. -1.
         21   -1    0    0  502  503 -0.00000000000E+00 -0.00000000000E+00 -0.29980912879E+03  0.29980912879E+03  0.00000000000E+00 0. -1.
         25    1    1    2    0    0  0.25094130941E+03 -0.28078728200E+01 -0.61954568896E+02  0.28712853137E+03  0.12500000000E+03 0.  0.
          3    1    1    2  501    0 -0.11414856682E+03  0.32640811378E+02  0.75572797253E+01  0.11896398762E+03  0.00000000000E+00 0. -1.
         -3    1    1    2    0  503 -0.13679274259E+03 -0.29832938558E+02  0.88239756697E+00  0.14001084699E+03  0.00000000000E+00 0.  1.
<mgrwt>
<rscale>  4 0.54347497E+03</rscale>
<asrwt>0</asrwt>
<pdfrwt beam="1">  1       21 0.37891421E-01 0.54347497E+03</pdfrwt>
<pdfrwt beam="2">  1       21 0.46124481E-01 0.54347497E+03</pdfrwt>
<totfact> 0.26982047E+04</totfact>
</mgrwt>
</event>
<event>
 5    0  0.3372079E-003  0.5021992E+03  0.7546771E-02  0.1013206E+00
         21   -1    0    0  503  502  0.00000000000E+00  0.00000000000E+00  0.11246785463E+04  0.11246785463E+04  0.00000000000E+00 0. -1.
         21   -1    0    0  501  503 -0.00000000000E+00 -0.00000000000E+00 -0.56061354810E+02  0.56061354810E+02  0.00000000000E+00 0. -1.
         25    1    1    2    0    0 -0.14872540863E+03  0.13515391170E+03  0.77155818083E+03  0.80703956126E+03  0.12500000000E+03 0.  0.
          2    1    1    2  501    0  0.25741429729E+02 -0.47974671408E+02  0.19473497853E+02  0.57822205249E+02  0.00000000000E+00 0.  1.
         -2    1    1    2    0  502  0.12298397890E+03 -0.87179240295E+02  0.27758551283E+03  0.31587813464E+03  0.00000000000E+00 0. -1.
<mgrwt>
<rscale>  4 0.50219918E+03</rscale>
<asrwt>0</asrwt>
<pdfrwt beam="1">  1       21 0.17302745E+00 0.50219918E+03</pdfrwt>
<pdfrwt beam="2">  1       21 0.86248247E-02 0.50219918E+03</pdfrwt>
<totfact> 0.18704114E+04</totfact>
</mgrwt>
</event>
<event>
 5    0  0.3372079E-003  0.7337156E+03  0.7546771E-02  0.9661250E-01
         21   -1    0    0  503  502  0.00000000000E+00  0.00000000000E+00  0.57297502383E+03  0.57297502383E+03  0.00000000000E+00 0. -1.
         21   -1    0    0  501  503 -0.00000000000E+00 -0.00000000000E+00 -0.23488744341E+03  0.23488744341E+03  0.00000000000E+00 0. -1.
         25    1    1    2    0    0  0.22087747212E+03 -0.68348178822E+02 -0.98717323927E+02  0.28076403132E+03  0.12500000000E+03 0.  0.
          3    1    1    2  501    0 -0.13411064390E+03  0.10979548652E+03  0.16706278560E+03  0.24072949134E+03  0.00000000000E+00 0. -1.
         -3    1    1    2    0  502 -0.86766828219E+02 -0.41447307697E+02  0.26974211874E+03  0.28636894457E+03  0.00000000000E+00 0.  1.
<mgrwt>
<rscale>  4 0.73371558E+03</rscale>
<asrwt>0</asrwt>
<pdfrwt beam="1">  1       21 0.88150003E-01 0.73371558E+03</pdfrwt>
<pdfrwt beam="2">  1       21 0.36136530E-01 0.73371558E+03</pdfrwt>
<totfact> 0.67323745E+03</totfact>
</mgrwt>
</event>
<event>
 5    0  0.3372079E-003  0.5114319E+03  0.7546771E-02  0.1010837E+00
         21   -1    0    0  501  502  0.00000000000E+00  0.00000000000E+00  0.44985081304E+03  0.44985081304E+03  0.00000000000E+00 0.  1.
         21   -1    0    0  502  503 -0.00000000000E+00 -0.00000000000E+00 -0.14536073583E+03  0.14536073583E+03  0.00000000000E+00 0.  1.
         25    1    1    2    0    0  0.16265093580E+03 -0.15234717675E+03  0.19509393060E+03  0.32148348470E+03  0.12500000000E+03 0.  0.
          2    1    1    2  501    0 -0.32280963715E+02 -0.13380789293E+02  0.36731912699E+02  0.50698516260E+02  0.00000000000E+00 0. -1.
         -2    1    1    2    0  503 -0.13036997208E+03  0.16572796604E+03  0.72664233915E+02  0.22302954791E+03  0.00000000000E+00 0.  1.
<mgrwt>
<rscale>  4 0.51143189E+03</rscale>
<asrwt>0</asrwt>
<pdfrwt beam="1">  1       21 0.69207817E-01 0.51143189E+03</pdfrwt>
<pdfrwt beam="2">  1       21 0.22363190E-01 0.51143189E+03</pdfrwt>
<totfact> 0.32002239E+04</totfact>
</mgrwt>
</event>
<event>
 5    0  0.3372079E-003  0.5716797E+03  0.7546771E-02  0.9965969E-01
         21   -1    0    0  501  502  0.00000000000E+00  0.00000000000E+00  0.17780922672E+03  0.17780922672E+03  0.00000000000E+00 0. -1.
         21   -1    0    0  502  503 -0.00000000000E+00 -0.00000000000E+00 -0.45950608877E+03  0.45950608877E+03  0.00000000000E+00 0. -1.
         25    1    1    2    0    0 -0.19137998371E+03  0.16756945507E+03 -0.15045545729E+03  0.32088575079E+03  0.12500000000E+03 0.  0.
          3    1    1    2  501    0  0.80108389950E+02 -0.47300756777E+01 -0.13238014336E+01  0.80258832577E+02  0.00000000000E+00 0. -1.
         -3    1    1    2    0  503  0.11127159376E+03 -0.16283937939E+03 -0.12991760333E+03  0.23617073212E+03  0.00000000000E+00 0.  1.
<mgrwt>
<rscale>  4 0.57167971E+03</rscale>
<asrwt>0</asrwt>
<pdfrwt beam="1">  1       21 0.27355266E-01 0.57167971E+03</pdfrwt>
<pdfrwt beam="2">  1       21 0.70693243E-01 0.57167971E+03</pdfrwt>
<totfact> 0.20331635E+04</totfact>
</mgrwt>
</event>
<event>
 5    0  0.3372079E-003  0.5702460E+03  0.7546771E-02  0.9969134E-01
         21   -1    0    0  501  502  0.00000000000E+00  0.00000000000E+00  0.57372605741E+03  0.57372605741E+03  0.00000000000E+00 0.  1.
         21   -1    0    0  502  503 -0.00000000000E+00 -0.00000000000E+00 -0.14169676047E+03  0.14169676047E+03  0.00000000000E+00 0.  1.
         25    1    1    2    0    0  0.60296413463E+01 -0.21548894946E+03  0.74869689903E+02  0.26019668403E+03  0.12500000000E+03 0.  0.
          1    1    1    2  501    0 -0.65320636015E+02  0.21134236692E+03  0.30025456672E+03  0.37294126398E+03  0.00000000000E+00 0.  1.
         -1    1    1    2    0  503  0.59290994668E+02  0.41465825397E+01  0.56905040316E+02  0.82284869866E+02  0.00000000000E+00 0. -1.
<mgrwt>
<rscale>  4 0.57024600E+03</rscale>
<asrwt>0</asrwt>
<pdfrwt beam="1">  1       21 0.88265546E-01 0.57024600E+03</pdfrwt>
<pdfrwt beam="2">  1       21 0.21799502E-01 0.57024600E+03</pdfrwt>
<totfact> 0.18928200E+04</totfact>
</mgrwt>
</event>
<event>
 5    0  0.3372079E-003  0.7503837E+03  0.7546771E-02  0.9634749E-01
         21   -1    0    0  501  502  0.00000000000E+00  0.00000000000E+00  0.11148176957E+03  0.11148176957E+03  0.00000000000E+00 0. -1.
         21   -1    0    0  502  503 -0.00000000000E+00 -0.00000000000E+00 -0.12627080109E+04  0.12627080109E+04  0.00000000000E+00 0. -1.
         25    1    1    2    0    0 -0.30648407441E+03 -0.54683714828E+02 -0.66389156150E+03  0.74384124782E+03  0.12500000000E+03 0.  0.
          4    1    1    2  501    0  0.26340310050E+02 -0.69562544923E+02 -0.30832548781E+02  0.80519597950E+02  0.00000000000E+00 0.  1.
         -4    1    1    2    0  503  0.28014376436E+03  0.12424625975E+03 -0.45650213101E+03  0.54982893466E+03  0.00000000000E+00 0. -1.
<mgrwt>
<rscale>  4 0.75038370E+03</rscale>
<asrwt>0</asrwt>
<pdfrwt beam="1">  1       21 0.17151041E-01 0.75038370E+03</pdfrwt>
<pdfrwt beam="2">  1       21 0.19426278E+00 0.75038370E+03</pdfrwt>
<totfact> 0.35202902E+03</totfact>
</mgrwt>
</event>
<event>
 5    0  0.3372079E-003  0.4874929E+03  0.7546771E-02  0.1017096E+00
         21   -1    0    0  503  502  0.00000000000E+00  0.00000000000E+00  0.27003116768E+03  0.27003116768E+03  0.00000000000E+00 0.  1.
         21   -1    0    0  501  503 -0.00000000000E+00 -0.00000000000E+00 -0.22002027457E+03  0.22002027457E+03  0.00000000000E+00 0.  1.
         25    1    1    2    0    0  0.20649948729E+03  0.35395874542E+02  0.69608440498E+02  0.25370305708E+03  0.12500000000E+03 0.  0.
          2    1    1    2  501    0 -0.50265829158E+02 -0.43724522316E+01 -0.53454134037E+02  0.73505893404E+02  0.00000000000E+00 0. -1.
         -2    1    1    2    0  502 -0.15623365813E+03 -0.31023422311E+02  0.33856586652E+02  0.16284249176E+03  0.00000000000E+00 0.  1.
<mgrwt>
<rscale>  4 0.48749290E+03</rscale>
<asrwt>0</asrwt>
<pdfrwt beam="1">  1       21 0.41543257E-01 0.48749290E+03</pdfrwt>
<pdfrwt beam="2">  1       21 0.33849273E-01 0.48749290E+03</pdfrwt>
<totfact> 0.42737314E+04</totfact>
</mgrwt>
</event>
<event>
 5    0  0.3372079E-003  0.5504051E+03  0.7546771E-02  0.1001400E+00
         21   -1    0    0  503  502  0.00000000000E+00  0.00000000000E+00  0.24858327511E+04  0.24858327511E+04  0.00000000000E+00 0.  1.
         21   -1    0    0  501  503 -0.00000000000E+00 -0.00000000000E+00 -0.30467236000E+02  0.30467236000E+02  0.00000000000E+00 0.  1.
         25    1    1    2    0    0 -0.61526913242E+02  0.23473929605E+03  0.96448146783E+03  0.10023660010E+04  0.12500000000E+03 0.  0.
          3    1    1    2  501    0  0.58247053245E+02 -0.21484043835E+03  0.14611345427E+04  0.14779929922E+04  0.00000000000E+00 0.  1.
         -3    1    1    2    0  502  0.32798599976E+01 -0.19898857703E+02  0.29749504553E+02  0.35940993873E+02  0.00000000000E+00 0. -1.
<mgrwt>
<rscale>  4 0.55040513E+03</rscale>
<asrwt>0</asrwt>
<pdfrwt beam="1">  1       21 0.38243565E+00 0.55040513E+03</pdfrwt>
<pdfrwt beam="2">  1       21 0.46872690E-02 0.55040513E+03</pdfrwt>
<totfact> 0.25607887E+03</totfact>
</mgrwt>
</event>
<event>
 5    0  0.3372079E-003  0.4880281E+03  0.7546771E-02  0.1016952E+00
         21   -1    0    0  503  502  0.00000000000E+00  0.00000000000E+00  0.55269847722E+03  0.55269847722E+03  0.00000000000E+00 0.  1.
         21   -1    0    0  501  503 -0.00000000000E+00 -0.00000000000E+00 -0.10773117051E+03  0.10773117051E+03  0.00000000000E+00 0.  1.
         25    1    1    2    0    0  0.21076818348E+03 -0.27472470320E+02  0.30949869724E+03  0.39571758539E+03  0.12500000000E+03 0.  0.
          2    1    1    2  501    0 -0.14024056064E+03  0.48413375057E+02  0.62175817753E+02  0.16086361318E+03  0.00000000000E+00 0.  1.
         -2    1    1    2    0  502 -0.70527622839E+02 -0.20940904737E+02  0.73292791719E+02  0.10384844916E+03  0.00000000000E+00 0. -1.
<mgrwt>
<rscale>  4 0.48802809E+03</rscale>
<asrwt>0</asrwt>
<pdfrwt beam="1">  1       21 0.85030533E-01 0.48802809E+03</pdfrwt>
<pdfrwt beam="2">  1       21 0.16574027E-01 0.48802809E+03</pdfrwt>
<totfact> 0.35415228E+04</totfact>
</mgrwt>
</event>
<event>
 5    0  0.3372079E-003  0.6519323E+03  0.7546771E-02  0.9803160E-01
         21   -1    0    0  503  502  0.00000000000E+00  0.00000000000E+00  0.10839274113E+03  0.10839274113E+03  0.00000000000E+00 0.  1.
         21   -1    0    0  501  503 -0.00000000000E+00 -0.00000000000E+00 -0.98026798438E+03  0.98026798438E+03  0.00000000000E+00 0.  1.
         25    1    1    2    0    0 -0.15266268302E+03 -0.17015344930E+03 -0.33049712897E+03  0.42084610412E+03  0.12500000000E+03 0.  0.
          4    1    1    2  501    0  0.19769123427E+02 -0.38857209413E+02 -0.35544695204E+03  0.35811064865E+03  0.00000000000E+00 0. -1.
         -4    1    1    2    0  502  0.13289355959E+03  0.20901065871E+03 -0.18593116224E+03  0.30970397274E+03  0.00000000000E+00 0.  1.
<mgrwt>
<rscale>  4 0.65193231E+03</rscale>
<asrwt>0</asrwt>
<pdfrwt beam="1">  1       21 0.16675806E-01 0.65193231E+03</pdfrwt>
<pdfrwt beam="2">  1       21 0.15081047E+00 0.65193231E+03</pdfrwt>
<totfact> 0.79304582E+03</totfact>
</mgrwt>
</event>
<event>
 5    0  0.3372079E-003  0.7236009E+03  0.7546771E-02  0.9677702E-01
         21   -1    0    0  503  502  0.00000000000E+00  0.00000000000E+00  0.92052909097E+03  0.92052909097E+03  0.00000000000E+00 0.  1.
         21   -1    0    0  501  503 -0.00000000000E+00 -0.00000000000E+00 -0.14220034855E+03  0.14220034855E+03  0.00000000000E+00 0.  1.
         25    1    1    2    0    0 -0.21114614182E+03 -0.24531948569E+03  0.31915074352E+03  0.47143031336E+03  0.12500000000E+03 0.  0.
          1    1    1    2  501    0  0.66303912545E+02 -0.13761913562E+02  0.43355892840E+02  0.80407291508E+02  0.00000000000E+00 0. -1.
         -1    1    1    2    0  502  0.14484222927E+03  0.25908139926E+03  0.41582210607E+03  0.51089183465E+03  0.00000000000E+00 0.  1.
<mgrwt>
<rscale>  4 0.72360088E+03</rscale>
<asrwt>0</asrwt>
<pdfrwt beam="1">  1       21 0.14161986E+00 0.72360088E+03</pdfrwt>
<pdfrwt beam="2">  1       21 0.21876977E-01 0.72360088E+03</pdfrwt>
<totfact> 0.55186371E+03</totfact>
</mgrwt>
</event>
<event>
 5    0  0.3372079E-003  0.4509910E+03  0.7546771E-02  0.1027427E+00
         21   -1    0    0  501  502  0.00000000000E+00  0.00000000000E+00  0.63954656927E+03  0.63954656927E+03  0.00000000000E+00 0. -1.
         21   -1    0    0  502  503 -0.00000000000E+00 -0.00000000000E+00 -0.79506666402E+02  0.79506666402E+02  0.00000000000E+00 0. -1.
         25    1    1    2    0    0 -0.11425093414E+03  0.16567894546E+03  0.30365340984E+03  0.38514047078E+03  0.12500000000E+03 0.  0.
          4    1    1    2  501    0  0.61788579489E+02 -0.41455468141E+02  0.12604804993E+03  0.14637108760E+03  0.00000000000E+00 0. -1.
         -4    1    1    2    0  503  0.52462354652E+02 -0.12422347732E+03  0.13033844309E+03  0.18754167729E+03  0.00000000000E+00 0.  1.
<mgrwt>
<rscale>  4 0.45099098E+03</rscale>
<asrwt>0</asrwt>
<pdfrwt beam="1">  1       21 0.98391777E-01 0.45099098E+03</pdfrwt>
<pdfrwt beam="2">  1       21 0.12231795E-01 0.45099098E+03</pdfrwt>
<totfact> 0.44253783E+04</totfact>
</mgrwt>
</event>
<event>
 5    0  0.3372079E-003  0.5217450E+03  0.7546771E-02  0.1008254E+00
         21   -1    0    0  501  502  0.00000000000E+00  0.00000000000E+00  0.53274213432E+02  0.53274213432E+02  0.00000000000E+00 0. -1.
         21   -1    0    0  502  503 -0.00000000000E+00 -0.00000000000E+00 -0.12774370718E+04  0.12774370718E+04  0.00000000000E+00 0. -1.
         25    1    1    2    0    0 -0.19200949710E+03 -0.13584923006E+03 -0.49307968781E+03  0.56042415973E+03  0.12500000000E+03 0.  0.
          2    1    1    2  501    0  0.33904126193E+02  0.42553148685E+02 -0.11129132566E+03  0.12387905151E+03  0.00000000000E+00 0.  1.
         -2    1    1    2    0  503  0.15810537091E+03  0.93296081379E+02 -0.61979184495E+03  0.64640807404E+03  0.00000000000E+00 0. -1.
<mgrwt>
<rscale>  4 0.52174498E+03</rscale>
<asrwt>0</asrwt>
<pdfrwt beam="1">  1       21 0.81960326E-02 0.52174498E+03</pdfrwt>
<pdfrwt beam="2">  1       21 0.19652879E+00 0.52174498E+03</pdfrwt>
<totfact> 0.13956438E+04</totfact>
</mgrwt>
</event>
<event>
 5    0  0.3372079E-003  0.4971235E+03  0.7546771E-02  0.1014532E+00
         21   -1    0    0  503  502  0.00000000000E+00  0.00000000000E+00  0.10165997674E+03  0.10165997674E+03  0.00000000000E+00 0. -1.
         21   -1    0    0  501  503 -0.00000000000E+00 -0.00000000000E+00 -0.60774112081E+03  0.60774112081E+03  0.00000000000E+00 0. -1.
         25    1    1    2    0    0 -0.20457554484E+03  0.76978254685E+02 -0.24470506130E+03  0.35111589578E+03  0.12500000000E+03 0.  0.
          2    1    1    2  501    0  0.17480659143E+03 -0.54071128383E+02 -0.13762151642E+03  0.22895570121E+03  0.00000000000E+00 0. -1.
         -2    1    1    2    0  502  0.29768953411E+02 -0.22907126302E+02 -0.12375456636E+03  0.12932950057E+03  0.00000000000E+00 0.  1.
<mgrwt>
<rscale>  4 0.49712352E+03</rscale>
<asrwt>0</asrwt>
<pdfrwt beam="1">  1       21 0.15639997E-01 0.49712352E+03</pdfrwt>
<pdfrwt beam="2">  1       21 0.93498633E-01 0.49712352E+03</pdfrwt>
<totfact> 0.31456930E+04</totfact>
</mgrwt>
</event>
<event>
 5    0  0.3372079E-003  0.4758628E+03  0.7546771E-02  0.1020278E+00
         21   -1    0    0  503  502  0.00000000000E+00  0.00000000000E+00  0.40236854799E+03  0.40236854799E+03  0.00000000000E+00 0.  1.
         21   -1    0    0  501  503 -0.00000000000E+00 -0.00000000000E+00 -0.14069526720E+03  0.14069526720E+03  0.00000000000E+00 0.  1.
         25    1    1    2    0    0  0.14878575775E+03  0.15027395632E+03  0.11892739590E+03  0.27292524462E+03  0.12500000000E+03 0.  0.
          1    1    1    2  501    0 -0.11776760375E+03 -0.10145238395E+03  0.54683419120E+02  0.16477885492E+03  0.00000000000E+00 0.  1.
         -1    1    1    2    0  502 -0.31018153997E+02 -0.48821572370E+02  0.88062465771E+02  0.10535971566E+03  0.00000000000E+00 0. -1.
<mgrwt>
<rscale>  4 0.47586280E+03</rscale>
<asrwt>0</asrwt>
<pdfrwt beam="1">  1       21 0.61902853E-01 0.47586280E+03</pdfrwt>
<pdfrwt beam="2">  1       21 0.21645426E-01 0.47586280E+03</pdfrwt>
<totfact> 0.44027885E+04</totfact>
</mgrwt>
</event>
<event>
 5    0  0.3372079E-003  0.4538388E+03  0.7546771E-02  0.1026583E+00
         21   -1    0    0  501  502  0.00000000000E+00  0.00000000000E+00  0.28913761975E+03  0.28913761975E+03  0.00000000000E+00 0.  1.
         21   -1    0    0  502  503 -0.00000000000E+00 -0.00000000000E+00 -0.17808962064E+03  0.17808962064E+03  0.00000000000E+00 0.  1.
         25    1    1    2    0    0 -0.17179660335E+03  0.10489197971E+03  0.91627968143E+02  0.25404150227E+03  0.12500000000E+03 0.  0.
          4    1    1    2  501    0  0.12215440298E+03 -0.10261844968E+03  0.30111544748E+02  0.16235439479E+03  0.00000000000E+00 0.  1.
         -4    1    1    2    0  503  0.49642200377E+02 -0.22735300334E+01 -0.10691513781E+02  0.50831343322E+02  0.00000000000E+00 0. -1.
<mgrwt>
<rscale>  4 0.45383878E+03</rscale>
<asrwt>0</asrwt>
<pdfrwt beam="1">  1       21 0.44482711E-01 0.45383878E+03</pdfrwt>
<pdfrwt beam="2">  1       21 0.27398403E-01 0.45383878E+03</pdfrwt>
<totfact> 0.56877995E+04</totfact>
</mgrwt>
</event>
<event>
 5    0  0.3372079E-003  0.5971551E+03  0.7546771E-02  0.9911326E-01
         21   -1    0    0  503  502  0.00000000000E+00  0.00000000000E+00  0.22748438182E+03  0.22748438182E+03  0.00000000000E+00 0.  1.
         21   -1    0    0  501  503 -0.00000000000E+00 -0.00000000000E+00 -0.39188862098E+03  0.39188862098E+03  0.00000000000E+00 0.  1.
         25    1    1    2    0    0  0.95858393220E+02 -0.26021246141E+03 -0.35246636534E+02  0.30621345825E+03  0.12500000000E+03 0.  0.
          3    1    1    2  501    0 -0.96900059996E+02  0.21186673150E+03 -0.85987899841E+02  0.24833657093E+03  0.00000000000E+00 0.  1.
         -3    1    1    2    0  502  0.10416667764E+01  0.48345729911E+02 -0.43169702787E+02  0.64822973620E+02  0.00000000000E+00 0. -1.
<mgrwt>
<rscale>  4 0.59715506E+03</rscale>
<asrwt>0</asrwt>
<pdfrwt beam="1">  1       21 0.34997598E-01 0.59715506E+03</pdfrwt>
<pdfrwt beam="2">  1       21 0.60290556E-01 0.59715506E+03</pdfrwt>
<totfact> 0.17622009E+04</totfact>
</mgrwt>
</event>
<event>
 5    0  0.3372079E-003  0.4998271E+03  0.7546771E-02  0.1013824E+00
         21   -1    0    0  503  502  0.00000000000E+00  0.00000000000E+00  0.19978207814E+03  0.19978207814E+03  0.00000000000E+00 0.  1.
         21   -1    0    0  501  503 -0.00000000000E+00 -0.00000000000E+00 -0.31262456643E+03  0.31262456643E+03  0.00000000000E+00 0.  1.
         25    1    1    2    0    0 -0.23042366927E+03 -0.39967244037E+01 -0.55915052194E+02  0.26807188257E+03  0.12500000000E+03 0.  0.
          4    1    1    2  501    0  0.21885409603E+02  0.12968008106E+02 -0.20006194882E+02  0.32363377781E+02  0.00000000000E+00 0. -1.
         -4    1    1    2    0  502  0.20853825966E+03 -0.89712837022E+01 -0.36921241221E+02  0.21197138422E+03  0.00000000000E+00 0.  1.
<mgrwt>
<rscale>  4 0.49982711E+03</rscale>
<asrwt>0</asrwt>
<pdfrwt beam="1">  1       21 0.30735704E-01 0.49982711E+03</pdfrwt>
<pdfrwt beam="2">  1       21 0.48096087E-01 0.49982711E+03</pdfrwt>
<totfact> 0.38057943E+04</totfact>
</mgrwt>
</event>
<event>
 5    0  0.3372079E-003  0.5716583E+03  0.7546771E-02  0.9966016E-01
         21   -1    0    0  501  502  0.00000000000E+00  0.00000000000E+00  0.10450637358E+03  0.10450637358E+03  0.00000000000E+00 0. -1.
         21   -1    0    0  502  503 -0.00000000000E+00 -0.00000000000E+00 -0.78175423053E+03  0.78175423053E+03  0.00000000000E+00 0. -1.
         25    1    1    2    0    0  0.46592346382E+02  0.20885744162E+03 -0.44773622407E+03  0.51174701173E+03  0.12500000000E+03 0.  0.
          4    1    1    2  501    0 -0.10791263027E+03 -0.19268021729E+03 -0.12926457239E+03  0.25589085874E+03  0.00000000000E+00 0. -1.
         -4    1    1    2    0  503  0.61320283893E+02 -0.16177224330E+02 -0.10024706049E+03  0.11862273366E+03  0.00000000000E+00 0.  1.
<mgrwt>
<rscale>  4 0.57165829E+03</rscale>
<asrwt>0</asrwt>
<pdfrwt beam="1">  1       21 0.16077904E-01 0.57165829E+03</pdfrwt>
<pdfrwt beam="2">  1       21 0.12026988E+00 0.57165829E+03</pdfrwt>
<totfact> 0.15761898E+04</totfact>
</mgrwt>
</event>
<event>
 5    0  0.3372079E-003  0.8069129E+03  0.7546771E-02  0.9550065E-01
         21   -1    0    0  503  502  0.00000000000E+00  0.00000000000E+00  0.68964085985E+03  0.68964085985E+03  0.00000000000E+00 0. -1.
         21   -1    0    0  501  503 -0.00000000000E+00 -0.00000000000E+00 -0.23603168205E+03  0.23603168205E+03  0.00000000000E+00 0. -1.
         25    1    1    2    0    0 -0.23670841281E+03 -0.25445214229E+03  0.31510537274E+03  0.48548240065E+03  0.12500000000E+03 0.  0.
          1    1    1    2  501    0  0.22835294156E+03  0.10345954609E+03  0.26679902284E+02  0.25211259544E+03  0.00000000000E+00 0. -1.
         -1    1    1    2    0  502  0.83554712529E+01  0.15099259619E+03  0.11182390278E+03  0.18807754581E+03  0.00000000000E+00 0.  1.
<mgrwt>
<rscale>  4 0.80691286E+03</rscale>
<asrwt>0</asrwt>
<pdfrwt beam="1">  1       21 0.10609859E+00 0.80691286E+03</pdfrwt>
<pdfrwt beam="2">  1       21 0.36312567E-01 0.80691286E+03</pdfrwt>
<totfact> 0.41812783E+03</totfact>
</mgrwt>
</event>
<event>
 5    0  0.3372079E-003  0.9788135E+03  0.7546771E-02  0.9332092E-01
         21   -1    0    0  503  502  0.00000000000E+00  0.00000000000E+00  0.69028371455E+03  0.69028371455E+03  0.00000000000E+00 0.  1.
         21   -1    0    0  501  503 -0.00000000000E+00 -0.00000000000E+00 -0.34698624183E+03  0.34698624183E+03  0.00000000000E+00 0.  1.
         25    1    1    2    0    0 -0.27646324216E+03 -0.11633008717E+03  0.16738009172E+03  0.36552114651E+03  0.12500000000E+03 0.  0.
          4    1    1    2  501    0  0.17845183258E+03 -0.21776143610E+03  0.15861709990E+03  0.32314777422E+03  0.00000000000E+00 0. -1.
         -4    1    1    2    0  502  0.98011409578E+02  0.33409152327E+03  0.17300281107E+02  0.34860103565E+03  0.00000000000E+00 0.  1.
<mgrwt>
<rscale>  4 0.97881347E+03</rscale>
<asrwt>0</asrwt>
<pdfrwt beam="1">  1       21 0.10619749E+00 0.97881347E+03</pdfrwt>
<pdfrwt beam="2">  1       21 0.53382499E-01 0.97881347E+03</pdfrwt>
<totfact> 0.17898114E+03</totfact>
</mgrwt>
</event>
<event>
 5    0  0.3372079E-003  0.6182891E+03  0.7546771E-02  0.9868172E-01
         21   -1    0    0  501  502  0.00000000000E+00  0.00000000000E+00  0.94582529226E+02  0.94582529226E+02  0.00000000000E+00 0. -1.
         21   -1    0    0  502  503 -0.00000000000E+00 -0.00000000000E+00 -0.10104440524E+04  0.10104440524E+04  0.00000000000E+00 0. -1.
         25    1    1    2    0    0 -0.22708966788E+02  0.27424599281E+03 -0.34787608728E+03  0.46083547373E+03  0.12500000000E+03 0.  0.
          2    1    1    2  501    0  0.48777700349E+02 -0.99234527746E+02 -0.12342710799E+03  0.16571362809E+03  0.00000000000E+00 0. -1.
         -2    1    1    2    0  503 -0.26068733561E+02 -0.17501146506E+03 -0.44455832791E+03  0.47847747981E+03  0.00000000000E+00 0.  1.
<mgrwt>
<rscale>  4 0.61828910E+03</rscale>
<asrwt>0</asrwt>
<pdfrwt beam="1">  1       21 0.14551159E-01 0.61828910E+03</pdfrwt>
<pdfrwt beam="2">  1       21 0.15545293E+00 0.61828910E+03</pdfrwt>
<totfact> 0.94867874E+03</totfact>
</mgrwt>
</event>
<event>
 5    0  0.3372079E-003  0.4752337E+03  0.7546771E-02  0.1020453E+00
         21   -1    0    0  503  502  0.00000000000E+00  0.00000000000E+00  0.92168689644E+03  0.92168689644E+03  0.00000000000E+00 0.  1.
         21   -1    0    0  501  503 -0.00000000000E+00 -0.00000000000E+00 -0.61259162731E+02  0.61259162731E+02  0.00000000000E+00 0.  1.
         25    1    1    2    0    0  0.11381092058E+03  0.18089793495E+03  0.39286052147E+03  0.46437202526E+03  0.12500000000E+03 0.  0.
          3    1    1    2  501    0 -0.14662127516E+02 -0.56167472081E+02  0.74545011118E+02  0.94481329298E+02  0.00000000000E+00 0. -1.
         -3    1    1    2    0  502 -0.99148793063E+02 -0.12473046287E+03  0.39302220112E+03  0.42409270461E+03  0.00000000000E+00 0.  1.
<mgrwt>
<rscale>  4 0.47523370E+03</rscale>
<asrwt>0</asrwt>
<pdfrwt beam="1">  1       21 0.14179797E+00 0.47523370E+03</pdfrwt>
<pdfrwt beam="2">  1       21 0.94244873E-02 0.47523370E+03</pdfrwt>
<totfact> 0.27908837E+04</totfact>
</mgrwt>
</event>
<event>
 5    0  0.3372079E-003  0.6692680E+03  0.7546771E-02  0.9771281E-01
         21   -1    0    0  501  502  0.00000000000E+00  0.00000000000E+00  0.51828242208E+03  0.51828242208E+03  0.00000000000E+00 0.  1.
         21   -1    0    0  502  503 -0.00000000000E+00 -0.00000000000E+00 -0.21605965401E+03  0.21605965401E+03  0.00000000000E+00 0.  1.
         25    1    1    2    0    0  0.67509435342E+02 -0.25265402507E+03  0.33371615301E+03  0.44202155041E+03  0.12500000000E+03 0.  0.
          1    1    1    2  501    0 -0.77147975169E+02  0.65413013914E+02 -0.27377406046E+02  0.10478642481E+03  0.00000000000E+00 0.  1.
         -1    1    1    2    0  503  0.96385398273E+01  0.18724101116E+03 -0.41159788936E+01  0.18753410088E+03  0.00000000000E+00 0. -1.
<mgrwt>
<rscale>  4 0.66926802E+03</rscale>
<asrwt>0</asrwt>
<pdfrwt beam="1">  1       21 0.79735757E-01 0.66926802E+03</pdfrwt>
<pdfrwt beam="2">  1       21 0.33239947E-01 0.66926802E+03</pdfrwt>
<totfact> 0.10239025E+04</totfact>
</mgrwt>
</event>
<event>
 5    0  0.3372079E-003  0.4901811E+03  0.7546771E-02  0.1016374E+00
         21   -1    0    0  503  502  0.00000000000E+00  0.00000000000E+00  0.46253484257E+03  0.46253484257E+03  0.00000000000E+00 0. -1.
         21   -1    0    0  501  503 -0.00000000000E+00 -0.00000000000E+00 -0.12986995603E+03  0.12986995603E+03  0.00000000000E+00 0. -1.
         25    1    1    2    0    0  0.10587515526E+03  0.19057810851E+03  0.21289769658E+03  0.32936301121E+03  0.12500000000E+03 0.  0.
          4    1    1    2  501    0 -0.30960641372E+02 -0.38891211920E+02 -0.88923721916E+01  0.50499128328E+02  0.00000000000E+00 0.  1.
         -4    1    1    2    0  502 -0.74914513889E+02 -0.15168689659E+03  0.12865956215E+03  0.21254265906E+03  0.00000000000E+00 0. -1.
<mgrwt>
<rscale>  4 0.49018111E+03</rscale>
<asrwt>0</asrwt>
<pdfrwt beam="1">  1       21 0.71159206E-01 0.49018111E+03</pdfrwt>
<pdfrwt beam="2">  1       21 0.19979993E-01 0.49018111E+03</pdfrwt>
<totfact> 0.37472266E+04</totfact>
</mgrwt>
</event>
<event>
 5    0  0.3372079E-003  0.5121698E+03  0.7546771E-02  0.1010650E+00
         21   -1    0    0  501  502  0.00000000000E+00  0.00000000000E+00  0.17434437691E+03  0.17434437691E+03  0.00000000000E+00 0. -1.
         21   -1    0    0  502  503 -0.00000000000E+00 -0.00000000000E+00 -0.37614914194E+03  0.37614914194E+03  0.00000000000E+00 0. -1.
         25    1    1    2    0    0 -0.11825329763E+03  0.18602784444E+03 -0.90367052262E+02  0.26903792566E+03  0.12500000000E+03 0.  0.
          3    1    1    2  501    0  0.47604233499E+02 -0.13582625846E+03 -0.47556161173E+01  0.14400538677E+03  0.00000000000E+00 0.  1.
         -3    1    1    2    0  503  0.70649064131E+02 -0.50201585976E+02 -0.10668209665E+03  0.13745020641E+03  0.00000000000E+00 0. -1.
<mgrwt>
<rscale>  4 0.51216985E+03</rscale>
<asrwt>0</asrwt>
<pdfrwt beam="1">  1       21 0.26822212E-01 0.51216985E+03</pdfrwt>
<pdfrwt beam="2">  1       21 0.57869098E-01 0.51216985E+03</pdfrwt>
<totfact> 0.33403238E+04</totfact>
</mgrwt>
</event>
<event>
 5    0  0.3372079E-003  0.5053158E+03  0.7546771E-02  0.1012401E+00
         21   -1    0    0  501  502  0.00000000000E+00  0.00000000000E+00  0.12578596082E+03  0.12578596082E+03  0.00000000000E+00 0.  1.
         21   -1    0    0  502  503 -0.00000000000E+00 -0.00000000000E+00 -0.50749709139E+03  0.50749709139E+03  0.00000000000E+00 0.  1.
         25    1    1    2    0    0 -0.20304744194E+03 -0.38579517772E+02 -0.16711655824E+03  0.29371684818E+03  0.12500000000E+03 0.  0.
          1    1    1    2  501    0  0.19845849641E+03 -0.24063918591E+02 -0.17146935068E+03  0.26337536938E+03  0.00000000000E+00 0.  1.
         -1    1    1    2    0  503  0.45889455315E+01  0.62643436363E+02 -0.43125221652E+02  0.76190834639E+02  0.00000000000E+00 0. -1.
<mgrwt>
<rscale>  4 0.50531578E+03</rscale>
<asrwt>0</asrwt>
<pdfrwt beam="1">  1       21 0.19351687E-01 0.50531578E+03</pdfrwt>
<pdfrwt beam="2">  1       21 0.78076475E-01 0.50531578E+03</pdfrwt>
<totfact> 0.32115503E+04</totfact>
</mgrwt>
</event>
<event>
 5    0  0.3372079E-003  0.5600347E+03  0.7546771E-02  0.9991976E-01
         21   -1    0    0  501  502  0.00000000000E+00  0.00000000000E+00  0.12480009700E+04  0.12480009700E+04  0.00000000000E+00 0. -1.
         21   -1    0    0  502  503 -0.00000000000E+00 -0.00000000000E+00 -0.62828248618E+02  0.62828248618E+02  0.00000000000E+00 0. -1.
         25    1    1    2    0    0  0.20120667875E+03 -0.67745741718E+02  0.49232714091E+03  0.55053122234E+03  0.12500000000E+03 0.  0.
          4    1    1    2  501    0 -0.36984581927E+02  0.13100838000E+03  0.27289677895E+03  0.30496509126E+03  0.00000000000E+00 0.  1.
         -4    1    1    2    0  503 -0.16422209682E+03 -0.63262638282E+02  0.41994880155E+03  0.45533290504E+03  0.00000000000E+00 0. -1.
<mgrwt>
<rscale>  4 0.56003470E+03</rscale>
<asrwt>0</asrwt>
<pdfrwt beam="1">  1       21 0.19200013E+00 0.56003470E+03</pdfrwt>
<pdfrwt beam="2">  1       21 0.96658853E-02 0.56003470E+03</pdfrwt>
<totfact> 0.11032964E+04</totfact>
</mgrwt>
</event>
<event>
 5    0  0.3372079E-003  0.5419561E+03  0.7546771E-02  0.1003373E+00
         21   -1    0    0  503  502  0.00000000000E+00  0.00000000000E+00  0.99803421476E+03  0.99803421476E+03  0.00000000000E+00 0. -1.
         21   -1    0    0  501  503 -0.00000000000E+00 -0.00000000000E+00 -0.73573739875E+02  0.73573739875E+02  0.00000000000E+00 0. -1.
         25    1    1    2    0    0  0.16737237817E+03  0.18755174440E+03  0.51957592536E+03  0.59057032775E+03  0.12500000000E+03 0.  0.
          3    1    1    2  501    0 -0.15803347125E+03 -0.13979563718E+03  0.33384676815E+03  0.39493171918E+03  0.00000000000E+00 0. -1.
         -3    1    1    2    0  502 -0.93389069197E+01 -0.47756107222E+02  0.71037781370E+02  0.86105907703E+02  0.00000000000E+00 0.  1.
<mgrwt>
<rscale>  4 0.54195612E+03</rscale>
<asrwt>0</asrwt>
<pdfrwt beam="1">  1       21 0.15354372E+00 0.54195612E+03</pdfrwt>
<pdfrwt beam="2">  1       21 0.11319038E-01 0.54195612E+03</pdfrwt>
<totfact> 0.15879777E+04</totfact>
</mgrwt>
</event>
<event>
 5    0  0.3372079E-003  0.5700991E+03  0.7546771E-02  0.9969459E-01
         21   -1    0    0  501  502  0.00000000000E+00  0.00000000000E+00  0.33623706827E+03  0.33623706827E+03  0.00000000000E+00 0.  1.
         21   -1    0    0  502  503 -0.00000000000E+00 -0.00000000000E+00 -0.24165465494E+03  0.24165465494E+03  0.00000000000E+00 0.  1.
         25    1    1    2    0    0  0.19342329380E+03 -0.84511291312E+02  0.18795618733E+03  0.30904248462E+03  0.12500000000E+03 0.  0.
          4    1    1    2  501    0 -0.15958621674E+03  0.10086395826E+03 -0.24477019854E+02  0.19036917595E+03  0.00000000000E+00 0. -1.
         -4    1    1    2    0  503 -0.33837077060E+02 -0.16352666953E+02 -0.68896754146E+02  0.78480062642E+02  0.00000000000E+00 0.  1.
<mgrwt>
<rscale>  4 0.57009912E+03</rscale>
<asrwt>0</asrwt>
<pdfrwt beam="1">  1       21 0.51728780E-01 0.57009912E+03</pdfrwt>
<pdfrwt beam="2">  1       21 0.37177639E-01 0.57009912E+03</pdfrwt>
<totfact> 0.21858993E+04</totfact>
</mgrwt>
</event>
<event>
 5    0  0.3372079E-003  0.4994849E+03  0.7546771E-02  0.1013913E+00
         21   -1    0    0  501  502  0.00000000000E+00  0.00000000000E+00  0.14321252708E+03  0.14321252708E+03  0.00000000000E+00 0. -1.
         21   -1    0    0  502  503 -0.00000000000E+00 -0.00000000000E+00 -0.43551568518E+03  0.43551568518E+03  0.00000000000E+00 0. -1.
         25    1    1    2    0    0 -0.19827788088E+03 -0.32033158950E+02 -0.21833622760E+03  0.32192537893E+03  0.12500000000E+03 0.  0.
          3    1    1    2  501    0 -0.83202072474E+01 -0.28631228579E+02 -0.15898848725E+02  0.33789739410E+02  0.00000000000E+00 0.  1.
         -3    1    1    2    0  503  0.20659808813E+03  0.60664387530E+02 -0.58068081778E+02  0.22301309391E+03  0.00000000000E+00 0. -1.
<mgrwt>
<rscale>  4 0.49948494E+03</rscale>
<asrwt>0</asrwt>
<pdfrwt beam="1">  1       21 0.22032696E-01 0.49948494E+03</pdfrwt>
<pdfrwt beam="2">  1       21 0.67002414E-01 0.49948494E+03</pdfrwt>
<totfact> 0.35508081E+04</totfact>
</mgrwt>
</event>
<event>
 5    0  0.3372079E-003  0.6441737E+03  0.7546771E-02  0.9817774E-01
         21   -1    0    0  501  502  0.00000000000E+00  0.00000000000E+00  0.23719141539E+03  0.23719141539E+03  0.00000000000E+00 0. -1.
         21   -1    0    0  502  503 -0.00000000000E+00 -0.00000000000E+00 -0.43736799180E+03  0.43736799180E+03  0.00000000000E+00 0. -1.
         25    1    1    2    0    0 -0.20811421767E+03 -0.16058590071E+03  0.63508883362E+02  0.29792236802E+03  0.12500000000E+03 0.  0.
          4    1    1    2  501    0  0.97826150360E+02  0.10233816315E+03 -0.16627059192E+03  0.21837803248E+03  0.00000000000E+00 0. -1.
         -4    1    1    2    0  503  0.11028806731E+03  0.58247737565E+02 -0.97414867846E+02  0.15825900669E+03  0.00000000000E+00 0.  1.
<mgrwt>
<rscale>  4 0.64417368E+03</rscale>
<asrwt>0</asrwt>
<pdfrwt beam="1">  1       21 0.36490987E-01 0.64417368E+03</pdfrwt>
<pdfrwt beam="2">  1       21 0.67287383E-01 0.64417368E+03</pdfrwt>
<totfact> 0.12550511E+04</totfact>
</mgrwt>
</event>
<event>
 5    0  0.3372079E-003  0.4814348E+03  0.7546771E-02  0.1018742E+00
         21   -1    0    0  501  502  0.00000000000E+00  0.00000000000E+00  0.30721018542E+03  0.30721018542E+03  0.00000000000E+00 0.  1.
         21   -1    0    0  502  503 -0.00000000000E+00 -0.00000000000E+00 -0.18861638416E+03  0.18861638416E+03  0.00000000000E+00 0.  1.
         25    1    1    2    0    0 -0.32416013194E+02  0.19917173512E+03 -0.19410253035E+02  0.23816367461E+03  0.12500000000E+03 0.  0.
          3    1    1    2  501    0  0.57581217673E+02 -0.10995339885E+03  0.68205327624E+02  0.14162384426E+03  0.00000000000E+00 0. -1.
         -3    1    1    2    0  503 -0.25165204479E+02 -0.89218336276E+02  0.69798726672E+02  0.11603905071E+03  0.00000000000E+00 0.  1.
<mgrwt>
<rscale>  4 0.48143483E+03</rscale>
<asrwt>0</asrwt>
<pdfrwt beam="1">  1       21 0.47263105E-01 0.48143483E+03</pdfrwt>
<pdfrwt beam="2">  1       21 0.29017905E-01 0.48143483E+03</pdfrwt>
<totfact> 0.44447530E+04</totfact>
</mgrwt>
</event>
<event>
 5    0  0.3372079E-003  0.6415904E+03  0.7546771E-02  0.9822689E-01
         21   -1    0    0  503  502  0.00000000000E+00  0.00000000000E+00  0.87187461021E+02  0.87187461021E+02  0.00000000000E+00 0. -1.
         21   -1    0    0  501  503 -0.00000000000E+00 -0.00000000000E+00 -0.11803250649E+04  0.11803250649E+04  0.00000000000E+00 0. -1.
         25    1    1    2    0    0  0.21237880648E+03  0.14570328594E+03 -0.30543006235E+03  0.41862480572E+03  0.12500000000E+03 0.  0.
          2    1    1    2  501    0 -0.20500074836E+03 -0.47660237986E+02 -0.44338116709E+03  0.49079900616E+03  0.00000000000E+00 0. -1.
         -2    1    1    2    0  502 -0.73780581127E+01 -0.98043047955E+02 -0.34432637441E+03  0.35808871402E+03  0.00000000000E+00 0.  1.
<mgrwt>
<rscale>  4 0.64159035E+03</rscale>
<asrwt>0</asrwt>
<pdfrwt beam="1">  1       21 0.13413457E-01 0.64159035E+03</pdfrwt>
<pdfrwt beam="2">  1       21 0.18158845E+00 0.64159035E+03</pdfrwt>
<totfact> 0.70206816E+03</totfact>
</mgrwt>
</event>
<event>
 5    0  0.3372079E-003  0.5152559E+03  0.7546771E-02  0.1009872E+00
         21   -1    0    0  501  502  0.00000000000E+00  0.00000000000E+00  0.90351778671E+02  0.90351778671E+02  0.00000000000E+00 0.  1.
         21   -1    0    0  502  503 -0.00000000000E+00 -0.00000000000E+00 -0.73459718264E+03  0.73459718264E+03  0.00000000000E+00 0.  1.
         25    1    1    2    0    0  0.22538647924E+03  0.27097311395E+01 -0.22681900759E+03  0.34333404997E+03  0.12500000000E+03 0.  0.
          4    1    1    2  501    0 -0.53137312631E+02  0.20047890042E+02 -0.52073282615E+02  0.77052700479E+02  0.00000000000E+00 0. -1.
         -4    1    1    2    0  503 -0.17224916661E+03 -0.22757621181E+02 -0.36535311376E+03  0.40456221085E+03  0.00000000000E+00 0.  1.
<mgrwt>
<rscale>  4 0.51525591E+03</rscale>
<asrwt>0</asrwt>
<pdfrwt beam="1">  1       21 0.13900273E-01 0.51525591E+03</pdfrwt>
<pdfrwt beam="2">  1       21 0.11301495E+00 0.51525591E+03</pdfrwt>
<totfact> 0.24497278E+04</totfact>
</mgrwt>
</event>
<event>
 5    0  0.3372079E-003  0.5274629E+03  0.7546771E-02  0.1006849E+00
         21   -1    0    0  503  502  0.00000000000E+00  0.00000000000E+00  0.72887621751E+02  0.72887621751E+02  0.00000000000E+00 0. -1.
         21   -1    0    0  501  503 -0.00000000000E+00 -0.00000000000E+00 -0.95426748758E+03  0.95426748758E+03  0.00000000000E+00 0. -1.
         25    1    1    2    0    0  0.21375305525E+03 -0.13982501240E+02 -0.33919896637E+03  0.42019854564E+03  0.12500000000E+03 0.  0.
          3    1    1    2  501    0 -0.59361132804E+02  0.75811662589E+02 -0.12455119274E+03  0.15742983163E+03  0.00000000000E+00 0.  1.
         -3    1    1    2    0  502 -0.15439192245E+03 -0.61829161348E+02 -0.41762970671E+03  0.44952673206E+03  0.00000000000E+00 0. -1.
<mgrwt>
<rscale>  4 0.52746294E+03</rscale>
<asrwt>0</asrwt>
<pdfrwt beam="1">  1       21 0.11213481E-01 0.52746294E+03</pdfrwt>
<pdfrwt beam="2">  1       21 0.14681037E+00 0.52746294E+03</pdfrwt>
<totfact> 0.18323677E+04</totfact>
</mgrwt>
</event>
<event>
 5    0  0.3372079E-003  0.4571953E+03  0.7546771E-02  0.1025598E+00
         21   -1    0    0  501  502  0.00000000000E+00  0.00000000000E+00  0.12677229838E+03  0.12677229838E+03  0.00000000000E+00 0.  1.
         21   -1    0    0  502  503 -0.00000000000E+00 -0.00000000000E+00 -0.41221069281E+03  0.41221069281E+03  0.00000000000E+00 0.  1.
         25    1    1    2    0    0 -0.11129908156E+03  0.17515828782E+03 -0.12352927666E+03  0.27194189369E+03  0.12500000000E+03 0.  0.
          3    1    1    2  501    0  0.49360631369E+02 -0.11842729624E+03 -0.94635014536E+02  0.15942798499E+03  0.00000000000E+00 0.  1.
         -3    1    1    2    0  503  0.61938450189E+02 -0.56730991588E+02 -0.67274103235E+02  0.10761311251E+03  0.00000000000E+00 0. -1.
<mgrwt>
<rscale>  4 0.45719535E+03</rscale>
<asrwt>0</asrwt>
<pdfrwt beam="1">  1       21 0.19503430E-01 0.45719535E+03</pdfrwt>
<pdfrwt beam="2">  1       21 0.63417030E-01 0.45719535E+03</pdfrwt>
<totfact> 0.51132377E+04</totfact>
</mgrwt>
</event>
<event>
 5    0  0.3372079E-003  0.6521703E+03  0.7546771E-02  0.9802715E-01
         21   -1    0    0  501  502  0.00000000000E+00  0.00000000000E+00  0.12100707885E+04  0.12100707885E+04  0.00000000000E+00 0.  1.
         21   -1    0    0  502  503 -0.00000000000E+00 -0.00000000000E+00 -0.87872163883E+02  0.87872163883E+02  0.00000000000E+00 0.  1.
         25    1    1    2    0    0 -0.24931482836E+03  0.31309278354E+02  0.56424356561E+03  0.63018565192E+03  0.12500000000E+03 0.  0.
          2    1    1    2  501    0  0.73173649167E+02 -0.99489727717E+02  0.40891951539E+03  0.42716245027E+03  0.00000000000E+00 0. -1.
         -2    1    1    2    0  503  0.17614117920E+03  0.68180449363E+02  0.14903554365E+03  0.24059485023E+03  0.00000000000E+00 0.  1.
<mgrwt>
<rscale>  4 0.65217034E+03</rscale>
<asrwt>0</asrwt>
<pdfrwt beam="1">  1       21 0.18616473E+00 0.65217034E+03</pdfrwt>
<pdfrwt beam="2">  1       21 0.13518795E-01 0.65217034E+03</pdfrwt>
<totfact> 0.64069888E+03</totfact>
</mgrwt>
</event>
<event>
 5    0  0.3372079E-003  0.5853116E+03  0.7546771E-02  0.9936357E-01
         21   -1    0    0  503  502  0.00000000000E+00  0.00000000000E+00  0.46249822857E+02  0.46249822857E+02  0.00000000000E+00 0.  1.
         21   -1    0    0  501  503 -0.00000000000E+00 -0.00000000000E+00 -0.18518430024E+04  0.18518430024E+04  0.00000000000E+00 0.  1.
         25    1    1    2    0    0 -0.99701387184E-02  0.23133304714E+03 -0.60496033386E+03  0.65963397755E+03  0.12500000000E+03 0.  0.
          2    1    1    2  501    0 -0.46113431446E+02 -0.24468225744E+03 -0.89144218434E+03  0.92556200424E+03  0.00000000000E+00 0. -1.
         -2    1    1    2    0  502  0.46123401585E+02  0.13349210305E+02 -0.30919066131E+03  0.31289684343E+03  0.00000000000E+00 0.  1.
<mgrwt>
<rscale>  4 0.58531158E+03</rscale>
<asrwt>0</asrwt>
<pdfrwt beam="1">  1       21 0.71153590E-02 0.58531158E+03</pdfrwt>
<pdfrwt beam="2">  1       21 0.28489886E+00 0.58531158E+03</pdfrwt>
<totfact> 0.48611205E+03</totfact>
</mgrwt>
</event>
<event>
 5    0  0.3372079E-003  0.5241011E+03  0.7546771E-02  0.1007673E+00
         21   -1    0    0  501  502  0.00000000000E+00  0.00000000000E+00  0.11518868682E+03  0.11518868682E+03  0.00000000000E+00 0. -1.
         21   -1    0    0  502  503 -0.00000000000E+00 -0.00000000000E+00 -0.59615651731E+03  0.59615651731E+03  0.00000000000E+00 0. -1.
         25    1    1    2    0    0 -0.52075219957E+02 -0.20104225012E+03 -0.22195309455E+03  0.32866090587E+03  0.12500000000E+03 0.  0.
          1    1    1    2  501    0 -0.34293364896E+02  0.17524134141E+03 -0.11372828151E+03  0.21170660035E+03  0.00000000000E+00 0. -1.
         -1    1    1    2    0  503  0.86368584853E+02  0.25800908704E+02 -0.14528645443E+03  0.17097769791E+03  0.00000000000E+00 0.  1.
<mgrwt>
<rscale>  4 0.52410108E+03</rscale>
<asrwt>0</asrwt>
<pdfrwt beam="1">  1       21 0.17721336E-01 0.52410108E+03</pdfrwt>
<pdfrwt beam="2">  1       21 0.91716389E-01 0.52410108E+03</pdfrwt>
<totfact> 0.25902937E+04</totfact>
</mgrwt>
</event>
<event>
 5    0  0.3372079E-003  0.4961885E+03  0.7546771E-02  0.1014779E+00
         21   -1    0    0  503  502  0.00000000000E+00  0.00000000000E+00  0.17995811915E+04  0.17995811915E+04  0.00000000000E+00 0.  1.
         21   -1    0    0  501  503 -0.00000000000E+00 -0.00000000000E+00 -0.34202827478E+02  0.34202827478E+02  0.00000000000E+00 0.  1.
         25    1    1    2    0    0  0.15850653460E+02  0.21218110184E+03  0.11203634409E+04  0.11472189429E+04  0.12500000000E+03 0.  0.
          1    1    1    2  501    0  0.41606944850E+02 -0.11398917317E+03  0.32264299960E+03  0.34470737539E+03  0.00000000000E+00 0. -1.
         -1    1    1    2    0  502 -0.57457598310E+02 -0.98191928670E+02  0.32237192356E+03  0.34185770074E+03  0.00000000000E+00 0.  1.
<mgrwt>
<rscale>  4 0.49618853E+03</rscale>
<asrwt>0</asrwt>
<pdfrwt beam="1">  1       21 0.27685857E+00 0.49618853E+03</pdfrwt>
<pdfrwt beam="2">  1       21 0.52619749E-02 0.49618853E+03</pdfrwt>
<totfact> 0.95252402E+03</totfact>
</mgrwt>
</event>
<event>
 5    0  0.3372079E-003  0.7160599E+03  0.7546771E-02  0.9690155E-01
         21   -1    0    0  501  502  0.00000000000E+00  0.00000000000E+00  0.40831112615E+03  0.40831112615E+03  0.00000000000E+00 0.  1.
         21   -1    0    0  502  503 -0.00000000000E+00 -0.00000000000E+00 -0.31394063842E+03  0.31394063842E+03  0.00000000000E+00 0.  1.
         25    1    1    2    0    0 -0.10418593306E+02 -0.28667832532E+03  0.19641403570E+03  0.36945430396E+03  0.12500000000E+03 0.  0.
          3    1    1    2  501    0 -0.64726749905E+02  0.32042275815E+02 -0.21427447003E+02  0.75335218044E+02  0.00000000000E+00 0. -1.
         -3    1    1    2    0  503  0.75145343211E+02  0.25463604951E+03 -0.80616100962E+02  0.27746224256E+03  0.00000000000E+00 0.  1.
<mgrwt>
<rscale>  4 0.71605993E+03</rscale>
<asrwt>0</asrwt>
<pdfrwt beam="1">  1       21 0.62817097E-01 0.71605993E+03</pdfrwt>
<pdfrwt beam="2">  1       21 0.48298559E-01 0.71605993E+03</pdfrwt>
<totfact> 0.80340816E+03</totfact>
</mgrwt>
</event>
<event>
 5    0  0.3372079E-003  0.4516921E+03  0.7546771E-02  0.1027219E+00
         21   -1    0    0  501  502  0.00000000000E+00  0.00000000000E+00  0.43033512323E+03  0.43033512323E+03  0.00000000000E+00 0.  1.
         21   -1    0    0  502  503 -0.00000000000E+00 -0.00000000000E+00 -0.11852726635E+03  0.11852726635E+03  0.00000000000E+00 0.  1.
         25    1    1    2    0    0 -0.17224361947E+03 -0.11034063934E+03  0.17347652852E+03  0.29590881549E+03  0.12500000000E+03 0.  0.
          2    1    1    2  501    0  0.55714632124E+02  0.55685879729E+02  0.28554917629E+02  0.83787951131E+02  0.00000000000E+00 0.  1.
         -2    1    1    2    0  503  0.11652898734E+03  0.54654759612E+02  0.10977641073E+03  0.16916562296E+03  0.00000000000E+00 0. -1.
<mgrwt>
<rscale>  4 0.45169213E+03</rscale>
<asrwt>0</asrwt>
<pdfrwt beam="1">  1       21 0.66205403E-01 0.45169213E+03</pdfrwt>
<pdfrwt beam="2">  1       21 0.18234964E-01 0.45169213E+03</pdfrwt>
<totfact> 0.52842419E+04</totfact>
</mgrwt>
</event>
<event>
 5    0  0.3372079E-003  0.5611927E+03  0.7546771E-02  0.9989360E-01
         21   -1    0    0  503  502  0.00000000000E+00  0.00000000000E+00  0.22296571891E+03  0.22296571891E+03  0.00000000000E+00 0. -1.
         21   -1    0    0  501  503 -0.00000000000E+00 -0.00000000000E+00 -0.35312295086E+03  0.35312295086E+03  0.00000000000E+00 0. -1.
         25    1    1    2    0    0  0.20354370292E+03 -0.24498969925E+02 -0.14643318125E+03  0.28124351565E+03  0.12500000000E+03 0.  0.
          2    1    1    2  501    0 -0.21085013271E+03 -0.50002240009E+02 -0.58763963092E+01  0.21677761532E+03  0.00000000000E+00 0. -1.
         -2    1    1    2    0  502  0.73064297879E+01  0.74501209934E+02  0.22152345606E+02  0.78067538797E+02  0.00000000000E+00 0.  1.
<mgrwt>
<rscale>  4 0.56119270E+03</rscale>
<asrwt>0</asrwt>
<pdfrwt beam="1">  1       21 0.34302418E-01 0.56119270E+03</pdfrwt>
<pdfrwt beam="2">  1       21 0.54326608E-01 0.56119270E+03</pdfrwt>
<totfact> 0.23214905E+04</totfact>
</mgrwt>
</event>
<event>
 5    0  0.3372079E-003  0.5077043E+03  0.7546771E-02  0.1011787E+00
         21   -1    0    0  501  502  0.00000000000E+00  0.00000000000E+00  0.23268929034E+03  0.23268929034E+03  0.00000000000E+00 0. -1.
         21   -1    0    0  502  503 -0.00000000000E+00 -0.00000000000E+00 -0.27693971428E+03  0.27693971428E+03  0.00000000000E+00 0. -1.
         25    1    1    2    0    0  0.17233378454E+03  0.12625840011E+03  0.77117077474E+02  0.25925308201E+03  0.12500000000E+03 0.  0.
          2    1    1    2  501    0 -0.80789805732E+02 -0.30994630740E+02 -0.41223011290E+02  0.95848821092E+02  0.00000000000E+00 0.  1.
         -2    1    1    2    0  503 -0.91543978807E+02 -0.95263769367E+02 -0.80144490119E+02  0.15452710153E+03  0.00000000000E+00 0. -1.
<mgrwt>
<rscale>  4 0.50770427E+03</rscale>
<asrwt>0</asrwt>
<pdfrwt beam="1">  1       21 0.35798352E-01 0.50770427E+03</pdfrwt>
<pdfrwt beam="2">  1       21 0.42606110E-01 0.50770427E+03</pdfrwt>
<totfact> 0.36051041E+04</totfact>
</mgrwt>
</event>
<event>
 5    0  0.3372079E-003  0.5245706E+03  0.7546771E-02  0.1007557E+00
         21   -1    0    0  501  502  0.00000000000E+00  0.00000000000E+00  0.47375503744E+03  0.47375503744E+03  0.00000000000E+00 0.  1.
         21   -1    0    0  502  503 -0.00000000000E+00 -0.00000000000E+00 -0.14520919192E+03  0.14520919192E+03  0.00000000000E+00 0.  1.
         25    1    1    2    0    0  0.20191137330E+03  0.55473166556E+02  0.12946479162E+03  0.27610071920E+03  0.12500000000E+03 0.  0.
          3    1    1    2  501    0 -0.84644482260E+02  0.51836681209E+02  0.14347672383E+03  0.17446289054E+03  0.00000000000E+00 0. -1.
         -3    1    1    2    0  503 -0.11726689104E+03 -0.10730984777E+03  0.55604330074E+02  0.16840061961E+03  0.00000000000E+00 0.  1.
<mgrwt>
<rscale>  4 0.52457063E+03</rscale>
<asrwt>0</asrwt>
<pdfrwt beam="1">  1       21 0.72885390E-01 0.52457063E+03</pdfrwt>
<pdfrwt beam="2">  1       21 0.22339876E-01 0.52457063E+03</pdfrwt>
<totfact> 0.28439671E+04</totfact>
</mgrwt>
</event>
<event>
 5    0  0.3372079E-003  0.6417861E+03  0.7546771E-02  0.9822315E-01
         21   -1    0    0  501  502  0.00000000000E+00  0.00000000000E+00  0.45608887023E+02  0.45608887023E+02  0.00000000000E+00 0.  1.
         21   -1    0    0  502  503 -0.00000000000E+00 -0.00000000000E+00 -0.22577256453E+04  0.22577256453E+04  0.00000000000E+00 0.  1.
         25    1    1    2    0    0  0.13356162019E+03  0.23950983818E+03 -0.14039336087E+04  0.14359172144E+04  0.12500000000E+03 0.  0.
          2    1    1    2  501    0 -0.13552962644E+03 -0.13543662688E+03 -0.65321012989E+03  0.68073110207E+03  0.00000000000E+00 0. -1.
         -2    1    1    2    0  503  0.19680062474E+01 -0.10407321130E+03 -0.15497301972E+03  0.18668621588E+03  0.00000000000E+00 0.  1.
<mgrwt>
<rscale>  4 0.64178611E+03</rscale>
<asrwt>0</asrwt>
<pdfrwt beam="1">  1       21 0.70167541E-02 0.64178611E+03</pdfrwt>
<pdfrwt beam="2">  1       21 0.34734229E+00 0.64178611E+03</pdfrwt>
<totfact> 0.20251196E+03</totfact>
</mgrwt>
</event>
<event>
 5    0  0.3372079E-003  0.7366870E+03  0.7546771E-02  0.9656471E-01
         21   -1    0    0  501  502  0.00000000000E+00  0.00000000000E+00  0.20272953574E+03  0.20272953574E+03  0.00000000000E+00 0. -1.
         21   -1    0    0  502  503 -0.00000000000E+00 -0.00000000000E+00 -0.66925095196E+03  0.66925095196E+03  0.00000000000E+00 0. -1.
         25    1    1    2    0    0  0.29227491991E+03 -0.35304211238E+02 -0.43790447531E+02  0.32282134290E+03  0.12500000000E+03 0.  0.
          4    1    1    2  501    0 -0.20587946399E+03 -0.50342943485E+02 -0.18170898836E+03  0.27917543248E+03  0.00000000000E+00 0. -1.
         -4    1    1    2    0  503 -0.86395455918E+02  0.85647154723E+02 -0.24102198033E+03  0.26998371232E+03  0.00000000000E+00 0.  1.
<mgrwt>
<rscale>  4 0.73668700E+03</rscale>
<asrwt>0</asrwt>
<pdfrwt beam="1">  1       21 0.31189160E-01 0.73668700E+03</pdfrwt>
<pdfrwt beam="2">  1       21 0.10296168E+00 0.73668700E+03</pdfrwt>
<totfact> 0.62230719E+03</totfact>
</mgrwt>
</event>
<event>
 5    0  0.3372079E-003  0.7904517E+03  0.7546771E-02  0.9573942E-01
         21   -1    0    0  501  502  0.00000000000E+00  0.00000000000E+00  0.22173391694E+03  0.22173391694E+03  0.00000000000E+00 0.  1.
         21   -1    0    0  502  503 -0.00000000000E+00 -0.00000000000E+00 -0.70446351616E+03  0.70446351616E+03  0.00000000000E+00 0.  1.
         25    1    1    2    0    0  0.14660633405E+03  0.17988686937E+03 -0.65062870393E+02  0.27149747708E+03  0.12500000000E+03 0.  0.
          4    1    1    2  501    0 -0.26714591309E+03 -0.54991134967E+01 -0.33170797890E+03  0.42594290979E+03  0.00000000000E+00 0. -1.
         -4    1    1    2    0  503  0.12053957904E+03 -0.17438775588E+03 -0.85958749915E+02  0.22875704623E+03  0.00000000000E+00 0.  1.
<mgrwt>
<rscale>  4 0.79045166E+03</rscale>
<asrwt>0</asrwt>
<pdfrwt beam="1">  1       21 0.34112910E-01 0.79045166E+03</pdfrwt>
<pdfrwt beam="2">  1       21 0.10837900E+00 0.79045166E+03</pdfrwt>
<totfact> 0.45192577E+03</totfact>
</mgrwt>
</event>
<event>
 5    0  0.3372079E-003  0.5059724E+03  0.7546771E-02  0.1012232E+00
         21   -1    0    0  503  502  0.00000000000E+00  0.00000000000E+00  0.86900513367E+02  0.86900513367E+02  0.00000000000E+00 0.  1.
         21   -1    0    0  501  503 -0.00000000000E+00 -0.00000000000E+00 -0.73649744623E+03  0.73649744623E+03  0.00000000000E+00 0.  1.
         25    1    1    2    0    0  0.46039048760E+02  0.20248951031E+03 -0.49611714248E+03  0.55215832409E+03  0.12500000000E+03 0.  0.
          1    1    1    2  501    0 -0.67805324613E+02 -0.12376318714E+03 -0.10838122628E+03  0.17793644581E+03  0.00000000000E+00 0.  1.
         -1    1    1    2    0  502  0.21766275853E+02 -0.78726323167E+02 -0.45098564098E+02  0.93303189697E+02  0.00000000000E+00 0. -1.
<mgrwt>
<rscale>  4 0.50597236E+03</rscale>
<asrwt>0</asrwt>
<pdfrwt beam="1">  1       21 0.13369310E-01 0.50597236E+03</pdfrwt>
<pdfrwt beam="2">  1       21 0.11330730E+00 0.50597236E+03</pdfrwt>
<totfact> 0.26209215E+04</totfact>
</mgrwt>
</event>
<event>
 5    0  0.3372079E-003  0.8988965E+03  0.7546771E-02  0.9426962E-01
         21   -1    0    0  503  502  0.00000000000E+00  0.00000000000E+00  0.16774576698E+03  0.16774576698E+03  0.00000000000E+00 0.  1.
         21   -1    0    0  501  503 -0.00000000000E+00 -0.00000000000E+00 -0.12042254390E+04  0.12042254390E+04  0.00000000000E+00 0.  1.
         25    1    1    2    0    0 -0.34739113827E+02  0.23351821985E+03 -0.77748733415E+03  0.82210043170E+03  0.12500000000E+03 0.  0.
          3    1    1    2  501    0 -0.84248183672E+02 -0.29849392088E+03 -0.27350619193E+03  0.41352389808E+03  0.00000000000E+00 0. -1.
         -3    1    1    2    0  502  0.11898729750E+03  0.64975701034E+02  0.14513854059E+02  0.13634687620E+03  0.00000000000E+00 0.  1.
<mgrwt>
<rscale>  4 0.89889648E+03</rscale>
<asrwt>0</asrwt>
<pdfrwt beam="1">  1       21 0.25807041E-01 0.89889648E+03</pdfrwt>
<pdfrwt beam="2">  1       21 0.18526545E+00 0.89889648E+03</pdfrwt>
<totfact> 0.17879530E+03</totfact>
</mgrwt>
</event>
<event>
 5    0  0.3372079E-003  0.5249212E+03  0.7546771E-02  0.1007471E+00
         21   -1    0    0  501  502  0.00000000000E+00  0.00000000000E+00  0.35568669088E+03  0.35568669088E+03  0.00000000000E+00 0.  1.
         21   -1    0    0  502  503 -0.00000000000E+00 -0.00000000000E+00 -0.19366919609E+03  0.19366919609E+03  0.00000000000E+00 0.  1.
         25    1    1    2    0    0 -0.82015343007E+02  0.22547228341E+03  0.63270906440E+02  0.27783533734E+03  0.12500000000E+03 0.  0.
          1    1    1    2  501    0  0.61265121501E+02 -0.21291813199E+03  0.10681485740E+03  0.24596129737E+03  0.00000000000E+00 0. -1.
         -1    1    1    2    0  503  0.20750221506E+02 -0.12554151415E+02 -0.80682690547E+01  0.25559252255E+02  0.00000000000E+00 0.  1.
<mgrwt>
<rscale>  4 0.52492116E+03</rscale>
<asrwt>0</asrwt>
<pdfrwt beam="1">  1       21 0.54721030E-01 0.52492116E+03</pdfrwt>
<pdfrwt beam="2">  1       21 0.29795261E-01 0.52492116E+03</pdfrwt>
<totfact> 0.30556566E+04</totfact>
</mgrwt>
</event>
<event>
 5    0  0.3372079E-003  0.4987399E+03  0.7546771E-02  0.1014108E+00
         21   -1    0    0  501  502  0.00000000000E+00  0.00000000000E+00  0.37391385049E+03  0.37391385049E+03  0.00000000000E+00 0.  1.
         21   -1    0    0  502  503 -0.00000000000E+00 -0.00000000000E+00 -0.16630938637E+03  0.16630938637E+03  0.00000000000E+00 0.  1.
         25    1    1    2    0    0 -0.83649267065E+02  0.21195275961E+03  0.71307431357E+02  0.26950124667E+03  0.12500000000E+03 0.  0.
          1    1    1    2  501    0  0.89828674682E+02 -0.18759960900E+03  0.12816665949E+03  0.24431433993E+03  0.00000000000E+00 0.  1.
         -1    1    1    2    0  503 -0.61794076164E+01 -0.24353150616E+02  0.81303732757E+01  0.26407650274E+02  0.00000000000E+00 0. -1.
<mgrwt>
<rscale>  4 0.49873994E+03</rscale>
<asrwt>0</asrwt>
<pdfrwt beam="1">  1       21 0.57525208E-01 0.49873994E+03</pdfrwt>
<pdfrwt beam="2">  1       21 0.25586060E-01 0.49873994E+03</pdfrwt>
<totfact> 0.37222627E+04</totfact>
</mgrwt>
</event>
<event>
 5    0  0.3372079E-003  0.6308977E+03  0.7546771E-02  0.9843298E-01
         21   -1    0    0  503  502  0.00000000000E+00  0.00000000000E+00  0.10661938367E+03  0.10661938367E+03  0.00000000000E+00 0.  1.
         21   -1    0    0  501  503 -0.00000000000E+00 -0.00000000000E+00 -0.93330109937E+03  0.93330109937E+03  0.00000000000E+00 0.  1.
         25    1    1    2    0    0 -0.17004562142E+03  0.16813558732E+03 -0.72149985473E+03  0.77030651656E+03  0.12500000000E+03 0.  0.
          3    1    1    2  501    0  0.19782969845E+02 -0.34939207513E+01 -0.26452063863E+02  0.33215735137E+02  0.00000000000E+00 0. -1.
         -3    1    1    2    0  502  0.15026265158E+03 -0.16464166657E+03 -0.78729797113E+02  0.23639823135E+03  0.00000000000E+00 0.  1.
<mgrwt>
<rscale>  4 0.63089773E+03</rscale>
<asrwt>0</asrwt>
<pdfrwt beam="1">  1       21 0.16402982E-01 0.63089773E+03</pdfrwt>
<pdfrwt beam="2">  1       21 0.14358478E+00 0.63089773E+03</pdfrwt>
<totfact> 0.93988978E+03</totfact>
</mgrwt>
</event>
<event>
 5    0  0.3372079E-003  0.4944400E+03  0.7546771E-02  0.1015240E+00
         21   -1    0    0  501  502  0.00000000000E+00  0.00000000000E+00  0.14078320791E+03  0.14078320791E+03  0.00000000000E+00 0. -1.
         21   -1    0    0  502  503 -0.00000000000E+00 -0.00000000000E+00 -0.43412650710E+03  0.43412650710E+03  0.00000000000E+00 0. -1.
         25    1    1    2    0    0  0.12700988704E+03  0.16816964299E+03 -0.25846249439E+03  0.35614660076E+03  0.12500000000E+03 0.  0.
          4    1    1    2  501    0 -0.28601503448E+02 -0.74443238382E+02 -0.18620919232E+02  0.81893713882E+02  0.00000000000E+00 0.  1.
         -4    1    1    2    0  503 -0.98408383590E+02 -0.93726404604E+02 -0.16259885575E+02  0.13686940038E+03  0.00000000000E+00 0. -1.
<mgrwt>
<rscale>  4 0.49443998E+03</rscale>
<asrwt>0</asrwt>
<pdfrwt beam="1">  1       21 0.21658955E-01 0.49443998E+03</pdfrwt>
<pdfrwt beam="2">  1       21 0.66788695E-01 0.49443998E+03</pdfrwt>
<totfact> 0.36998606E+04</totfact>
</mgrwt>
</event>
<event>
 5    0  0.3372079E-003  0.5354628E+03  0.7546771E-02  0.1004916E+00
         21   -1    0    0  501  502  0.00000000000E+00  0.00000000000E+00  0.30653528857E+02  0.30653528857E+02  0.00000000000E+00 0.  1.
         21   -1    0    0  502  503 -0.00000000000E+00 -0.00000000000E+00 -0.23383967182E+04  0.23383967182E+04  0.00000000000E+00 0.  1.
         25    1    1    2    0    0 -0.21017000384E+03 -0.13275617018E+03 -0.12067712496E+04  0.12384334783E+04  0.12500000000E+03 0.  0.
          2    1    1    2  501    0  0.56796009814E+02  0.62053071277E+02 -0.46807736987E+03  0.47557627629E+03  0.00000000000E+00 0. -1.
         -2    1    1    2    0  503  0.15337399402E+03  0.70703098905E+02 -0.63289456981E+03  0.65504049243E+03  0.00000000000E+00 0.  1.
<mgrwt>
<rscale>  4 0.53546283E+03</rscale>
<asrwt>0</asrwt>
<pdfrwt beam="1">  1       21 0.47159272E-02 0.53546283E+03</pdfrwt>
<pdfrwt beam="2">  1       21 0.35975337E+00 0.53546283E+03</pdfrwt>
<totfact> 0.35414645E+03</totfact>
</mgrwt>
</event>
<event>
 5    0  0.3372079E-003  0.6991548E+03  0.7546771E-02  0.9718679E-01
         21   -1    0    0  503  502  0.00000000000E+00  0.00000000000E+00  0.74721969926E+03  0.74721969926E+03  0.00000000000E+00 0.  1.
         21   -1    0    0  501  503 -0.00000000000E+00 -0.00000000000E+00 -0.16354540634E+03  0.16354540634E+03  0.00000000000E+00 0.  1.
         25    1    1    2    0    0  0.52579278117E+02 -0.20429814892E+03  0.23627443546E+03  0.34051860888E+03  0.12500000000E+03 0.  0.
          2    1    1    2  501    0 -0.97064018301E+02  0.30519721560E+03  0.17324317001E+03  0.36411531143E+03  0.00000000000E+00 0. -1.
         -2    1    1    2    0  502  0.44484740183E+02 -0.10089906669E+03  0.17415668745E+03  0.20613118530E+03  0.00000000000E+00 0.  1.
<mgrwt>
<rscale>  4 0.69915477E+03</rscale>
<asrwt>0</asrwt>
<pdfrwt beam="1">  1       21 0.11495687E+00 0.69915477E+03</pdfrwt>
<pdfrwt beam="2">  1       21 0.25160832E-01 0.69915477E+03</pdfrwt>
<totfact> 0.72911664E+03</totfact>
</mgrwt>
</event>
<event>
 5    0  0.3372079E-003  0.5438619E+03  0.7546771E-02  0.1002925E+00
         21   -1    0    0  501  502  0.00000000000E+00  0.00000000000E+00  0.68754319826E+03  0.68754319826E+03  0.00000000000E+00 0. -1.
         21   -1    0    0  502  503 -0.00000000000E+00 -0.00000000000E+00 -0.10755170019E+03  0.10755170019E+03  0.00000000000E+00 0. -1.
         25    1    1    2    0    0 -0.12672837533E+03  0.15775044171E+03  0.17821232530E+03  0.29720349234E+03  0.12500000000E+03 0.  0.
          3    1    1    2  501    0  0.14229736845E+03 -0.35096336083E+02  0.31320476785E+03  0.34579982718E+03  0.00000000000E+00 0. -1.
         -3    1    1    2    0  503 -0.15568993122E+02 -0.12265410563E+03  0.88574404910E+02  0.15209157892E+03  0.00000000000E+00 0.  1.
<mgrwt>
<rscale>  4 0.54386189E+03</rscale>
<asrwt>0</asrwt>
<pdfrwt beam="1">  1       21 0.10577587E+00 0.54386189E+03</pdfrwt>
<pdfrwt beam="2">  1       21 0.16546416E-01 0.54386189E+03</pdfrwt>
<totfact> 0.20745314E+04</totfact>
</mgrwt>
</event>
<event>
 5    0  0.3372079E-003  0.8626993E+03  0.7546771E-02  0.9473449E-01
         21   -1    0    0  501  502  0.00000000000E+00  0.00000000000E+00  0.60444136252E+03  0.60444136252E+03  0.00000000000E+00 0. -1.
         21   -1    0    0  502  503 -0.00000000000E+00 -0.00000000000E+00 -0.30782556966E+03  0.30782556966E+03  0.00000000000E+00 0. -1.
         25    1    1    2    0    0  0.21605495490E+03 -0.12978498510E+02 -0.21832244576E+03  0.33187026876E+03  0.12500000000E+03 0.  0.
          2    1    1    2  501    0 -0.62834680224E+02 -0.41867997975E+02  0.30806714820E+03  0.31718526778E+03  0.00000000000E+00 0.  1.
         -2    1    1    2    0  503 -0.15322027468E+03  0.54846496485E+02  0.20687109042E+03  0.26321139565E+03  0.00000000000E+00 0. -1.
<mgrwt>
<rscale>  4 0.86269927E+03</rscale>
<asrwt>0</asrwt>
<pdfrwt beam="1">  1       21 0.92990979E-01 0.86269927E+03</pdfrwt>
<pdfrwt beam="2">  1       21 0.47357780E-01 0.86269927E+03</pdfrwt>
<totfact> 0.32824184E+03</totfact>
</mgrwt>
</event>
<event>
 5    0  0.3372079E-003  0.6906678E+03  0.7546771E-02  0.9733326E-01
         21   -1    0    0  503  502  0.00000000000E+00  0.00000000000E+00  0.98074608019E+02  0.98074608019E+02  0.00000000000E+00 0.  1.
         21   -1    0    0  501  503 -0.00000000000E+00 -0.00000000000E+00 -0.12159672126E+04  0.12159672126E+04  0.00000000000E+00 0.  1.
         25    1    1    2    0    0  0.20112295759E+03  0.16319829868E+02 -0.99404731669E+02  0.25733845728E+03  0.12500000000E+03 0.  0.
          1    1    1    2  501    0 -0.43290209373E+02  0.24154609941E+02 -0.67188497502E+03  0.67371129355E+03  0.00000000000E+00 0. -1.
         -1    1    1    2    0  502 -0.15783274822E+03 -0.40474439809E+02 -0.34660289786E+03  0.38299206975E+03  0.00000000000E+00 0.  1.
<mgrwt>
<rscale>  4 0.69066782E+03</rscale>
<asrwt>0</asrwt>
<pdfrwt beam="1">  1       21 0.15088401E-01 0.69066782E+03</pdfrwt>
<pdfrwt beam="2">  1       21 0.18707188E+00 0.69066782E+03</pdfrwt>
<totfact> 0.50980305E+03</totfact>
</mgrwt>
</event>
<event>
 5    0  0.3372079E-003  0.5254322E+03  0.7546771E-02  0.1007346E+00
         21   -1    0    0  503  502  0.00000000000E+00  0.00000000000E+00  0.77915971411E+03  0.77915971411E+03  0.00000000000E+00 0.  1.
         21   -1    0    0  501  503 -0.00000000000E+00 -0.00000000000E+00 -0.88582277087E+02  0.88582277087E+02  0.00000000000E+00 0.  1.
         25    1    1    2    0    0  0.19214563693E+03 -0.66173413791E+02  0.58164723196E+03  0.62867906672E+03  0.12500000000E+03 0.  0.
          3    1    1    2  501    0 -0.79492394091E+02 -0.24496915306E+01  0.28045839419E+02  0.84330367103E+02  0.00000000000E+00 0. -1.
         -3    1    1    2    0  502 -0.11265324284E+03  0.68623105322E+02  0.80884365646E+02  0.15473255738E+03  0.00000000000E+00 0.  1.
<mgrwt>
<rscale>  4 0.52543217E+03</rscale>
<asrwt>0</asrwt>
<pdfrwt beam="1">  1       21 0.11987072E+00 0.52543217E+03</pdfrwt>
<pdfrwt beam="2">  1       21 0.13628043E-01 0.52543217E+03</pdfrwt>
<totfact> 0.21850471E+04</totfact>
</mgrwt>
</event>
<event>
 5    0  0.3372079E-003  0.6328361E+03  0.7546771E-02  0.9839530E-01
         21   -1    0    0  501  502  0.00000000000E+00  0.00000000000E+00  0.83478135266E+02  0.83478135266E+02  0.00000000000E+00 0. -1.
         21   -1    0    0  502  503 -0.00000000000E+00 -0.00000000000E+00 -0.11993607210E+04  0.11993607210E+04  0.00000000000E+00 0. -1.
         25    1    1    2    0    0  0.12460580650E+03 -0.22923675280E+03 -0.66723683990E+03  0.72725930477E+03  0.12500000000E+03 0.  0.
          4    1    1    2  501    0 -0.41653593566E+01  0.15444524781E+03 -0.35080998856E+03  0.38332536162E+03  0.00000000000E+00 0.  1.
         -4    1    1    2    0  503 -0.12044044714E+03  0.74791504989E+02 -0.97835757261E+02  0.17225418986E+03  0.00000000000E+00 0. -1.
<mgrwt>
<rscale>  4 0.63283614E+03</rscale>
<asrwt>0</asrwt>
<pdfrwt beam="1">  1       21 0.12842791E-01 0.63283614E+03</pdfrwt>
<pdfrwt beam="2">  1       21 0.18451702E+00 0.63283614E+03</pdfrwt>
<totfact> 0.72691974E+03</totfact>
</mgrwt>
</event>
<event>
 5    0  0.3372079E-003  0.5244417E+03  0.7546771E-02  0.1007589E+00
         21   -1    0    0  501  502  0.00000000000E+00  0.00000000000E+00  0.24919267512E+03  0.24919267512E+03  0.00000000000E+00 0.  1.
         21   -1    0    0  502  503 -0.00000000000E+00 -0.00000000000E+00 -0.27593017482E+03  0.27593017482E+03  0.00000000000E+00 0.  1.
         25    1    1    2    0    0 -0.13812854851E+03  0.16552719274E+03 -0.72765251793E+02  0.25961226727E+03  0.12500000000E+03 0.  0.
          3    1    1    2  501    0 -0.25103390334E+02 -0.62907521156E+02  0.21973384123E+02  0.71206502751E+02  0.00000000000E+00 0. -1.
         -3    1    1    2    0  503  0.16323193885E+03 -0.10261967158E+03  0.24054367966E+02  0.19430407992E+03  0.00000000000E+00 0.  1.
<mgrwt>
<rscale>  4 0.52444172E+03</rscale>
<asrwt>0</asrwt>
<pdfrwt beam="1">  1       21 0.38337335E-01 0.52444172E+03</pdfrwt>
<pdfrwt beam="2">  1       21 0.42450796E-01 0.52444172E+03</pdfrwt>
<totfact> 0.31471575E+04</totfact>
</mgrwt>
</event>
<event>
 5    0  0.3372079E-003  0.5425383E+03  0.7546771E-02  0.1003236E+00
         21   -1    0    0  501  502  0.00000000000E+00  0.00000000000E+00  0.10036499670E+03  0.10036499670E+03  0.00000000000E+00 0.  1.
         21   -1    0    0  502  503 -0.00000000000E+00 -0.00000000000E+00 -0.73319346918E+03  0.73319346918E+03  0.00000000000E+00 0.  1.
         25    1    1    2    0    0 -0.24988687965E+03 -0.89720461788E+01 -0.32633009142E+03  0.42969789247E+03  0.12500000000E+03 0.  0.
          2    1    1    2  501    0  0.67026335176E+02 -0.32487544545E+02 -0.71752232483E+02  0.10342317450E+03  0.00000000000E+00 0. -1.
         -2    1    1    2    0  503  0.18286054447E+03  0.41459590724E+02 -0.23474614858E+03  0.30043739891E+03  0.00000000000E+00 0.  1.
<mgrwt>
<rscale>  4 0.54253833E+03</rscale>
<asrwt>0</asrwt>
<pdfrwt beam="1">  1       21 0.15440769E-01 0.54253833E+03</pdfrwt>
<pdfrwt beam="2">  1       21 0.11279899E+00 0.54253833E+03</pdfrwt>
<totfact> 0.20124259E+04</totfact>
</mgrwt>
</event>
<event>
 5    0  0.3372079E-003  0.4592414E+03  0.7546771E-02  0.1025001E+00
         21   -1    0    0  503  502  0.00000000000E+00  0.00000000000E+00  0.97742477546E+02  0.97742477546E+02  0.00000000000E+00 0. -1.
         21   -1    0    0  501  503 -0.00000000000E+00 -0.00000000000E+00 -0.53943457802E+03  0.53943457802E+03  0.00000000000E+00 0. -1.
         25    1    1    2    0    0 -0.55388612046E+02  0.19402741575E+03 -0.15547189686E+03  0.28374468650E+03  0.12500000000E+03 0.  0.
          3    1    1    2  501    0  0.35125363571E+02 -0.17811713155E+03 -0.25277380079E+03  0.31121391049E+03  0.00000000000E+00 0. -1.
         -3    1    1    2    0  502  0.20263248474E+02 -0.15910284204E+02 -0.33446402827E+02  0.42218458573E+02  0.00000000000E+00 0.  1.
<mgrwt>
<rscale>  4 0.45924143E+03</rscale>
<asrwt>0</asrwt>
<pdfrwt beam="1">  1       21 0.15037304E-01 0.45924143E+03</pdfrwt>
<pdfrwt beam="2">  1       21 0.82989934E-01 0.45924143E+03</pdfrwt>
<totfact> 0.45230170E+04</totfact>
</mgrwt>
</event>
<event>
 5    0  0.3372079E-003  0.5666064E+03  0.7546771E-02  0.9977216E-01
         21   -1    0    0  503  502  0.00000000000E+00  0.00000000000E+00  0.14267736387E+04  0.14267736387E+04  0.00000000000E+00 0.  1.
         21   -1    0    0  501  503 -0.00000000000E+00 -0.00000000000E+00 -0.56253294182E+02  0.56253294182E+02  0.00000000000E+00 0.  1.
         25    1    1    2    0    0 -0.17137441878E+03 -0.14390257562E+03  0.93021103562E+03  0.96488067317E+03  0.12500000000E+03 0.  0.
          4    1    1    2  501    0  0.83775695214E+01  0.51225377102E+02  0.16098998111E+02  0.54345199149E+02  0.00000000000E+00 0. -1.
         -4    1    1    2    0  502  0.16299684926E+03  0.92677198519E+02  0.42421031079E+03  0.46380106056E+03  0.00000000000E+00 0.  1.
<mgrwt>
<rscale>  4 0.56660645E+03</rscale>
<asrwt>0</asrwt>
<pdfrwt beam="1">  1       21 0.21950361E+00 0.56660645E+03</pdfrwt>
<pdfrwt beam="2">  1       21 0.86543541E-02 0.56660645E+03</pdfrwt>
<totfact> 0.88137142E+03</totfact>
</mgrwt>
</event>
<event>
 5    0  0.3372079E-003  0.5318523E+03  0.7546771E-02  0.1005784E+00
         21   -1    0    0  503  502  0.00000000000E+00  0.00000000000E+00  0.67257476125E+03  0.67257476125E+03  0.00000000000E+00 0.  1.
         21   -1    0    0  501  503 -0.00000000000E+00 -0.00000000000E+00 -0.10514327742E+03  0.10514327742E+03  0.00000000000E+00 0.  1.
         25    1    1    2    0    0 -0.21454938933E+03  0.12070681592E+03  0.34437675269E+03  0.44138636552E+03  0.12500000000E+03 0.  0.
          1    1    1    2  501    0  0.29382409161E+02  0.18996320232E+01  0.21909360329E+02  0.36700880643E+02  0.00000000000E+00 0. -1.
         -1    1    1    2    0  502  0.18516698017E+03 -0.12260644794E+03  0.20114537081E+03  0.29963079251E+03  0.00000000000E+00 0.  1.
<mgrwt>
<rscale>  4 0.53185229E+03</rscale>
<asrwt>0</asrwt>
<pdfrwt beam="1">  1       21 0.10347304E+00 0.53185229E+03</pdfrwt>
<pdfrwt beam="2">  1       21 0.16175889E-01 0.53185229E+03</pdfrwt>
<totfact> 0.22916073E+04</totfact>
</mgrwt>
</event>
<event>
 5    0  0.3372079E-003  0.8043576E+03  0.7546771E-02  0.9553731E-01
         21   -1    0    0  501  502  0.00000000000E+00  0.00000000000E+00  0.51353578744E+03  0.51353578744E+03  0.00000000000E+00 0. -1.
         21   -1    0    0  502  503 -0.00000000000E+00 -0.00000000000E+00 -0.31496884852E+03  0.31496884852E+03  0.00000000000E+00 0. -1.
         25    1    1    2    0    0 -0.27449100020E+03 -0.21330286412E+03  0.20556854734E+02  0.36998784482E+03  0.12500000000E+03 0.  0.
          2    1    1    2  501    0  0.25061757664E+03  0.26438818194E+03  0.13882259091E+03  0.38984867861E+03  0.00000000000E+00 0. -1.
         -2    1    1    2    0  503  0.23873423567E+02 -0.51085317817E+02  0.39187493279E+02  0.68668112532E+02  0.00000000000E+00 0.  1.
<mgrwt>
<rscale>  4 0.80435757E+03</rscale>
<asrwt>0</asrwt>
<pdfrwt beam="1">  1       21 0.79005506E-01 0.80435757E+03</pdfrwt>
<pdfrwt beam="2">  1       21 0.48456746E-01 0.80435757E+03</pdfrwt>
<totfact> 0.46530617E+03</totfact>
</mgrwt>
</event>
<event>
 5    0  0.3372079E-003  0.4637165E+03  0.7546771E-02  0.1023709E+00
         21   -1    0    0  503  502  0.00000000000E+00  0.00000000000E+00  0.17941613989E+03  0.17941613989E+03  0.00000000000E+00 0.  1.
         21   -1    0    0  501  503 -0.00000000000E+00 -0.00000000000E+00 -0.29962879066E+03  0.29962879066E+03  0.00000000000E+00 0.  1.
         25    1    1    2    0    0  0.12893105069E+03 -0.16053834145E+03 -0.42748674234E+02  0.24463896676E+03  0.12500000000E+03 0.  0.
          4    1    1    2  501    0  0.77174142532E+01  0.33912659184E+02 -0.15459758700E+02  0.38060886416E+02  0.00000000000E+00 0. -1.
         -4    1    1    2    0  502 -0.13664846494E+03  0.12662568227E+03 -0.62004217832E+02  0.19634507738E+03  0.00000000000E+00 0.  1.
<mgrwt>
<rscale>  4 0.46371647E+03</rscale>
<asrwt>0</asrwt>
<pdfrwt beam="1">  1       21 0.27602483E-01 0.46371647E+03</pdfrwt>
<pdfrwt beam="2">  1       21 0.46096736E-01 0.46371647E+03</pdfrwt>
<totfact> 0.51908491E+04</totfact>
</mgrwt>
</event>
<event>
 5    0  0.3372079E-003  0.6980416E+03  0.7546771E-02  0.9720587E-01
         21   -1    0    0  503  502  0.00000000000E+00  0.00000000000E+00  0.17508408928E+04  0.17508408928E+04  0.00000000000E+00 0.  1.
         21   -1    0    0  501  503 -0.00000000000E+00 -0.00000000000E+00 -0.69575435127E+02  0.69575435127E+02  0.00000000000E+00 0.  1.
         25    1    1    2    0    0  0.27389882162E+03 -0.15176403379E+03  0.54840991095E+03  0.64376340131E+03  0.12500000000E+03 0.  0.
          1    1    1    2  501    0 -0.23548824934E+03  0.15071799977E+03  0.10008656771E+04  0.10391836867E+04  0.00000000000E+00 0.  1.
         -1    1    1    2    0  502 -0.38410572283E+02  0.10460340179E+01  0.13198986961E+03  0.13746923994E+03  0.00000000000E+00 0. -1.
<mgrwt>
<rscale>  4 0.69804159E+03</rscale>
<asrwt>0</asrwt>
<pdfrwt beam="1">  1       21 0.26936010E+00 0.69804159E+03</pdfrwt>
<pdfrwt beam="2">  1       21 0.10703914E-01 0.69804159E+03</pdfrwt>
<totfact> 0.28076782E+03</totfact>
</mgrwt>
</event>
<event>
 5    0  0.3372079E-003  0.8283875E+03  0.7546771E-02  0.9519813E-01
         21   -1    0    0  501  502  0.00000000000E+00  0.00000000000E+00  0.45482393282E+03  0.45482393282E+03  0.00000000000E+00 0.  1.
         21   -1    0    0  502  503 -0.00000000000E+00 -0.00000000000E+00 -0.37719310525E+03  0.37719310525E+03  0.00000000000E+00 0.  1.
         25    1    1    2    0    0 -0.26689408837E+03 -0.14758918449E+03  0.24175612769E+03  0.40876160175E+03  0.12500000000E+03 0.  0.
          4    1    1    2  501    0  0.19517357345E+03  0.21350863281E+03 -0.97598586812E+02  0.30529353777E+03  0.00000000000E+00 0. -1.
         -4    1    1    2    0  503  0.71720514919E+02 -0.65919448320E+02 -0.66526713312E+02  0.11796189856E+03  0.00000000000E+00 0.  1.
<mgrwt>
<rscale>  4 0.82838747E+03</rscale>
<asrwt>0</asrwt>
<pdfrwt beam="1">  1       21 0.69972912E-01 0.82838747E+03</pdfrwt>
<pdfrwt beam="2">  1       21 0.58029709E-01 0.82838747E+03</pdfrwt>
<totfact> 0.41438100E+03</totfact>
</mgrwt>
</event>
<event>
 5    0  0.3372079E-003  0.5912998E+03  0.7546771E-02  0.9923622E-01
         21   -1    0    0  503  502  0.00000000000E+00  0.00000000000E+00  0.10439702379E+03  0.10439702379E+03  0.00000000000E+00 0. -1.
         21   -1    0    0  501  503 -0.00000000000E+00 -0.00000000000E+00 -0.83727353780E+03  0.83727353780E+03  0.00000000000E+00 0. -1.
         25    1    1    2    0    0 -0.17089032773E+03  0.13389832794E+03 -0.63932935755E+03  0.68665806175E+03  0.12500000000E+03 0.  0.
          4    1    1    2  501    0  0.11416160143E+03 -0.37087133179E+02 -0.74290515835E+02  0.14116446944E+03  0.00000000000E+00 0. -1.
         -4    1    1    2    0  502  0.56728726295E+02 -0.96811194765E+02 -0.19256640617E+02  0.11384803040E+03  0.00000000000E+00 0.  1.
<mgrwt>
<rscale>  4 0.59129981E+03</rscale>
<asrwt>0</asrwt>
<pdfrwt beam="1">  1       21 0.16061080E-01 0.59129981E+03</pdfrwt>
<pdfrwt beam="2">  1       21 0.12881132E+00 0.59129981E+03</pdfrwt>
<totfact> 0.13164304E+04</totfact>
</mgrwt>
</event>
<event>
 5    0  0.3372079E-003  0.8906396E+03  0.7546771E-02  0.9437359E-01
         21   -1    0    0  501  502  0.00000000000E+00  0.00000000000E+00  0.18332414847E+03  0.18332414847E+03  0.00000000000E+00 0. -1.
         21   -1    0    0  502  503 -0.00000000000E+00 -0.00000000000E+00 -0.10817437098E+04  0.10817437098E+04  0.00000000000E+00 0. -1.
         25    1    1    2    0    0 -0.86597790947E+02  0.40167757958E+03 -0.50692871150E+03  0.66441385738E+03  0.12500000000E+03 0.  0.
          2    1    1    2  501    0  0.40820368676E+02 -0.34422037977E+03 -0.21104047282E+03  0.40582268728E+03  0.00000000000E+00 0. -1.
         -2    1    1    2    0  503  0.45777422271E+02 -0.57457199815E+02 -0.18045037700E+03  0.19483131360E+03  0.00000000000E+00 0.  1.
<mgrwt>
<rscale>  4 0.89063965E+03</rscale>
<asrwt>0</asrwt>
<pdfrwt beam="1">  1       21 0.28203715E-01 0.89063965E+03</pdfrwt>
<pdfrwt beam="2">  1       21 0.16642211E+00 0.89063965E+03</pdfrwt>
<totfact> 0.20621561E+03</totfact>
</mgrwt>
</event>
<event>
 5    0  0.3372079E-003  0.5126938E+03  0.7546771E-02  0.1010518E+00
         21   -1    0    0  501  502  0.00000000000E+00  0.00000000000E+00  0.12646722796E+03  0.12646722796E+03  0.00000000000E+00 0. -1.
         21   -1    0    0  502  503 -0.00000000000E+00 -0.00000000000E+00 -0.51961066835E+03  0.51961066835E+03  0.00000000000E+00 0. -1.
         25    1    1    2    0    0 -0.19414496435E+03  0.11500230276E+03 -0.11421583479E+03  0.28211354760E+03  0.12500000000E+03 0.  0.
          3    1    1    2  501    0  0.99746625935E+02 -0.88551083492E+02 -0.18603430819E+03  0.22890925625E+03  0.00000000000E+00 0. -1.
         -3    1    1    2    0  503  0.94398338412E+02 -0.26451219265E+02 -0.92893297413E+02  0.13505509246E+03  0.00000000000E+00 0.  1.
<mgrwt>
<rscale>  4 0.51269375E+03</rscale>
<asrwt>0</asrwt>
<pdfrwt beam="1">  1       21 0.19456497E-01 0.51269375E+03</pdfrwt>
<pdfrwt beam="2">  1       21 0.79940102E-01 0.51269375E+03</pdfrwt>
<totfact> 0.30053270E+04</totfact>
</mgrwt>
</event>
<event>
 5    0  0.3372079E-003  0.5278936E+03  0.7546771E-02  0.1006744E+00
         21   -1    0    0  501  502  0.00000000000E+00  0.00000000000E+00  0.93669504126E+02  0.93669504126E+02  0.00000000000E+00 0. -1.
         21   -1    0    0  502  503 -0.00000000000E+00 -0.00000000000E+00 -0.74376290047E+03  0.74376290047E+03  0.00000000000E+00 0. -1.
         25    1    1    2    0    0  0.14704226021E+03  0.17567961467E+03 -0.19798150372E+03  0.32757660037E+03  0.12500000000E+03 0.  0.
          4    1    1    2  501    0 -0.99778328368E+02 -0.88312536321E+02 -0.21733286458E+03  0.25492821129E+03  0.00000000000E+00 0. -1.
         -4    1    1    2    0  503 -0.47263931837E+02 -0.87367078346E+02 -0.23477902804E+03  0.25492759293E+03  0.00000000000E+00 0.  1.
<mgrwt>
<rscale>  4 0.52789356E+03</rscale>
<asrwt>0</asrwt>
<pdfrwt beam="1">  1       21 0.14410693E-01 0.52789356E+03</pdfrwt>
<pdfrwt beam="2">  1       21 0.11442506E+00 0.52789356E+03</pdfrwt>
<totfact> 0.22149610E+04</totfact>
</mgrwt>
</event>
<event>
 5    0  0.3372079E-003  0.8698759E+03  0.7546771E-02  0.9464042E-01
         21   -1    0    0  503  502  0.00000000000E+00  0.00000000000E+00  0.16232216049E+03  0.16232216049E+03  0.00000000000E+00 0. -1.
         21   -1    0    0  501  503 -0.00000000000E+00 -0.00000000000E+00 -0.11654047230E+04  0.11654047230E+04  0.00000000000E+00 0. -1.
         25    1    1    2    0    0 -0.14061998423E+03  0.38424449896E+03 -0.36093357754E+03  0.55974624817E+03  0.12500000000E+03 0.  0.
          4    1    1    2  501    0  0.19823189859E+02 -0.38256589701E+01 -0.49487367421E+02  0.53447114581E+02  0.00000000000E+00 0.  1.
         -4    1    1    2    0  502  0.12079679437E+03 -0.38041883999E+03 -0.59266161760E+03  0.71453352078E+03  0.00000000000E+00 0. -1.
<mgrwt>
<rscale>  4 0.86987588E+03</rscale>
<asrwt>0</asrwt>
<pdfrwt beam="1">  1       21 0.24972641E-01 0.86987588E+03</pdfrwt>
<pdfrwt beam="2">  1       21 0.17929303E+00 0.86987588E+03</pdfrwt>
<totfact> 0.21177992E+03</totfact>
</mgrwt>
</event>
<event>
 5    0  0.3372079E-003  0.4756369E+03  0.7546771E-02  0.1020341E+00
         21   -1    0    0  501  502  0.00000000000E+00  0.00000000000E+00  0.78225138463E+03  0.78225138463E+03  0.00000000000E+00 0.  1.
         21   -1    0    0  502  503 -0.00000000000E+00 -0.00000000000E+00 -0.72301084303E+02  0.72301084303E+02  0.00000000000E+00 0.  1.
         25    1    1    2    0    0 -0.37662185731E+02  0.20324599652E+03  0.40929701063E+03  0.47526457710E+03  0.12500000000E+03 0.  0.
          2    1    1    2  501    0 -0.22779864640E+02 -0.13405168956E+03  0.14686123755E+03  0.20014245127E+03  0.00000000000E+00 0.  1.
         -2    1    1    2    0  503  0.60442050371E+02 -0.69194306960E+02  0.15379205215E+03  0.17914544056E+03  0.00000000000E+00 0. -1.
<mgrwt>
<rscale>  4 0.47563693E+03</rscale>
<asrwt>0</asrwt>
<pdfrwt beam="1">  1       21 0.12034636E+00 0.47563693E+03</pdfrwt>
<pdfrwt beam="2">  1       21 0.11123244E-01 0.47563693E+03</pdfrwt>
<totfact> 0.31738336E+04</totfact>
</mgrwt>
</event>
<event>
 5    0  0.3372079E-003  0.8138522E+03  0.7546771E-02  0.9540180E-01
         21   -1    0    0  503  502  0.00000000000E+00  0.00000000000E+00  0.25446038439E+03  0.25446038439E+03  0.00000000000E+00 0. -1.
         21   -1    0    0  501  503 -0.00000000000E+00 -0.00000000000E+00 -0.65074517441E+03  0.65074517441E+03  0.00000000000E+00 0. -1.
         25    1    1    2    0    0  0.22453049939E+03 -0.10965384690E+02  0.44999513687E+02  0.26112093185E+03  0.12500000000E+03 0.  0.
          3    1    1    2  501    0  0.56630518427E+02  0.13328373365E+03 -0.65107712640E+02  0.15877841011E+03  0.00000000000E+00 0. -1.
         -3    1    1    2    0  502 -0.28116101782E+03 -0.12231834896E+03 -0.37617659106E+03  0.48530621683E+03  0.00000000000E+00 0.  1.
<mgrwt>
<rscale>  4 0.81385224E+03</rscale>
<asrwt>0</asrwt>
<pdfrwt beam="1">  1       21 0.39147751E-01 0.81385224E+03</pdfrwt>
<pdfrwt beam="2">  1       21 0.10011464E+00 0.81385224E+03</pdfrwt>
<totfact> 0.41307827E+03</totfact>
</mgrwt>
</event>
<event>
 5    0  0.3372079E-003  0.5064827E+03  0.7546771E-02  0.1012101E+00
         21   -1    0    0  503  502  0.00000000000E+00  0.00000000000E+00  0.54431948439E+02  0.54431948439E+02  0.00000000000E+00 0.  1.
         21   -1    0    0  501  503 -0.00000000000E+00 -0.00000000000E+00 -0.11781899491E+04  0.11781899491E+04  0.00000000000E+00 0.  1.
         25    1    1    2    0    0  0.81895911894E+02  0.19453767234E+03 -0.37119759617E+03  0.44493201924E+03  0.12500000000E+03 0.  0.
          1    1    1    2  501    0 -0.38005731233E+02 -0.15742929401E+03 -0.65249202886E+03  0.67229031373E+03  0.00000000000E+00 0.  1.
         -1    1    1    2    0  502 -0.43890180661E+02 -0.37108378331E+02 -0.10006837568E+03  0.11539956461E+03  0.00000000000E+00 0. -1.
<mgrwt>
<rscale>  4 0.50648267E+03</rscale>
<asrwt>0</asrwt>
<pdfrwt beam="1">  1       21 0.83741454E-02 0.50648267E+03</pdfrwt>
<pdfrwt beam="2">  1       21 0.18126000E+00 0.50648267E+03</pdfrwt>
<totfact> 0.17195414E+04</totfact>
</mgrwt>
</event>
<event>
 5    0  0.3372079E-003  0.5691727E+03  0.7546771E-02  0.9971511E-01
         21   -1    0    0  503  502  0.00000000000E+00  0.00000000000E+00  0.84944479785E+03  0.84944479785E+03  0.00000000000E+00 0.  1.
         21   -1    0    0  501  503 -0.00000000000E+00 -0.00000000000E+00 -0.95343897189E+02  0.95343897189E+02  0.00000000000E+00 0.  1.
         25    1    1    2    0    0  0.13450796203E+03  0.20303796301E+03  0.30427997513E+03  0.40930197842E+03  0.12500000000E+03 0.  0.
          2    1    1    2  501    0 -0.26617044559E+02  0.25904434126E+02  0.49817880749E+02  0.62139584894E+02  0.00000000000E+00 0. -1.
         -2    1    1    2    0  502 -0.10789091747E+03 -0.22894239713E+03  0.40000304478E+03  0.47334713172E+03  0.00000000000E+00 0.  1.
<mgrwt>
<rscale>  4 0.56917265E+03</rscale>
<asrwt>0</asrwt>
<pdfrwt beam="1">  1       21 0.13068381E+00 0.56917265E+03</pdfrwt>
<pdfrwt beam="2">  1       21 0.14668292E-01 0.56917265E+03</pdfrwt>
<totfact> 0.15094252E+04</totfact>
</mgrwt>
</event>
<event>
 5    0  0.3372079E-003  0.6191339E+03  0.7546771E-02  0.9866486E-01
         21   -1    0    0  501  502  0.00000000000E+00  0.00000000000E+00  0.23337153663E+03  0.23337153663E+03  0.00000000000E+00 0. -1.
         21   -1    0    0  502  503 -0.00000000000E+00 -0.00000000000E+00 -0.41063997805E+03  0.41063997805E+03  0.00000000000E+00 0. -1.
         25    1    1    2    0    0 -0.23850691800E+03  0.43593656564E+02 -0.24944066674E+03  0.36963712347E+03  0.12500000000E+03 0.  0.
          3    1    1    2  501    0  0.17680413409E+03  0.73914907151E+01  0.18323557302E+02  0.17790471809E+03  0.00000000000E+00 0. -1.
         -3    1    1    2    0  503  0.61702783910E+02 -0.50985147279E+02  0.53848668013E+02  0.96469673121E+02  0.00000000000E+00 0.  1.
<mgrwt>
<rscale>  4 0.61913386E+03</rscale>
<asrwt>0</asrwt>
<pdfrwt beam="1">  1       21 0.35903313E-01 0.61913386E+03</pdfrwt>
<pdfrwt beam="2">  1       21 0.63175381E-01 0.61913386E+03</pdfrwt>
<totfact> 0.15015990E+04</totfact>
</mgrwt>
</event>
<event>
 5    0  0.3372079E-003  0.6065727E+03  0.7546771E-02  0.9891863E-01
         21   -1    0    0  501  502  0.00000000000E+00  0.00000000000E+00  0.92041701135E+02  0.92041701135E+02  0.00000000000E+00 0.  1.
         21   -1    0    0  502  503 -0.00000000000E+00 -0.00000000000E+00 -0.99935813124E+03  0.99935813124E+03  0.00000000000E+00 0.  1.
         25    1    1    2    0    0  0.22603395553E+03  0.10924922658E+03 -0.43678610566E+03  0.51907017316E+03  0.12500000000E+03 0.  0.
          1    1    1    2  501    0 -0.16720345306E+03 -0.15382399645E+03 -0.24093751149E+03  0.33116416026E+03  0.00000000000E+00 0.  1.
         -1    1    1    2    0  503 -0.58830502464E+02  0.44574769863E+02 -0.22959281295E+03  0.24116549896E+03  0.00000000000E+00 0. -1.
<mgrwt>
<rscale>  4 0.60657274E+03</rscale>
<asrwt>0</asrwt>
<pdfrwt beam="1">  1       21 0.14160260E-01 0.60657274E+03</pdfrwt>
<pdfrwt beam="2">  1       21 0.15374742E+00 0.60657274E+03</pdfrwt>
<totfact> 0.10317509E+04</totfact>
</mgrwt>
</event>
<event>
 5    0  0.3372079E-003  0.5584595E+03  0.7546771E-02  0.9995546E-01
         21   -1    0    0  503  502  0.00000000000E+00  0.00000000000E+00  0.93970546337E+03  0.93970546337E+03  0.00000000000E+00 0. -1.
         21   -1    0    0  501  503 -0.00000000000E+00 -0.00000000000E+00 -0.82972007282E+02  0.82972007282E+02  0.00000000000E+00 0. -1.
         25    1    1    2    0    0  0.22955191807E+03 -0.60068487727E+02  0.33029561890E+03  0.42546739260E+03  0.12500000000E+03 0.  0.
          3    1    1    2  501    0 -0.19701934481E+03  0.93925050290E+02  0.49420790878E+03  0.54025919187E+03  0.00000000000E+00 0. -1.
         -3    1    1    2    0  502 -0.32532573252E+02 -0.33856562564E+02  0.32229928415E+02  0.56950886180E+02  0.00000000000E+00 0.  1.
<mgrwt>
<rscale>  4 0.55845948E+03</rscale>
<asrwt>0</asrwt>
<pdfrwt beam="1">  1       21 0.14457006E+00 0.55845948E+03</pdfrwt>
<pdfrwt beam="2">  1       21 0.12764925E-01 0.55845948E+03</pdfrwt>
<totfact> 0.14959213E+04</totfact>
</mgrwt>
</event>
<event>
 5    0  0.3372079E-003  0.6125577E+03  0.7546771E-02  0.9879690E-01
         21   -1    0    0  501  502  0.00000000000E+00  0.00000000000E+00  0.13991145192E+04  0.13991145192E+04  0.00000000000E+00 0. -1.
         21   -1    0    0  502  503 -0.00000000000E+00 -0.00000000000E+00 -0.67047222014E+02  0.67047222014E+02  0.00000000000E+00 0. -1.
         25    1    1    2    0    0 -0.23200058595E+03  0.12481851337E+03  0.40400589293E+03  0.49824662034E+03  0.12500000000E+03 0.  0.
          1    1    1    2  501    0  0.38382119262E+02 -0.58912404992E+02  0.24507903920E+03  0.25496586830E+03  0.00000000000E+00 0.  1.
         -1    1    1    2    0  503  0.19361846669E+03 -0.65906108382E+02  0.68298236506E+03  0.71294925258E+03  0.00000000000E+00 0. -1.
<mgrwt>
<rscale>  4 0.61255773E+03</rscale>
<asrwt>0</asrwt>
<pdfrwt beam="1">  1       21 0.21524837E+00 0.61255773E+03</pdfrwt>
<pdfrwt beam="2">  1       21 0.10314958E-01 0.61255773E+03</pdfrwt>
<totfact> 0.67576895E+03</totfact>
</mgrwt>
</event>
<event>
 5    0  0.3372079E-003  0.8325230E+03  0.7546771E-02  0.9514099E-01
         21   -1    0    0  503  502  0.00000000000E+00  0.00000000000E+00  0.16543625063E+03  0.16543625063E+03  0.00000000000E+00 0.  1.
         21   -1    0    0  501  503 -0.00000000000E+00 -0.00000000000E+00 -0.10473739422E+04  0.10473739422E+04  0.00000000000E+00 0.  1.
         25    1    1    2    0    0  0.35342623247E+03  0.18734203284E+03 -0.53922456003E+03  0.68293137664E+03  0.12500000000E+03 0.  0.
          1    1    1    2  501    0 -0.33283218664E+03 -0.18991726578E+03 -0.32836223843E+03  0.50464600655E+03  0.00000000000E+00 0.  1.
         -1    1    1    2    0  502 -0.20594045832E+02  0.25752329409E+01 -0.14350893074E+02  0.25232809603E+02  0.00000000000E+00 0. -1.
<mgrwt>
<rscale>  4 0.83252296E+03</rscale>
<asrwt>0</asrwt>
<pdfrwt beam="1">  1       21 0.25451731E-01 0.83252296E+03</pdfrwt>
<pdfrwt beam="2">  1       21 0.16113445E+00 0.83252296E+03</pdfrwt>
<totfact> 0.28061456E+03</totfact>
</mgrwt>
</event>
<event>
 5    0  0.3372079E-003  0.4865687E+03  0.7546771E-02  0.1017345E+00
         21   -1    0    0  503  502  0.00000000000E+00  0.00000000000E+00  0.19978849979E+03  0.19978849979E+03  0.00000000000E+00 0. -1.
         21   -1    0    0  501  503 -0.00000000000E+00 -0.00000000000E+00 -0.29624968137E+03  0.29624968137E+03  0.00000000000E+00 0. -1.
         25    1    1    2    0    0 -0.17277345025E+03  0.11984028990E+03 -0.11821773768E+03  0.27168510025E+03  0.12500000000E+03 0.  0.
          4    1    1    2  501    0  0.13467821236E+03 -0.58022850318E+02 -0.56141774742E+01  0.14675282291E+03  0.00000000000E+00 0. -1.
         -4    1    1    2    0  502  0.38095237896E+02 -0.61817439583E+02  0.27370733572E+02  0.77600258010E+02  0.00000000000E+00 0.  1.
<mgrwt>
<rscale>  4 0.48656872E+03</rscale>
<asrwt>0</asrwt>
<pdfrwt beam="1">  1       21 0.30736692E-01 0.48656872E+03</pdfrwt>
<pdfrwt beam="2">  1       21 0.45576874E-01 0.48656872E+03</pdfrwt>
<totfact> 0.42749203E+04</totfact>
</mgrwt>
</event>
<event>
 5    0  0.3372079E-003  0.6836313E+03  0.7546771E-02  0.9745642E-01
         21   -1    0    0  501  502  0.00000000000E+00  0.00000000000E+00  0.22742668767E+03  0.22742668767E+03  0.00000000000E+00 0.  1.
         21   -1    0    0  502  503 -0.00000000000E+00 -0.00000000000E+00 -0.51373894148E+03  0.51373894148E+03  0.00000000000E+00 0.  1.
         25    1    1    2    0    0  0.25059276520E+03 -0.17646937815E+03 -0.18941926940E+03  0.38136968287E+03  0.12500000000E+03 0.  0.
          2    1    1    2  501    0 -0.24924628727E+03  0.10273891669E+03 -0.55548070390E+02  0.27525367362E+03  0.00000000000E+00 0.  1.
         -2    1    1    2    0  503 -0.13464779339E+01  0.73730461455E+02 -0.41344914020E+02  0.84542272648E+02  0.00000000000E+00 0. -1.
<mgrwt>
<rscale>  4 0.68363132E+03</rscale>
<asrwt>0</asrwt>
<pdfrwt beam="1">  1       21 0.34988721E-01 0.68363132E+03</pdfrwt>
<pdfrwt beam="2">  1       21 0.79036760E-01 0.68363132E+03</pdfrwt>
<totfact> 0.93899252E+03</totfact>
</mgrwt>
</event>
<event>
 5    0  0.3372079E-003  0.6116533E+03  0.7546771E-02  0.9881520E-01
         21   -1    0    0  503  502  0.00000000000E+00  0.00000000000E+00  0.21021209989E+03  0.21021209989E+03  0.00000000000E+00 0.  1.
         21   -1    0    0  501  503 -0.00000000000E+00 -0.00000000000E+00 -0.44493132627E+03  0.44493132627E+03  0.00000000000E+00 0.  1.
         25    1    1    2    0    0 -0.24606702200E+03 -0.70342516481E+02 -0.19573748186E+03  0.34559399698E+03  0.12500000000E+03 0.  0.
          3    1    1    2  501    0  0.93773384777E-01  0.60864296989E+02 -0.10271331227E+02  0.61724968098E+02  0.00000000000E+00 0. -1.
         -3    1    1    2    0  502  0.24597324862E+03  0.94782194916E+01 -0.28710413295E+02  0.24782446109E+03  0.00000000000E+00 0.  1.
<mgrwt>
<rscale>  4 0.61165333E+03</rscale>
<asrwt>0</asrwt>
<pdfrwt beam="1">  1       21 0.32340323E-01 0.61165333E+03</pdfrwt>
<pdfrwt beam="2">  1       21 0.68450973E-01 0.61165333E+03</pdfrwt>
<totfact> 0.15532111E+04</totfact>
</mgrwt>
</event>
<event>
 5    0  0.3372079E-003  0.5174582E+03  0.7546771E-02  0.1009320E+00
         21   -1    0    0  501  502  0.00000000000E+00  0.00000000000E+00  0.79440940518E+03  0.79440940518E+03  0.00000000000E+00 0. -1.
         21   -1    0    0  502  503 -0.00000000000E+00 -0.00000000000E+00 -0.84264806642E+02  0.84264806642E+02  0.00000000000E+00 0. -1.
         25    1    1    2    0    0 -0.21752233383E+03  0.94941234482E+02  0.29351249739E+03  0.39762342719E+03  0.12500000000E+03 0.  0.
          4    1    1    2  501    0  0.18567412131E+03 -0.87775691254E+02  0.38026342247E+03  0.43218019594E+03  0.00000000000E+00 0. -1.
         -4    1    1    2    0  503  0.31848212524E+02 -0.71655432283E+01  0.36368678678E+02  0.48870588697E+02  0.00000000000E+00 0.  1.
<mgrwt>
<rscale>  4 0.51745823E+03</rscale>
<asrwt>0</asrwt>
<pdfrwt beam="1">  1       21 0.12221683E+00 0.51745823E+03</pdfrwt>
<pdfrwt beam="2">  1       21 0.12963817E-01 0.51745823E+03</pdfrwt>
<totfact> 0.22838884E+04</totfact>
</mgrwt>
</event>
<event>
 5    0  0.3372079E-003  0.7045793E+03  0.7546771E-02  0.9709433E-01
         21   -1    0    0  503  502  0.00000000000E+00  0.00000000000E+00  0.31835032135E+03  0.31835032135E+03  0.00000000000E+00 0. -1.
         21   -1    0    0  501  503 -0.00000000000E+00 -0.00000000000E+00 -0.38984724274E+03  0.38984724274E+03  0.00000000000E+00 0. -1.
         25    1    1    2    0    0 -0.19039910974E+03  0.26324143615E+03 -0.12524922974E+03  0.36994627211E+03  0.12500000000E+03 0.  0.
          2    1    1    2  501    0  0.17010141538E+03 -0.25986058654E+03  0.39198181276E+02  0.31304714240E+03  0.00000000000E+00 0. -1.
         -2    1    1    2    0  502  0.20297694363E+02 -0.33808496159E+01  0.14554127075E+02  0.25204149569E+02  0.00000000000E+00 0.  1.
<mgrwt>
<rscale>  4 0.70457929E+03</rscale>
<asrwt>0</asrwt>
<pdfrwt beam="1">  1       21 0.48976973E-01 0.70457929E+03</pdfrwt>
<pdfrwt beam="2">  1       21 0.59976499E-01 0.70457929E+03</pdfrwt>
<totfact> 0.86611760E+03</totfact>
</mgrwt>
</event>
<event>
 5    0  0.3372079E-003  0.5765768E+03  0.7546771E-02  0.9955230E-01
         21   -1    0    0  501  502  0.00000000000E+00  0.00000000000E+00  0.24966172008E+03  0.24966172008E+03  0.00000000000E+00 0.  1.
         21   -1    0    0  502  503 -0.00000000000E+00 -0.00000000000E+00 -0.33289126013E+03  0.33289126013E+03  0.00000000000E+00 0.  1.
         25    1    1    2    0    0 -0.14181378918E+03  0.21110855570E+03  0.52566395509E+02  0.28821207301E+03  0.12500000000E+03 0.  0.
          4    1    1    2  501    0  0.11196668606E+03 -0.11776243169E+03 -0.94659030524E+02  0.18805547364E+03  0.00000000000E+00 0.  1.
         -4    1    1    2    0  503  0.29847103115E+02 -0.93346124010E+02 -0.41136905042E+02  0.10628543357E+03  0.00000000000E+00 0. -1.
<mgrwt>
<rscale>  4 0.57657681E+03</rscale>
<asrwt>0</asrwt>
<pdfrwt beam="1">  1       21 0.38409495E-01 0.57657681E+03</pdfrwt>
<pdfrwt beam="2">  1       21 0.51214040E-01 0.57657681E+03</pdfrwt>
<totfact> 0.20860329E+04</totfact>
</mgrwt>
</event>
<event>
 5    0  0.3372079E-003  0.6933698E+03  0.7546771E-02  0.9728638E-01
         21   -1    0    0  503  502  0.00000000000E+00  0.00000000000E+00  0.71088684999E+03  0.71088684999E+03  0.00000000000E+00 0.  1.
         21   -1    0    0  501  503 -0.00000000000E+00 -0.00000000000E+00 -0.16907110152E+03  0.16907110152E+03  0.00000000000E+00 0.  1.
         25    1    1    2    0    0  0.31584090654E+03  0.96062148031E+02  0.24285238595E+03  0.42846901392E+03  0.12500000000E+03 0.  0.
          2    1    1    2  501    0 -0.20754811859E+03 -0.33131181707E+02  0.15814367482E+03  0.26302722030E+03  0.00000000000E+00 0.  1.
         -2    1    1    2    0  502 -0.10829278795E+03 -0.62930966324E+02  0.14081968770E+03  0.18846171730E+03  0.00000000000E+00 0. -1.
<mgrwt>
<rscale>  4 0.69336981E+03</rscale>
<asrwt>0</asrwt>
<pdfrwt beam="1">  1       21 0.10936721E+00 0.69336981E+03</pdfrwt>
<pdfrwt beam="2">  1       21 0.26010939E-01 0.69336981E+03</pdfrwt>
<totfact> 0.77525046E+03</totfact>
</mgrwt>
</event>
<event>
 5    0  0.3372079E-003  0.7174933E+03  0.7546771E-02  0.9687775E-01
         21   -1    0    0  501  502  0.00000000000E+00  0.00000000000E+00  0.10823647605E+04  0.10823647605E+04  0.00000000000E+00 0.  1.
         21   -1    0    0  502  503 -0.00000000000E+00 -0.00000000000E+00 -0.11890554176E+03  0.11890554176E+03  0.00000000000E+00 0.  1.
         25    1    1    2    0    0  0.27621922733E+03 -0.20007709027E+03  0.45149568566E+03  0.57948361303E+03  0.12500000000E+03 0.  0.
          1    1    1    2  501    0 -0.23941762971E+03  0.14445923775E+03  0.45512300479E+03  0.53415936038E+03  0.00000000000E+00 0.  1.
         -1    1    1    2    0  503 -0.36801597615E+02  0.55617852519E+02  0.56840528296E+02  0.87627328858E+02  0.00000000000E+00 0. -1.
<mgrwt>
<rscale>  4 0.71749333E+03</rscale>
<asrwt>0</asrwt>
<pdfrwt beam="1">  1       21 0.16651765E+00 0.71749333E+03</pdfrwt>
<pdfrwt beam="2">  1       21 0.18293161E-01 0.71749333E+03</pdfrwt>
<totfact> 0.49622117E+03</totfact>
</mgrwt>
</event>
<event>
 5    0  0.3372079E-003  0.6863034E+03  0.7546771E-02  0.9740946E-01
         21   -1    0    0  501  502  0.00000000000E+00  0.00000000000E+00  0.13691143137E+04  0.13691143137E+04  0.00000000000E+00 0. -1.
         21   -1    0    0  502  503 -0.00000000000E+00 -0.00000000000E+00 -0.86006751545E+02  0.86006751545E+02  0.00000000000E+00 0. -1.
         25    1    1    2    0    0  0.20777355337E+02  0.23931708176E+03  0.37782640318E+03  0.46484637791E+03  0.12500000000E+03 0.  0.
          2    1    1    2  501    0  0.13272472936E+03 -0.18952621434E+03  0.63044847665E+03  0.67156631945E+03  0.00000000000E+00 0.  1.
         -2    1    1    2    0  503 -0.15350208470E+03 -0.49790867418E+02  0.27483268233E+03  0.31870836789E+03  0.00000000000E+00 0. -1.
<mgrwt>
<rscale>  4 0.68630336E+03</rscale>
<asrwt>0</asrwt>
<pdfrwt beam="1">  1       21 0.21063296E+00 0.68630336E+03</pdfrwt>
<pdfrwt beam="2">  1       21 0.13231809E-01 0.68630336E+03</pdfrwt>
<totfact> 0.45046179E+03</totfact>
</mgrwt>
</event>
<event>
 5    0  0.3372079E-003  0.4621036E+03  0.7546771E-02  0.1024173E+00
         21   -1    0    0  503  502  0.00000000000E+00  0.00000000000E+00  0.55245344279E+03  0.55245344279E+03  0.00000000000E+00 0. -1.
         21   -1    0    0  501  503 -0.00000000000E+00 -0.00000000000E+00 -0.96632441795E+02  0.96632441795E+02  0.00000000000E+00 0. -1.
         25    1    1    2    0    0  0.18066047568E+03  0.89604571225E+02  0.31022641521E+03  0.39055424124E+03  0.12500000000E+03 0.  0.
          3    1    1    2  501    0 -0.97294691290E+02 -0.85683589087E+02  0.97412551581E+02  0.16216392816E+03  0.00000000000E+00 0. -1.
         -3    1    1    2    0  502 -0.83365784394E+02 -0.39209821386E+01  0.48182034205E+02  0.96367715179E+02  0.00000000000E+00 0.  1.
<mgrwt>
<rscale>  4 0.46210356E+03</rscale>
<asrwt>0</asrwt>
<pdfrwt beam="1">  1       21 0.84992836E-01 0.46210356E+03</pdfrwt>
<pdfrwt beam="2">  1       21 0.14866530E-01 0.46210356E+03</pdfrwt>
<totfact> 0.43668282E+04</totfact>
</mgrwt>
</event>
<event>
 5    0  0.3372079E-003  0.6089815E+03  0.7546771E-02  0.9886946E-01
         21   -1    0    0  501  502  0.00000000000E+00  0.00000000000E+00  0.14391498536E+03  0.14391498536E+03  0.00000000000E+00 0.  1.
         21   -1    0    0  502  503 -0.00000000000E+00 -0.00000000000E+00 -0.64423188149E+03  0.64423188149E+03  0.00000000000E+00 0.  1.
         25    1    1    2    0    0 -0.31176363440E+02 -0.26142353682E+03 -0.14500706265E+03  0.32552462190E+03  0.12500000000E+03 0.  0.
          1    1    1    2  501    0  0.49273015505E+02  0.22706791173E+03 -0.21334304358E+03  0.31544083572E+03  0.00000000000E+00 0.  1.
         -1    1    1    2    0  503 -0.18096652064E+02  0.34355625087E+02 -0.14196678990E+03  0.14718140923E+03  0.00000000000E+00 0. -1.
<mgrwt>
<rscale>  4 0.60898152E+03</rscale>
<asrwt>0</asrwt>
<pdfrwt beam="1">  1       21 0.22140767E-01 0.60898152E+03</pdfrwt>
<pdfrwt beam="2">  1       21 0.99112596E-01 0.60898152E+03</pdfrwt>
<totfact> 0.13787657E+04</totfact>
</mgrwt>
</event>
<event>
 5    0  0.3372079E-003  0.4912646E+03  0.7546771E-02  0.1016084E+00
         21   -1    0    0  501  502  0.00000000000E+00  0.00000000000E+00  0.22223362978E+03  0.22223362978E+03  0.00000000000E+00 0. -1.
         21   -1    0    0  502  503 -0.00000000000E+00 -0.00000000000E+00 -0.27149457401E+03  0.27149457401E+03  0.00000000000E+00 0. -1.
         25    1    1    2    0    0 -0.18670082714E+03  0.11127427978E+03 -0.66987790564E+01  0.25081674154E+03  0.12500000000E+03 0.  0.
          1    1    1    2  501    0  0.16606862920E+03 -0.68579731786E+02 -0.72253848080E+00  0.17967329039E+03  0.00000000000E+00 0. -1.
         -1    1    1    2    0  503  0.20632197937E+02 -0.42694547991E+02 -0.41839626685E+02  0.63238171867E+02  0.00000000000E+00 0.  1.
<mgrwt>
<rscale>  4 0.49126459E+03</rscale>
<asrwt>0</asrwt>
<pdfrwt beam="1">  1       21 0.34189789E-01 0.49126459E+03</pdfrwt>
<pdfrwt beam="2">  1       21 0.41768396E-01 0.49126459E+03</pdfrwt>
<totfact> 0.41382172E+04</totfact>
</mgrwt>
</event>
<event>
 5    0  0.3372079E-003  0.5490971E+03  0.7546771E-02  0.1001703E+00
         21   -1    0    0  503  502  0.00000000000E+00  0.00000000000E+00  0.53964808723E+03  0.53964808723E+03  0.00000000000E+00 0. -1.
         21   -1    0    0  501  503 -0.00000000000E+00 -0.00000000000E+00 -0.13967787774E+03  0.13967787774E+03  0.00000000000E+00 0. -1.
         25    1    1    2    0    0 -0.20922332026E+03 -0.69930325800E+02  0.19650609074E+03  0.32078698836E+03  0.12500000000E+03 0.  0.
          2    1    1    2  501    0  0.19346538977E+03  0.83072223865E+02  0.67597649400E+02  0.22113184669E+03  0.00000000000E+00 0. -1.
         -2    1    1    2    0  502  0.15757930493E+02 -0.13141898065E+02  0.13586646936E+03  0.13740712992E+03  0.00000000000E+00 0.  1.
<mgrwt>
<rscale>  4 0.54909708E+03</rscale>
<asrwt>0</asrwt>
<pdfrwt beam="1">  1       21 0.83022782E-01 0.54909708E+03</pdfrwt>
<pdfrwt beam="2">  1       21 0.21488905E-01 0.54909708E+03</pdfrwt>
<totfact> 0.22579031E+04</totfact>
</mgrwt>
</event>
<event>
 5    0  0.3372079E-003  0.6946896E+03  0.7546771E-02  0.9726357E-01
         21   -1    0    0  501  502  0.00000000000E+00  0.00000000000E+00  0.17210928389E+03  0.17210928389E+03  0.00000000000E+00 0. -1.
         21   -1    0    0  502  503 -0.00000000000E+00 -0.00000000000E+00 -0.70099879848E+03  0.70099879848E+03  0.00000000000E+00 0. -1.
         25    1    1    2    0    0  0.13451067921E+03 -0.19020537848E+03 -0.29828697200E+03  0.39858666120E+03  0.12500000000E+03 0.  0.
          1    1    1    2  501    0  0.36274595764E+02  0.23395287807E+03 -0.11097882559E+03  0.26146910943E+03  0.00000000000E+00 0. -1.
         -1    1    1    2    0  503 -0.17078527498E+03 -0.43747499584E+02 -0.11962371700E+03  0.21305231174E+03  0.00000000000E+00 0.  1.
<mgrwt>
<rscale>  4 0.69468957E+03</rscale>
<asrwt>0</asrwt>
<pdfrwt beam="1">  1       21 0.26478352E-01 0.69468957E+03</pdfrwt>
<pdfrwt beam="2">  1       21 0.10784597E+00 0.69468957E+03</pdfrwt>
<totfact> 0.77500575E+03</totfact>
</mgrwt>
</event>
<event>
 5    0  0.3372079E-003  0.4945298E+03  0.7546771E-02  0.1015217E+00
         21   -1    0    0  501  502  0.00000000000E+00  0.00000000000E+00  0.28863824531E+03  0.28863824531E+03  0.00000000000E+00 0. -1.
         21   -1    0    0  502  503 -0.00000000000E+00 -0.00000000000E+00 -0.21182202179E+03  0.21182202179E+03  0.00000000000E+00 0. -1.
         25    1    1    2    0    0 -0.74386339978E+02 -0.21535616671E+03  0.43968426747E+02  0.26357129712E+03  0.12500000000E+03 0.  0.
          2    1    1    2  501    0  0.88825703039E+01  0.32350422639E+02  0.25912167848E+02  0.42389743367E+02  0.00000000000E+00 0.  1.
         -2    1    1    2    0  503  0.65503769674E+02  0.18300574407E+03  0.69356289195E+01  0.19449922661E+03  0.00000000000E+00 0. -1.
<mgrwt>
<rscale>  4 0.49452982E+03</rscale>
<asrwt>0</asrwt>
<pdfrwt beam="1">  1       21 0.44405884E-01 0.49452982E+03</pdfrwt>
<pdfrwt beam="2">  1       21 0.32588003E-01 0.49452982E+03</pdfrwt>
<totfact> 0.40091984E+04</totfact>
</mgrwt>
</event>
<event>
 5    0  0.3372079E-003  0.4874477E+03  0.7546771E-02  0.1017108E+00
         21   -1    0    0  501  502  0.00000000000E+00  0.00000000000E+00  0.33111415896E+03  0.33111415896E+03  0.00000000000E+00 0. -1.
         21   -1    0    0  502  503 -0.00000000000E+00 -0.00000000000E+00 -0.17939827590E+03  0.17939827590E+03  0.00000000000E+00 0. -1.
         25    1    1    2    0    0 -0.16202542740E+03  0.12729354537E+03  0.11413495152E+03  0.26666022009E+03  0.12500000000E+03 0.  0.
          1    1    1    2  501    0  0.26713011560E+02 -0.81595509940E+02 -0.22737187260E+02  0.88816619579E+02  0.00000000000E+00 0.  1.
         -1    1    1    2    0  503  0.13531241584E+03 -0.45698035425E+02  0.60318118793E+02  0.15503559520E+03  0.00000000000E+00 0. -1.
<mgrwt>
<rscale>  4 0.48744768E+03</rscale>
<asrwt>0</asrwt>
<pdfrwt beam="1">  1       21 0.50940640E-01 0.48744768E+03</pdfrwt>
<pdfrwt beam="2">  1       21 0.27599735E-01 0.48744768E+03</pdfrwt>
<totfact> 0.41800338E+04</totfact>
</mgrwt>
</event>
<event>
 5    0  0.3372079E-003  0.5772091E+03  0.7546771E-02  0.9953852E-01
         21   -1    0    0  503  502  0.00000000000E+00  0.00000000000E+00  0.12721174799E+03  0.12721174799E+03  0.00000000000E+00 0. -1.
         21   -1    0    0  501  503 -0.00000000000E+00 -0.00000000000E+00 -0.65475534985E+03  0.65475534985E+03  0.00000000000E+00 0. -1.
         25    1    1    2    0    0  0.10769302297E+03 -0.21200989927E+03 -0.32674073908E+03  0.42300176732E+03  0.12500000000E+03 0.  0.
          2    1    1    2  501    0 -0.56816383613E+02  0.34318937351E+02  0.21582911824E+02  0.69797657486E+02  0.00000000000E+00 0.  1.
         -2    1    1    2    0  502 -0.50876639354E+02  0.17769096192E+03 -0.22238577461E+03  0.28916767304E+03  0.00000000000E+00 0. -1.
<mgrwt>
<rscale>  4 0.57720905E+03</rscale>
<asrwt>0</asrwt>
<pdfrwt beam="1">  1       21 0.19571038E-01 0.57720905E+03</pdfrwt>
<pdfrwt beam="2">  1       21 0.10073159E+00 0.57720905E+03</pdfrwt>
<totfact> 0.16909476E+04</totfact>
</mgrwt>
</event>
<event>
 5    0  0.3372079E-003  0.5765030E+03  0.7546771E-02  0.9955391E-01
         21   -1    0    0  501  502  0.00000000000E+00  0.00000000000E+00  0.77571476248E+02  0.77571476248E+02  0.00000000000E+00 0. -1.
         21   -1    0    0  502  503 -0.00000000000E+00 -0.00000000000E+00 -0.10711273732E+04  0.10711273732E+04  0.00000000000E+00 0. -1.
         25    1    1    2    0    0 -0.24725454071E+02 -0.19878492002E+03 -0.34444878423E+03  0.41760837811E+03  0.12500000000E+03 0.  0.
          3    1    1    2  501    0  0.44352159819E+02  0.26414281216E+03 -0.50451991826E+03  0.57120826957E+03  0.00000000000E+00 0.  1.
         -3    1    1    2    0  503 -0.19626705748E+02 -0.65357892138E+02 -0.14458719447E+03  0.15988220178E+03  0.00000000000E+00 0. -1.
<mgrwt>
<rscale>  4 0.57650302E+03</rscale>
<asrwt>0</asrwt>
<pdfrwt beam="1">  1       21 0.11934074E-01 0.57650302E+03</pdfrwt>
<pdfrwt beam="2">  1       21 0.16478882E+00 0.57650302E+03</pdfrwt>
<totfact> 0.11726576E+04</totfact>
</mgrwt>
</event>
<event>
 5    0  0.3372079E-003  0.6023859E+03  0.7546771E-02  0.9900468E-01
         21   -1    0    0  501  502  0.00000000000E+00  0.00000000000E+00  0.20300370231E+03  0.20300370231E+03  0.00000000000E+00 0.  1.
         21   -1    0    0  502  503 -0.00000000000E+00 -0.00000000000E+00 -0.44687455843E+03  0.44687455843E+03  0.00000000000E+00 0.  1.
         25    1    1    2    0    0 -0.20127624660E+03  0.19559435319E+03 -0.69873587915E+02  0.31508188893E+03  0.12500000000E+03 0.  0.
          4    1    1    2  501    0  0.18347284219E+03 -0.16277205820E+03 -0.13175876089E+03  0.27841946380E+03  0.00000000000E+00 0.  1.
         -4    1    1    2    0  503  0.17803404412E+02 -0.32822294992E+02 -0.42238507311E+02  0.56376908013E+02  0.00000000000E+00 0. -1.
<mgrwt>
<rscale>  4 0.60238589E+03</rscale>
<asrwt>0</asrwt>
<pdfrwt beam="1">  1       21 0.31231339E-01 0.60238589E+03</pdfrwt>
<pdfrwt beam="2">  1       21 0.68749932E-01 0.60238589E+03</pdfrwt>
<totfact> 0.16529035E+04</totfact>
</mgrwt>
</event>
<event>
 5    0  0.3372079E-003  0.5049889E+03  0.7546771E-02  0.1012485E+00
         21   -1    0    0  501  502  0.00000000000E+00  0.00000000000E+00  0.16718922523E+04  0.16718922523E+04  0.00000000000E+00 0.  1.
         21   -1    0    0  502  503 -0.00000000000E+00 -0.00000000000E+00 -0.38132502999E+02  0.38132502999E+02  0.00000000000E+00 0.  1.
         25    1    1    2    0    0  0.12037670675E+03 -0.16960746280E+03  0.12256965870E+04  0.12494856408E+04  0.12500000000E+03 0.  0.
          3    1    1    2  501    0 -0.22583413010E+01  0.30763739135E+02  0.50121679477E+02  0.58853126549E+02  0.00000000000E+00 0. -1.
         -3    1    1    2    0  503 -0.11811836545E+03  0.13884372366E+03  0.35794148278E+03  0.40168598800E+03  0.00000000000E+00 0.  1.
<mgrwt>
<rscale>  4 0.50498886E+03</rscale>
<asrwt>0</asrwt>
<pdfrwt beam="1">  1       21 0.25721414E+00 0.50498886E+03</pdfrwt>
<pdfrwt beam="2">  1       21 0.58665402E-02 0.50498886E+03</pdfrwt>
<totfact> 0.10354653E+04</totfact>
</mgrwt>
</event>
<event>
 5    0  0.3372079E-003  0.5959740E+03  0.7546771E-02  0.9913794E-01
         21   -1    0    0  501  502  0.00000000000E+00  0.00000000000E+00  0.80331907817E+03  0.80331907817E+03  0.00000000000E+00 0.  1.
         21   -1    0    0  502  503 -0.00000000000E+00 -0.00000000000E+00 -0.11053670309E+03  0.11053670309E+03  0.00000000000E+00 0.  1.
         25    1    1    2    0    0  0.16585265876E+03 -0.14964564545E+03  0.41999015146E+03  0.49185124880E+03  0.12500000000E+03 0.  0.
          1    1    1    2  501    0 -0.20544865646E+03  0.10011278904E+03  0.12344230576E+03  0.25974934807E+03  0.00000000000E+00 0.  1.
         -1    1    1    2    0  503  0.39595997706E+02  0.49532856404E+02  0.14934991786E+03  0.16225518440E+03  0.00000000000E+00 0. -1.
<mgrwt>
<rscale>  4 0.59597397E+03</rscale>
<asrwt>0</asrwt>
<pdfrwt beam="1">  1       21 0.12358755E+00 0.59597397E+03</pdfrwt>
<pdfrwt beam="2">  1       21 0.17005647E-01 0.59597397E+03</pdfrwt>
<totfact> 0.13151983E+04</totfact>
</mgrwt>
</event>
<event>
 5    0  0.3372079E-003  0.1174266E+04  0.7546771E-02  0.9135684E-01
         21   -1    0    0  501  502  0.00000000000E+00  0.00000000000E+00  0.15368482337E+04  0.15368482337E+04  0.00000000000E+00 0. -1.
         21   -1    0    0  502  503 -0.00000000000E+00 -0.00000000000E+00 -0.22430662568E+03  0.22430662568E+03  0.00000000000E+00 0. -1.
         25    1    1    2    0    0 -0.53275559185E+03  0.23076678089E+02  0.74630406535E+03  0.92571907816E+03  0.12500000000E+03 0.  0.
          3    1    1    2  501    0  0.84373695960E+02 -0.12844010918E+03  0.14100804264E+03  0.20856425941E+03  0.00000000000E+00 0.  1.
         -3    1    1    2    0  503  0.44838189589E+03  0.10536343109E+03  0.42522950006E+03  0.62687152184E+03  0.00000000000E+00 0. -1.
<mgrwt>
<rscale>  4 0.11742661E+04</rscale>
<asrwt>0</asrwt>
<pdfrwt beam="1">  1       21 0.23643818E+00 0.11742661E+04</pdfrwt>
<pdfrwt beam="2">  1       21 0.34508713E-01 0.11742661E+04</pdfrwt>
<totfact> 0.42596067E+02</totfact>
</mgrwt>
</event>
<event>
 5    0  0.3372079E-003  0.5463590E+03  0.7546771E-02  0.1002340E+00
         21   -1    0    0  501  502  0.00000000000E+00  0.00000000000E+00  0.19353338202E+04  0.19353338202E+04  0.00000000000E+00 0.  1.
         21   -1    0    0  502  503 -0.00000000000E+00 -0.00000000000E+00 -0.38560296157E+02  0.38560296157E+02  0.00000000000E+00 0.  1.
         25    1    1    2    0    0  0.20455621590E+03 -0.14489840390E+03  0.11006041258E+04  0.11356906421E+04  0.12500000000E+03 0.  0.
          2    1    1    2  501    0 -0.18219722589E+03  0.90845452260E+02  0.62287284432E+03  0.65530092744E+03  0.00000000000E+00 0.  1.
         -2    1    1    2    0  503 -0.22358990016E+02  0.54052951640E+02  0.17329655399E+03  0.18290254684E+03  0.00000000000E+00 0. -1.
<mgrwt>
<rscale>  4 0.54635902E+03</rscale>
<asrwt>0</asrwt>
<pdfrwt beam="1">  1       21 0.29774359E+00 0.54635902E+03</pdfrwt>
<pdfrwt beam="2">  1       21 0.59323548E-02 0.54635902E+03</pdfrwt>
<totfact> 0.56705546E+03</totfact>
</mgrwt>
</event>
<event>
 5    0  0.3372079E-003  0.6210548E+03  0.7546771E-02  0.9862662E-01
         21   -1    0    0  501  502  0.00000000000E+00  0.00000000000E+00  0.59302350158E+02  0.59302350158E+02  0.00000000000E+00 0. -1.
         21   -1    0    0  502  503 -0.00000000000E+00 -0.00000000000E+00 -0.16260276755E+04  0.16260276755E+04  0.00000000000E+00 0. -1.
         25    1    1    2    0    0 -0.20860025827E+03 -0.10115016059E+03 -0.12166853142E+04  0.12448668910E+04  0.12500000000E+03 0.  0.
          2    1    1    2  501    0 -0.13992025027E+02  0.29796041022E+02 -0.54325888386E+02  0.63520728695E+02  0.00000000000E+00 0.  1.
         -2    1    1    2    0  503  0.22259228330E+03  0.71354119566E+02 -0.29571412283E+03  0.37694240595E+03  0.00000000000E+00 0. -1.
<mgrwt>
<rscale>  4 0.62105479E+03</rscale>
<asrwt>0</asrwt>
<pdfrwt beam="1">  1       21 0.91234373E-02 0.62105479E+03</pdfrwt>
<pdfrwt beam="2">  1       21 0.25015814E+00 0.62105479E+03</pdfrwt>
<totfact> 0.50450904E+03</totfact>
</mgrwt>
</event>
<event>
 5    0  0.3372079E-003  0.5595024E+03  0.7546771E-02  0.9993181E-01
         21   -1    0    0  503  502  0.00000000000E+00  0.00000000000E+00  0.68785341981E+03  0.68785341981E+03  0.00000000000E+00 0. -1.
         21   -1    0    0  501  503 -0.00000000000E+00 -0.00000000000E+00 -0.11377531027E+03  0.11377531027E+03  0.00000000000E+00 0. -1.
         25    1    1    2    0    0  0.99923352418E+02 -0.22584568996E+03  0.29984662273E+03  0.40807346054E+03  0.12500000000E+03 0.  0.
          4    1    1    2  501    0  0.47038269092E+00  0.34497452099E+02 -0.10545751102E+02  0.36076423430E+02  0.00000000000E+00 0. -1.
         -4    1    1    2    0  502 -0.10039373511E+03  0.19134823786E+03  0.28477723791E+03  0.35747884611E+03  0.00000000000E+00 0.  1.
<mgrwt>
<rscale>  4 0.55950241E+03</rscale>
<asrwt>0</asrwt>
<pdfrwt beam="1">  1       21 0.10582360E+00 0.55950241E+03</pdfrwt>
<pdfrwt beam="2">  1       21 0.17503894E-01 0.55950241E+03</pdfrwt>
<totfact> 0.18575986E+04</totfact>
</mgrwt>
</event>
<event>
 5    0  0.3372079E-003  0.5318434E+03  0.7546771E-02  0.1005786E+00
         21   -1    0    0  503  502  0.00000000000E+00  0.00000000000E+00  0.15302667236E+03  0.15302667236E+03  0.00000000000E+00 0. -1.
         21   -1    0    0  501  503 -0.00000000000E+00 -0.00000000000E+00 -0.46210472938E+03  0.46210472938E+03  0.00000000000E+00 0. -1.
         25    1    1    2    0    0  0.23545586222E+03 -0.83747833956E+01 -0.16127963622E+03  0.31168208340E+03  0.12500000000E+03 0.  0.
          2    1    1    2  501    0 -0.68941804524E+02 -0.46575142949E+02 -0.80089924844E+02  0.11548425180E+03  0.00000000000E+00 0.  1.
         -2    1    1    2    0  502 -0.16651405770E+03  0.54949926345E+02 -0.67708495950E+02  0.18796506654E+03  0.00000000000E+00 0. -1.
<mgrwt>
<rscale>  4 0.53184339E+03</rscale>
<asrwt>0</asrwt>
<pdfrwt beam="1">  1       21 0.23542565E-01 0.53184339E+03</pdfrwt>
<pdfrwt beam="2">  1       21 0.71093035E-01 0.53184339E+03</pdfrwt>
<totfact> 0.27149607E+04</totfact>
</mgrwt>
</event>
<event>
 5    0  0.3372079E-003  0.4793201E+03  0.7546771E-02  0.1019322E+00
         21   -1    0    0  501  502  0.00000000000E+00  0.00000000000E+00  0.13572740201E+03  0.13572740201E+03  0.00000000000E+00 0.  1.
         21   -1    0    0  502  503 -0.00000000000E+00 -0.00000000000E+00 -0.42317869564E+03  0.42317869564E+03  0.00000000000E+00 0.  1.
         25    1    1    2    0    0 -0.10112516531E+03  0.17654396312E+03 -0.22636241249E+03  0.32902737235E+03  0.12500000000E+03 0.  0.
          1    1    1    2  501    0  0.10169279762E+03 -0.92306394324E+02 -0.39845772333E+02  0.14300203178E+03  0.00000000000E+00 0.  1.
         -1    1    1    2    0  503 -0.56763231380E+00 -0.84237568793E+02 -0.21243108809E+02  0.86876693506E+02  0.00000000000E+00 0. -1.
<mgrwt>
<rscale>  4 0.47932012E+03</rscale>
<asrwt>0</asrwt>
<pdfrwt beam="1">  1       21 0.20881139E-01 0.47932012E+03</pdfrwt>
<pdfrwt beam="2">  1       21 0.65104415E-01 0.47932012E+03</pdfrwt>
<totfact> 0.42150580E+04</totfact>
</mgrwt>
</event>
<event>
 5    0  0.3372079E-003  0.6445605E+03  0.7546771E-02  0.9817040E-01
         21   -1    0    0  501  502  0.00000000000E+00  0.00000000000E+00  0.64759057456E+02  0.64759057456E+02  0.00000000000E+00 0. -1.
         21   -1    0    0  502  503 -0.00000000000E+00 -0.00000000000E+00 -0.16038613939E+04  0.16038613939E+04  0.00000000000E+00 0. -1.
         25    1    1    2    0    0  0.25538858005E+03  0.14277607410E+03 -0.60081504858E+03  0.67986179240E+03  0.12500000000E+03 0.  0.
          4    1    1    2  501    0 -0.19704881115E+03 -0.54917384506E+02 -0.56643285879E+03  0.60223777415E+03  0.00000000000E+00 0. -1.
         -4    1    1    2    0  503 -0.58339768901E+02 -0.87858689598E+02 -0.37185442905E+03  0.38652088479E+03  0.00000000000E+00 0.  1.
<mgrwt>
<rscale>  4 0.64456048E+03</rscale>
<asrwt>0</asrwt>
<pdfrwt beam="1">  1       21 0.99629329E-02 0.64456048E+03</pdfrwt>
<pdfrwt beam="2">  1       21 0.24674788E+00 0.64456048E+03</pdfrwt>
<totfact> 0.44894431E+03</totfact>
</mgrwt>
</event>
<event>
 5    0  0.3372079E-003  0.4825273E+03  0.7546771E-02  0.1018443E+00
         21   -1    0    0  503  502  0.00000000000E+00  0.00000000000E+00  0.66809502064E+03  0.66809502064E+03  0.00000000000E+00 0. -1.
         21   -1    0    0  501  503 -0.00000000000E+00 -0.00000000000E+00 -0.87125562935E+02  0.87125562935E+02  0.00000000000E+00 0. -1.
         25    1    1    2    0    0 -0.21051910871E+03 -0.55554273796E+01  0.19468367749E+03  0.31285123012E+03  0.12500000000E+03 0.  0.
          4    1    1    2  501    0  0.30887621875E+02  0.43360760106E+01  0.29587078132E+02  0.42991184360E+02  0.00000000000E+00 0.  1.
         -4    1    1    2    0  502  0.17963148684E+03  0.12193513690E+01  0.35669870208E+03  0.39937816909E+03  0.00000000000E+00 0. -1.
<mgrwt>
<rscale>  4 0.48252732E+03</rscale>
<asrwt>0</asrwt>
<pdfrwt beam="1">  1       21 0.10278385E+00 0.48252732E+03</pdfrwt>
<pdfrwt beam="2">  1       21 0.13403933E-01 0.48252732E+03</pdfrwt>
<totfact> 0.33396190E+04</totfact>
</mgrwt>
</event>
<event>
 5    0  0.3372079E-003  0.5640958E+03  0.7546771E-02  0.9982830E-01
         21   -1    0    0  501  502  0.00000000000E+00  0.00000000000E+00  0.47087795777E+03  0.47087795777E+03  0.00000000000E+00 0.  1.
         21   -1    0    0  502  503 -0.00000000000E+00 -0.00000000000E+00 -0.16894188616E+03  0.16894188616E+03  0.00000000000E+00 0.  1.
         25    1    1    2    0    0  0.61384598824E+02  0.22915339238E+03  0.25009010566E+03  0.36667343394E+03  0.12500000000E+03 0.  0.
          4    1    1    2  501    0 -0.80603902333E+02 -0.20606741058E+03  0.76670089439E+02  0.23417743143E+03  0.00000000000E+00 0.  1.
         -4    1    1    2    0  503  0.19219303508E+02 -0.23085981794E+02 -0.24824123493E+02  0.38968978559E+02  0.00000000000E+00 0. -1.
<mgrwt>
<rscale>  4 0.56409577E+03</rscale>
<asrwt>0</asrwt>
<pdfrwt beam="1">  1       21 0.72442762E-01 0.56409577E+03</pdfrwt>
<pdfrwt beam="2">  1       21 0.25991060E-01 0.56409577E+03</pdfrwt>
<totfact> 0.21303426E+04</totfact>
</mgrwt>
</event>
<event>
 5    0  0.3372079E-003  0.6556958E+03  0.7546771E-02  0.9796150E-01
         21   -1    0    0  501  502  0.00000000000E+00  0.00000000000E+00  0.34731197869E+03  0.34731197869E+03  0.00000000000E+00 0.  1.
         21   -1    0    0  502  503 -0.00000000000E+00 -0.00000000000E+00 -0.30947466533E+03  0.30947466533E+03  0.00000000000E+00 0.  1.
         25    1    1    2    0    0  0.12538208745E+03 -0.27943965651E+03  0.68943265091E+02  0.33791324816E+03  0.12500000000E+03 0.  0.
          1    1    1    2  501    0 -0.65676734257E+02  0.66953179403E+02 -0.28926509779E+02  0.98147361772E+02  0.00000000000E+00 0.  1.
         -1    1    1    2    0  503 -0.59705353197E+02  0.21248647711E+03 -0.21794419513E+01  0.22072603408E+03  0.00000000000E+00 0. -1.
<mgrwt>
<rscale>  4 0.65569584E+03</rscale>
<asrwt>0</asrwt>
<pdfrwt beam="1">  1       21 0.53432612E-01 0.65569584E+03</pdfrwt>
<pdfrwt beam="2">  1       21 0.47611487E-01 0.65569584E+03</pdfrwt>
<totfact> 0.11957684E+04</totfact>
</mgrwt>
</event>
<event>
 5    0  0.3372079E-003  0.5566182E+03  0.7546771E-02  0.9999736E-01
         21   -1    0    0  501  502  0.00000000000E+00  0.00000000000E+00  0.12332667071E+04  0.12332667071E+04  0.00000000000E+00 0. -1.
         21   -1    0    0  502  503 -0.00000000000E+00 -0.00000000000E+00 -0.62805521095E+02  0.62805521095E+02  0.00000000000E+00 0. -1.
         25    1    1    2    0    0 -0.13744927161E+03 -0.16800845019E+03  0.34877287755E+03  0.42940268015E+03  0.12500000000E+03 0.  0.
          2    1    1    2  501    0  0.73128842903E+02  0.17627715604E+02  0.50165322543E+03  0.50726178903E+03  0.00000000000E+00 0.  1.
         -2    1    1    2    0  503  0.64320428703E+02  0.15038073458E+03  0.32003508303E+03  0.35940775903E+03  0.00000000000E+00 0. -1.
<mgrwt>
<rscale>  4 0.55661821E+03</rscale>
<asrwt>0</asrwt>
<pdfrwt beam="1">  1       21 0.18973332E+00 0.55661821E+03</pdfrwt>
<pdfrwt beam="2">  1       21 0.96623888E-02 0.55661821E+03</pdfrwt>
<totfact> 0.11454384E+04</totfact>
</mgrwt>
</event>
<event>
 5    0  0.3372079E-003  0.7310307E+03  0.7546771E-02  0.9665589E-01
         21   -1    0    0  503  502  0.00000000000E+00  0.00000000000E+00  0.17952908074E+04  0.17952908074E+04  0.00000000000E+00 0. -1.
         21   -1    0    0  501  503 -0.00000000000E+00 -0.00000000000E+00 -0.74417731759E+02  0.74417731759E+02  0.00000000000E+00 0. -1.
         25    1    1    2    0    0 -0.18333484619E+03 -0.26019653755E+03  0.55866694084E+03  0.65501729349E+03  0.12500000000E+03 0.  0.
          2    1    1    2  501    0  0.19317572110E+03  0.16645933633E+03  0.92325617070E+03  0.95782437149E+03  0.00000000000E+00 0. -1.
         -2    1    1    2    0  502 -0.98408749092E+01  0.93737201213E+02  0.23894996408E+03  0.25686687417E+03  0.00000000000E+00 0.  1.
<mgrwt>
<rscale>  4 0.73103070E+03</rscale>
<asrwt>0</asrwt>
<pdfrwt beam="1">  1       21 0.27619855E+00 0.73103070E+03</pdfrwt>
<pdfrwt beam="2">  1       21 0.11448883E-01 0.73103070E+03</pdfrwt>
<totfact> 0.22315729E+03</totfact>
</mgrwt>
</event>
<event>
 5    0  0.3372079E-003  0.5105503E+03  0.7546771E-02  0.1011061E+00
         21   -1    0    0  501  502  0.00000000000E+00  0.00000000000E+00  0.24065512319E+04  0.24065512319E+04  0.00000000000E+00 0. -1.
         21   -1    0    0  502  503 -0.00000000000E+00 -0.00000000000E+00 -0.27078334470E+02  0.27078334470E+02  0.00000000000E+00 0. -1.
         25    1    1    2    0    0 -0.11971188074E+03  0.18837749829E+03  0.14986834578E+04  0.15203598662E+04  0.12500000000E+03 0.  0.
          1    1    1    2  501    0  0.10379070461E+03 -0.84283252513E+02  0.55531926476E+03  0.57118794002E+03  0.00000000000E+00 0.  1.
         -1    1    1    2    0  503  0.15921176131E+02 -0.10409424578E+03  0.32547017494E+03  0.34208176015E+03  0.00000000000E+00 0. -1.
<mgrwt>
<rscale>  4 0.51055029E+03</rscale>
<asrwt>0</asrwt>
<pdfrwt beam="1">  1       21 0.37023848E+00 0.51055029E+03</pdfrwt>
<pdfrwt beam="2">  1       21 0.41658995E-02 0.51055029E+03</pdfrwt>
<totfact> 0.38114350E+03</totfact>
</mgrwt>
</event>
<event>
 5    0  0.3372079E-003  0.5206421E+03  0.7546771E-02  0.1008527E+00
         21   -1    0    0  503  502  0.00000000000E+00  0.00000000000E+00  0.26437983906E+03  0.26437983906E+03  0.00000000000E+00 0.  1.
         21   -1    0    0  501  503 -0.00000000000E+00 -0.00000000000E+00 -0.25632459095E+03  0.25632459095E+03  0.00000000000E+00 0.  1.
         25    1    1    2    0    0  0.98582360058E+02  0.19506931014E+03  0.74987047330E+02  0.26271386476E+03  0.12500000000E+03 0.  0.
          3    1    1    2  501    0  0.13952515284E+02 -0.96572320947E+02 -0.10469169621E+02  0.98135056776E+02  0.00000000000E+00 0. -1.
         -3    1    1    2    0  502 -0.11253487534E+03 -0.98496989188E+02 -0.56462629599E+02  0.15985550847E+03  0.00000000000E+00 0.  1.
<mgrwt>
<rscale>  4 0.52064212E+03</rscale>
<asrwt>0</asrwt>
<pdfrwt beam="1">  1       21 0.40673821E-01 0.52064212E+03</pdfrwt>
<pdfrwt beam="2">  1       21 0.39434553E-01 0.52064212E+03</pdfrwt>
<totfact> 0.32481227E+04</totfact>
</mgrwt>
</event>
<event>
 5    0  0.3372079E-003  0.5096489E+03  0.7546771E-02  0.1011291E+00
         21   -1    0    0  503  502  0.00000000000E+00  0.00000000000E+00  0.11023229091E+03  0.11023229091E+03  0.00000000000E+00 0.  1.
         21   -1    0    0  501  503 -0.00000000000E+00 -0.00000000000E+00 -0.58907878472E+03  0.58907878472E+03  0.00000000000E+00 0.  1.
         25    1    1    2    0    0  0.93617770736E+02 -0.19555192791E+03 -0.12645454881E+03  0.28039364548E+03  0.12500000000E+03 0.  0.
          1    1    1    2  501    0 -0.75631082165E+02  0.83819644327E+02 -0.18922204319E+03  0.22034240398E+03  0.00000000000E+00 0. -1.
         -1    1    1    2    0  502 -0.17986688571E+02  0.11173228358E+03 -0.16316990181E+03  0.19857502617E+03  0.00000000000E+00 0.  1.
<mgrwt>
<rscale>  4 0.50964891E+03</rscale>
<asrwt>0</asrwt>
<pdfrwt beam="1">  1       21 0.16958814E-01 0.50964891E+03</pdfrwt>
<pdfrwt beam="2">  1       21 0.90627503E-01 0.50964891E+03</pdfrwt>
<totfact> 0.29042956E+04</totfact>
</mgrwt>
</event>
<event>
 5    0  0.3372079E-003  0.1213668E+04  0.7546771E-02  0.9100977E-01
         21   -1    0    0  501  502  0.00000000000E+00  0.00000000000E+00  0.58411502135E+03  0.58411502135E+03  0.00000000000E+00 0.  1.
         21   -1    0    0  502  503 -0.00000000000E+00 -0.00000000000E+00 -0.63043635529E+03  0.63043635529E+03  0.00000000000E+00 0.  1.
         25    1    1    2    0    0  0.47281353726E+03 -0.21827722438E+03  0.13906394415E+02  0.53573871944E+03  0.12500000000E+03 0.  0.
          4    1    1    2  501    0 -0.23672199026E+03  0.25819654197E+03  0.12934829564E+03  0.37340827059E+03  0.00000000000E+00 0. -1.
         -4    1    1    2    0  503 -0.23609154701E+03 -0.39919317589E+02 -0.18957602400E+03  0.30540438661E+03  0.00000000000E+00 0.  1.
<mgrwt>
<rscale>  4 0.12136677E+04</rscale>
<asrwt>0</asrwt>
<pdfrwt beam="1">  1       21 0.89863850E-01 0.12136677E+04</pdfrwt>
<pdfrwt beam="2">  1       21 0.96990208E-01 0.12136677E+04</pdfrwt>
<totfact> 0.65471370E+02</totfact>
</mgrwt>
</event>
<event>
 5    0  0.3372079E-003  0.6667945E+03  0.7546771E-02  0.9775766E-01
         21   -1    0    0  501  502  0.00000000000E+00  0.00000000000E+00  0.11787710148E+04  0.11787710148E+04  0.00000000000E+00 0. -1.
         21   -1    0    0  502  503 -0.00000000000E+00 -0.00000000000E+00 -0.94296294515E+02  0.94296294515E+02  0.00000000000E+00 0. -1.
         25    1    1    2    0    0 -0.21442706312E+03  0.13104496861E+03  0.86343067767E+03  0.90790378583E+03  0.12500000000E+03 0.  0.
          4    1    1    2  501    0  0.77349408125E+01 -0.32642988136E+02  0.10151831754E+03  0.10691755131E+03  0.00000000000E+00 0.  1.
         -4    1    1    2    0  503  0.20669212231E+03 -0.98401980469E+02  0.11952572508E+03  0.25824597217E+03  0.00000000000E+00 0. -1.
<mgrwt>
<rscale>  4 0.66679454E+03</rscale>
<asrwt>0</asrwt>
<pdfrwt beam="1">  1       21 0.18134938E+00 0.66679454E+03</pdfrwt>
<pdfrwt beam="2">  1       21 0.14507123E-01 0.66679454E+03</pdfrwt>
<totfact> 0.60560577E+03</totfact>
</mgrwt>
</event>
<event>
 5    0  0.3372079E-003  0.5216290E+03  0.7546771E-02  0.1008283E+00
         21   -1    0    0  501  502  0.00000000000E+00  0.00000000000E+00  0.13586965892E+04  0.13586965892E+04  0.00000000000E+00 0.  1.
         21   -1    0    0  502  503 -0.00000000000E+00 -0.00000000000E+00 -0.50065784699E+02  0.50065784699E+02  0.00000000000E+00 0.  1.
         25    1    1    2    0    0  0.18931467473E+03 -0.11720540740E+03  0.80242824961E+03  0.84207674791E+03  0.12500000000E+03 0.  0.
          4    1    1    2  501    0 -0.62380070298E+02 -0.83002600010E+01  0.63734000976E+02  0.89566681120E+02  0.00000000000E+00 0. -1.
         -4    1    1    2    0  503 -0.12693460443E+03  0.12550566740E+03  0.44246855390E+03  0.47711894485E+03  0.00000000000E+00 0.  1.
<mgrwt>
<rscale>  4 0.52162903E+03</rscale>
<asrwt>0</asrwt>
<pdfrwt beam="1">  1       21 0.20903022E+00 0.52162903E+03</pdfrwt>
<pdfrwt beam="2">  1       21 0.77024295E-02 0.52162903E+03</pdfrwt>
<totfact> 0.12864036E+04</totfact>
</mgrwt>
</event>
<event>
 5    0  0.3372079E-003  0.7382926E+03  0.7546771E-02  0.9653899E-01
         21   -1    0    0  503  502  0.00000000000E+00  0.00000000000E+00  0.13008981917E+04  0.13008981917E+04  0.00000000000E+00 0. -1.
         21   -1    0    0  501  503 -0.00000000000E+00 -0.00000000000E+00 -0.10474993341E+03  0.10474993341E+03  0.00000000000E+00 0. -1.
         25    1    1    2    0    0 -0.21469699004E+03  0.23335148699E+03  0.89758602490E+03  0.96012154757E+03  0.12500000000E+03 0.  0.
          2    1    1    2  501    0  0.50466250217E+02 -0.11997467238E+03  0.10139908287E+03  0.16499254053E+03  0.00000000000E+00 0. -1.
         -2    1    1    2    0  502  0.16423073983E+03 -0.11337681461E+03  0.19716315048E+03  0.28053403698E+03  0.00000000000E+00 0.  1.
<mgrwt>
<rscale>  4 0.73829262E+03</rscale>
<asrwt>0</asrwt>
<pdfrwt beam="1">  1       21 0.20013817E+00 0.73829262E+03</pdfrwt>
<pdfrwt beam="2">  1       21 0.16115375E-01 0.73829262E+03</pdfrwt>
<totfact> 0.36191981E+03</totfact>
</mgrwt>
</event>
<event>
 5    0  0.3372079E-003  0.5238176E+03  0.7546771E-02  0.1007743E+00
         21   -1    0    0  501  502  0.00000000000E+00  0.00000000000E+00  0.12815751613E+03  0.12815751613E+03  0.00000000000E+00 0. -1.
         21   -1    0    0  502  503 -0.00000000000E+00 -0.00000000000E+00 -0.53524938967E+03  0.53524938967E+03  0.00000000000E+00 0. -1.
         25    1    1    2    0    0  0.14670890282E+03  0.15257118747E+03 -0.29990343923E+03  0.38777382877E+03  0.12500000000E+03 0.  0.
          2    1    1    2  501    0  0.57133840094E+01 -0.51337088550E+02  0.17127663704E+02  0.54419631399E+02  0.00000000000E+00 0.  1.
         -2    1    1    2    0  503 -0.15242228683E+03 -0.10123409892E+03 -0.12431609801E+03  0.22121344564E+03  0.00000000000E+00 0. -1.
<mgrwt>
<rscale>  4 0.52381765E+03</rscale>
<asrwt>0</asrwt>
<pdfrwt beam="1">  1       21 0.19716541E-01 0.52381765E+03</pdfrwt>
<pdfrwt beam="2">  1       21 0.82346060E-01 0.52381765E+03</pdfrwt>
<totfact> 0.27286082E+04</totfact>
</mgrwt>
</event>
<event>
 5    0  0.3372079E-003  0.5157684E+03  0.7546771E-02  0.1009743E+00
         21   -1    0    0  501  502  0.00000000000E+00  0.00000000000E+00  0.32235442971E+02  0.32235442971E+02  0.00000000000E+00 0.  1.
         21   -1    0    0  502  503 -0.00000000000E+00 -0.00000000000E+00 -0.20630790769E+04  0.20630790769E+04  0.00000000000E+00 0.  1.
         25    1    1    2    0    0  0.11512675031E+03 -0.20244405589E+03 -0.12523580539E+04  0.12799466627E+04  0.12500000000E+03 0.  0.
          2    1    1    2  501    0 -0.72197670028E+02  0.18013456745E+03 -0.62632852828E+03  0.65570449997E+03  0.00000000000E+00 0.  1.
         -2    1    1    2    0  503 -0.42929080282E+02  0.22309488437E+02 -0.15215705176E+03  0.15966335712E+03  0.00000000000E+00 0. -1.
<mgrwt>
<rscale>  4 0.51576843E+03</rscale>
<asrwt>0</asrwt>
<pdfrwt beam="1">  1       21 0.49592985E-02 0.51576843E+03</pdfrwt>
<pdfrwt beam="2">  1       21 0.31739681E+00 0.51576843E+03</pdfrwt>
<totfact> 0.59544193E+03</totfact>
</mgrwt>
</event>
<event>
 5    0  0.3372079E-003  0.5891986E+03  0.7546771E-02  0.9928072E-01
         21   -1    0    0  501  502  0.00000000000E+00  0.00000000000E+00  0.71200369110E+02  0.71200369110E+02  0.00000000000E+00 0.  1.
         21   -1    0    0  502  503 -0.00000000000E+00 -0.00000000000E+00 -0.12189367493E+04  0.12189367493E+04  0.00000000000E+00 0.  1.
         25    1    1    2    0    0 -0.12008264822E+03 -0.23986078927E+03 -0.47854227754E+03  0.56265509153E+03  0.12500000000E+03 0.  0.
          3    1    1    2  501    0  0.94478551515E+02  0.24103160537E+03 -0.62309237976E+03  0.67473442568E+03  0.00000000000E+00 0.  1.
         -3    1    1    2    0  503  0.25604096701E+02 -0.11708161075E+01 -0.46101722838E+02  0.52747601148E+02  0.00000000000E+00 0. -1.
<mgrwt>
<rscale>  4 0.58919860E+03</rscale>
<asrwt>0</asrwt>
<pdfrwt beam="1">  1       21 0.10953903E-01 0.58919860E+03</pdfrwt>
<pdfrwt beam="2">  1       21 0.18752872E+00 0.58919860E+03</pdfrwt>
<totfact> 0.93701962E+03</totfact>
</mgrwt>
</event>
<event>
 5    0  0.3372079E-003  0.5410952E+03  0.7546771E-02  0.1003576E+00
         21   -1    0    0  503  502  0.00000000000E+00  0.00000000000E+00  0.41641938572E+03  0.41641938572E+03  0.00000000000E+00 0.  1.
         21   -1    0    0  501  503 -0.00000000000E+00 -0.00000000000E+00 -0.17577469876E+03  0.17577469876E+03  0.00000000000E+00 0.  1.
         25    1    1    2    0    0  0.27665092545E+02  0.20371562066E+03  0.16397441367E+03  0.29116665294E+03  0.12500000000E+03 0.  0.
          3    1    1    2  501    0 -0.11436638390E+03 -0.12563988257E+03  0.71234183203E+02  0.18422637899E+03  0.00000000000E+00 0.  1.
         -3    1    1    2    0  502  0.86701291354E+02 -0.78075738094E+02  0.54360900920E+01  0.11680105255E+03  0.00000000000E+00 0. -1.
<mgrwt>
<rscale>  4 0.54109516E+03</rscale>
<asrwt>0</asrwt>
<pdfrwt beam="1">  1       21 0.64064521E-01 0.54109516E+03</pdfrwt>
<pdfrwt beam="2">  1       21 0.27042262E-01 0.54109516E+03</pdfrwt>
<totfact> 0.26111072E+04</totfact>
</mgrwt>
</event>
<event>
 5    0  0.3372079E-003  0.6440546E+03  0.7546771E-02  0.9818000E-01
         21   -1    0    0  503  502  0.00000000000E+00  0.00000000000E+00  0.48292627694E+03  0.48292627694E+03  0.00000000000E+00 0.  1.
         21   -1    0    0  501  503 -0.00000000000E+00 -0.00000000000E+00 -0.21473587227E+03  0.21473587227E+03  0.00000000000E+00 0.  1.
         25    1    1    2    0    0 -0.20493540536E+03 -0.35844389629E+02  0.47242654466E+02  0.24726546269E+03  0.12500000000E+03 0.  0.
          4    1    1    2  501    0  0.10470609988E+03 -0.74422136311E+02 -0.52666377797E+02  0.13883720350E+03  0.00000000000E+00 0. -1.
         -4    1    1    2    0  502  0.10022930548E+03  0.11026652594E+03  0.27361412799E+03  0.31155948302E+03  0.00000000000E+00 0.  1.
<mgrwt>
<rscale>  4 0.64405464E+03</rscale>
<asrwt>0</asrwt>
<pdfrwt beam="1">  1       21 0.74296350E-01 0.64405464E+03</pdfrwt>
<pdfrwt beam="2">  1       21 0.33036288E-01 0.64405464E+03</pdfrwt>
<totfact> 0.12267681E+04</totfact>
</mgrwt>
</event>
<event>
 5    0  0.3372079E-003  0.4793691E+03  0.7546771E-02  0.1019309E+00
         21   -1    0    0  501  502  0.00000000000E+00  0.00000000000E+00  0.55111016577E+03  0.55111016577E+03  0.00000000000E+00 0.  1.
         21   -1    0    0  502  503 -0.00000000000E+00 -0.00000000000E+00 -0.10424175909E+03  0.10424175909E+03  0.00000000000E+00 0.  1.
         25    1    1    2    0    0  0.20301838885E+03 -0.65677917090E+02  0.22641015418E+03  0.33528586747E+03  0.12500000000E+03 0.  0.
          2    1    1    2  501    0 -0.50449017565E+02  0.49221201846E+02  0.11132813468E+03  0.13176412128E+03  0.00000000000E+00 0.  1.
         -2    1    1    2    0  503 -0.15256937129E+03  0.16456715244E+02  0.10913011781E+03  0.18830193612E+03  0.00000000000E+00 0. -1.
<mgrwt>
<rscale>  4 0.47936914E+03</rscale>
<asrwt>0</asrwt>
<pdfrwt beam="1">  1       21 0.84786178E-01 0.47936914E+03</pdfrwt>
<pdfrwt beam="2">  1       21 0.16037194E-01 0.47936914E+03</pdfrwt>
<totfact> 0.37992868E+04</totfact>
</mgrwt>
</event>
<event>
 5    0  0.3372079E-003  0.5222223E+03  0.7546771E-02  0.1008136E+00
         21   -1    0    0  503  502  0.00000000000E+00  0.00000000000E+00  0.14289476777E+03  0.14289476777E+03  0.00000000000E+00 0. -1.
         21   -1    0    0  501  503 -0.00000000000E+00 -0.00000000000E+00 -0.47712754442E+03  0.47712754442E+03  0.00000000000E+00 0. -1.
         25    1    1    2    0    0  0.47130067193E+01 -0.24211984525E+03 -0.21431935218E+03  0.34670162476E+03  0.12500000000E+03 0.  0.
          1    1    1    2  501    0 -0.16056091150E+02  0.22123900373E+03 -0.10951255318E+03  0.24738127282E+03  0.00000000000E+00 0. -1.
         -1    1    1    2    0  502  0.11343084431E+02  0.20880841514E+02 -0.10400871283E+02  0.25939414608E+02  0.00000000000E+00 0.  1.
<mgrwt>
<rscale>  4 0.52222229E+03</rscale>
<asrwt>0</asrwt>
<pdfrwt beam="1">  1       21 0.21983810E-01 0.52222229E+03</pdfrwt>
<pdfrwt beam="2">  1       21 0.73404238E-01 0.52222229E+03</pdfrwt>
<totfact> 0.28878501E+04</totfact>
</mgrwt>
</event>
<event>
 5    0  0.3372079E-003  0.8381030E+03  0.7546771E-02  0.9506445E-01
         21   -1    0    0  501  502  0.00000000000E+00  0.00000000000E+00  0.15152857899E+04  0.15152857899E+04  0.00000000000E+00 0. -1.
         21   -1    0    0  502  503 -0.00000000000E+00 -0.00000000000E+00 -0.11588848314E+03  0.11588848314E+03  0.00000000000E+00 0. -1.
         25    1    1    2    0    0  0.24989102916E+03 -0.17617557426E+03  0.23482010691E+03  0.40527625397E+03  0.12500000000E+03 0.  0.
          2    1    1    2  501    0 -0.13965451188E+03  0.19749728403E+03  0.98372313759E+03  0.10130250596E+04  0.00000000000E+00 0. -1.
         -2    1    1    2    0  503 -0.11023651728E+03 -0.21321709772E+02  0.18085406221E+03  0.21287295946E+03  0.00000000000E+00 0.  1.
<mgrwt>
<rscale>  4 0.83810303E+03</rscale>
<asrwt>0</asrwt>
<pdfrwt beam="1">  1       21 0.23312088E+00 0.83810303E+03</pdfrwt>
<pdfrwt beam="2">  1       21 0.17828998E-01 0.83810303E+03</pdfrwt>
<totfact> 0.17694157E+03</totfact>
</mgrwt>
</event>
<event>
 5    0  0.3372079E-003  0.8280457E+03  0.7546771E-02  0.9520286E-01
         21   -1    0    0  503  502  0.00000000000E+00  0.00000000000E+00  0.80024132237E+03  0.80024132237E+03  0.00000000000E+00 0. -1.
         21   -1    0    0  501  503 -0.00000000000E+00 -0.00000000000E+00 -0.21420404188E+03  0.21420404188E+03  0.00000000000E+00 0. -1.
         25    1    1    2    0    0 -0.83562031992E+02  0.28072562502E+03  0.34110122938E+01  0.31847468461E+03  0.12500000000E+03 0.  0.
          4    1    1    2  501    0  0.79233861941E+02 -0.32812103141E+01  0.45556180913E+02  0.91455655039E+02  0.00000000000E+00 0.  1.
         -4    1    1    2    0  502  0.43281700508E+01 -0.27744441470E+03  0.53707008729E+03  0.60451502460E+03  0.00000000000E+00 0. -1.
<mgrwt>
<rscale>  4 0.82804571E+03</rscale>
<asrwt>0</asrwt>
<pdfrwt beam="1">  1       21 0.12311405E+00 0.82804571E+03</pdfrwt>
<pdfrwt beam="2">  1       21 0.32954468E-01 0.82804571E+03</pdfrwt>
<totfact> 0.34777003E+03</totfact>
</mgrwt>
</event>
<event>
 5    0  0.3372079E-003  0.6342750E+03  0.7546771E-02  0.9836742E-01
         21   -1    0    0  503  502  0.00000000000E+00  0.00000000000E+00  0.87955823359E+03  0.87955823359E+03  0.00000000000E+00 0.  1.
         21   -1    0    0  501  503 -0.00000000000E+00 -0.00000000000E+00 -0.11434854863E+03  0.11434854863E+03  0.00000000000E+00 0.  1.
         25    1    1    2    0    0  0.27748576570E+03  0.64010943811E+02  0.53902780071E+03  0.62231159481E+03  0.12500000000E+03 0.  0.
          1    1    1    2  501    0 -0.69196276268E+02  0.94273615689E+01  0.82615492373E+02  0.10817725905E+03  0.00000000000E+00 0. -1.
         -1    1    1    2    0  502 -0.20828948943E+03 -0.73438305380E+02  0.14356639188E+03  0.26341792836E+03  0.00000000000E+00 0.  1.
<mgrwt>
<rscale>  4 0.63427504E+03</rscale>
<asrwt>0</asrwt>
<pdfrwt beam="1">  1       21 0.13531665E+00 0.63427504E+03</pdfrwt>
<pdfrwt beam="2">  1       21 0.17592085E-01 0.63427504E+03</pdfrwt>
<totfact> 0.96502801E+03</totfact>
</mgrwt>
</event>
<event>
 5    0  0.3372079E-003  0.9236782E+03  0.7546771E-02  0.9396457E-01
         21   -1    0    0  503  502  0.00000000000E+00  0.00000000000E+00  0.16940395998E+04  0.16940395998E+04  0.00000000000E+00 0. -1.
         21   -1    0    0  501  503 -0.00000000000E+00 -0.00000000000E+00 -0.12590929776E+03  0.12590929776E+03  0.00000000000E+00 0. -1.
         25    1    1    2    0    0  0.98061071683E+02 -0.41949973134E+03  0.10343891530E+04  0.11274670364E+04  0.12500000000E+03 0.  0.
          2    1    1    2  501    0  0.26880574247E+01  0.97766942629E+02  0.17294131293E+03  0.19868139934E+03  0.00000000000E+00 0.  1.
         -2    1    1    2    0  502 -0.10074912911E+03  0.32173278871E+03  0.36079983614E+03  0.49380046183E+03  0.00000000000E+00 0. -1.
<mgrwt>
<rscale>  4 0.92367816E+03</rscale>
<asrwt>0</asrwt>
<pdfrwt beam="1">  1       21 0.26062146E+00 0.92367816E+03</pdfrwt>
<pdfrwt beam="2">  1       21 0.19370662E-01 0.92367816E+03</pdfrwt>
<totfact> 0.99036459E+02</totfact>
</mgrwt>
</event>
<event>
 5    0  0.3372079E-003  0.5075956E+03  0.7546771E-02  0.1011815E+00
         21   -1    0    0  501  502  0.00000000000E+00  0.00000000000E+00  0.78690301342E+02  0.78690301342E+02  0.00000000000E+00 0.  1.
         21   -1    0    0  502  503 -0.00000000000E+00 -0.00000000000E+00 -0.81856758762E+03  0.81856758762E+03  0.00000000000E+00 0.  1.
         25    1    1    2    0    0  0.14573070304E+03 -0.14274582124E+03 -0.20092060144E+03  0.31242262302E+03  0.12500000000E+03 0.  0.
          2    1    1    2  501    0 -0.47323066902E+02 -0.26853045711E+01 -0.74579890545E+02  0.88367661480E+02  0.00000000000E+00 0. -1.
         -2    1    1    2    0  503 -0.98407636138E+02  0.14543112581E+03 -0.46437679429E+03  0.49646760446E+03  0.00000000000E+00 0.  1.
<mgrwt>
<rscale>  4 0.50759563E+03</rscale>
<asrwt>0</asrwt>
<pdfrwt beam="1">  1       21 0.12106201E-01 0.50759563E+03</pdfrwt>
<pdfrwt beam="2">  1       21 0.12593347E+00 0.50759563E+03</pdfrwt>
<totfact> 0.24023131E+04</totfact>
</mgrwt>
</event>
<event>
 5    0  0.3372079E-003  0.4531181E+03  0.7546771E-02  0.1026796E+00
         21   -1    0    0  501  502  0.00000000000E+00  0.00000000000E+00  0.47418434485E+02  0.47418434485E+02  0.00000000000E+00 0. -1.
         21   -1    0    0  502  503 -0.00000000000E+00 -0.00000000000E+00 -0.10824692803E+04  0.10824692803E+04  0.00000000000E+00 0. -1.
         25    1    1    2    0    0 -0.17179912258E+03 -0.11389952560E+03 -0.52196780700E+03  0.57494646011E+03  0.12500000000E+03 0.  0.
          2    1    1    2  501    0  0.13272453693E+03  0.72935595082E+02 -0.32559211192E+03  0.35908999858E+03  0.00000000000E+00 0. -1.
         -2    1    1    2    0  503  0.39074585654E+02  0.40963930518E+02 -0.18749092689E+03  0.19585125610E+03  0.00000000000E+00 0.  1.
<mgrwt>
<rscale>  4 0.45311808E+03</rscale>
<asrwt>0</asrwt>
<pdfrwt beam="1">  1       21 0.72951431E-02 0.45311808E+03</pdfrwt>
<pdfrwt beam="2">  1       21 0.16653375E+00 0.45311808E+03</pdfrwt>
<totfact> 0.28461740E+04</totfact>
</mgrwt>
</event>
<event>
 5    0  0.3372079E-003  0.4856617E+03  0.7546771E-02  0.1017591E+00
         21   -1    0    0  503  502  0.00000000000E+00  0.00000000000E+00  0.28537692945E+03  0.28537692945E+03  0.00000000000E+00 0.  1.
         21   -1    0    0  501  503 -0.00000000000E+00 -0.00000000000E+00 -0.20662786818E+03  0.20662786818E+03  0.00000000000E+00 0.  1.
         25    1    1    2    0    0  0.14709194490E+02 -0.21680011585E+03  0.58934522867E+02  0.25752073435E+03  0.12500000000E+03 0.  0.
          2    1    1    2  501    0 -0.37885942040E+02  0.18455154869E+03 -0.35006618839E+01  0.18843267594E+03  0.00000000000E+00 0.  1.
         -2    1    1    2    0  502  0.23176747550E+02  0.32248567161E+02  0.23315200295E+02  0.46051387337E+02  0.00000000000E+00 0. -1.
<mgrwt>
<rscale>  4 0.48566172E+03</rscale>
<asrwt>0</asrwt>
<pdfrwt beam="1">  1       21 0.43904143E-01 0.48566172E+03</pdfrwt>
<pdfrwt beam="2">  1       21 0.31788903E-01 0.48566172E+03</pdfrwt>
<totfact> 0.43233752E+04</totfact>
</mgrwt>
</event>
<event>
 5    0  0.3372079E-003  0.4888619E+03  0.7546771E-02  0.1016728E+00
         21   -1    0    0  501  502  0.00000000000E+00  0.00000000000E+00  0.17599013962E+03  0.17599013962E+03  0.00000000000E+00 0.  1.
         21   -1    0    0  502  503 -0.00000000000E+00 -0.00000000000E+00 -0.33948773338E+03  0.33948773338E+03  0.00000000000E+00 0.  1.
         25    1    1    2    0    0 -0.12096364012E+03 -0.16357254052E+03 -0.81039533968E+02  0.25215190721E+03  0.12500000000E+03 0.  0.
          1    1    1    2  501    0  0.10616581125E+03  0.98630234265E+02  0.14564291715E+02  0.14564072639E+03  0.00000000000E+00 0.  1.
         -1    1    1    2    0  503  0.14797828861E+02  0.64942306254E+02 -0.97022351512E+02  0.11768523940E+03  0.00000000000E+00 0. -1.
<mgrwt>
<rscale>  4 0.48886192E+03</rscale>
<asrwt>0</asrwt>
<pdfrwt beam="1">  1       21 0.27075406E-01 0.48886192E+03</pdfrwt>
<pdfrwt beam="2">  1       21 0.52228882E-01 0.48886192E+03</pdfrwt>
<totfact> 0.41136925E+04</totfact>
</mgrwt>
</event>
<event>
 5    0  0.3372079E-003  0.6568735E+03  0.7546771E-02  0.9793966E-01
         21   -1    0    0  501  502  0.00000000000E+00  0.00000000000E+00  0.21524167830E+03  0.21524167830E+03  0.00000000000E+00 0.  1.
         21   -1    0    0  502  503 -0.00000000000E+00 -0.00000000000E+00 -0.50116086589E+03  0.50116086589E+03  0.00000000000E+00 0.  1.
         25    1    1    2    0    0 -0.24154794720E+03 -0.55108111464E+02 -0.14721622157E+03  0.31413361909E+03  0.12500000000E+03 0.  0.
          1    1    1    2  501    0  0.29121529222E+02  0.12310182744E+03  0.20617051401E+02  0.12816858504E+03  0.00000000000E+00 0. -1.
         -1    1    1    2    0  503  0.21242641798E+03 -0.67993715977E+02 -0.15932001742E+03  0.27410034006E+03  0.00000000000E+00 0.  1.
<mgrwt>
<rscale>  4 0.65687352E+03</rscale>
<asrwt>0</asrwt>
<pdfrwt beam="1">  1       21 0.33114105E-01 0.65687352E+03</pdfrwt>
<pdfrwt beam="2">  1       21 0.77101670E-01 0.65687352E+03</pdfrwt>
<totfact> 0.11181868E+04</totfact>
</mgrwt>
</event>
<event>
 5    0  0.3372079E-003  0.5660194E+03  0.7546771E-02  0.9978526E-01
         21   -1    0    0  501  502  0.00000000000E+00  0.00000000000E+00  0.24256210819E+03  0.24256210819E+03  0.00000000000E+00 0. -1.
         21   -1    0    0  502  503 -0.00000000000E+00 -0.00000000000E+00 -0.33020199779E+03  0.33020199779E+03  0.00000000000E+00 0. -1.
         25    1    1    2    0    0  0.20598906121E+03  0.32730357165E+02  0.11487987687E+03  0.26893336671E+03  0.12500000000E+03 0.  0.
          2    1    1    2  501    0 -0.11101503517E+02 -0.21118531466E+02 -0.52328734851E+02  0.57511148856E+02  0.00000000000E+00 0.  1.
         -2    1    1    2    0  503 -0.19488755769E+03 -0.11611825699E+02 -0.15019103162E+03  0.24631959041E+03  0.00000000000E+00 0. -1.
<mgrwt>
<rscale>  4 0.56601941E+03</rscale>
<asrwt>0</asrwt>
<pdfrwt beam="1">  1       21 0.37317248E-01 0.56601941E+03</pdfrwt>
<pdfrwt beam="2">  1       21 0.50800307E-01 0.56601941E+03</pdfrwt>
<totfact> 0.22569868E+04</totfact>
</mgrwt>
</event>
<event>
 5    0  0.3372079E-003  0.4491550E+03  0.7546771E-02  0.1027974E+00
         21   -1    0    0  503  502  0.00000000000E+00  0.00000000000E+00  0.19742496668E+02  0.19742496668E+02  0.00000000000E+00 0. -1.
         21   -1    0    0  501  503 -0.00000000000E+00 -0.00000000000E+00 -0.25546436996E+04  0.25546436996E+04  0.00000000000E+00 0. -1.
         25    1    1    2    0    0  0.84186918498E+02  0.18585099781E+03 -0.14941409784E+04  0.15131788704E+04  0.12500000000E+03 0.  0.
          4    1    1    2  501    0 -0.33264553094E+02 -0.37033050114E+02 -0.27292060197E+03  0.27742320068E+03  0.00000000000E+00 0.  1.
         -4    1    1    2    0  502 -0.50922365404E+02 -0.14881794770E+03 -0.76783962258E+03  0.78378412517E+03  0.00000000000E+00 0. -1.
<mgrwt>
<rscale>  4 0.44915496E+03</rscale>
<asrwt>0</asrwt>
<pdfrwt beam="1">  1       21 0.30373062E-02 0.44915496E+03</pdfrwt>
<pdfrwt beam="2">  1       21 0.39302224E+00 0.44915496E+03</pdfrwt>
<totfact> 0.48255482E+03</totfact>
</mgrwt>
</event>
<event>
 5    0  0.3372079E-003  0.4780131E+03  0.7546771E-02  0.1019683E+00
         21   -1    0    0  503  502  0.00000000000E+00  0.00000000000E+00  0.16693211498E+03  0.16693211498E+03  0.00000000000E+00 0. -1.
         21   -1    0    0  501  503 -0.00000000000E+00 -0.00000000000E+00 -0.34219977607E+03  0.34219977607E+03  0.00000000000E+00 0. -1.
         25    1    1    2    0    0 -0.14861439001E+03  0.13691045291E+03 -0.23703734073E+02  0.23878353386E+03  0.12500000000E+03 0.  0.
          3    1    1    2  501    0  0.25266723573E+02 -0.80189224588E+02 -0.33764227058E+02  0.90602108635E+02  0.00000000000E+00 0. -1.
         -3    1    1    2    0  502  0.12334766643E+03 -0.56721228322E+02 -0.11779969996E+03  0.17974624855E+03  0.00000000000E+00 0.  1.
<mgrwt>
<rscale>  4 0.47801311E+03</rscale>
<asrwt>0</asrwt>
<pdfrwt beam="1">  1       21 0.25681864E-01 0.47801311E+03</pdfrwt>
<pdfrwt beam="2">  1       21 0.52646119E-01 0.47801311E+03</pdfrwt>
<totfact> 0.44954450E+04</totfact>
</mgrwt>
</event>
<event>
 5    0  0.3372079E-003  0.5088233E+03  0.7546771E-02  0.1011501E+00
         21   -1    0    0  501  502  0.00000000000E+00  0.00000000000E+00  0.40409103324E+03  0.40409103324E+03  0.00000000000E+00 0. -1.
         21   -1    0    0  502  503 -0.00000000000E+00 -0.00000000000E+00 -0.16017503942E+03  0.16017503942E+03  0.00000000000E+00 0. -1.
         25    1    1    2    0    0 -0.20736758960E+03  0.30168881027E+02  0.16062394911E+03  0.29212417159E+03  0.12500000000E+03 0.  0.
          2    1    1    2  501    0  0.69591233845E+02  0.62069627448E+02  0.31984361656E+02  0.98582847748E+02  0.00000000000E+00 0.  1.
         -2    1    1    2    0  503  0.13777635576E+03 -0.92238508475E+02  0.51307683054E+02  0.17355905333E+03  0.00000000000E+00 0. -1.
<mgrwt>
<rscale>  4 0.50882334E+03</rscale>
<asrwt>0</asrwt>
<pdfrwt beam="1">  1       21 0.62167851E-01 0.50882334E+03</pdfrwt>
<pdfrwt beam="2">  1       21 0.24642314E-01 0.50882334E+03</pdfrwt>
<totfact> 0.33706851E+04</totfact>
</mgrwt>
</event>
<event>
 5    0  0.3372079E-003  0.4799361E+03  0.7546771E-02  0.1019153E+00
         21   -1    0    0  503  502  0.00000000000E+00  0.00000000000E+00  0.11094297942E+03  0.11094297942E+03  0.00000000000E+00 0. -1.
         21   -1    0    0  501  503 -0.00000000000E+00 -0.00000000000E+00 -0.51904732447E+03  0.51904732447E+03  0.00000000000E+00 0. -1.
         25    1    1    2    0    0 -0.21395215658E+03 -0.14624770540E+02 -0.28036377209E+03  0.37445727916E+03  0.12500000000E+03 0.  0.
          4    1    1    2  501    0  0.17692240118E+03  0.12427793683E+02 -0.12751050543E+03  0.21843743977E+03  0.00000000000E+00 0. -1.
         -4    1    1    2    0  502  0.37029755394E+02  0.21969768564E+01 -0.23006752743E+00  0.37095584952E+02  0.00000000000E+00 0.  1.
<mgrwt>
<rscale>  4 0.47993607E+03</rscale>
<asrwt>0</asrwt>
<pdfrwt beam="1">  1       21 0.17068151E-01 0.47993607E+03</pdfrwt>
<pdfrwt beam="2">  1       21 0.79853433E-01 0.47993607E+03</pdfrwt>
<totfact> 0.38865466E+04</totfact>
</mgrwt>
</event>
<event>
 5    0  0.3372079E-003  0.6184259E+03  0.7546771E-02  0.9867899E-01
         21   -1    0    0  503  502  0.00000000000E+00  0.00000000000E+00  0.14386019331E+03  0.14386019331E+03  0.00000000000E+00 0.  1.
         21   -1    0    0  501  503 -0.00000000000E+00 -0.00000000000E+00 -0.66462190103E+03  0.66462190103E+03  0.00000000000E+00 0.  1.
         25    1    1    2    0    0  0.13074421745E+02  0.25343741684E+03 -0.33547539118E+03  0.43882821564E+03  0.12500000000E+03 0.  0.
          1    1    1    2  501    0 -0.22326448192E+02 -0.22964055218E+03 -0.22511067420E+03  0.32234774566E+03  0.00000000000E+00 0. -1.
         -1    1    1    2    0  502  0.92520264468E+01 -0.23796864656E+02  0.39824357654E+02  0.47306133042E+02  0.00000000000E+00 0.  1.
<mgrwt>
<rscale>  4 0.61842586E+03</rscale>
<asrwt>0</asrwt>
<pdfrwt beam="1">  1       21 0.22132338E-01 0.61842586E+03</pdfrwt>
<pdfrwt beam="2">  1       21 0.10224952E+00 0.61842586E+03</pdfrwt>
<totfact> 0.12756119E+04</totfact>
</mgrwt>
</event>
<event>
 5    0  0.3372079E-003  0.6620035E+03  0.7546771E-02  0.9784513E-01
         21   -1    0    0  501  502  0.00000000000E+00  0.00000000000E+00  0.42920810072E+03  0.42920810072E+03  0.00000000000E+00 0. -1.
         21   -1    0    0  502  503 -0.00000000000E+00 -0.00000000000E+00 -0.25526582833E+03  0.25526582833E+03  0.00000000000E+00 0. -1.
         25    1    1    2    0    0  0.69817209129E+02  0.23555590758E+03  0.29261800455E+03  0.40200911043E+03  0.12500000000E+03 0.  0.
          1    1    1    2  501    0 -0.47997471471E+00 -0.12357254139E+03 -0.44759196222E+02  0.13142978737E+03  0.00000000000E+00 0. -1.
         -1    1    1    2    0  503 -0.69337234414E+02 -0.11198336619E+03 -0.73916535937E+02  0.15103503125E+03  0.00000000000E+00 0.  1.
<mgrwt>
<rscale>  4 0.66200351E+03</rscale>
<asrwt>0</asrwt>
<pdfrwt beam="1">  1       21 0.66032015E-01 0.66200351E+03</pdfrwt>
<pdfrwt beam="2">  1       21 0.39271666E-01 0.66200351E+03</pdfrwt>
<totfact> 0.11217370E+04</totfact>
</mgrwt>
</event>
<event>
 5    0  0.3372079E-003  0.4865041E+03  0.7546771E-02  0.1017363E+00
         21   -1    0    0  503  502  0.00000000000E+00  0.00000000000E+00  0.23950820532E+03  0.23950820532E+03  0.00000000000E+00 0. -1.
         21   -1    0    0  501  503 -0.00000000000E+00 -0.00000000000E+00 -0.24705436855E+03  0.24705436855E+03  0.00000000000E+00 0. -1.
         25    1    1    2    0    0  0.95390869754E+02 -0.18533844177E+03  0.56784457974E+02  0.24959813841E+03  0.12500000000E+03 0.  0.
          2    1    1    2  501    0 -0.41532402367E+02  0.12588879942E+02 -0.30072495922E+02  0.52799387833E+02  0.00000000000E+00 0.  1.
         -2    1    1    2    0  502 -0.53858467387E+02  0.17274956183E+03 -0.34258125287E+02  0.18416504763E+03  0.00000000000E+00 0. -1.
<mgrwt>
<rscale>  4 0.48650405E+03</rscale>
<asrwt>0</asrwt>
<pdfrwt beam="1">  1       21 0.36847416E-01 0.48650405E+03</pdfrwt>
<pdfrwt beam="2">  1       21 0.38008364E-01 0.48650405E+03</pdfrwt>
<totfact> 0.43223755E+04</totfact>
</mgrwt>
</event>
<event>
 5    0  0.3372079E-003  0.5145160E+03  0.7546771E-02  0.1010058E+00
         21   -1    0    0  503  502  0.00000000000E+00  0.00000000000E+00  0.10131650587E+03  0.10131650587E+03  0.00000000000E+00 0. -1.
         21   -1    0    0  501  503 -0.00000000000E+00 -0.00000000000E+00 -0.65321709413E+03  0.65321709413E+03  0.00000000000E+00 0. -1.
         25    1    1    2    0    0 -0.17045303047E+03  0.16021377272E+03 -0.33472562792E+03  0.42707017520E+03  0.12500000000E+03 0.  0.
          1    1    1    2  501    0  0.71450736092E+01 -0.21379838147E+02 -0.52591360507E+02  0.57218884611E+02  0.00000000000E+00 0.  1.
         -1    1    1    2    0  502  0.16330795686E+03 -0.13883393457E+03 -0.16458359984E+03  0.27024454018E+03  0.00000000000E+00 0. -1.
<mgrwt>
<rscale>  4 0.51451598E+03</rscale>
<asrwt>0</asrwt>
<pdfrwt beam="1">  1       21 0.15587155E-01 0.51451598E+03</pdfrwt>
<pdfrwt beam="2">  1       21 0.10049494E+00 0.51451598E+03</pdfrwt>
<totfact> 0.26489199E+04</totfact>
</mgrwt>
</event>
<event>
 5    0  0.3372079E-003  0.6017142E+03  0.7546771E-02  0.9901856E-01
         21   -1    0    0  503  502  0.00000000000E+00  0.00000000000E+00  0.37754965491E+03  0.37754965491E+03  0.00000000000E+00 0.  1.
         21   -1    0    0  501  503 -0.00000000000E+00 -0.00000000000E+00 -0.23974325585E+03  0.23974325585E+03  0.00000000000E+00 0.  1.
         25    1    1    2    0    0 -0.10844721545E+03 -0.20825260791E+03  0.18602019602E+03  0.32458968032E+03  0.12500000000E+03 0.  0.
          3    1    1    2  501    0  0.29692330803E+02 -0.60747869882E+01 -0.56607638138E+02  0.64210297002E+02  0.00000000000E+00 0. -1.
         -3    1    1    2    0  502  0.78754884646E+02  0.21432739490E+03  0.83938411749E+01  0.22849293344E+03  0.00000000000E+00 0.  1.
<mgrwt>
<rscale>  4 0.60171416E+03</rscale>
<asrwt>0</asrwt>
<pdfrwt beam="1">  1       21 0.58084562E-01 0.60171416E+03</pdfrwt>
<pdfrwt beam="2">  1       21 0.36883578E-01 0.60171416E+03</pdfrwt>
<totfact> 0.17168663E+04</totfact>
</mgrwt>
</event>
<event>
 5    0  0.3372079E-003  0.7404107E+03  0.7546771E-02  0.9650516E-01
         21   -1    0    0  501  502  0.00000000000E+00  0.00000000000E+00  0.51013539535E+03  0.51013539535E+03  0.00000000000E+00 0. -1.
         21   -1    0    0  502  503 -0.00000000000E+00 -0.00000000000E+00 -0.26865810574E+03  0.26865810574E+03  0.00000000000E+00 0. -1.
         25    1    1    2    0    0  0.73684259473E+02  0.23634590853E+03 -0.19692987032E+02  0.27803160308E+03  0.12500000000E+03 0.  0.
          2    1    1    2  501    0 -0.61270248481E+02 -0.27589602216E+03  0.32118502760E+03  0.42782295444E+03  0.00000000000E+00 0. -1.
         -2    1    1    2    0  503 -0.12414010992E+02  0.39550113630E+02 -0.60014750960E+02  0.72938943575E+02  0.00000000000E+00 0.  1.
<mgrwt>
<rscale>  4 0.74041072E+03</rscale>
<asrwt>0</asrwt>
<pdfrwt beam="1">  1       21 0.78482368E-01 0.74041072E+03</pdfrwt>
<pdfrwt beam="2">  1       21 0.41332016E-01 0.74041072E+03</pdfrwt>
<totfact> 0.66941592E+03</totfact>
</mgrwt>
</event>
<event>
 5    0  0.3372079E-003  0.9572702E+03  0.7546771E-02  0.9356693E-01
         21   -1    0    0  501  502  0.00000000000E+00  0.00000000000E+00  0.37490255245E+03  0.37490255245E+03  0.00000000000E+00 0.  1.
         21   -1    0    0  502  503 -0.00000000000E+00 -0.00000000000E+00 -0.61106959990E+03  0.61106959990E+03  0.00000000000E+00 0.  1.
         25    1    1    2    0    0  0.25010092681E+03 -0.49199224362E+02 -0.36253994263E+03  0.46046850845E+03  0.12500000000E+03 0.  0.
          2    1    1    2  501    0 -0.31633214571E+02  0.22641688008E+03  0.50151546754E+02  0.23405221958E+03  0.00000000000E+00 0.  1.
         -2    1    1    2    0  503 -0.21846771224E+03 -0.17721765571E+03  0.76221348422E+02  0.29145142433E+03  0.00000000000E+00 0. -1.
<mgrwt>
<rscale>  4 0.95727019E+03</rscale>
<asrwt>0</asrwt>
<pdfrwt beam="1">  1       21 0.57677316E-01 0.95727019E+03</pdfrwt>
<pdfrwt beam="2">  1       21 0.94010707E-01 0.95727019E+03</pdfrwt>
<totfact> 0.20495558E+03</totfact>
</mgrwt>
</event>
<event>
 5    0  0.3372079E-003  0.7443021E+03  0.7546771E-02  0.9644332E-01
         21   -1    0    0  501  502  0.00000000000E+00  0.00000000000E+00  0.21842147826E+03  0.21842147826E+03  0.00000000000E+00 0.  1.
         21   -1    0    0  502  503 -0.00000000000E+00 -0.00000000000E+00 -0.63407872384E+03  0.63407872384E+03  0.00000000000E+00 0.  1.
         25    1    1    2    0    0 -0.31142547456E+03 -0.11505813817E+03 -0.53267165476E+02  0.35872913498E+03  0.12500000000E+03 0.  0.
          2    1    1    2  501    0  0.18436370781E+02  0.15057309665E+02 -0.41796865434E+02  0.48099899190E+02  0.00000000000E+00 0. -1.
         -2    1    1    2    0  503  0.29298910378E+03  0.10000082851E+03 -0.32059321467E+03  0.44567116793E+03  0.00000000000E+00 0.  1.
<mgrwt>
<rscale>  4 0.74430212E+03</rscale>
<asrwt>0</asrwt>
<pdfrwt beam="1">  1       21 0.33603305E-01 0.74430212E+03</pdfrwt>
<pdfrwt beam="2">  1       21 0.97550571E-01 0.74430212E+03</pdfrwt>
<totfact> 0.61034935E+03</totfact>
</mgrwt>
</event>
<event>
 5    0  0.3372079E-003  0.5245918E+03  0.7546771E-02  0.1007552E+00
         21   -1    0    0  501  502  0.00000000000E+00  0.00000000000E+00  0.50215070819E+03  0.50215070819E+03  0.00000000000E+00 0.  1.
         21   -1    0    0  502  503 -0.00000000000E+00 -0.00000000000E+00 -0.13700892634E+03  0.13700892634E+03  0.00000000000E+00 0.  1.
         25    1    1    2    0    0  0.21035594653E+03  0.88925730281E+02  0.16484909328E+03  0.30815196462E+03  0.12500000000E+03 0.  0.
          3    1    1    2  501    0 -0.94611094989E+01 -0.50773666997E+02  0.75419247612E+02  0.91408647095E+02  0.00000000000E+00 0. -1.
         -3    1    1    2    0  503 -0.20089483703E+03 -0.38152063284E+02  0.12487344096E+03  0.23959902282E+03  0.00000000000E+00 0.  1.
<mgrwt>
<rscale>  4 0.52459176E+03</rscale>
<asrwt>0</asrwt>
<pdfrwt beam="1">  1       21 0.77253955E-01 0.52459176E+03</pdfrwt>
<pdfrwt beam="2">  1       21 0.21078297E-01 0.52459176E+03</pdfrwt>
<totfact> 0.27837084E+04</totfact>
</mgrwt>
</event>
<event>
 5    0  0.3372079E-003  0.5202363E+03  0.7546771E-02  0.1008628E+00
         21   -1    0    0  503  502  0.00000000000E+00  0.00000000000E+00  0.36773081167E+03  0.36773081167E+03  0.00000000000E+00 0. -1.
         21   -1    0    0  501  503 -0.00000000000E+00 -0.00000000000E+00 -0.18399725609E+03  0.18399725609E+03  0.00000000000E+00 0. -1.
         25    1    1    2    0    0  0.13301789254E+03 -0.15132370044E+03  0.23272802321E+03  0.33223478872E+03  0.12500000000E+03 0.  0.
          4    1    1    2  501    0 -0.13983558241E+03  0.13136578226E+03 -0.50353230188E+02  0.19835928677E+03  0.00000000000E+00 0. -1.
         -4    1    1    2    0  502  0.68176898720E+01  0.19957918184E+02  0.13587625640E+01  0.21133992267E+02  0.00000000000E+00 0.  1.
<mgrwt>
<rscale>  4 0.52023633E+03</rscale>
<asrwt>0</asrwt>
<pdfrwt beam="1">  1       21 0.56573971E-01 0.52023633E+03</pdfrwt>
<pdfrwt beam="2">  1       21 0.28307270E-01 0.52023633E+03</pdfrwt>
<totfact> 0.31500871E+04</totfact>
</mgrwt>
</event>
<event>
 5    0  0.3372079E-003  0.5628379E+03  0.7546771E-02  0.9985654E-01
         21   -1    0    0  503  502  0.00000000000E+00  0.00000000000E+00  0.25847635435E+03  0.25847635435E+03  0.00000000000E+00 0. -1.
         21   -1    0    0  501  503 -0.00000000000E+00 -0.00000000000E+00 -0.30639795532E+03  0.30639795532E+03  0.00000000000E+00 0. -1.
         25    1    1    2    0    0  0.12051765858E+03  0.20367234397E+03 -0.65306974549E+02  0.27549397571E+03  0.12500000000E+03 0.  0.
          3    1    1    2  501    0 -0.17319806161E+02 -0.14679477163E+03 -0.46997289584E+02  0.15510456438E+03  0.00000000000E+00 0.  1.
         -3    1    1    2    0  502 -0.10319785242E+03 -0.56877572341E+02  0.64382663170E+02  0.13427576958E+03  0.00000000000E+00 0. -1.
<mgrwt>
<rscale>  4 0.56283790E+03</rscale>
<asrwt>0</asrwt>
<pdfrwt beam="1">  1       21 0.39765593E-01 0.56283790E+03</pdfrwt>
<pdfrwt beam="2">  1       21 0.47138147E-01 0.56283790E+03</pdfrwt>
<totfact> 0.23239820E+04</totfact>
</mgrwt>
</event>
<event>
 5    0  0.3372079E-003  0.5800321E+03  0.7546771E-02  0.9947722E-01
         21   -1    0    0  503  502  0.00000000000E+00  0.00000000000E+00  0.98696007551E+03  0.98696007551E+03  0.00000000000E+00 0.  1.
         21   -1    0    0  501  503 -0.00000000000E+00 -0.00000000000E+00 -0.85220581145E+02  0.85220581145E+02  0.00000000000E+00 0.  1.
         25    1    1    2    0    0 -0.12053949612E+03  0.23133575705E+03  0.56619480734E+03  0.63580465748E+03  0.12500000000E+03 0.  0.
          1    1    1    2  501    0  0.10255119958E+03 -0.99790960698E+02  0.14135516175E+03  0.20113743094E+03  0.00000000000E+00 0. -1.
         -1    1    1    2    0  502  0.17988296541E+02 -0.13154479635E+03  0.19418952527E+03  0.23523856823E+03  0.00000000000E+00 0.  1.
<mgrwt>
<rscale>  4 0.58003211E+03</rscale>
<asrwt>0</asrwt>
<pdfrwt beam="1">  1       21 0.15184000E+00 0.58003211E+03</pdfrwt>
<pdfrwt beam="2">  1       21 0.13110859E-01 0.58003211E+03</pdfrwt>
<totfact> 0.12392583E+04</totfact>
</mgrwt>
</event>
<event>
 5    0  0.3372079E-003  0.4933946E+03  0.7546771E-02  0.1015518E+00
         21   -1    0    0  501  502  0.00000000000E+00  0.00000000000E+00  0.39510904141E+03  0.39510904141E+03  0.00000000000E+00 0. -1.
         21   -1    0    0  502  503 -0.00000000000E+00 -0.00000000000E+00 -0.15403232902E+03  0.15403232902E+03  0.00000000000E+00 0. -1.
         25    1    1    2    0    0  0.16913898408E+03  0.14865900885E+03  0.10197771493E+03  0.27700532701E+03  0.12500000000E+03 0.  0.
          4    1    1    2  501    0 -0.68976476931E+02 -0.78559094605E+02  0.97621088588E+02  0.14303552933E+03  0.00000000000E+00 0. -1.
         -4    1    1    2    0  503 -0.10016250715E+03 -0.70099914243E+02  0.41477908874E+02  0.12910051410E+03  0.00000000000E+00 0.  1.
<mgrwt>
<rscale>  4 0.49339463E+03</rscale>
<asrwt>0</asrwt>
<pdfrwt beam="1">  1       21 0.60786006E-01 0.49339463E+03</pdfrwt>
<pdfrwt beam="2">  1       21 0.23697281E-01 0.49339463E+03</pdfrwt>
<totfact> 0.38339951E+04</totfact>
</mgrwt>
</event>
<event>
 5    0  0.3372079E-003  0.4848721E+03  0.7546771E-02  0.1017805E+00
         21   -1    0    0  501  502  0.00000000000E+00  0.00000000000E+00  0.17349709304E+03  0.17349709304E+03  0.00000000000E+00 0.  1.
         21   -1    0    0  502  503 -0.00000000000E+00 -0.00000000000E+00 -0.33876790378E+03  0.33876790378E+03  0.00000000000E+00 0.  1.
         25    1    1    2    0    0  0.85142510470E+02  0.20003195054E+03 -0.69661822905E+02  0.26026870326E+03  0.12500000000E+03 0.  0.
          4    1    1    2  501    0 -0.55591149731E+02 -0.11893393233E+03 -0.12007972474E+02  0.13183264994E+03  0.00000000000E+00 0. -1.
         -4    1    1    2    0  503 -0.29551360739E+02 -0.81098018208E+02 -0.83601015366E+02  0.12016364362E+03  0.00000000000E+00 0.  1.
<mgrwt>
<rscale>  4 0.48487213E+03</rscale>
<asrwt>0</asrwt>
<pdfrwt beam="1">  1       21 0.26691860E-01 0.48487213E+03</pdfrwt>
<pdfrwt beam="2">  1       21 0.52118139E-01 0.48487213E+03</pdfrwt>
<totfact> 0.42534379E+04</totfact>
</mgrwt>
</event>
<event>
 5    0  0.3372079E-003  0.5491762E+03  0.7546771E-02  0.1001685E+00
         21   -1    0    0  501  502  0.00000000000E+00  0.00000000000E+00  0.13484306672E+04  0.13484306672E+04  0.00000000000E+00 0. -1.
         21   -1    0    0  502  503 -0.00000000000E+00 -0.00000000000E+00 -0.55915826674E+02  0.55915826674E+02  0.00000000000E+00 0. -1.
         25    1    1    2    0    0 -0.12736384593E+03  0.17367889365E+03  0.56932935959E+03  0.62140713469E+03  0.12500000000E+03 0.  0.
          2    1    1    2  501    0 -0.18003131320E+02 -0.12185620786E+02  0.35320857660E+03  0.35387695697E+03  0.00000000000E+00 0. -1.
         -2    1    1    2    0  503  0.14536697725E+03 -0.16149327286E+03  0.36997690437E+03  0.42906240225E+03  0.00000000000E+00 0.  1.
<mgrwt>
<rscale>  4 0.54917617E+03</rscale>
<asrwt>0</asrwt>
<pdfrwt beam="1">  1       21 0.20745085E+00 0.54917617E+03</pdfrwt>
<pdfrwt beam="2">  1       21 0.86024359E-02 0.54917617E+03</pdfrwt>
<totfact> 0.10735732E+04</totfact>
</mgrwt>
</event>
<event>
 5    0  0.3372079E-003  0.7920268E+03  0.7546771E-02  0.9571630E-01
         21   -1    0    0  501  502  0.00000000000E+00  0.00000000000E+00  0.17895083064E+03  0.17895083064E+03  0.00000000000E+00 0. -1.
         21   -1    0    0  502  503 -0.00000000000E+00 -0.00000000000E+00 -0.87636706791E+03  0.87636706791E+03  0.00000000000E+00 0. -1.
         25    1    1    2    0    0  0.11186439449E+03 -0.19812265352E+03 -0.42901529936E+02  0.26311930728E+03  0.12500000000E+03 0.  0.
          4    1    1    2  501    0 -0.90901008894E+02  0.17527803968E+03 -0.74003423129E+02  0.21085988534E+03  0.00000000000E+00 0.  1.
         -4    1    1    2    0  503 -0.20963385598E+02  0.22844613847E+02 -0.58051128420E+03  0.58133870593E+03  0.00000000000E+00 0. -1.
<mgrwt>
<rscale>  4 0.79202680E+03</rscale>
<asrwt>0</asrwt>
<pdfrwt beam="1">  1       21 0.27530897E-01 0.79202680E+03</pdfrwt>
<pdfrwt beam="2">  1       21 0.13482570E+00 0.79202680E+03</pdfrwt>
<totfact> 0.39573975E+03</totfact>
</mgrwt>
</event>
<event>
 5    0  0.3372079E-003  0.6449013E+03  0.7546771E-02  0.9816394E-01
         21   -1    0    0  501  502  0.00000000000E+00  0.00000000000E+00  0.36648533805E+03  0.36648533805E+03  0.00000000000E+00 0.  1.
         21   -1    0    0  502  503 -0.00000000000E+00 -0.00000000000E+00 -0.28370693610E+03  0.28370693610E+03  0.00000000000E+00 0.  1.
         25    1    1    2    0    0 -0.17157242626E+03  0.13700590360E+03 -0.41238494239E+02  0.25599478213E+03  0.12500000000E+03 0.  0.
          1    1    1    2  501    0  0.66588036175E+02  0.79604499721E+02  0.11272094451E+03  0.15322158552E+03  0.00000000000E+00 0. -1.
         -1    1    1    2    0  503  0.10498439008E+03 -0.21661040332E+03  0.11295951672E+02  0.24097590649E+03  0.00000000000E+00 0.  1.
<mgrwt>
<rscale>  4 0.64490133E+03</rscale>
<asrwt>0</asrwt>
<pdfrwt beam="1">  1       21 0.56382360E-01 0.64490133E+03</pdfrwt>
<pdfrwt beam="2">  1       21 0.43647221E-01 0.64490133E+03</pdfrwt>
<totfact> 0.12812637E+04</totfact>
</mgrwt>
</event>
<event>
 5    0  0.3372079E-003  0.1020711E+04  0.7546771E-02  0.9286116E-01
         21   -1    0    0  501  502  0.00000000000E+00  0.00000000000E+00  0.15158173523E+04  0.15158173523E+04  0.00000000000E+00 0.  1.
         21   -1    0    0  502  503 -0.00000000000E+00 -0.00000000000E+00 -0.17182997033E+03  0.17182997033E+03  0.00000000000E+00 0.  1.
         25    1    1    2    0    0  0.26115046584E+03 -0.31319303081E+03  0.90360717551E+03  0.99920987185E+03  0.12500000000E+03 0.  0.
          2    1    1    2  501    0 -0.32095911577E+03  0.32733773010E+03  0.42488977676E+03  0.62505685017E+03  0.00000000000E+00 0.  1.
         -2    1    1    2    0  503  0.59808649929E+02 -0.14144699297E+02  0.15490429710E+02  0.63380600638E+02  0.00000000000E+00 0. -1.
<mgrwt>
<rscale>  4 0.10207112E+04</rscale>
<asrwt>0</asrwt>
<pdfrwt beam="1">  1       21 0.23320266E+00 0.10207112E+04</pdfrwt>
<pdfrwt beam="2">  1       21 0.26435381E-01 0.10207112E+04</pdfrwt>
<totfact> 0.78940477E+02</totfact>
</mgrwt>
</event>
<event>
 5    0  0.3372079E-003  0.5163718E+03  0.7546771E-02  0.1009592E+00
         21   -1    0    0  503  502  0.00000000000E+00  0.00000000000E+00  0.17410564241E+03  0.17410564241E+03  0.00000000000E+00 0.  1.
         21   -1    0    0  501  503 -0.00000000000E+00 -0.00000000000E+00 -0.38287080893E+03  0.38287080893E+03  0.00000000000E+00 0.  1.
         25    1    1    2    0    0  0.15977717472E+03  0.13757621362E+03 -0.36189682816E+02  0.24777137296E+03  0.12500000000E+03 0.  0.
          4    1    1    2  501    0 -0.13497631965E+03 -0.13591849058E+03 -0.19670450628E+03  0.27456348216E+03  0.00000000000E+00 0.  1.
         -4    1    1    2    0  502 -0.24800855076E+02 -0.16577230483E+01  0.24129022573E+02  0.34641596218E+02  0.00000000000E+00 0. -1.
<mgrwt>
<rscale>  4 0.51637184E+03</rscale>
<asrwt>0</asrwt>
<pdfrwt beam="1">  1       21 0.26785484E-01 0.51637184E+03</pdfrwt>
<pdfrwt beam="2">  1       21 0.58903200E-01 0.51637184E+03</pdfrwt>
<totfact> 0.32192134E+04</totfact>
</mgrwt>
</event>
<event>
 5    0  0.3372079E-003  0.8877259E+03  0.7546771E-02  0.9441056E-01
         21   -1    0    0  503  502  0.00000000000E+00  0.00000000000E+00  0.11225942669E+03  0.11225942669E+03  0.00000000000E+00 0.  1.
         21   -1    0    0  501  503 -0.00000000000E+00 -0.00000000000E+00 -0.17549912589E+04  0.17549912589E+04  0.00000000000E+00 0.  1.
         25    1    1    2    0    0  0.92353357406E+02 -0.28213681178E+03 -0.12778148336E+04  0.13177883260E+04  0.12500000000E+03 0.  0.
          3    1    1    2  501    0  0.92034646667E+02  0.53993914593E+02 -0.46126437391E+02  0.11624700954E+03  0.00000000000E+00 0. -1.
         -3    1    1    2    0  502 -0.18438800407E+03  0.22814289719E+03 -0.31879056116E+03  0.43321534999E+03  0.00000000000E+00 0.  1.
<mgrwt>
<rscale>  4 0.88772589E+03</rscale>
<asrwt>0</asrwt>
<pdfrwt beam="1">  1       21 0.17270683E-01 0.88772589E+03</pdfrwt>
<pdfrwt beam="2">  1       21 0.26999863E+00 0.88772589E+03</pdfrwt>
<totfact> 0.10865994E+03</totfact>
</mgrwt>
</event>
<event>
 5    0  0.3372079E-003  0.6119034E+03  0.7546771E-02  0.9881013E-01
         21   -1    0    0  503  502  0.00000000000E+00  0.00000000000E+00  0.60300947557E+03  0.60300947557E+03  0.00000000000E+00 0.  1.
         21   -1    0    0  501  503 -0.00000000000E+00 -0.00000000000E+00 -0.15523213918E+03  0.15523213918E+03  0.00000000000E+00 0.  1.
         25    1    1    2    0    0 -0.23826845597E+03 -0.10965701026E+03  0.79853124900E+02  0.30132712883E+03  0.12500000000E+03 0.  0.
          2    1    1    2  501    0  0.11922719474E+03  0.91332383772E+02  0.21476344004E+03  0.26206881438E+03  0.00000000000E+00 0. -1.
         -2    1    1    2    0  502  0.11904126123E+03  0.18324626492E+02  0.15316077144E+03  0.19484567155E+03  0.00000000000E+00 0.  1.
<mgrwt>
<rscale>  4 0.61190343E+03</rscale>
<asrwt>0</asrwt>
<pdfrwt beam="1">  1       21 0.92770687E-01 0.61190343E+03</pdfrwt>
<pdfrwt beam="2">  1       21 0.23881868E-01 0.61190343E+03</pdfrwt>
<totfact> 0.13961414E+04</totfact>
</mgrwt>
</event>
<event>
 5    0  0.3372079E-003  0.6192589E+03  0.7546771E-02  0.9866236E-01
         21   -1    0    0  501  502  0.00000000000E+00  0.00000000000E+00  0.16267098312E+03  0.16267098312E+03  0.00000000000E+00 0. -1.
         21   -1    0    0  502  503 -0.00000000000E+00 -0.00000000000E+00 -0.58935148097E+03  0.58935148097E+03  0.00000000000E+00 0. -1.
         25    1    1    2    0    0  0.79203113770E+02  0.28045657759E+03 -0.21174878582E+03  0.38130246976E+03  0.12500000000E+03 0.  0.
          4    1    1    2  501    0 -0.32859090807E+02 -0.59329504192E+02 -0.89536549898E+02  0.11232321080E+03  0.00000000000E+00 0.  1.
         -4    1    1    2    0  503 -0.46344022964E+02 -0.22112707340E+03 -0.12539516213E+03  0.25839678353E+03  0.00000000000E+00 0. -1.
<mgrwt>
<rscale>  4 0.61925886E+03</rscale>
<asrwt>0</asrwt>
<pdfrwt beam="1">  1       21 0.25026306E-01 0.61925886E+03</pdfrwt>
<pdfrwt beam="2">  1       21 0.90669457E-01 0.61925886E+03</pdfrwt>
<totfact> 0.13440548E+04</totfact>
</mgrwt>
</event>
<event>
 5    0  0.3372079E-003  0.6055717E+03  0.7546771E-02  0.9893913E-01
         21   -1    0    0  501  502  0.00000000000E+00  0.00000000000E+00  0.53607506667E+02  0.53607506667E+02  0.00000000000E+00 0. -1.
         21   -1    0    0  502  503 -0.00000000000E+00 -0.00000000000E+00 -0.17101948093E+04  0.17101948093E+04  0.00000000000E+00 0. -1.
         25    1    1    2    0    0  0.26260484980E+03  0.23912620983E+02 -0.84062189759E+03  0.88983329635E+03  0.12500000000E+03 0.  0.
          1    1    1    2  501    0 -0.52412623359E+02 -0.59836382909E+02 -0.10509456255E+03  0.13180418387E+03  0.00000000000E+00 0.  1.
         -1    1    1    2    0  503 -0.21019222644E+03  0.35923761926E+02 -0.71087084254E+03  0.74216483580E+03  0.00000000000E+00 0. -1.
<mgrwt>
<rscale>  4 0.60557173E+03</rscale>
<asrwt>0</asrwt>
<pdfrwt beam="1">  1       21 0.82473084E-02 0.60557173E+03</pdfrwt>
<pdfrwt beam="2">  1       21 0.26310690E+00 0.60557173E+03</pdfrwt>
<totfact> 0.50499187E+03</totfact>
</mgrwt>
</event>
<event>
 5    0  0.3372079E-003  0.5347410E+03  0.7546771E-02  0.1005089E+00
         21   -1    0    0  501  502  0.00000000000E+00  0.00000000000E+00  0.37964902475E+03  0.37964902475E+03  0.00000000000E+00 0.  1.
         21   -1    0    0  502  503 -0.00000000000E+00 -0.00000000000E+00 -0.18829755669E+03  0.18829755669E+03  0.00000000000E+00 0.  1.
         25    1    1    2    0    0  0.21349736378E+03 -0.14619208296E+02  0.14866010006E+03  0.28899770058E+03  0.12500000000E+03 0.  0.
          3    1    1    2  501    0 -0.20466757880E+02 -0.22953343825E+02  0.73706514687E+02  0.79864851331E+02  0.00000000000E+00 0. -1.
         -3    1    1    2    0  503 -0.19303060590E+03  0.37572552122E+02 -0.31015146677E+02  0.19908402952E+03  0.00000000000E+00 0.  1.
<mgrwt>
<rscale>  4 0.53474100E+03</rscale>
<asrwt>0</asrwt>
<pdfrwt beam="1">  1       21 0.58407542E-01 0.53474100E+03</pdfrwt>
<pdfrwt beam="2">  1       21 0.28968855E-01 0.53474100E+03</pdfrwt>
<totfact> 0.27983232E+04</totfact>
</mgrwt>
</event>
<event>
 5    0  0.3372079E-003  0.5120898E+03  0.7546771E-02  0.1010671E+00
         21   -1    0    0  503  502  0.00000000000E+00  0.00000000000E+00  0.67740056460E+03  0.67740056460E+03  0.00000000000E+00 0.  1.
         21   -1    0    0  501  503 -0.00000000000E+00 -0.00000000000E+00 -0.96780248649E+02  0.96780248649E+02  0.00000000000E+00 0.  1.
         25    1    1    2    0    0  0.18909481297E+03  0.14186944137E+03  0.28730637626E+03  0.39249680321E+03  0.12500000000E+03 0.  0.
          2    1    1    2  501    0 -0.15845864658E+03 -0.14269830634E+03  0.24942423133E+03  0.32815300773E+03  0.00000000000E+00 0.  1.
         -2    1    1    2    0  502 -0.30636166395E+02  0.82886497096E+00  0.43889708358E+02  0.53531002309E+02  0.00000000000E+00 0. -1.
<mgrwt>
<rscale>  4 0.51208982E+03</rscale>
<asrwt>0</asrwt>
<pdfrwt beam="1">  1       21 0.10421547E+00 0.51208982E+03</pdfrwt>
<pdfrwt beam="2">  1       21 0.14889269E-01 0.51208982E+03</pdfrwt>
<totfact> 0.26397128E+04</totfact>
</mgrwt>
</event>
<event>
 5    0  0.3372079E-003  0.6905370E+03  0.7546771E-02  0.9733554E-01
         21   -1    0    0  501  502  0.00000000000E+00  0.00000000000E+00  0.30141094260E+03  0.30141094260E+03  0.00000000000E+00 0. -1.
         21   -1    0    0  502  503 -0.00000000000E+00 -0.00000000000E+00 -0.39550760936E+03  0.39550760936E+03  0.00000000000E+00 0. -1.
         25    1    1    2    0    0  0.14359507068E+03 -0.21955636025E+03 -0.20232985486E+03  0.35410014094E+03  0.12500000000E+03 0.  0.
          3    1    1    2  501    0 -0.13839560506E+03  0.13632759048E+03  0.15381264307E+03  0.24778394741E+03  0.00000000000E+00 0. -1.
         -3    1    1    2    0  503 -0.51994656208E+01  0.83228769769E+02 -0.45579454968E+02  0.95034463618E+02  0.00000000000E+00 0.  1.
<mgrwt>
<rscale>  4 0.69053695E+03</rscale>
<asrwt>0</asrwt>
<pdfrwt beam="1">  1       21 0.46370915E-01 0.69053695E+03</pdfrwt>
<pdfrwt beam="2">  1       21 0.60847324E-01 0.69053695E+03</pdfrwt>
<totfact> 0.94509800E+03</totfact>
</mgrwt>
</event>
<event>
 5    0  0.3372079E-003  0.9058489E+03  0.7546771E-02  0.9418299E-01
         21   -1    0    0  501  502  0.00000000000E+00  0.00000000000E+00  0.90972286612E+03  0.90972286612E+03  0.00000000000E+00 0. -1.
         21   -1    0    0  502  503 -0.00000000000E+00 -0.00000000000E+00 -0.22549786679E+03  0.22549786679E+03  0.00000000000E+00 0. -1.
         25    1    1    2    0    0  0.36909228741E+01  0.44267797062E+03  0.32633652567E+03  0.56400171681E+03  0.12500000000E+03 0.  0.
          4    1    1    2  501    0 -0.12828885282E+02 -0.41149811703E+03  0.34111327497E+03  0.53465273494E+03  0.00000000000E+00 0. -1.
         -4    1    1    2    0  503  0.91379624080E+01 -0.31179853584E+02  0.16775198687E+02  0.36566281155E+02  0.00000000000E+00 0.  1.
<mgrwt>
<rscale>  4 0.90584892E+03</rscale>
<asrwt>0</asrwt>
<pdfrwt beam="1">  1       21 0.13995736E+00 0.90584892E+03</pdfrwt>
<pdfrwt beam="2">  1       21 0.34691980E-01 0.90584892E+03</pdfrwt>
<totfact> 0.21961620E+03</totfact>
</mgrwt>
</event>
<event>
 5    0  0.3372079E-003  0.5822219E+03  0.7546771E-02  0.9942992E-01
         21   -1    0    0  501  502  0.00000000000E+00  0.00000000000E+00  0.17719366127E+03  0.17719366127E+03  0.00000000000E+00 0.  1.
         21   -1    0    0  502  503 -0.00000000000E+00 -0.00000000000E+00 -0.47826535557E+03  0.47826535557E+03  0.00000000000E+00 0.  1.
         25    1    1    2    0    0  0.15784582645E+02 -0.24771872388E+03 -0.27595752826E+03  0.39165198405E+03  0.12500000000E+03 0.  0.
          4    1    1    2  501    0 -0.46783253996E+02  0.10689660625E+03 -0.26281040224E+02  0.11960873863E+03  0.00000000000E+00 0. -1.
         -4    1    1    2    0  503  0.30998671350E+02  0.14082211763E+03  0.11668741811E+01  0.14419829415E+03  0.00000000000E+00 0.  1.
<mgrwt>
<rscale>  4 0.58222191E+03</rscale>
<asrwt>0</asrwt>
<pdfrwt beam="1">  1       21 0.27260563E-01 0.58222191E+03</pdfrwt>
<pdfrwt beam="2">  1       21 0.73579286E-01 0.58222191E+03</pdfrwt>
<totfact> 0.18648274E+04</totfact>
</mgrwt>
</event>
<event>
 5    0  0.3372079E-003  0.4507105E+03  0.7546771E-02  0.1027510E+00
         21   -1    0    0  501  502  0.00000000000E+00  0.00000000000E+00  0.14329580990E+04  0.14329580990E+04  0.00000000000E+00 0. -1.
         21   -1    0    0  502  503 -0.00000000000E+00 -0.00000000000E+00 -0.35440666164E+02  0.35440666164E+02  0.00000000000E+00 0. -1.
         25    1    1    2    0    0 -0.19944568911E+03  0.16045624154E+02  0.75767111877E+03  0.79355312940E+03  0.12500000000E+03 0.  0.
          2    1    1    2  501    0  0.39863920229E+02  0.16337147529E+02  0.22690743020E+03  0.23096107119E+03  0.00000000000E+00 0.  1.
         -2    1    1    2    0  503  0.15958176888E+03 -0.32382771683E+02  0.41293888390E+03  0.44388456461E+03  0.00000000000E+00 0. -1.
<mgrwt>
<rscale>  4 0.45071050E+03</rscale>
<asrwt>0</asrwt>
<pdfrwt beam="1">  1       21 0.22045505E+00 0.45071050E+03</pdfrwt>
<pdfrwt beam="2">  1       21 0.54524113E-02 0.45071050E+03</pdfrwt>
<totfact> 0.20331057E+04</totfact>
</mgrwt>
</event>
<event>
 5    0  0.3372079E-003  0.5809484E+03  0.7546771E-02  0.9945740E-01
         21   -1    0    0  501  502  0.00000000000E+00  0.00000000000E+00  0.37950562614E+03  0.37950562614E+03  0.00000000000E+00 0. -1.
         21   -1    0    0  502  503 -0.00000000000E+00 -0.00000000000E+00 -0.22232941901E+03  0.22232941901E+03  0.00000000000E+00 0. -1.
         25    1    1    2    0    0 -0.22600709698E+03  0.15156727845E+03  0.11823671312E+03  0.32195771168E+03  0.12500000000E+03 0.  0.
          1    1    1    2  501    0  0.21178278951E+03 -0.12530522539E+03  0.42772525766E+02  0.24976556689E+03  0.00000000000E+00 0.  1.
         -1    1    1    2    0  503  0.14224307472E+02 -0.26262053059E+02 -0.38330317453E+01  0.30111766575E+02  0.00000000000E+00 0. -1.
<mgrwt>
<rscale>  4 0.58094842E+03</rscale>
<asrwt>0</asrwt>
<pdfrwt beam="1">  1       21 0.58385481E-01 0.58094842E+03</pdfrwt>
<pdfrwt beam="2">  1       21 0.34204526E-01 0.58094842E+03</pdfrwt>
<totfact> 0.19878359E+04</totfact>
</mgrwt>
</event>
<event>
 5    0  0.3372079E-003  0.4923003E+03  0.7546771E-02  0.1015808E+00
         21   -1    0    0  501  502  0.00000000000E+00  0.00000000000E+00  0.14859622214E+03  0.14859622214E+03  0.00000000000E+00 0. -1.
         21   -1    0    0  502  503 -0.00000000000E+00 -0.00000000000E+00 -0.40774857798E+03  0.40774857798E+03  0.00000000000E+00 0. -1.
         25    1    1    2    0    0  0.16124807853E+03 -0.12571692671E+03 -0.15704309062E+03  0.28651914561E+03  0.12500000000E+03 0.  0.
          1    1    1    2  501    0 -0.55155800406E+02  0.10413627823E+03  0.44393369536E+01  0.11792469832E+03  0.00000000000E+00 0.  1.
         -1    1    1    2    0  503 -0.10609227812E+03  0.21580648484E+02 -0.10654860217E+03  0.15190095619E+03  0.00000000000E+00 0. -1.
<mgrwt>
<rscale>  4 0.49230031E+03</rscale>
<asrwt>0</asrwt>
<pdfrwt beam="1">  1       21 0.22860957E-01 0.49230031E+03</pdfrwt>
<pdfrwt beam="2">  1       21 0.62730550E-01 0.49230031E+03</pdfrwt>
<totfact> 0.38350182E+04</totfact>
</mgrwt>
</event>
<event>
 5    0  0.3372079E-003  0.6549670E+03  0.7546771E-02  0.9797503E-01
         21   -1    0    0  503  502  0.00000000000E+00  0.00000000000E+00  0.25745368645E+03  0.25745368645E+03  0.00000000000E+00 0.  1.
         21   -1    0    0  501  503 -0.00000000000E+00 -0.00000000000E+00 -0.41656208479E+03  0.41656208479E+03  0.00000000000E+00 0.  1.
         25    1    1    2    0    0  0.28150658881E+02  0.26136826899E+03 -0.77214182955E+02  0.30115255549E+03  0.12500000000E+03 0.  0.
          3    1    1    2  501    0  0.11096445655E+03 -0.13133927127E+03 -0.55178384396E+02  0.18057621355E+03  0.00000000000E+00 0.  1.
         -3    1    1    2    0  502 -0.13911511543E+03 -0.13002899773E+03 -0.26715830985E+02  0.19228700220E+03  0.00000000000E+00 0. -1.
<mgrwt>
<rscale>  4 0.65496700E+03</rscale>
<asrwt>0</asrwt>
<pdfrwt beam="1">  1       21 0.39608260E-01 0.65496700E+03</pdfrwt>
<pdfrwt beam="2">  1       21 0.64086473E-01 0.65496700E+03</pdfrwt>
<totfact> 0.11800719E+04</totfact>
</mgrwt>
</event>
<event>
 5    0  0.3372079E-003  0.5217015E+03  0.7546771E-02  0.1008265E+00
         21   -1    0    0  501  502  0.00000000000E+00  0.00000000000E+00  0.84706508823E+03  0.84706508823E+03  0.00000000000E+00 0.  1.
         21   -1    0    0  502  503 -0.00000000000E+00 -0.00000000000E+00 -0.80328089104E+02  0.80328089104E+02  0.00000000000E+00 0.  1.
         25    1    1    2    0    0  0.18945999554E+03  0.14079131895E+03  0.47514673116E+03  0.54507495038E+03  0.12500000000E+03 0.  0.
          4    1    1    2  501    0 -0.69256414081E+02 -0.95449789647E+02  0.15561263888E+03  0.19524960080E+03  0.00000000000E+00 0. -1.
         -4    1    1    2    0  503 -0.12020358146E+03 -0.45341529304E+02  0.13597762909E+03  0.18706862615E+03  0.00000000000E+00 0.  1.
<mgrwt>
<rscale>  4 0.52170152E+03</rscale>
<asrwt>0</asrwt>
<pdfrwt beam="1">  1       21 0.13031770E+00 0.52170152E+03</pdfrwt>
<pdfrwt beam="2">  1       21 0.12358168E-01 0.52170152E+03</pdfrwt>
<totfact> 0.21096934E+04</totfact>
</mgrwt>
</event>
<event>
 5    0  0.3372079E-003  0.5369703E+03  0.7546771E-02  0.1004556E+00
         21   -1    0    0  501  502  0.00000000000E+00  0.00000000000E+00  0.28929291539E+03  0.28929291539E+03  0.00000000000E+00 0. -1.
         21   -1    0    0  502  503 -0.00000000000E+00 -0.00000000000E+00 -0.24917401510E+03  0.24917401510E+03  0.00000000000E+00 0. -1.
         25    1    1    2    0    0 -0.89985318504E+02 -0.21608000942E+03  0.23957452224E+02  0.26643364565E+03  0.12500000000E+03 0.  0.
          2    1    1    2  501    0  0.79987640628E+02  0.63830944351E+02  0.52750500726E+02  0.11513048005E+03  0.00000000000E+00 0.  1.
         -2    1    1    2    0  503  0.99976778766E+01  0.15224906506E+03 -0.36589052657E+02  0.15690280479E+03  0.00000000000E+00 0. -1.
<mgrwt>
<rscale>  4 0.53697031E+03</rscale>
<asrwt>0</asrwt>
<pdfrwt beam="1">  1       21 0.44506602E-01 0.53697031E+03</pdfrwt>
<pdfrwt beam="2">  1       21 0.38334464E-01 0.53697031E+03</pdfrwt>
<totfact> 0.28439401E+04</totfact>
</mgrwt>
</event>
<event>
 5    0  0.3372079E-003  0.5995309E+03  0.7546771E-02  0.9906380E-01
         21   -1    0    0  501  502  0.00000000000E+00  0.00000000000E+00  0.14182804200E+04  0.14182804200E+04  0.00000000000E+00 0. -1.
         21   -1    0    0  502  503 -0.00000000000E+00 -0.00000000000E+00 -0.63357935126E+02  0.63357935126E+02  0.00000000000E+00 0. -1.
         25    1    1    2    0    0 -0.21914621245E+03 -0.50834977946E+02  0.94307279894E+03  0.97755846961E+03  0.12500000000E+03 0.  0.
          3    1    1    2  501    0  0.20025836109E+03 -0.15158174529E+00  0.40158467935E+03  0.44874679815E+03  0.00000000000E+00 0. -1.
         -3    1    1    2    0  503  0.18887851367E+02  0.50986559692E+02  0.10265006606E+02  0.55333087381E+02  0.00000000000E+00 0.  1.
<mgrwt>
<rscale>  4 0.59953088E+03</rscale>
<asrwt>0</asrwt>
<pdfrwt beam="1">  1       21 0.21819696E+00 0.59953088E+03</pdfrwt>
<pdfrwt beam="2">  1       21 0.97473757E-02 0.59953088E+03</pdfrwt>
<totfact> 0.71880366E+03</totfact>
</mgrwt>
</event>
<event>
 5    0  0.3372079E-003  0.8319989E+03  0.7546771E-02  0.9514821E-01
         21   -1    0    0  503  502  0.00000000000E+00  0.00000000000E+00  0.55081748725E+03  0.55081748725E+03  0.00000000000E+00 0.  1.
         21   -1    0    0  501  503 -0.00000000000E+00 -0.00000000000E+00 -0.31417945670E+03  0.31417945670E+03  0.00000000000E+00 0.  1.
         25    1    1    2    0    0 -0.21346389482E+03 -0.85711404488E+02  0.44570315241E+03  0.51690383952E+03  0.12500000000E+03 0.  0.
          1    1    1    2  501    0  0.74077735747E+02  0.11002469888E+03 -0.13132312416E+03  0.18665130119E+03  0.00000000000E+00 0.  1.
         -1    1    1    2    0  502  0.13938615907E+03 -0.24313294387E+02 -0.77741997699E+02  0.16144180323E+03  0.00000000000E+00 0. -1.
<mgrwt>
<rscale>  4 0.83199889E+03</rscale>
<asrwt>0</asrwt>
<pdfrwt beam="1">  1       21 0.84741152E-01 0.83199889E+03</pdfrwt>
<pdfrwt beam="2">  1       21 0.48335301E-01 0.83199889E+03</pdfrwt>
<totfact> 0.39473359E+03</totfact>
</mgrwt>
</event>
<event>
 5    0  0.3372079E-003  0.6140009E+03  0.7546771E-02  0.9876777E-01
         21   -1    0    0  501  502  0.00000000000E+00  0.00000000000E+00  0.55349796274E+02  0.55349796274E+02  0.00000000000E+00 0.  1.
         21   -1    0    0  502  503 -0.00000000000E+00 -0.00000000000E+00 -0.17027933937E+04  0.17027933937E+04  0.00000000000E+00 0.  1.
         25    1    1    2    0    0  0.25359512694E+03 -0.12126786924E+02 -0.46969300029E+03  0.54835578039E+03  0.12500000000E+03 0.  0.
          3    1    1    2  501    0 -0.22989024459E+03  0.22240710770E+01 -0.83487613663E+03  0.86595186619E+03  0.00000000000E+00 0.  1.
         -3    1    1    2    0  503 -0.23704882347E+02  0.99027158469E+01 -0.34287446049E+03  0.34383554337E+03  0.00000000000E+00 0. -1.
<mgrwt>
<rscale>  4 0.61400087E+03</rscale>
<asrwt>0</asrwt>
<pdfrwt beam="1">  1       21 0.85153526E-02 0.61400087E+03</pdfrwt>
<pdfrwt beam="2">  1       21 0.26196823E+00 0.61400087E+03</pdfrwt>
<totfact> 0.48343923E+03</totfact>
</mgrwt>
</event>
<event>
 5    0  0.3372079E-003  0.5932441E+03  0.7546771E-02  0.9919522E-01
         21   -1    0    0  503  502  0.00000000000E+00  0.00000000000E+00  0.48226893832E+02  0.48226893832E+02  0.00000000000E+00 0.  1.
         21   -1    0    0  501  503 -0.00000000000E+00 -0.00000000000E+00 -0.18243897187E+04  0.18243897187E+04  0.00000000000E+00 0.  1.
         25    1    1    2    0    0 -0.23753934966E+03  0.74033492060E+02 -0.13205038076E+04  0.13495411096E+04  0.12500000000E+03 0.  0.
          2    1    1    2  501    0  0.17781761841E+03 -0.83397023422E+02 -0.34585975825E+03  0.39773501394E+03  0.00000000000E+00 0.  1.
         -2    1    1    2    0  502  0.59721731245E+02  0.93635313622E+01 -0.10979925894E+03  0.12534048894E+03  0.00000000000E+00 0. -1.
<mgrwt>
<rscale>  4 0.59324413E+03</rscale>
<asrwt>0</asrwt>
<pdfrwt beam="1">  1       21 0.74195220E-02 0.59324413E+03</pdfrwt>
<pdfrwt beam="2">  1       21 0.28067535E+00 0.59324413E+03</pdfrwt>
<totfact> 0.47762679E+03</totfact>
</mgrwt>
</event>
<event>
 5    0  0.3372079E-003  0.6563010E+03  0.7546771E-02  0.9795027E-01
         21   -1    0    0  503  502  0.00000000000E+00  0.00000000000E+00  0.16951449495E+04  0.16951449495E+04  0.00000000000E+00 0.  1.
         21   -1    0    0  501  503 -0.00000000000E+00 -0.00000000000E+00 -0.63524219944E+02  0.63524219944E+02  0.00000000000E+00 0.  1.
         25    1    1    2    0    0 -0.24405438200E+03 -0.17179885051E+03  0.80217268135E+03  0.86497595176E+03  0.12500000000E+03 0.  0.
          3    1    1    2  501    0  0.15652734416E+03  0.16278601108E+03  0.44166134250E+03  0.49604922773E+03  0.00000000000E+00 0.  1.
         -3    1    1    2    0  502  0.87527037842E+02  0.90128394245E+01  0.38778670573E+03  0.39764398998E+03  0.00000000000E+00 0. -1.
<mgrwt>
<rscale>  4 0.65630103E+03</rscale>
<asrwt>0</asrwt>
<pdfrwt beam="1">  1       21 0.26079150E+00 0.65630103E+03</pdfrwt>
<pdfrwt beam="2">  1       21 0.97729582E-02 0.65630103E+03</pdfrwt>
<totfact> 0.37880926E+03</totfact>
</mgrwt>
</event>
<event>
 5    0  0.3372079E-003  0.4707049E+03  0.7546771E-02  0.1021721E+00
         21   -1    0    0  501  502  0.00000000000E+00  0.00000000000E+00  0.10536801299E+04  0.10536801299E+04  0.00000000000E+00 0.  1.
         21   -1    0    0  502  503 -0.00000000000E+00 -0.00000000000E+00 -0.52568873599E+02  0.52568873599E+02  0.00000000000E+00 0.  1.
         25    1    1    2    0    0 -0.20864912730E+03 -0.30908457245E+02  0.58050317999E+03  0.63015770489E+03  0.12500000000E+03 0.  0.
          2    1    1    2  501    0  0.72919485501E+02 -0.23772055526E+02  0.14800246585E+03  0.16669460666E+03  0.00000000000E+00 0. -1.
         -2    1    1    2    0  503  0.13572964180E+03  0.54680512771E+02  0.27260561046E+03  0.30939669195E+03  0.00000000000E+00 0.  1.
<mgrwt>
<rscale>  4 0.47070491E+03</rscale>
<asrwt>0</asrwt>
<pdfrwt beam="1">  1       21 0.16210462E+00 0.47070491E+03</pdfrwt>
<pdfrwt beam="2">  1       21 0.80875198E-02 0.47070491E+03</pdfrwt>
<totfact> 0.25459959E+04</totfact>
</mgrwt>
</event>
<event>
 5    0  0.3372079E-003  0.4733273E+03  0.7546771E-02  0.1020985E+00
         21   -1    0    0  503  502  0.00000000000E+00  0.00000000000E+00  0.31825886147E+02  0.31825886147E+02  0.00000000000E+00 0. -1.
         21   -1    0    0  501  503 -0.00000000000E+00 -0.00000000000E+00 -0.17598784631E+04  0.17598784631E+04  0.00000000000E+00 0. -1.
         25    1    1    2    0    0  0.19782310399E+03  0.76457248550E+02 -0.72255271361E+03  0.76333944958E+03  0.12500000000E+03 0.  0.
          1    1    1    2  501    0 -0.46176111928E+02 -0.13829387946E+02 -0.31328466215E+03  0.31697123659E+03  0.00000000000E+00 0.  1.
         -1    1    1    2    0  502 -0.15164699206E+03 -0.62627860605E+02 -0.69221520122E+03  0.71139366312E+03  0.00000000000E+00 0. -1.
<mgrwt>
<rscale>  4 0.47332734E+03</rscale>
<asrwt>0</asrwt>
<pdfrwt beam="1">  1       21 0.48962900E-02 0.47332734E+03</pdfrwt>
<pdfrwt beam="2">  1       21 0.27075054E+00 0.47332734E+03</pdfrwt>
<totfact> 0.11853900E+04</totfact>
</mgrwt>
</event>
<event>
 5    0  0.3372079E-003  0.5173859E+03  0.7546771E-02  0.1009338E+00
         21   -1    0    0  503  502  0.00000000000E+00  0.00000000000E+00  0.12971994000E+03  0.12971994000E+03  0.00000000000E+00 0. -1.
         21   -1    0    0  501  503 -0.00000000000E+00 -0.00000000000E+00 -0.51589634537E+03  0.51589634537E+03  0.00000000000E+00 0. -1.
         25    1    1    2    0    0 -0.16734839893E+03  0.14509638955E+03 -0.29128831943E+03  0.38669410899E+03  0.12500000000E+03 0.  0.
          3    1    1    2  501    0  0.28754425359E+02 -0.60446800891E+01 -0.49270428951E+02  0.57366630580E+02  0.00000000000E+00 0.  1.
         -3    1    1    2    0  502  0.13859397357E+03 -0.13905170946E+03 -0.45617656979E+02  0.20155554580E+03  0.00000000000E+00 0. -1.
<mgrwt>
<rscale>  4 0.51738590E+03</rscale>
<asrwt>0</asrwt>
<pdfrwt beam="1">  1       21 0.19956914E-01 0.51738590E+03</pdfrwt>
<pdfrwt beam="2">  1       21 0.79368668E-01 0.51738590E+03</pdfrwt>
<totfact> 0.29083754E+04</totfact>
</mgrwt>
</event>
<event>
 5    0  0.3372079E-003  0.7200590E+03  0.7546771E-02  0.9683530E-01
         21   -1    0    0  501  502  0.00000000000E+00  0.00000000000E+00  0.18030667642E+04  0.18030667642E+04  0.00000000000E+00 0. -1.
         21   -1    0    0  502  503 -0.00000000000E+00 -0.00000000000E+00 -0.71889317153E+02  0.71889317153E+02  0.00000000000E+00 0. -1.
         25    1    1    2    0    0  0.86189658296E+02 -0.30141930125E+03  0.69007073915E+03  0.76818284112E+03  0.12500000000E+03 0.  0.
          3    1    1    2  501    0  0.68852706938E+02  0.98606655453E+02  0.33062121707E+03  0.35181579971E+03  0.00000000000E+00 0. -1.
         -3    1    1    2    0  503 -0.15504236523E+03  0.20281264580E+03  0.71048549081E+03  0.75495744050E+03  0.00000000000E+00 0.  1.
<mgrwt>
<rscale>  4 0.72005899E+03</rscale>
<asrwt>0</asrwt>
<pdfrwt beam="1">  1       21 0.27739485E+00 0.72005899E+03</pdfrwt>
<pdfrwt beam="2">  1       21 0.11059896E-01 0.72005899E+03</pdfrwt>
<totfact> 0.23444679E+03</totfact>
</mgrwt>
</event>
<event>
 5    0  0.3372079E-003  0.7401924E+03  0.7546771E-02  0.9650864E-01
         21   -1    0    0  503  502  0.00000000000E+00  0.00000000000E+00  0.32318910102E+03  0.32318910102E+03  0.00000000000E+00 0. -1.
         21   -1    0    0  501  503 -0.00000000000E+00 -0.00000000000E+00 -0.42381130817E+03  0.42381130817E+03  0.00000000000E+00 0. -1.
         25    1    1    2    0    0 -0.17168454329E+03 -0.20783570944E+03 -0.26517225939E+03  0.39826196363E+03  0.12500000000E+03 0.  0.
          4    1    1    2  501    0  0.98196822148E+02  0.31789201721E+02  0.10901982774E+02  0.10378835414E+03  0.00000000000E+00 0.  1.
         -4    1    1    2    0  502  0.73487721146E+02  0.17604650772E+03  0.15364806946E+03  0.24495009143E+03  0.00000000000E+00 0. -1.
<mgrwt>
<rscale>  4 0.74019240E+03</rscale>
<asrwt>0</asrwt>
<pdfrwt beam="1">  1       21 0.49721400E-01 0.74019240E+03</pdfrwt>
<pdfrwt beam="2">  1       21 0.65201740E-01 0.74019240E+03</pdfrwt>
<totfact> 0.69145160E+03</totfact>
</mgrwt>
</event>
<event>
 5    0  0.3372079E-003  0.9185481E+03  0.7546771E-02  0.9402688E-01
         21   -1    0    0  501  502  0.00000000000E+00  0.00000000000E+00  0.23415104300E+03  0.23415104300E+03  0.00000000000E+00 0. -1.
         21   -1    0    0  502  503 -0.00000000000E+00 -0.00000000000E+00 -0.90084003674E+03  0.90084003674E+03  0.00000000000E+00 0. -1.
         25    1    1    2    0    0 -0.72232343822E+02  0.36589973412E+03 -0.33727516993E+03  0.51815023610E+03  0.12500000000E+03 0.  0.
          1    1    1    2  501    0  0.33558139155E+02 -0.40068510982E+03 -0.14855898672E+03  0.42865426450E+03  0.00000000000E+00 0.  1.
         -1    1    1    2    0  503  0.38674204667E+02  0.34785375706E+02 -0.18085483709E+03  0.18818657914E+03  0.00000000000E+00 0. -1.
<mgrwt>
<rscale>  4 0.91854806E+03</rscale>
<asrwt>0</asrwt>
<pdfrwt beam="1">  1       21 0.36023237E-01 0.91854806E+03</pdfrwt>
<pdfrwt beam="2">  1       21 0.13859078E+00 0.91854806E+03</pdfrwt>
<totfact> 0.20827890E+03</totfact>
</mgrwt>
</event>
<event>
 5    0  0.3372079E-003  0.5757978E+03  0.7546771E-02  0.9956930E-01
         21   -1    0    0  501  502  0.00000000000E+00  0.00000000000E+00  0.53800544208E+03  0.53800544208E+03  0.00000000000E+00 0.  1.
         21   -1    0    0  502  503 -0.00000000000E+00 -0.00000000000E+00 -0.15406120935E+03  0.15406120935E+03  0.00000000000E+00 0.  1.
         25    1    1    2    0    0 -0.26610008811E+03  0.18423251513E+02  0.16726842606E+03  0.33875123534E+03  0.12500000000E+03 0.  0.
          2    1    1    2  501    0  0.17613665635E+03  0.25119436115E+02  0.12269593751E+03  0.21612357776E+03  0.00000000000E+00 0.  1.
         -2    1    1    2    0  503  0.89963431758E+02 -0.43542687628E+02  0.93979869156E+02  0.13719183834E+03  0.00000000000E+00 0. -1.
<mgrwt>
<rscale>  4 0.57579777E+03</rscale>
<asrwt>0</asrwt>
<pdfrwt beam="1">  1       21 0.82770067E-01 0.57579777E+03</pdfrwt>
<pdfrwt beam="2">  1       21 0.23701725E-01 0.57579777E+03</pdfrwt>
<totfact> 0.18708211E+04</totfact>
</mgrwt>
</event>
<event>
 5    0  0.3372079E-003  0.7000452E+03  0.7546771E-02  0.9717155E-01
         21   -1    0    0  503  502  0.00000000000E+00  0.00000000000E+00  0.10529104910E+03  0.10529104910E+03  0.00000000000E+00 0. -1.
         21   -1    0    0  501  503 -0.00000000000E+00 -0.00000000000E+00 -0.11635920419E+04  0.11635920419E+04  0.00000000000E+00 0. -1.
         25    1    1    2    0    0 -0.30229447991E+03 -0.14647861542E+03 -0.51673038504E+03  0.62886662193E+03  0.12500000000E+03 0.  0.
          4    1    1    2  501    0  0.28016159066E+03  0.12546940076E+03 -0.51502616383E+03  0.59957071046E+03  0.00000000000E+00 0. -1.
         -4    1    1    2    0  502  0.22132889247E+02  0.21009214661E+02 -0.26544443953E+02  0.40445758639E+02  0.00000000000E+00 0.  1.
<mgrwt>
<rscale>  4 0.70004522E+03</rscale>
<asrwt>0</asrwt>
<pdfrwt beam="1">  1       21 0.16198623E-01 0.70004522E+03</pdfrwt>
<pdfrwt beam="2">  1       21 0.17901416E+00 0.70004522E+03</pdfrwt>
<totfact> 0.50786594E+03</totfact>
</mgrwt>
</event>
<event>
 5    0  0.3372079E-003  0.5019238E+03  0.7546771E-02  0.1013278E+00
         21   -1    0    0  503  502  0.00000000000E+00  0.00000000000E+00  0.11753052560E+03  0.11753052560E+03  0.00000000000E+00 0. -1.
         21   -1    0    0  501  503 -0.00000000000E+00 -0.00000000000E+00 -0.53587665135E+03  0.53587665135E+03  0.00000000000E+00 0. -1.
         25    1    1    2    0    0  0.22734464899E+03  0.65301652470E+00 -0.28119300019E+03  0.38259707162E+03  0.12500000000E+03 0.  0.
          2    1    1    2  501    0 -0.21241037324E+03 -0.14795728973E+02 -0.12413014998E+03  0.24646576718E+03  0.00000000000E+00 0. -1.
         -2    1    1    2    0  502 -0.14934275743E+02  0.14142712449E+02 -0.13022975577E+02  0.24344338156E+02  0.00000000000E+00 0.  1.
<mgrwt>
<rscale>  4 0.50192376E+03</rscale>
<asrwt>0</asrwt>
<pdfrwt beam="1">  1       21 0.18081619E-01 0.50192376E+03</pdfrwt>
<pdfrwt beam="2">  1       21 0.82442562E-01 0.50192376E+03</pdfrwt>
<totfact> 0.32220782E+04</totfact>
</mgrwt>
</event>
<event>
 5    0  0.3372079E-003  0.4815741E+03  0.7546771E-02  0.1018703E+00
         21   -1    0    0  501  502  0.00000000000E+00  0.00000000000E+00  0.60306153733E+03  0.60306153733E+03  0.00000000000E+00 0.  1.
         21   -1    0    0  502  503 -0.00000000000E+00 -0.00000000000E+00 -0.96140095083E+02  0.96140095083E+02  0.00000000000E+00 0.  1.
         25    1    1    2    0    0 -0.85672238571E+02 -0.18153017647E+03  0.12779375163E+03  0.26879207649E+03  0.12500000000E+03 0.  0.
          1    1    1    2  501    0  0.65505092395E+02  0.16033092955E+03  0.30547736339E+03  0.35115999722E+03  0.00000000000E+00 0.  1.
         -1    1    1    2    0  503  0.20167146176E+02  0.21199246913E+02  0.73650327226E+02  0.79249558705E+02  0.00000000000E+00 0. -1.
<mgrwt>
<rscale>  4 0.48157406E+03</rscale>
<asrwt>0</asrwt>
<pdfrwt beam="1">  1       21 0.92778696E-01 0.48157406E+03</pdfrwt>
<pdfrwt beam="2">  1       21 0.14790784E-01 0.48157406E+03</pdfrwt>
<totfact> 0.35675261E+04</totfact>
</mgrwt>
</event>
<event>
 5    0  0.3372079E-003  0.4975494E+03  0.7546771E-02  0.1014421E+00
         21   -1    0    0  501  502  0.00000000000E+00  0.00000000000E+00  0.15900961361E+03  0.15900961361E+03  0.00000000000E+00 0.  1.
         21   -1    0    0  502  503 -0.00000000000E+00 -0.00000000000E+00 -0.38921455653E+03  0.38921455653E+03  0.00000000000E+00 0.  1.
         25    1    1    2    0    0  0.17498106640E+03 -0.10979567528E+03 -0.22721421988E+03  0.33154903955E+03  0.12500000000E+03 0.  0.
          3    1    1    2  501    0 -0.20407811189E+02 -0.81522793149E+01  0.28084423193E+01  0.22154587873E+02  0.00000000000E+00 0. -1.
         -3    1    1    2    0  503 -0.15457325521E+03  0.11794795459E+03 -0.57991653604E+01  0.19452054272E+03  0.00000000000E+00 0.  1.
<mgrwt>
<rscale>  4 0.49754942E+03</rscale>
<asrwt>0</asrwt>
<pdfrwt beam="1">  1       21 0.24463018E-01 0.49754942E+03</pdfrwt>
<pdfrwt beam="2">  1       21 0.59879162E-01 0.49754942E+03</pdfrwt>
<totfact> 0.37222387E+04</totfact>
</mgrwt>
</event>
<event>
 5    0  0.3372079E-003  0.5231893E+03  0.7546771E-02  0.1007897E+00
         21   -1    0    0  503  502  0.00000000000E+00  0.00000000000E+00  0.78003293906E+02  0.78003293906E+02  0.00000000000E+00 0.  1.
         21   -1    0    0  501  503 -0.00000000000E+00 -0.00000000000E+00 -0.87729319376E+03  0.87729319376E+03  0.00000000000E+00 0.  1.
         25    1    1    2    0    0  0.20559537081E+03 -0.90745970647E+02 -0.50382267623E+03  0.56565588193E+03  0.12500000000E+03 0.  0.
          2    1    1    2  501    0 -0.20424869057E+03  0.48137101456E+02 -0.26047955351E+03  0.33449111488E+03  0.00000000000E+00 0.  1.
         -2    1    1    2    0  502 -0.13466802393E+01  0.42608869191E+02 -0.34987670112E+02  0.55149490852E+02  0.00000000000E+00 0. -1.
<mgrwt>
<rscale>  4 0.52318929E+03</rscale>
<asrwt>0</asrwt>
<pdfrwt beam="1">  1       21 0.12000506E-01 0.52318929E+03</pdfrwt>
<pdfrwt beam="2">  1       21 0.13496819E+00 0.52318929E+03</pdfrwt>
<totfact> 0.20301438E+04</totfact>
</mgrwt>
</event>
<event>
 5    0  0.3372079E-003  0.5712918E+03  0.7546771E-02  0.9966824E-01
         21   -1    0    0  503  502  0.00000000000E+00  0.00000000000E+00  0.35570420787E+03  0.35570420787E+03  0.00000000000E+00 0.  1.
         21   -1    0    0  501  503 -0.00000000000E+00 -0.00000000000E+00 -0.22938602060E+03  0.22938602060E+03  0.00000000000E+00 0.  1.
         25    1    1    2    0    0  0.26174325219E+03  0.60929375072E+02  0.90387690507E+02  0.30986586357E+03  0.12500000000E+03 0.  0.
          4    1    1    2  501    0 -0.23762375649E+03 -0.48846108950E+02  0.18912856470E+02  0.24332835459E+03  0.00000000000E+00 0.  1.
         -4    1    1    2    0  502 -0.24119495701E+02 -0.12083266123E+02  0.17017640290E+02  0.31896010316E+02  0.00000000000E+00 0. -1.
<mgrwt>
<rscale>  4 0.57129177E+03</rscale>
<asrwt>0</asrwt>
<pdfrwt beam="1">  1       21 0.54723724E-01 0.57129177E+03</pdfrwt>
<pdfrwt beam="2">  1       21 0.35290157E-01 0.57129177E+03</pdfrwt>
<totfact> 0.21526906E+04</totfact>
</mgrwt>
</event>
<event>
 5    0  0.3372079E-003  0.5348053E+03  0.7546771E-02  0.1005073E+00
         21   -1    0    0  501  502  0.00000000000E+00  0.00000000000E+00  0.12136812399E+03  0.12136812399E+03  0.00000000000E+00 0. -1.
         21   -1    0    0  502  503 -0.00000000000E+00 -0.00000000000E+00 -0.58915121273E+03  0.58915121273E+03  0.00000000000E+00 0. -1.
         25    1    1    2    0    0 -0.99226543849E+02 -0.18652302675E+03 -0.83458308977E+02  0.25928176922E+03  0.12500000000E+03 0.  0.
          2    1    1    2  501    0  0.11905770711E+03  0.12870246131E+03 -0.28478847830E+03  0.33443016991E+03  0.00000000000E+00 0.  1.
         -2    1    1    2    0  503 -0.19831163264E+02  0.57820565440E+02 -0.99536301460E+02  0.11680739759E+03  0.00000000000E+00 0. -1.
<mgrwt>
<rscale>  4 0.53480530E+03</rscale>
<asrwt>0</asrwt>
<pdfrwt beam="1">  1       21 0.18672020E-01 0.53480530E+03</pdfrwt>
<pdfrwt beam="2">  1       21 0.90638646E-01 0.53480530E+03</pdfrwt>
<totfact> 0.24079942E+04</totfact>
</mgrwt>
</event>
<event>
 5    0  0.3372079E-003  0.5044734E+03  0.7546771E-02  0.1012618E+00
         21   -1    0    0  501  502  0.00000000000E+00  0.00000000000E+00  0.21252642595E+03  0.21252642595E+03  0.00000000000E+00 0. -1.
         21   -1    0    0  502  503 -0.00000000000E+00 -0.00000000000E+00 -0.29936684099E+03  0.29936684099E+03  0.00000000000E+00 0. -1.
         25    1    1    2    0    0  0.16892078668E+03  0.13755443063E+03 -0.98606988722E+00  0.25116015985E+03  0.12500000000E+03 0.  0.
          1    1    1    2  501    0 -0.17533336430E+03 -0.88476167569E+02 -0.73716051037E+02  0.20977101098E+03  0.00000000000E+00 0. -1.
         -1    1    1    2    0  503  0.64125776234E+01 -0.49078263064E+02 -0.12138294117E+02  0.50962096123E+02  0.00000000000E+00 0.  1.
<mgrwt>
<rscale>  4 0.50447345E+03</rscale>
<asrwt>0</asrwt>
<pdfrwt beam="1">  1       21 0.32696373E-01 0.50447345E+03</pdfrwt>
<pdfrwt beam="2">  1       21 0.46056437E-01 0.50447345E+03</pdfrwt>
<totfact> 0.36810810E+04</totfact>
</mgrwt>
</event>
<event>
 5    0  0.3372079E-003  0.6475909E+03  0.7546771E-02  0.9811310E-01
         21   -1    0    0  503  502  0.00000000000E+00  0.00000000000E+00  0.11003896931E+04  0.11003896931E+04  0.00000000000E+00 0. -1.
         21   -1    0    0  501  503 -0.00000000000E+00 -0.00000000000E+00 -0.95278514665E+02  0.95278514665E+02  0.00000000000E+00 0. -1.
         25    1    1    2    0    0  0.20066193536E+03 -0.17303553954E+03  0.34538022217E+03  0.45290066031E+03  0.12500000000E+03 0.  0.
          1    1    1    2  501    0 -0.61391463790E+02  0.11680682303E+03  0.10668241955E+03  0.16968760819E+03  0.00000000000E+00 0. -1.
         -1    1    1    2    0  502 -0.13927047157E+03  0.56228716506E+02  0.55304853668E+03  0.57307993922E+03  0.00000000000E+00 0.  1.
<mgrwt>
<rscale>  4 0.64759091E+03</rscale>
<asrwt>0</asrwt>
<pdfrwt beam="1">  1       21 0.16929071E+00 0.64759091E+03</pdfrwt>
<pdfrwt beam="2">  1       21 0.14658234E-01 0.64759091E+03</pdfrwt>
<totfact> 0.72990940E+03</totfact>
</mgrwt>
</event>
<event>
 5    0  0.3372079E-003  0.6321669E+03  0.7546771E-02  0.9840829E-01
         21   -1    0    0  501  502  0.00000000000E+00  0.00000000000E+00  0.11875968303E+03  0.11875968303E+03  0.00000000000E+00 0. -1.
         21   -1    0    0  502  503 -0.00000000000E+00 -0.00000000000E+00 -0.84126809250E+03  0.84126809250E+03  0.00000000000E+00 0. -1.
         25    1    1    2    0    0  0.24095158843E+03 -0.90401939212E+02 -0.50407167275E+03  0.57960627140E+03  0.12500000000E+03 0.  0.
          3    1    1    2  501    0 -0.33628584976E+02 -0.20619466819E+02  0.21098424032E+02  0.44734635754E+02  0.00000000000E+00 0.  1.
         -3    1    1    2    0  503 -0.20732300345E+03  0.11102140603E+03 -0.23953516076E+03  0.33568686837E+03  0.00000000000E+00 0. -1.
<mgrwt>
<rscale>  4 0.63216685E+03</rscale>
<asrwt>0</asrwt>
<pdfrwt beam="1">  1       21 0.18270720E-01 0.63216685E+03</pdfrwt>
<pdfrwt beam="2">  1       21 0.12942586E+00 0.63216685E+03</pdfrwt>
<totfact> 0.10103053E+04</totfact>
</mgrwt>
</event>
<event>
 5    0  0.3372079E-003  0.1002228E+04  0.7546771E-02  0.9306104E-01
         21   -1    0    0  501  502  0.00000000000E+00  0.00000000000E+00  0.21697942470E+04  0.21697942470E+04  0.00000000000E+00 0. -1.
         21   -1    0    0  502  503 -0.00000000000E+00 -0.00000000000E+00 -0.11573230347E+03  0.11573230347E+03  0.00000000000E+00 0. -1.
         25    1    1    2    0    0 -0.44506921869E+03  0.17762324890E+03  0.79865385213E+03  0.93973911460E+03  0.12500000000E+03 0.  0.
          3    1    1    2  501    0  0.37680098238E+02 -0.21130143002E+02  0.66376280872E+02  0.79196486090E+02  0.00000000000E+00 0.  1.
         -3    1    1    2    0  503  0.40738912045E+03 -0.15649310590E+03  0.11890318105E+04  0.12665909498E+04  0.00000000000E+00 0. -1.
<mgrwt>
<rscale>  4 0.10022281E+04</rscale>
<asrwt>0</asrwt>
<pdfrwt beam="1">  1       21 0.33381447E+00 0.10022281E+04</pdfrwt>
<pdfrwt beam="2">  1       21 0.17804971E-01 0.10022281E+04</pdfrwt>
<totfact> 0.39989400E+02</totfact>
</mgrwt>
</event>
<event>
 5    0  0.3372079E-003  0.5610164E+03  0.7546771E-02  0.9989758E-01
         21   -1    0    0  501  502  0.00000000000E+00  0.00000000000E+00  0.17329527726E+03  0.17329527726E+03  0.00000000000E+00 0.  1.
         21   -1    0    0  502  503 -0.00000000000E+00 -0.00000000000E+00 -0.45405070034E+03  0.45405070034E+03  0.00000000000E+00 0.  1.
         25    1    1    2    0    0  0.14441261840E+03 -0.16938415784E+03 -0.25779644125E+03  0.36280849274E+03  0.12500000000E+03 0.  0.
          2    1    1    2  501    0 -0.53310092491E+02  0.21412829273E+02  0.49917472586E+02  0.76106696738E+02  0.00000000000E+00 0.  1.
         -2    1    1    2    0  503 -0.91102525911E+02  0.14797132856E+03 -0.72876454413E+02  0.18843078812E+03  0.00000000000E+00 0. -1.
<mgrwt>
<rscale>  4 0.56101637E+03</rscale>
<asrwt>0</asrwt>
<pdfrwt beam="1">  1       21 0.26660812E-01 0.56101637E+03</pdfrwt>
<pdfrwt beam="2">  1       21 0.69853954E-01 0.56101637E+03</pdfrwt>
<totfact> 0.22023508E+04</totfact>
</mgrwt>
</event>
<event>
 5    0  0.3372079E-003  0.6394441E+03  0.7546771E-02  0.9826791E-01
         21   -1    0    0  501  502  0.00000000000E+00  0.00000000000E+00  0.51074548550E+03  0.51074548550E+03  0.00000000000E+00 0. -1.
         21   -1    0    0  502  503 -0.00000000000E+00 -0.00000000000E+00 -0.20014313130E+03  0.20014313130E+03  0.00000000000E+00 0. -1.
         25    1    1    2    0    0 -0.17454742511E+03  0.99399174132E+02  0.13395788883E+03  0.27187628696E+03  0.12500000000E+03 0.  0.
          4    1    1    2  501    0  0.12502377599E+03 -0.16941342352E+03  0.24951086621E+03  0.32647744943E+03  0.00000000000E+00 0. -1.
         -4    1    1    2    0  503  0.49523649120E+02  0.70014249389E+02 -0.72866400825E+02  0.11253488041E+03  0.00000000000E+00 0.  1.
<mgrwt>
<rscale>  4 0.63944414E+03</rscale>
<asrwt>0</asrwt>
<pdfrwt beam="1">  1       21 0.78576228E-01 0.63944414E+03</pdfrwt>
<pdfrwt beam="2">  1       21 0.30791251E-01 0.63944414E+03</pdfrwt>
<totfact> 0.12434251E+04</totfact>
</mgrwt>
</event>
<event>
 5    0  0.3372079E-003  0.4829108E+03  0.7546771E-02  0.1018338E+00
         21   -1    0    0  501  502  0.00000000000E+00  0.00000000000E+00  0.37900635244E+02  0.37900635244E+02  0.00000000000E+00 0. -1.
         21   -1    0    0  502  503 -0.00000000000E+00 -0.00000000000E+00 -0.15382513804E+04  0.15382513804E+04  0.00000000000E+00 0. -1.
         25    1    1    2    0    0  0.64643964087E+02  0.19804024761E+03 -0.71453053748E+03  0.75470369733E+03  0.12500000000E+03 0.  0.
          4    1    1    2  501    0 -0.91336312812E+02 -0.11888630471E+03 -0.58592956520E+03  0.60480553144E+03  0.00000000000E+00 0. -1.
         -4    1    1    2    0  503  0.26692348725E+02 -0.79153942892E+02 -0.19989064246E+03  0.21664278686E+03  0.00000000000E+00 0.  1.
<mgrwt>
<rscale>  4 0.48291078E+03</rscale>
<asrwt>0</asrwt>
<pdfrwt beam="1">  1       21 0.58308662E-02 0.48291078E+03</pdfrwt>
<pdfrwt beam="2">  1       21 0.23665409E+00 0.48291078E+03</pdfrwt>
<totfact> 0.14137020E+04</totfact>
</mgrwt>
</event>
<event>
 5    0  0.3372079E-003  0.6746438E+03  0.7546771E-02  0.9761605E-01
         21   -1    0    0  503  502  0.00000000000E+00  0.00000000000E+00  0.16468419330E+03  0.16468419330E+03  0.00000000000E+00 0. -1.
         21   -1    0    0  501  503 -0.00000000000E+00 -0.00000000000E+00 -0.69093487281E+03  0.69093487281E+03  0.00000000000E+00 0. -1.
         25    1    1    2    0    0 -0.24169121980E+03  0.65248405122E+02 -0.66622022592E+02  0.28763778263E+03  0.12500000000E+03 0.  0.
          3    1    1    2  501    0  0.14973905942E+03  0.73787584337E+02 -0.22465840821E+03  0.27988889563E+03  0.00000000000E+00 0.  1.
         -3    1    1    2    0  502  0.91952160382E+02 -0.13903598946E+03 -0.23497024870E+03  0.28809238786E+03  0.00000000000E+00 0. -1.
<mgrwt>
<rscale>  4 0.67464376E+03</rscale>
<asrwt>0</asrwt>
<pdfrwt beam="1">  1       21 0.25336030E-01 0.67464376E+03</pdfrwt>
<pdfrwt beam="2">  1       21 0.10629767E+00 0.67464376E+03</pdfrwt>
<totfact> 0.87995230E+03</totfact>
</mgrwt>
</event>
<event>
 5    0  0.3372079E-003  0.5425417E+03  0.7546771E-02  0.1003235E+00
         21   -1    0    0  501  502  0.00000000000E+00  0.00000000000E+00  0.32879799665E+03  0.32879799665E+03  0.00000000000E+00 0.  1.
         21   -1    0    0  502  503 -0.00000000000E+00 -0.00000000000E+00 -0.22380873496E+03  0.22380873496E+03  0.00000000000E+00 0.  1.
         25    1    1    2    0    0  0.15011324050E+03  0.17161428196E+03 -0.12052993878E+02  0.26029929198E+03  0.12500000000E+03 0.  0.
          1    1    1    2  501    0 -0.48728522127E+02 -0.14782024053E+03  0.10437191049E+03  0.18740007492E+03  0.00000000000E+00 0.  1.
         -1    1    1    2    0  503 -0.10138471837E+03 -0.23794041426E+02  0.12670345077E+02  0.10490736471E+03  0.00000000000E+00 0. -1.
<mgrwt>
<rscale>  4 0.54254166E+03</rscale>
<asrwt>0</asrwt>
<pdfrwt beam="1">  1       21 0.50584308E-01 0.54254166E+03</pdfrwt>
<pdfrwt beam="2">  1       21 0.34432113E-01 0.54254166E+03</pdfrwt>
<totfact> 0.26964006E+04</totfact>
</mgrwt>
</event>
<event>
 5    0  0.3372079E-003  0.8815043E+03  0.7546771E-02  0.9449002E-01
         21   -1    0    0  501  502  0.00000000000E+00  0.00000000000E+00  0.55966844110E+03  0.55966844110E+03  0.00000000000E+00 0. -1.
         21   -1    0    0  502  503 -0.00000000000E+00 -0.00000000000E+00 -0.34710274615E+03  0.34710274615E+03  0.00000000000E+00 0. -1.
         25    1    1    2    0    0  0.10999712100E+03  0.32097629132E+03  0.24438435864E+03  0.43643311168E+03  0.12500000000E+03 0.  0.
          3    1    1    2  501    0  0.23965597502E+02 -0.27440255798E+03  0.83194776855E+02  0.28773683217E+03  0.00000000000E+00 0. -1.
         -3    1    1    2    0  503 -0.13396271850E+03 -0.46573733345E+02 -0.11501344055E+03  0.18260124341E+03  0.00000000000E+00 0.  1.
<mgrwt>
<rscale>  4 0.88150429E+03</rscale>
<asrwt>0</asrwt>
<pdfrwt beam="1">  1       21 0.86102837E-01 0.88150429E+03</pdfrwt>
<pdfrwt beam="2">  1       21 0.53400422E-01 0.88150429E+03</pdfrwt>
<totfact> 0.30377430E+03</totfact>
</mgrwt>
</event>
<event>
 5    0  0.3372079E-003  0.6075319E+03  0.7546771E-02  0.9889902E-01
         21   -1    0    0  501  502  0.00000000000E+00  0.00000000000E+00  0.60118570018E+03  0.60118570018E+03  0.00000000000E+00 0.  1.
         21   -1    0    0  502  503 -0.00000000000E+00 -0.00000000000E+00 -0.15348629258E+03  0.15348629258E+03  0.00000000000E+00 0.  1.
         25    1    1    2    0    0 -0.14856416010E+03 -0.24616572563E+03  0.24540410698E+03  0.39814199711E+03  0.12500000000E+03 0.  0.
          3    1    1    2  501    0  0.15200233535E+03  0.22562163138E+03  0.19387862154E+03  0.33406399145E+03  0.00000000000E+00 0.  1.
         -3    1    1    2    0  503 -0.34381752434E+01  0.20544094252E+02  0.84166790711E+01  0.22466004189E+02  0.00000000000E+00 0. -1.
<mgrwt>
<rscale>  4 0.60753194E+03</rscale>
<asrwt>0</asrwt>
<pdfrwt beam="1">  1       21 0.92490106E-01 0.60753194E+03</pdfrwt>
<pdfrwt beam="2">  1       21 0.23613276E-01 0.60753194E+03</pdfrwt>
<totfact> 0.14389361E+04</totfact>
</mgrwt>
</event>
<event>
 5    0  0.3372079E-003  0.5827769E+03  0.7546771E-02  0.9941797E-01
         21   -1    0    0  501  502  0.00000000000E+00  0.00000000000E+00  0.16141709559E+03  0.16141709559E+03  0.00000000000E+00 0.  1.
         21   -1    0    0  502  503 -0.00000000000E+00 -0.00000000000E+00 -0.52601145830E+03  0.52601145830E+03  0.00000000000E+00 0.  1.
         25    1    1    2    0    0  0.15255394958E+03  0.16337555818E+03 -0.38612105911E+01  0.25613314797E+03  0.12500000000E+03 0.  0.
          1    1    1    2  501    0 -0.23768176608E+02 -0.13774636065E+02 -0.10785871679E+02  0.29512740399E+02  0.00000000000E+00 0. -1.
         -1    1    1    2    0  503 -0.12878577298E+03 -0.14960092211E+03 -0.34994728045E+03  0.40178266552E+03  0.00000000000E+00 0.  1.
<mgrwt>
<rscale>  4 0.58277694E+03</rscale>
<asrwt>0</asrwt>
<pdfrwt beam="1">  1       21 0.24833399E-01 0.58277694E+03</pdfrwt>
<pdfrwt beam="2">  1       21 0.80924842E-01 0.58277694E+03</pdfrwt>
<totfact> 0.17979226E+04</totfact>
</mgrwt>
</event>
<event>
 5    0  0.3372079E-003  0.4790008E+03  0.7546771E-02  0.1019410E+00
         21   -1    0    0  501  502  0.00000000000E+00  0.00000000000E+00  0.76273023542E+02  0.76273023542E+02  0.00000000000E+00 0. -1.
         21   -1    0    0  502  503 -0.00000000000E+00 -0.00000000000E+00 -0.75204103253E+03  0.75204103253E+03  0.00000000000E+00 0. -1.
         25    1    1    2    0    0  0.52250414638E+02  0.19413540203E+03 -0.51155620671E+03  0.56367846577E+03  0.12500000000E+03 0.  0.
          1    1    1    2  501    0 -0.25875276512E+02 -0.56145495592E+02 -0.24485620631E+02  0.66493550270E+02  0.00000000000E+00 0.  1.
         -1    1    1    2    0  503 -0.26375138126E+02 -0.13798990644E+03 -0.13972618165E+03  0.19814204003E+03  0.00000000000E+00 0. -1.
<mgrwt>
<rscale>  4 0.47900081E+03</rscale>
<asrwt>0</asrwt>
<pdfrwt beam="1">  1       21 0.11734312E-01 0.47900081E+03</pdfrwt>
<pdfrwt beam="2">  1       21 0.11569862E+00 0.47900081E+03</pdfrwt>
<totfact> 0.31787200E+04</totfact>
</mgrwt>
</event>
<event>
 5    0  0.3372079E-003  0.6738904E+03  0.7546771E-02  0.9762955E-01
         21   -1    0    0  501  502  0.00000000000E+00  0.00000000000E+00  0.15053303630E+03  0.15053303630E+03  0.00000000000E+00 0.  1.
         21   -1    0    0  502  503 -0.00000000000E+00 -0.00000000000E+00 -0.75420028932E+03  0.75420028932E+03  0.00000000000E+00 0.  1.
         25    1    1    2    0    0  0.48095651776E+02 -0.29813575584E+03 -0.19134390400E+03  0.37872894031E+03  0.12500000000E+03 0.  0.
          3    1    1    2  501    0 -0.46418753350E+02  0.36676884561E+02 -0.41470729290E+02  0.72247601424E+02  0.00000000000E+00 0. -1.
         -3    1    1    2    0  503 -0.16768984267E+01  0.26145887128E+03 -0.37085261974E+03  0.45375678389E+03  0.00000000000E+00 0.  1.
<mgrwt>
<rscale>  4 0.67389038E+03</rscale>
<asrwt>0</asrwt>
<pdfrwt beam="1">  1       21 0.23158929E-01 0.67389038E+03</pdfrwt>
<pdfrwt beam="2">  1       21 0.11603081E+00 0.67389038E+03</pdfrwt>
<totfact> 0.84180423E+03</totfact>
</mgrwt>
</event>
<event>
 5    0  0.3372079E-003  0.5226523E+03  0.7546771E-02  0.1008030E+00
         21   -1    0    0  503  502  0.00000000000E+00  0.00000000000E+00  0.10647188171E+03  0.10647188171E+03  0.00000000000E+00 0. -1.
         21   -1    0    0  501  503 -0.00000000000E+00 -0.00000000000E+00 -0.64140285018E+03  0.64140285018E+03  0.00000000000E+00 0. -1.
         25    1    1    2    0    0  0.14687536171E+03  0.18363813708E+03 -0.30549006403E+03  0.40527091740E+03  0.12500000000E+03 0.  0.
          4    1    1    2  501    0 -0.31226341171E+02 -0.11468639251E+03 -0.12218509579E+03  0.17046187446E+03  0.00000000000E+00 0.  1.
         -4    1    1    2    0  502 -0.11564902053E+03 -0.68951744576E+02 -0.10725580864E+03  0.17214194003E+03  0.00000000000E+00 0. -1.
<mgrwt>
<rscale>  4 0.52265234E+03</rscale>
<asrwt>0</asrwt>
<pdfrwt beam="1">  1       21 0.16380290E-01 0.52265234E+03</pdfrwt>
<pdfrwt beam="2">  1       21 0.98677361E-01 0.52265234E+03</pdfrwt>
<totfact> 0.25193034E+04</totfact>
</mgrwt>
</event>
<event>
 5    0  0.3372079E-003  0.7023596E+03  0.7546771E-02  0.9713205E-01
         21   -1    0    0  503  502  0.00000000000E+00  0.00000000000E+00  0.25405517590E+04  0.25405517590E+04  0.00000000000E+00 0. -1.
         21   -1    0    0  501  503 -0.00000000000E+00 -0.00000000000E+00 -0.48543494238E+02  0.48543494238E+02  0.00000000000E+00 0. -1.
         25    1    1    2    0    0 -0.10799550069E+03 -0.26724086129E+03  0.12626823827E+04  0.13011811964E+04  0.12500000000E+03 0.  0.
          4    1    1    2  501    0  0.13786156356E+03  0.56434847068E+02  0.30566697686E+03  0.34003382687E+03  0.00000000000E+00 0.  1.
         -4    1    1    2    0  502 -0.29866062868E+02  0.21080601422E+03  0.92365890522E+03  0.94788023006E+03  0.00000000000E+00 0. -1.
<mgrwt>
<rscale>  4 0.70235962E+03</rscale>
<asrwt>0</asrwt>
<pdfrwt beam="1">  1       21 0.39085401E+00 0.70235962E+03</pdfrwt>
<pdfrwt beam="2">  1       21 0.74682318E-02 0.70235962E+03</pdfrwt>
<totfact> 0.94113045E+02</totfact>
</mgrwt>
</event>
<event>
 5    0  0.3372079E-003  0.7390723E+03  0.7546771E-02  0.9652652E-01
         21   -1    0    0  501  502  0.00000000000E+00  0.00000000000E+00  0.11062372633E+04  0.11062372633E+04  0.00000000000E+00 0.  1.
         21   -1    0    0  502  503 -0.00000000000E+00 -0.00000000000E+00 -0.12344273343E+03  0.12344273343E+03  0.00000000000E+00 0.  1.
         25    1    1    2    0    0  0.24016364558E+03 -0.22006208247E+03  0.73199280163E+03  0.81089108914E+03  0.12500000000E+03 0.  0.
          3    1    1    2  501    0 -0.19674342770E+03  0.18335916621E+03  0.24094602020E+03  0.36108661679E+03  0.00000000000E+00 0. -1.
         -3    1    1    2    0  503 -0.43420217882E+02  0.36702916262E+02  0.98557080408E+01  0.57702290804E+02  0.00000000000E+00 0.  1.
<mgrwt>
<rscale>  4 0.73907226E+03</rscale>
<asrwt>0</asrwt>
<pdfrwt beam="1">  1       21 0.17019034E+00 0.73907226E+03</pdfrwt>
<pdfrwt beam="2">  1       21 0.18991191E-01 0.73907226E+03</pdfrwt>
<totfact> 0.43179079E+03</totfact>
</mgrwt>
</event>
<event>
 5    0  0.3372079E-003  0.5687725E+03  0.7546771E-02  0.9972399E-01
         21   -1    0    0  503  502  0.00000000000E+00  0.00000000000E+00  0.80453844077E+02  0.80453844077E+02  0.00000000000E+00 0. -1.
         21   -1    0    0  501  503 -0.00000000000E+00 -0.00000000000E+00 -0.10052413999E+04  0.10052413999E+04  0.00000000000E+00 0. -1.
         25    1    1    2    0    0  0.76265756070E+02 -0.21341955342E+03 -0.25586770515E+03  0.36394732293E+03  0.12500000000E+03 0.  0.
          4    1    1    2  501    0 -0.80716264848E+02  0.27933922384E+02 -0.21980299177E+03  0.23581512806E+03  0.00000000000E+00 0.  1.
         -4    1    1    2    0  502  0.44505087774E+01  0.18548563103E+03 -0.44911685889E+03  0.48593279297E+03  0.00000000000E+00 0. -1.
<mgrwt>
<rscale>  4 0.56877248E+03</rscale>
<asrwt>0</asrwt>
<pdfrwt beam="1">  1       21 0.12377515E-01 0.56877248E+03</pdfrwt>
<pdfrwt beam="2">  1       21 0.15465251E+00 0.56877248E+03</pdfrwt>
<totfact> 0.13133359E+04</totfact>
</mgrwt>
</event>
<event>
 5    0  0.3372079E-003  0.5463749E+03  0.7546771E-02  0.1002336E+00
         21   -1    0    0  501  502  0.00000000000E+00  0.00000000000E+00  0.10057219821E+04  0.10057219821E+04  0.00000000000E+00 0.  1.
         21   -1    0    0  502  503 -0.00000000000E+00 -0.00000000000E+00 -0.74206769048E+02  0.74206769048E+02  0.00000000000E+00 0.  1.
         25    1    1    2    0    0  0.14702858209E+03  0.16688587840E+03  0.71761883640E+03  0.76162332863E+03  0.12500000000E+03 0.  0.
          2    1    1    2  501    0 -0.13426980059E+03 -0.10911830240E+03  0.18191585505E+03  0.25105489756E+03  0.00000000000E+00 0. -1.
         -2    1    1    2    0  503 -0.12758781496E+02 -0.57767576000E+02  0.31980521565E+02  0.67250524918E+02  0.00000000000E+00 0.  1.
<mgrwt>
<rscale>  4 0.54637489E+03</rscale>
<asrwt>0</asrwt>
<pdfrwt beam="1">  1       21 0.15472645E+00 0.54637489E+03</pdfrwt>
<pdfrwt beam="2">  1       21 0.11416427E-01 0.54637489E+03</pdfrwt>
<totfact> 0.15289892E+04</totfact>
</mgrwt>
</event>
<event>
 5    0  0.3372079E-003  0.6388072E+03  0.7546771E-02  0.9828011E-01
         21   -1    0    0  501  502  0.00000000000E+00  0.00000000000E+00  0.68055854468E+02  0.68055854468E+02  0.00000000000E+00 0.  1.
         21   -1    0    0  502  503 -0.00000000000E+00 -0.00000000000E+00 -0.14990430025E+04  0.14990430025E+04  0.00000000000E+00 0.  1.
         25    1    1    2    0    0  0.24482290295E+03 -0.93366661524E+02 -0.68475706724E+03  0.74375589304E+03  0.12500000000E+03 0.  0.
          1    1    1    2  501    0 -0.53455078125E+02  0.42158144386E+02 -0.51229351410E+03  0.51679725145E+03  0.00000000000E+00 0. -1.
         -1    1    1    2    0  503 -0.19136782483E+03  0.51208517138E+02 -0.23393656672E+03  0.30654571250E+03  0.00000000000E+00 0.  1.
<mgrwt>
<rscale>  4 0.63880718E+03</rscale>
<asrwt>0</asrwt>
<pdfrwt beam="1">  1       21 0.10470131E-01 0.63880718E+03</pdfrwt>
<pdfrwt beam="2">  1       21 0.23062202E+00 0.63880718E+03</pdfrwt>
<totfact> 0.51959165E+03</totfact>
</mgrwt>
</event>
<event>
 5    0  0.3372079E-003  0.5267160E+03  0.7546771E-02  0.1007032E+00
         21   -1    0    0  501  502  0.00000000000E+00  0.00000000000E+00  0.23557878451E+04  0.23557878451E+04  0.00000000000E+00 0.  1.
         21   -1    0    0  502  503 -0.00000000000E+00 -0.00000000000E+00 -0.29441291904E+02  0.29441291904E+02  0.00000000000E+00 0.  1.
         25    1    1    2    0    0  0.21624850924E+03 -0.25703394305E+01  0.11380189211E+04  0.11651103335E+04  0.12500000000E+03 0.  0.
          1    1    1    2  501    0 -0.69835818026E+02  0.46587506074E+02  0.77300451857E+03  0.77754962731E+03  0.00000000000E+00 0. -1.
         -1    1    1    2    0  503 -0.14641269121E+03 -0.44017166644E+02  0.41532311349E+03  0.44256917618E+03  0.00000000000E+00 0.  1.
<mgrwt>
<rscale>  4 0.52671601E+03</rscale>
<asrwt>0</asrwt>
<pdfrwt beam="1">  1       21 0.36242875E+00 0.52671601E+03</pdfrwt>
<pdfrwt beam="2">  1       21 0.45294314E-02 0.52671601E+03</pdfrwt>
<totfact> 0.36675261E+03</totfact>
</mgrwt>
</event>
<event>
 5    0  0.3372079E-003  0.5701289E+03  0.7546771E-02  0.9969393E-01
         21   -1    0    0  501  502  0.00000000000E+00  0.00000000000E+00  0.28238801491E+04  0.28238801491E+04  0.00000000000E+00 0.  1.
         21   -1    0    0  502  503 -0.00000000000E+00 -0.00000000000E+00 -0.28776624588E+02  0.28776624588E+02  0.00000000000E+00 0.  1.
         25    1    1    2    0    0 -0.85620691049E+02  0.22656052322E+03  0.15381301329E+04  0.15620915079E+04  0.12500000000E+03 0.  0.
          3    1    1    2  501    0  0.10311524257E+03 -0.94189939746E+02  0.87156293677E+03  0.88268139821E+03  0.00000000000E+00 0.  1.
         -3    1    1    2    0  503 -0.17494551520E+02 -0.13237058347E+03  0.38541045486E+03  0.40788386756E+03  0.00000000000E+00 0. -1.
<mgrwt>
<rscale>  4 0.57012889E+03</rscale>
<asrwt>0</asrwt>
<pdfrwt beam="1">  1       21 0.43444288E+00 0.57012889E+03</pdfrwt>
<pdfrwt beam="2">  1       21 0.44271752E-02 0.57012889E+03</pdfrwt>
<totfact> 0.12834994E+03</totfact>
</mgrwt>
</event>
<event>
 5    0  0.3372079E-003  0.5504356E+03  0.7546771E-02  0.1001393E+00
         21   -1    0    0  503  502  0.00000000000E+00  0.00000000000E+00  0.14335423422E+03  0.14335423422E+03  0.00000000000E+00 0.  1.
         21   -1    0    0  501  503 -0.00000000000E+00 -0.00000000000E+00 -0.52837538065E+03  0.52837538065E+03  0.00000000000E+00 0.  1.
         25    1    1    2    0    0  0.23862270963E+03 -0.55965735681E+02 -0.99574818756E+02  0.29259717301E+03  0.12500000000E+03 0.  0.
          1    1    1    2  501    0 -0.26799931250E+02  0.20658856519E+02 -0.50958181695E+02  0.61169935012E+02  0.00000000000E+00 0. -1.
         -1    1    1    2    0  502 -0.21182277838E+03  0.35306879162E+02 -0.23448814597E+03  0.31796250685E+03  0.00000000000E+00 0.  1.
<mgrwt>
<rscale>  4 0.55043564E+03</rscale>
<asrwt>0</asrwt>
<pdfrwt beam="1">  1       21 0.22054498E-01 0.55043564E+03</pdfrwt>
<pdfrwt beam="2">  1       21 0.81288520E-01 0.55043564E+03</pdfrwt>
<totfact> 0.22554788E+04</totfact>
</mgrwt>
</event>
<event>
 5    0  0.3372079E-003  0.5523499E+03  0.7546771E-02  0.1000951E+00
         21   -1    0    0  501  502  0.00000000000E+00  0.00000000000E+00  0.20448493663E+03  0.20448493663E+03  0.00000000000E+00 0.  1.
         21   -1    0    0  502  503 -0.00000000000E+00 -0.00000000000E+00 -0.37299869344E+03  0.37299869344E+03  0.00000000000E+00 0.  1.
         25    1    1    2    0    0  0.23191452826E+03  0.59220403024E+02 -0.61372355773E+02  0.27691690199E+03  0.12500000000E+03 0.  0.
          1    1    1    2  501    0  0.10414248732E+02 -0.31326712302E+02  0.25469329481E+01  0.33110517178E+02  0.00000000000E+00 0. -1.
         -1    1    1    2    0  503 -0.24232877699E+03 -0.27893690722E+02 -0.10968833398E+03  0.26745621091E+03  0.00000000000E+00 0.  1.
<mgrwt>
<rscale>  4 0.55234994E+03</rscale>
<asrwt>0</asrwt>
<pdfrwt beam="1">  1       21 0.31459221E-01 0.55234994E+03</pdfrwt>
<pdfrwt beam="2">  1       21 0.57384414E-01 0.55234994E+03</pdfrwt>
<totfact> 0.24583169E+04</totfact>
</mgrwt>
</event>
<event>
 5    0  0.3372079E-003  0.5719685E+03  0.7546771E-02  0.9965332E-01
         21   -1    0    0  503  502  0.00000000000E+00  0.00000000000E+00  0.57199985503E+03  0.57199985503E+03  0.00000000000E+00 0.  1.
         21   -1    0    0  501  503 -0.00000000000E+00 -0.00000000000E+00 -0.14298428091E+03  0.14298428091E+03  0.00000000000E+00 0.  1.
         25    1    1    2    0    0  0.16480038530E+03 -0.19583660882E+03  0.20505435078E+03  0.35097497222E+03  0.12500000000E+03 0.  0.
          4    1    1    2  501    0 -0.34683404508E+02  0.55139295626E+01 -0.89991413152E+01  0.36253641360E+02  0.00000000000E+00 0. -1.
         -4    1    1    2    0  502 -0.13011698080E+03  0.19032267926E+03  0.23296036466E+03  0.32775552235E+03  0.00000000000E+00 0.  1.
<mgrwt>
<rscale>  4 0.57196849E+03</rscale>
<asrwt>0</asrwt>
<pdfrwt beam="1">  1       21 0.87999976E-01 0.57196849E+03</pdfrwt>
<pdfrwt beam="2">  1       21 0.21997582E-01 0.57196849E+03</pdfrwt>
<totfact> 0.18727357E+04</totfact>
</mgrwt>
</event>
<event>
 5    0  0.3372079E-003  0.7346681E+03  0.7546771E-02  0.9659715E-01
         21   -1    0    0  501  502  0.00000000000E+00  0.00000000000E+00  0.21234172840E+04  0.21234172840E+04  0.00000000000E+00 0. -1.
         21   -1    0    0  502  503 -0.00000000000E+00 -0.00000000000E+00 -0.63545833432E+02  0.63545833432E+02  0.00000000000E+00 0. -1.
         25    1    1    2    0    0 -0.20485063833E+03 -0.16142561780E+02  0.23441070916E+03  0.33585375819E+03  0.12500000000E+03 0.  0.
          4    1    1    2  501    0  0.26145072981E+02  0.10400185378E+03  0.58027809680E+03  0.59010390615E+03  0.00000000000E+00 0. -1.
         -4    1    1    2    0  503  0.17870556535E+03 -0.87859292002E+02  0.12451826447E+04  0.12610054531E+04  0.00000000000E+00 0.  1.
<mgrwt>
<rscale>  4 0.73466815E+03</rscale>
<asrwt>0</asrwt>
<pdfrwt beam="1">  1       21 0.32667953E+00 0.73466815E+03</pdfrwt>
<pdfrwt beam="2">  1       21 0.97762837E-02 0.73466815E+03</pdfrwt>
<totfact> 0.14543790E+03</totfact>
</mgrwt>
</event>
<event>
 5    0  0.3372079E-003  0.4655793E+03  0.7546771E-02  0.1023175E+00
         21   -1    0    0  503  502  0.00000000000E+00  0.00000000000E+00  0.13202607341E+03  0.13202607341E+03  0.00000000000E+00 0.  1.
         21   -1    0    0  501  503 -0.00000000000E+00 -0.00000000000E+00 -0.41045701456E+03  0.41045701456E+03  0.00000000000E+00 0.  1.
         25    1    1    2    0    0 -0.17495973417E+03  0.10919932837E+03 -0.13035695144E+03  0.27414108901E+03  0.12500000000E+03 0.  0.
          3    1    1    2  501    0  0.16671622450E+03 -0.81719455991E+02 -0.15125090368E+03  0.23947694015E+03  0.00000000000E+00 0.  1.
         -3    1    1    2    0  502  0.82435096769E+01 -0.27479872378E+02  0.31769139660E+01  0.28865058809E+02  0.00000000000E+00 0. -1.
<mgrwt>
<rscale>  4 0.46557933E+03</rscale>
<asrwt>0</asrwt>
<pdfrwt beam="1">  1       21 0.20311704E-01 0.46557933E+03</pdfrwt>
<pdfrwt beam="2">  1       21 0.63147232E-01 0.46557933E+03</pdfrwt>
<totfact> 0.47691659E+04</totfact>
</mgrwt>
</event>
<event>
 5    0  0.3372079E-003  0.8114426E+03  0.7546771E-02  0.9543600E-01
         21   -1    0    0  503  502  0.00000000000E+00  0.00000000000E+00  0.37072923304E+03  0.37072923304E+03  0.00000000000E+00 0.  1.
         21   -1    0    0  501  503 -0.00000000000E+00 -0.00000000000E+00 -0.44401619763E+03  0.44401619763E+03  0.00000000000E+00 0.  1.
         25    1    1    2    0    0 -0.28070057034E+03  0.66617449203E+01  0.22830121234E+03  0.38286241992E+03  0.12500000000E+03 0.  0.
          2    1    1    2  501    0  0.87565578226E+02 -0.30123821370E+02 -0.18010002621E+03  0.20251220839E+03  0.00000000000E+00 0. -1.
         -2    1    1    2    0  502  0.19313499211E+03  0.23462076450E+02 -0.12148815072E+03  0.22937080236E+03  0.00000000000E+00 0.  1.
<mgrwt>
<rscale>  4 0.81144263E+03</rscale>
<asrwt>0</asrwt>
<pdfrwt beam="1">  1       21 0.57035267E-01 0.81144263E+03</pdfrwt>
<pdfrwt beam="2">  1       21 0.68310184E-01 0.81144263E+03</pdfrwt>
<totfact> 0.45606165E+03</totfact>
</mgrwt>
</event>
<event>
 5    0  0.3372079E-003  0.4735074E+03  0.7546771E-02  0.1020935E+00
         21   -1    0    0  503  502  0.00000000000E+00  0.00000000000E+00  0.91492403318E+02  0.91492403318E+02  0.00000000000E+00 0. -1.
         21   -1    0    0  501  503 -0.00000000000E+00 -0.00000000000E+00 -0.61264434661E+03  0.61264434661E+03  0.00000000000E+00 0. -1.
         25    1    1    2    0    0  0.10091727752E+03  0.18229816081E+03 -0.33716168840E+03  0.41559586194E+03  0.12500000000E+03 0.  0.
          3    1    1    2  501    0 -0.92335651802E+02 -0.12437518396E+03 -0.16653342255E+03  0.22743887048E+03  0.00000000000E+00 0.  1.
         -3    1    1    2    0  502 -0.85816257154E+01 -0.57922976853E+02 -0.17456832337E+02  0.61102017501E+02  0.00000000000E+00 0. -1.
<mgrwt>
<rscale>  4 0.47350735E+03</rscale>
<asrwt>0</asrwt>
<pdfrwt beam="1">  1       21 0.14075755E-01 0.47350735E+03</pdfrwt>
<pdfrwt beam="2">  1       21 0.94252974E-01 0.47350735E+03</pdfrwt>
<totfact> 0.37724978E+04</totfact>
</mgrwt>
</event>
<event>
 5    0  0.3372079E-003  0.7363475E+03  0.7546771E-02  0.9657016E-01
         21   -1    0    0  503  502  0.00000000000E+00  0.00000000000E+00  0.59337999428E+03  0.59337999428E+03  0.00000000000E+00 0.  1.
         21   -1    0    0  501  503 -0.00000000000E+00 -0.00000000000E+00 -0.22844032713E+03  0.22844032713E+03  0.00000000000E+00 0.  1.
         25    1    1    2    0    0 -0.86330500632E+02  0.32059218500E+03  0.27734281207E+03  0.45030693958E+03  0.12500000000E+03 0.  0.
          2    1    1    2  501    0 -0.79782833284E+01 -0.11685389968E+03 -0.25889418142E+02  0.11995311104E+03  0.00000000000E+00 0. -1.
         -2    1    1    2    0  502  0.94308783961E+02 -0.20373828532E+03  0.11348627322E+03  0.25156027080E+03  0.00000000000E+00 0.  1.
<mgrwt>
<rscale>  4 0.73634753E+03</rscale>
<asrwt>0</asrwt>
<pdfrwt beam="1">  1       21 0.91289229E-01 0.73634753E+03</pdfrwt>
<pdfrwt beam="2">  1       21 0.35144666E-01 0.73634753E+03</pdfrwt>
<totfact> 0.65510730E+03</totfact>
</mgrwt>
</event>
<event>
 5    0  0.3372079E-003  0.5841533E+03  0.7546771E-02  0.9938839E-01
         21   -1    0    0  501  502  0.00000000000E+00  0.00000000000E+00  0.68123017589E+03  0.68123017589E+03  0.00000000000E+00 0. -1.
         21   -1    0    0  502  503 -0.00000000000E+00 -0.00000000000E+00 -0.12522753675E+03  0.12522753675E+03  0.00000000000E+00 0. -1.
         25    1    1    2    0    0  0.25308802229E+03 -0.29258797717E+02  0.35427448156E+03  0.45392183529E+03  0.12500000000E+03 0.  0.
          3    1    1    2  501    0 -0.50176558205E+02 -0.31285316562E+02  0.10329902121E+03  0.11902581992E+03  0.00000000000E+00 0.  1.
         -3    1    1    2    0  503 -0.20291146409E+03  0.60544114279E+02  0.98429136376E+02  0.23351005743E+03  0.00000000000E+00 0. -1.
<mgrwt>
<rscale>  4 0.58415333E+03</rscale>
<asrwt>0</asrwt>
<pdfrwt beam="1">  1       21 0.10480464E+00 0.58415333E+03</pdfrwt>
<pdfrwt beam="2">  1       21 0.19265775E-01 0.58415333E+03</pdfrwt>
<totfact> 0.15777333E+04</totfact>
</mgrwt>
</event>
<event>
 5    0  0.3372079E-003  0.5996023E+03  0.7546771E-02  0.9906231E-01
         21   -1    0    0  503  502  0.00000000000E+00  0.00000000000E+00  0.21475723648E+03  0.21475723648E+03  0.00000000000E+00 0.  1.
         21   -1    0    0  501  503 -0.00000000000E+00 -0.00000000000E+00 -0.41852249483E+03  0.41852249483E+03  0.00000000000E+00 0.  1.
         25    1    1    2    0    0  0.18796663456E+03 -0.10070426560E+03  0.56332188733E+02  0.25351749507E+03  0.12500000000E+03 0.  0.
          3    1    1    2  501    0 -0.16997260662E+02  0.10287598722E+03 -0.11774348561E+03  0.15727652088E+03  0.00000000000E+00 0.  1.
         -3    1    1    2    0  502 -0.17096937390E+03 -0.21717216246E+01 -0.14235396147E+03  0.22248571535E+03  0.00000000000E+00 0. -1.
<mgrwt>
<rscale>  4 0.59960232E+03</rscale>
<asrwt>0</asrwt>
<pdfrwt beam="1">  1       21 0.33039575E-01 0.59960232E+03</pdfrwt>
<pdfrwt beam="2">  1       21 0.64388075E-01 0.59960232E+03</pdfrwt>
<totfact> 0.17106918E+04</totfact>
</mgrwt>
</event>
<event>
 5    0  0.3372079E-003  0.4541080E+03  0.7546771E-02  0.1026504E+00
         21   -1    0    0  501  502  0.00000000000E+00  0.00000000000E+00  0.63790669175E+02  0.63790669175E+02  0.00000000000E+00 0. -1.
         21   -1    0    0  502  503 -0.00000000000E+00 -0.00000000000E+00 -0.80816690871E+03  0.80816690871E+03  0.00000000000E+00 0. -1.
         25    1    1    2    0    0  0.20119580250E+03 -0.66919844488E+01 -0.30596702785E+03  0.38699529162E+03  0.12500000000E+03 0.  0.
          2    1    1    2  501    0 -0.14459680391E+03 -0.11356652275E+02 -0.34517200528E+03  0.37440742845E+03  0.00000000000E+00 0. -1.
         -2    1    1    2    0  503 -0.56598998590E+02  0.18048636723E+02 -0.93237206410E+02  0.11055485782E+03  0.00000000000E+00 0.  1.
<mgrwt>
<rscale>  4 0.45410795E+03</rscale>
<asrwt>0</asrwt>
<pdfrwt beam="1">  1       21 0.98139493E-02 0.45410795E+03</pdfrwt>
<pdfrwt beam="2">  1       21 0.12433337E+00 0.45410795E+03</pdfrwt>
<totfact> 0.36799272E+04</totfact>
</mgrwt>
</event>
<event>
 5    0  0.3372079E-003  0.4820728E+03  0.7546771E-02  0.1018567E+00
         21   -1    0    0  503  502  0.00000000000E+00  0.00000000000E+00  0.28941099877E+03  0.28941099877E+03  0.00000000000E+00 0. -1.
         21   -1    0    0  501  503 -0.00000000000E+00 -0.00000000000E+00 -0.20074753283E+03  0.20074753283E+03  0.00000000000E+00 0. -1.
         25    1    1    2    0    0 -0.12443102905E+02  0.20655606858E+03  0.12583230494E+03  0.27254175688E+03  0.12500000000E+03 0.  0.
          3    1    1    2  501    0 -0.53713039567E+00 -0.45481331148E+02 -0.32590259005E+02  0.55955026353E+02  0.00000000000E+00 0.  1.
         -3    1    1    2    0  502  0.12980233301E+02 -0.16107473743E+03 -0.45785799889E+01  0.16166174838E+03  0.00000000000E+00 0. -1.
<mgrwt>
<rscale>  4 0.48207279E+03</rscale>
<asrwt>0</asrwt>
<pdfrwt beam="1">  1       21 0.44524769E-01 0.48207279E+03</pdfrwt>
<pdfrwt beam="2">  1       21 0.30884236E-01 0.48207279E+03</pdfrwt>
<totfact> 0.44510845E+04</totfact>
</mgrwt>
</event>
<event>
 5    0  0.3372079E-003  0.4623183E+03  0.7546771E-02  0.1024111E+00
         21   -1    0    0  501  502  0.00000000000E+00  0.00000000000E+00  0.33531741742E+02  0.33531741742E+02  0.00000000000E+00 0. -1.
         21   -1    0    0  502  503 -0.00000000000E+00 -0.00000000000E+00 -0.15935510726E+04  0.15935510726E+04  0.00000000000E+00 0. -1.
         25    1    1    2    0    0 -0.18754094217E+03 -0.99807818968E+02 -0.79704995221E+03  0.83429421191E+03  0.12500000000E+03 0.  0.
          4    1    1    2  501    0  0.16893484298E+03  0.87624911241E+02 -0.63511829638E+03  0.66301761413E+03  0.00000000000E+00 0. -1.
         -4    1    1    2    0  503  0.18606099191E+02  0.12182907727E+02 -0.12785108224E+03  0.12977098828E+03  0.00000000000E+00 0.  1.
<mgrwt>
<rscale>  4 0.46231826E+03</rscale>
<asrwt>0</asrwt>
<pdfrwt beam="1">  1       21 0.51587298E-02 0.46231826E+03</pdfrwt>
<pdfrwt beam="2">  1       21 0.24516169E+00 0.46231826E+03</pdfrwt>
<totfact> 0.15594884E+04</totfact>
</mgrwt>
</event>
<event>
 5    0  0.3372079E-003  0.4919036E+03  0.7546771E-02  0.1015914E+00
         21   -1    0    0  501  502  0.00000000000E+00  0.00000000000E+00  0.34828454913E+02  0.34828454913E+02  0.00000000000E+00 0. -1.
         21   -1    0    0  502  503 -0.00000000000E+00 -0.00000000000E+00 -0.17368638996E+04  0.17368638996E+04  0.00000000000E+00 0. -1.
         25    1    1    2    0    0 -0.16030730219E+03  0.12638530851E+03 -0.95674614027E+03  0.98623519216E+03  0.12500000000E+03 0.  0.
          4    1    1    2  501    0  0.47077316417E+02  0.25769443895E+02 -0.10890265220E+03  0.12140891901E+03  0.00000000000E+00 0. -1.
         -4    1    1    2    0  503  0.11322998577E+03 -0.15215475241E+03 -0.63638665222E+03  0.66404824334E+03  0.00000000000E+00 0.  1.
<mgrwt>
<rscale>  4 0.49190359E+03</rscale>
<asrwt>0</asrwt>
<pdfrwt beam="1">  1       21 0.53582254E-02 0.49190359E+03</pdfrwt>
<pdfrwt beam="2">  1       21 0.26720975E+00 0.49190359E+03</pdfrwt>
<totfact> 0.10581449E+04</totfact>
</mgrwt>
</event>
<event>
 5    0  0.3372079E-003  0.7418465E+03  0.7546771E-02  0.9648229E-01
         21   -1    0    0  503  502  0.00000000000E+00  0.00000000000E+00  0.92256464686E+02  0.92256464686E+02  0.00000000000E+00 0. -1.
         21   -1    0    0  501  503 -0.00000000000E+00 -0.00000000000E+00 -0.14913216895E+04  0.14913216895E+04  0.00000000000E+00 0. -1.
         25    1    1    2    0    0 -0.28173372444E+03  0.18178897393E+03 -0.89595240742E+03  0.96476776423E+03  0.12500000000E+03 0.  0.
          2    1    1    2  501    0  0.26191900437E+03 -0.16965770194E+03 -0.50691150834E+03  0.59526849234E+03  0.00000000000E+00 0. -1.
         -2    1    1    2    0  502  0.19814720078E+02 -0.12131271991E+02  0.37986909309E+01  0.23541897643E+02  0.00000000000E+00 0.  1.
<mgrwt>
<rscale>  4 0.74184653E+03</rscale>
<asrwt>0</asrwt>
<pdfrwt beam="1">  1       21 0.14193304E-01 0.74184653E+03</pdfrwt>
<pdfrwt beam="2">  1       21 0.22943408E+00 0.74184653E+03</pdfrwt>
<totfact> 0.29396225E+03</totfact>
</mgrwt>
</event>
<event>
 5    0  0.3372079E-003  0.5263961E+03  0.7546771E-02  0.1007110E+00
         21   -1    0    0  501  502  0.00000000000E+00  0.00000000000E+00  0.29320896404E+04  0.29320896404E+04  0.00000000000E+00 0. -1.
         21   -1    0    0  502  503 -0.00000000000E+00 -0.00000000000E+00 -0.23625881421E+02  0.23625881421E+02  0.00000000000E+00 0. -1.
         25    1    1    2    0    0  0.23883462625E+02 -0.23253791915E+03  0.14633493877E+04  0.14871653352E+04  0.12500000000E+03 0.  0.
          3    1    1    2  501    0  0.22868240623E+02  0.33737268507E+02  0.49814452743E+03  0.49980909348E+03  0.00000000000E+00 0.  1.
         -3    1    1    2    0  503 -0.46751703247E+02  0.19880065064E+03  0.94696984385E+03  0.96874109318E+03  0.00000000000E+00 0. -1.
<mgrwt>
<rscale>  4 0.52639606E+03</rscale>
<asrwt>0</asrwt>
<pdfrwt beam="1">  1       21 0.45109043E+00 0.52639606E+03</pdfrwt>
<pdfrwt beam="2">  1       21 0.36347533E-02 0.52639606E+03</pdfrwt>
<totfact> 0.14187213E+03</totfact>
</mgrwt>
</event>
<event>
 5    0  0.3372079E-003  0.7393693E+03  0.7546771E-02  0.9652177E-01
         21   -1    0    0  501  502  0.00000000000E+00  0.00000000000E+00  0.27320291427E+03  0.27320291427E+03  0.00000000000E+00 0.  1.
         21   -1    0    0  502  503 -0.00000000000E+00 -0.00000000000E+00 -0.50023901818E+03  0.50023901818E+03  0.00000000000E+00 0.  1.
         25    1    1    2    0    0 -0.14623741323E+03  0.31882873237E+03 -0.11626565358E+03  0.39010235043E+03  0.12500000000E+03 0.  0.
          4    1    1    2  501    0  0.14096677345E+03 -0.22671545096E+03 -0.11566346019E+03  0.29094597942E+03  0.00000000000E+00 0.  1.
         -4    1    1    2    0  503  0.52706397847E+01 -0.92113281407E+02  0.48930098513E+01  0.92393602596E+02  0.00000000000E+00 0. -1.
<mgrwt>
<rscale>  4 0.73936935E+03</rscale>
<asrwt>0</asrwt>
<pdfrwt beam="1">  1       21 0.42031218E-01 0.73936935E+03</pdfrwt>
<pdfrwt beam="2">  1       21 0.76959849E-01 0.73936935E+03</pdfrwt>
<totfact> 0.67653544E+03</totfact>
</mgrwt>
</event>
<event>
 5    0  0.3372079E-003  0.6472647E+03  0.7546771E-02  0.9811925E-01
         21   -1    0    0  501  502  0.00000000000E+00  0.00000000000E+00  0.58330743806E+03  0.58330743806E+03  0.00000000000E+00 0.  1.
         21   -1    0    0  502  503 -0.00000000000E+00 -0.00000000000E+00 -0.17955867508E+03  0.17955867508E+03  0.00000000000E+00 0.  1.
         25    1    1    2    0    0  0.69935973819E+02 -0.28332386419E+03  0.14826507559E+03  0.35038690771E+03  0.12500000000E+03 0.  0.
          2    1    1    2  501    0 -0.81148054563E+02  0.89124156550E+02  0.52918238815E+02  0.13163761635E+03  0.00000000000E+00 0. -1.
         -2    1    1    2    0  503  0.11212080744E+02  0.19419970764E+03  0.20256544857E+03  0.28084158908E+03  0.00000000000E+00 0.  1.
<mgrwt>
<rscale>  4 0.64726474E+03</rscale>
<asrwt>0</asrwt>
<pdfrwt beam="1">  1       21 0.89739605E-01 0.64726474E+03</pdfrwt>
<pdfrwt beam="2">  1       21 0.27624412E-01 0.64726474E+03</pdfrwt>
<totfact> 0.11276459E+04</totfact>
</mgrwt>
</event>
<event>
 5    0  0.3372079E-003  0.6670175E+03  0.7546771E-02  0.9775361E-01
         21   -1    0    0  501  502  0.00000000000E+00  0.00000000000E+00  0.11048589531E+04  0.11048589531E+04  0.00000000000E+00 0.  1.
         21   -1    0    0  502  503 -0.00000000000E+00 -0.00000000000E+00 -0.10067175557E+03  0.10067175557E+03  0.00000000000E+00 0.  1.
         25    1    1    2    0    0  0.59579279300E+02 -0.19321841799E+03  0.33901152581E+03  0.41404934755E+03  0.12500000000E+03 0.  0.
          1    1    1    2  501    0 -0.87045075637E+01 -0.76113125484E+02  0.51227635279E+01  0.76780329702E+02  0.00000000000E+00 0.  1.
         -1    1    1    2    0  503 -0.50874771737E+02  0.26933154347E+03  0.66005290821E+03  0.71470103144E+03  0.00000000000E+00 0. -1.
<mgrwt>
<rscale>  4 0.66701751E+03</rscale>
<asrwt>0</asrwt>
<pdfrwt beam="1">  1       21 0.16997829E+00 0.66701751E+03</pdfrwt>
<pdfrwt beam="2">  1       21 0.15487963E-01 0.66701751E+03</pdfrwt>
<totfact> 0.64790493E+03</totfact>
</mgrwt>
</event>
<event>
 5    0  0.3372079E-003  0.6189529E+03  0.7546771E-02  0.9866847E-01
         21   -1    0    0  501  502  0.00000000000E+00  0.00000000000E+00  0.22044146239E+04  0.22044146239E+04  0.00000000000E+00 0.  1.
         21   -1    0    0  502  503 -0.00000000000E+00 -0.00000000000E+00 -0.43447209138E+02  0.43447209138E+02  0.00000000000E+00 0.  1.
         25    1    1    2    0    0 -0.78866680193E+02 -0.19716436210E+03  0.50324490434E+03  0.56033398315E+03  0.12500000000E+03 0.  0.
          4    1    1    2  501    0  0.12823862391E+03  0.13201086860E+03  0.14858539383E+04  0.14972087163E+04  0.00000000000E+00 0. -1.
         -4    1    1    2    0  503 -0.49371943716E+02  0.65153493499E+02  0.17186857211E+03  0.19031913362E+03  0.00000000000E+00 0.  1.
<mgrwt>
<rscale>  4 0.61895287E+03</rscale>
<asrwt>0</asrwt>
<pdfrwt beam="1">  1       21 0.33914062E+00 0.61895287E+03</pdfrwt>
<pdfrwt beam="2">  1       21 0.66841877E-02 0.61895287E+03</pdfrwt>
<totfact> 0.25008673E+03</totfact>
</mgrwt>
</event>
<event>
 5    0  0.3372079E-003  0.5736333E+03  0.7546771E-02  0.9961671E-01
         21   -1    0    0  501  502  0.00000000000E+00  0.00000000000E+00  0.12817212657E+03  0.12817212657E+03  0.00000000000E+00 0.  1.
         21   -1    0    0  502  503 -0.00000000000E+00 -0.00000000000E+00 -0.64182271281E+03  0.64182271281E+03  0.00000000000E+00 0.  1.
         25    1    1    2    0    0 -0.91832896890E+02 -0.24591247133E+03 -0.30891671289E+03  0.42421782142E+03  0.12500000000E+03 0.  0.
          1    1    1    2  501    0  0.36597136475E+02  0.20853373150E+03 -0.14954237389E+03  0.25920761787E+03  0.00000000000E+00 0.  1.
         -1    1    1    2    0  503  0.55235760415E+02  0.37378739827E+02 -0.55191499457E+02  0.86569400090E+02  0.00000000000E+00 0. -1.
<mgrwt>
<rscale>  4 0.57363327E+03</rscale>
<asrwt>0</asrwt>
<pdfrwt beam="1">  1       21 0.19718789E-01 0.57363327E+03</pdfrwt>
<pdfrwt beam="2">  1       21 0.98741953E-01 0.57363327E+03</pdfrwt>
<totfact> 0.17514426E+04</totfact>
</mgrwt>
</event>
<event>
 5    0  0.3372079E-003  0.5079542E+03  0.7546771E-02  0.1011723E+00
         21   -1    0    0  501  502  0.00000000000E+00  0.00000000000E+00  0.63416576505E+03  0.63416576505E+03  0.00000000000E+00 0. -1.
         21   -1    0    0  502  503 -0.00000000000E+00 -0.00000000000E+00 -0.10171529071E+03  0.10171529071E+03  0.00000000000E+00 0. -1.
         25    1    1    2    0    0 -0.23630261702E+03 -0.38352983590E+01  0.26690993222E+03  0.37778240859E+03  0.12500000000E+03 0.  0.
          2    1    1    2  501    0  0.42357127774E+02 -0.54976033954E+01  0.73456930386E+02  0.84972175082E+02  0.00000000000E+00 0.  1.
         -2    1    1    2    0  503  0.19394548925E+03  0.93329017544E+01  0.19208361173E+03  0.27312647208E+03  0.00000000000E+00 0. -1.
<mgrwt>
<rscale>  4 0.50795415E+03</rscale>
<asrwt>0</asrwt>
<pdfrwt beam="1">  1       21 0.97563961E-01 0.50795415E+03</pdfrwt>
<pdfrwt beam="2">  1       21 0.15648507E-01 0.50795415E+03</pdfrwt>
<totfact> 0.28297662E+04</totfact>
</mgrwt>
</event>
<event>
 5    0  0.3372079E-003  0.6037166E+03  0.7546771E-02  0.9897725E-01
         21   -1    0    0  503  502  0.00000000000E+00  0.00000000000E+00  0.38023554456E+03  0.38023554456E+03  0.00000000000E+00 0.  1.
         21   -1    0    0  501  503 -0.00000000000E+00 -0.00000000000E+00 -0.23963678952E+03  0.23963678952E+03  0.00000000000E+00 0.  1.
         25    1    1    2    0    0  0.11842720844E+03  0.20710814936E+03  0.22489886993E+03  0.35088928585E+03  0.12500000000E+03 0.  0.
          3    1    1    2  501    0 -0.16300225498E+02 -0.58224873236E+02 -0.62778800545E+02  0.87160834166E+02  0.00000000000E+00 0.  1.
         -3    1    1    2    0  502 -0.10212698294E+03 -0.14888327612E+03 -0.21521314352E+02  0.18182221406E+03  0.00000000000E+00 0. -1.
<mgrwt>
<rscale>  4 0.60371657E+03</rscale>
<asrwt>0</asrwt>
<pdfrwt beam="1">  1       21 0.58497776E-01 0.60371657E+03</pdfrwt>
<pdfrwt beam="2">  1       21 0.36867198E-01 0.60371657E+03</pdfrwt>
<totfact> 0.16912327E+04</totfact>
</mgrwt>
</event>
<event>
 5    0  0.3372079E-003  0.5608347E+03  0.7546771E-02  0.9990168E-01
         21   -1    0    0  501  502  0.00000000000E+00  0.00000000000E+00  0.11849603182E+03  0.11849603182E+03  0.00000000000E+00 0. -1.
         21   -1    0    0  502  503 -0.00000000000E+00 -0.00000000000E+00 -0.66359924548E+03  0.66359924548E+03  0.00000000000E+00 0. -1.
         25    1    1    2    0    0 -0.21318319248E+03 -0.51540410467E+01 -0.30370997355E+03  0.39158445543E+03  0.12500000000E+03 0.  0.
          2    1    1    2  501    0  0.68766912842E+00  0.28126278572E+02  0.32568751836E+02  0.43038169469E+02  0.00000000000E+00 0.  1.
         -2    1    1    2    0  503  0.21249552335E+03 -0.22972237525E+02 -0.27396199194E+03  0.34747265240E+03  0.00000000000E+00 0. -1.
<mgrwt>
<rscale>  4 0.56083465E+03</rscale>
<asrwt>0</asrwt>
<pdfrwt beam="1">  1       21 0.18230159E-01 0.56083465E+03</pdfrwt>
<pdfrwt beam="2">  1       21 0.10209219E+00 0.56083465E+03</pdfrwt>
<totfact> 0.18791410E+04</totfact>
</mgrwt>
</event>
<event>
 5    0  0.3372079E-003  0.5123353E+03  0.7546771E-02  0.1010608E+00
         21   -1    0    0  501  502  0.00000000000E+00  0.00000000000E+00  0.18741083704E+03  0.18741083704E+03  0.00000000000E+00 0.  1.
         21   -1    0    0  502  503 -0.00000000000E+00 -0.00000000000E+00 -0.35014982940E+03  0.35014982940E+03  0.00000000000E+00 0.  1.
         25    1    1    2    0    0 -0.71083660747E+02  0.20853815391E+03 -0.14545778925E+03  0.29210275061E+03  0.12500000000E+03 0.  0.
          3    1    1    2  501    0  0.78837935154E+01 -0.14960631849E+03  0.20381815227E+02  0.15119399169E+03  0.00000000000E+00 0. -1.
         -3    1    1    2    0  503  0.63199867232E+02 -0.58931835420E+02 -0.37663018329E+02  0.94263924137E+02  0.00000000000E+00 0.  1.
<mgrwt>
<rscale>  4 0.51233533E+03</rscale>
<asrwt>0</asrwt>
<pdfrwt beam="1">  1       21 0.28832437E-01 0.51233533E+03</pdfrwt>
<pdfrwt beam="2">  1       21 0.53869204E-01 0.51233533E+03</pdfrwt>
<totfact> 0.33829828E+04</totfact>
</mgrwt>
</event>
<event>
 5    0  0.3372079E-003  0.4654898E+03  0.7546771E-02  0.1023201E+00
         21   -1    0    0  501  502  0.00000000000E+00  0.00000000000E+00  0.52534872130E+03  0.52534872130E+03  0.00000000000E+00 0.  1.
         21   -1    0    0  502  503 -0.00000000000E+00 -0.00000000000E+00 -0.10311283855E+03  0.10311283855E+03  0.00000000000E+00 0.  1.
         25    1    1    2    0    0 -0.16784878950E+03 -0.12467382895E+03  0.18957855354E+03  0.30867751412E+03  0.12500000000E+03 0.  0.
          4    1    1    2  501    0  0.15235346071E+03  0.87323014841E+02  0.20882671530E+03  0.27284699547E+03  0.00000000000E+00 0. -1.
         -4    1    1    2    0  503  0.15495328787E+02  0.37350814108E+02  0.23830613911E+02  0.46937050271E+02  0.00000000000E+00 0.  1.
<mgrwt>
<rscale>  4 0.46548984E+03</rscale>
<asrwt>0</asrwt>
<pdfrwt beam="1">  1       21 0.80822879E-01 0.46548984E+03</pdfrwt>
<pdfrwt beam="2">  1       21 0.15863514E-01 0.46548984E+03</pdfrwt>
<totfact> 0.43480619E+04</totfact>
</mgrwt>
</event>
<event>
 5    0  0.3372079E-003  0.5869447E+03  0.7546771E-02  0.9932868E-01
         21   -1    0    0  501  502  0.00000000000E+00  0.00000000000E+00  0.74208216428E+03  0.74208216428E+03  0.00000000000E+00 0. -1.
         21   -1    0    0  502  503 -0.00000000000E+00 -0.00000000000E+00 -0.11605994398E+03  0.11605994398E+03  0.00000000000E+00 0. -1.
         25    1    1    2    0    0  0.17967859364E+03 -0.18868142444E+03  0.30320820667E+03  0.41886190269E+03  0.12500000000E+03 0.  0.
          1    1    1    2  501    0  0.20312709129E+02  0.20113851714E+01  0.72995245323E+01  0.21677981475E+02  0.00000000000E+00 0.  1.
         -1    1    1    2    0  503 -0.19999130276E+03  0.18667003926E+03  0.31551448910E+03  0.41760222410E+03  0.00000000000E+00 0. -1.
<mgrwt>
<rscale>  4 0.58694468E+03</rscale>
<asrwt>0</asrwt>
<pdfrwt beam="1">  1       21 0.11416648E+00 0.58694468E+03</pdfrwt>
<pdfrwt beam="2">  1       21 0.17855376E-01 0.58694468E+03</pdfrwt>
<totfact> 0.14713243E+04</totfact>
</mgrwt>
</event>
<event>
 5    0  0.3372079E-003  0.7830910E+03  0.7546771E-02  0.9584820E-01
         21   -1    0    0  503  502  0.00000000000E+00  0.00000000000E+00  0.41368633868E+03  0.41368633868E+03  0.00000000000E+00 0. -1.
         21   -1    0    0  501  503 -0.00000000000E+00 -0.00000000000E+00 -0.37058968414E+03  0.37058968414E+03  0.00000000000E+00 0. -1.
         25    1    1    2    0    0  0.32532364055E+03  0.13903563295E+03  0.15054033745E+03  0.40429416460E+03  0.12500000000E+03 0.  0.
          2    1    1    2  501    0 -0.26812556022E+03 -0.85970019992E+02 -0.57615117242E+02  0.28740504887E+03  0.00000000000E+00 0. -1.
         -2    1    1    2    0  502 -0.57198080332E+02 -0.53065612954E+02 -0.49828565664E+02  0.92576809342E+02  0.00000000000E+00 0.  1.
<mgrwt>
<rscale>  4 0.78309103E+03</rscale>
<asrwt>0</asrwt>
<pdfrwt beam="1">  1       21 0.63644052E-01 0.78309103E+03</pdfrwt>
<pdfrwt beam="2">  1       21 0.57013798E-01 0.78309103E+03</pdfrwt>
<totfact> 0.53813445E+03</totfact>
</mgrwt>
</event>
<event>
 5    0  0.3372079E-003  0.6782050E+03  0.7546771E-02  0.9755248E-01
         21   -1    0    0  501  502  0.00000000000E+00  0.00000000000E+00  0.56819549616E+03  0.56819549616E+03  0.00000000000E+00 0.  1.
         21   -1    0    0  502  503 -0.00000000000E+00 -0.00000000000E+00 -0.20237842299E+03  0.20237842299E+03  0.00000000000E+00 0.  1.
         25    1    1    2    0    0  0.67050766093E+02  0.26194492746E+03 -0.11843194862E+02  0.29812113565E+03  0.12500000000E+03 0.  0.
          3    1    1    2  501    0 -0.84782440027E+02 -0.22886855700E+03  0.34560027336E+03  0.42309387548E+03  0.00000000000E+00 0.  1.
         -3    1    1    2    0  503  0.17731673934E+02 -0.33076370452E+02  0.32059994676E+02  0.49358908025E+02  0.00000000000E+00 0. -1.
<mgrwt>
<rscale>  4 0.67820501E+03</rscale>
<asrwt>0</asrwt>
<pdfrwt beam="1">  1       21 0.87414691E-01 0.67820501E+03</pdfrwt>
<pdfrwt beam="2">  1       21 0.31135142E-01 0.67820501E+03</pdfrwt>
<totfact> 0.93951699E+03</totfact>
</mgrwt>
</event>
<event>
 5    0  0.3372079E-003  0.6982215E+03  0.7546771E-02  0.9720278E-01
         21   -1    0    0  501  502  0.00000000000E+00  0.00000000000E+00  0.98036235728E+03  0.98036235728E+03  0.00000000000E+00 0. -1.
         21   -1    0    0  502  503 -0.00000000000E+00 -0.00000000000E+00 -0.12431967533E+03  0.12431967533E+03  0.00000000000E+00 0. -1.
         25    1    1    2    0    0  0.62693043208E+02  0.25336954882E+03  0.55598259082E+03  0.62679198083E+03  0.12500000000E+03 0.  0.
          1    1    1    2  501    0 -0.11212569789E+03 -0.57877121570E+01  0.51235430425E+02  0.12341288049E+03  0.00000000000E+00 0.  1.
         -1    1    1    2    0  503  0.49432654681E+02 -0.24758183666E+03  0.24882466070E+03  0.35447717129E+03  0.00000000000E+00 0. -1.
<mgrwt>
<rscale>  4 0.69822154E+03</rscale>
<asrwt>0</asrwt>
<pdfrwt beam="1">  1       21 0.15082497E+00 0.69822154E+03</pdfrwt>
<pdfrwt beam="2">  1       21 0.19126105E-01 0.69822154E+03</pdfrwt>
<totfact> 0.60497247E+03</totfact>
</mgrwt>
</event>
<event>
 5    0  0.3372079E-003  0.5808329E+03  0.7546771E-02  0.9945989E-01
         21   -1    0    0  501  502  0.00000000000E+00  0.00000000000E+00  0.29822945873E+03  0.29822945873E+03  0.00000000000E+00 0.  1.
         21   -1    0    0  502  503 -0.00000000000E+00 -0.00000000000E+00 -0.28280810049E+03  0.28280810049E+03  0.00000000000E+00 0.  1.
         25    1    1    2    0    0  0.13403310647E+03  0.15241267163E+03 -0.16654419269E+03  0.29078594227E+03  0.12500000000E+03 0.  0.
          1    1    1    2  501    0 -0.10714039249E+03 -0.13926350419E+03  0.19046439375E+03  0.25913331046E+03  0.00000000000E+00 0.  1.
         -1    1    1    2    0  503 -0.26892713979E+02 -0.13149167443E+02 -0.84988428240E+01  0.31118306493E+02  0.00000000000E+00 0. -1.
<mgrwt>
<rscale>  4 0.58083287E+03</rscale>
<asrwt>0</asrwt>
<pdfrwt beam="1">  1       21 0.45881455E-01 0.58083287E+03</pdfrwt>
<pdfrwt beam="2">  1       21 0.43508938E-01 0.58083287E+03</pdfrwt>
<totfact> 0.20329844E+04</totfact>
</mgrwt>
</event>
<event>
 5    0  0.3372079E-003  0.6168611E+03  0.7546771E-02  0.9871029E-01
         21   -1    0    0  503  502  0.00000000000E+00  0.00000000000E+00  0.32198141789E+03  0.32198141789E+03  0.00000000000E+00 0.  1.
         21   -1    0    0  501  503 -0.00000000000E+00 -0.00000000000E+00 -0.29545002362E+03  0.29545002362E+03  0.00000000000E+00 0.  1.
         25    1    1    2    0    0 -0.18218345644E+03 -0.14558759433E+03 -0.16121150708E+03  0.30983981255E+03  0.12500000000E+03 0.  0.
          1    1    1    2  501    0  0.82648417249E+02  0.10670148347E+03  0.12326573644E+03  0.18278514499E+03  0.00000000000E+00 0.  1.
         -1    1    1    2    0  502  0.99535039194E+02  0.38886110856E+02  0.64477164912E+02  0.12480648397E+03  0.00000000000E+00 0. -1.
<mgrwt>
<rscale>  4 0.61686114E+03</rscale>
<asrwt>0</asrwt>
<pdfrwt beam="1">  1       21 0.49535603E-01 0.61686114E+03</pdfrwt>
<pdfrwt beam="2">  1       21 0.45453850E-01 0.61686114E+03</pdfrwt>
<totfact> 0.15645088E+04</totfact>
</mgrwt>
</event>
<event>
 5    0  0.3372079E-003  0.8851745E+03  0.7546771E-02  0.9444306E-01
         21   -1    0    0  501  502  0.00000000000E+00  0.00000000000E+00  0.25439931693E+03  0.25439931693E+03  0.00000000000E+00 0. -1.
         21   -1    0    0  502  503 -0.00000000000E+00 -0.00000000000E+00 -0.76998426046E+03  0.76998426046E+03  0.00000000000E+00 0. -1.
         25    1    1    2    0    0  0.16696050907E+03 -0.39026869007E+03 -0.26630072747E+03  0.51645574785E+03  0.12500000000E+03 0.  0.
          2    1    1    2  501    0 -0.25417823958E+02  0.40574655136E+02  0.11588894927E+02  0.49261251504E+02  0.00000000000E+00 0.  1.
         -2    1    1    2    0  503 -0.14154268511E+03  0.34969403493E+03 -0.26087311098E+03  0.45866657804E+03  0.00000000000E+00 0. -1.
<mgrwt>
<rscale>  4 0.88517449E+03</rscale>
<asrwt>0</asrwt>
<pdfrwt beam="1">  1       21 0.39138357E-01 0.88517449E+03</pdfrwt>
<pdfrwt beam="2">  1       21 0.11845912E+00 0.88517449E+03</pdfrwt>
<totfact> 0.26707493E+03</totfact>
</mgrwt>
</event>
<event>
 5    0  0.3372079E-003  0.4841600E+03  0.7546771E-02  0.1017998E+00
         21   -1    0    0  501  502  0.00000000000E+00  0.00000000000E+00  0.44208438262E+02  0.44208438262E+02  0.00000000000E+00 0. -1.
         21   -1    0    0  502  503 -0.00000000000E+00 -0.00000000000E+00 -0.13256004765E+04  0.13256004765E+04  0.00000000000E+00 0. -1.
         25    1    1    2    0    0 -0.88025951416E+02  0.20515358407E+03 -0.70837904616E+03  0.75316826422E+03  0.12500000000E+03 0.  0.
          3    1    1    2  501    0  0.47483557012E+02 -0.56836686641E+02 -0.18616505845E+03  0.20035599847E+03  0.00000000000E+00 0.  1.
         -3    1    1    2    0  503  0.40542394404E+02 -0.14831689743E+03 -0.38684793366E+03  0.41628465211E+03  0.00000000000E+00 0. -1.
<mgrwt>
<rscale>  4 0.48416000E+03</rscale>
<asrwt>0</asrwt>
<pdfrwt beam="1">  1       21 0.68012975E-02 0.48416000E+03</pdfrwt>
<pdfrwt beam="2">  1       21 0.20393856E+00 0.48416000E+03</pdfrwt>
<totfact> 0.17509998E+04</totfact>
</mgrwt>
</event>
<event>
 5    0  0.3372079E-003  0.4605284E+03  0.7546771E-02  0.1024628E+00
         21   -1    0    0  503  502  0.00000000000E+00  0.00000000000E+00  0.62921650630E+03  0.62921650630E+03  0.00000000000E+00 0.  1.
         21   -1    0    0  501  503 -0.00000000000E+00 -0.00000000000E+00 -0.84266057727E+02  0.84266057727E+02  0.00000000000E+00 0.  1.
         25    1    1    2    0    0 -0.76415681696E+02 -0.19143045165E+03  0.29532605299E+03  0.38121837810E+03  0.12500000000E+03 0.  0.
          4    1    1    2  501    0  0.33128771038E+02  0.26021915498E+02  0.21846118613E+02  0.47454277522E+02  0.00000000000E+00 0. -1.
         -4    1    1    2    0  502  0.43286910658E+02  0.16540853615E+03  0.22777827698E+03  0.28480990841E+03  0.00000000000E+00 0.  1.
<mgrwt>
<rscale>  4 0.46052837E+03</rscale>
<asrwt>0</asrwt>
<pdfrwt beam="1">  1       21 0.96802537E-01 0.46052837E+03</pdfrwt>
<pdfrwt beam="2">  1       21 0.12964009E-01 0.46052837E+03</pdfrwt>
<totfact> 0.41291931E+04</totfact>
</mgrwt>
</event>
<event>
 5    0  0.3372079E-003  0.6094406E+03  0.7546771E-02  0.9886011E-01
         21   -1    0    0  501  502  0.00000000000E+00  0.00000000000E+00  0.18710674188E+03  0.18710674188E+03  0.00000000000E+00 0. -1.
         21   -1    0    0  502  503 -0.00000000000E+00 -0.00000000000E+00 -0.49626467021E+03  0.49626467021E+03  0.00000000000E+00 0. -1.
         25    1    1    2    0    0  0.21094073312E+03  0.19659122676E+03 -0.16882330333E+03  0.35674978778E+03  0.12500000000E+03 0.  0.
          4    1    1    2  501    0 -0.17662133430E+03 -0.12881232996E+03 -0.11112614488E+03  0.24522791879E+03  0.00000000000E+00 0. -1.
         -4    1    1    2    0  503 -0.34319398819E+02 -0.67778896802E+02 -0.29208480130E+02  0.81393705521E+02  0.00000000000E+00 0.  1.
<mgrwt>
<rscale>  4 0.60944061E+03</rscale>
<asrwt>0</asrwt>
<pdfrwt beam="1">  1       21 0.28785653E-01 0.60944061E+03</pdfrwt>
<pdfrwt beam="2">  1       21 0.76348409E-01 0.60944061E+03</pdfrwt>
<totfact> 0.15294807E+04</totfact>
</mgrwt>
</event>
<event>
 5    0  0.3372079E-003  0.5821201E+03  0.7546771E-02  0.9943212E-01
         21   -1    0    0  503  502  0.00000000000E+00  0.00000000000E+00  0.11887038663E+03  0.11887038663E+03  0.00000000000E+00 0. -1.
         21   -1    0    0  501  503 -0.00000000000E+00 -0.00000000000E+00 -0.71267495057E+03  0.71267495057E+03  0.00000000000E+00 0. -1.
         25    1    1    2    0    0 -0.19475048353E+03 -0.17539147252E+03 -0.23952211404E+03  0.37641169294E+03  0.12500000000E+03 0.  0.
          1    1    1    2  501    0  0.32342555973E+01  0.45359114350E+02 -0.10775855040E+03  0.11696074063E+03  0.00000000000E+00 0.  1.
         -1    1    1    2    0  502  0.19151622793E+03  0.13003235817E+03 -0.24652389949E+03  0.33817290364E+03  0.00000000000E+00 0. -1.
<mgrwt>
<rscale>  4 0.58212008E+03</rscale>
<asrwt>0</asrwt>
<pdfrwt beam="1">  1       21 0.18287752E-01 0.58212008E+03</pdfrwt>
<pdfrwt beam="2">  1       21 0.10964230E+00 0.58212008E+03</pdfrwt>
<totfact> 0.15577564E+04</totfact>
</mgrwt>
</event>
<event>
 5    0  0.3372079E-003  0.5044180E+03  0.7546771E-02  0.1012632E+00
         21   -1    0    0  503  502  0.00000000000E+00  0.00000000000E+00  0.52950328014E+03  0.52950328014E+03  0.00000000000E+00 0.  1.
         21   -1    0    0  501  503 -0.00000000000E+00 -0.00000000000E+00 -0.12013027034E+03  0.12013027034E+03  0.00000000000E+00 0.  1.
         25    1    1    2    0    0  0.97898239133E+02  0.18699864689E+03  0.83480734315E+02  0.25912659486E+03  0.12500000000E+03 0.  0.
          1    1    1    2  501    0 -0.44699069172E+02 -0.54211857414E+02  0.13227612335E+03  0.14977952156E+03  0.00000000000E+00 0. -1.
         -1    1    1    2    0  502 -0.53199169962E+02 -0.13278678947E+03  0.19361615213E+03  0.24072743406E+03  0.00000000000E+00 0.  1.
<mgrwt>
<rscale>  4 0.50441797E+03</rscale>
<asrwt>0</asrwt>
<pdfrwt beam="1">  1       21 0.81462042E-01 0.50441797E+03</pdfrwt>
<pdfrwt beam="2">  1       21 0.18481580E-01 0.50441797E+03</pdfrwt>
<totfact> 0.31771233E+04</totfact>
</mgrwt>
</event>
<event>
 5    0  0.3372079E-003  0.5398717E+03  0.7546771E-02  0.1003866E+00
         21   -1    0    0  501  502  0.00000000000E+00  0.00000000000E+00  0.32508688404E+02  0.32508688404E+02  0.00000000000E+00 0.  1.
         21   -1    0    0  502  503 -0.00000000000E+00 -0.00000000000E+00 -0.22414116393E+04  0.22414116393E+04  0.00000000000E+00 0.  1.
         25    1    1    2    0    0 -0.20164773706E+03  0.12605376175E+03 -0.14259643269E+04  0.14510515575E+04  0.12500000000E+03 0.  0.
          2    1    1    2  501    0  0.19644193977E+03 -0.88916575445E+02 -0.65891742129E+03  0.69330207065E+03  0.00000000000E+00 0.  1.
         -2    1    1    2    0  503  0.52057972917E+01 -0.37137186307E+02 -0.12402120270E+03  0.12956669963E+03  0.00000000000E+00 0. -1.
<mgrwt>
<rscale>  4 0.53987166E+03</rscale>
<asrwt>0</asrwt>
<pdfrwt beam="1">  1       21 0.50013357E-02 0.53987166E+03</pdfrwt>
<pdfrwt beam="2">  1       21 0.34483263E+00 0.53987166E+03</pdfrwt>
<totfact> 0.39501675E+03</totfact>
</mgrwt>
</event>
<event>
 5    0  0.3372079E-003  0.4682426E+03  0.7546771E-02  0.1022417E+00
         21   -1    0    0  501  502  0.00000000000E+00  0.00000000000E+00  0.66061988019E+03  0.66061988019E+03  0.00000000000E+00 0.  1.
         21   -1    0    0  502  503 -0.00000000000E+00 -0.00000000000E+00 -0.82971740414E+02  0.82971740414E+02  0.00000000000E+00 0.  1.
         25    1    1    2    0    0 -0.18794463873E+03  0.72848542691E+02  0.22529382230E+03  0.32712750384E+03  0.12500000000E+03 0.  0.
          3    1    1    2  501    0  0.63076597438E+02  0.16858288963E+02  0.13805004053E+03  0.15271107603E+03  0.00000000000E+00 0. -1.
         -3    1    1    2    0  503  0.12486804129E+03 -0.89706831654E+02  0.21430427694E+03  0.26375304074E+03  0.00000000000E+00 0.  1.
<mgrwt>
<rscale>  4 0.46824259E+03</rscale>
<asrwt>0</asrwt>
<pdfrwt beam="1">  1       21 0.10163382E+00 0.46824259E+03</pdfrwt>
<pdfrwt beam="2">  1       21 0.12764884E-01 0.46824259E+03</pdfrwt>
<totfact> 0.37678122E+04</totfact>
</mgrwt>
</event>
<event>
 5    0  0.3372079E-003  0.5100043E+03  0.7546771E-02  0.1011200E+00
         21   -1    0    0  503  502  0.00000000000E+00  0.00000000000E+00  0.11207768706E+04  0.11207768706E+04  0.00000000000E+00 0. -1.
         21   -1    0    0  501  503 -0.00000000000E+00 -0.00000000000E+00 -0.58018768460E+02  0.58018768460E+02  0.00000000000E+00 0. -1.
         25    1    1    2    0    0 -0.15605476503E+03  0.17709876851E+03  0.63377428634E+03  0.68775861283E+03  0.12500000000E+03 0.  0.
          3    1    1    2  501    0  0.13766073784E+03 -0.13759257967E+03  0.33488800317E+03  0.38733986548E+03  0.00000000000E+00 0. -1.
         -3    1    1    2    0  502  0.18394027187E+02 -0.39506188846E+02  0.94095812650E+02  0.10369716077E+03  0.00000000000E+00 0.  1.
<mgrwt>
<rscale>  4 0.51000429E+03</rscale>
<asrwt>0</asrwt>
<pdfrwt beam="1">  1       21 0.17242719E+00 0.51000429E+03</pdfrwt>
<pdfrwt beam="2">  1       21 0.89259652E-02 0.51000429E+03</pdfrwt>
<totfact> 0.17730933E+04</totfact>
</mgrwt>
</event>
<event>
 5    0  0.3372079E-003  0.4574740E+03  0.7546771E-02  0.1025516E+00
         21   -1    0    0  503  502  0.00000000000E+00  0.00000000000E+00  0.84182457250E+02  0.84182457250E+02  0.00000000000E+00 0.  1.
         21   -1    0    0  501  503 -0.00000000000E+00 -0.00000000000E+00 -0.62151434097E+03  0.62151434097E+03  0.00000000000E+00 0.  1.
         25    1    1    2    0    0  0.10890704504E+03 -0.17004844377E+03 -0.21734996516E+03  0.32193667863E+03  0.12500000000E+03 0.  0.
          2    1    1    2  501    0 -0.10198060040E+03  0.10499394209E+03 -0.22553447976E+03  0.26886720197E+03  0.00000000000E+00 0.  1.
         -2    1    1    2    0  502 -0.69264446344E+01  0.65054501684E+02 -0.94447438797E+02  0.11489291762E+03  0.00000000000E+00 0. -1.
<mgrwt>
<rscale>  4 0.45747395E+03</rscale>
<asrwt>0</asrwt>
<pdfrwt beam="1">  1       21 0.12951148E-01 0.45747395E+03</pdfrwt>
<pdfrwt beam="2">  1       21 0.95617588E-01 0.45747395E+03</pdfrwt>
<totfact> 0.42640836E+04</totfact>
</mgrwt>
</event>
<event>
 5    0  0.3372079E-003  0.6828710E+03  0.7546771E-02  0.9746982E-01
         21   -1    0    0  501  502  0.00000000000E+00  0.00000000000E+00  0.18305288428E+04  0.18305288428E+04  0.00000000000E+00 0.  1.
         21   -1    0    0  502  503 -0.00000000000E+00 -0.00000000000E+00 -0.63685528848E+02  0.63685528848E+02  0.00000000000E+00 0.  1.
         25    1    1    2    0    0 -0.18364514570E+03 -0.23217633816E+03  0.70771666766E+03  0.77725110049E+03  0.12500000000E+03 0.  0.
          1    1    1    2  501    0 -0.24630053162E+02  0.59038198818E+01  0.17244519882E+02  0.30640954194E+02  0.00000000000E+00 0. -1.
         -1    1    1    2    0  503  0.20827519886E+03  0.22627251828E+03  0.10418821265E+04  0.10863223170E+04  0.00000000000E+00 0.  1.
<mgrwt>
<rscale>  4 0.68287099E+03</rscale>
<asrwt>0</asrwt>
<pdfrwt beam="1">  1       21 0.28161978E+00 0.68287099E+03</pdfrwt>
<pdfrwt beam="2">  1       21 0.97977751E-02 0.68287099E+03</pdfrwt>
<totfact> 0.27839828E+03</totfact>
</mgrwt>
</event>
<event>
 5    0  0.3372079E-003  0.6514844E+03  0.7546771E-02  0.9803998E-01
         21   -1    0    0  501  502  0.00000000000E+00  0.00000000000E+00  0.19633762542E+03  0.19633762542E+03  0.00000000000E+00 0.  1.
         21   -1    0    0  502  503 -0.00000000000E+00 -0.00000000000E+00 -0.54043626930E+03  0.54043626930E+03  0.00000000000E+00 0.  1.
         25    1    1    2    0    0  0.24633874440E+03  0.26129668560E+02 -0.13517394575E+02  0.27780074969E+03  0.12500000000E+03 0.  0.
          1    1    1    2  501    0 -0.12923002809E+03 -0.11174521465E+03 -0.15007465095E+03  0.22739787601E+03  0.00000000000E+00 0. -1.
         -1    1    1    2    0  503 -0.11710871631E+03  0.85615546092E+02 -0.18050659836E+03  0.23157526902E+03  0.00000000000E+00 0.  1.
<mgrwt>
<rscale>  4 0.65148438E+03</rscale>
<asrwt>0</asrwt>
<pdfrwt beam="1">  1       21 0.30205789E-01 0.65148438E+03</pdfrwt>
<pdfrwt beam="2">  1       21 0.83144041E-01 0.65148438E+03</pdfrwt>
<totfact> 0.11298443E+04</totfact>
</mgrwt>
</event>
<event>
 5    0  0.3372079E-003  0.5491938E+03  0.7546771E-02  0.1001681E+00
         21   -1    0    0  501  502  0.00000000000E+00  0.00000000000E+00  0.25466003033E+03  0.25466003033E+03  0.00000000000E+00 0.  1.
         21   -1    0    0  502  503 -0.00000000000E+00 -0.00000000000E+00 -0.29609462854E+03  0.29609462854E+03  0.00000000000E+00 0.  1.
         25    1    1    2    0    0 -0.16619082556E+03  0.14662352509E+03 -0.13779259787E+03  0.28936075864E+03  0.12500000000E+03 0.  0.
          1    1    1    2  501    0  0.47296289323E+02 -0.67655423268E+02 -0.10336699562E+02  0.83192804010E+02  0.00000000000E+00 0. -1.
         -1    1    1    2    0  503  0.11889453624E+03 -0.78968101823E+02  0.10669469923E+03  0.17820109623E+03  0.00000000000E+00 0.  1.
<mgrwt>
<rscale>  4 0.54919383E+03</rscale>
<asrwt>0</asrwt>
<pdfrwt beam="1">  1       21 0.39178466E-01 0.54919383E+03</pdfrwt>
<pdfrwt beam="2">  1       21 0.45553020E-01 0.54919383E+03</pdfrwt>
<totfact> 0.25831863E+04</totfact>
</mgrwt>
</event>
<event>
 5    0  0.3372079E-003  0.5267332E+03  0.7546771E-02  0.1007027E+00
         21   -1    0    0  503  502  0.00000000000E+00  0.00000000000E+00  0.37421142009E+03  0.37421142009E+03  0.00000000000E+00 0. -1.
         21   -1    0    0  501  503 -0.00000000000E+00 -0.00000000000E+00 -0.18535501224E+03  0.18535501224E+03  0.00000000000E+00 0. -1.
         25    1    1    2    0    0 -0.15534561349E+02  0.21494111302E+03  0.22161825974E+03  0.33343763692E+03  0.12500000000E+03 0.  0.
          3    1    1    2  501    0 -0.82189301529E+01 -0.18143143884E+03 -0.35138323116E+02  0.18498545771E+03  0.00000000000E+00 0. -1.
         -3    1    1    2    0  502  0.23753491502E+02 -0.33509674186E+02  0.23764712295E+01  0.41143337713E+02  0.00000000000E+00 0.  1.
<mgrwt>
<rscale>  4 0.52673319E+03</rscale>
<asrwt>0</asrwt>
<pdfrwt beam="1">  1       21 0.57570988E-01 0.52673319E+03</pdfrwt>
<pdfrwt beam="2">  1       21 0.28516156E-01 0.52673319E+03</pdfrwt>
<totfact> 0.29845873E+04</totfact>
</mgrwt>
</event>
<event>
 5    0  0.3372079E-003  0.6556986E+03  0.7546771E-02  0.9796145E-01
         21   -1    0    0  503  502  0.00000000000E+00  0.00000000000E+00  0.17958093614E+03  0.17958093614E+03  0.00000000000E+00 0.  1.
         21   -1    0    0  501  503 -0.00000000000E+00 -0.00000000000E+00 -0.59853329036E+03  0.59853329036E+03  0.00000000000E+00 0.  1.
         25    1    1    2    0    0 -0.73562641371E+02 -0.28645162247E+03 -0.26551215953E+03  0.41663857368E+03  0.12500000000E+03 0.  0.
          1    1    1    2  501    0  0.90988228777E+02  0.17119091651E+03 -0.14953713371E+03  0.24483982934E+03  0.00000000000E+00 0.  1.
         -1    1    1    2    0  502 -0.17425587406E+02  0.11526070595E+03 -0.39030609754E+01  0.11663582348E+03  0.00000000000E+00 0. -1.
<mgrwt>
<rscale>  4 0.65569862E+03</rscale>
<asrwt>0</asrwt>
<pdfrwt beam="1">  1       21 0.27627836E-01 0.65569862E+03</pdfrwt>
<pdfrwt beam="2">  1       21 0.92082045E-01 0.65569862E+03</pdfrwt>
<totfact> 0.10581091E+04</totfact>
</mgrwt>
</event>
<event>
 5    0  0.3372079E-003  0.4769374E+03  0.7546771E-02  0.1019980E+00
         21   -1    0    0  501  502  0.00000000000E+00  0.00000000000E+00  0.29596437165E+03  0.29596437165E+03  0.00000000000E+00 0. -1.
         21   -1    0    0  502  503 -0.00000000000E+00 -0.00000000000E+00 -0.19214245505E+03  0.19214245505E+03  0.00000000000E+00 0. -1.
         25    1    1    2    0    0 -0.10969389356E+03 -0.18898224281E+03  0.50174156155E+02  0.25668947062E+03  0.12500000000E+03 0.  0.
          1    1    1    2  501    0  0.11189344273E+03  0.16498658664E+03  0.56371327511E+02  0.20716766848E+03  0.00000000000E+00 0. -1.
         -1    1    1    2    0  503 -0.21995491667E+01  0.23995656166E+02 -0.27235670696E+01  0.24249687605E+02  0.00000000000E+00 0.  1.
<mgrwt>
<rscale>  4 0.47693740E+03</rscale>
<asrwt>0</asrwt>
<pdfrwt beam="1">  1       21 0.45532980E-01 0.47693740E+03</pdfrwt>
<pdfrwt beam="2">  1       21 0.29560378E-01 0.47693740E+03</pdfrwt>
<totfact> 0.46389109E+04</totfact>
</mgrwt>
</event>
<event>
 5    0  0.3372079E-003  0.5301369E+03  0.7546771E-02  0.1006199E+00
         21   -1    0    0  501  502  0.00000000000E+00  0.00000000000E+00  0.53658480712E+03  0.53658480712E+03  0.00000000000E+00 0.  1.
         21   -1    0    0  502  503 -0.00000000000E+00 -0.00000000000E+00 -0.13094160573E+03  0.13094160573E+03  0.00000000000E+00 0.  1.
         25    1    1    2    0    0 -0.11767453745E+03  0.20701963860E+03  0.29693844335E+03  0.40062684218E+03  0.12500000000E+03 0.  0.
          1    1    1    2  501    0  0.75317057312E+02 -0.87642255104E+02  0.66810116536E+02  0.13348189268E+03  0.00000000000E+00 0. -1.
         -1    1    1    2    0  503  0.42357480135E+02 -0.11937738350E+03  0.41894641505E+02  0.13341767799E+03  0.00000000000E+00 0.  1.
<mgrwt>
<rscale>  4 0.53013687E+03</rscale>
<asrwt>0</asrwt>
<pdfrwt beam="1">  1       21 0.82551508E-01 0.53013687E+03</pdfrwt>
<pdfrwt beam="2">  1       21 0.20144863E-01 0.53013687E+03</pdfrwt>
<totfact> 0.26002485E+04</totfact>
</mgrwt>
</event>
<event>
 5    0  0.3372079E-003  0.6216658E+03  0.7546771E-02  0.9861449E-01
         21   -1    0    0  501  502  0.00000000000E+00  0.00000000000E+00  0.20964213008E+03  0.20964213008E+03  0.00000000000E+00 0.  1.
         21   -1    0    0  502  503 -0.00000000000E+00 -0.00000000000E+00 -0.46086678103E+03  0.46086678103E+03  0.00000000000E+00 0.  1.
         25    1    1    2    0    0 -0.20763221032E+03 -0.15811174910E+03 -0.24678902033E+03  0.38031602717E+03  0.12500000000E+03 0.  0.
          1    1    1    2  501    0  0.10177497524E+02  0.75069401934E+02 -0.58509752219E+01  0.75981777247E+02  0.00000000000E+00 0. -1.
         -1    1    1    2    0  503  0.19745471280E+03  0.83042347162E+02  0.14153446055E+01  0.21421110669E+03  0.00000000000E+00 0.  1.
<mgrwt>
<rscale>  4 0.62166581E+03</rscale>
<asrwt>0</asrwt>
<pdfrwt beam="1">  1       21 0.32252636E-01 0.62166581E+03</pdfrwt>
<pdfrwt beam="2">  1       21 0.70902581E-01 0.62166581E+03</pdfrwt>
<totfact> 0.14392112E+04</totfact>
</mgrwt>
</event>
<event>
 5    0  0.3372079E-003  0.5056229E+03  0.7546771E-02  0.1012322E+00
         21   -1    0    0  503  502  0.00000000000E+00  0.00000000000E+00  0.10469252284E+03  0.10469252284E+03  0.00000000000E+00 0.  1.
         21   -1    0    0  501  503 -0.00000000000E+00 -0.00000000000E+00 -0.61048887826E+03  0.61048887826E+03  0.00000000000E+00 0.  1.
         25    1    1    2    0    0  0.15610860138E+03 -0.15107966940E+03 -0.26656658813E+03  0.36589302786E+03  0.12500000000E+03 0.  0.
          1    1    1    2  501    0 -0.14663228315E+03  0.83952143736E+02 -0.22263953111E+03  0.27949481160E+03  0.00000000000E+00 0.  1.
         -1    1    1    2    0  502 -0.94763182285E+01  0.67127525660E+02 -0.16590236175E+02  0.69793561628E+02  0.00000000000E+00 0. -1.
<mgrwt>
<rscale>  4 0.50562287E+03</rscale>
<asrwt>0</asrwt>
<pdfrwt beam="1">  1       21 0.16106542E-01 0.50562287E+03</pdfrwt>
<pdfrwt beam="2">  1       21 0.93921363E-01 0.50562287E+03</pdfrwt>
<totfact> 0.29401239E+04</totfact>
</mgrwt>
</event>
<event>
 5    0  0.3372079E-003  0.5981833E+03  0.7546771E-02  0.9909182E-01
         21   -1    0    0  503  502  0.00000000000E+00  0.00000000000E+00  0.26580732186E+03  0.26580732186E+03  0.00000000000E+00 0.  1.
         21   -1    0    0  501  503 -0.00000000000E+00 -0.00000000000E+00 -0.33654384606E+03  0.33654384606E+03  0.00000000000E+00 0.  1.
         25    1    1    2    0    0  0.19728214747E+03  0.15475982175E+03  0.92124960922E+02  0.29492856179E+03  0.12500000000E+03 0.  0.
          3    1    1    2  501    0 -0.15707758320E+03 -0.15465029942E+03 -0.13457825614E+03  0.25826612105E+03  0.00000000000E+00 0.  1.
         -3    1    1    2    0  502 -0.40204564267E+02 -0.10952232802E+00 -0.28283228988E+02  0.49156485076E+02  0.00000000000E+00 0. -1.
<mgrwt>
<rscale>  4 0.59818331E+03</rscale>
<asrwt>0</asrwt>
<pdfrwt beam="1">  1       21 0.40893434E-01 0.59818331E+03</pdfrwt>
<pdfrwt beam="2">  1       21 0.51775976E-01 0.59818331E+03</pdfrwt>
<totfact> 0.17822317E+04</totfact>
</mgrwt>
</event>
<event>
 5    0  0.3372079E-003  0.4713163E+03  0.7546771E-02  0.1021549E+00
         21   -1    0    0  503  502  0.00000000000E+00  0.00000000000E+00  0.33227331918E+03  0.33227331918E+03  0.00000000000E+00 0. -1.
         21   -1    0    0  501  503 -0.00000000000E+00 -0.00000000000E+00 -0.16713579846E+03  0.16713579846E+03  0.00000000000E+00 0. -1.
         25    1    1    2    0    0  0.99595654122E+02 -0.19053545054E+03  0.11899936823E+03  0.27569711981E+03  0.12500000000E+03 0.  0.
          1    1    1    2  501    0 -0.76956269859E+02  0.17301394263E+03  0.32990108122E+02  0.19220936254E+03  0.00000000000E+00 0. -1.
         -1    1    1    2    0  502 -0.22639384264E+02  0.17521507911E+02  0.13148044361E+02  0.31502635284E+02  0.00000000000E+00 0.  1.
<mgrwt>
<rscale>  4 0.47131631E+03</rscale>
<asrwt>0</asrwt>
<pdfrwt beam="1">  1       21 0.51118972E-01 0.47131631E+03</pdfrwt>
<pdfrwt beam="2">  1       21 0.25713200E-01 0.47131631E+03</pdfrwt>
<totfact> 0.47832863E+04</totfact>
</mgrwt>
</event>
<event>
 5    0  0.3372079E-003  0.4843728E+03  0.7546771E-02  0.1017940E+00
         21   -1    0    0  501  502  0.00000000000E+00  0.00000000000E+00  0.41659526351E+03  0.41659526351E+03  0.00000000000E+00 0.  1.
         21   -1    0    0  502  503 -0.00000000000E+00 -0.00000000000E+00 -0.14079435878E+03  0.14079435878E+03  0.00000000000E+00 0.  1.
         25    1    1    2    0    0 -0.16718236886E+03 -0.13762761859E+03  0.14012176659E+03  0.28661893749E+03  0.12500000000E+03 0.  0.
          3    1    1    2  501    0  0.52520778435E+02  0.13711886846E+02  0.72368803830E+02  0.90463759462E+02  0.00000000000E+00 0. -1.
         -3    1    1    2    0  503  0.11466159042E+03  0.12391573174E+03  0.63310334310E+02  0.18030692533E+03  0.00000000000E+00 0.  1.
<mgrwt>
<rscale>  4 0.48437284E+03</rscale>
<asrwt>0</asrwt>
<pdfrwt beam="1">  1       21 0.64091578E-01 0.48437284E+03</pdfrwt>
<pdfrwt beam="2">  1       21 0.21660671E-01 0.48437284E+03</pdfrwt>
<totfact> 0.40640072E+04</totfact>
</mgrwt>
</event>
<event>
 5    0  0.3372079E-003  0.9419207E+03  0.7546771E-02  0.9374644E-01
         21   -1    0    0  503  502  0.00000000000E+00  0.00000000000E+00  0.85585740466E+03  0.85585740466E+03  0.00000000000E+00 0.  1.
         21   -1    0    0  501  503 -0.00000000000E+00 -0.00000000000E+00 -0.25915957024E+03  0.25915957024E+03  0.00000000000E+00 0.  1.
         25    1    1    2    0    0 -0.28481996284E+03  0.11708220345E+03 -0.44323917220E+02  0.33529131101E+03  0.12500000000E+03 0.  0.
          1    1    1    2  501    0  0.18633975812E+03 -0.12914957278E+03  0.13457621956E+03  0.26365294703E+03  0.00000000000E+00 0. -1.
         -1    1    1    2    0  502  0.98480204725E+02  0.12067369332E+02  0.50644553208E+03  0.51607271686E+03  0.00000000000E+00 0.  1.
<mgrwt>
<rscale>  4 0.94192067E+03</rscale>
<asrwt>0</asrwt>
<pdfrwt beam="1">  1       21 0.13167037E+00 0.94192067E+03</pdfrwt>
<pdfrwt beam="2">  1       21 0.39870703E-01 0.94192067E+03</pdfrwt>
<totfact> 0.19277943E+03</totfact>
</mgrwt>
</event>
<event>
 5    0  0.3372079E-003  0.6904956E+03  0.7546771E-02  0.9733625E-01
         21   -1    0    0  503  502  0.00000000000E+00  0.00000000000E+00  0.53971661730E+03  0.53971661730E+03  0.00000000000E+00 0. -1.
         21   -1    0    0  501  503 -0.00000000000E+00 -0.00000000000E+00 -0.22084933321E+03  0.22084933321E+03  0.00000000000E+00 0. -1.
         25    1    1    2    0    0  0.17480055745E+03 -0.23026091095E+03 -0.74699150569E+01  0.31504939554E+03  0.12500000000E+03 0.  0.
          1    1    1    2  501    0 -0.17508187157E+03  0.17468303222E+03  0.25735928302E+03  0.35693364097E+03  0.00000000000E+00 0. -1.
         -1    1    1    2    0  502  0.28131411339E+00  0.55577878727E+02  0.68977916122E+02  0.88582914007E+02  0.00000000000E+00 0.  1.
<mgrwt>
<rscale>  4 0.69049563E+03</rscale>
<asrwt>0</asrwt>
<pdfrwt beam="1">  1       21 0.83033325E-01 0.69049563E+03</pdfrwt>
<pdfrwt beam="2">  1       21 0.33976821E-01 0.69049563E+03</pdfrwt>
<totfact> 0.88704464E+03</totfact>
</mgrwt>
</event>
<event>
 5    0  0.3372079E-003  0.1453318E+04  0.7546771E-02  0.8916104E-01
         21   -1    0    0  503  502  0.00000000000E+00  0.00000000000E+00  0.24264194489E+03  0.24264194489E+03  0.00000000000E+00 0.  1.
         21   -1    0    0  501  503 -0.00000000000E+00 -0.00000000000E+00 -0.21761817504E+04  0.21761817504E+04  0.00000000000E+00 0.  1.
         25    1    1    2    0    0  0.64973760328E+03 -0.24664523276E+03 -0.97989650312E+03  0.12078141334E+04  0.12500000000E+03 0.  0.
          1    1    1    2  501    0 -0.39808187707E+03  0.27546426530E+03 -0.53333257878E+03  0.72027313007E+03  0.00000000000E+00 0.  1.
         -1    1    1    2    0  502 -0.25165572620E+03 -0.28819032539E+02 -0.42031072360E+03  0.49073643185E+03  0.00000000000E+00 0. -1.
<mgrwt>
<rscale>  4 0.14533175E+04</rscale>
<asrwt>0</asrwt>
<pdfrwt beam="1">  1       21 0.37329530E-01 0.14533175E+04</pdfrwt>
<pdfrwt beam="2">  1       21 0.33479719E+00 0.14533175E+04</pdfrwt>
<totfact> 0.81987912E+01</totfact>
</mgrwt>
</event>
<event>
 5    0  0.3372079E-003  0.5026589E+03  0.7546771E-02  0.1013087E+00
         21   -1    0    0  503  502  0.00000000000E+00  0.00000000000E+00  0.44763847677E+03  0.44763847677E+03  0.00000000000E+00 0. -1.
         21   -1    0    0  501  503 -0.00000000000E+00 -0.00000000000E+00 -0.14111049229E+03  0.14111049229E+03  0.00000000000E+00 0. -1.
         25    1    1    2    0    0  0.21286600217E+03  0.82512160243E+01  0.19916294086E+03  0.31728677006E+03  0.12500000000E+03 0.  0.
          3    1    1    2  501    0 -0.13454447563E+02 -0.18124205061E+02 -0.23622587466E+02  0.32673163406E+02  0.00000000000E+00 0.  1.
         -3    1    1    2    0  502 -0.19941155460E+03  0.98729890372E+01  0.13098763108E+03  0.23878903559E+03  0.00000000000E+00 0. -1.
<mgrwt>
<rscale>  4 0.50265887E+03</rscale>
<asrwt>0</asrwt>
<pdfrwt beam="1">  1       21 0.68867458E-01 0.50265887E+03</pdfrwt>
<pdfrwt beam="2">  1       21 0.21709307E-01 0.50265887E+03</pdfrwt>
<totfact> 0.34325986E+04</totfact>
</mgrwt>
</event>
<event>
 5    0  0.3372079E-003  0.4685933E+03  0.7546771E-02  0.1022318E+00
         21   -1    0    0  503  502  0.00000000000E+00  0.00000000000E+00  0.20756630850E+03  0.20756630850E+03  0.00000000000E+00 0. -1.
         21   -1    0    0  501  503 -0.00000000000E+00 -0.00000000000E+00 -0.26446926921E+03  0.26446926921E+03  0.00000000000E+00 0. -1.
         25    1    1    2    0    0  0.24799423366E+01 -0.20161039636E+03  0.37254002500E+02  0.24013696662E+03  0.12500000000E+03 0.  0.
          1    1    1    2  501    0 -0.21930284336E+02  0.17745962346E+03 -0.67905005302E+02  0.19126929987E+03  0.00000000000E+00 0. -1.
         -1    1    1    2    0  502  0.19450341999E+02  0.24150772903E+02 -0.26251957912E+02  0.40629311216E+02  0.00000000000E+00 0.  1.
<mgrwt>
<rscale>  4 0.46859326E+03</rscale>
<asrwt>0</asrwt>
<pdfrwt beam="1">  1       21 0.31933278E-01 0.46859326E+03</pdfrwt>
<pdfrwt beam="2">  1       21 0.40687580E-01 0.46859326E+03</pdfrwt>
<totfact> 0.50363767E+04</totfact>
</mgrwt>
</event>
<event>
 5    0  0.3372079E-003  0.5193937E+03  0.7546771E-02  0.1008837E+00
         21   -1    0    0  503  502  0.00000000000E+00  0.00000000000E+00  0.38489072798E+03  0.38489072798E+03  0.00000000000E+00 0.  1.
         21   -1    0    0  501  503 -0.00000000000E+00 -0.00000000000E+00 -0.17522491659E+03  0.17522491659E+03  0.00000000000E+00 0.  1.
         25    1    1    2    0    0  0.19226882877E+03  0.56752665000E+02  0.25685809739E+03  0.34898316535E+03  0.12500000000E+03 0.  0.
          4    1    1    2  501    0 -0.18124827815E+03 -0.39809215280E+02 -0.41939321931E+02  0.19024883357E+03  0.00000000000E+00 0.  1.
         -4    1    1    2    0  502 -0.11020550619E+02 -0.16943449719E+02 -0.52529640714E+01  0.20883645656E+02  0.00000000000E+00 0. -1.
<mgrwt>
<rscale>  4 0.51939367E+03</rscale>
<asrwt>0</asrwt>
<pdfrwt beam="1">  1       21 0.59213958E-01 0.51939367E+03</pdfrwt>
<pdfrwt beam="2">  1       21 0.26957680E-01 0.51939367E+03</pdfrwt>
<totfact> 0.31404818E+04</totfact>
</mgrwt>
</event>
<event>
 5    0  0.3372079E-003  0.5322351E+03  0.7546771E-02  0.1005692E+00
         21   -1    0    0  501  502  0.00000000000E+00  0.00000000000E+00  0.21432128144E+03  0.21432128144E+03  0.00000000000E+00 0. -1.
         21   -1    0    0  502  503 -0.00000000000E+00 -0.00000000000E+00 -0.33043173032E+03  0.33043173032E+03  0.00000000000E+00 0. -1.
         25    1    1    2    0    0  0.11037344142E+03  0.16936247384E+03 -0.19705856190E+03  0.30874426462E+03  0.12500000000E+03 0.  0.
          2    1    1    2  501    0 -0.10746021507E+03 -0.84836520300E+02  0.45100237489E+02  0.14414910482E+03  0.00000000000E+00 0. -1.
         -2    1    1    2    0  503 -0.29132263560E+01 -0.84525953536E+02  0.35847875532E+02  0.91859642331E+02  0.00000000000E+00 0.  1.
<mgrwt>
<rscale>  4 0.53223511E+03</rscale>
<asrwt>0</asrwt>
<pdfrwt beam="1">  1       21 0.32972505E-01 0.53223511E+03</pdfrwt>
<pdfrwt beam="2">  1       21 0.50835651E-01 0.53223511E+03</pdfrwt>
<totfact> 0.29182197E+04</totfact>
</mgrwt>
</event>
<event>
 5    0  0.3372079E-003  0.5334055E+03  0.7546771E-02  0.1005410E+00
         21   -1    0    0  503  502  0.00000000000E+00  0.00000000000E+00  0.15579975393E+03  0.15579975393E+03  0.00000000000E+00 0. -1.
         21   -1    0    0  501  503 -0.00000000000E+00 -0.00000000000E+00 -0.45654992008E+03  0.45654992008E+03  0.00000000000E+00 0. -1.
         25    1    1    2    0    0  0.16934267631E+03 -0.11463287880E+03  0.40383144829E+01  0.23970595926E+03  0.12500000000E+03 0.  0.
          1    1    1    2  501    0 -0.13688476282E+03  0.96459563099E+02 -0.28488032624E+03  0.33045224448E+03  0.00000000000E+00 0. -1.
         -1    1    1    2    0  502 -0.32457913490E+02  0.18173315705E+02 -0.19908154400E+02  0.42191470269E+02  0.00000000000E+00 0.  1.
<mgrwt>
<rscale>  4 0.53340553E+03</rscale>
<asrwt>0</asrwt>
<pdfrwt beam="1">  1       21 0.23969193E-01 0.53340553E+03</pdfrwt>
<pdfrwt beam="2">  1       21 0.70238448E-01 0.53340553E+03</pdfrwt>
<totfact> 0.26938107E+04</totfact>
</mgrwt>
</event>
<event>
 5    0  0.3372079E-003  0.7114053E+03  0.7546771E-02  0.9697924E-01
         21   -1    0    0  503  502  0.00000000000E+00  0.00000000000E+00  0.81358689278E+03  0.81358689278E+03  0.00000000000E+00 0. -1.
         21   -1    0    0  501  503 -0.00000000000E+00 -0.00000000000E+00 -0.15551425733E+03  0.15551425733E+03  0.00000000000E+00 0. -1.
         25    1    1    2    0    0  0.26237810379E+03 -0.90257145396E+02  0.65685414841E+02  0.31133293332E+03  0.12500000000E+03 0.  0.
          3    1    1    2  501    0 -0.23414783139E+03  0.97099464797E+02  0.49480786043E+03  0.55595713122E+03  0.00000000000E+00 0. -1.
         -3    1    1    2    0  502 -0.28230272404E+02 -0.68423194010E+01  0.97579360172E+02  0.10181108558E+03  0.00000000000E+00 0.  1.
<mgrwt>
<rscale>  4 0.71140526E+03</rscale>
<asrwt>0</asrwt>
<pdfrwt beam="1">  1       21 0.12516721E+00 0.71140526E+03</pdfrwt>
<pdfrwt beam="2">  1       21 0.23925271E-01 0.71140526E+03</pdfrwt>
<totfact> 0.64494769E+03</totfact>
</mgrwt>
</event>
<event>
 5    0  0.3372079E-003  0.4654580E+03  0.7546771E-02  0.1023210E+00
         21   -1    0    0  503  502  0.00000000000E+00  0.00000000000E+00  0.10098428383E+03  0.10098428383E+03  0.00000000000E+00 0. -1.
         21   -1    0    0  501  503 -0.00000000000E+00 -0.00000000000E+00 -0.53634876882E+03  0.53634876882E+03  0.00000000000E+00 0. -1.
         25    1    1    2    0    0 -0.30961111266E+02  0.20250923697E+03 -0.14998572813E+03  0.28300053024E+03  0.12500000000E+03 0.  0.
          1    1    1    2  501    0  0.87891425749E+01 -0.17226385454E+03 -0.23687273983E+03  0.29302010082E+03  0.00000000000E+00 0. -1.
         -1    1    1    2    0  502  0.22171968691E+02 -0.30245382432E+02 -0.48506017030E+02  0.61312421598E+02  0.00000000000E+00 0.  1.
<mgrwt>
<rscale>  4 0.46545804E+03</rscale>
<asrwt>0</asrwt>
<pdfrwt beam="1">  1       21 0.15536044E-01 0.46545804E+03</pdfrwt>
<pdfrwt beam="2">  1       21 0.82515195E-01 0.46545804E+03</pdfrwt>
<totfact> 0.43080824E+04</totfact>
</mgrwt>
</event>
<event>
 5    0  0.3372079E-003  0.4611038E+03  0.7546771E-02  0.1024462E+00
         21   -1    0    0  503  502  0.00000000000E+00  0.00000000000E+00  0.17513730901E+03  0.17513730901E+03  0.00000000000E+00 0.  1.
         21   -1    0    0  501  503 -0.00000000000E+00 -0.00000000000E+00 -0.30349996873E+03  0.30349996873E+03  0.00000000000E+00 0.  1.
         25    1    1    2    0    0 -0.16525302503E+03  0.13330160146E+03 -0.64893190088E+02  0.25478227048E+03  0.12500000000E+03 0.  0.
          2    1    1    2  501    0  0.16938315978E+02 -0.15972002454E+02 -0.17800435607E+02  0.29306431348E+02  0.00000000000E+00 0. -1.
         -2    1    1    2    0  502  0.14831470905E+03 -0.11732959900E+03 -0.45669034029E+02  0.19454857592E+03  0.00000000000E+00 0.  1.
<mgrwt>
<rscale>  4 0.46110375E+03</rscale>
<asrwt>0</asrwt>
<pdfrwt beam="1">  1       21 0.26944202E-01 0.46110375E+03</pdfrwt>
<pdfrwt beam="2">  1       21 0.46692302E-01 0.46110375E+03</pdfrwt>
<totfact> 0.53008952E+04</totfact>
</mgrwt>
</event>
<event>
 5    0  0.3372079E-003  0.5788140E+03  0.7546771E-02  0.9950362E-01
         21   -1    0    0  501  502  0.00000000000E+00  0.00000000000E+00  0.73765564915E+03  0.73765564915E+03  0.00000000000E+00 0.  1.
         21   -1    0    0  502  503 -0.00000000000E+00 -0.00000000000E+00 -0.11354406260E+03  0.11354406260E+03  0.00000000000E+00 0.  1.
         25    1    1    2    0    0  0.15709871480E+03  0.12419353825E+03  0.51174950097E+03  0.56357483343E+03  0.12500000000E+03 0.  0.
          2    1    1    2  501    0 -0.12890396909E+03 -0.14725782069E+03  0.14106575524E+03  0.24124810114E+03  0.00000000000E+00 0. -1.
         -2    1    1    2    0  503 -0.28194745703E+02  0.23064282446E+02 -0.28703669659E+02  0.46376777183E+02  0.00000000000E+00 0.  1.
<mgrwt>
<rscale>  4 0.57881403E+03</rscale>
<asrwt>0</asrwt>
<pdfrwt beam="1">  1       21 0.11348548E+00 0.57881403E+03</pdfrwt>
<pdfrwt beam="2">  1       21 0.17468318E-01 0.57881403E+03</pdfrwt>
<totfact> 0.15595933E+04</totfact>
</mgrwt>
</event>
<event>
 5    0  0.3372079E-003  0.6407782E+03  0.7546771E-02  0.9824239E-01
         21   -1    0    0  501  502  0.00000000000E+00  0.00000000000E+00  0.50662274588E+03  0.50662274588E+03  0.00000000000E+00 0. -1.
         21   -1    0    0  502  503 -0.00000000000E+00 -0.00000000000E+00 -0.20261461595E+03  0.20261461595E+03  0.00000000000E+00 0. -1.
         25    1    1    2    0    0  0.24348151936E+03 -0.11804363232E+03  0.77921439700E+02  0.30808164529E+03  0.12500000000E+03 0.  0.
          1    1    1    2  501    0 -0.12811549314E+03 -0.40534924759E+02  0.10654672670E+03  0.17149012998E+03  0.00000000000E+00 0.  1.
         -1    1    1    2    0  503 -0.11536602622E+03  0.15857855708E+03  0.11953996352E+03  0.22966558656E+03  0.00000000000E+00 0. -1.
<mgrwt>
<rscale>  4 0.64077819E+03</rscale>
<asrwt>0</asrwt>
<pdfrwt beam="1">  1       21 0.77941961E-01 0.64077819E+03</pdfrwt>
<pdfrwt beam="2">  1       21 0.31171479E-01 0.64077819E+03</pdfrwt>
<totfact> 0.12358381E+04</totfact>
</mgrwt>
</event>
<event>
 5    0  0.3372079E-003  0.1471421E+04  0.7546771E-02  0.8903683E-01
         21   -1    0    0  503  502  0.00000000000E+00  0.00000000000E+00  0.42124053565E+03  0.42124053565E+03  0.00000000000E+00 0.  1.
         21   -1    0    0  501  503 -0.00000000000E+00 -0.00000000000E+00 -0.12849427959E+04  0.12849427959E+04  0.00000000000E+00 0.  1.
         25    1    1    2    0    0 -0.21616839902E+03  0.67703788839E+03 -0.47924078247E+03  0.86625966467E+03  0.12500000000E+03 0.  0.
          3    1    1    2  501    0 -0.48820805215E+02 -0.13097478629E+03 -0.69233137014E+02  0.15598427141E+03  0.00000000000E+00 0. -1.
         -3    1    1    2    0  502  0.26498920424E+03 -0.54606310210E+03 -0.31522834075E+03  0.68393939545E+03  0.00000000000E+00 0.  1.
<mgrwt>
<rscale>  4 0.14714211E+04</rscale>
<asrwt>0</asrwt>
<pdfrwt beam="1">  1       21 0.64806236E-01 0.14714211E+04</pdfrwt>
<pdfrwt beam="2">  1       21 0.19768351E+00 0.14714211E+04</pdfrwt>
<totfact> 0.18961593E+02</totfact>
</mgrwt>
</event>
<event>
 5    0  0.3372079E-003  0.6622575E+03  0.7546771E-02  0.9784047E-01
         21   -1    0    0  501  502  0.00000000000E+00  0.00000000000E+00  0.38380102618E+03  0.38380102618E+03  0.00000000000E+00 0. -1.
         21   -1    0    0  502  503 -0.00000000000E+00 -0.00000000000E+00 -0.28568511740E+03  0.28568511740E+03  0.00000000000E+00 0. -1.
         25    1    1    2    0    0  0.16126237514E+03  0.24264244702E+03  0.11292817225E+03  0.33653927382E+03  0.12500000000E+03 0.  0.
          2    1    1    2  501    0 -0.10894322264E+03 -0.24731930059E+03  0.18273129378E+02  0.27086780810E+03  0.00000000000E+00 0.  1.
         -2    1    1    2    0  503 -0.52319152500E+02  0.46768535739E+01 -0.33085392855E+02  0.62079061672E+02  0.00000000000E+00 0. -1.
<mgrwt>
<rscale>  4 0.66225748E+03</rscale>
<asrwt>0</asrwt>
<pdfrwt beam="1">  1       21 0.59046311E-01 0.66225748E+03</pdfrwt>
<pdfrwt beam="2">  1       21 0.43951557E-01 0.66225748E+03</pdfrwt>
<totfact> 0.11372326E+04</totfact>
</mgrwt>
</event>
<event>
 5    0  0.3372079E-003  0.4876447E+03  0.7546771E-02  0.1017055E+00
         21   -1    0    0  501  502  0.00000000000E+00  0.00000000000E+00  0.19020086324E+03  0.19020086324E+03  0.00000000000E+00 0. -1.
         21   -1    0    0  502  503 -0.00000000000E+00 -0.00000000000E+00 -0.31256083415E+03  0.31256083415E+03  0.00000000000E+00 0. -1.
         25    1    1    2    0    0 -0.71667623544E+02  0.19173124699E+03  0.13384308858E+02  0.24021086374E+03  0.12500000000E+03 0.  0.
          4    1    1    2  501    0 -0.10309597197E+02 -0.10292067735E+03 -0.54445040809E+02  0.11688976041E+03  0.00000000000E+00 0.  1.
         -4    1    1    2    0  503  0.81977220740E+02 -0.88810569642E+02 -0.81299238955E+02  0.14566107323E+03  0.00000000000E+00 0. -1.
<mgrwt>
<rscale>  4 0.48764471E+03</rscale>
<asrwt>0</asrwt>
<pdfrwt beam="1">  1       21 0.29261672E-01 0.48764471E+03</pdfrwt>
<pdfrwt beam="2">  1       21 0.48086282E-01 0.48764471E+03</pdfrwt>
<totfact> 0.42093547E+04</totfact>
</mgrwt>
</event>
<event>
 5    0  0.3372079E-003  0.8176176E+03  0.7546771E-02  0.9534861E-01
         21   -1    0    0  501  502  0.00000000000E+00  0.00000000000E+00  0.51025772545E+03  0.51025772545E+03  0.00000000000E+00 0.  1.
         21   -1    0    0  502  503 -0.00000000000E+00 -0.00000000000E+00 -0.32752982329E+03  0.32752982329E+03  0.00000000000E+00 0.  1.
         25    1    1    2    0    0  0.35933349550E+03  0.16951726460E+02 -0.76147624780E+02  0.38837016206E+03  0.12500000000E+03 0.  0.
          2    1    1    2  501    0 -0.98033704617E+02 -0.33819395535E+00  0.11335931979E+03  0.14987013378E+03  0.00000000000E+00 0. -1.
         -2    1    1    2    0  503 -0.26129979088E+03 -0.16613532505E+02  0.14551620714E+03  0.29954725290E+03  0.00000000000E+00 0.  1.
<mgrwt>
<rscale>  4 0.81761757E+03</rscale>
<asrwt>0</asrwt>
<pdfrwt beam="1">  1       21 0.78501189E-01 0.81761757E+03</pdfrwt>
<pdfrwt beam="2">  1       21 0.50389203E-01 0.81761757E+03</pdfrwt>
<totfact> 0.43320881E+03</totfact>
</mgrwt>
</event>
<event>
 5    0  0.3372079E-003  0.6169309E+03  0.7546771E-02  0.9870889E-01
         21   -1    0    0  501  502  0.00000000000E+00  0.00000000000E+00  0.51708058818E+02  0.51708058818E+02  0.00000000000E+00 0. -1.
         21   -1    0    0  502  503 -0.00000000000E+00 -0.00000000000E+00 -0.18401567947E+04  0.18401567947E+04  0.00000000000E+00 0. -1.
         25    1    1    2    0    0  0.27780899581E+03 -0.34729221515E+01 -0.68484933848E+03  0.74955554548E+03  0.12500000000E+03 0.  0.
          1    1    1    2  501    0 -0.26028848955E+02 -0.30840332324E+02 -0.13207251001E+03  0.13810059731E+03  0.00000000000E+00 0.  1.
         -1    1    1    2    0  503 -0.25178014686E+03  0.34313254475E+02 -0.97152688738E+03  0.10042087107E+04  0.00000000000E+00 0. -1.
<mgrwt>
<rscale>  4 0.61693091E+03</rscale>
<asrwt>0</asrwt>
<pdfrwt beam="1">  1       21 0.79550876E-02 0.61693091E+03</pdfrwt>
<pdfrwt beam="2">  1       21 0.28310099E+00 0.61693091E+03</pdfrwt>
<totfact> 0.40468440E+03</totfact>
</mgrwt>
</event>
<event>
 5    0  0.3372079E-003  0.5114663E+03  0.7546771E-02  0.1010829E+00
         21   -1    0    0  501  502  0.00000000000E+00  0.00000000000E+00  0.57001047871E+02  0.57001047871E+02  0.00000000000E+00 0.  1.
         21   -1    0    0  502  503 -0.00000000000E+00 -0.00000000000E+00 -0.11473374876E+04  0.11473374876E+04  0.00000000000E+00 0.  1.
         25    1    1    2    0    0  0.18350556524E+03  0.12443317130E+03 -0.42620632626E+03  0.49642193660E+03  0.12500000000E+03 0.  0.
          1    1    1    2  501    0 -0.16084890134E+03 -0.77172000969E+02 -0.39064653458E+03  0.42945616979E+03  0.00000000000E+00 0.  1.
         -1    1    1    2    0  503 -0.22656663899E+02 -0.47261170327E+02 -0.27348357893E+03  0.27846042912E+03  0.00000000000E+00 0. -1.
<mgrwt>
<rscale>  4 0.51146628E+03</rscale>
<asrwt>0</asrwt>
<pdfrwt beam="1">  1       21 0.87693926E-02 0.51146628E+03</pdfrwt>
<pdfrwt beam="2">  1       21 0.17651345E+00 0.51146628E+03</pdfrwt>
<totfact> 0.17093735E+04</totfact>
</mgrwt>
</event>
<event>
 5    0  0.3372079E-003  0.7200672E+03  0.7546771E-02  0.9683517E-01
         21   -1    0    0  503  502  0.00000000000E+00  0.00000000000E+00  0.39802145336E+03  0.39802145336E+03  0.00000000000E+00 0. -1.
         21   -1    0    0  501  503 -0.00000000000E+00 -0.00000000000E+00 -0.32567133606E+03  0.32567133606E+03  0.00000000000E+00 0. -1.
         25    1    1    2    0    0  0.17944343707E+03 -0.20247317322E+03  0.20852850377E+03  0.36373681401E+03  0.12500000000E+03 0.  0.
          2    1    1    2  501    0 -0.57915481074E+02  0.20285174820E+03 -0.97686644614E+02  0.23247734348E+03  0.00000000000E+00 0.  1.
         -2    1    1    2    0  502 -0.12152795599E+03 -0.37857498362E+00 -0.38491741861E+02  0.12747863193E+03  0.00000000000E+00 0. -1.
<mgrwt>
<rscale>  4 0.72006716E+03</rscale>
<asrwt>0</asrwt>
<pdfrwt beam="1">  1       21 0.61234070E-01 0.72006716E+03</pdfrwt>
<pdfrwt beam="2">  1       21 0.50103282E-01 0.72006716E+03</pdfrwt>
<totfact> 0.78551180E+03</totfact>
</mgrwt>
</event>
<event>
 5    0  0.3372079E-003  0.4843783E+03  0.7546771E-02  0.1017939E+00
         21   -1    0    0  501  502  0.00000000000E+00  0.00000000000E+00  0.39384149810E+02  0.39384149810E+02  0.00000000000E+00 0.  1.
         21   -1    0    0  502  503 -0.00000000000E+00 -0.00000000000E+00 -0.14893195410E+04  0.14893195410E+04  0.00000000000E+00 0.  1.
         25    1    1    2    0    0 -0.13453156680E+03 -0.16260889463E+03 -0.10048321385E+04  0.10343369962E+04  0.12500000000E+03 0.  0.
          2    1    1    2  501    0  0.12253166605E+03  0.14559923189E+03 -0.42388941765E+03  0.46464543892E+03  0.00000000000E+00 0.  1.
         -2    1    1    2    0  503  0.11999900746E+02  0.17009662743E+02 -0.21213835026E+02  0.29721255711E+02  0.00000000000E+00 0. -1.
<mgrwt>
<rscale>  4 0.48437830E+03</rscale>
<asrwt>0</asrwt>
<pdfrwt beam="1">  1       21 0.60590997E-02 0.48437830E+03</pdfrwt>
<pdfrwt beam="2">  1       21 0.22912609E+00 0.48437830E+03</pdfrwt>
<totfact> 0.14737404E+04</totfact>
</mgrwt>
</event>
<event>
 5    0  0.3372079E-003  0.4775788E+03  0.7546771E-02  0.1019803E+00
         21   -1    0    0  503  502  0.00000000000E+00  0.00000000000E+00  0.37656786361E+03  0.37656786361E+03  0.00000000000E+00 0. -1.
         21   -1    0    0  501  503 -0.00000000000E+00 -0.00000000000E+00 -0.15142123044E+03  0.15142123044E+03  0.00000000000E+00 0. -1.
         25    1    1    2    0    0 -0.21258918059E+03  0.63312123248E+01  0.62927152731E+02  0.25459589648E+03  0.12500000000E+03 0.  0.
          2    1    1    2  501    0  0.98270849984E+02 -0.14974411740E+02  0.10731267898E+03  0.14627851528E+03  0.00000000000E+00 0.  1.
         -2    1    1    2    0  502  0.11431833060E+03  0.86431994152E+01  0.54906801461E+02  0.12711468229E+03  0.00000000000E+00 0. -1.
<mgrwt>
<rscale>  4 0.47757877E+03</rscale>
<asrwt>0</asrwt>
<pdfrwt beam="1">  1       21 0.57933517E-01 0.47757877E+03</pdfrwt>
<pdfrwt beam="2">  1       21 0.23295574E-01 0.47757877E+03</pdfrwt>
<totfact> 0.44180007E+04</totfact>
</mgrwt>
</event>
<event>
 5    0  0.3372079E-003  0.4620007E+03  0.7546771E-02  0.1024203E+00
         21   -1    0    0  501  502  0.00000000000E+00  0.00000000000E+00  0.13113678786E+03  0.13113678786E+03  0.00000000000E+00 0. -1.
         21   -1    0    0  502  503 -0.00000000000E+00 -0.00000000000E+00 -0.40691219433E+03  0.40691219433E+03  0.00000000000E+00 0. -1.
         25    1    1    2    0    0  0.13598010225E+03 -0.15578279564E+03 -0.13500959743E+03  0.27678775085E+03  0.12500000000E+03 0.  0.
          1    1    1    2  501    0 -0.38687241249E+02  0.10128371026E+03 -0.74348683870E+02  0.13146413729E+03  0.00000000000E+00 0.  1.
         -1    1    1    2    0  503 -0.97292861003E+02  0.54499085377E+02 -0.66417125166E+02  0.12979709405E+03  0.00000000000E+00 0. -1.
<mgrwt>
<rscale>  4 0.46200068E+03</rscale>
<asrwt>0</asrwt>
<pdfrwt beam="1">  1       21 0.20174891E-01 0.46200068E+03</pdfrwt>
<pdfrwt beam="2">  1       21 0.62601875E-01 0.46200068E+03</pdfrwt>
<totfact> 0.49283336E+04</totfact>
</mgrwt>
</event>
<event>
 5    0  0.3372079E-003  0.5388962E+03  0.7546771E-02  0.1004097E+00
         21   -1    0    0  503  502  0.00000000000E+00  0.00000000000E+00  0.86135426264E+02  0.86135426264E+02  0.00000000000E+00 0. -1.
         21   -1    0    0  501  503 -0.00000000000E+00 -0.00000000000E+00 -0.84288535273E+03  0.84288535273E+03  0.00000000000E+00 0. -1.
         25    1    1    2    0    0  0.16925370611E+03 -0.16231715654E+03 -0.27240928907E+03  0.38055945279E+03  0.12500000000E+03 0.  0.
          2    1    1    2  501    0 -0.15291037190E+03  0.81584287962E+02 -0.35625917942E+03  0.39617948054E+03  0.00000000000E+00 0. -1.
         -2    1    1    2    0  502 -0.16343334202E+02  0.80732868577E+02 -0.12808145798E+03  0.15228184566E+03  0.00000000000E+00 0.  1.
<mgrwt>
<rscale>  4 0.53889624E+03</rscale>
<asrwt>0</asrwt>
<pdfrwt beam="1">  1       21 0.13251604E-01 0.53889624E+03</pdfrwt>
<pdfrwt beam="2">  1       21 0.12967467E+00 0.53889624E+03</pdfrwt>
<totfact> 0.18722316E+04</totfact>
</mgrwt>
</event>
<event>
 5    0  0.3372079E-003  0.7179144E+03  0.7546771E-02  0.9687077E-01
         21   -1    0    0  501  502  0.00000000000E+00  0.00000000000E+00  0.98156190079E+02  0.98156190079E+02  0.00000000000E+00 0.  1.
         21   -1    0    0  502  503 -0.00000000000E+00 -0.00000000000E+00 -0.13127066310E+04  0.13127066310E+04  0.00000000000E+00 0.  1.
         25    1    1    2    0    0  0.24554877268E+02  0.28638708981E+03 -0.79350169736E+03  0.85316496114E+03  0.12500000000E+03 0.  0.
          4    1    1    2  501    0  0.28235163444E+02 -0.18023336448E+03 -0.84831603864E+02  0.20119068353E+03  0.00000000000E+00 0.  1.
         -4    1    1    2    0  503 -0.52790040712E+02 -0.10615372533E+03 -0.33621713971E+03  0.35650717641E+03  0.00000000000E+00 0. -1.
<mgrwt>
<rscale>  4 0.71791443E+03</rscale>
<asrwt>0</asrwt>
<pdfrwt beam="1">  1       21 0.15100954E-01 0.71791443E+03</pdfrwt>
<pdfrwt beam="2">  1       21 0.20195485E+00 0.71791443E+03</pdfrwt>
<totfact> 0.39939685E+03</totfact>
</mgrwt>
</event>
<event>
 5    0  0.3372079E-003  0.6847121E+03  0.7546771E-02  0.9743740E-01
         21   -1    0    0  501  502  0.00000000000E+00  0.00000000000E+00  0.24675280572E+03  0.24675280572E+03  0.00000000000E+00 0. -1.
         21   -1    0    0  502  503 -0.00000000000E+00 -0.00000000000E+00 -0.47500033442E+03  0.47500033442E+03  0.00000000000E+00 0. -1.
         25    1    1    2    0    0 -0.10083009439E+01  0.26015344892E+03 -0.18729657704E+03  0.34407243631E+03  0.12500000000E+03 0.  0.
          4    1    1    2  501    0  0.15726864801E+02 -0.31194629547E+03 -0.39829864233E+01  0.31236787562E+03  0.00000000000E+00 0.  1.
         -4    1    1    2    0  503 -0.14718563857E+02  0.51792846555E+02 -0.36967965242E+02  0.65312828223E+02  0.00000000000E+00 0. -1.
<mgrwt>
<rscale>  4 0.68471210E+03</rscale>
<asrwt>0</asrwt>
<pdfrwt beam="1">  1       21 0.37961970E-01 0.68471210E+03</pdfrwt>
<pdfrwt beam="2">  1       21 0.73076975E-01 0.68471210E+03</pdfrwt>
<totfact> 0.95176409E+03</totfact>
</mgrwt>
</event>
<event>
 5    0  0.3372079E-003  0.4911800E+03  0.7546771E-02  0.1016107E+00
         21   -1    0    0  501  502  0.00000000000E+00  0.00000000000E+00  0.73374569612E+02  0.73374569612E+02  0.00000000000E+00 0. -1.
         21   -1    0    0  502  503 -0.00000000000E+00 -0.00000000000E+00 -0.82200748270E+03  0.82200748270E+03  0.00000000000E+00 0. -1.
         25    1    1    2    0    0  0.10648357923E+03  0.17498126005E+03 -0.57572058415E+03  0.62372781326E+03  0.12500000000E+03 0.  0.
          4    1    1    2  501    0 -0.81505808333E+02 -0.92334093850E+02 -0.99985602512E+02  0.15863764493E+03  0.00000000000E+00 0. -1.
         -4    1    1    2    0  503 -0.24977770901E+02 -0.82647166202E+02 -0.72926726422E+02  0.11301659412E+03  0.00000000000E+00 0.  1.
<mgrwt>
<rscale>  4 0.49117999E+03</rscale>
<asrwt>0</asrwt>
<pdfrwt beam="1">  1       21 0.11288396E-01 0.49117999E+03</pdfrwt>
<pdfrwt beam="2">  1       21 0.12646268E+00 0.49117999E+03</pdfrwt>
<totfact> 0.27101177E+04</totfact>
</mgrwt>
</event>
<event>
 5    0  0.3372079E-003  0.5375854E+03  0.7546771E-02  0.1004409E+00
         21   -1    0    0  501  502  0.00000000000E+00  0.00000000000E+00  0.10329427270E+04  0.10329427270E+04  0.00000000000E+00 0. -1.
         21   -1    0    0  502  503 -0.00000000000E+00 -0.00000000000E+00 -0.69945327442E+02  0.69945327442E+02  0.00000000000E+00 0. -1.
         25    1    1    2    0    0 -0.99466282590E+02 -0.18968388326E+03  0.23230510256E+03  0.33980020249E+03  0.12500000000E+03 0.  0.
          2    1    1    2  501    0  0.22326826225E+02  0.10949160113E+02  0.68503246473E+02  0.72877061232E+02  0.00000000000E+00 0.  1.
         -2    1    1    2    0  503  0.77139456365E+02  0.17873472315E+03  0.66218905057E+03  0.69021079076E+03  0.00000000000E+00 0. -1.
<mgrwt>
<rscale>  4 0.53758541E+03</rscale>
<asrwt>0</asrwt>
<pdfrwt beam="1">  1       21 0.15891425E+00 0.53758541E+03</pdfrwt>
<pdfrwt beam="2">  1       21 0.10760820E-01 0.53758541E+03</pdfrwt>
<totfact> 0.15841083E+04</totfact>
</mgrwt>
</event>
<event>
 5    0  0.3372079E-003  0.8338653E+03  0.7546771E-02  0.9512252E-01
         21   -1    0    0  501  502  0.00000000000E+00  0.00000000000E+00  0.32242524208E+03  0.32242524208E+03  0.00000000000E+00 0. -1.
         21   -1    0    0  502  503 -0.00000000000E+00 -0.00000000000E+00 -0.53914151115E+03  0.53914151115E+03  0.00000000000E+00 0. -1.
         25    1    1    2    0    0  0.31667719215E+03  0.35264071327E+02 -0.17464304744E+03  0.38425667564E+03  0.12500000000E+03 0.  0.
          4    1    1    2  501    0 -0.13387808520E+02  0.71699505068E+02  0.10160595355E+03  0.12507526630E+03  0.00000000000E+00 0. -1.
         -4    1    1    2    0  503 -0.30328938363E+03 -0.10696357640E+03 -0.14367917517E+03  0.35223481128E+03  0.00000000000E+00 0.  1.
<mgrwt>
<rscale>  4 0.83386529E+03</rscale>
<asrwt>0</asrwt>
<pdfrwt beam="1">  1       21 0.49603883E-01 0.83386529E+03</pdfrwt>
<pdfrwt beam="2">  1       21 0.82944849E-01 0.83386529E+03</pdfrwt>
<totfact> 0.39266617E+03</totfact>
</mgrwt>
</event>
<event>
 5    0  0.3372079E-003  0.6073535E+03  0.7546771E-02  0.9890266E-01
         21   -1    0    0  501  502  0.00000000000E+00  0.00000000000E+00  0.65294941609E+03  0.65294941609E+03  0.00000000000E+00 0. -1.
         21   -1    0    0  502  503 -0.00000000000E+00 -0.00000000000E+00 -0.14123538237E+03  0.14123538237E+03  0.00000000000E+00 0. -1.
         25    1    1    2    0    0 -0.24383805812E+03  0.13694002479E+03  0.29286237931E+03  0.42379587326E+03  0.12500000000E+03 0.  0.
          2    1    1    2  501    0  0.71412685762E+02 -0.98946530594E+02  0.82319511827E+02  0.14719609245E+03  0.00000000000E+00 0.  1.
         -2    1    1    2    0  503  0.17242537236E+03 -0.37993494196E+02  0.13653214258E+03  0.22319283275E+03  0.00000000000E+00 0. -1.
<mgrwt>
<rscale>  4 0.60735347E+03</rscale>
<asrwt>0</asrwt>
<pdfrwt beam="1">  1       21 0.10045375E+00 0.60735347E+03</pdfrwt>
<pdfrwt beam="2">  1       21 0.21728521E-01 0.60735347E+03</pdfrwt>
<totfact> 0.13839603E+04</totfact>
</mgrwt>
</event>
<event>
 5    0  0.3372079E-003  0.6561091E+03  0.7546771E-02  0.9795383E-01
         21   -1    0    0  503  502  0.00000000000E+00  0.00000000000E+00  0.29646204053E+03  0.29646204053E+03  0.00000000000E+00 0.  1.
         21   -1    0    0  501  503 -0.00000000000E+00 -0.00000000000E+00 -0.36301371474E+03  0.36301371474E+03  0.00000000000E+00 0.  1.
         25    1    1    2    0    0 -0.67473409431E+02  0.24039159189E+03 -0.74522955185E+02  0.28899731709E+03  0.12500000000E+03 0.  0.
          2    1    1    2  501    0 -0.47511256259E+02 -0.21927773944E+03 -0.63847388319E+02  0.23327352074E+03  0.00000000000E+00 0. -1.
         -2    1    1    2    0  502  0.11498466569E+03 -0.21113852452E+02  0.71818669292E+02  0.13720491743E+03  0.00000000000E+00 0.  1.
<mgrwt>
<rscale>  4 0.65610910E+03</rscale>
<asrwt>0</asrwt>
<pdfrwt beam="1">  1       21 0.45609545E-01 0.65610910E+03</pdfrwt>
<pdfrwt beam="2">  1       21 0.55848264E-01 0.65610910E+03</pdfrwt>
<totfact> 0.11897578E+04</totfact>
</mgrwt>
</event>
<event>
 5    0  0.3372079E-003  0.4638747E+03  0.7546771E-02  0.1023663E+00
         21   -1    0    0  503  502  0.00000000000E+00  0.00000000000E+00  0.24461362862E+03  0.24461362862E+03  0.00000000000E+00 0. -1.
         21   -1    0    0  501  503 -0.00000000000E+00 -0.00000000000E+00 -0.21991797637E+03  0.21991797637E+03  0.00000000000E+00 0. -1.
         25    1    1    2    0    0  0.14657348380E+03  0.15094996803E+03  0.45994849441E+01  0.24477711139E+03  0.12500000000E+03 0.  0.
          2    1    1    2  501    0 -0.14202066694E+03 -0.13127648532E+03  0.32020061855E+01  0.19342605378E+03  0.00000000000E+00 0. -1.
         -2    1    1    2    0  502 -0.45528168618E+01 -0.19673482708E+02  0.16894161117E+02  0.26328439815E+02  0.00000000000E+00 0.  1.
<mgrwt>
<rscale>  4 0.46387470E+03</rscale>
<asrwt>0</asrwt>
<pdfrwt beam="1">  1       21 0.37632866E-01 0.46387470E+03</pdfrwt>
<pdfrwt beam="2">  1       21 0.33833535E-01 0.46387470E+03</pdfrwt>
<totfact> 0.52692275E+04</totfact>
</mgrwt>
</event>
<event>
 5    0  0.3372079E-003  0.4972058E+03  0.7546771E-02  0.1014511E+00
         21   -1    0    0  501  502  0.00000000000E+00  0.00000000000E+00  0.10933094445E+04  0.10933094445E+04  0.00000000000E+00 0.  1.
         21   -1    0    0  502  503 -0.00000000000E+00 -0.00000000000E+00 -0.56528737204E+02  0.56528737204E+02  0.00000000000E+00 0.  1.
         25    1    1    2    0    0 -0.61084117901E+01 -0.20427055731E+03  0.48529281443E+03  0.54120041483E+03  0.12500000000E+03 0.  0.
          3    1    1    2  501    0 -0.27157313940E+02  0.17966891189E+03  0.53336461736E+03  0.56346805823E+03  0.00000000000E+00 0.  1.
         -3    1    1    2    0  503  0.33265725730E+02  0.24601645425E+02  0.18123275558E+02  0.45169708688E+02  0.00000000000E+00 0. -1.
<mgrwt>
<rscale>  4 0.49720580E+03</rscale>
<asrwt>0</asrwt>
<pdfrwt beam="1">  1       21 0.16820144E+00 0.49720580E+03</pdfrwt>
<pdfrwt beam="2">  1       21 0.86967295E-02 0.49720580E+03</pdfrwt>
<totfact> 0.20009723E+04</totfact>
</mgrwt>
</event>
<event>
 5    0  0.3372079E-003  0.7944608E+03  0.7546771E-02  0.9568070E-01
         21   -1    0    0  503  502  0.00000000000E+00  0.00000000000E+00  0.13589955799E+03  0.13589955799E+03  0.00000000000E+00 0. -1.
         21   -1    0    0  501  503 -0.00000000000E+00 -0.00000000000E+00 -0.11610926636E+04  0.11610926636E+04  0.00000000000E+00 0. -1.
         25    1    1    2    0    0  0.73249382034E+02  0.34368147221E+03 -0.65491275937E+03  0.75366978757E+03  0.12500000000E+03 0.  0.
          3    1    1    2  501    0  0.20954443730E+02 -0.63954536332E+02 -0.17992775572E+03  0.19210223504E+03  0.00000000000E+00 0.  1.
         -3    1    1    2    0  502 -0.94203825764E+02 -0.27972693587E+03 -0.19035259047E+03  0.35122019894E+03  0.00000000000E+00 0. -1.
<mgrwt>
<rscale>  4 0.79446077E+03</rscale>
<asrwt>0</asrwt>
<pdfrwt beam="1">  1       21 0.20907625E-01 0.79446077E+03</pdfrwt>
<pdfrwt beam="2">  1       21 0.17862963E+00 0.79446077E+03</pdfrwt>
<totfact> 0.30768151E+03</totfact>
</mgrwt>
</event>
<event>
 5    0  0.3372079E-003  0.5155924E+03  0.7546771E-02  0.1009787E+00
         21   -1    0    0  503  502  0.00000000000E+00  0.00000000000E+00  0.58617324388E+03  0.58617324388E+03  0.00000000000E+00 0. -1.
         21   -1    0    0  501  503 -0.00000000000E+00 -0.00000000000E+00 -0.11337754109E+03  0.11337754109E+03  0.00000000000E+00 0. -1.
         25    1    1    2    0    0  0.11076817665E+03  0.20830348132E+03  0.21563153987E+03  0.34319366293E+03  0.12500000000E+03 0.  0.
          2    1    1    2  501    0 -0.43405629183E+02 -0.26942784401E+02  0.35900557250E+02  0.62440469944E+02  0.00000000000E+00 0.  1.
         -2    1    1    2    0  502 -0.67362547467E+02 -0.18136069692E+03  0.22126360566E+03  0.29391665209E+03  0.00000000000E+00 0. -1.
<mgrwt>
<rscale>  4 0.51559240E+03</rscale>
<asrwt>0</asrwt>
<pdfrwt beam="1">  1       21 0.90180497E-01 0.51559240E+03</pdfrwt>
<pdfrwt beam="2">  1       21 0.17442699E-01 0.51559240E+03</pdfrwt>
<totfact> 0.27835654E+04</totfact>
</mgrwt>
</event>
<event>
 5    0  0.3372079E-003  0.5285732E+03  0.7546771E-02  0.1006579E+00
         21   -1    0    0  501  502  0.00000000000E+00  0.00000000000E+00  0.65382868103E+02  0.65382868103E+02  0.00000000000E+00 0.  1.
         21   -1    0    0  502  503 -0.00000000000E+00 -0.00000000000E+00 -0.10682830867E+04  0.10682830867E+04  0.00000000000E+00 0.  1.
         25    1    1    2    0    0  0.17882086517E+02  0.20686475872E+03 -0.46266562448E+03  0.52229998803E+03  0.12500000000E+03 0.  0.
          2    1    1    2  501    0 -0.76532865419E+02 -0.17373711333E+03 -0.25282423161E+03  0.31616760765E+03  0.00000000000E+00 0.  1.
         -2    1    1    2    0  503  0.58650778902E+02 -0.33127645397E+02 -0.28741036255E+03  0.29519835917E+03  0.00000000000E+00 0. -1.
<mgrwt>
<rscale>  4 0.52857322E+03</rscale>
<asrwt>0</asrwt>
<pdfrwt beam="1">  1       21 0.10058903E-01 0.52857322E+03</pdfrwt>
<pdfrwt beam="2">  1       21 0.16435123E+00 0.52857322E+03</pdfrwt>
<totfact> 0.16319710E+04</totfact>
</mgrwt>
</event>
<event>
 5    0  0.3372079E-003  0.4653099E+03  0.7546771E-02  0.1023252E+00
         21   -1    0    0  501  502  0.00000000000E+00  0.00000000000E+00  0.36424751575E+02  0.36424751575E+02  0.00000000000E+00 0.  1.
         21   -1    0    0  502  503 -0.00000000000E+00 -0.00000000000E+00 -0.14860315874E+04  0.14860315874E+04  0.00000000000E+00 0.  1.
         25    1    1    2    0    0  0.25562314319E+00  0.20907466300E+03 -0.74338464038E+03  0.78227744669E+03  0.12500000000E+03 0.  0.
          2    1    1    2  501    0  0.16877214167E+02 -0.19364650813E+03 -0.57553985035E+03  0.60747833691E+03  0.00000000000E+00 0.  1.
         -2    1    1    2    0  503 -0.17132837311E+02 -0.15428154872E+02 -0.13068234514E+03  0.13270055542E+03  0.00000000000E+00 0. -1.
<mgrwt>
<rscale>  4 0.46530992E+03</rscale>
<asrwt>0</asrwt>
<pdfrwt beam="1">  1       21 0.56038073E-02 0.46530992E+03</pdfrwt>
<pdfrwt beam="2">  1       21 0.22862027E+00 0.46530992E+03</pdfrwt>
<totfact> 0.17120782E+04</totfact>
</mgrwt>
</event>
<event>
 5    0  0.3372079E-003  0.6378588E+03  0.7546771E-02  0.9829832E-01
         21   -1    0    0  501  502  0.00000000000E+00  0.00000000000E+00  0.34333130012E+03  0.34333130012E+03  0.00000000000E+00 0. -1.
         21   -1    0    0  502  503 -0.00000000000E+00 -0.00000000000E+00 -0.29626185597E+03  0.29626185597E+03  0.00000000000E+00 0. -1.
         25    1    1    2    0    0 -0.28505917022E+03 -0.33167526639E+01  0.35930906121E+02  0.31334607288E+03  0.12500000000E+03 0.  0.
          1    1    1    2  501    0  0.12594395119E+03 -0.76663954993E+02  0.14291405534E+02  0.14813333557E+03  0.00000000000E+00 0.  1.
         -1    1    1    2    0  503  0.15911521903E+03  0.79980707657E+02 -0.31528675079E+01  0.17811374764E+03  0.00000000000E+00 0. -1.
<mgrwt>
<rscale>  4 0.63785882E+03</rscale>
<asrwt>0</asrwt>
<pdfrwt beam="1">  1       21 0.52820200E-01 0.63785882E+03</pdfrwt>
<pdfrwt beam="2">  1       21 0.45578747E-01 0.63785882E+03</pdfrwt>
<totfact> 0.13494639E+04</totfact>
</mgrwt>
</event>
<event>
 5    0  0.3372079E-003  0.4905468E+03  0.7546771E-02  0.1016276E+00
         21   -1    0    0  503  502  0.00000000000E+00  0.00000000000E+00  0.30363276415E+02  0.30363276415E+02  0.00000000000E+00 0. -1.
         21   -1    0    0  501  503 -0.00000000000E+00 -0.00000000000E+00 -0.19813090024E+04  0.19813090024E+04  0.00000000000E+00 0. -1.
         25    1    1    2    0    0 -0.19439704881E+03 -0.82536558133E+02 -0.86256914584E+03  0.89680155406E+03  0.12500000000E+03 0.  0.
          1    1    1    2  501    0  0.11121323012E+03  0.97745441852E+02 -0.82716883900E+03  0.84031591807E+03  0.00000000000E+00 0. -1.
         -1    1    1    2    0  502  0.83183818688E+02 -0.15208883719E+02 -0.26120774110E+03  0.27455480664E+03  0.00000000000E+00 0.  1.
<mgrwt>
<rscale>  4 0.49054677E+03</rscale>
<asrwt>0</asrwt>
<pdfrwt beam="1">  1       21 0.46712723E-02 0.49054677E+03</pdfrwt>
<pdfrwt beam="2">  1       21 0.30481683E+00 0.49054677E+03</pdfrwt>
<totfact> 0.79474677E+03</totfact>
</mgrwt>
</event>
<event>
 5    0  0.3372079E-003  0.5353112E+03  0.7546771E-02  0.1004952E+00
         21   -1    0    0  501  502  0.00000000000E+00  0.00000000000E+00  0.56873471866E+03  0.56873471866E+03  0.00000000000E+00 0.  1.
         21   -1    0    0  502  503 -0.00000000000E+00 -0.00000000000E+00 -0.12596298142E+03  0.12596298142E+03  0.00000000000E+00 0.  1.
         25    1    1    2    0    0 -0.10455994291E+03  0.17574503776E+03  0.18448057977E+03  0.30245195366E+03  0.12500000000E+03 0.  0.
          4    1    1    2  501    0  0.12805689550E+03 -0.80015708537E+02  0.25161752199E+03  0.29344924514E+03  0.00000000000E+00 0.  1.
         -4    1    1    2    0  503 -0.23496952590E+02 -0.95729329224E+02  0.66736354716E+01  0.98796501279E+02  0.00000000000E+00 0. -1.
<mgrwt>
<rscale>  4 0.53531120E+03</rscale>
<asrwt>0</asrwt>
<pdfrwt beam="1">  1       21 0.87497647E-01 0.53531120E+03</pdfrwt>
<pdfrwt beam="2">  1       21 0.19378921E-01 0.53531120E+03</pdfrwt>
<totfact> 0.24393770E+04</totfact>
</mgrwt>
</event>
<event>
 5    0  0.3372079E-003  0.5740808E+03  0.7546771E-02  0.9960689E-01
         21   -1    0    0  501  502  0.00000000000E+00  0.00000000000E+00  0.65901806596E+03  0.65901806596E+03  0.00000000000E+00 0. -1.
         21   -1    0    0  502  503 -0.00000000000E+00 -0.00000000000E+00 -0.12502265408E+03  0.12502265408E+03  0.00000000000E+00 0. -1.
         25    1    1    2    0    0  0.21932979636E+03  0.14732996321E+03  0.23542582230E+03  0.37531586089E+03  0.12500000000E+03 0.  0.
          4    1    1    2  501    0 -0.21892486351E+03 -0.11831043610E+03  0.27826255166E+03  0.37330349959E+03  0.00000000000E+00 0. -1.
         -4    1    1    2    0  503 -0.40493284597E+00 -0.29019527113E+02  0.20307037918E+02  0.35421359566E+02  0.00000000000E+00 0.  1.
<mgrwt>
<rscale>  4 0.57408079E+03</rscale>
<asrwt>0</asrwt>
<pdfrwt beam="1">  1       21 0.10138739E+00 0.57408079E+03</pdfrwt>
<pdfrwt beam="2">  1       21 0.19234255E-01 0.57408079E+03</pdfrwt>
<totfact> 0.17213736E+04</totfact>
</mgrwt>
</event>
<event>
 5    0  0.3372079E-003  0.4717138E+03  0.7546771E-02  0.1021438E+00
         21   -1    0    0  501  502  0.00000000000E+00  0.00000000000E+00  0.74277560795E+03  0.74277560795E+03  0.00000000000E+00 0. -1.
         21   -1    0    0  502  503 -0.00000000000E+00 -0.00000000000E+00 -0.74892716019E+02  0.74892716019E+02  0.00000000000E+00 0. -1.
         25    1    1    2    0    0 -0.13904324883E+03 -0.14588082578E+03  0.47429037180E+03  0.53027407739E+03  0.12500000000E+03 0.  0.
          3    1    1    2  501    0  0.79082759526E+02  0.11278393870E+03  0.15995212217E+03  0.21108998334E+03  0.00000000000E+00 0. -1.
         -3    1    1    2    0  503  0.59960489301E+02  0.33096887083E+02  0.33640397966E+02  0.76304263230E+02  0.00000000000E+00 0.  1.
<mgrwt>
<rscale>  4 0.47171382E+03</rscale>
<asrwt>0</asrwt>
<pdfrwt beam="1">  1       21 0.11427317E+00 0.47171382E+03</pdfrwt>
<pdfrwt beam="2">  1       21 0.11521957E-01 0.47171382E+03</pdfrwt>
<totfact> 0.33957253E+04</totfact>
</mgrwt>
</event>
<event>
 5    0  0.3372079E-003  0.6230955E+03  0.7546771E-02  0.9858616E-01
         21   -1    0    0  501  502  0.00000000000E+00  0.00000000000E+00  0.18732525296E+04  0.18732525296E+04  0.00000000000E+00 0. -1.
         21   -1    0    0  502  503 -0.00000000000E+00 -0.00000000000E+00 -0.51814689634E+02  0.51814689634E+02  0.00000000000E+00 0. -1.
         25    1    1    2    0    0 -0.80286990289E+02 -0.21960409266E+03  0.10298595299E+04  0.10634413992E+04  0.12500000000E+03 0.  0.
          3    1    1    2  501    0  0.12405795084E+03  0.12994455188E+03  0.71109146983E+03  0.73343509610E+03  0.00000000000E+00 0.  1.
         -3    1    1    2    0  503 -0.43770960553E+02  0.89659540783E+02  0.80486840286E+02  0.12819072393E+03  0.00000000000E+00 0. -1.
<mgrwt>
<rscale>  4 0.62309549E+03</rscale>
<asrwt>0</asrwt>
<pdfrwt beam="1">  1       21 0.28819264E+00 0.62309549E+03</pdfrwt>
<pdfrwt beam="2">  1       21 0.79714922E-02 0.62309549E+03</pdfrwt>
<totfact> 0.37458948E+03</totfact>
</mgrwt>
</event>
<event>
 5    0  0.3372079E-003  0.9184314E+03  0.7546771E-02  0.9402830E-01
         21   -1    0    0  503  502  0.00000000000E+00  0.00000000000E+00  0.50594502656E+03  0.50594502656E+03  0.00000000000E+00 0. -1.
         21   -1    0    0  501  503 -0.00000000000E+00 -0.00000000000E+00 -0.41680230778E+03  0.41680230778E+03  0.00000000000E+00 0. -1.
         25    1    1    2    0    0 -0.29504093181E+03  0.18923901493E+03  0.30521767091E+03  0.48129344775E+03  0.12500000000E+03 0.  0.
          2    1    1    2  501    0 -0.47949873927E+01 -0.57091292432E+02 -0.31807949837E+02  0.65529789016E+02  0.00000000000E+00 0.  1.
         -2    1    1    2    0  502  0.29983591920E+03 -0.13214772250E+03 -0.18426700228E+03  0.37592409757E+03  0.00000000000E+00 0. -1.
<mgrwt>
<rscale>  4 0.91843139E+03</rscale>
<asrwt>0</asrwt>
<pdfrwt beam="1">  1       21 0.77837696E-01 0.91843139E+03</pdfrwt>
<pdfrwt beam="2">  1       21 0.64123432E-01 0.91843139E+03</pdfrwt>
<totfact> 0.25541758E+03</totfact>
</mgrwt>
</event>
<event>
 5    0  0.3372079E-003  0.4824484E+03  0.7546771E-02  0.1018464E+00
         21   -1    0    0  501  502  0.00000000000E+00  0.00000000000E+00  0.33701436013E+03  0.33701436013E+03  0.00000000000E+00 0.  1.
         21   -1    0    0  502  503 -0.00000000000E+00 -0.00000000000E+00 -0.17266067214E+03  0.17266067214E+03  0.00000000000E+00 0.  1.
         25    1    1    2    0    0 -0.12751002574E+03 -0.16330740272E+03  0.11979257492E+03  0.27000625077E+03  0.12500000000E+03 0.  0.
          2    1    1    2  501    0 -0.89961764425E+01  0.47957144715E+02  0.36201760764E+02  0.60756780710E+02  0.00000000000E+00 0. -1.
         -2    1    1    2    0  503  0.13650620218E+03  0.11535025801E+03  0.83593523068E+01  0.17891200079E+03  0.00000000000E+00 0.  1.
<mgrwt>
<rscale>  4 0.48244845E+03</rscale>
<asrwt>0</asrwt>
<pdfrwt beam="1">  1       21 0.51848363E-01 0.48244845E+03</pdfrwt>
<pdfrwt beam="2">  1       21 0.26563180E-01 0.48244845E+03</pdfrwt>
<totfact> 0.43441788E+04</totfact>
</mgrwt>
</event>
<event>
 5    0  0.3372079E-003  0.5087334E+03  0.7546771E-02  0.1011524E+00
         21   -1    0    0  503  502  0.00000000000E+00  0.00000000000E+00  0.85334738320E+03  0.85334738320E+03  0.00000000000E+00 0.  1.
         21   -1    0    0  501  503 -0.00000000000E+00 -0.00000000000E+00 -0.75821908845E+02  0.75821908845E+02  0.00000000000E+00 0.  1.
         25    1    1    2    0    0  0.19584508105E+03  0.82965621484E+02  0.37636610763E+03  0.45001670757E+03  0.12500000000E+03 0.  0.
          4    1    1    2  501    0 -0.93025324681E+02 -0.11405607691E+03  0.28614000598E+03  0.32177414864E+03  0.00000000000E+00 0.  1.
         -4    1    1    2    0  502 -0.10281975637E+03  0.31090455426E+02  0.11501936075E+03  0.15737843584E+03  0.00000000000E+00 0. -1.
<mgrwt>
<rscale>  4 0.50873344E+03</rscale>
<asrwt>0</asrwt>
<pdfrwt beam="1">  1       21 0.13128421E+00 0.50873344E+03</pdfrwt>
<pdfrwt beam="2">  1       21 0.11664910E-01 0.50873344E+03</pdfrwt>
<totfact> 0.23067710E+04</totfact>
</mgrwt>
</event>
<event>
 5    0  0.3372079E-003  0.6176803E+03  0.7546771E-02  0.9869389E-01
         21   -1    0    0  501  502  0.00000000000E+00  0.00000000000E+00  0.65096658685E+03  0.65096658685E+03  0.00000000000E+00 0.  1.
         21   -1    0    0  502  503 -0.00000000000E+00 -0.00000000000E+00 -0.14652399226E+03  0.14652399226E+03  0.00000000000E+00 0.  1.
         25    1    1    2    0    0 -0.22023698833E+03  0.34589790738E+02  0.32716534311E+03  0.41516616720E+03  0.12500000000E+03 0.  0.
          3    1    1    2  501    0  0.60866358088E+02 -0.13087656668E+03  0.11944362259E+03  0.18735038893E+03  0.00000000000E+00 0. -1.
         -3    1    1    2    0  503  0.15937063024E+03  0.96286775946E+02  0.57833628894E+02  0.19497402298E+03  0.00000000000E+00 0.  1.
<mgrwt>
<rscale>  4 0.61768025E+03</rscale>
<asrwt>0</asrwt>
<pdfrwt beam="1">  1       21 0.10014870E+00 0.61768025E+03</pdfrwt>
<pdfrwt beam="2">  1       21 0.22542153E-01 0.61768025E+03</pdfrwt>
<totfact> 0.12958901E+04</totfact>
</mgrwt>
</event>
<event>
 5    0  0.3372079E-003  0.7673492E+03  0.7546771E-02  0.9608519E-01
         21   -1    0    0  501  502  0.00000000000E+00  0.00000000000E+00  0.22090831041E+03  0.22090831041E+03  0.00000000000E+00 0.  1.
         21   -1    0    0  502  503 -0.00000000000E+00 -0.00000000000E+00 -0.66636782127E+03  0.66636782127E+03  0.00000000000E+00 0.  1.
         25    1    1    2    0    0  0.26016414733E+03  0.97530616496E+02 -0.48111728857E+03  0.56947032414E+03  0.12500000000E+03 0.  0.
          4    1    1    2  501    0 -0.21183860364E+03 -0.11520514033E+03  0.75550504271E+02  0.25269684812E+03  0.00000000000E+00 0.  1.
         -4    1    1    2    0  503 -0.48325543684E+02  0.17674523834E+02 -0.39892726560E+02  0.65108959426E+02  0.00000000000E+00 0. -1.
<mgrwt>
<rscale>  4 0.76734918E+03</rscale>
<asrwt>0</asrwt>
<pdfrwt beam="1">  1       21 0.33985895E-01 0.76734918E+03</pdfrwt>
<pdfrwt beam="2">  1       21 0.10251812E+00 0.76734918E+03</pdfrwt>
<totfact> 0.52548521E+03</totfact>
</mgrwt>
</event>
<event>
 5    0  0.3372079E-003  0.5302171E+03  0.7546771E-02  0.1006179E+00
         21   -1    0    0  501  502  0.00000000000E+00  0.00000000000E+00  0.94791514110E+03  0.94791514110E+03  0.00000000000E+00 0.  1.
         21   -1    0    0  502  503 -0.00000000000E+00 -0.00000000000E+00 -0.74144332787E+02  0.74144332787E+02  0.00000000000E+00 0.  1.
         25    1    1    2    0    0 -0.14607087156E+03 -0.18506829560E+03  0.38146301829E+03  0.46553840645E+03  0.12500000000E+03 0.  0.
          3    1    1    2  501    0  0.60185036181E+02  0.64215154761E+01  0.13409420095E+03  0.14712147760E+03  0.00000000000E+00 0. -1.
         -3    1    1    2    0  503  0.85885835383E+02  0.17864678012E+03  0.35821358907E+03  0.40939958984E+03  0.00000000000E+00 0.  1.
<mgrwt>
<rscale>  4 0.53021707E+03</rscale>
<asrwt>0</asrwt>
<pdfrwt beam="1">  1       21 0.14583309E+00 0.53021707E+03</pdfrwt>
<pdfrwt beam="2">  1       21 0.11406821E-01 0.53021707E+03</pdfrwt>
<totfact> 0.18074426E+04</totfact>
</mgrwt>
</event>
<event>
 5    0  0.3372079E-003  0.5043299E+03  0.7546771E-02  0.1012655E+00
         21   -1    0    0  503  502  0.00000000000E+00  0.00000000000E+00  0.14079233850E+03  0.14079233850E+03  0.00000000000E+00 0.  1.
         21   -1    0    0  501  503 -0.00000000000E+00 -0.00000000000E+00 -0.45163797151E+03  0.45163797151E+03  0.00000000000E+00 0.  1.
         25    1    1    2    0    0 -0.17496209018E+03  0.12436059504E+03 -0.53772242032E+02  0.25415299450E+03  0.12500000000E+03 0.  0.
          1    1    1    2  501    0  0.39661625909E+02 -0.51048442432E+02 -0.59623792362E+02  0.87943076249E+02  0.00000000000E+00 0. -1.
         -1    1    1    2    0  502  0.13530046427E+03 -0.73312152608E+02 -0.19744959861E+03  0.25033423926E+03  0.00000000000E+00 0.  1.
<mgrwt>
<rscale>  4 0.50432992E+03</rscale>
<asrwt>0</asrwt>
<pdfrwt beam="1">  1       21 0.21660360E-01 0.50432992E+03</pdfrwt>
<pdfrwt beam="2">  1       21 0.69482764E-01 0.50432992E+03</pdfrwt>
<totfact> 0.33779448E+04</totfact>
</mgrwt>
</event>
<event>
 5    0  0.3372079E-003  0.6034364E+03  0.7546771E-02  0.9898302E-01
         21   -1    0    0  501  502  0.00000000000E+00  0.00000000000E+00  0.15587150106E+04  0.15587150106E+04  0.00000000000E+00 0. -1.
         21   -1    0    0  502  503 -0.00000000000E+00 -0.00000000000E+00 -0.58403151400E+02  0.58403151400E+02  0.00000000000E+00 0. -1.
         25    1    1    2    0    0  0.13391506865E+03  0.22344648463E+03  0.50570707536E+03  0.58243130339E+03  0.12500000000E+03 0.  0.
          4    1    1    2  501    0 -0.33719671028E+02 -0.27623660274E+02  0.36843214834E+03  0.37100179346E+03  0.00000000000E+00 0.  1.
         -4    1    1    2    0  503 -0.10019539763E+03 -0.19582282436E+03  0.62617263553E+03  0.66368506517E+03  0.00000000000E+00 0. -1.
<mgrwt>
<rscale>  4 0.60343639E+03</rscale>
<asrwt>0</asrwt>
<pdfrwt beam="1">  1       21 0.23980228E+00 0.60343639E+03</pdfrwt>
<pdfrwt beam="2">  1       21 0.89851014E-02 0.60343639E+03</pdfrwt>
<totfact> 0.60513861E+03</totfact>
</mgrwt>
</event>
<event>
 5    0  0.3372079E-003  0.4909298E+03  0.7546771E-02  0.1016174E+00
         21   -1    0    0  503  502  0.00000000000E+00  0.00000000000E+00  0.26561472606E+03  0.26561472606E+03  0.00000000000E+00 0. -1.
         21   -1    0    0  501  503 -0.00000000000E+00 -0.00000000000E+00 -0.22684366610E+03  0.22684366610E+03  0.00000000000E+00 0. -1.
         25    1    1    2    0    0  0.32943349621E+02 -0.20629660812E+03 -0.21928867224E+02  0.24443696534E+03  0.12500000000E+03 0.  0.
          2    1    1    2  501    0 -0.26476563205E+02  0.15818357356E+03 -0.11746672863E+02  0.16081366754E+03  0.00000000000E+00 0. -1.
         -2    1    1    2    0  502 -0.64667864161E+01  0.48113034557E+02  0.72446600043E+02  0.87207759280E+02  0.00000000000E+00 0.  1.
<mgrwt>
<rscale>  4 0.49092980E+03</rscale>
<asrwt>0</asrwt>
<pdfrwt beam="1">  1       21 0.40863804E-01 0.49092980E+03</pdfrwt>
<pdfrwt beam="2">  1       21 0.34899026E-01 0.49092980E+03</pdfrwt>
<totfact> 0.41544550E+04</totfact>
</mgrwt>
</event>
<event>
 5    0  0.3372079E-003  0.6457054E+03  0.7546771E-02  0.9814871E-01
         21   -1    0    0  503  502  0.00000000000E+00  0.00000000000E+00  0.22711543603E+03  0.22711543603E+03  0.00000000000E+00 0.  1.
         21   -1    0    0  501  503 -0.00000000000E+00 -0.00000000000E+00 -0.45894662746E+03  0.45894662746E+03  0.00000000000E+00 0.  1.
         25    1    1    2    0    0 -0.18692678477E+03 -0.21347170264E+03 -0.21526583822E+03  0.37746015922E+03  0.12500000000E+03 0.  0.
          4    1    1    2  501    0  0.20014383196E+03  0.19218683862E+03 -0.31777968526E+02  0.27929048264E+03  0.00000000000E+00 0.  1.
         -4    1    1    2    0  502 -0.13217047183E+02  0.21284864023E+02  0.15212615316E+02  0.29311421621E+02  0.00000000000E+00 0. -1.
<mgrwt>
<rscale>  4 0.64570539E+03</rscale>
<asrwt>0</asrwt>
<pdfrwt beam="1">  1       21 0.34940837E-01 0.64570539E+03</pdfrwt>
<pdfrwt beam="2">  1       21 0.70607173E-01 0.64570539E+03</pdfrwt>
<totfact> 0.12294590E+04</totfact>
</mgrwt>
</event>
<event>
 5    0  0.3372079E-003  0.5003376E+03  0.7546771E-02  0.1013691E+00
         21   -1    0    0  501  502  0.00000000000E+00  0.00000000000E+00  0.13670683715E+03  0.13670683715E+03  0.00000000000E+00 0. -1.
         21   -1    0    0  502  503 -0.00000000000E+00 -0.00000000000E+00 -0.45780022241E+03  0.45780022241E+03  0.00000000000E+00 0. -1.
         25    1    1    2    0    0 -0.20576693614E+03  0.21926436175E+02 -0.66939701504E+02  0.25085199671E+03  0.12500000000E+03 0.  0.
          3    1    1    2  501    0  0.30228071642E+02  0.14970061501E+02 -0.14527537436E+01  0.33763138924E+02  0.00000000000E+00 0.  1.
         -3    1    1    2    0  503  0.17553886450E+03 -0.36896497675E+02 -0.25270093001E+03  0.30989192393E+03  0.00000000000E+00 0. -1.
<mgrwt>
<rscale>  4 0.50033757E+03</rscale>
<asrwt>0</asrwt>
<pdfrwt beam="1">  1       21 0.21031821E-01 0.50033757E+03</pdfrwt>
<pdfrwt beam="2">  1       21 0.70430804E-01 0.50033757E+03</pdfrwt>
<totfact> 0.34696181E+04</totfact>
</mgrwt>
</event>
<event>
 5    0  0.3372079E-003  0.6002255E+03  0.7546771E-02  0.9904938E-01
         21   -1    0    0  501  502  0.00000000000E+00  0.00000000000E+00  0.62813307491E+03  0.62813307491E+03  0.00000000000E+00 0. -1.
         21   -1    0    0  502  503 -0.00000000000E+00 -0.00000000000E+00 -0.14338948087E+03  0.14338948087E+03  0.00000000000E+00 0. -1.
         25    1    1    2    0    0  0.26019727042E+02  0.24923092395E+03  0.85555330999E+02  0.29281016771E+03  0.12500000000E+03 0.  0.
          4    1    1    2  501    0 -0.34118202649E+02 -0.33752846958E+02  0.60778256075E+02  0.77442254883E+02  0.00000000000E+00 0.  1.
         -4    1    1    2    0  503  0.80984756063E+01 -0.21547807700E+03  0.33841000697E+03  0.40127013319E+03  0.00000000000E+00 0. -1.
<mgrwt>
<rscale>  4 0.60022554E+03</rscale>
<asrwt>0</asrwt>
<pdfrwt beam="1">  1       21 0.96635856E-01 0.60022554E+03</pdfrwt>
<pdfrwt beam="2">  1       21 0.22059920E-01 0.60022554E+03</pdfrwt>
<totfact> 0.14793456E+04</totfact>
</mgrwt>
</event>
<event>
 5    0  0.3372079E-003  0.5212438E+03  0.7546771E-02  0.1008378E+00
         21   -1    0    0  503  502  0.00000000000E+00  0.00000000000E+00  0.24680579735E+03  0.24680579735E+03  0.00000000000E+00 0.  1.
         21   -1    0    0  501  503 -0.00000000000E+00 -0.00000000000E+00 -0.27521138841E+03  0.27521138841E+03  0.00000000000E+00 0.  1.
         25    1    1    2    0    0  0.19289993234E+03  0.12919768754E+03  0.18897094150E+02  0.26435681669E+03  0.12500000000E+03 0.  0.
          2    1    1    2  501    0 -0.36312488690E+02 -0.52028265587E+02 -0.53481658234E+02  0.82980871424E+02  0.00000000000E+00 0. -1.
         -2    1    1    2    0  502 -0.15658744365E+03 -0.77169421949E+02  0.61789730207E+01  0.17467949765E+03  0.00000000000E+00 0.  1.
<mgrwt>
<rscale>  4 0.52124377E+03</rscale>
<asrwt>0</asrwt>
<pdfrwt beam="1">  1       21 0.37970123E-01 0.52124377E+03</pdfrwt>
<pdfrwt beam="2">  1       21 0.42340214E-01 0.52124377E+03</pdfrwt>
<totfact> 0.32295295E+04</totfact>
</mgrwt>
</event>
<event>
 5    0  0.3372079E-003  0.7945269E+03  0.7546771E-02  0.9567973E-01
         21   -1    0    0  503  502  0.00000000000E+00  0.00000000000E+00  0.57807727092E+03  0.57807727092E+03  0.00000000000E+00 0. -1.
         21   -1    0    0  501  503 -0.00000000000E+00 -0.00000000000E+00 -0.27300543689E+03  0.27300543689E+03  0.00000000000E+00 0. -1.
         25    1    1    2    0    0 -0.15992816733E+02 -0.32394059505E+03 -0.52693268753E+02  0.35156060627E+03  0.12500000000E+03 0.  0.
          3    1    1    2  501    0  0.61828917378E+02  0.83926278506E+02  0.10505899714E+03  0.14799941935E+03  0.00000000000E+00 0. -1.
         -3    1    1    2    0  502 -0.45836100645E+02  0.24001431654E+03  0.25270610564E+03  0.35152268219E+03  0.00000000000E+00 0.  1.
<mgrwt>
<rscale>  4 0.79452687E+03</rscale>
<asrwt>0</asrwt>
<pdfrwt beam="1">  1       21 0.88934965E-01 0.79452687E+03</pdfrwt>
<pdfrwt beam="2">  1       21 0.42000837E-01 0.79452687E+03</pdfrwt>
<totfact> 0.47709619E+03</totfact>
</mgrwt>
</event>
<event>
 5    0  0.3372079E-003  0.4582885E+03  0.7546771E-02  0.1025279E+00
         21   -1    0    0  503  502  0.00000000000E+00  0.00000000000E+00  0.34379155650E+03  0.34379155650E+03  0.00000000000E+00 0. -1.
         21   -1    0    0  501  503 -0.00000000000E+00 -0.00000000000E+00 -0.15272943299E+03  0.15272943299E+03  0.00000000000E+00 0. -1.
         25    1    1    2    0    0 -0.64006423472E+02  0.19527473902E+03  0.12744518180E+03  0.27220639285E+03  0.12500000000E+03 0.  0.
          4    1    1    2  501    0  0.67950642295E+02 -0.14340604622E+03  0.27671082963E+02  0.16108467560E+03  0.00000000000E+00 0. -1.
         -4    1    1    2    0  502 -0.39442188228E+01 -0.51868692800E+02  0.35945858740E+02  0.63229921046E+02  0.00000000000E+00 0.  1.
<mgrwt>
<rscale>  4 0.45828851E+03</rscale>
<asrwt>0</asrwt>
<pdfrwt beam="1">  1       21 0.52891008E-01 0.45828851E+03</pdfrwt>
<pdfrwt beam="2">  1       21 0.23496836E-01 0.45828851E+03</pdfrwt>
<totfact> 0.53126741E+04</totfact>
</mgrwt>
</event>
<event>
 5    0  0.3372079E-003  0.5836542E+03  0.7546771E-02  0.9939911E-01
         21   -1    0    0  501  502  0.00000000000E+00  0.00000000000E+00  0.46488949132E+02  0.46488949132E+02  0.00000000000E+00 0. -1.
         21   -1    0    0  502  503 -0.00000000000E+00 -0.00000000000E+00 -0.18318988232E+04  0.18318988232E+04  0.00000000000E+00 0. -1.
         25    1    1    2    0    0 -0.13964118094E+03  0.21557337801E+03 -0.11668820479E+04  0.12013368613E+04  0.12500000000E+03 0.  0.
          2    1    1    2  501    0  0.11335728844E+03 -0.12120038953E+03 -0.28886675737E+03  0.33314173077E+03  0.00000000000E+00 0.  1.
         -2    1    1    2    0  503  0.26283892499E+02 -0.94372988478E+02 -0.32966106885E+03  0.34390918027E+03  0.00000000000E+00 0. -1.
<mgrwt>
<rscale>  4 0.58365418E+03</rscale>
<asrwt>0</asrwt>
<pdfrwt beam="1">  1       21 0.71521461E-02 0.58365418E+03</pdfrwt>
<pdfrwt beam="2">  1       21 0.28183058E+00 0.58365418E+03</pdfrwt>
<totfact> 0.50317808E+03</totfact>
</mgrwt>
</event>
<event>
 5    0  0.3372079E-003  0.4958299E+03  0.7546771E-02  0.1014873E+00
         21   -1    0    0  503  502  0.00000000000E+00  0.00000000000E+00  0.93048502343E+02  0.93048502343E+02  0.00000000000E+00 0. -1.
         21   -1    0    0  501  503 -0.00000000000E+00 -0.00000000000E+00 -0.66053533968E+03  0.66053533968E+03  0.00000000000E+00 0. -1.
         25    1    1    2    0    0 -0.18511314627E+03  0.94237807702E+02 -0.40388872502E+03  0.47106129486E+03  0.12500000000E+03 0.  0.
          1    1    1    2  501    0  0.28378153323E+02 -0.59882192802E+02 -0.26129005443E+02  0.71231464440E+02  0.00000000000E+00 0.  1.
         -1    1    1    2    0  502  0.15673499295E+03 -0.34355614900E+02 -0.13746910687E+03  0.21129108272E+03  0.00000000000E+00 0. -1.
<mgrwt>
<rscale>  4 0.49582991E+03</rscale>
<asrwt>0</asrwt>
<pdfrwt beam="1">  1       21 0.14315154E-01 0.49582991E+03</pdfrwt>
<pdfrwt beam="2">  1       21 0.10162082E+00 0.49582991E+03</pdfrwt>
<totfact> 0.30321498E+04</totfact>
</mgrwt>
</event>
<event>
 5    0  0.3372079E-003  0.8034832E+03  0.7546771E-02  0.9554989E-01
         21   -1    0    0  501  502  0.00000000000E+00  0.00000000000E+00  0.23897407998E+03  0.23897407998E+03  0.00000000000E+00 0. -1.
         21   -1    0    0  502  503 -0.00000000000E+00 -0.00000000000E+00 -0.67537158069E+03  0.67537158069E+03  0.00000000000E+00 0. -1.
         25    1    1    2    0    0 -0.30169206678E+03 -0.22976217049E+03 -0.16175617470E+03  0.43081181298E+03  0.12500000000E+03 0.  0.
          1    1    1    2  501    0  0.13896726201E+02  0.64668262964E+02 -0.48067261635E+02  0.81765303613E+02  0.00000000000E+00 0.  1.
         -1    1    1    2    0  503  0.28779534058E+03  0.16509390753E+03 -0.22657406438E+03  0.40176854408E+03  0.00000000000E+00 0. -1.
<mgrwt>
<rscale>  4 0.80348317E+03</rscale>
<asrwt>0</asrwt>
<pdfrwt beam="1">  1       21 0.36765244E-01 0.80348317E+03</pdfrwt>
<pdfrwt beam="2">  1       21 0.10390332E+00 0.80348317E+03</pdfrwt>
<totfact> 0.42972902E+03</totfact>
</mgrwt>
</event>
<event>
 5    0  0.3372079E-003  0.5579629E+03  0.7546771E-02  0.9996675E-01
         21   -1    0    0  501  502  0.00000000000E+00  0.00000000000E+00  0.31375748322E+03  0.31375748322E+03  0.00000000000E+00 0. -1.
         21   -1    0    0  502  503 -0.00000000000E+00 -0.00000000000E+00 -0.24805990934E+03  0.24805990934E+03  0.00000000000E+00 0. -1.
         25    1    1    2    0    0  0.14048876636E+03  0.18517781664E+03  0.15277941473E+03  0.30494994149E+03  0.12500000000E+03 0.  0.
          2    1    1    2  501    0 -0.14463062665E+02 -0.46732875107E+02  0.31927075382E+01  0.49023822565E+02  0.00000000000E+00 0.  1.
         -2    1    1    2    0  503 -0.12602570369E+03 -0.13844494153E+03 -0.90274548388E+02  0.20784362851E+03  0.00000000000E+00 0. -1.
<mgrwt>
<rscale>  4 0.55796291E+03</rscale>
<asrwt>0</asrwt>
<pdfrwt beam="1">  1       21 0.48270382E-01 0.55796291E+03</pdfrwt>
<pdfrwt beam="2">  1       21 0.38163063E-01 0.55796291E+03</pdfrwt>
<totfact> 0.24077090E+04</totfact>
</mgrwt>
</event>
<event>
 5    0  0.3372079E-003  0.5738658E+03  0.7546771E-02  0.9961161E-01
         21   -1    0    0  501  502  0.00000000000E+00  0.00000000000E+00  0.56209312391E+02  0.56209312391E+02  0.00000000000E+00 0. -1.
         21   -1    0    0  502  503 -0.00000000000E+00 -0.00000000000E+00 -0.14647124442E+04  0.14647124442E+04  0.00000000000E+00 0. -1.
         25    1    1    2    0    0  0.18888294819E+03  0.18400132262E+03 -0.61871719008E+03  0.68408275534E+03  0.12500000000E+03 0.  0.
          3    1    1    2  501    0 -0.15777383377E+02 -0.19208343445E+02 -0.23731224284E+02  0.34366514082E+02  0.00000000000E+00 0.  1.
         -3    1    1    2    0  503 -0.17310556482E+03 -0.16479297918E+03 -0.76605471748E+03  0.80247248721E+03  0.00000000000E+00 0. -1.
<mgrwt>
<rscale>  4 0.57386577E+03</rscale>
<asrwt>0</asrwt>
<pdfrwt beam="1">  1       21 0.86475878E-02 0.57386577E+03</pdfrwt>
<pdfrwt beam="2">  1       21 0.22534034E+00 0.57386577E+03</pdfrwt>
<totfact> 0.80776421E+03</totfact>
</mgrwt>
</event>
<event>
 5    0  0.3372079E-003  0.6161946E+03  0.7546771E-02  0.9872366E-01
         21   -1    0    0  503  502  0.00000000000E+00  0.00000000000E+00  0.13913471172E+03  0.13913471172E+03  0.00000000000E+00 0. -1.
         21   -1    0    0  501  503 -0.00000000000E+00 -0.00000000000E+00 -0.68224496395E+03  0.68224496395E+03  0.00000000000E+00 0. -1.
         25    1    1    2    0    0  0.35471965774E+02  0.27162743157E+03 -0.25217507940E+03  0.39275563981E+03  0.12500000000E+03 0.  0.
          4    1    1    2  501    0 -0.83328520753E+02 -0.24735306521E+03 -0.23742267360E+03  0.35284090916E+03  0.00000000000E+00 0. -1.
         -4    1    1    2    0  502  0.47856554979E+02 -0.24274366365E+02 -0.53512499241E+02  0.75783126696E+02  0.00000000000E+00 0.  1.
<mgrwt>
<rscale>  4 0.61619463E+03</rscale>
<asrwt>0</asrwt>
<pdfrwt beam="1">  1       21 0.21405340E-01 0.61619463E+03</pdfrwt>
<pdfrwt beam="2">  1       21 0.10496077E+00 0.61619463E+03</pdfrwt>
<totfact> 0.12758442E+04</totfact>
</mgrwt>
</event>
<event>
 5    0  0.3372079E-003  0.5855091E+03  0.7546771E-02  0.9935935E-01
         21   -1    0    0  503  502  0.00000000000E+00  0.00000000000E+00  0.22067590675E+03  0.22067590675E+03  0.00000000000E+00 0.  1.
         21   -1    0    0  501  503 -0.00000000000E+00 -0.00000000000E+00 -0.38837602260E+03  0.38837602260E+03  0.00000000000E+00 0.  1.
         25    1    1    2    0    0 -0.18072664166E+02  0.24124601018E+03 -0.20805330327E+03  0.34269145834E+03  0.12500000000E+03 0.  0.
          2    1    1    2  501    0 -0.27884842928E+02 -0.12358943013E+03 -0.16639977933E+02  0.12778419530E+03  0.00000000000E+00 0. -1.
         -2    1    1    2    0  502  0.45957507095E+02 -0.11765658006E+03  0.56993165355E+02  0.13857627570E+03  0.00000000000E+00 0.  1.
<mgrwt>
<rscale>  4 0.58550912E+03</rscale>
<asrwt>0</asrwt>
<pdfrwt beam="1">  1       21 0.33950140E-01 0.58550912E+03</pdfrwt>
<pdfrwt beam="2">  1       21 0.59750156E-01 0.58550912E+03</pdfrwt>
<totfact> 0.19164464E+04</totfact>
</mgrwt>
</event>
<event>
 5    0  0.3372079E-003  0.4824358E+03  0.7546771E-02  0.1018468E+00
         21   -1    0    0  501  502  0.00000000000E+00  0.00000000000E+00  0.48113214371E+02  0.48113214371E+02  0.00000000000E+00 0.  1.
         21   -1    0    0  502  503 -0.00000000000E+00 -0.00000000000E+00 -0.12093573122E+04  0.12093573122E+04  0.00000000000E+00 0.  1.
         25    1    1    2    0    0  0.20125639792E+03  0.94637504765E+02 -0.58775514506E+03  0.64073512901E+03  0.12500000000E+03 0.  0.
          4    1    1    2  501    0 -0.69377974072E+02 -0.46739284667E+02 -0.26378052979E+03  0.27672736025E+03  0.00000000000E+00 0. -1.
         -4    1    1    2    0  503 -0.13187842385E+03 -0.47898220098E+02 -0.30970842299E+03  0.34000803731E+03  0.00000000000E+00 0.  1.
<mgrwt>
<rscale>  4 0.48243577E+03</rscale>
<asrwt>0</asrwt>
<pdfrwt beam="1">  1       21 0.74020331E-02 0.48243577E+03</pdfrwt>
<pdfrwt beam="2">  1       21 0.18605497E+00 0.48243577E+03</pdfrwt>
<totfact> 0.19949291E+04</totfact>
</mgrwt>
</event>
<event>
 5    0  0.3372079E-003  0.6194067E+03  0.7546771E-02  0.9865942E-01
         21   -1    0    0  503  502  0.00000000000E+00  0.00000000000E+00  0.13904116259E+03  0.13904116259E+03  0.00000000000E+00 0.  1.
         21   -1    0    0  501  503 -0.00000000000E+00 -0.00000000000E+00 -0.68984006800E+03  0.68984006800E+03  0.00000000000E+00 0.  1.
         25    1    1    2    0    0 -0.14512170449E+03  0.24059537676E+03 -0.31824884111E+03  0.44255369087E+03  0.12500000000E+03 0.  0.
          4    1    1    2  501    0  0.63506206806E+02 -0.14619980230E+02 -0.73301191204E+02  0.98080817476E+02  0.00000000000E+00 0. -1.
         -4    1    1    2    0  502  0.81615497680E+02 -0.22597539653E+03 -0.15924887309E+03  0.28824672224E+03  0.00000000000E+00 0.  1.
<mgrwt>
<rscale>  4 0.61940670E+03</rscale>
<asrwt>0</asrwt>
<pdfrwt beam="1">  1       21 0.21390948E-01 0.61940670E+03</pdfrwt>
<pdfrwt beam="2">  1       21 0.10612924E+00 0.61940670E+03</pdfrwt>
<totfact> 0.12420137E+04</totfact>
</mgrwt>
</event>
<event>
 5    0  0.3372079E-003  0.4872615E+03  0.7546771E-02  0.1017158E+00
         21   -1    0    0  503  502  0.00000000000E+00  0.00000000000E+00  0.12858657480E+03  0.12858657480E+03  0.00000000000E+00 0.  1.
         21   -1    0    0  501  503 -0.00000000000E+00 -0.00000000000E+00 -0.46160290935E+03  0.46160290935E+03  0.00000000000E+00 0.  1.
         25    1    1    2    0    0 -0.17596736297E+03 -0.11452822206E+03 -0.11823270342E+03  0.27145017708E+03  0.12500000000E+03 0.  0.
          1    1    1    2  501    0 -0.13683159884E+01  0.23948712920E+02 -0.65827041893E+02  0.70061491445E+02  0.00000000000E+00 0. -1.
         -1    1    1    2    0  502  0.17733567896E+03  0.90579509139E+02 -0.14895658924E+03  0.24867781563E+03  0.00000000000E+00 0.  1.
<mgrwt>
<rscale>  4 0.48726148E+03</rscale>
<asrwt>0</asrwt>
<pdfrwt beam="1">  1       21 0.19782551E-01 0.48726148E+03</pdfrwt>
<pdfrwt beam="2">  1       21 0.71015830E-01 0.48726148E+03</pdfrwt>
<totfact> 0.38386997E+04</totfact>
</mgrwt>
</event>
<event>
 5    0  0.3372079E-003  0.5792406E+03  0.7546771E-02  0.9949436E-01
         21   -1    0    0  501  502  0.00000000000E+00  0.00000000000E+00  0.10025198585E+03  0.10025198585E+03  0.00000000000E+00 0. -1.
         21   -1    0    0  502  503 -0.00000000000E+00 -0.00000000000E+00 -0.83669096183E+03  0.83669096183E+03  0.00000000000E+00 0. -1.
         25    1    1    2    0    0  0.18265952298E+03  0.18073344915E+03 -0.52311859014E+03  0.59607645510E+03  0.12500000000E+03 0.  0.
          1    1    1    2  501    0 -0.71180477579E+02 -0.29413056862E+02 -0.75015988753E+02  0.10751365900E+03  0.00000000000E+00 0.  1.
         -1    1    1    2    0  503 -0.11147904540E+03 -0.15132039229E+03 -0.13830439709E+03  0.23335283358E+03  0.00000000000E+00 0. -1.
<mgrwt>
<rscale>  4 0.57924064E+03</rscale>
<asrwt>0</asrwt>
<pdfrwt beam="1">  1       21 0.15423382E-01 0.57924064E+03</pdfrwt>
<pdfrwt beam="2">  1       21 0.12872169E+00 0.57924064E+03</pdfrwt>
<totfact> 0.14266623E+04</totfact>
</mgrwt>
</event>
<event>
 5    0  0.3372079E-003  0.5800395E+03  0.7546771E-02  0.9947706E-01
         21   -1    0    0  503  502  0.00000000000E+00  0.00000000000E+00  0.43868787747E+03  0.43868787747E+03  0.00000000000E+00 0. -1.
         21   -1    0    0  501  503 -0.00000000000E+00 -0.00000000000E+00 -0.19173414862E+03  0.19173414862E+03  0.00000000000E+00 0. -1.
         25    1    1    2    0    0  0.22378925877E+03  0.10836085377E+03  0.23583251254E+03  0.36478168943E+03  0.12500000000E+03 0.  0.
          3    1    1    2  501    0 -0.17771227759E+03 -0.10433480723E+03 -0.24132372324E+02  0.20748440183E+03  0.00000000000E+00 0. -1.
         -3    1    1    2    0  502 -0.46076981177E+02 -0.40260465406E+01  0.35253588635E+02  0.58155934837E+02  0.00000000000E+00 0.  1.
<mgrwt>
<rscale>  4 0.58003947E+03</rscale>
<asrwt>0</asrwt>
<pdfrwt beam="1">  1       21 0.67490442E-01 0.58003947E+03</pdfrwt>
<pdfrwt beam="2">  1       21 0.29497561E-01 0.58003947E+03</pdfrwt>
<totfact> 0.19405831E+04</totfact>
</mgrwt>
</event>
<event>
 5    0  0.3372079E-003  0.6472315E+03  0.7546771E-02  0.9811988E-01
         21   -1    0    0  501  502  0.00000000000E+00  0.00000000000E+00  0.33120002498E+03  0.33120002498E+03  0.00000000000E+00 0. -1.
         21   -1    0    0  502  503 -0.00000000000E+00 -0.00000000000E+00 -0.31620515448E+03  0.31620515448E+03  0.00000000000E+00 0. -1.
         25    1    1    2    0    0 -0.24910100922E+03 -0.14480854424E+03  0.73174222199E+01  0.31416456189E+03  0.12500000000E+03 0.  0.
          3    1    1    2  501    0  0.18260776609E+03  0.10335765483E+02 -0.20470441700E+01  0.18291149410E+03  0.00000000000E+00 0. -1.
         -3    1    1    2    0  503  0.66493243138E+02  0.13447277876E+03  0.97244924503E+01  0.15032912347E+03  0.00000000000E+00 0.  1.
<mgrwt>
<rscale>  4 0.64723150E+03</rscale>
<asrwt>0</asrwt>
<pdfrwt beam="1">  1       21 0.50953850E-01 0.64723150E+03</pdfrwt>
<pdfrwt beam="2">  1       21 0.48646946E-01 0.64723150E+03</pdfrwt>
<totfact> 0.12674998E+04</totfact>
</mgrwt>
</event>
<event>
 5    0  0.3372079E-003  0.6476497E+03  0.7546771E-02  0.9811199E-01
         21   -1    0    0  503  502  0.00000000000E+00  0.00000000000E+00  0.64993117818E+03  0.64993117818E+03  0.00000000000E+00 0.  1.
         21   -1    0    0  501  503 -0.00000000000E+00 -0.00000000000E+00 -0.16134406120E+03  0.16134406120E+03  0.00000000000E+00 0.  1.
         25    1    1    2    0    0 -0.19324060471E+03  0.68968960263E+02  0.50440907410E+03  0.55870579272E+03  0.12500000000E+03 0.  0.
          2    1    1    2  501    0  0.22118339357E+02  0.41588190328E+02  0.67818263948E+01  0.47589827484E+02  0.00000000000E+00 0. -1.
         -2    1    1    2    0  502  0.17112226535E+03 -0.11055715059E+03 -0.22603783520E+02  0.20497961917E+03  0.00000000000E+00 0.  1.
<mgrwt>
<rscale>  4 0.64764971E+03</rscale>
<asrwt>0</asrwt>
<pdfrwt beam="1">  1       21 0.99989411E-01 0.64764971E+03</pdfrwt>
<pdfrwt beam="2">  1       21 0.24822164E-01 0.64764971E+03</pdfrwt>
<totfact> 0.10717560E+04</totfact>
</mgrwt>
</event>
<event>
 5    0  0.3372079E-003  0.5570098E+03  0.7546771E-02  0.9998843E-01
         21   -1    0    0  501  502  0.00000000000E+00  0.00000000000E+00  0.46589030632E+03  0.46589030632E+03  0.00000000000E+00 0.  1.
         21   -1    0    0  502  503 -0.00000000000E+00 -0.00000000000E+00 -0.16648762529E+03  0.16648762529E+03  0.00000000000E+00 0.  1.
         25    1    1    2    0    0 -0.20431886658E+03  0.38471691064E+02  0.77771123504E+02  0.25475403413E+03  0.12500000000E+03 0.  0.
          4    1    1    2  501    0  0.90466843296E+02  0.80228212454E+02  0.16312486879E+03  0.20305304388E+03  0.00000000000E+00 0.  1.
         -4    1    1    2    0  503  0.11385202329E+03 -0.11869990352E+03  0.58506688738E+02  0.17457085361E+03  0.00000000000E+00 0. -1.
<mgrwt>
<rscale>  4 0.55700977E+03</rscale>
<asrwt>0</asrwt>
<pdfrwt beam="1">  1       21 0.71675431E-01 0.55700977E+03</pdfrwt>
<pdfrwt beam="2">  1       21 0.25613481E-01 0.55700977E+03</pdfrwt>
<totfact> 0.22494084E+04</totfact>
</mgrwt>
</event>
<event>
 5    0  0.3372079E-003  0.5034371E+03  0.7546771E-02  0.1012886E+00
         21   -1    0    0  503  502  0.00000000000E+00  0.00000000000E+00  0.12262179166E+03  0.12262179166E+03  0.00000000000E+00 0.  1.
         21   -1    0    0  501  503 -0.00000000000E+00 -0.00000000000E+00 -0.51672898070E+03  0.51672898070E+03  0.00000000000E+00 0.  1.
         25    1    1    2    0    0 -0.23490618150E+03 -0.33642264833E+01 -0.20643603564E+03  0.33679826148E+03  0.12500000000E+03 0.  0.
          2    1    1    2  501    0  0.28888029937E+02  0.11362891046E+02 -0.21691356178E+02  0.37870153147E+02  0.00000000000E+00 0. -1.
         -2    1    1    2    0  502  0.20601815157E+03 -0.79986645631E+01 -0.16597979722E+03  0.26468235773E+03  0.00000000000E+00 0.  1.
<mgrwt>
<rscale>  4 0.50343712E+03</rscale>
<asrwt>0</asrwt>
<pdfrwt beam="1">  1       21 0.18864891E-01 0.50343712E+03</pdfrwt>
<pdfrwt beam="2">  1       21 0.79496767E-01 0.50343712E+03</pdfrwt>
<totfact> 0.32346660E+04</totfact>
</mgrwt>
</event>
<event>
 5    0  0.3372079E-003  0.7781278E+03  0.7546771E-02  0.9592227E-01
         21   -1    0    0  503  502  0.00000000000E+00  0.00000000000E+00  0.27599145889E+03  0.27599145889E+03  0.00000000000E+00 0.  1.
         21   -1    0    0  501  503 -0.00000000000E+00 -0.00000000000E+00 -0.54846153557E+03  0.54846153557E+03  0.00000000000E+00 0.  1.
         25    1    1    2    0    0 -0.28491392253E+03 -0.15503047830E+03  0.48121365031E+02  0.35092885066E+03  0.12500000000E+03 0.  0.
          1    1    1    2  501    0  0.24059220900E+03  0.13890818104E+03 -0.32332103370E+03  0.42628228279E+03  0.00000000000E+00 0.  1.
         -1    1    1    2    0  502  0.44321713529E+02  0.16122297266E+02  0.27295919837E+01  0.47241861009E+02  0.00000000000E+00 0. -1.
<mgrwt>
<rscale>  4 0.77812775E+03</rscale>
<asrwt>0</asrwt>
<pdfrwt beam="1">  1       21 0.42460224E-01 0.77812775E+03</pdfrwt>
<pdfrwt beam="2">  1       21 0.84378699E-01 0.77812775E+03</pdfrwt>
<totfact> 0.53009769E+03</totfact>
</mgrwt>
</event>
<event>
 5    0  0.3372079E-003  0.5307785E+03  0.7546771E-02  0.1006044E+00
         21   -1    0    0  503  502  0.00000000000E+00  0.00000000000E+00  0.15977990928E+03  0.15977990928E+03  0.00000000000E+00 0. -1.
         21   -1    0    0  501  503 -0.00000000000E+00 -0.00000000000E+00 -0.44080288319E+03  0.44080288319E+03  0.00000000000E+00 0. -1.
         25    1    1    2    0    0 -0.14174188294E+03  0.16853973256E+03 -0.26562117356E+03  0.36698230294E+03  0.12500000000E+03 0.  0.
          1    1    1    2  501    0  0.10145837484E+03 -0.16268992595E+03 -0.19328561920E+02  0.19270549327E+03  0.00000000000E+00 0. -1.
         -1    1    1    2    0  502  0.40283508099E+02 -0.58498066112E+01  0.39267615627E+01  0.40894996253E+02  0.00000000000E+00 0.  1.
<mgrwt>
<rscale>  4 0.53077846E+03</rscale>
<asrwt>0</asrwt>
<pdfrwt beam="1">  1       21 0.24581525E-01 0.53077846E+03</pdfrwt>
<pdfrwt beam="2">  1       21 0.67815827E-01 0.53077846E+03</pdfrwt>
<totfact> 0.27774695E+04</totfact>
</mgrwt>
</event>
<event>
 5    0  0.3372079E-003  0.6387737E+03  0.7546771E-02  0.9828076E-01
         21   -1    0    0  501  502  0.00000000000E+00  0.00000000000E+00  0.25892326780E+03  0.25892326780E+03  0.00000000000E+00 0.  1.
         21   -1    0    0  502  503 -0.00000000000E+00 -0.00000000000E+00 -0.39396987801E+03  0.39396987801E+03  0.00000000000E+00 0.  1.
         25    1    1    2    0    0  0.52004472973E+02  0.27042610359E+03 -0.18928264570E+03  0.35677396580E+03  0.12500000000E+03 0.  0.
          4    1    1    2  501    0 -0.18006163688E+02 -0.22395437171E+03  0.12539090772E+02  0.22502669028E+03  0.00000000000E+00 0.  1.
         -4    1    1    2    0  503 -0.33998309285E+02 -0.46471731874E+02  0.41696944710E+02  0.71092489728E+02  0.00000000000E+00 0. -1.
<mgrwt>
<rscale>  4 0.63877373E+03</rscale>
<asrwt>0</asrwt>
<pdfrwt beam="1">  1       21 0.39834349E-01 0.63877373E+03</pdfrwt>
<pdfrwt beam="2">  1       21 0.60610750E-01 0.63877373E+03</pdfrwt>
<totfact> 0.13242998E+04</totfact>
</mgrwt>
</event>
<event>
 5    0  0.3372079E-003  0.5657654E+03  0.7546771E-02  0.9979093E-01
         21   -1    0    0  503  502  0.00000000000E+00  0.00000000000E+00  0.32269993440E+03  0.32269993440E+03  0.00000000000E+00 0.  1.
         21   -1    0    0  501  503 -0.00000000000E+00 -0.00000000000E+00 -0.24797842984E+03  0.24797842984E+03  0.00000000000E+00 0.  1.
         25    1    1    2    0    0 -0.16267086809E+03 -0.19221109376E+03  0.72473300710E+02  0.29031757647E+03  0.12500000000E+03 0.  0.
          3    1    1    2  501    0  0.11440440330E+03  0.67472679963E+02  0.44531030685E+02  0.14008548365E+03  0.00000000000E+00 0.  1.
         -3    1    1    2    0  502  0.48266464788E+02  0.12473841380E+03 -0.42282826838E+02  0.14027530412E+03  0.00000000000E+00 0. -1.
<mgrwt>
<rscale>  4 0.56576540E+03</rscale>
<asrwt>0</asrwt>
<pdfrwt beam="1">  1       21 0.49646144E-01 0.56576540E+03</pdfrwt>
<pdfrwt beam="2">  1       21 0.38150528E-01 0.56576540E+03</pdfrwt>
<totfact> 0.22657575E+04</totfact>
</mgrwt>
</event>
<event>
 5    0  0.3372079E-003  0.6294712E+03  0.7546771E-02  0.9846081E-01
         21   -1    0    0  503  502  0.00000000000E+00  0.00000000000E+00  0.13546604117E+03  0.13546604117E+03  0.00000000000E+00 0.  1.
         21   -1    0    0  501  503 -0.00000000000E+00 -0.00000000000E+00 -0.73124239421E+03  0.73124239421E+03  0.00000000000E+00 0.  1.
         25    1    1    2    0    0  0.23005130704E+03  0.14956068140E+03 -0.26397922599E+03  0.40075183474E+03  0.12500000000E+03 0.  0.
          3    1    1    2  501    0 -0.61113843039E+02 -0.65746023343E+02 -0.23995603937E+03  0.25619590595E+03  0.00000000000E+00 0.  1.
         -3    1    1    2    0  502 -0.16893746400E+03 -0.83814658053E+02 -0.91841087687E+02  0.20976069469E+03  0.00000000000E+00 0. -1.
<mgrwt>
<rscale>  4 0.62947125E+03</rscale>
<asrwt>0</asrwt>
<pdfrwt beam="1">  1       21 0.20840929E-01 0.62947125E+03</pdfrwt>
<pdfrwt beam="2">  1       21 0.11249883E+00 0.62947125E+03</pdfrwt>
<totfact> 0.11264425E+04</totfact>
</mgrwt>
</event>
<event>
 5    0  0.3372079E-003  0.5431600E+03  0.7546771E-02  0.1003090E+00
         21   -1    0    0  501  502  0.00000000000E+00  0.00000000000E+00  0.56318131787E+02  0.56318131787E+02  0.00000000000E+00 0.  1.
         21   -1    0    0  502  503 -0.00000000000E+00 -0.00000000000E+00 -0.13096263330E+04  0.13096263330E+04  0.00000000000E+00 0.  1.
         25    1    1    2    0    0 -0.76443920375E+02  0.22763732862E+03 -0.44751168247E+03  0.52302402649E+03  0.12500000000E+03 0.  0.
          3    1    1    2  501    0  0.80513566915E+02 -0.16368227414E+03 -0.62649439365E+03  0.65251018889E+03  0.00000000000E+00 0.  1.
         -3    1    1    2    0  503 -0.40696465404E+01 -0.63955054475E+02 -0.17930212504E+03  0.19041024936E+03  0.00000000000E+00 0. -1.
<mgrwt>
<rscale>  4 0.54316004E+03</rscale>
<asrwt>0</asrwt>
<pdfrwt beam="1">  1       21 0.86643287E-02 0.54316004E+03</pdfrwt>
<pdfrwt beam="2">  1       21 0.20148096E+00 0.54316004E+03</pdfrwt>
<totfact> 0.11633704E+04</totfact>
</mgrwt>
</event>
<event>
 5    0  0.3372079E-003  0.5931223E+03  0.7546771E-02  0.9919779E-01
         21   -1    0    0  501  502  0.00000000000E+00  0.00000000000E+00  0.76244658662E+03  0.76244658662E+03  0.00000000000E+00 0.  1.
         21   -1    0    0  502  503 -0.00000000000E+00 -0.00000000000E+00 -0.11535040524E+03  0.11535040524E+03  0.00000000000E+00 0.  1.
         25    1    1    2    0    0 -0.14022910099E+03  0.15686572567E+03  0.47538672367E+03  0.53468550915E+03  0.12500000000E+03 0.  0.
          3    1    1    2  501    0  0.63202430937E+02  0.25646626909E+02 -0.16157369799E+02  0.70095344688E+02  0.00000000000E+00 0. -1.
         -3    1    1    2    0  503  0.77026670054E+02 -0.18251235258E+03  0.18786682751E+03  0.27301613803E+03  0.00000000000E+00 0.  1.
<mgrwt>
<rscale>  4 0.59312232E+03</rscale>
<asrwt>0</asrwt>
<pdfrwt beam="1">  1       21 0.11729947E+00 0.59312232E+03</pdfrwt>
<pdfrwt beam="2">  1       21 0.17746217E-01 0.59312232E+03</pdfrwt>
<totfact> 0.13883433E+04</totfact>
</mgrwt>
</event>
<event>
 5    0  0.3372079E-003  0.4584534E+03  0.7546771E-02  0.1025231E+00
         21   -1    0    0  501  502  0.00000000000E+00  0.00000000000E+00  0.86564047648E+03  0.86564047648E+03  0.00000000000E+00 0. -1.
         21   -1    0    0  502  503 -0.00000000000E+00 -0.00000000000E+00 -0.60700574823E+02  0.60700574823E+02  0.00000000000E+00 0. -1.
         25    1    1    2    0    0 -0.12283582035E+03  0.16424774582E+03  0.41484533948E+03  0.47936167604E+03  0.12500000000E+03 0.  0.
          2    1    1    2  501    0  0.59730118743E+02 -0.11282938842E+03  0.29723888013E+03  0.32349514654E+03  0.00000000000E+00 0.  1.
         -2    1    1    2    0  503  0.63105701611E+02 -0.51418357400E+02  0.92855682052E+02  0.12348422872E+03  0.00000000000E+00 0. -1.
<mgrwt>
<rscale>  4 0.45845338E+03</rscale>
<asrwt>0</asrwt>
<pdfrwt beam="1">  1       21 0.13317545E+00 0.45845338E+03</pdfrwt>
<pdfrwt beam="2">  1       21 0.93385506E-02 0.45845338E+03</pdfrwt>
<totfact> 0.33634931E+04</totfact>
</mgrwt>
</event>
<event>
 5    0  0.3372079E-003  0.7871313E+03  0.7546771E-02  0.9578833E-01
         21   -1    0    0  503  502  0.00000000000E+00  0.00000000000E+00  0.15963675597E+03  0.15963675597E+03  0.00000000000E+00 0.  1.
         21   -1    0    0  501  503 -0.00000000000E+00 -0.00000000000E+00 -0.97028985468E+03  0.97028985468E+03  0.00000000000E+00 0.  1.
         25    1    1    2    0    0 -0.31971665745E+03  0.81046773196E+02 -0.16719074301E+03  0.39033967905E+03  0.12500000000E+03 0.  0.
          4    1    1    2  501    0  0.75209646950E+02  0.16013343213E+02 -0.28349458580E+03  0.29373814586E+03  0.00000000000E+00 0. -1.
         -4    1    1    2    0  502  0.24450701050E+03 -0.97060116409E+02 -0.35996776990E+03  0.44584878574E+03  0.00000000000E+00 0.  1.
<mgrwt>
<rscale>  4 0.78713131E+03</rscale>
<asrwt>0</asrwt>
<pdfrwt beam="1">  1       21 0.24559500E-01 0.78713131E+03</pdfrwt>
<pdfrwt beam="2">  1       21 0.14927537E+00 0.78713131E+03</pdfrwt>
<totfact> 0.37644226E+03</totfact>
</mgrwt>
</event>
<event>
 5    0  0.3372079E-003  0.7507765E+03  0.7546771E-02  0.9634133E-01
         21   -1    0    0  503  502  0.00000000000E+00  0.00000000000E+00  0.69235221008E+02  0.69235221008E+02  0.00000000000E+00 0.  1.
         21   -1    0    0  501  503 -0.00000000000E+00 -0.00000000000E+00 -0.20353275356E+04  0.20353275356E+04  0.00000000000E+00 0.  1.
         25    1    1    2    0    0  0.24432917949E+03  0.78143625017E+02 -0.45064124361E+03  0.53339076157E+03  0.12500000000E+03 0.  0.
          3    1    1    2  501    0 -0.11167706919E+03  0.81037517862E+02 -0.10817473845E+04  0.10905119215E+04  0.00000000000E+00 0.  1.
         -3    1    1    2    0  502 -0.13265211030E+03 -0.15918114288E+03 -0.43370368647E+03  0.48066007352E+03  0.00000000000E+00 0. -1.
<mgrwt>
<rscale>  4 0.75077654E+03</rscale>
<asrwt>0</asrwt>
<pdfrwt beam="1">  1       21 0.10651573E-01 0.75077654E+03</pdfrwt>
<pdfrwt beam="2">  1       21 0.31312731E+00 0.75077654E+03</pdfrwt>
<totfact> 0.15009810E+03</totfact>
</mgrwt>
</event>
<event>
 5    0  0.3372079E-003  0.6183846E+03  0.7546771E-02  0.9867981E-01
         21   -1    0    0  501  502  0.00000000000E+00  0.00000000000E+00  0.11948449429E+04  0.11948449429E+04  0.00000000000E+00 0.  1.
         21   -1    0    0  502  503 -0.00000000000E+00 -0.00000000000E+00 -0.80010287149E+02  0.80010287149E+02  0.00000000000E+00 0.  1.
         25    1    1    2    0    0 -0.67567228929E+02 -0.28506271509E+03  0.63497216209E+03  0.71038069272E+03  0.12500000000E+03 0.  0.
          3    1    1    2  501    0  0.22882720299E+02  0.27283072909E+02  0.60007191914E+02  0.69777131189E+02  0.00000000000E+00 0. -1.
         -3    1    1    2    0  503  0.44684508631E+02  0.25777964218E+03  0.41985530172E+03  0.49469740611E+03  0.00000000000E+00 0.  1.
<mgrwt>
<rscale>  4 0.61838463E+03</rscale>
<asrwt>0</asrwt>
<pdfrwt beam="1">  1       21 0.18382229E+00 0.61838463E+03</pdfrwt>
<pdfrwt beam="2">  1       21 0.12309276E-01 0.61838463E+03</pdfrwt>
<totfact> 0.79771127E+03</totfact>
</mgrwt>
</event>
<event>
 5    0  0.3372079E-003  0.6070619E+03  0.7546771E-02  0.9890862E-01
         21   -1    0    0  501  502  0.00000000000E+00  0.00000000000E+00  0.18347777644E+03  0.18347777644E+03  0.00000000000E+00 0.  1.
         21   -1    0    0  502  503 -0.00000000000E+00 -0.00000000000E+00 -0.50213726169E+03  0.50213726169E+03  0.00000000000E+00 0.  1.
         25    1    1    2    0    0  0.12716408010E+02  0.28384354351E+03 -0.20644530989E+03  0.37279153719E+03  0.12500000000E+03 0.  0.
          2    1    1    2  501    0 -0.68839461160E+01 -0.61009309305E+02 -0.55612896321E+02  0.82839113788E+02  0.00000000000E+00 0. -1.
         -2    1    1    2    0  503 -0.58324618942E+01 -0.22283423420E+03 -0.56601279037E+02  0.22998438715E+03  0.00000000000E+00 0.  1.
<mgrwt>
<rscale>  4 0.60706187E+03</rscale>
<asrwt>0</asrwt>
<pdfrwt beam="1">  1       21 0.28227350E-01 0.60706187E+03</pdfrwt>
<pdfrwt beam="2">  1       21 0.77251887E-01 0.60706187E+03</pdfrwt>
<totfact> 0.15483384E+04</totfact>
</mgrwt>
</event>
<event>
 5    0  0.3372079E-003  0.5287890E+03  0.7546771E-02  0.1006526E+00
         21   -1    0    0  501  502  0.00000000000E+00  0.00000000000E+00  0.21827695941E+03  0.21827695941E+03  0.00000000000E+00 0.  1.
         21   -1    0    0  502  503 -0.00000000000E+00 -0.00000000000E+00 -0.32025576383E+03  0.32025576383E+03  0.00000000000E+00 0.  1.
         25    1    1    2    0    0 -0.19734201192E+03  0.14744130186E+03 -0.37580834600E+02  0.27878329630E+03  0.12500000000E+03 0.  0.
          2    1    1    2  501    0  0.91960060453E+02 -0.41391472836E+02 -0.13126663656E+02  0.10169668648E+03  0.00000000000E+00 0. -1.
         -2    1    1    2    0  503  0.10538195147E+03 -0.10604982902E+03 -0.51271306173E+02  0.15805274046E+03  0.00000000000E+00 0.  1.
<mgrwt>
<rscale>  4 0.52878901E+03</rscale>
<asrwt>0</asrwt>
<pdfrwt beam="1">  1       21 0.33581071E-01 0.52878901E+03</pdfrwt>
<pdfrwt beam="2">  1       21 0.49270117E-01 0.52878901E+03</pdfrwt>
<totfact> 0.30088231E+04</totfact>
</mgrwt>
</event>
<event>
 5    0  0.3372079E-003  0.1118462E+04  0.7546771E-02  0.9187382E-01
         21   -1    0    0  501  502  0.00000000000E+00  0.00000000000E+00  0.31488187811E+03  0.31488187811E+03  0.00000000000E+00 0. -1.
         21   -1    0    0  502  503 -0.00000000000E+00 -0.00000000000E+00 -0.99319592001E+03  0.99319592001E+03  0.00000000000E+00 0. -1.
         25    1    1    2    0    0  0.47217495474E+03  0.15960208090E+03 -0.23071956435E+03  0.56327482589E+03  0.12500000000E+03 0.  0.
          4    1    1    2  501    0 -0.35793518462E+03  0.42079489131E+02 -0.30905908227E+03  0.47476920301E+03  0.00000000000E+00 0.  1.
         -4    1    1    2    0  503 -0.11423977012E+03 -0.20168157003E+03 -0.13853539529E+03  0.27003376921E+03  0.00000000000E+00 0. -1.
<mgrwt>
<rscale>  4 0.11184622E+04</rscale>
<asrwt>0</asrwt>
<pdfrwt beam="1">  1       21 0.48443366E-01 0.11184622E+04</pdfrwt>
<pdfrwt beam="2">  1       21 0.15279937E+00 0.11184622E+04</pdfrwt>
<totfact> 0.82351290E+02</totfact>
</mgrwt>
</event>
<event>
 5    0  0.3372079E-003  0.5638229E+03  0.7546771E-02  0.9983442E-01
         21   -1    0    0  501  502  0.00000000000E+00  0.00000000000E+00  0.87629452636E+03  0.87629452636E+03  0.00000000000E+00 0.  1.
         21   -1    0    0  502  503 -0.00000000000E+00 -0.00000000000E+00 -0.90693315260E+02  0.90693315260E+02  0.00000000000E+00 0.  1.
         25    1    1    2    0    0  0.11605029491E+03  0.16793110006E+03  0.66126172575E+03  0.70325002329E+03  0.12500000000E+03 0.  0.
          1    1    1    2  501    0 -0.50334261167E+02 -0.15805522675E+03  0.94328091859E+02  0.19082133388E+03  0.00000000000E+00 0.  1.
         -1    1    1    2    0  503 -0.65716033742E+02 -0.98758733082E+01  0.30011393491E+02  0.72916484444E+02  0.00000000000E+00 0. -1.
<mgrwt>
<rscale>  4 0.56382286E+03</rscale>
<asrwt>0</asrwt>
<pdfrwt beam="1">  1       21 0.13481454E+00 0.56382286E+03</pdfrwt>
<pdfrwt beam="2">  1       21 0.13952818E-01 0.56382286E+03</pdfrwt>
<totfact> 0.15282416E+04</totfact>
</mgrwt>
</event>
<event>
 5    0  0.3372079E-003  0.4860790E+03  0.7546771E-02  0.1017478E+00
         21   -1    0    0  501  502  0.00000000000E+00  0.00000000000E+00  0.66485692934E+03  0.66485692934E+03  0.00000000000E+00 0. -1.
         21   -1    0    0  502  503 -0.00000000000E+00 -0.00000000000E+00 -0.88843467189E+02  0.88843467189E+02  0.00000000000E+00 0. -1.
         25    1    1    2    0    0  0.14231909420E+03  0.16031336733E+03  0.31370768299E+03  0.39999076325E+03  0.12500000000E+03 0.  0.
          3    1    1    2  501    0 -0.37437952003E+02 -0.97838991533E+02  0.17377760003E+03  0.20291062758E+03  0.00000000000E+00 0.  1.
         -3    1    1    2    0  503 -0.10488114219E+03 -0.62474375799E+02  0.88528179138E+02  0.15079900570E+03  0.00000000000E+00 0. -1.
<mgrwt>
<rscale>  4 0.48607898E+03</rscale>
<asrwt>0</asrwt>
<pdfrwt beam="1">  1       21 0.10228568E+00 0.48607898E+03</pdfrwt>
<pdfrwt beam="2">  1       21 0.13668226E-01 0.48607898E+03</pdfrwt>
<totfact> 0.32575612E+04</totfact>
</mgrwt>
</event>
<event>
 5    0  0.3372079E-003  0.6415393E+03  0.7546771E-02  0.9822786E-01
         21   -1    0    0  501  502  0.00000000000E+00  0.00000000000E+00  0.13645908626E+04  0.13645908626E+04  0.00000000000E+00 0. -1.
         21   -1    0    0  502  503 -0.00000000000E+00 -0.00000000000E+00 -0.75402212887E+02  0.75402212887E+02  0.00000000000E+00 0. -1.
         25    1    1    2    0    0  0.34344787730E+02  0.20399798177E+03  0.25324542618E+03  0.35007568737E+03  0.12500000000E+03 0.  0.
          2    1    1    2  501    0  0.39811601574E+02 -0.10107770074E+03  0.88976334372E+03  0.89637072299E+03  0.00000000000E+00 0. -1.
         -2    1    1    2    0  503 -0.74156389304E+02 -0.10292028102E+03  0.14617987983E+03  0.19354666514E+03  0.00000000000E+00 0.  1.
<mgrwt>
<rscale>  4 0.64153931E+03</rscale>
<asrwt>0</asrwt>
<pdfrwt beam="1">  1       21 0.20993704E+00 0.64153931E+03</pdfrwt>
<pdfrwt beam="2">  1       21 0.11600341E-01 0.64153931E+03</pdfrwt>
<totfact> 0.58678128E+03</totfact>
</mgrwt>
</event>
<event>
 5    0  0.3372079E-003  0.4879284E+03  0.7546771E-02  0.1016979E+00
         21   -1    0    0  501  502  0.00000000000E+00  0.00000000000E+00  0.14715527634E+03  0.14715527634E+03  0.00000000000E+00 0. -1.
         21   -1    0    0  502  503 -0.00000000000E+00 -0.00000000000E+00 -0.40446076640E+03  0.40446076640E+03  0.00000000000E+00 0. -1.
         25    1    1    2    0    0  0.19949097155E+03 -0.61476177877E+02 -0.89708592800E+02  0.25932334989E+03  0.12500000000E+03 0.  0.
          3    1    1    2  501    0 -0.19963063578E+02 -0.18138113606E+02  0.87412830599E+01  0.28353573004E+02  0.00000000000E+00 0.  1.
         -3    1    1    2    0  503 -0.17952790797E+03  0.79614291483E+02 -0.17633818031E+03  0.26393911985E+03  0.00000000000E+00 0. -1.
<mgrwt>
<rscale>  4 0.48792842E+03</rscale>
<asrwt>0</asrwt>
<pdfrwt beam="1">  1       21 0.22639274E-01 0.48792842E+03</pdfrwt>
<pdfrwt beam="2">  1       21 0.62224732E-01 0.48792842E+03</pdfrwt>
<totfact> 0.39821270E+04</totfact>
</mgrwt>
</event>
<event>
 5    0  0.3372079E-003  0.5232270E+03  0.7546771E-02  0.1007888E+00
         21   -1    0    0  503  502  0.00000000000E+00  0.00000000000E+00  0.46307845327E+03  0.46307845327E+03  0.00000000000E+00 0. -1.
         21   -1    0    0  501  503 -0.00000000000E+00 -0.00000000000E+00 -0.14779701283E+03  0.14779701283E+03  0.00000000000E+00 0. -1.
         25    1    1    2    0    0  0.91175978737E+02 -0.21415821543E+03  0.19752210344E+03  0.32987388755E+03  0.12500000000E+03 0.  0.
          2    1    1    2  501    0  0.38254303922E+01  0.12347819502E+03  0.63504584755E+02  0.13890403467E+03  0.00000000000E+00 0. -1.
         -2    1    1    2    0  502 -0.95001409129E+02  0.90680020414E+02  0.54254752239E+02  0.14209754389E+03  0.00000000000E+00 0.  1.
<mgrwt>
<rscale>  4 0.52322696E+03</rscale>
<asrwt>0</asrwt>
<pdfrwt beam="1">  1       21 0.71242838E-01 0.52322696E+03</pdfrwt>
<pdfrwt beam="2">  1       21 0.22738002E-01 0.52322696E+03</pdfrwt>
<totfact> 0.28954741E+04</totfact>
</mgrwt>
</event>
<event>
 5    0  0.3372079E-003  0.4628063E+03  0.7546771E-02  0.1023970E+00
         21   -1    0    0  501  502  0.00000000000E+00  0.00000000000E+00  0.21697947206E+03  0.21697947206E+03  0.00000000000E+00 0.  1.
         21   -1    0    0  502  503 -0.00000000000E+00 -0.00000000000E+00 -0.24678565372E+03  0.24678565372E+03  0.00000000000E+00 0.  1.
         25    1    1    2    0    0  0.18110492068E+03 -0.92517496637E+02  0.10745891923E+02  0.23895387352E+03  0.12500000000E+03 0.  0.
          2    1    1    2  501    0 -0.32268461340E+02  0.60372004470E+02 -0.18863783111E+02  0.71006160537E+02  0.00000000000E+00 0. -1.
         -2    1    1    2    0  503 -0.14883645934E+03  0.32145492167E+02 -0.21688290470E+02  0.15380509172E+03  0.00000000000E+00 0.  1.
<mgrwt>
<rscale>  4 0.46280631E+03</rscale>
<asrwt>0</asrwt>
<pdfrwt beam="1">  1       21 0.33381457E-01 0.46280631E+03</pdfrwt>
<pdfrwt beam="2">  1       21 0.37967023E-01 0.46280631E+03</pdfrwt>
<totfact> 0.53181964E+04</totfact>
</mgrwt>
</event>
<event>
 5    0  0.3372079E-003  0.4489457E+03  0.7546771E-02  0.1028037E+00
         21   -1    0    0  503  502  0.00000000000E+00  0.00000000000E+00  0.15991992746E+03  0.15991992746E+03  0.00000000000E+00 0. -1.
         21   -1    0    0  501  503 -0.00000000000E+00 -0.00000000000E+00 -0.31508304184E+03  0.31508304184E+03  0.00000000000E+00 0. -1.
         25    1    1    2    0    0  0.20103764554E+03  0.12736135918E+01 -0.48929732235E+02  0.24173720383E+03  0.12500000000E+03 0.  0.
          2    1    1    2  501    0 -0.16705194747E+03  0.12309250038E+02 -0.10273315792E+03  0.19649929396E+03  0.00000000000E+00 0. -1.
         -2    1    1    2    0  502 -0.33985698068E+02 -0.13582863629E+02 -0.35002242293E+01  0.36766471509E+02  0.00000000000E+00 0.  1.
<mgrwt>
<rscale>  4 0.44894569E+03</rscale>
<asrwt>0</asrwt>
<pdfrwt beam="1">  1       21 0.24603066E-01 0.44894569E+03</pdfrwt>
<pdfrwt beam="2">  1       21 0.48474314E-01 0.44894569E+03</pdfrwt>
<totfact> 0.58636216E+04</totfact>
</mgrwt>
</event>
<event>
 5    0  0.3372079E-003  0.5893837E+03  0.7546771E-02  0.9927680E-01
         21   -1    0    0  501  502  0.00000000000E+00  0.00000000000E+00  0.57172985550E+02  0.57172985550E+02  0.00000000000E+00 0. -1.
         21   -1    0    0  502  503 -0.00000000000E+00 -0.00000000000E+00 -0.15189568191E+04  0.15189568191E+04  0.00000000000E+00 0. -1.
         25    1    1    2    0    0 -0.77396925550E+02 -0.23496236333E+03 -0.92499360641E+03  0.96562713724E+03  0.12500000000E+03 0.  0.
          3    1    1    2  501    0  0.41003460789E+02  0.22987300363E+03 -0.35413006317E+03  0.42418272388E+03  0.00000000000E+00 0. -1.
         -3    1    1    2    0  503  0.36393464762E+02  0.50893597004E+01 -0.18266016397E+03  0.18631994354E+03  0.00000000000E+00 0.  1.
<mgrwt>
<rscale>  4 0.58938373E+03</rscale>
<asrwt>0</asrwt>
<pdfrwt beam="1">  1       21 0.87958440E-02 0.58938373E+03</pdfrwt>
<pdfrwt beam="2">  1       21 0.23368566E+00 0.58938373E+03</pdfrwt>
<totfact> 0.69004646E+03</totfact>
</mgrwt>
</event>
<event>
 5    0  0.3372079E-003  0.6279647E+03  0.7546771E-02  0.9849029E-01
         21   -1    0    0  501  502  0.00000000000E+00  0.00000000000E+00  0.12099391061E+04  0.12099391061E+04  0.00000000000E+00 0.  1.
         21   -1    0    0  502  503 -0.00000000000E+00 -0.00000000000E+00 -0.81479240934E+02  0.81479240934E+02  0.00000000000E+00 0.  1.
         25    1    1    2    0    0  0.14363342171E+03 -0.23770494621E+03  0.39347255120E+03  0.49757396419E+03  0.12500000000E+03 0.  0.
          3    1    1    2  501    0 -0.12691478131E+03  0.11944530528E+03  0.51254502034E+03  0.54136581028E+03  0.00000000000E+00 0.  1.
         -3    1    1    2    0  503 -0.16718640406E+02  0.11825964094E+03  0.22244229363E+03  0.25247857257E+03  0.00000000000E+00 0. -1.
<mgrwt>
<rscale>  4 0.62796471E+03</rscale>
<asrwt>0</asrwt>
<pdfrwt beam="1">  1       21 0.18614446E+00 0.62796471E+03</pdfrwt>
<pdfrwt beam="2">  1       21 0.12535269E-01 0.62796471E+03</pdfrwt>
<totfact> 0.74125709E+03</totfact>
</mgrwt>
</event>
<event>
 5    0  0.3372079E-003  0.7988801E+03  0.7546771E-02  0.9561640E-01
         21   -1    0    0  503  502  0.00000000000E+00  0.00000000000E+00  0.22485492571E+03  0.22485492571E+03  0.00000000000E+00 0.  1.
         21   -1    0    0  501  503 -0.00000000000E+00 -0.00000000000E+00 -0.70957909850E+03  0.70957909850E+03  0.00000000000E+00 0.  1.
         25    1    1    2    0    0  0.23758448688E+03  0.20893351123E+03 -0.10038329646E+03  0.35468494009E+03  0.12500000000E+03 0.  0.
          4    1    1    2  501    0 -0.15385671859E+03 -0.15501154278E+02 -0.32636420360E+03  0.36114508031E+03  0.00000000000E+00 0. -1.
         -4    1    1    2    0  502 -0.83727768285E+02 -0.19343235695E+03 -0.57976672728E+02  0.21860400380E+03  0.00000000000E+00 0.  1.
<mgrwt>
<rscale>  4 0.79888010E+03</rscale>
<asrwt>0</asrwt>
<pdfrwt beam="1">  1       21 0.34593066E-01 0.79888010E+03</pdfrwt>
<pdfrwt beam="2">  1       21 0.10916602E+00 0.79888010E+03</pdfrwt>
<totfact> 0.43061509E+03</totfact>
</mgrwt>
</event>
<event>
 5    0  0.3372079E-003  0.5191944E+03  0.7546771E-02  0.1008887E+00
         21   -1    0    0  501  502  0.00000000000E+00  0.00000000000E+00  0.26608958504E+03  0.26608958504E+03  0.00000000000E+00 0. -1.
         21   -1    0    0  502  503 -0.00000000000E+00 -0.00000000000E+00 -0.25326322514E+03  0.25326322514E+03  0.00000000000E+00 0. -1.
         25    1    1    2    0    0  0.90120659858E+02 -0.20147184122E+03 -0.67065472329E+02  0.26236503905E+03  0.12500000000E+03 0.  0.
          4    1    1    2  501    0  0.23846438731E+02  0.40895540281E+02  0.14867948298E+02  0.49620094132E+02  0.00000000000E+00 0.  1.
         -4    1    1    2    0  503 -0.11396709859E+03  0.16057630093E+03  0.65023883936E+02  0.20736767700E+03  0.00000000000E+00 0. -1.
<mgrwt>
<rscale>  4 0.51919440E+03</rscale>
<asrwt>0</asrwt>
<pdfrwt beam="1">  1       21 0.40936860E-01 0.51919440E+03</pdfrwt>
<pdfrwt beam="2">  1       21 0.38963573E-01 0.51919440E+03</pdfrwt>
<totfact> 0.32862707E+04</totfact>
</mgrwt>
</event>
<event>
 5    0  0.3372079E-003  0.5448940E+03  0.7546771E-02  0.1002683E+00
         21   -1    0    0  501  502  0.00000000000E+00  0.00000000000E+00  0.77034014443E+02  0.77034014443E+02  0.00000000000E+00 0. -1.
         21   -1    0    0  502  503 -0.00000000000E+00 -0.00000000000E+00 -0.96356604678E+03  0.96356604678E+03  0.00000000000E+00 0. -1.
         25    1    1    2    0    0 -0.24332328003E+03  0.54809254014E+02 -0.55909515422E+03  0.62483811055E+03  0.12500000000E+03 0.  0.
          1    1    1    2  501    0  0.46370707504E+02 -0.61949524557E+01 -0.29463673067E+02  0.55287683809E+02  0.00000000000E+00 0.  1.
         -1    1    1    2    0  503  0.19695257253E+03 -0.48614301559E+02 -0.29797320506E+03  0.36047426686E+03  0.00000000000E+00 0. -1.
<mgrwt>
<rscale>  4 0.54489397E+03</rscale>
<asrwt>0</asrwt>
<pdfrwt beam="1">  1       21 0.11851386E-01 0.54489397E+03</pdfrwt>
<pdfrwt beam="2">  1       21 0.14824094E+00 0.54489397E+03</pdfrwt>
<totfact> 0.16065436E+04</totfact>
</mgrwt>
</event>
<event>
 5    0  0.3372079E-003  0.6252057E+03  0.7546771E-02  0.9854450E-01
         21   -1    0    0  501  502  0.00000000000E+00  0.00000000000E+00  0.84955578145E+02  0.84955578145E+02  0.00000000000E+00 0.  1.
         21   -1    0    0  502  503 -0.00000000000E+00 -0.00000000000E+00 -0.11502544042E+04  0.11502544042E+04  0.00000000000E+00 0.  1.
         25    1    1    2    0    0  0.15027171682E+03 -0.21308950493E+03 -0.29081265582E+03  0.41010453152E+03  0.12500000000E+03 0.  0.
          4    1    1    2  501    0 -0.10031797799E+02  0.37201142715E+02 -0.27002951976E+03  0.27276455695E+03  0.00000000000E+00 0.  1.
         -4    1    1    2    0  503 -0.14023991902E+03  0.17588836221E+03 -0.50445665051E+03  0.55234089392E+03  0.00000000000E+00 0. -1.
<mgrwt>
<rscale>  4 0.62520566E+03</rscale>
<asrwt>0</asrwt>
<pdfrwt beam="1">  1       21 0.13070090E-01 0.62520566E+03</pdfrwt>
<pdfrwt beam="2">  1       21 0.17696221E+00 0.62520566E+03</pdfrwt>
<totfact> 0.79810526E+03</totfact>
</mgrwt>
</event>
<event>
 5    0  0.3718915E-003  0.5180632E+03  0.7546771E-02  0.1009169E+00
         21   -1    0    0  501  502  0.00000000000E+00  0.00000000000E+00  0.25790612076E+03  0.25790612076E+03  0.00000000000E+00 0. -1.
         21   -1    0    0  502  503 -0.00000000000E+00 -0.00000000000E+00 -0.26016202803E+03  0.26016202803E+03  0.00000000000E+00 0. -1.
         25    1    1    2    0    0 -0.75606512307E+00 -0.21421866604E+03  0.34891640861E+02  0.25046483808E+03  0.12500000000E+03 0.  0.
          4    1    1    2  501    0  0.23600423203E+02  0.18107322861E+02 -0.61845249580E+02  0.68627181293E+02  0.00000000000E+00 0.  1.
         -4    1    1    2    0  503 -0.22844358080E+02  0.19611134317E+03  0.24697701449E+02  0.19897612941E+03  0.00000000000E+00 0. -1.
<mgrwt>
<rscale>  4 0.51806324E+03</rscale>
<asrwt>0</asrwt>
<pdfrwt beam="1">  1       21 0.39677865E-01 0.51806324E+03</pdfrwt>
<pdfrwt beam="2">  1       21 0.40024927E-01 0.51806324E+03</pdfrwt>
<totfact> 0.33174205E+04</totfact>
</mgrwt>
</event>
<event>
 5    0  0.3372079E-003  0.5383015E+03  0.7546771E-02  0.1004239E+00
         21   -1    0    0  501  502  0.00000000000E+00  0.00000000000E+00  0.37565711143E+03  0.37565711143E+03  0.00000000000E+00 0. -1.
         21   -1    0    0  502  503 -0.00000000000E+00 -0.00000000000E+00 -0.19284108299E+03  0.19284108299E+03  0.00000000000E+00 0. -1.
         25    1    1    2    0    0 -0.72707526956E+02 -0.23125649411E+03  0.15411703247E+03  0.31327784831E+03  0.12500000000E+03 0.  0.
          3    1    1    2  501    0  0.60827630911E+02  0.10599164982E+03 -0.12444219331E+02  0.12283765347E+03  0.00000000000E+00 0. -1.
         -3    1    1    2    0  503  0.11879896045E+02  0.12526484429E+03  0.41143215306E+02  0.13238269264E+03  0.00000000000E+00 0.  1.
<mgrwt>
<rscale>  4 0.53830149E+03</rscale>
<asrwt>0</asrwt>
<pdfrwt beam="1">  1       21 0.57793402E-01 0.53830149E+03</pdfrwt>
<pdfrwt beam="2">  1       21 0.29667859E-01 0.53830149E+03</pdfrwt>
<totfact> 0.27291936E+04</totfact>
</mgrwt>
</event>
<event>
 5    0  0.3372079E-003  0.6479501E+03  0.7546771E-02  0.9810633E-01
         21   -1    0    0  501  502  0.00000000000E+00  0.00000000000E+00  0.10097344416E+04  0.10097344416E+04  0.00000000000E+00 0.  1.
         21   -1    0    0  502  503 -0.00000000000E+00 -0.00000000000E+00 -0.10394794749E+03  0.10394794749E+03  0.00000000000E+00 0.  1.
         25    1    1    2    0    0 -0.23497969150E+03 -0.54783932396E+02  0.14231027061E+03  0.30674736802E+03  0.12500000000E+03 0.  0.
          3    1    1    2  501    0  0.18387164085E+03  0.72982728878E+02  0.49567159196E+03  0.53369053402E+03  0.00000000000E+00 0.  1.
         -3    1    1    2    0  503  0.51108050651E+02 -0.18198796482E+02  0.26780463155E+03  0.27324448707E+03  0.00000000000E+00 0. -1.
<mgrwt>
<rscale>  4 0.64795007E+03</rscale>
<asrwt>0</asrwt>
<pdfrwt beam="1">  1       21 0.15534375E+00 0.64795007E+03</pdfrwt>
<pdfrwt beam="2">  1       21 0.15991993E-01 0.64795007E+03</pdfrwt>
<totfact> 0.79127604E+03</totfact>
</mgrwt>
</event>
<event>
 5    0  0.3372079E-003  0.5050669E+03  0.7546771E-02  0.1012465E+00
         21   -1    0    0  501  502  0.00000000000E+00  0.00000000000E+00  0.82341748487E+03  0.82341748487E+03  0.00000000000E+00 0. -1.
         21   -1    0    0  502  503 -0.00000000000E+00 -0.00000000000E+00 -0.77449329768E+02  0.77449329768E+02  0.00000000000E+00 0. -1.
         25    1    1    2    0    0 -0.19677860659E+03  0.11558302904E+03  0.42281625264E+03  0.49646736057E+03  0.12500000000E+03 0.  0.
          4    1    1    2  501    0  0.61311188910E+02 -0.73257307214E+02  0.17409539359E+03  0.19858222734E+03  0.00000000000E+00 0.  1.
         -4    1    1    2    0  503  0.13546741768E+03 -0.42325721828E+02  0.14905650888E+03  0.20581722673E+03  0.00000000000E+00 0. -1.
<mgrwt>
<rscale>  4 0.50506686E+03</rscale>
<asrwt>0</asrwt>
<pdfrwt beam="1">  1       21 0.12667961E+00 0.50506686E+03</pdfrwt>
<pdfrwt beam="2">  1       21 0.11915282E-01 0.50506686E+03</pdfrwt>
<totfact> 0.24370428E+04</totfact>
</mgrwt>
</event>
<event>
 5    0  0.3372079E-003  0.6434343E+03  0.7546771E-02  0.9819178E-01
         21   -1    0    0  503  502  0.00000000000E+00  0.00000000000E+00  0.85537949185E+02  0.85537949185E+02  0.00000000000E+00 0. -1.
         21   -1    0    0  501  503 -0.00000000000E+00 -0.00000000000E+00 -0.12100118177E+04  0.12100118177E+04  0.00000000000E+00 0. -1.
         25    1    1    2    0    0 -0.12538655468E+03 -0.23888600253E+03 -0.42890930051E+03  0.52189701893E+03  0.12500000000E+03 0.  0.
          4    1    1    2  501    0 -0.30436444871E+02 -0.10859915757E+02 -0.23531663154E+02  0.39975669068E+02  0.00000000000E+00 0. -1.
         -4    1    1    2    0  502  0.15582299955E+03  0.24974591828E+03 -0.67203290482E+03  0.73367707887E+03  0.00000000000E+00 0.  1.
<mgrwt>
<rscale>  4 0.64343431E+03</rscale>
<asrwt>0</asrwt>
<pdfrwt beam="1">  1       21 0.13159685E-01 0.64343431E+03</pdfrwt>
<pdfrwt beam="2">  1       21 0.18615566E+00 0.64343431E+03</pdfrwt>
<totfact> 0.67498300E+03</totfact>
</mgrwt>
</event>
<event>
 5    0  0.3372079E-003  0.6068715E+03  0.7546771E-02  0.9891252E-01
         21   -1    0    0  503  502  0.00000000000E+00  0.00000000000E+00  0.12034886261E+04  0.12034886261E+04  0.00000000000E+00 0. -1.
         21   -1    0    0  501  503 -0.00000000000E+00 -0.00000000000E+00 -0.76505291066E+02  0.76505291066E+02  0.00000000000E+00 0. -1.
         25    1    1    2    0    0 -0.24767471866E+03  0.11740904422E+03  0.55541043424E+03  0.63184919117E+03  0.12500000000E+03 0.  0.
          2    1    1    2  501    0  0.96621585193E+02 -0.45584952021E+01  0.94786776916E+02  0.13542910943E+03  0.00000000000E+00 0.  1.
         -2    1    1    2    0  502  0.15105313346E+03 -0.11285054901E+03  0.47678612389E+03  0.51271561657E+03  0.00000000000E+00 0. -1.
<mgrwt>
<rscale>  4 0.60687148E+03</rscale>
<asrwt>0</asrwt>
<pdfrwt beam="1">  1       21 0.18515208E+00 0.60687148E+03</pdfrwt>
<pdfrwt beam="2">  1       21 0.11770046E-01 0.60687148E+03</pdfrwt>
<totfact> 0.84999331E+03</totfact>
</mgrwt>
</event>
<event>
 5    0  0.3372079E-003  0.6815841E+03  0.7546771E-02  0.9749255E-01
         21   -1    0    0  501  502  0.00000000000E+00  0.00000000000E+00  0.43088442141E+03  0.43088442141E+03  0.00000000000E+00 0. -1.
         21   -1    0    0  502  503 -0.00000000000E+00 -0.00000000000E+00 -0.26953683945E+03  0.26953683945E+03  0.00000000000E+00 0. -1.
         25    1    1    2    0    0  0.27917111069E+03  0.18233096260E+02 -0.11945961971E+02  0.30665397576E+03  0.12500000000E+03 0.  0.
          2    1    1    2  501    0 -0.13102563222E+03 -0.11219494558E+03  0.12101348888E+03  0.21071233140E+03  0.00000000000E+00 0.  1.
         -2    1    1    2    0  503 -0.14814547846E+03  0.93961849324E+02  0.52280055062E+02  0.18305495370E+03  0.00000000000E+00 0. -1.
<mgrwt>
<rscale>  4 0.68158411E+03</rscale>
<asrwt>0</asrwt>
<pdfrwt beam="1">  1       21 0.66289911E-01 0.68158411E+03</pdfrwt>
<pdfrwt beam="2">  1       21 0.41467206E-01 0.68158411E+03</pdfrwt>
<totfact> 0.98925709E+03</totfact>
</mgrwt>
</event>
<event>
 5    0  0.3372079E-003  0.5559343E+03  0.7546771E-02  0.1000130E+00
         21   -1    0    0  503  502  0.00000000000E+00  0.00000000000E+00  0.32748561887E+03  0.32748561887E+03  0.00000000000E+00 0.  1.
         21   -1    0    0  501  503 -0.00000000000E+00 -0.00000000000E+00 -0.23593625540E+03  0.23593625540E+03  0.00000000000E+00 0.  1.
         25    1    1    2    0    0 -0.20127495665E+03  0.64258357752E+02 -0.92953527799E+02  0.26249972009E+03  0.12500000000E+03 0.  0.
          1    1    1    2  501    0  0.18282445548E+03 -0.91078614984E+02  0.14950140879E+03  0.25312203945E+03  0.00000000000E+00 0.  1.
         -1    1    1    2    0  502  0.18450501175E+02  0.26820257232E+02  0.35001482480E+02  0.47800114721E+02  0.00000000000E+00 0. -1.
<mgrwt>
<rscale>  4 0.55593428E+03</rscale>
<asrwt>0</asrwt>
<pdfrwt beam="1">  1       21 0.50382403E-01 0.55593428E+03</pdfrwt>
<pdfrwt beam="2">  1       21 0.36297885E-01 0.55593428E+03</pdfrwt>
<totfact> 0.24361157E+04</totfact>
</mgrwt>
</event>
<event>
 5    0  0.3372079E-003  0.1549115E+04  0.7546771E-02  0.8852433E-01
         21   -1    0    0  501  502  0.00000000000E+00  0.00000000000E+00  0.10484773549E+04  0.10484773549E+04  0.00000000000E+00 0.  1.
         21   -1    0    0  502  503 -0.00000000000E+00 -0.00000000000E+00 -0.57220084927E+03  0.57220084927E+03  0.00000000000E+00 0.  1.
         25    1    1    2    0    0 -0.29319307605E+03  0.70740026252E+03  0.26711599900E+03  0.82058105521E+03  0.12500000000E+03 0.  0.
          2    1    1    2  501    0  0.30145063532E+03 -0.68502649637E+03  0.20316271626E+03  0.77550556126E+03  0.00000000000E+00 0.  1.
         -2    1    1    2    0  503 -0.82575592708E+01 -0.22373766144E+02  0.59977903698E+01  0.24591587706E+02  0.00000000000E+00 0. -1.
<mgrwt>
<rscale>  4 0.15491154E+04</rscale>
<asrwt>0</asrwt>
<pdfrwt beam="1">  1       21 0.16130421E+00 0.15491154E+04</pdfrwt>
<pdfrwt beam="2">  1       21 0.88030900E-01 0.15491154E+04</pdfrwt>
<totfact> 0.16957638E+02</totfact>
</mgrwt>
</event>
<event>
 5    0  0.3372079E-003  0.6043401E+03  0.7546771E-02  0.9896442E-01
         21   -1    0    0  501  502  0.00000000000E+00  0.00000000000E+00  0.95602463586E+02  0.95602463586E+02  0.00000000000E+00 0.  1.
         21   -1    0    0  502  503 -0.00000000000E+00 -0.00000000000E+00 -0.95506688317E+03  0.95506688317E+03  0.00000000000E+00 0.  1.
         25    1    1    2    0    0  0.16933003180E+03 -0.14409502788E+03 -0.43410003577E+03  0.50349168591E+03  0.12500000000E+03 0.  0.
          1    1    1    2  501    0 -0.16322002914E+03  0.16830107520E+02 -0.87221197285E+02  0.18582671414E+03  0.00000000000E+00 0.  1.
         -1    1    1    2    0  503 -0.61100026659E+01  0.12726492036E+03 -0.33814318653E+03  0.36135094670E+03  0.00000000000E+00 0. -1.
<mgrwt>
<rscale>  4 0.60434013E+03</rscale>
<asrwt>0</asrwt>
<pdfrwt beam="1">  1       21 0.14708071E-01 0.60434013E+03</pdfrwt>
<pdfrwt beam="2">  1       21 0.14693337E+00 0.60434013E+03</pdfrwt>
<totfact> 0.10893028E+04</totfact>
</mgrwt>
</event>
<event>
 5    0  0.3372079E-003  0.5198059E+03  0.7546771E-02  0.1008735E+00
         21   -1    0    0  501  502  0.00000000000E+00  0.00000000000E+00  0.58065680015E+03  0.58065680015E+03  0.00000000000E+00 0.  1.
         21   -1    0    0  502  503 -0.00000000000E+00 -0.00000000000E+00 -0.11633298980E+03  0.11633298980E+03  0.00000000000E+00 0.  1.
         25    1    1    2    0    0  0.63960046831E+02 -0.21297587409E+03  0.37128499645E+03  0.45047437122E+03  0.12500000000E+03 0.  0.
          4    1    1    2  501    0 -0.72710895771E+02  0.18782939735E+03  0.85782854892E+02  0.21891883215E+03  0.00000000000E+00 0.  1.
         -4    1    1    2    0  503  0.87508489393E+01  0.25146476739E+02  0.72559590091E+01  0.27596586577E+02  0.00000000000E+00 0. -1.
<mgrwt>
<rscale>  4 0.51980589E+03</rscale>
<asrwt>0</asrwt>
<pdfrwt beam="1">  1       21 0.89331814E-01 0.51980589E+03</pdfrwt>
<pdfrwt beam="2">  1       21 0.17897383E-01 0.51980589E+03</pdfrwt>
<totfact> 0.27094529E+04</totfact>
</mgrwt>
</event>
<event>
 5    0  0.3372079E-003  0.8909137E+03  0.7546771E-02  0.9437012E-01
         21   -1    0    0  503  502  0.00000000000E+00  0.00000000000E+00  0.16225837457E+03  0.16225837457E+03  0.00000000000E+00 0.  1.
         21   -1    0    0  501  503 -0.00000000000E+00 -0.00000000000E+00 -0.12229372184E+04  0.12229372184E+04  0.00000000000E+00 0.  1.
         25    1    1    2    0    0 -0.23135650572E+03  0.20050376429E+03 -0.15774388816E+03  0.36638194072E+03  0.12500000000E+03 0.  0.
          4    1    1    2  501    0  0.11557123788E+03 -0.29509242072E+03 -0.68209694138E+03  0.75212531218E+03  0.00000000000E+00 0.  1.
         -4    1    1    2    0  502  0.11578526784E+03  0.94588656429E+02 -0.22083801434E+03  0.26668834011E+03  0.00000000000E+00 0. -1.
<mgrwt>
<rscale>  4 0.89091370E+03</rscale>
<asrwt>0</asrwt>
<pdfrwt beam="1">  1       21 0.24962828E-01 0.89091370E+03</pdfrwt>
<pdfrwt beam="2">  1       21 0.18814418E+00 0.89091370E+03</pdfrwt>
<totfact> 0.18246848E+03</totfact>
</mgrwt>
</event>
<event>
 5    0  0.3372079E-003  0.6869941E+03  0.7546771E-02  0.9739736E-01
         21   -1    0    0  501  502  0.00000000000E+00  0.00000000000E+00  0.97822987545E+03  0.97822987545E+03  0.00000000000E+00 0. -1.
         21   -1    0    0  502  503 -0.00000000000E+00 -0.00000000000E+00 -0.12061603952E+03  0.12061603952E+03  0.00000000000E+00 0. -1.
         25    1    1    2    0    0  0.16665708740E+03  0.21135037031E+03  0.36669784485E+03  0.47173708062E+03  0.12500000000E+03 0.  0.
          4    1    1    2  501    0 -0.19266784798E+03 -0.19518282331E+03  0.51806532232E+03  0.58618163767E+03  0.00000000000E+00 0. -1.
         -4    1    1    2    0  503  0.26010760573E+02 -0.16167547007E+02 -0.27149331228E+02  0.40927196678E+02  0.00000000000E+00 0.  1.
<mgrwt>
<rscale>  4 0.68699407E+03</rscale>
<asrwt>0</asrwt>
<pdfrwt beam="1">  1       21 0.15049690E+00 0.68699407E+03</pdfrwt>
<pdfrwt beam="2">  1       21 0.18556314E-01 0.68699407E+03</pdfrwt>
<totfact> 0.64637001E+03</totfact>
</mgrwt>
</event>
<event>
 5    0  0.3372079E-003  0.5182019E+03  0.7546771E-02  0.1009134E+00
         21   -1    0    0  501  502  0.00000000000E+00  0.00000000000E+00  0.72728213416E+03  0.72728213416E+03  0.00000000000E+00 0. -1.
         21   -1    0    0  502  503 -0.00000000000E+00 -0.00000000000E+00 -0.92307096905E+02  0.92307096905E+02  0.00000000000E+00 0. -1.
         25    1    1    2    0    0 -0.18235822244E+02 -0.24142424514E+03  0.36245054242E+03  0.45344636624E+03  0.12500000000E+03 0.  0.
          4    1    1    2  501    0  0.78893217402E+01  0.22364732213E+03  0.25319125353E+03  0.33791445213E+03  0.00000000000E+00 0. -1.
         -4    1    1    2    0  503  0.10346500504E+02  0.17776923005E+02  0.19333241310E+02  0.28228412704E+02  0.00000000000E+00 0.  1.
<mgrwt>
<rscale>  4 0.51820190E+03</rscale>
<asrwt>0</asrwt>
<pdfrwt beam="1">  1       21 0.11188955E+00 0.51820190E+03</pdfrwt>
<pdfrwt beam="2">  1       21 0.14201092E-01 0.51820190E+03</pdfrwt>
<totfact> 0.24126054E+04</totfact>
</mgrwt>
</event>
<event>
 5    0  0.3372079E-003  0.6393504E+03  0.7546771E-02  0.9826970E-01
         21   -1    0    0  501  502  0.00000000000E+00  0.00000000000E+00  0.19741376304E+03  0.19741376304E+03  0.00000000000E+00 0. -1.
         21   -1    0    0  502  503 -0.00000000000E+00 -0.00000000000E+00 -0.51765505557E+03  0.51765505557E+03  0.00000000000E+00 0. -1.
         25    1    1    2    0    0 -0.13359961553E+02  0.29954334122E+03 -0.17686522378E+03  0.36987972265E+03  0.12500000000E+03 0.  0.
          4    1    1    2  501    0 -0.97315142361E+01 -0.27912922156E+03 -0.14426121101E+03  0.31435508856E+03  0.00000000000E+00 0. -1.
         -4    1    1    2    0  503  0.23091475789E+02 -0.20414119662E+02  0.88514225761E+00  0.30834007403E+02  0.00000000000E+00 0.  1.
<mgrwt>
<rscale>  4 0.63935040E+03</rscale>
<asrwt>0</asrwt>
<pdfrwt beam="1">  1       21 0.30371348E-01 0.63935040E+03</pdfrwt>
<pdfrwt beam="2">  1       21 0.79639240E-01 0.63935040E+03</pdfrwt>
<totfact> 0.12388700E+04</totfact>
</mgrwt>
</event>
<event>
 5    0  0.3372079E-003  0.5775415E+03  0.7546771E-02  0.9953128E-01
         21   -1    0    0  503  502  0.00000000000E+00  0.00000000000E+00  0.12021557577E+03  0.12021557577E+03  0.00000000000E+00 0.  1.
         21   -1    0    0  501  503 -0.00000000000E+00 -0.00000000000E+00 -0.69365845150E+03  0.69365845150E+03  0.00000000000E+00 0.  1.
         25    1    1    2    0    0  0.12201267911E+03 -0.22849709247E+03 -0.31243697523E+03  0.42466443061E+03  0.12500000000E+03 0.  0.
          1    1    1    2  501    0 -0.48067836226E+02 -0.25482272919E+00 -0.37645253915E+02  0.61055277875E+02  0.00000000000E+00 0. -1.
         -1    1    1    2    0  502 -0.73944842886E+02  0.22875191520E+03 -0.22336064658E+03  0.32815431879E+03  0.00000000000E+00 0.  1.
<mgrwt>
<rscale>  4 0.57754151E+03</rscale>
<asrwt>0</asrwt>
<pdfrwt beam="1">  1       21 0.18494704E-01 0.57754151E+03</pdfrwt>
<pdfrwt beam="2">  1       21 0.10671669E+00 0.57754151E+03</pdfrwt>
<totfact> 0.16327683E+04</totfact>
</mgrwt>
</event>
<event>
 5    0  0.3372079E-003  0.5988152E+03  0.7546771E-02  0.9907867E-01
         21   -1    0    0  501  502  0.00000000000E+00  0.00000000000E+00  0.70063919637E+02  0.70063919637E+02  0.00000000000E+00 0.  1.
         21   -1    0    0  502  503 -0.00000000000E+00 -0.00000000000E+00 -0.12794732738E+04  0.12794732738E+04  0.00000000000E+00 0.  1.
         25    1    1    2    0    0 -0.15174565080E+03 -0.17654264690E+03 -0.44138557455E+03  0.51443199175E+03  0.12500000000E+03 0.  0.
          1    1    1    2  501    0  0.19306253153E+03  0.16108038814E+03 -0.46263465622E+03  0.52654615909E+03  0.00000000000E+00 0.  1.
         -1    1    1    2    0  503 -0.41316880726E+02  0.15462258763E+02 -0.30538912337E+03  0.30855904257E+03  0.00000000000E+00 0. -1.
<mgrwt>
<rscale>  4 0.59881521E+03</rscale>
<asrwt>0</asrwt>
<pdfrwt beam="1">  1       21 0.10779065E-01 0.59881521E+03</pdfrwt>
<pdfrwt beam="2">  1       21 0.19684203E+00 0.59881521E+03</pdfrwt>
<totfact> 0.83038953E+03</totfact>
</mgrwt>
</event>
<event>
 5    0  0.3372079E-003  0.6247317E+03  0.7546771E-02  0.9855384E-01
         21   -1    0    0  501  502  0.00000000000E+00  0.00000000000E+00  0.27276251985E+03  0.27276251985E+03  0.00000000000E+00 0. -1.
         21   -1    0    0  502  503 -0.00000000000E+00 -0.00000000000E+00 -0.35771932087E+03  0.35771932087E+03  0.00000000000E+00 0. -1.
         25    1    1    2    0    0  0.22403708474E+02  0.23880981005E+03  0.82769165081E+02  0.28285647636E+03  0.12500000000E+03 0.  0.
          4    1    1    2  501    0 -0.82634882830E+02 -0.12461686979E+03 -0.15894483268E+03  0.21822316085E+03  0.00000000000E+00 0.  1.
         -4    1    1    2    0  503  0.60231174356E+02 -0.11419294026E+03 -0.87811334282E+01  0.12940220351E+03  0.00000000000E+00 0. -1.
<mgrwt>
<rscale>  4 0.62473170E+03</rscale>
<asrwt>0</asrwt>
<pdfrwt beam="1">  1       21 0.41963465E-01 0.62473170E+03</pdfrwt>
<pdfrwt beam="2">  1       21 0.55033742E-01 0.62473170E+03</pdfrwt>
<totfact> 0.14724215E+04</totfact>
</mgrwt>
</event>
<event>
 5    0  0.3372079E-003  0.6786365E+03  0.7546771E-02  0.9754481E-01
         21   -1    0    0  503  502  0.00000000000E+00  0.00000000000E+00  0.43479100478E+03  0.43479100478E+03  0.00000000000E+00 0.  1.
         21   -1    0    0  501  503 -0.00000000000E+00 -0.00000000000E+00 -0.26480972040E+03  0.26480972040E+03  0.00000000000E+00 0.  1.
         25    1    1    2    0    0  0.14667106238E+03 -0.23765710682E+03  0.13242401627E+03  0.33339829191E+03  0.12500000000E+03 0.  0.
          2    1    1    2  501    0 -0.77676400889E+02 -0.13943128037E+02 -0.47121177264E+02  0.91915392734E+02  0.00000000000E+00 0. -1.
         -2    1    1    2    0  502 -0.68994661490E+02  0.25160023486E+03  0.84678445380E+02  0.27428704054E+03  0.00000000000E+00 0.  1.
<mgrwt>
<rscale>  4 0.67863653E+03</rscale>
<asrwt>0</asrwt>
<pdfrwt beam="1">  1       21 0.66890924E-01 0.67863653E+03</pdfrwt>
<pdfrwt beam="2">  1       21 0.40739957E-01 0.67863653E+03</pdfrwt>
<totfact> 0.10063666E+04</totfact>
</mgrwt>
</event>
<event>
 5    0  0.3372079E-003  0.5041494E+03  0.7546771E-02  0.1012701E+00
         21   -1    0    0  503  502  0.00000000000E+00  0.00000000000E+00  0.90160045927E+03  0.90160045927E+03  0.00000000000E+00 0.  1.
         21   -1    0    0  501  503 -0.00000000000E+00 -0.00000000000E+00 -0.70476518721E+02  0.70476518721E+02  0.00000000000E+00 0.  1.
         25    1    1    2    0    0 -0.29296050728E+02 -0.21005595245E+03  0.28850136895E+03  0.37926218060E+03  0.12500000000E+03 0.  0.
          3    1    1    2  501    0 -0.35517379746E+02  0.27761967689E+02  0.11161792596E+03  0.12037762463E+03  0.00000000000E+00 0. -1.
         -3    1    1    2    0  502  0.64813430473E+02  0.18229398476E+03  0.43100464563E+03  0.47243717276E+03  0.00000000000E+00 0.  1.
<mgrwt>
<rscale>  4 0.50414943E+03</rscale>
<asrwt>0</asrwt>
<pdfrwt beam="1">  1       21 0.13870775E+00 0.50414943E+03</pdfrwt>
<pdfrwt beam="2">  1       21 0.10842542E-01 0.50414943E+03</pdfrwt>
<totfact> 0.22820838E+04</totfact>
</mgrwt>
</event>
<event>
 5    0  0.3372079E-003  0.7557633E+03  0.7546771E-02  0.9626352E-01
         21   -1    0    0  501  502  0.00000000000E+00  0.00000000000E+00  0.73807482717E+03  0.73807482717E+03  0.00000000000E+00 0. -1.
         21   -1    0    0  502  503 -0.00000000000E+00 -0.00000000000E+00 -0.19346890291E+03  0.19346890291E+03  0.00000000000E+00 0. -1.
         25    1    1    2    0    0  0.19066177816E+03 -0.21122258002E+03  0.30819521353E+02  0.31231672202E+03  0.12500000000E+03 0.  0.
          3    1    1    2  501    0  0.89352381840E+01  0.73185957277E+02  0.25065095017E+03  0.26126982536E+03  0.00000000000E+00 0.  1.
         -3    1    1    2    0  503 -0.19959701634E+03  0.13803662274E+03  0.26313545274E+03  0.35795718269E+03  0.00000000000E+00 0. -1.
<mgrwt>
<rscale>  4 0.75576326E+03</rscale>
<asrwt>0</asrwt>
<pdfrwt beam="1">  1       21 0.11354997E+00 0.75576326E+03</pdfrwt>
<pdfrwt beam="2">  1       21 0.29764447E-01 0.75576326E+03</pdfrwt>
<totfact> 0.53293888E+03</totfact>
</mgrwt>
</event>
<event>
 5    0  0.3372079E-003  0.5990221E+03  0.7546771E-02  0.9907437E-01
         21   -1    0    0  503  502  0.00000000000E+00  0.00000000000E+00  0.14817735546E+04  0.14817735546E+04  0.00000000000E+00 0.  1.
         21   -1    0    0  501  503 -0.00000000000E+00 -0.00000000000E+00 -0.60540193988E+02  0.60540193988E+02  0.00000000000E+00 0.  1.
         25    1    1    2    0    0  0.89433503948E+02  0.24559384618E+03  0.95472555922E+03  0.99771768670E+03  0.12500000000E+03 0.  0.
          2    1    1    2  501    0  0.14273002374E+02 -0.10552648400E+03  0.18751120698E+03  0.21563861010E+03  0.00000000000E+00 0. -1.
         -2    1    1    2    0  502 -0.10370650632E+03 -0.14006736218E+03  0.27899659444E+03  0.32895745183E+03  0.00000000000E+00 0.  1.
<mgrwt>
<rscale>  4 0.59902206E+03</rscale>
<asrwt>0</asrwt>
<pdfrwt beam="1">  1       21 0.22796513E+00 0.59902206E+03</pdfrwt>
<pdfrwt beam="2">  1       21 0.93138772E-02 0.59902206E+03</pdfrwt>
<totfact> 0.67515439E+03</totfact>
</mgrwt>
</event>
<event>
 5    0  0.3372079E-003  0.7858692E+03  0.7546771E-02  0.9580699E-01
         21   -1    0    0  501  502  0.00000000000E+00  0.00000000000E+00  0.77401229563E+03  0.77401229563E+03  0.00000000000E+00 0. -1.
         21   -1    0    0  502  503 -0.00000000000E+00 -0.00000000000E+00 -0.19947694117E+03  0.19947694117E+03  0.00000000000E+00 0. -1.
         25    1    1    2    0    0  0.26774935129E+03  0.79928808367E+02  0.58645444567E+03  0.66153771349E+03  0.12500000000E+03 0.  0.
          3    1    1    2  501    0 -0.51737820527E+02 -0.20861121935E+02 -0.61033956128E+02  0.82686953517E+02  0.00000000000E+00 0.  1.
         -3    1    1    2    0  503 -0.21601153077E+03 -0.59067686432E+02  0.49114864923E+02  0.22926456979E+03  0.00000000000E+00 0. -1.
<mgrwt>
<rscale>  4 0.78586921E+03</rscale>
<asrwt>0</asrwt>
<pdfrwt beam="1">  1       21 0.11907881E+00 0.78586921E+03</pdfrwt>
<pdfrwt beam="2">  1       21 0.30688761E-01 0.78586921E+03</pdfrwt>
<totfact> 0.44148766E+03</totfact>
</mgrwt>
</event>
<event>
 5    0  0.3372079E-003  0.6750394E+03  0.7546771E-02  0.9760897E-01
         21   -1    0    0  503  502  0.00000000000E+00  0.00000000000E+00  0.89995115534E+02  0.89995115534E+02  0.00000000000E+00 0.  1.
         21   -1    0    0  501  503 -0.00000000000E+00 -0.00000000000E+00 -0.12658415660E+04  0.12658415660E+04  0.00000000000E+00 0.  1.
         25    1    1    2    0    0 -0.19902020084E+03 -0.15212357773E+03 -0.10185758270E+04  0.10563485876E+04  0.12500000000E+03 0.  0.
          1    1    1    2  501    0  0.41122480342E+02  0.14218139160E+02 -0.14561166326E+02  0.45882910058E+02  0.00000000000E+00 0. -1.
         -1    1    1    2    0  502  0.15789772050E+03  0.13790543857E+03 -0.14270945720E+03  0.25360518390E+03  0.00000000000E+00 0.  1.
<mgrwt>
<rscale>  4 0.67503943E+03</rscale>
<asrwt>0</asrwt>
<pdfrwt beam="1">  1       21 0.13845402E-01 0.67503943E+03</pdfrwt>
<pdfrwt beam="2">  1       21 0.19474486E+00 0.67503943E+03</pdfrwt>
<totfact> 0.53144131E+03</totfact>
</mgrwt>
</event>
<event>
 5    0  0.3372079E-003  0.5316013E+03  0.7546771E-02  0.1005845E+00
         21   -1    0    0  503  502  0.00000000000E+00  0.00000000000E+00  0.49823360292E+03  0.49823360292E+03  0.00000000000E+00 0. -1.
         21   -1    0    0  501  503 -0.00000000000E+00 -0.00000000000E+00 -0.14180090828E+03  0.14180090828E+03  0.00000000000E+00 0. -1.
         25    1    1    2    0    0 -0.13175426815E+03 -0.19497897583E+03  0.20822068974E+03  0.33816688754E+03  0.12500000000E+03 0.  0.
          1    1    1    2  501    0 -0.75870882413E+01  0.80000061298E+02  0.29034508445E+02  0.85443410491E+02  0.00000000000E+00 0.  1.
         -1    1    1    2    0  502  0.13934135639E+03  0.11497891453E+03  0.11917749646E+03  0.21642421318E+03  0.00000000000E+00 0. -1.
<mgrwt>
<rscale>  4 0.53160127E+03</rscale>
<asrwt>0</asrwt>
<pdfrwt beam="1">  1       21 0.76651323E-01 0.53160127E+03</pdfrwt>
<pdfrwt beam="2">  1       21 0.21815525E-01 0.53160127E+03</pdfrwt>
<totfact> 0.26491516E+04</totfact>
</mgrwt>
</event>
<event>
 5    0  0.3372079E-003  0.4780833E+03  0.7546771E-02  0.1019663E+00
         21   -1    0    0  503  502  0.00000000000E+00  0.00000000000E+00  0.19688008961E+03  0.19688008961E+03  0.00000000000E+00 0. -1.
         21   -1    0    0  501  503 -0.00000000000E+00 -0.00000000000E+00 -0.29023200621E+03  0.29023200621E+03  0.00000000000E+00 0. -1.
         25    1    1    2    0    0 -0.47201065775E+01 -0.20892650872E+03 -0.45599390078E+02  0.24774355658E+03  0.12500000000E+03 0.  0.
          4    1    1    2  501    0 -0.44271068867E+02  0.77175816363E+02  0.52896975720E+01  0.89129204363E+02  0.00000000000E+00 0. -1.
         -4    1    1    2    0  502  0.48991175445E+02  0.13175069236E+03 -0.53042224091E+02  0.15023933488E+03  0.00000000000E+00 0.  1.
<mgrwt>
<rscale>  4 0.47808327E+03</rscale>
<asrwt>0</asrwt>
<pdfrwt beam="1">  1       21 0.30289245E-01 0.47808327E+03</pdfrwt>
<pdfrwt beam="2">  1       21 0.44651078E-01 0.47808327E+03</pdfrwt>
<totfact> 0.46035734E+04</totfact>
</mgrwt>
</event>
<event>
 5    0  0.3372079E-003  0.5133663E+03  0.7546771E-02  0.1010348E+00
         21   -1    0    0  503  502  0.00000000000E+00  0.00000000000E+00  0.27482119464E+03  0.27482119464E+03  0.00000000000E+00 0. -1.
         21   -1    0    0  501  503 -0.00000000000E+00 -0.00000000000E+00 -0.23974220200E+03  0.23974220200E+03  0.00000000000E+00 0. -1.
         25    1    1    2    0    0  0.17259652048E+03 -0.10193742172E+03 -0.48220990033E+02  0.24110383802E+03  0.12500000000E+03 0.  0.
          1    1    1    2  501    0 -0.12355344744E+03  0.13993191467E+01 -0.15095866730E+02  0.12448010950E+03  0.00000000000E+00 0. -1.
         -1    1    1    2    0  502 -0.49043073034E+02  0.10053810257E+03  0.98395849406E+02  0.14897944913E+03  0.00000000000E+00 0.  1.
<mgrwt>
<rscale>  4 0.51336630E+03</rscale>
<asrwt>0</asrwt>
<pdfrwt beam="1">  1       21 0.42280184E-01 0.51336630E+03</pdfrwt>
<pdfrwt beam="2">  1       21 0.36883416E-01 0.51336630E+03</pdfrwt>
<totfact> 0.34429351E+04</totfact>
</mgrwt>
</event>
<event>
 5    0  0.3372079E-003  0.9450768E+03  0.7546771E-02  0.9370924E-01
         21   -1    0    0  503  502  0.00000000000E+00  0.00000000000E+00  0.35286883605E+03  0.35286883605E+03  0.00000000000E+00 0. -1.
         21   -1    0    0  501  503 -0.00000000000E+00 -0.00000000000E+00 -0.63279195861E+03  0.63279195861E+03  0.00000000000E+00 0. -1.
         25    1    1    2    0    0  0.17260002092E+03  0.38987515700E+03 -0.39104751958E+02  0.44603540991E+03  0.12500000000E+03 0.  0.
          3    1    1    2  501    0 -0.98977313592E+01 -0.27475190078E+03 -0.88662835043E+02  0.28887310430E+03  0.00000000000E+00 0.  1.
         -3    1    1    2    0  502 -0.16270228956E+03 -0.11512325622E+03 -0.15215553555E+03  0.25075228045E+03  0.00000000000E+00 0. -1.
<mgrwt>
<rscale>  4 0.94507685E+03</rscale>
<asrwt>0</asrwt>
<pdfrwt beam="1">  1       21 0.54287513E-01 0.94507685E+03</pdfrwt>
<pdfrwt beam="2">  1       21 0.97352609E-01 0.94507685E+03</pdfrwt>
<totfact> 0.21542108E+03</totfact>
</mgrwt>
</event>
<event>
 5    0  0.3372079E-003  0.4556432E+03  0.7546771E-02  0.1026052E+00
         21   -1    0    0  503  502  0.00000000000E+00  0.00000000000E+00  0.98889678592E+02  0.98889678592E+02  0.00000000000E+00 0.  1.
         21   -1    0    0  501  503 -0.00000000000E+00 -0.00000000000E+00 -0.52485439704E+03  0.52485439704E+03  0.00000000000E+00 0.  1.
         25    1    1    2    0    0  0.19608704641E+02  0.20559563724E+03 -0.23409511698E+03  0.33627309013E+03  0.12500000000E+03 0.  0.
          1    1    1    2  501    0  0.18814494693E+02 -0.91119678167E+02 -0.76307688259E+02  0.12033139344E+03  0.00000000000E+00 0.  1.
         -1    1    1    2    0  502 -0.38423199334E+02 -0.11447595907E+03 -0.11556191320E+03  0.16713959206E+03  0.00000000000E+00 0. -1.
<mgrwt>
<rscale>  4 0.45564321E+03</rscale>
<asrwt>0</asrwt>
<pdfrwt beam="1">  1       21 0.15213796E-01 0.45564321E+03</pdfrwt>
<pdfrwt beam="2">  1       21 0.80746832E-01 0.45564321E+03</pdfrwt>
<totfact> 0.47205805E+04</totfact>
</mgrwt>
</event>
<event>
 5    0  0.3372079E-003  0.6782049E+03  0.7546771E-02  0.9755248E-01
         21   -1    0    0  501  502  0.00000000000E+00  0.00000000000E+00  0.64156637112E+03  0.64156637112E+03  0.00000000000E+00 0. -1.
         21   -1    0    0  502  503 -0.00000000000E+00 -0.00000000000E+00 -0.17923392239E+03  0.17923392239E+03  0.00000000000E+00 0. -1.
         25    1    1    2    0    0  0.21349589426E+03 -0.13060185950E+03  0.58925558469E+01  0.27981612674E+03  0.12500000000E+03 0.  0.
          1    1    1    2  501    0 -0.49068988748E+02  0.64303066044E+02  0.27766265397E+03  0.28920442488E+03  0.00000000000E+00 0. -1.
         -1    1    1    2    0  503 -0.16442690551E+03  0.66298793454E+02  0.17877723892E+03  0.25177974189E+03  0.00000000000E+00 0.  1.
<mgrwt>
<rscale>  4 0.67820486E+03</rscale>
<asrwt>0</asrwt>
<pdfrwt beam="1">  1       21 0.98702518E-01 0.67820486E+03</pdfrwt>
<pdfrwt beam="2">  1       21 0.27574450E-01 0.67820486E+03</pdfrwt>
<totfact> 0.89371814E+03</totfact>
</mgrwt>
</event>
<event>
 5    0  0.3372079E-003  0.6391582E+03  0.7546771E-02  0.9827338E-01
         21   -1    0    0  501  502  0.00000000000E+00  0.00000000000E+00  0.17321526870E+04  0.17321526870E+04  0.00000000000E+00 0. -1.
         21   -1    0    0  502  503 -0.00000000000E+00 -0.00000000000E+00 -0.58961780480E+02  0.58961780480E+02  0.00000000000E+00 0. -1.
         25    1    1    2    0    0  0.18461099801E+03 -0.14296801377E+03  0.14121477432E+04  0.14367697527E+04  0.12500000000E+03 0.  0.
          4    1    1    2  501    0 -0.75792193380E+02  0.36335645091E+02  0.12152287894E+03  0.14775840344E+03  0.00000000000E+00 0. -1.
         -4    1    1    2    0  503 -0.10881880463E+03  0.10663236868E+03  0.13952028437E+03  0.20658631137E+03  0.00000000000E+00 0.  1.
<mgrwt>
<rscale>  4 0.63915822E+03</rscale>
<asrwt>0</asrwt>
<pdfrwt beam="1">  1       21 0.26648499E+00 0.63915822E+03</pdfrwt>
<pdfrwt beam="2">  1       21 0.90710445E-02 0.63915822E+03</pdfrwt>
<totfact> 0.40171020E+03</totfact>
</mgrwt>
</event>
<event>
 5    0  0.3372079E-003  0.6110461E+03  0.7546771E-02  0.9882750E-01
         21   -1    0    0  503  502  0.00000000000E+00  0.00000000000E+00  0.62723743801E+03  0.62723743801E+03  0.00000000000E+00 0.  1.
         21   -1    0    0  501  503 -0.00000000000E+00 -0.00000000000E+00 -0.14881817634E+03  0.14881817634E+03  0.00000000000E+00 0.  1.
         25    1    1    2    0    0  0.16863414937E+03 -0.22216819034E+03  0.14019045116E+03  0.33626558510E+03  0.12500000000E+03 0.  0.
          4    1    1    2  501    0 -0.15966169142E+03  0.20052299555E+03  0.29652484782E+03  0.39195447800E+03  0.00000000000E+00 0.  1.
         -4    1    1    2    0  502 -0.89724579466E+01  0.21645194787E+02  0.41703962684E+02  0.47835551241E+02  0.00000000000E+00 0. -1.
<mgrwt>
<rscale>  4 0.61104609E+03</rscale>
<asrwt>0</asrwt>
<pdfrwt beam="1">  1       21 0.96498066E-01 0.61104609E+03</pdfrwt>
<pdfrwt beam="2">  1       21 0.22895104E-01 0.61104609E+03</pdfrwt>
<totfact> 0.13783286E+04</totfact>
</mgrwt>
</event>
<event>
 5    0  0.3372079E-003  0.5104006E+03  0.7546771E-02  0.1011099E+00
         21   -1    0    0  503  502  0.00000000000E+00  0.00000000000E+00  0.10931124747E+03  0.10931124747E+03  0.00000000000E+00 0. -1.
         21   -1    0    0  501  503 -0.00000000000E+00 -0.00000000000E+00 -0.59579579767E+03  0.59579579767E+03  0.00000000000E+00 0. -1.
         25    1    1    2    0    0 -0.19904369271E+03 -0.28958058645E+02 -0.27178467370E+03  0.36048421550E+03  0.12500000000E+03 0.  0.
          2    1    1    2  501    0 -0.54486020896E+01 -0.48192582077E+02 -0.22055351735E+02  0.53278989969E+02  0.00000000000E+00 0.  1.
         -2    1    1    2    0  502  0.20449229480E+03  0.77150640722E+02 -0.19264452476E+03  0.29134383967E+03  0.00000000000E+00 0. -1.
<mgrwt>
<rscale>  4 0.51040056E+03</rscale>
<asrwt>0</asrwt>
<pdfrwt beam="1">  1       21 0.16817116E-01 0.51040056E+03</pdfrwt>
<pdfrwt beam="2">  1       21 0.91660889E-01 0.51040056E+03</pdfrwt>
<totfact> 0.28713215E+04</totfact>
</mgrwt>
</event>
<event>
 5    0  0.3372079E-003  0.5361288E+03  0.7546771E-02  0.1004757E+00
         21   -1    0    0  501  502  0.00000000000E+00  0.00000000000E+00  0.30176605280E+03  0.30176605280E+03  0.00000000000E+00 0.  1.
         21   -1    0    0  502  503 -0.00000000000E+00 -0.00000000000E+00 -0.23812657966E+03  0.23812657966E+03  0.00000000000E+00 0.  1.
         25    1    1    2    0    0  0.18006819821E+03  0.16972947469E+03  0.25328947666E+02  0.27838679239E+03  0.12500000000E+03 0.  0.
          2    1    1    2  501    0 -0.50057807044E+02 -0.18514554732E+02  0.31488210267E+02  0.61968380395E+02  0.00000000000E+00 0. -1.
         -2    1    1    2    0  503 -0.13001039116E+03 -0.15121491996E+03  0.68223152083E+01  0.19953745968E+03  0.00000000000E+00 0.  1.
<mgrwt>
<rscale>  4 0.53612878E+03</rscale>
<asrwt>0</asrwt>
<pdfrwt beam="1">  1       21 0.46425547E-01 0.53612878E+03</pdfrwt>
<pdfrwt beam="2">  1       21 0.36634858E-01 0.53612878E+03</pdfrwt>
<totfact> 0.28558842E+04</totfact>
</mgrwt>
</event>
<event>
 5    0  0.3372079E-003  0.5120719E+03  0.7546771E-02  0.1010675E+00
         21   -1    0    0  501  502  0.00000000000E+00  0.00000000000E+00  0.74060147069E+02  0.74060147069E+02  0.00000000000E+00 0.  1.
         21   -1    0    0  502  503 -0.00000000000E+00 -0.00000000000E+00 -0.88515094968E+03  0.88515094968E+03  0.00000000000E+00 0.  1.
         25    1    1    2    0    0  0.18280475511E+03 -0.10030393417E+03 -0.29360374123E+03  0.38119104733E+03  0.12500000000E+03 0.  0.
          3    1    1    2  501    0 -0.17651504957E+03  0.53868025766E+02 -0.27592411541E+03  0.33195397933E+03  0.00000000000E+00 0.  1.
         -3    1    1    2    0  503 -0.62897055324E+01  0.46435908403E+02 -0.24156294597E+03  0.24606607009E+03  0.00000000000E+00 0. -1.
<mgrwt>
<rscale>  4 0.51207191E+03</rscale>
<asrwt>0</asrwt>
<pdfrwt beam="1">  1       21 0.11393868E-01 0.51207191E+03</pdfrwt>
<pdfrwt beam="2">  1       21 0.13617708E+00 0.51207191E+03</pdfrwt>
<totfact> 0.21856876E+04</totfact>
</mgrwt>
</event>
<event>
 5    0  0.3372079E-003  0.6893720E+03  0.7546771E-02  0.9735582E-01
         21   -1    0    0  501  502  0.00000000000E+00  0.00000000000E+00  0.44561236283E+03  0.44561236283E+03  0.00000000000E+00 0.  1.
         21   -1    0    0  502  503 -0.00000000000E+00 -0.00000000000E+00 -0.26661833861E+03  0.26661833861E+03  0.00000000000E+00 0.  1.
         25    1    1    2    0    0  0.12045545510E+03 -0.22873785417E+03  0.25825995963E+03  0.38620425858E+03  0.12500000000E+03 0.  0.
          3    1    1    2  501    0 -0.12664957161E+03  0.10155054895E+03  0.21352717416E+02  0.16373321753E+03  0.00000000000E+00 0.  1.
         -3    1    1    2    0  503  0.61941165163E+01  0.12718730522E+03 -0.10061865283E+03  0.16229322533E+03  0.00000000000E+00 0. -1.
<mgrwt>
<rscale>  4 0.68937197E+03</rscale>
<asrwt>0</asrwt>
<pdfrwt beam="1">  1       21 0.68555748E-01 0.68937197E+03</pdfrwt>
<pdfrwt beam="2">  1       21 0.41018206E-01 0.68937197E+03</pdfrwt>
<totfact> 0.93666142E+03</totfact>
</mgrwt>
</event>
<event>
 5    0  0.3372079E-003  0.6335631E+03  0.7546771E-02  0.9838120E-01
         21   -1    0    0  503  502  0.00000000000E+00  0.00000000000E+00  0.18443150872E+03  0.18443150872E+03  0.00000000000E+00 0. -1.
         21   -1    0    0  501  503 -0.00000000000E+00 -0.00000000000E+00 -0.54410736059E+03  0.54410736059E+03  0.00000000000E+00 0. -1.
         25    1    1    2    0    0  0.16492975947E+03 -0.21604857812E+03 -0.12653479918E+03  0.32483052361E+03  0.12500000000E+03 0.  0.
          1    1    1    2  501    0 -0.17682314196E+03  0.10232927050E+03 -0.19696283450E+03  0.28378171420E+03  0.00000000000E+00 0. -1.
         -1    1    1    2    0  502  0.11893382497E+02  0.11371930762E+03 -0.36178218178E+02  0.11992663150E+03  0.00000000000E+00 0.  1.
<mgrwt>
<rscale>  4 0.63356307E+03</rscale>
<asrwt>0</asrwt>
<pdfrwt beam="1">  1       21 0.28374079E-01 0.63356307E+03</pdfrwt>
<pdfrwt beam="2">  1       21 0.83708824E-01 0.63356307E+03</pdfrwt>
<totfact> 0.12643462E+04</totfact>
</mgrwt>
</event>
<event>
 5    0  0.3372079E-003  0.5568804E+03  0.7546771E-02  0.9999138E-01
         21   -1    0    0  503  502  0.00000000000E+00  0.00000000000E+00  0.96829629171E+02  0.96829629171E+02  0.00000000000E+00 0. -1.
         21   -1    0    0  501  503 -0.00000000000E+00 -0.00000000000E+00 -0.80067368736E+03  0.80067368736E+03  0.00000000000E+00 0. -1.
         25    1    1    2    0    0 -0.57695570935E+02 -0.22237121950E+03 -0.36105520832E+03  0.44582911707E+03  0.12500000000E+03 0.  0.
          4    1    1    2  501    0 -0.28719413309E+02  0.19446591639E+03 -0.27645219537E+03  0.33921617541E+03  0.00000000000E+00 0. -1.
         -4    1    1    2    0  502  0.86414984244E+02  0.27905303115E+02 -0.66336654502E+02  0.11245802406E+03  0.00000000000E+00 0.  1.
<mgrwt>
<rscale>  4 0.55688037E+03</rscale>
<asrwt>0</asrwt>
<pdfrwt beam="1">  1       21 0.14896866E-01 0.55688037E+03</pdfrwt>
<pdfrwt beam="2">  1       21 0.12318057E+00 0.55688037E+03</pdfrwt>
<totfact> 0.17149288E+04</totfact>
</mgrwt>
</event>
<event>
 5    0  0.3372079E-003  0.5105400E+03  0.7546771E-02  0.1011064E+00
         21   -1    0    0  501  502  0.00000000000E+00  0.00000000000E+00  0.20448048851E+03  0.20448048851E+03  0.00000000000E+00 0.  1.
         21   -1    0    0  502  503 -0.00000000000E+00 -0.00000000000E+00 -0.31867473383E+03  0.31867473383E+03  0.00000000000E+00 0.  1.
         25    1    1    2    0    0  0.59555807618E+02 -0.19375304978E+03 -0.10124218718E+02  0.23835821430E+03  0.12500000000E+03 0.  0.
          3    1    1    2  501    0  0.15657290838E+02  0.18807261344E+02  0.39393306481E+02  0.46375601680E+02  0.00000000000E+00 0. -1.
         -3    1    1    2    0  503 -0.75213098457E+02  0.17494578843E+03 -0.14346333308E+03  0.23842140636E+03  0.00000000000E+00 0.  1.
<mgrwt>
<rscale>  4 0.51053997E+03</rscale>
<asrwt>0</asrwt>
<pdfrwt beam="1">  1       21 0.31458537E-01 0.51053997E+03</pdfrwt>
<pdfrwt beam="2">  1       21 0.49026882E-01 0.51053997E+03</pdfrwt>
<totfact> 0.34803880E+04</totfact>
</mgrwt>
</event>
<event>
 5    0  0.3372079E-003  0.5134471E+03  0.7546771E-02  0.1010327E+00
         21   -1    0    0  503  502  0.00000000000E+00  0.00000000000E+00  0.16549422885E+04  0.16549422885E+04  0.00000000000E+00 0.  1.
         21   -1    0    0  501  503 -0.00000000000E+00 -0.00000000000E+00 -0.39824339413E+02  0.39824339413E+02  0.00000000000E+00 0.  1.
         25    1    1    2    0    0  0.15617796413E+03  0.17231042354E+03  0.85090800872E+03  0.89092753793E+03  0.12500000000E+03 0.  0.
          1    1    1    2  501    0 -0.12090748272E+03 -0.17557528938E+03  0.67462743536E+03  0.70750793504E+03  0.00000000000E+00 0.  1.
         -1    1    1    2    0  502 -0.35270481411E+02  0.32648658321E+01  0.89582505032E+02  0.96331154958E+02  0.00000000000E+00 0. -1.
<mgrwt>
<rscale>  4 0.51344711E+03</rscale>
<asrwt>0</asrwt>
<pdfrwt beam="1">  1       21 0.25460645E+00 0.51344711E+03</pdfrwt>
<pdfrwt beam="2">  1       21 0.61268227E-02 0.51344711E+03</pdfrwt>
<totfact> 0.99306789E+03</totfact>
</mgrwt>
</event>
<event>
 5    0  0.3372079E-003  0.6200940E+03  0.7546771E-02  0.9864573E-01
         21   -1    0    0  501  502  0.00000000000E+00  0.00000000000E+00  0.20414791799E+03  0.20414791799E+03  0.00000000000E+00 0. -1.
         21   -1    0    0  502  503 -0.00000000000E+00 -0.00000000000E+00 -0.47087984055E+03  0.47087984055E+03  0.00000000000E+00 0. -1.
         25    1    1    2    0    0 -0.54244890375E+02  0.27426157782E+03 -0.44650477863E+02  0.30948438793E+03  0.12500000000E+03 0.  0.
          2    1    1    2  501    0  0.17618228457E+02 -0.23828622180E+03 -0.17966996165E+03  0.29895153552E+03  0.00000000000E+00 0. -1.
         -2    1    1    2    0  503  0.36626661918E+02 -0.35975356027E+02 -0.42411483055E+02  0.66591835081E+02  0.00000000000E+00 0.  1.
<mgrwt>
<rscale>  4 0.62009399E+03</rscale>
<asrwt>0</asrwt>
<pdfrwt beam="1">  1       21 0.31407372E-01 0.62009399E+03</pdfrwt>
<pdfrwt beam="2">  1       21 0.72443051E-01 0.62009399E+03</pdfrwt>
<totfact> 0.14461678E+04</totfact>
</mgrwt>
</event>
<event>
 5    0  0.3372079E-003  0.6567395E+03  0.7546771E-02  0.9794214E-01
         21   -1    0    0  503  502  0.00000000000E+00  0.00000000000E+00  0.10723537833E+03  0.10723537833E+03  0.00000000000E+00 0. -1.
         21   -1    0    0  501  503 -0.00000000000E+00 -0.00000000000E+00 -0.10055142374E+04  0.10055142374E+04  0.00000000000E+00 0. -1.
         25    1    1    2    0    0  0.25225210713E+03 -0.48595121770E+02 -0.48091079210E+03  0.55936821627E+03  0.12500000000E+03 0.  0.
          4    1    1    2  501    0 -0.49187201272E+02 -0.19649992468E+02 -0.30862296420E+03  0.31313517369E+03  0.00000000000E+00 0.  1.
         -4    1    1    2    0  502 -0.20306490586E+03  0.68245114239E+02 -0.10874510272E+03  0.24024622573E+03  0.00000000000E+00 0. -1.
<mgrwt>
<rscale>  4 0.65673952E+03</rscale>
<asrwt>0</asrwt>
<pdfrwt beam="1">  1       21 0.16497751E-01 0.65673952E+03</pdfrwt>
<pdfrwt beam="2">  1       21 0.15469450E+00 0.65673952E+03</pdfrwt>
<totfact> 0.75351092E+03</totfact>
</mgrwt>
</event>
<event>
 5    0  0.3372079E-003  0.6009846E+03  0.7546771E-02  0.9903365E-01
         21   -1    0    0  503  502  0.00000000000E+00  0.00000000000E+00  0.92987780850E+02  0.92987780850E+02  0.00000000000E+00 0. -1.
         21   -1    0    0  501  503 -0.00000000000E+00 -0.00000000000E+00 -0.97104827450E+03  0.97104827450E+03  0.00000000000E+00 0. -1.
         25    1    1    2    0    0  0.88687635781E+02  0.21316621834E+03 -0.25269014575E+03  0.36439352786E+03  0.12500000000E+03 0.  0.
          2    1    1    2  501    0  0.22931412874E+02 -0.10861189676E+03 -0.46488171996E+03  0.47795126046E+03  0.00000000000E+00 0.  1.
         -2    1    1    2    0  502 -0.11161904865E+03 -0.10455432159E+03 -0.16048862793E+03  0.22169126704E+03  0.00000000000E+00 0. -1.
<mgrwt>
<rscale>  4 0.60098461E+03</rscale>
<asrwt>0</asrwt>
<pdfrwt beam="1">  1       21 0.14305812E-01 0.60098461E+03</pdfrwt>
<pdfrwt beam="2">  1       21 0.14939204E+00 0.60098461E+03</pdfrwt>
<totfact> 0.10970049E+04</totfact>
</mgrwt>
</event>
<event>
 5    0  0.3372079E-003  0.6003037E+03  0.7546771E-02  0.9904776E-01
         21   -1    0    0  501  502  0.00000000000E+00  0.00000000000E+00  0.43139713288E+03  0.43139713288E+03  0.00000000000E+00 0.  1.
         21   -1    0    0  502  503 -0.00000000000E+00 -0.00000000000E+00 -0.20883574781E+03  0.20883574781E+03  0.00000000000E+00 0.  1.
         25    1    1    2    0    0 -0.58097485820E+02 -0.21365305857E+03  0.29631645480E+03  0.39045023842E+03  0.12500000000E+03 0.  0.
          1    1    1    2  501    0 -0.18079338266E+02  0.12965203250E+02 -0.16262480791E+02  0.27557707614E+02  0.00000000000E+00 0. -1.
         -1    1    1    2    0  503  0.76176824086E+02  0.20068785532E+03 -0.57492588929E+02  0.22222493466E+03  0.00000000000E+00 0.  1.
<mgrwt>
<rscale>  4 0.60030373E+03</rscale>
<asrwt>0</asrwt>
<pdfrwt beam="1">  1       21 0.66368789E-01 0.60030373E+03</pdfrwt>
<pdfrwt beam="2">  1       21 0.32128577E-01 0.60030373E+03</pdfrwt>
<totfact> 0.16910583E+04</totfact>
</mgrwt>
</event>
<event>
 5    0  0.3372079E-003  0.6414770E+03  0.7546771E-02  0.9822905E-01
         21   -1    0    0  501  502  0.00000000000E+00  0.00000000000E+00  0.11217660752E+03  0.11217660752E+03  0.00000000000E+00 0.  1.
         21   -1    0    0  502  503 -0.00000000000E+00 -0.00000000000E+00 -0.91706452720E+03  0.91706452720E+03  0.00000000000E+00 0.  1.
         25    1    1    2    0    0  0.16734727683E+03  0.12682742628E+03 -0.12403207749E+03  0.27404244811E+03  0.12500000000E+03 0.  0.
          4    1    1    2  501    0 -0.15513702317E+03  0.99958876901E+01 -0.19005463918E+03  0.24553651379E+03  0.00000000000E+00 0.  1.
         -4    1    1    2    0  503 -0.12210253653E+02 -0.13682331397E+03 -0.49080120300E+03  0.50966217282E+03  0.00000000000E+00 0. -1.
<mgrwt>
<rscale>  4 0.64147701E+03</rscale>
<asrwt>0</asrwt>
<pdfrwt beam="1">  1       21 0.17257939E-01 0.64147701E+03</pdfrwt>
<pdfrwt beam="2">  1       21 0.14108685E+00 0.64147701E+03</pdfrwt>
<totfact> 0.89343063E+03</totfact>
</mgrwt>
</event>
<event>
 5    0  0.3372079E-003  0.4913602E+03  0.7546771E-02  0.1016059E+00
         21   -1    0    0  501  502  0.00000000000E+00  0.00000000000E+00  0.76528209782E+02  0.76528209782E+02  0.00000000000E+00 0.  1.
         21   -1    0    0  502  503 -0.00000000000E+00 -0.00000000000E+00 -0.78871198014E+03  0.78871198014E+03  0.00000000000E+00 0.  1.
         25    1    1    2    0    0  0.21825962336E+03 -0.47045344847E+02 -0.45410635763E+03  0.52123709739E+03  0.12500000000E+03 0.  0.
          1    1    1    2  501    0 -0.14784080060E+03  0.18370615766E+02 -0.14617640756E+03  0.20871493472E+03  0.00000000000E+00 0.  1.
         -1    1    1    2    0  503 -0.70418822754E+02  0.28674729081E+02 -0.11190100517E+03  0.13528815781E+03  0.00000000000E+00 0. -1.
<mgrwt>
<rscale>  4 0.49136022E+03</rscale>
<asrwt>0</asrwt>
<pdfrwt beam="1">  1       21 0.11773571E-01 0.49136022E+03</pdfrwt>
<pdfrwt beam="2">  1       21 0.12134031E+00 0.49136022E+03</pdfrwt>
<totfact> 0.27919891E+04</totfact>
</mgrwt>
</event>
<event>
 5    0  0.3372079E-003  0.5356866E+03  0.7546771E-02  0.1004862E+00
         21   -1    0    0  503  502  0.00000000000E+00  0.00000000000E+00  0.14856297206E+03  0.14856297206E+03  0.00000000000E+00 0. -1.
         21   -1    0    0  501  503 -0.00000000000E+00 -0.00000000000E+00 -0.48289304396E+03  0.48289304396E+03  0.00000000000E+00 0. -1.
         25    1    1    2    0    0  0.15234068139E+03 -0.19190050216E+03 -0.14377696633E+03  0.31037123253E+03  0.12500000000E+03 0.  0.
          2    1    1    2  501    0 -0.10937950503E+03  0.74283511892E+02 -0.11189009712E+03  0.17320886263E+03  0.00000000000E+00 0. -1.
         -2    1    1    2    0  502 -0.42961176362E+02  0.11761699027E+03 -0.78663008449E+02  0.14787592087E+03  0.00000000000E+00 0.  1.
<mgrwt>
<rscale>  4 0.53568657E+03</rscale>
<asrwt>0</asrwt>
<pdfrwt beam="1">  1       21 0.22855841E-01 0.53568657E+03</pdfrwt>
<pdfrwt beam="2">  1       21 0.74291239E-01 0.53568657E+03</pdfrwt>
<totfact> 0.25990946E+04</totfact>
</mgrwt>
</event>
<event>
 5    0  0.3372079E-003  0.6761954E+03  0.7546771E-02  0.9758830E-01
         21   -1    0    0  501  502  0.00000000000E+00  0.00000000000E+00  0.14886529421E+04  0.14886529421E+04  0.00000000000E+00 0.  1.
         21   -1    0    0  502  503 -0.00000000000E+00 -0.00000000000E+00 -0.76787574426E+02  0.76787574426E+02  0.00000000000E+00 0.  1.
         25    1    1    2    0    0  0.24200203557E+03  0.51364769819E+02  0.72297165510E+03  0.77428440438E+03  0.12500000000E+03 0.  0.
          4    1    1    2  501    0 -0.13194669603E+03 -0.13566028029E+03  0.17109705770E+03  0.25512319650E+03  0.00000000000E+00 0.  1.
         -4    1    1    2    0  503 -0.11005533954E+03  0.84295510467E+02  0.51779665486E+03  0.53603291562E+03  0.00000000000E+00 0. -1.
<mgrwt>
<rscale>  4 0.67619538E+03</rscale>
<asrwt>0</asrwt>
<pdfrwt beam="1">  1       21 0.22902351E+00 0.67619538E+03</pdfrwt>
<pdfrwt beam="2">  1       21 0.11813474E-01 0.67619538E+03</pdfrwt>
<totfact> 0.42242710E+03</totfact>
</mgrwt>
</event>
<event>
 5    0  0.3372079E-003  0.1008215E+04  0.7546771E-02  0.9299580E-01
         21   -1    0    0  501  502  0.00000000000E+00  0.00000000000E+00  0.40128048124E+03  0.40128048124E+03  0.00000000000E+00 0. -1.
         21   -1    0    0  502  503 -0.00000000000E+00 -0.00000000000E+00 -0.63328375047E+03  0.63328375047E+03  0.00000000000E+00 0. -1.
         25    1    1    2    0    0  0.23455772865E+03  0.38154278188E+03 -0.11942094909E+03  0.48008185298E+03  0.12500000000E+03 0.  0.
          3    1    1    2  501    0 -0.17235528429E+03 -0.29018844089E+03 -0.21796179500E+03  0.40177483661E+03  0.00000000000E+00 0. -1.
         -3    1    1    2    0  503 -0.62202444368E+02 -0.91354340988E+02  0.10537947486E+03  0.15270754213E+03  0.00000000000E+00 0.  1.
<mgrwt>
<rscale>  4 0.10082151E+04</rscale>
<asrwt>0</asrwt>
<pdfrwt beam="1">  1       21 0.61735459E-01 0.10082151E+04</pdfrwt>
<pdfrwt beam="2">  1       21 0.97428269E-01 0.10082151E+04</pdfrwt>
<totfact> 0.16007641E+03</totfact>
</mgrwt>
</event>
<event>
 5    0  0.3372079E-003  0.5436142E+03  0.7546771E-02  0.1002983E+00
         21   -1    0    0  501  502  0.00000000000E+00  0.00000000000E+00  0.45900709058E+03  0.45900709058E+03  0.00000000000E+00 0.  1.
         21   -1    0    0  502  503 -0.00000000000E+00 -0.00000000000E+00 -0.16095416242E+03  0.16095416242E+03  0.00000000000E+00 0.  1.
         25    1    1    2    0    0 -0.24093937944E+03 -0.36213248335E+02  0.11533277075E+03  0.29713604953E+03  0.12500000000E+03 0.  0.
          4    1    1    2  501    0  0.42183989372E+02  0.40629207949E+02  0.79723532062E+02  0.98924532157E+02  0.00000000000E+00 0. -1.
         -4    1    1    2    0  503  0.19875539007E+03 -0.44159596147E+01  0.10299662535E+03  0.22390067131E+03  0.00000000000E+00 0.  1.
<mgrwt>
<rscale>  4 0.54361421E+03</rscale>
<asrwt>0</asrwt>
<pdfrwt beam="1">  1       21 0.70616475E-01 0.54361421E+03</pdfrwt>
<pdfrwt beam="2">  1       21 0.24762179E-01 0.54361421E+03</pdfrwt>
<totfact> 0.24925245E+04</totfact>
</mgrwt>
</event>
<event>
 5    0  0.3372079E-003  0.5936419E+03  0.7546771E-02  0.9918686E-01
         21   -1    0    0  503  502  0.00000000000E+00  0.00000000000E+00  0.15175609295E+03  0.15175609295E+03  0.00000000000E+00 0. -1.
         21   -1    0    0  501  503 -0.00000000000E+00 -0.00000000000E+00 -0.58055437191E+03  0.58055437191E+03  0.00000000000E+00 0. -1.
         25    1    1    2    0    0  0.63366397483E+02  0.22274854455E+03 -0.51424078744E+02  0.26814483084E+03  0.12500000000E+03 0.  0.
          1    1    1    2  501    0 -0.39688490772E+02 -0.20735014515E+03 -0.38110852490E+03  0.43567529967E+03  0.00000000000E+00 0. -1.
         -1    1    1    2    0  502 -0.23677906711E+02 -0.15398399400E+02  0.37343246887E+01  0.28490334347E+02  0.00000000000E+00 0.  1.
<mgrwt>
<rscale>  4 0.59364186E+03</rscale>
<asrwt>0</asrwt>
<pdfrwt beam="1">  1       21 0.23347092E-01 0.59364186E+03</pdfrwt>
<pdfrwt beam="2">  1       21 0.89316055E-01 0.59364186E+03</pdfrwt>
<totfact> 0.16036495E+04</totfact>
</mgrwt>
</event>
<event>
 5    0  0.3372079E-003  0.6492951E+03  0.7546771E-02  0.9808103E-01
         21   -1    0    0  501  502  0.00000000000E+00  0.00000000000E+00  0.27367744017E+03  0.27367744017E+03  0.00000000000E+00 0. -1.
         21   -1    0    0  502  503 -0.00000000000E+00 -0.00000000000E+00 -0.38511044545E+03  0.38511044545E+03  0.00000000000E+00 0. -1.
         25    1    1    2    0    0 -0.12156144267E+03 -0.26684645496E+03  0.34542617547E+02  0.32062814489E+03  0.12500000000E+03 0.  0.
          1    1    1    2  501    0 -0.68901267274E+01  0.46467858493E+02 -0.64619235334E+01  0.47418268368E+02  0.00000000000E+00 0.  1.
         -1    1    1    2    0  503  0.12845156940E+03  0.22037859647E+03 -0.13951369929E+03  0.29074147236E+03  0.00000000000E+00 0. -1.
<mgrwt>
<rscale>  4 0.64929513E+03</rscale>
<asrwt>0</asrwt>
<pdfrwt beam="1">  1       21 0.42104221E-01 0.64929513E+03</pdfrwt>
<pdfrwt beam="2">  1       21 0.59247761E-01 0.64929513E+03</pdfrwt>
<totfact> 0.12381989E+04</totfact>
</mgrwt>
</event>
<event>
 5    0  0.3372079E-003  0.8543760E+03  0.7546771E-02  0.9484482E-01
         21   -1    0    0  503  502  0.00000000000E+00  0.00000000000E+00  0.88464531022E+03  0.88464531022E+03  0.00000000000E+00 0. -1.
         21   -1    0    0  501  503 -0.00000000000E+00 -0.00000000000E+00 -0.20628559174E+03  0.20628559174E+03  0.00000000000E+00 0. -1.
         25    1    1    2    0    0 -0.24050250623E+03  0.25012681846E+03  0.43460059891E+03  0.57000663275E+03  0.12500000000E+03 0.  0.
          3    1    1    2  501    0 -0.45798495841E+02 -0.13865651331E+03  0.37138865053E+02  0.15067324316E+03  0.00000000000E+00 0.  1.
         -3    1    1    2    0  502  0.28630100207E+03 -0.11147030514E+03  0.20662025452E+03  0.37025102605E+03  0.00000000000E+00 0. -1.
<mgrwt>
<rscale>  4 0.85437599E+03</rscale>
<asrwt>0</asrwt>
<pdfrwt beam="1">  1       21 0.13609928E+00 0.85437599E+03</pdfrwt>
<pdfrwt beam="2">  1       21 0.31736245E-01 0.85437599E+03</pdfrwt>
<totfact> 0.28666930E+03</totfact>
</mgrwt>
</event>
<event>
 5    0  0.3372079E-003  0.7440392E+03  0.7546771E-02  0.9644749E-01
         21   -1    0    0  503  502  0.00000000000E+00  0.00000000000E+00  0.20942779992E+04  0.20942779992E+04  0.00000000000E+00 0.  1.
         21   -1    0    0  501  503 -0.00000000000E+00 -0.00000000000E+00 -0.66084142306E+02  0.66084142306E+02  0.00000000000E+00 0.  1.
         25    1    1    2    0    0 -0.13473977962E+03 -0.21324930656E+03  0.17380739468E+04  0.17607260206E+04  0.12500000000E+03 0.  0.
          1    1    1    2  501    0  0.36610206271E+02  0.27068551292E+02  0.58001043782E+01  0.45898310241E+02  0.00000000000E+00 0. -1.
         -1    1    1    2    0  502  0.98129573352E+02  0.18618075527E+03  0.28431980575E+03  0.35373781073E+03  0.00000000000E+00 0.  1.
<mgrwt>
<rscale>  4 0.74403915E+03</rscale>
<asrwt>0</asrwt>
<pdfrwt beam="1">  1       21 0.32219656E+00 0.74403915E+03</pdfrwt>
<pdfrwt beam="2">  1       21 0.10166793E-01 0.74403915E+03</pdfrwt>
<totfact> 0.14395560E+03</totfact>
</mgrwt>
</event>
