<event>
 5    0  0.1911311E+001  0.3352747E+03  0.7546771E-02  0.1068827E+00
         21   -1    0    0  502  501  0.00000000000E+00  0.00000000000E+00  0.96728020915E+03  0.96728020915E+03  0.00000000000E+00 0.  1.
         21   -1    0    0  504  502 -0.00000000000E+00 -0.00000000000E+00 -0.16142265776E+03  0.16142265776E+03  0.00000000000E+00 0.  1.
         25    1    1    2    0    0  0.88952805460E+02  0.31060178413E+03  0.20743357720E+03  0.40378182085E+03  0.12500000000E+03 0.  0.
         21    1    1    2  503  501 -0.65423822560E+00 -0.26703065558E+02  0.30848187445E+03  0.30963615520E+03  0.00000000000E+00 0.  1.
         21    1    1    2  504  503 -0.88298567234E+02 -0.28389871857E+03  0.28994209973E+03  0.41528489086E+03  0.00000000000E+00 0.  1.
<mgrwt>
<rscale>  4 0.33527469E+03</rscale>
<asrwt>0</asrwt>
<pdfrwt beam="1">  1       21 0.14881234E+00 0.33527469E+03</pdfrwt>
<pdfrwt beam="2">  1       21 0.24834256E-01 0.33527469E+03</pdfrwt>
<totfact> 0.42655038E+03</totfact>
</mgrwt>
</event>
<event>
 5    0  0.1911311E+001  0.3621992E+03  0.7546771E-02  0.1057716E+00
         21   -1    0    0  503  501  0.00000000000E+00  0.00000000000E+00  0.17183202770E+03  0.17183202770E+03  0.00000000000E+00 0.  1.
         21   -1    0    0  501  502 -0.00000000000E+00 -0.00000000000E+00 -0.13225871878E+04  0.13225871878E+04  0.00000000000E+00 0.  1.
         25    1    1    2    0    0 -0.18311073962E+02  0.38848925958E+03 -0.87084466566E+03  0.96190157082E+03  0.12500000000E+03 0.  0.
         21    1    1    2  503  504 -0.34293348718E+02 -0.28000599594E+03 -0.29829451933E+03  0.41055938887E+03  0.00000000000E+00 0.  1.
         21    1    1    2  504  502  0.52604422679E+02 -0.10848326364E+03  0.18384024931E+02  0.12195825576E+03  0.00000000000E+00 0.  1.
<mgrwt>
<rscale>  4 0.36219917E+03</rscale>
<asrwt>0</asrwt>
<pdfrwt beam="1">  1       21 0.26435697E-01 0.36219917E+03</pdfrwt>
<pdfrwt beam="2">  1       21 0.20347495E+00 0.36219917E+03</pdfrwt>
<totfact> 0.15232551E+03</totfact>
</mgrwt>
</event>
<event>
 5    0  0.1911311E+001  0.3079745E+03  0.7546771E-02  0.1081321E+00
         21   -1    0    0  502  501  0.00000000000E+00  0.00000000000E+00  0.44108139970E+03  0.44108139970E+03  0.00000000000E+00 0.  1.
         21   -1    0    0  504  502 -0.00000000000E+00 -0.00000000000E+00 -0.77817322238E+03  0.77817322238E+03  0.00000000000E+00 0. -1.
         25    1    1    2    0    0 -0.11249321501E+03  0.21875710494E+03  0.32619447785E+03  0.42724376153E+03  0.12500000000E+03 0.  0.
         21    1    1    2  503  501 -0.23408318739E+02  0.30753229734E+02  0.25921578990E+02  0.46536424257E+02  0.00000000000E+00 0. -1.
         21    1    1    2  504  503  0.13590153375E+03 -0.24951033467E+03 -0.68920787952E+03  0.74547443630E+03  0.00000000000E+00 0. -1.
<mgrwt>
<rscale>  4 0.30797449E+03</rscale>
<asrwt>0</asrwt>
<pdfrwt beam="1">  1       21 0.67858678E-01 0.30797449E+03</pdfrwt>
<pdfrwt beam="2">  1       21 0.11971896E+00 0.30797449E+03</pdfrwt>
<totfact> 0.96010872E+02</totfact>
</mgrwt>
</event>
<event>
 5    0  0.1911311E+001  0.2067586E+03  0.7546771E-02  0.1144159E+00
         21   -1    0    0  502  501  0.00000000000E+00  0.00000000000E+00  0.46033666955E+03  0.46033666955E+03  0.00000000000E+00 0. -1.
         21   -1    0    0  504  502 -0.00000000000E+00 -0.00000000000E+00 -0.76327117755E+03  0.76327117755E+03  0.00000000000E+00 0.  1.
         25    1    1    2    0    0  0.20939599572E+03  0.76370746556E+01  0.25193246982E+03  0.35071352595E+03  0.12500000000E+03 0.  0.
         21    1    1    2  503  501 -0.64629724434E+02  0.69232030546E+02  0.13439326840E+03  0.16441297372E+03  0.00000000000E+00 0. -1.
         21    1    1    2  504  503 -0.14476627128E+03 -0.76869105201E+02 -0.68926024623E+03  0.70848134744E+03  0.00000000000E+00 0.  1.
<mgrwt>
<rscale>  4 0.20675855E+03</rscale>
<asrwt>0</asrwt>
<pdfrwt beam="1">  1       21 0.70821027E-01 0.20675855E+03</pdfrwt>
<pdfrwt beam="2">  1       21 0.11742633E+00 0.20675855E+03</pdfrwt>
<totfact> 0.99195748E+02</totfact>
</mgrwt>
</event>
