<event>
 5    0  0.1257040E+001  0.2449318E+03  0.7546771E-02  0.1116550E+00
         21   -1    0    0  503  501  0.00000000000E+00  0.00000000000E+00  0.23121105599E+04  0.23121105599E+04  0.00000000000E+00 0. -1.
         21   -1    0    0  504  502 -0.00000000000E+00 -0.00000000000E+00 -0.96512372458E+02  0.96512372458E+02  0.00000000000E+00 0. -1.
         25    1    1    2    0    0 -0.24065607517E+03  0.90162466064E+02  0.17255078510E+03  0.33383137995E+03  0.12500000000E+03 0.  0.
         21    1    1    2  503  502  0.11889319528E+03 -0.81400869302E+02  0.36652251845E+03  0.39382794459E+03  0.00000000000E+00 0. -1.
         21    1    1    2  504  501  0.12176287989E+03 -0.87615967612E+01  0.16765248839E+04  0.16809636078E+04  0.00000000000E+00 0. -1.
<mgrwt>
<rscale>  4 0.24493179E+03</rscale>
<asrwt>0</asrwt>
<pdfrwt beam="1">  1       21 0.35570927E+00 0.24493179E+03</pdfrwt>
<pdfrwt beam="2">  1       21 0.14848059E-01 0.24493179E+03</pdfrwt>
<totfact> 0.60218522E+02</totfact>
</mgrwt>
</event>
<event>
 5    0  0.1257040E+001  0.2286518E+03  0.7546771E-02  0.1127592E+00
         21   -1    0    0  504  501  0.00000000000E+00  0.00000000000E+00  0.76724059188E+03  0.76724059188E+03  0.00000000000E+00 0.  1.
         21   -1    0    0  503  502 -0.00000000000E+00 -0.00000000000E+00 -0.23687676156E+03  0.23687676156E+03  0.00000000000E+00 0. -1.
         25    1    1    2    0    0 -0.83911516137E+02 -0.18556682145E+03  0.56570792143E+03  0.61410637526E+03  0.12500000000E+03 0.  0.
         21    1    1    2  503  501  0.97053451850E+02  0.16410133836E+03 -0.16853341476E+03  0.25446440548E+03  0.00000000000E+00 0. -1.
         21    1    1    2  504  502 -0.13141935713E+02  0.21465483092E+02  0.13318932365E+03  0.13554657271E+03  0.00000000000E+00 0.  1.
<mgrwt>
<rscale>  4 0.22865180E+03</rscale>
<asrwt>0</asrwt>
<pdfrwt beam="1">  1       21 0.11803701E+00 0.22865180E+03</pdfrwt>
<pdfrwt beam="2">  1       21 0.36442579E-01 0.22865180E+03</pdfrwt>
<totfact> 0.38821968E+03</totfact>
</mgrwt>
</event>
<event>
 5    0  0.1257040E+001  0.2623794E+03  0.7546771E-02  0.1105722E+00
         21   -1    0    0  502  501  0.00000000000E+00  0.00000000000E+00  0.91371009894E+03  0.91371009894E+03  0.00000000000E+00 0.  1.
         21   -1    0    0  504  502 -0.00000000000E+00 -0.00000000000E+00 -0.46850121262E+03  0.46850121262E+03  0.00000000000E+00 0.  1.
         25    1    1    2    0    0 -0.97714610416E+02 -0.20902386780E+03  0.84104931367E+03  0.88103806412E+03  0.12500000000E+03 0.  0.
         21    1    1    2  503  501 -0.31249742032E+02  0.15888941565E+02  0.74089147564E+01  0.35831506513E+02  0.00000000000E+00 0. -1.
         21    1    1    2  504  503  0.12896435245E+03  0.19313492623E+03 -0.40324934211E+03  0.46534174093E+03  0.00000000000E+00 0.  1.
<mgrwt>
<rscale>  4 0.26237939E+03</rscale>
<asrwt>0</asrwt>
<pdfrwt beam="1">  1       21 0.14057078E+00 0.26237939E+03</pdfrwt>
<pdfrwt beam="2">  1       21 0.72077110E-01 0.26237939E+03</pdfrwt>
<totfact> 0.57516966E+02</totfact>
</mgrwt>
</event>
<event>
 5    0  0.1257040E+001  0.2499046E+03  0.7546771E-02  0.1113365E+00
         21   -1    0    0  502  501  0.00000000000E+00  0.00000000000E+00  0.49364208692E+03  0.49364208692E+03  0.00000000000E+00 0. -1.
         21   -1    0    0  504  502 -0.00000000000E+00 -0.00000000000E+00 -0.36489621661E+03  0.36489621661E+03  0.00000000000E+00 0. -1.
         25    1    1    2    0    0  0.19550673407E+03 -0.14524564536E+03 -0.16332776036E+03  0.31877913650E+03  0.12500000000E+03 0.  0.
         21    1    1    2  503  501 -0.15867339407E+03  0.14268680332E+03  0.38476859969E+03  0.43998141454E+03  0.00000000000E+00 0. -1.
         21    1    1    2  504  503 -0.36833340002E+02  0.25588420414E+01 -0.92694969035E+02  0.99777752493E+02  0.00000000000E+00 0. -1.
<mgrwt>
<rscale>  4 0.24990460E+03</rscale>
<asrwt>0</asrwt>
<pdfrwt beam="1">  1       21 0.75944937E-01 0.24990460E+03</pdfrwt>
<pdfrwt beam="2">  1       21 0.56137879E-01 0.24990460E+03</pdfrwt>
<totfact> 0.44318602E+03</totfact>
</mgrwt>
</event>
<event>
 5    0  0.1257040E+001  0.2336571E+03  0.7546771E-02  0.1124092E+00
         21   -1    0    0  502  501  0.00000000000E+00  0.00000000000E+00  0.19054589929E+03  0.19054589929E+03  0.00000000000E+00 0. -1.
         21   -1    0    0  504  502 -0.00000000000E+00 -0.00000000000E+00 -0.51780491191E+03  0.51780491191E+03  0.00000000000E+00 0. -1.
         25    1    1    2    0    0  0.61412016948E+02 -0.25084996825E+03 -0.24701184470E+03  0.37859872401E+03  0.12500000000E+03 0.  0.
         21    1    1    2  503  501  0.41488611038E+01  0.18371396203E+03  0.28673346306E+02  0.18598439096E+03  0.00000000000E+00 0. -1.
         21    1    1    2  504  503 -0.65560878051E+02  0.67136006227E+02 -0.10892051422E+03  0.14376769624E+03  0.00000000000E+00 0. -1.
<mgrwt>
<rscale>  4 0.23365712E+03</rscale>
<asrwt>0</asrwt>
<pdfrwt beam="1">  1       21 0.29314755E-01 0.23365712E+03</pdfrwt>
<pdfrwt beam="2">  1       21 0.79662292E-01 0.23365712E+03</pdfrwt>
<totfact> 0.15098051E+04</totfact>
</mgrwt>
</event>
<event>
 5    0  0.1257040E+001  0.2198029E+03  0.7546771E-02  0.1134030E+00
         21   -1    0    0  502  501  0.00000000000E+00  0.00000000000E+00  0.11497859670E+04  0.11497859670E+04  0.00000000000E+00 0.  1.
         21   -1    0    0  504  502 -0.00000000000E+00 -0.00000000000E+00 -0.41426959711E+03  0.41426959711E+03  0.00000000000E+00 0.  1.
         25    1    1    2    0    0 -0.15576923604E+03  0.14352754532E+03 -0.28914600309E+03  0.37959797453E+03  0.12500000000E+03 0.  0.
         21    1    1    2  503  501  0.30319852118E+02 -0.17852764620E+03  0.10378701954E+04  0.10535492187E+04  0.00000000000E+00 0.  1.
         21    1    1    2  504  503  0.12544938393E+03  0.35000100882E+02 -0.13207822361E+02  0.13090837086E+03  0.00000000000E+00 0.  1.
<mgrwt>
<rscale>  4 0.21980286E+03</rscale>
<asrwt>0</asrwt>
<pdfrwt beam="1">  1       21 0.17689015E+00 0.21980286E+03</pdfrwt>
<pdfrwt beam="2">  1       21 0.63733785E-01 0.21980286E+03</pdfrwt>
<totfact> 0.42141095E+02</totfact>
</mgrwt>
</event>
<event>
 5    0  0.1257040E+001  0.2195384E+03  0.7546771E-02  0.1134228E+00
         21   -1    0    0  503  501  0.00000000000E+00  0.00000000000E+00  0.41125967037E+02  0.41125967037E+02  0.00000000000E+00 0. -1.
         21   -1    0    0  504  502 -0.00000000000E+00 -0.00000000000E+00 -0.16223739360E+04  0.16223739360E+04  0.00000000000E+00 0. -1.
         25    1    1    2    0    0 -0.12323755535E+03 -0.17581295213E+03 -0.10113463219E+04  0.10414144574E+04  0.12500000000E+03 0.  0.
         21    1    1    2  503  502  0.99687416786E+02  0.11874190423E+03 -0.52024290757E+03  0.54285348278E+03  0.00000000000E+00 0. -1.
         21    1    1    2  504  501  0.23550138566E+02  0.57071047897E+02 -0.49658739460E+02  0.79231962864E+02  0.00000000000E+00 0. -1.
<mgrwt>
<rscale>  4 0.21953840E+03</rscale>
<asrwt>0</asrwt>
<pdfrwt beam="1">  1       21 0.63270720E-02 0.21953840E+03</pdfrwt>
<pdfrwt beam="2">  1       21 0.24959598E+00 0.21953840E+03</pdfrwt>
<totfact> 0.11750680E+04</totfact>
</mgrwt>
</event>
<event>
 5    0  0.1257040E+001  0.2066267E+03  0.7546771E-02  0.1144265E+00
         21   -1    0    0  504  501  0.00000000000E+00  0.00000000000E+00  0.60001392075E+03  0.60001392075E+03  0.00000000000E+00 0.  1.
         21   -1    0    0  503  502 -0.00000000000E+00 -0.00000000000E+00 -0.29627374207E+03  0.29627374207E+03  0.00000000000E+00 0.  1.
         25    1    1    2    0    0 -0.14982039304E+03  0.20486838158E+03 -0.15135470109E+00  0.28291734986E+03  0.12500000000E+03 0.  0.
         21    1    1    2  503  501  0.11336765816E+03 -0.51938321974E+02 -0.11271256505E+03  0.16808907617E+03  0.00000000000E+00 0.  1.
         21    1    1    2  504  502  0.36452734880E+02 -0.15293005960E+03  0.41660409843E+03  0.44528123680E+03  0.00000000000E+00 0.  1.
<mgrwt>
<rscale>  4 0.20662674E+03</rscale>
<asrwt>0</asrwt>
<pdfrwt beam="1">  1       21 0.92309834E-01 0.20662674E+03</pdfrwt>
<pdfrwt beam="2">  1       21 0.45580576E-01 0.20662674E+03</pdfrwt>
<totfact> 0.45215725E+03</totfact>
</mgrwt>
</event>
<event>
 5    0  0.1257040E+001  0.2401333E+03  0.7546771E-02  0.1119704E+00
         21   -1    0    0  502  501  0.00000000000E+00  0.00000000000E+00  0.66492670437E+03  0.66492670437E+03  0.00000000000E+00 0.  1.
         21   -1    0    0  504  502 -0.00000000000E+00 -0.00000000000E+00 -0.15907081898E+03  0.15907081898E+03  0.00000000000E+00 0.  1.
         25    1    1    2    0    0 -0.21575630293E+03 -0.16617111233E+02  0.22759193979E+03  0.33800887813E+03  0.12500000000E+03 0.  0.
         21    1    1    2  503  501  0.17449862526E+02 -0.18265371820E+02  0.28344750024E+03  0.28457091718E+03  0.00000000000E+00 0. -1.
         21    1    1    2  504  503  0.19830644040E+03  0.34882483053E+02 -0.51835546388E+01  0.20141772804E+03  0.00000000000E+00 0.  1.
<mgrwt>
<rscale>  4 0.24013333E+03</rscale>
<asrwt>0</asrwt>
<pdfrwt beam="1">  1       21 0.10229641E+00 0.24013333E+03</pdfrwt>
<pdfrwt beam="2">  1       21 0.24472434E-01 0.24013333E+03</pdfrwt>
<totfact> 0.11904581E+04</totfact>
</mgrwt>
</event>
<event>
 5    0  0.1257040E+001  0.2768616E+03  0.7546771E-02  0.1097416E+00
         21   -1    0    0  503  501  0.00000000000E+00  0.00000000000E+00  0.28119895437E+03  0.28119895437E+03  0.00000000000E+00 0.  1.
         21   -1    0    0  504  502 -0.00000000000E+00 -0.00000000000E+00 -0.37277185842E+03  0.37277185842E+03  0.00000000000E+00 0.  1.
         25    1    1    2    0    0  0.24190297604E+03 -0.10689202334E+03 -0.76033179065E+02  0.30223996889E+03  0.12500000000E+03 0.  0.
         21    1    1    2  503  502 -0.31460999581E+02 -0.70716716708E+01 -0.94398540058E+02  0.99754134751E+02  0.00000000000E+00 0.  1.
         21    1    1    2  504  501 -0.21044197646E+03  0.11396369501E+03  0.78858815075E+02  0.25197670915E+03  0.00000000000E+00 0.  1.
<mgrwt>
<rscale>  4 0.27686160E+03</rscale>
<asrwt>0</asrwt>
<pdfrwt beam="1">  1       21 0.43261378E-01 0.27686160E+03</pdfrwt>
<pdfrwt beam="2">  1       21 0.57349517E-01 0.27686160E+03</pdfrwt>
<totfact> 0.13993971E+04</totfact>
</mgrwt>
</event>
<event>
 5    0  0.1257040E+001  0.2377513E+03  0.7546771E-02  0.1121300E+00
         21   -1    0    0  504  501  0.00000000000E+00  0.00000000000E+00  0.62120311642E+03  0.62120311642E+03  0.00000000000E+00 0.  1.
         21   -1    0    0  503  502 -0.00000000000E+00 -0.00000000000E+00 -0.13200013767E+03  0.13200013767E+03  0.00000000000E+00 0.  1.
         25    1    1    2    0    0 -0.18675210871E+03 -0.11223376414E+03  0.58793980501E+02  0.25798158861E+03  0.12500000000E+03 0.  0.
         21    1    1    2  503  501  0.12131685390E+02  0.17124387900E+02 -0.12646783867E+00  0.20986625395E+02  0.00000000000E+00 0. -1.
         21    1    1    2  504  502  0.17462042332E+03  0.95109376241E+02  0.43053546609E+03  0.47423504009E+03  0.00000000000E+00 0.  1.
<mgrwt>
<rscale>  4 0.23775132E+03</rscale>
<asrwt>0</asrwt>
<pdfrwt beam="1">  1       21 0.95569708E-01 0.23775132E+03</pdfrwt>
<pdfrwt beam="2">  1       21 0.20307714E-01 0.23775132E+03</pdfrwt>
<totfact> 0.19965925E+04</totfact>
</mgrwt>
</event>
<event>
 5    0  0.1257040E+001  0.2312870E+03  0.7546771E-02  0.1125737E+00
         21   -1    0    0  502  501  0.00000000000E+00  0.00000000000E+00  0.68585227242E+03  0.68585227242E+03  0.00000000000E+00 0.  1.
         21   -1    0    0  504  502 -0.00000000000E+00 -0.00000000000E+00 -0.93755492919E+03  0.93755492919E+03  0.00000000000E+00 0.  1.
         25    1    1    2    0    0 -0.39749579153E+02  0.21695314815E+03  0.42928167735E+03  0.49855436619E+03  0.12500000000E+03 0.  0.
         21    1    1    2  503  501 -0.13425953612E+00 -0.27080340211E+02  0.21063495851E+03  0.21236866199E+03  0.00000000000E+00 0.  1.
         21    1    1    2  504  503  0.39883838689E+02 -0.18987280793E+03 -0.89161929263E+03  0.91248417344E+03  0.00000000000E+00 0.  1.
<mgrwt>
<rscale>  4 0.23128703E+03</rscale>
<asrwt>0</asrwt>
<pdfrwt beam="1">  1       21 0.10551573E+00 0.23128703E+03</pdfrwt>
<pdfrwt beam="2">  1       21 0.14423922E+00 0.23128703E+03</pdfrwt>
<totfact> 0.22863171E+02</totfact>
</mgrwt>
</event>
<event>
 5    0  0.1257040E+001  0.2317644E+03  0.7546771E-02  0.1125404E+00
         21   -1    0    0  502  501  0.00000000000E+00  0.00000000000E+00  0.12981091749E+04  0.12981091749E+04  0.00000000000E+00 0. -1.
         21   -1    0    0  504  502 -0.00000000000E+00 -0.00000000000E+00 -0.63662188237E+02  0.63662188237E+02  0.00000000000E+00 0. -1.
         25    1    1    2    0    0 -0.19538546652E+03 -0.96350800980E+02  0.44675661076E+03  0.51251870857E+03  0.12500000000E+03 0.  0.
         21    1    1    2  503  501  0.15805659217E+03  0.10160186026E+03  0.78946257406E+03  0.81151462105E+03  0.00000000000E+00 0. -1.
         21    1    1    2  504  503  0.37328874353E+02 -0.52510592791E+01 -0.17721981993E+01  0.37738033474E+02  0.00000000000E+00 0.  1.
<mgrwt>
<rscale>  4 0.23176444E+03</rscale>
<asrwt>0</asrwt>
<pdfrwt beam="1">  1       21 0.19970908E+00 0.23176444E+03</pdfrwt>
<pdfrwt beam="2">  1       21 0.97941838E-02 0.23176444E+03</pdfrwt>
<totfact> 0.11010149E+04</totfact>
</mgrwt>
</event>
<event>
 5    0  0.1257040E+001  0.2825986E+03  0.7546771E-02  0.1094278E+00
         21   -1    0    0  502  501  0.00000000000E+00  0.00000000000E+00  0.41382243411E+03  0.41382243411E+03  0.00000000000E+00 0.  1.
         21   -1    0    0  504  502 -0.00000000000E+00 -0.00000000000E+00 -0.26087205142E+03  0.26087205142E+03  0.00000000000E+00 0. -1.
         25    1    1    2    0    0 -0.13100151094E+03  0.21979645645E+03 -0.72074315543E+02  0.29375429375E+03  0.12500000000E+03 0.  0.
         21    1    1    2  503  501  0.15088045329E+03 -0.20312687142E+03  0.24184564638E+03  0.35002107615E+03  0.00000000000E+00 0.  1.
         21    1    1    2  504  503 -0.19878942351E+02 -0.16669585031E+02 -0.16820948156E+02  0.30919115624E+02  0.00000000000E+00 0.  1.
<mgrwt>
<rscale>  4 0.28259864E+03</rscale>
<asrwt>0</asrwt>
<pdfrwt beam="1">  1       21 0.63664990E-01 0.28259864E+03</pdfrwt>
<pdfrwt beam="2">  1       21 0.40134162E-01 0.28259864E+03</pdfrwt>
<totfact> 0.12975839E+04</totfact>
</mgrwt>
</event>
<event>
 5    0  0.1257040E+001  0.3046926E+03  0.7546771E-02  0.1082918E+00
         21   -1    0    0  503  501  0.00000000000E+00  0.00000000000E+00  0.15550694336E+03  0.15550694336E+03  0.00000000000E+00 0.  1.
         21   -1    0    0  504  502 -0.00000000000E+00 -0.00000000000E+00 -0.72157430691E+03  0.72157430691E+03  0.00000000000E+00 0.  1.
         25    1    1    2    0    0  0.27930187924E+03 -0.97489733324E+02 -0.30882580304E+03  0.44554703957E+03  0.12500000000E+03 0.  0.
         21    1    1    2  503  502 -0.25029191988E+02  0.13095709193E+02 -0.13344632872E+03  0.13640337496E+03  0.00000000000E+00 0.  1.
         21    1    1    2  504  501 -0.25427268725E+03  0.84394024131E+02 -0.12379523179E+03  0.29513083574E+03  0.00000000000E+00 0.  1.
<mgrwt>
<rscale>  4 0.30469263E+03</rscale>
<asrwt>0</asrwt>
<pdfrwt beam="1">  1       21 0.23924145E-01 0.30469263E+03</pdfrwt>
<pdfrwt beam="2">  1       21 0.11101143E+00 0.30469263E+03</pdfrwt>
<totfact> 0.98602181E+03</totfact>
</mgrwt>
</event>
<event>
 5    0  0.1257040E+001  0.2904202E+03  0.7546771E-02  0.1090130E+00
         21   -1    0    0  502  501  0.00000000000E+00  0.00000000000E+00  0.35178440201E+03  0.35178440201E+03  0.00000000000E+00 0. -1.
         21   -1    0    0  504  502 -0.00000000000E+00 -0.00000000000E+00 -0.11647375087E+04  0.11647375087E+04  0.00000000000E+00 0. -1.
         25    1    1    2    0    0  0.22637498892E+03 -0.88496296100E+02  0.23672381004E+03  0.36158040914E+03  0.12500000000E+03 0.  0.
         21    1    1    2  503  501  0.25837369361E+02  0.13269364341E+02  0.31114972520E+02  0.42565093685E+02  0.00000000000E+00 0. -1.
         21    1    1    2  504  503 -0.25221235828E+03  0.75226931759E+02 -0.10807918892E+04  0.11123764078E+04  0.00000000000E+00 0. -1.
<mgrwt>
<rscale>  4 0.29042018E+03</rscale>
<asrwt>0</asrwt>
<pdfrwt beam="1">  1       21 0.54120678E-01 0.29042018E+03</pdfrwt>
<pdfrwt beam="2">  1       21 0.17919038E+00 0.29042018E+03</pdfrwt>
<totfact> 0.54186863E+02</totfact>
</mgrwt>
</event>
<event>
 5    0  0.1257040E+001  0.2767676E+03  0.7546771E-02  0.1097468E+00
         21   -1    0    0  504  501  0.00000000000E+00  0.00000000000E+00  0.97128482214E+03  0.97128482214E+03  0.00000000000E+00 0.  1.
         21   -1    0    0  503  502 -0.00000000000E+00 -0.00000000000E+00 -0.18988040678E+03  0.18988040678E+03  0.00000000000E+00 0.  1.
         25    1    1    2    0    0  0.14670465475E+03 -0.19164307240E+03  0.29833013194E+02  0.27343067056E+03  0.12500000000E+03 0.  0.
         21    1    1    2  503  501 -0.32127431643E+02 -0.28637085397E+02 -0.39619404586E+02  0.58497450746E+02  0.00000000000E+00 0.  1.
         21    1    1    2  504  502 -0.11457722310E+03  0.22028015780E+03  0.79119080675E+03  0.82923710762E+03  0.00000000000E+00 0.  1.
<mgrwt>
<rscale>  4 0.27676762E+03</rscale>
<asrwt>0</asrwt>
<pdfrwt beam="1">  1       21 0.14942843E+00 0.27676762E+03</pdfrwt>
<pdfrwt beam="2">  1       21 0.29212371E-01 0.27676762E+03</pdfrwt>
<totfact> 0.31781618E+03</totfact>
</mgrwt>
</event>
<event>
 5    0  0.1257040E+001  0.2838114E+03  0.7546771E-02  0.1093625E+00
         21   -1    0    0  502  501  0.00000000000E+00  0.00000000000E+00  0.12826474042E+03  0.12826474042E+03  0.00000000000E+00 0. -1.
         21   -1    0    0  504  502 -0.00000000000E+00 -0.00000000000E+00 -0.74343717229E+03  0.74343717229E+03  0.00000000000E+00 0. -1.
         25    1    1    2    0    0  0.22861445919E+03 -0.16290480512E+03 -0.34488699822E+03  0.46192487270E+03  0.12500000000E+03 0.  0.
         21    1    1    2  503  501 -0.18974243641E+03  0.14829613365E+03 -0.15288905872E+03  0.28525251919E+03  0.00000000000E+00 0. -1.
         21    1    1    2  504  503 -0.38872022787E+02  0.14608671465E+02 -0.11739637493E+03  0.12452452082E+03  0.00000000000E+00 0.  1.
<mgrwt>
<rscale>  4 0.28381136E+03</rscale>
<asrwt>0</asrwt>
<pdfrwt beam="1">  1       21 0.19733037E-01 0.28381136E+03</pdfrwt>
<pdfrwt beam="2">  1       21 0.11437495E+00 0.28381136E+03</pdfrwt>
<totfact> 0.13342559E+04</totfact>
</mgrwt>
</event>
<event>
 5    0  0.1257040E+001  0.2876578E+03  0.7546771E-02  0.1091578E+00
         21   -1    0    0  504  501  0.00000000000E+00  0.00000000000E+00  0.21424871155E+03  0.21424871155E+03  0.00000000000E+00 0.  1.
         21   -1    0    0  501  502 -0.00000000000E+00 -0.00000000000E+00 -0.76251700927E+03  0.76251700927E+03  0.00000000000E+00 0.  1.
         25    1    1    2    0    0 -0.24723613619E+03  0.82123994817E+02  0.28779100421E+02  0.29038473477E+03  0.12500000000E+03 0.  0.
         21    1    1    2  503  502  0.36738773021E+02  0.78168812964E+02 -0.58754740877E+02  0.10446157350E+03  0.00000000000E+00 0. -1.
         21    1    1    2  504  503  0.21049736317E+03 -0.16029280778E+03 -0.51829265727E+03  0.58191941255E+03  0.00000000000E+00 0.  1.
<mgrwt>
<rscale>  4 0.28765777E+03</rscale>
<asrwt>0</asrwt>
<pdfrwt beam="1">  1       21 0.32961340E-01 0.28765777E+03</pdfrwt>
<pdfrwt beam="2">  1       21 0.11731031E+00 0.28765777E+03</pdfrwt>
<totfact> 0.46399517E+03</totfact>
</mgrwt>
</event>
<event>
 5    0  0.1257040E+001  0.2540023E+03  0.7546771E-02  0.1110801E+00
         21   -1    0    0  502  501  0.00000000000E+00  0.00000000000E+00  0.13743542869E+04  0.13743542869E+04  0.00000000000E+00 0.  1.
         21   -1    0    0  504  502 -0.00000000000E+00 -0.00000000000E+00 -0.18463298438E+03  0.18463298438E+03  0.00000000000E+00 0.  1.
         25    1    1    2    0    0 -0.21162767181E+03  0.57628301150E+02 -0.67320783420E+02  0.26127453081E+03  0.12500000000E+03 0.  0.
         21    1    1    2  503  501  0.20111328371E+03 -0.92562295957E+02  0.12358470801E+04  0.12555207433E+04  0.00000000000E+00 0.  1.
         21    1    1    2  504  503  0.10514388106E+02  0.34933994806E+02  0.21195005844E+02  0.42191997145E+02  0.00000000000E+00 0. -1.
<mgrwt>
<rscale>  4 0.25400228E+03</rscale>
<asrwt>0</asrwt>
<pdfrwt beam="1">  1       21 0.21143911E+00 0.25400228E+03</pdfrwt>
<pdfrwt beam="2">  1       21 0.28405075E-01 0.25400228E+03</pdfrwt>
<totfact> 0.12678453E+03</totfact>
</mgrwt>
</event>
<event>
 5    0  0.1257040E+001  0.2496146E+03  0.7546771E-02  0.1113549E+00
         21   -1    0    0  502  501  0.00000000000E+00  0.00000000000E+00  0.22701995285E+04  0.22701995285E+04  0.00000000000E+00 0.  1.
         21   -1    0    0  504  502 -0.00000000000E+00 -0.00000000000E+00 -0.35950934238E+02  0.35950934238E+02  0.00000000000E+00 0.  1.
         25    1    1    2    0    0 -0.16745534520E+03  0.17249609730E+03  0.10373391722E+04  0.10721444652E+04  0.12500000000E+03 0.  0.
         21    1    1    2  503  501  0.12522800288E+03 -0.16108289840E+03  0.11568077314E+04  0.11746633051E+04  0.00000000000E+00 0.  1.
         21    1    1    2  504  503  0.42227342315E+02 -0.11413198896E+02  0.40101690687E+02  0.59342692423E+02  0.00000000000E+00 0.  1.
<mgrwt>
<rscale>  4 0.24961464E+03</rscale>
<asrwt>0</asrwt>
<pdfrwt beam="1">  1       21 0.34926135E+00 0.24961464E+03</pdfrwt>
<pdfrwt beam="2">  1       21 0.55309148E-02 0.24961464E+03</pdfrwt>
<totfact> 0.37495750E+03</totfact>
</mgrwt>
</event>
<event>
 5    0  0.1257040E+001  0.2713168E+03  0.7546771E-02  0.1100528E+00
         21   -1    0    0  504  501  0.00000000000E+00  0.00000000000E+00  0.12547700185E+03  0.12547700185E+03  0.00000000000E+00 0. -1.
         21   -1    0    0  503  502 -0.00000000000E+00 -0.00000000000E+00 -0.13546810816E+04  0.13546810816E+04  0.00000000000E+00 0.  1.
         25    1    1    2    0    0 -0.27938613159E+03  0.43673543730E+02 -0.17001659316E+03  0.35283796692E+03  0.12500000000E+03 0.  0.
         21    1    1    2  503  501  0.23503722559E+03 -0.48584304209E+01 -0.10386281264E+04  0.10649011628E+04  0.00000000000E+00 0.  1.
         21    1    1    2  504  502  0.44348906002E+02 -0.38815113309E+02 -0.20559360218E+02  0.62418953671E+02  0.00000000000E+00 0. -1.
<mgrwt>
<rscale>  4 0.27131684E+03</rscale>
<asrwt>0</asrwt>
<pdfrwt beam="1">  1       21 0.19304155E-01 0.27131684E+03</pdfrwt>
<pdfrwt beam="2">  1       21 0.20841247E+00 0.27131684E+03</pdfrwt>
<totfact> 0.27349682E+03</totfact>
</mgrwt>
</event>
<event>
 5    0  0.1257040E+001  0.2338097E+03  0.7546771E-02  0.1123987E+00
         21   -1    0    0  502  501  0.00000000000E+00  0.00000000000E+00  0.27350972803E+03  0.27350972803E+03  0.00000000000E+00 0. -1.
         21   -1    0    0  504  502 -0.00000000000E+00 -0.00000000000E+00 -0.41363340082E+03  0.41363340082E+03  0.00000000000E+00 0. -1.
         25    1    1    2    0    0  0.20210605503E+03  0.45718430423E+02  0.16047981243E+03  0.29037183499E+03  0.12500000000E+03 0.  0.
         21    1    1    2  503  501 -0.14608893936E+03 -0.98987001489E+02 -0.17015325944E+03  0.24513779057E+03  0.00000000000E+00 0. -1.
         21    1    1    2  504  503 -0.56017115670E+02  0.53268571066E+02 -0.13045022578E+03  0.15163350328E+03  0.00000000000E+00 0. -1.
<mgrwt>
<rscale>  4 0.23380966E+03</rscale>
<asrwt>0</asrwt>
<pdfrwt beam="1">  1       21 0.42078420E-01 0.23380966E+03</pdfrwt>
<pdfrwt beam="2">  1       21 0.63635907E-01 0.23380966E+03</pdfrwt>
<totfact> 0.12090141E+04</totfact>
</mgrwt>
</event>
<event>
 5    0  0.1257040E+001  0.3234760E+03  0.7546771E-02  0.1074061E+00
         21   -1    0    0  504  501  0.00000000000E+00  0.00000000000E+00  0.56853378151E+03  0.56853378151E+03  0.00000000000E+00 0.  1.
         21   -1    0    0  503  502 -0.00000000000E+00 -0.00000000000E+00 -0.80998205137E+03  0.80998205137E+03  0.00000000000E+00 0.  1.
         25    1    1    2    0    0  0.11114968659E+03 -0.28968812148E+03 -0.65212565641E+03  0.73291632012E+03  0.12500000000E+03 0.  0.
         21    1    1    2  503  501 -0.10188165333E+03  0.23537242249E+03  0.26895784234E+02  0.25788259298E+03  0.00000000000E+00 0.  1.
         21    1    1    2  504  502 -0.92680332630E+01  0.54315698985E+02  0.38378160232E+03  0.38771691977E+03  0.00000000000E+00 0.  1.
<mgrwt>
<rscale>  4 0.32347602E+03</rscale>
<asrwt>0</asrwt>
<pdfrwt beam="1">  1       21 0.87466737E-01 0.32347602E+03</pdfrwt>
<pdfrwt beam="2">  1       21 0.12461262E+00 0.32347602E+03</pdfrwt>
<totfact> 0.48216571E+02</totfact>
</mgrwt>
</event>
<event>
 5    0  0.1257040E+001  0.2675009E+03  0.7546771E-02  0.1102718E+00
         21   -1    0    0  502  501  0.00000000000E+00  0.00000000000E+00  0.23032459014E+03  0.23032459014E+03  0.00000000000E+00 0. -1.
         21   -1    0    0  504  502 -0.00000000000E+00 -0.00000000000E+00 -0.40724873950E+03  0.40724873950E+03  0.00000000000E+00 0. -1.
         25    1    1    2    0    0 -0.12459695692E+03 -0.19668060316E+03  0.55602397121E+02  0.27004497385E+03  0.12500000000E+03 0.  0.
         21    1    1    2  503  501  0.10246482781E+03  0.22418133226E+03 -0.18433793906E+03  0.30779341522E+03  0.00000000000E+00 0. -1.
         21    1    1    2  504  503  0.22132129113E+02 -0.27500729102E+02 -0.48188607416E+02  0.59734940570E+02  0.00000000000E+00 0. -1.
<mgrwt>
<rscale>  4 0.26750091E+03</rscale>
<asrwt>0</asrwt>
<pdfrwt beam="1">  1       21 0.35434552E-01 0.26750091E+03</pdfrwt>
<pdfrwt beam="2">  1       21 0.62653652E-01 0.26750091E+03</pdfrwt>
<totfact> 0.17405456E+04</totfact>
</mgrwt>
</event>
<event>
 5    0  0.1257040E+001  0.2894818E+03  0.7546771E-02  0.1090620E+00
         21   -1    0    0  504  501  0.00000000000E+00  0.00000000000E+00  0.68006285536E+03  0.68006285536E+03  0.00000000000E+00 0. -1.
         21   -1    0    0  503  502 -0.00000000000E+00 -0.00000000000E+00 -0.44982884816E+03  0.44982884816E+03  0.00000000000E+00 0.  1.
         25    1    1    2    0    0 -0.87813737412E+01 -0.19996974549E+03 -0.14876845146E+02  0.23645577210E+03  0.12500000000E+03 0.  0.
         21    1    1    2  503  501  0.10338000882E+03  0.28813477894E+03 -0.24151521970E+03  0.38992137465E+03  0.00000000000E+00 0.  1.
         21    1    1    2  504  502 -0.94598635076E+02 -0.88165033453E+02  0.48662607205E+03  0.50351455677E+03  0.00000000000E+00 0. -1.
<mgrwt>
<rscale>  4 0.28948181E+03</rscale>
<asrwt>0</asrwt>
<pdfrwt beam="1">  1       21 0.10462505E+00 0.28948181E+03</pdfrwt>
<pdfrwt beam="2">  1       21 0.69204438E-01 0.28948181E+03</pdfrwt>
<totfact> 0.12960044E+03</totfact>
</mgrwt>
</event>
<event>
 5    0  0.1257040E+001  0.3040441E+03  0.7546771E-02  0.1083236E+00
         21   -1    0    0  503  501  0.00000000000E+00  0.00000000000E+00  0.88983142197E+03  0.88983142197E+03  0.00000000000E+00 0. -1.
         21   -1    0    0  504  502 -0.00000000000E+00 -0.00000000000E+00 -0.14302948915E+03  0.14302948915E+03  0.00000000000E+00 0. -1.
         25    1    1    2    0    0  0.26918489493E+03 -0.48643800385E+02  0.45828844158E+03  0.54816058109E+03  0.12500000000E+03 0.  0.
         21    1    1    2  503  502 -0.28060917269E+03 -0.20138498020E+02  0.12678045858E+03  0.30857795057E+03  0.00000000000E+00 0. -1.
         21    1    1    2  504  501  0.11424277757E+02  0.68782298405E+02  0.16173303266E+03  0.17612237947E+03  0.00000000000E+00 0. -1.
<mgrwt>
<rscale>  4 0.30404412E+03</rscale>
<asrwt>0</asrwt>
<pdfrwt beam="1">  1       21 0.13689714E+00 0.30404412E+03</pdfrwt>
<pdfrwt beam="2">  1       21 0.22004537E-01 0.30404412E+03</pdfrwt>
<totfact> 0.68154864E+03</totfact>
</mgrwt>
</event>
<event>
 5    0  0.1257040E+001  0.4891176E+03  0.7546771E-02  0.1016659E+00
         21   -1    0    0  502  501  0.00000000000E+00  0.00000000000E+00  0.12654395825E+03  0.12654395825E+03  0.00000000000E+00 0. -1.
         21   -1    0    0  504  502 -0.00000000000E+00 -0.00000000000E+00 -0.27174568357E+04  0.27174568357E+04  0.00000000000E+00 0. -1.
         25    1    1    2    0    0 -0.48266537421E+03 -0.36732547864E+02 -0.68207155871E+03  0.84567236844E+03  0.12500000000E+03 0.  0.
         21    1    1    2  503  501  0.45691026521E+03 -0.33153233099E+02 -0.11818418847E+04  0.12675237149E+04  0.00000000000E+00 0. -1.
         21    1    1    2  504  503  0.25755109005E+02  0.69885780962E+02 -0.72699943406E+03  0.73080471067E+03  0.00000000000E+00 0.  1.
<mgrwt>
<rscale>  4 0.48911765E+03</rscale>
<asrwt>0</asrwt>
<pdfrwt beam="1">  1       21 0.19468299E-01 0.48911765E+03</pdfrwt>
<pdfrwt beam="2">  1       21 0.41807032E+00 0.48911765E+03</pdfrwt>
<totfact> 0.11952253E+02</totfact>
</mgrwt>
</event>
<event>
 5    0  0.1257040E+001  0.3812635E+03  0.7546771E-02  0.1050468E+00
         21   -1    0    0  502  501  0.00000000000E+00  0.00000000000E+00  0.33057923511E+03  0.33057923511E+03  0.00000000000E+00 0. -1.
         21   -1    0    0  504  502 -0.00000000000E+00 -0.00000000000E+00 -0.50391737552E+03  0.50391737552E+03  0.00000000000E+00 0. -1.
         25    1    1    2    0    0  0.10225555810E+03 -0.34796940065E+03 -0.14046983812E+03  0.40852867509E+03  0.12500000000E+03 0.  0.
         21    1    1    2  503  501  0.58061137381E+02  0.25390725025E+02  0.60168753971E+01  0.63655222730E+02  0.00000000000E+00 0. -1.
         21    1    1    2  504  503 -0.16031669548E+03  0.32257867563E+03 -0.38885177692E+02  0.36231271281E+03  0.00000000000E+00 0. -1.
<mgrwt>
<rscale>  4 0.38126350E+03</rscale>
<asrwt>0</asrwt>
<pdfrwt beam="1">  1       21 0.50858344E-01 0.38126350E+03</pdfrwt>
<pdfrwt beam="2">  1       21 0.77525750E-01 0.38126350E+03</pdfrwt>
<totfact> 0.48915609E+03</totfact>
</mgrwt>
</event>
<event>
 5    0  0.1257040E+001  0.2848216E+03  0.7546771E-02  0.1093084E+00
         21   -1    0    0  502  501  0.00000000000E+00  0.00000000000E+00  0.20831731090E+04  0.20831731090E+04  0.00000000000E+00 0. -1.
         21   -1    0    0  504  502 -0.00000000000E+00 -0.00000000000E+00 -0.23043672825E+03  0.23043672825E+03  0.00000000000E+00 0. -1.
         25    1    1    2    0    0  0.32546549781E+03  0.12504358701E+03  0.34460844526E+02  0.37198956802E+03  0.12500000000E+03 0.  0.
         21    1    1    2  503  501 -0.17627643587E+03 -0.85580585387E+01  0.17187192860E+04  0.17277565240E+04  0.00000000000E+00 0. -1.
         21    1    1    2  504  503 -0.14918906194E+03 -0.11648552847E+03  0.99556250189E+02  0.21386374517E+03  0.00000000000E+00 0. -1.
<mgrwt>
<rscale>  4 0.28482160E+03</rscale>
<asrwt>0</asrwt>
<pdfrwt beam="1">  1       21 0.32048816E+00 0.28482160E+03</pdfrwt>
<pdfrwt beam="2">  1       21 0.35451806E-01 0.28482160E+03</pdfrwt>
<totfact> 0.17678339E+02</totfact>
</mgrwt>
</event>
<event>
 5    0  0.1257040E+001  0.3139879E+03  0.7546771E-02  0.1078450E+00
         21   -1    0    0  503  501  0.00000000000E+00  0.00000000000E+00  0.53817111527E+03  0.53817111527E+03  0.00000000000E+00 0. -1.
         21   -1    0    0  504  502 -0.00000000000E+00 -0.00000000000E+00 -0.25042131902E+03  0.25042131902E+03  0.00000000000E+00 0. -1.
         25    1    1    2    0    0 -0.19925604806E+02  0.33536719211E+03  0.20542245421E+03  0.41314836072E+03  0.12500000000E+03 0.  0.
         21    1    1    2  503  502 -0.16563209638E+02 -0.26693015292E+03  0.73107830676E+01  0.26754344321E+03  0.00000000000E+00 0. -1.
         21    1    1    2  504  501  0.36488814444E+02 -0.68437039187E+02  0.75016558971E+02  0.10790063036E+03  0.00000000000E+00 0. -1.
<mgrwt>
<rscale>  4 0.31398788E+03</rscale>
<asrwt>0</asrwt>
<pdfrwt beam="1">  1       21 0.82795556E-01 0.31398788E+03</pdfrwt>
<pdfrwt beam="2">  1       21 0.38526357E-01 0.31398788E+03</pdfrwt>
<totfact> 0.77062900E+03</totfact>
</mgrwt>
</event>
<event>
 5    0  0.1715643E+001  0.2327845E+03  0.7546771E-02  0.1124695E+00
         21   -1    0    0  502  501  0.00000000000E+00  0.00000000000E+00  0.11547513454E+04  0.11547513454E+04  0.00000000000E+00 0. -1.
         21   -1    0    0  504  502 -0.00000000000E+00 -0.00000000000E+00 -0.43958197325E+03  0.43958197325E+03  0.00000000000E+00 0.  1.
         25    1    1    2    0    0 -0.10588899514E+03 -0.18446893676E+03 -0.35452160800E+03  0.43191647162E+03  0.12500000000E+03 0.  0.
         21    1    1    2  503  501  0.10923969778E+03  0.16277004532E+03  0.11042271615E+04  0.11214923198E+04  0.00000000000E+00 0. -1.
         21    1    1    2  504  503 -0.33507026397E+01  0.21698891441E+02 -0.34536181393E+02  0.40924527159E+02  0.00000000000E+00 0. -1.
<mgrwt>
<rscale>  4 0.23278454E+03</rscale>
<asrwt>0</asrwt>
<pdfrwt beam="1">  1       21 0.17765405E+00 0.23278454E+03</pdfrwt>
<pdfrwt beam="2">  1       21 0.67627996E-01 0.23278454E+03</pdfrwt>
<totfact> 0.36060917E+02</totfact>
</mgrwt>
</event>
<event>
 5    0  0.1257040E+001  0.1747484E+03  0.7546771E-02  0.1172985E+00
         21   -1    0    0  504  501  0.00000000000E+00  0.00000000000E+00  0.15202396599E+03  0.15202396599E+03  0.00000000000E+00 0.  1.
         21   -1    0    0  503  502 -0.00000000000E+00 -0.00000000000E+00 -0.95565760891E+03  0.95565760891E+03  0.00000000000E+00 0.  1.
         25    1    1    2    0    0 -0.15619950586E+03  0.16739919481E+03 -0.22098485954E+02  0.26179021971E+03  0.12500000000E+03 0.  0.
         21    1    1    2  503  501  0.73731275211E+02 -0.91767724825E+02 -0.69375495789E+03  0.70367148433E+03  0.00000000000E+00 0.  1.
         21    1    1    2  504  502  0.82468230648E+02 -0.75631469986E+02 -0.87780199075E+02  0.14221987086E+03  0.00000000000E+00 0.  1.
<mgrwt>
<rscale>  4 0.17474835E+03</rscale>
<asrwt>0</asrwt>
<pdfrwt beam="1">  1       21 0.23388303E-01 0.17474835E+03</pdfrwt>
<pdfrwt beam="2">  1       21 0.14702425E+00 0.17474835E+03</pdfrwt>
<totfact> 0.55003523E+03</totfact>
</mgrwt>
</event>
<event>
 5    0  0.1257040E+001  0.2503945E+03  0.7546771E-02  0.1113056E+00
         21   -1    0    0  502  501  0.00000000000E+00  0.00000000000E+00  0.61399513892E+03  0.61399513892E+03  0.00000000000E+00 0.  1.
         21   -1    0    0  504  502 -0.00000000000E+00 -0.00000000000E+00 -0.17235009977E+03  0.17235009977E+03  0.00000000000E+00 0. -1.
         25    1    1    2    0    0 -0.13601682813E+03 -0.21106801406E+03  0.56196216415E+02  0.28606520032E+03  0.12500000000E+03 0.  0.
         21    1    1    2  503  501  0.11553495617E+03  0.17461846072E+03  0.40361639470E+03  0.45469344287E+03  0.00000000000E+00 0.  1.
         21    1    1    2  504  503  0.20481871961E+02  0.36449553341E+02 -0.18167571961E+02  0.45586595494E+02  0.00000000000E+00 0.  1.
<mgrwt>
<rscale>  4 0.25039453E+03</rscale>
<asrwt>0</asrwt>
<pdfrwt beam="1">  1       21 0.94460789E-01 0.25039453E+03</pdfrwt>
<pdfrwt beam="2">  1       21 0.26515400E-01 0.25039453E+03</pdfrwt>
<totfact> 0.12262681E+04</totfact>
</mgrwt>
</event>
<event>
 5    0  0.1257040E+001  0.3041453E+03  0.7546771E-02  0.1083187E+00
         21   -1    0    0  503  501  0.00000000000E+00  0.00000000000E+00  0.18709349737E+03  0.18709349737E+03  0.00000000000E+00 0. -1.
         21   -1    0    0  504  502 -0.00000000000E+00 -0.00000000000E+00 -0.59004079098E+03  0.59004079098E+03  0.00000000000E+00 0. -1.
         25    1    1    2    0    0  0.12307583835E+03 -0.22598658282E+03 -0.20625266191E+03  0.35267939853E+03  0.12500000000E+03 0.  0.
         21    1    1    2  503  502 -0.15259053619E+03  0.25537229581E+03 -0.22594222026E+03  0.37356226804E+03  0.00000000000E+00 0. -1.
         21    1    1    2  504  501  0.29514697840E+02 -0.29385712987E+02  0.29247588557E+02  0.50892621791E+02  0.00000000000E+00 0.  1.
<mgrwt>
<rscale>  4 0.30414532E+03</rscale>
<asrwt>0</asrwt>
<pdfrwt beam="1">  1       21 0.28783615E-01 0.30414532E+03</pdfrwt>
<pdfrwt beam="2">  1       21 0.90775507E-01 0.30414532E+03</pdfrwt>
<totfact> 0.11179796E+04</totfact>
</mgrwt>
</event>
<event>
 5    0  0.1257040E+001  0.2821232E+03  0.7546771E-02  0.1094535E+00
         21   -1    0    0  504  501  0.00000000000E+00  0.00000000000E+00  0.10857885142E+03  0.10857885142E+03  0.00000000000E+00 0. -1.
         21   -1    0    0  503  502 -0.00000000000E+00 -0.00000000000E+00 -0.93694687298E+03  0.93694687298E+03  0.00000000000E+00 0.  1.
         25    1    1    2    0    0  0.19092253523E+03  0.15540320400E+03 -0.17067110697E+03  0.32458465310E+03  0.12500000000E+03 0.  0.
         21    1    1    2  503  501 -0.21628791135E+03 -0.13614661899E+03 -0.62530117678E+03  0.67551308214E+03  0.00000000000E+00 0.  1.
         21    1    1    2  504  502  0.25365376116E+02 -0.19256585010E+02 -0.32395737810E+02  0.45427989169E+02  0.00000000000E+00 0.  1.
<mgrwt>
<rscale>  4 0.28212316E+03</rscale>
<asrwt>0</asrwt>
<pdfrwt beam="1">  1       21 0.16704439E-01 0.28212316E+03</pdfrwt>
<pdfrwt beam="2">  1       21 0.14414567E+00 0.28212316E+03</pdfrwt>
<totfact> 0.10100182E+04</totfact>
</mgrwt>
</event>
<event>
 5    0  0.1257040E+001  0.4968214E+03  0.7546771E-02  0.1014612E+00
         21   -1    0    0  502  501  0.00000000000E+00  0.00000000000E+00  0.15628332846E+04  0.15628332846E+04  0.00000000000E+00 0. -1.
         21   -1    0    0  504  502 -0.00000000000E+00 -0.00000000000E+00 -0.13255531899E+04  0.13255531899E+04  0.00000000000E+00 0.  1.
         25    1    1    2    0    0 -0.37083209098E+03  0.22828229620E+03 -0.11318939274E+04  0.12191956813E+04  0.12500000000E+03 0.  0.
         21    1    1    2  503  501  0.40129516480E+03 -0.26759299015E+03  0.14752164559E+04  0.15520655300E+04  0.00000000000E+00 0. -1.
         21    1    1    2  504  503 -0.30463073823E+02  0.39310693947E+02 -0.10604243373E+03  0.11712526319E+03  0.00000000000E+00 0. -1.
<mgrwt>
<rscale>  4 0.49682141E+03</rscale>
<asrwt>0</asrwt>
<pdfrwt beam="1">  1       21 0.24043589E+00 0.49682141E+03</pdfrwt>
<pdfrwt beam="2">  1       21 0.20393126E+00 0.49682141E+03</pdfrwt>
<totfact> 0.67722020E+00</totfact>
</mgrwt>
</event>
<event>
 5    0  0.1257040E+001  0.2355382E+03  0.7546771E-02  0.1122801E+00
         21   -1    0    0  504  501  0.00000000000E+00  0.00000000000E+00  0.11722556489E+04  0.11722556489E+04  0.00000000000E+00 0.  1.
         21   -1    0    0  503  502 -0.00000000000E+00 -0.00000000000E+00 -0.21720957469E+03  0.21720957469E+03  0.00000000000E+00 0.  1.
         25    1    1    2    0    0  0.13636201989E+03 -0.15099096163E+03 -0.12047958769E+03  0.26745691618E+03  0.12500000000E+03 0.  0.
         21    1    1    2  503  501  0.64752935521E+01  0.81806906506E+02  0.82443169583E+02  0.11632358140E+03  0.00000000000E+00 0.  1.
         21    1    1    2  504  502 -0.14283731345E+03  0.69184055121E+02  0.99308249235E+03  0.10056847260E+04  0.00000000000E+00 0.  1.
<mgrwt>
<rscale>  4 0.23553824E+03</rscale>
<asrwt>0</asrwt>
<pdfrwt beam="1">  1       21 0.18034702E+00 0.23553824E+03</pdfrwt>
<pdfrwt beam="2">  1       21 0.33416858E-01 0.23553824E+03</pdfrwt>
<totfact> 0.14977731E+03</totfact>
</mgrwt>
</event>
