<event>
 5    0  0.2010716E+000  0.1976352E+03  0.7546771E-02  0.1151750E+00
         21   -1    0    0  502  501  0.00000000000E+00  0.00000000000E+00  0.98663472427E+02  0.98663472427E+02  0.00000000000E+00 0.  1.
         21   -1    0    0  503  502 -0.00000000000E+00 -0.00000000000E+00 -0.89456238329E+03  0.89456238329E+03  0.00000000000E+00 0.  1.
         25    1    1    2    0    0 -0.16356511973E+03  0.14294142680E+03 -0.12757279901E+03  0.28122165445E+03  0.12500000000E+03 0.  0.
         21    1    1    2  503  504  0.12145183685E+03 -0.80341816461E+02 -0.56861867797E+03  0.58696895751E+03  0.00000000000E+00 0.  1.
         21    1    1    2  504  501  0.42113282879E+02 -0.62599610335E+02 -0.99707433885E+02  0.12503524376E+03  0.00000000000E+00 0.  1.
<mgrwt>
<rscale>  4 0.19763517E+03</rscale>
<asrwt>0</asrwt>
<pdfrwt beam="1">  1       21 0.15178996E-01 0.19763517E+03</pdfrwt>
<pdfrwt beam="2">  1       21 0.13762498E+00 0.19763517E+03</pdfrwt>
<totfact> 0.14306719E+04</totfact>
</mgrwt>
</event>
<event>
 5    0  0.1856407E+000  0.2862247E+03  0.7546771E-02  0.1092337E+00
         21   -1    0    0  502  501  0.00000000000E+00  0.00000000000E+00  0.20132697020E+04  0.20132697020E+04  0.00000000000E+00 0. -1.
         21   -1    0    0  503  502 -0.00000000000E+00 -0.00000000000E+00 -0.94948764204E+02  0.94948764204E+02  0.00000000000E+00 0. -1.
         25    1    1    2    0    0 -0.22746061003E+03 -0.12067000132E+03  0.17786614835E+04  0.18015441297E+04  0.12500000000E+03 0.  0.
         21    1    1    2  503  504  0.94199949890E+02  0.87030656206E+02  0.10283220547E+03  0.16438499981E+03  0.00000000000E+00 0. -1.
         21    1    1    2  504  501  0.13326066014E+03  0.33639345118E+02  0.36827248801E+02  0.14228933669E+03  0.00000000000E+00 0. -1.
<mgrwt>
<rscale>  4 0.28622470E+03</rscale>
<asrwt>0</asrwt>
<pdfrwt beam="1">  1       21 0.30973377E+00 0.28622470E+03</pdfrwt>
<pdfrwt beam="2">  1       21 0.14607504E-01 0.28622470E+03</pdfrwt>
<totfact> 0.11135248E+03</totfact>
</mgrwt>
</event>
<event>
 5    0  0.2037983E+000  0.2607125E+03  0.7546771E-02  0.1106716E+00
         21   -1    0    0  502  501  0.00000000000E+00  0.00000000000E+00  0.21509342807E+03  0.21509342807E+03  0.00000000000E+00 0.  1.
         21   -1    0    0  503  502 -0.00000000000E+00 -0.00000000000E+00 -0.37262330142E+03  0.37262330142E+03  0.00000000000E+00 0.  1.
         25    1    1    2    0    0  0.21095108564E+03 -0.88575547299E+02  0.49765534245E+02  0.26541966112E+03  0.12500000000E+03 0.  0.
         21    1    1    2  503  504 -0.13282559119E+03  0.94283289237E+02 -0.17033369800E+03  0.23568102380E+03  0.00000000000E+00 0.  1.
         21    1    1    2  504  501 -0.78125494453E+02 -0.57077419376E+01 -0.36961709588E+02  0.86616044572E+02  0.00000000000E+00 0.  1.
<mgrwt>
<rscale>  4 0.26071246E+03</rscale>
<asrwt>0</asrwt>
<pdfrwt beam="1">  1       21 0.33091297E-01 0.26071246E+03</pdfrwt>
<pdfrwt beam="2">  1       21 0.57326661E-01 0.26071246E+03</pdfrwt>
<totfact> 0.24255074E+04</totfact>
</mgrwt>
</event>
<event>
 5    0  0.1856407E+000  0.2625193E+03  0.7546771E-02  0.1105639E+00
         21   -1    0    0  502  501  0.00000000000E+00  0.00000000000E+00  0.27386729255E+03  0.27386729255E+03  0.00000000000E+00 0.  1.
         21   -1    0    0  503  502 -0.00000000000E+00 -0.00000000000E+00 -0.11090603881E+04  0.11090603881E+04  0.00000000000E+00 0.  1.
         25    1    1    2    0    0 -0.96280699922E+02  0.24159307438E+03  0.16857398403E+03  0.33418464187E+03  0.12500000000E+03 0.  0.
         21    1    1    2  503  504  0.68880683468E+02 -0.21875546579E+03 -0.97853337280E+03  0.10050502794E+04  0.00000000000E+00 0.  1.
         21    1    1    2  504  501  0.27400016454E+02 -0.22837608589E+02 -0.25233706810E+02  0.43692759436E+02  0.00000000000E+00 0.  1.
<mgrwt>
<rscale>  4 0.26251933E+03</rscale>
<asrwt>0</asrwt>
<pdfrwt beam="1">  1       21 0.42133429E-01 0.26251933E+03</pdfrwt>
<pdfrwt beam="2">  1       21 0.17062468E+00 0.26251933E+03</pdfrwt>
<totfact> 0.10735587E+03</totfact>
</mgrwt>
</event>
<event>
 5    0  0.1856407E+000  0.3181314E+03  0.7546771E-02  0.1076513E+00
         21   -1    0    0  502  501  0.00000000000E+00  0.00000000000E+00  0.97727365518E+03  0.97727365518E+03  0.00000000000E+00 0.  1.
         21   -1    0    0  503  502 -0.00000000000E+00 -0.00000000000E+00 -0.41555559704E+03  0.41555559704E+03  0.00000000000E+00 0.  1.
         25    1    1    2    0    0  0.25521206240E+03 -0.14300143281E+03  0.89186210588E+03  0.94690317482E+03  0.12500000000E+03 0.  0.
         21    1    1    2  503  504 -0.30222065543E+02  0.20279652335E+02 -0.79581260533E+02  0.87508939958E+02  0.00000000000E+00 0.  1.
         21    1    1    2  504  501 -0.22498999686E+03  0.12272178047E+03 -0.25056278720E+03  0.35841713745E+03  0.00000000000E+00 0.  1.
<mgrwt>
<rscale>  4 0.31813143E+03</rscale>
<asrwt>0</asrwt>
<pdfrwt beam="1">  1       21 0.15034979E+00 0.31813143E+03</pdfrwt>
<pdfrwt beam="2">  1       21 0.63931631E-01 0.31813143E+03</pdfrwt>
<totfact> 0.60248223E+02</totfact>
</mgrwt>
</event>
<event>
 5    0  0.1856407E+000  0.2873883E+03  0.7546771E-02  0.1091721E+00
         21   -1    0    0  502  501  0.00000000000E+00  0.00000000000E+00  0.82655632106E+03  0.82655632106E+03  0.00000000000E+00 0.  1.
         21   -1    0    0  503  502 -0.00000000000E+00 -0.00000000000E+00 -0.12695008482E+03  0.12695008482E+03  0.00000000000E+00 0. -1.
         25    1    1    2    0    0 -0.25594364825E+03  0.42133950033E+02  0.47683454715E+03  0.55702657583E+03  0.12500000000E+03 0.  0.
         21    1    1    2  503  504  0.13940309079E+02  0.53640688877E+02  0.86406751512E+02  0.10265370148E+03  0.00000000000E+00 0. -1.
         21    1    1    2  504  501  0.24200333917E+03 -0.95774638909E+02  0.13636493757E+03  0.29382612857E+03  0.00000000000E+00 0. -1.
<mgrwt>
<rscale>  4 0.28738834E+03</rscale>
<asrwt>0</asrwt>
<pdfrwt beam="1">  1       21 0.12716251E+00 0.28738834E+03</pdfrwt>
<pdfrwt beam="2">  1       21 0.19530783E-01 0.28738834E+03</pdfrwt>
<totfact> 0.10410032E+04</totfact>
</mgrwt>
</event>
<event>
 5    0  0.1856407E+000  0.2275922E+03  0.7546771E-02  0.1128346E+00
         21   -1    0    0  502  501  0.00000000000E+00  0.00000000000E+00  0.47273329861E+02  0.47273329861E+02  0.00000000000E+00 0.  1.
         21   -1    0    0  503  502 -0.00000000000E+00 -0.00000000000E+00 -0.13519544798E+04  0.13519544798E+04  0.00000000000E+00 0.  1.
         25    1    1    2    0    0  0.17155430290E+03 -0.12813800570E+03 -0.50150526610E+03  0.55944862076E+03  0.12500000000E+03 0.  0.
         21    1    1    2  503  504 -0.15911769791E+03  0.53351424727E+02 -0.59556691355E+03  0.61876066845E+03  0.00000000000E+00 0.  1.
         21    1    1    2  504  501 -0.12436604987E+02  0.74786580973E+02 -0.20760897033E+03  0.22101852049E+03  0.00000000000E+00 0.  1.
<mgrwt>
<rscale>  4 0.22759218E+03</rscale>
<asrwt>0</asrwt>
<pdfrwt beam="1">  1       21 0.72728195E-02 0.22759218E+03</pdfrwt>
<pdfrwt beam="2">  1       21 0.20799301E+00 0.22759218E+03</pdfrwt>
<totfact> 0.16471076E+04</totfact>
</mgrwt>
</event>
<event>
 5    0  0.1856407E+000  0.2636186E+03  0.7546771E-02  0.1104988E+00
         21   -1    0    0  502  501  0.00000000000E+00  0.00000000000E+00  0.13875497132E+04  0.13875497132E+04  0.00000000000E+00 0. -1.
         21   -1    0    0  503  502 -0.00000000000E+00 -0.00000000000E+00 -0.30166422573E+03  0.30166422573E+03  0.00000000000E+00 0. -1.
         25    1    1    2    0    0 -0.80351786641E+02 -0.21669107551E+03  0.12614677352E+04  0.12885407555E+04  0.12500000000E+03 0.  0.
         21    1    1    2  503  504  0.28896842329E+02  0.25717784852E+03 -0.20376980193E+03  0.32938974703E+03  0.00000000000E+00 0. -1.
         21    1    1    2  504  501  0.51454944312E+02 -0.40486773010E+02  0.28187554200E+02  0.71283436328E+02  0.00000000000E+00 0. -1.
<mgrwt>
<rscale>  4 0.26361859E+03</rscale>
<asrwt>0</asrwt>
<pdfrwt beam="1">  1       21 0.21346918E+00 0.26361859E+03</pdfrwt>
<pdfrwt beam="2">  1       21 0.46409882E-01 0.26361859E+03</pdfrwt>
<totfact> 0.45482710E+02</totfact>
</mgrwt>
</event>
