<event>
 5    0  0.2159162E+000  0.4030722E+03  0.7546771E-02  0.1042721E+00
         21   -1    0    0  502  501  0.00000000000E+00  0.00000000000E+00  0.22507481952E+03  0.22507481952E+03  0.00000000000E+00 0. -1.
         21   -1    0    0  503  502 -0.00000000000E+00 -0.00000000000E+00 -0.74788553189E+03  0.74788553189E+03  0.00000000000E+00 0. -1.
         25    1    1    2    0    0 -0.86905814790E+02  0.37321516938E+03 -0.39854329438E+03  0.56683678497E+03  0.12500000000E+03 0.  0.
         21    1    1    2  503  504  0.93554922879E+02 -0.33929260626E+03 -0.11603333304E+03  0.37058835739E+03  0.00000000000E+00 0. -1.
         21    1    1    2  504  501 -0.66491080891E+01 -0.33922563128E+02 -0.82340849440E+01  0.35535209053E+02  0.00000000000E+00 0. -1.
<mgrwt>
<rscale>  4 0.40307218E+03</rscale>
<asrwt>0</asrwt>
<pdfrwt beam="1">  1       21 0.34626895E-01 0.40307218E+03</pdfrwt>
<pdfrwt beam="2">  1       21 0.11505931E+00 0.40307218E+03</pdfrwt>
<totfact> 0.41816117E+03</totfact>
</mgrwt>
</event>
<event>
 5    0  0.2159162E+000  0.2921859E+03  0.7546771E-02  0.1089213E+00
         21   -1    0    0  502  501  0.00000000000E+00  0.00000000000E+00  0.59634959434E+03  0.59634959434E+03  0.00000000000E+00 0.  1.
         21   -1    0    0  503  502 -0.00000000000E+00 -0.00000000000E+00 -0.17580531647E+03  0.17580531647E+03  0.00000000000E+00 0.  1.
         25    1    1    2    0    0 -0.60823946278E+02 -0.25699813201E+03  0.38451538695E+03  0.48293340648E+03  0.12500000000E+03 0.  0.
         21    1    1    2  503  504  0.73081384201E+02  0.15381097021E+03 -0.19499501247E+02  0.17140284077E+03  0.00000000000E+00 0.  1.
         21    1    1    2  504  501 -0.12257437923E+02  0.10318716180E+03  0.55528392172E+02  0.11781866355E+03  0.00000000000E+00 0.  1.
<mgrwt>
<rscale>  4 0.29218589E+03</rscale>
<asrwt>0</asrwt>
<pdfrwt beam="1">  1       21 0.91746090E-01 0.29218589E+03</pdfrwt>
<pdfrwt beam="2">  1       21 0.27046972E-01 0.29218589E+03</pdfrwt>
<totfact> 0.12379119E+04</totfact>
</mgrwt>
</event>
<event>
 5    0  0.2159162E+000  0.3199722E+03  0.7546771E-02  0.1075662E+00
         21   -1    0    0  502  501  0.00000000000E+00  0.00000000000E+00  0.15031125682E+03  0.15031125682E+03  0.00000000000E+00 0.  1.
         21   -1    0    0  503  502 -0.00000000000E+00 -0.00000000000E+00 -0.11665732268E+04  0.11665732268E+04  0.00000000000E+00 0.  1.
         25    1    1    2    0    0 -0.10855961637E+03 -0.33642240076E+03 -0.29213627323E+03  0.47532496692E+03  0.12500000000E+03 0.  0.
         21    1    1    2  503  504 -0.23206231491E+02  0.91291620842E+02 -0.38783474637E+02  0.10186681069E+03  0.00000000000E+00 0. -1.
         21    1    1    2  504  501  0.13176584786E+03  0.24513077992E+03 -0.68534222208E+03  0.73969270598E+03  0.00000000000E+00 0.  1.
<mgrwt>
<rscale>  4 0.31997218E+03</rscale>
<asrwt>0</asrwt>
<pdfrwt beam="1">  1       21 0.23124809E-01 0.31997218E+03</pdfrwt>
<pdfrwt beam="2">  1       21 0.17947280E+00 0.31997218E+03</pdfrwt>
<totfact> 0.29332734E+03</totfact>
</mgrwt>
</event>
<event>
 5    0  0.2159162E+000  0.4338755E+03  0.7546771E-02  0.1033877E+00
         21   -1    0    0  502  501  0.00000000000E+00  0.00000000000E+00  0.15021186449E+04  0.15021186449E+04  0.00000000000E+00 0.  1.
         21   -1    0    0  503  502 -0.00000000000E+00 -0.00000000000E+00 -0.12565106905E+03  0.12565106905E+03  0.00000000000E+00 0.  1.
         25    1    1    2    0    0  0.36793594188E+03  0.15501101614E+03  0.83472171379E+03  0.93369728067E+03  0.12500000000E+03 0.  0.
         21    1    1    2  503  504 -0.24478458327E+03 -0.59107001727E+02  0.44240188326E+03  0.50905064205E+03  0.00000000000E+00 0.  1.
         21    1    1    2  504  501 -0.12315135861E+03 -0.95904014418E+02  0.99343978798E+02  0.18502179124E+03  0.00000000000E+00 0.  1.
<mgrwt>
<rscale>  4 0.42994510E+03</rscale>
<asrwt>0</asrwt>
<pdfrwt beam="1">  1       21 0.23109516E+00 0.43387552E+03</pdfrwt>
<pdfrwt beam="2">  1       21 0.19330935E-01 0.43387552E+03</pdfrwt>
<totfact> 0.17832703E+03</totfact>
</mgrwt>
</event>
