<event>
 5    0  0.1911311E+001  0.3346473E+03  0.7546771E-02  0.1069099E+00
         21   -1    0    0  502  501  0.00000000000E+00  0.00000000000E+00  0.83177064098E+03  0.83177064098E+03  0.00000000000E+00 0.  1.
         21   -1    0    0  504  502 -0.00000000000E+00 -0.00000000000E+00 -0.11336690651E+04  0.11336690651E+04  0.00000000000E+00 0.  1.
         25    1    1    2    0    0 -0.18533444411E+03 -0.26797961865E+03  0.66458589995E+03  0.75064062679E+03  0.12500000000E+03 0.  0.
         21    1    1    2  503  501  0.29431848691E+02  0.63864468788E-01  0.99968433974E+02  0.10421096673E+03  0.00000000000E+00 0. -1.
         21    1    1    2  504  503  0.15590259542E+03  0.26791575418E+03 -0.10664527580E+04  0.11105881125E+04  0.00000000000E+00 0.  1.
<mgrwt>
<rscale>  4 0.33464733E+03</rscale>
<asrwt>0</asrwt>
<pdfrwt beam="1">  1       21 0.12796471E+00 0.33464733E+03</pdfrwt>
<pdfrwt beam="2">  1       21 0.17441063E+00 0.33464733E+03</pdfrwt>
<totfact> 0.76707356E+01</totfact>
</mgrwt>
</event>
<event>
 5    0  0.1911311E+001  0.2733757E+03  0.7546771E-02  0.1099363E+00
         21   -1    0    0  502  501  0.00000000000E+00  0.00000000000E+00  0.25283321727E+03  0.25283321727E+03  0.00000000000E+00 0.  1.
         21   -1    0    0  504  502 -0.00000000000E+00 -0.00000000000E+00 -0.88143003687E+03  0.88143003687E+03  0.00000000000E+00 0. -1.
         25    1    1    2    0    0  0.12386138472E+03  0.23290922709E+03 -0.55703142002E+03  0.62888580329E+03  0.12500000000E+03 0.  0.
         21    1    1    2  503  501 -0.85832954350E+02 -0.22517455283E+03  0.14774176917E+03  0.28266323718E+03  0.00000000000E+00 0.  1.
         21    1    1    2  504  503 -0.38028430366E+02 -0.77346742579E+01 -0.21930716875E+03  0.22271421366E+03  0.00000000000E+00 0. -1.
<mgrwt>
<rscale>  4 0.27337565E+03</rscale>
<asrwt>0</asrwt>
<pdfrwt beam="1">  1       21 0.38897418E-01 0.27337565E+03</pdfrwt>
<pdfrwt beam="2">  1       21 0.13560462E+00 0.27337565E+03</pdfrwt>
<totfact> 0.23232632E+03</totfact>
</mgrwt>
</event>
<event>
 5    0  0.1911311E+001  0.2431929E+03  0.7546771E-02  0.1117684E+00
         21   -1    0    0  504  501  0.00000000000E+00  0.00000000000E+00  0.78975454746E+03  0.78975454746E+03  0.00000000000E+00 0.  1.
         21   -1    0    0  501  502 -0.00000000000E+00 -0.00000000000E+00 -0.77414730753E+02  0.77414730753E+02  0.00000000000E+00 0.  1.
         25    1    1    2    0    0  0.15259608824E+03 -0.15557027811E+03  0.42154985522E+03  0.49073104447E+03  0.12500000000E+03 0.  0.
         21    1    1    2  503  502 -0.11964836340E+03  0.16112446635E+03  0.27225148476E+03  0.33822728375E+03  0.00000000000E+00 0.  1.
         21    1    1    2  504  503 -0.32947724839E+02 -0.55541882389E+01  0.18538476726E+02  0.38210949980E+02  0.00000000000E+00 0. -1.
<mgrwt>
<rscale>  4 0.24319293E+03</rscale>
<asrwt>0</asrwt>
<pdfrwt beam="1">  1       21 0.12150069E+00 0.24319293E+03</pdfrwt>
<pdfrwt beam="2">  1       21 0.11909959E-01 0.24319293E+03</pdfrwt>
<totfact> 0.29623866E+04</totfact>
</mgrwt>
</event>
<event>
 5    0  0.1911311E+001  0.2490018E+03  0.7546771E-02  0.1113937E+00
         21   -1    0    0  502  501  0.00000000000E+00  0.00000000000E+00  0.55695149990E+03  0.55695149990E+03  0.00000000000E+00 0.  1.
         21   -1    0    0  504  502 -0.00000000000E+00 -0.00000000000E+00 -0.12987560757E+03  0.12987560757E+03  0.00000000000E+00 0.  1.
         25    1    1    2    0    0  0.13702764506E+03 -0.17266644397E+03  0.22438606244E+03  0.33847360517E+03  0.12500000000E+03 0.  0.
         21    1    1    2  503  501 -0.85178536934E+02  0.19690652896E+03  0.19624350929E+03  0.29075604764E+03  0.00000000000E+00 0.  1.
         21    1    1    2  504  503 -0.51849108127E+02 -0.24240084994E+02  0.64463206133E+01  0.57597454662E+02  0.00000000000E+00 0.  1.
<mgrwt>
<rscale>  4 0.24900183E+03</rscale>
<asrwt>0</asrwt>
<pdfrwt beam="1">  1       21 0.85684845E-01 0.24900183E+03</pdfrwt>
<pdfrwt beam="2">  1       21 0.19980863E-01 0.24900183E+03</pdfrwt>
<totfact> 0.26408860E+04</totfact>
</mgrwt>
</event>
<event>
 5    0  0.1911311E+001  0.3077266E+03  0.7546771E-02  0.1081441E+00
         21   -1    0    0  502  501  0.00000000000E+00  0.00000000000E+00  0.20537704728E+04  0.20537704728E+04  0.00000000000E+00 0.  1.
         21   -1    0    0  504  502 -0.00000000000E+00 -0.00000000000E+00 -0.93317599296E+02  0.93317599296E+02  0.00000000000E+00 0.  1.
         25    1    1    2    0    0  0.29737688025E+03  0.99880812414E+02  0.16740901746E+04  0.17078091516E+04  0.12500000000E+03 0.  0.
         21    1    1    2  503  501 -0.25884329410E+03 -0.96300385970E+02  0.18940938070E+03  0.33488733738E+03  0.00000000000E+00 0.  1.
         21    1    1    2  504  503 -0.38533586153E+02 -0.35804264436E+01  0.96953318227E+02  0.10439158314E+03  0.00000000000E+00 0.  1.
<mgrwt>
<rscale>  4 0.30772659E+03</rscale>
<asrwt>0</asrwt>
<pdfrwt beam="1">  1       21 0.31596465E+00 0.30772659E+03</pdfrwt>
<pdfrwt beam="2">  1       21 0.14356555E-01 0.30772659E+03</pdfrwt>
<totfact> 0.10368202E+03</totfact>
</mgrwt>
</event>
<event>
 5    0  0.1911311E+001  0.2706448E+03  0.7546771E-02  0.1100911E+00
         21   -1    0    0  503  501  0.00000000000E+00  0.00000000000E+00  0.76744957354E+02  0.76744957354E+02  0.00000000000E+00 0. -1.
         21   -1    0    0  504  502 -0.00000000000E+00 -0.00000000000E+00 -0.26508957599E+04  0.26508957599E+04  0.00000000000E+00 0. -1.
         25    1    1    2    0    0  0.21562341632E+03  0.18229977650E+02 -0.18836079097E+03  0.31293861591E+03  0.12500000000E+03 0.  0.
         21    1    1    2  503  502 -0.24199373083E+03  0.18507223106E+02 -0.23312649367E+04  0.23438642640E+04  0.00000000000E+00 0. -1.
         21    1    1    2  504  501  0.26370314505E+02 -0.36737200756E+02 -0.54525074884E+02  0.70837837330E+02  0.00000000000E+00 0. -1.
<mgrwt>
<rscale>  4 0.27064479E+03</rscale>
<asrwt>0</asrwt>
<pdfrwt beam="1">  1       21 0.11806918E-01 0.27064479E+03</pdfrwt>
<pdfrwt beam="2">  1       21 0.40783005E+00 0.27064479E+03</pdfrwt>
<totfact> 0.42216390E+02</totfact>
</mgrwt>
</event>
