<event>
 5    0  0.2349231E+000  0.4725801E+03  0.7546771E-02  0.1021195E+00
         21   -1    0    0  502  501  0.00000000000E+00  0.00000000000E+00  0.84207752161E+02  0.84207752161E+02  0.00000000000E+00 0. -1.
         21   -1    0    0  504  502 -0.00000000000E+00 -0.00000000000E+00 -0.82361911010E+03  0.82361911010E+03  0.00000000000E+00 0. -1.
         25    1    1    2    0    0  0.10962423057E+03  0.17942607381E+03 -0.59677215274E+03  0.64495983610E+03  0.12500000000E+03 0.  0.
         21    1    1    2  503  501 -0.36662925441E+02 -0.15571524155E+02 -0.14322400071E+02  0.42329346914E+02  0.00000000000E+00 0. -1.
         21    1    1    2  504  503 -0.72961305132E+02 -0.16385454966E+03 -0.12831680513E+03  0.22053767925E+03  0.00000000000E+00 0.  1.
<mgrwt>
<rscale>  4 0.47258010E+03</rscale>
<asrwt>0</asrwt>
<pdfrwt beam="1">  1       21 0.12955039E-01 0.47258010E+03</pdfrwt>
<pdfrwt beam="2">  1       21 0.12671063E+00 0.47258010E+03</pdfrwt>
<totfact> 0.21069615E+04</totfact>
</mgrwt>
</event>
<event>
 5    0  0.2408638E+000  0.4796372E+03  0.7546771E-02  0.1019235E+00
         21   -1    0    0  503  501  0.00000000000E+00  0.00000000000E+00  0.12497076855E+03  0.12497076855E+03  0.00000000000E+00 0. -1.
         21   -1    0    0  504  502 -0.00000000000E+00 -0.00000000000E+00 -0.18635179722E+04  0.18635179722E+04  0.00000000000E+00 0. -1.
         25    1    1    2    0    0  0.30398727653E+03  0.10935801845E+03 -0.11431598063E+04  0.11944901771E+04  0.12500000000E+03 0.  0.
         21    1    1    2  503  502 -0.99729237474E+02  0.88204779984E+02 -0.46065010495E+03  0.47950445588E+03  0.00000000000E+00 0.  1.
         21    1    1    2  504  501 -0.20425803906E+03 -0.19756279844E+03 -0.13473729240E+03  0.31449410775E+03  0.00000000000E+00 0. -1.
<mgrwt>
<rscale>  4 0.47963715E+03</rscale>
<asrwt>0</asrwt>
<pdfrwt beam="1">  1       21 0.19226272E-01 0.47963715E+03</pdfrwt>
<pdfrwt beam="2">  1       21 0.28669507E+00 0.47963715E+03</pdfrwt>
<totfact> 0.80498916E+02</totfact>
</mgrwt>
</event>
<event>
 5    0  0.2349231E+000  0.4687826E+03  0.7546771E-02  0.1022264E+00
         21   -1    0    0  503  501  0.00000000000E+00  0.00000000000E+00  0.24284985650E+04  0.24284985650E+04  0.00000000000E+00 0. -1.
         21   -1    0    0  504  502 -0.00000000000E+00 -0.00000000000E+00 -0.25959318609E+03  0.25959318609E+03  0.00000000000E+00 0. -1.
         25    1    1    2    0    0  0.17925581289E+03  0.24681881012E+03 -0.10733869257E+02  0.32983691036E+03  0.12500000000E+03 0.  0.
         21    1    1    2  503  502 -0.49316583625E+02 -0.12820817925E+03 -0.30839797569E+02  0.14078549557E+03  0.00000000000E+00 0. -1.
         21    1    1    2  504  501 -0.12993922927E+03 -0.11861063087E+03  0.22104790457E+04  0.22174693451E+04  0.00000000000E+00 0. -1.
<mgrwt>
<rscale>  4 0.46878255E+03</rscale>
<asrwt>0</asrwt>
<pdfrwt beam="1">  1       21 0.37361515E+00 0.46878255E+03</pdfrwt>
<pdfrwt beam="2">  1       21 0.39937415E-01 0.46878255E+03</pdfrwt>
<totfact> 0.56457388E+01</totfact>
</mgrwt>
</event>
