<LesHouchesEvents version="3.0">
  <!--
  <scalesfunctionalform>
    muR  H_T/2 := sum_i mT(i)/2, i=final state
    muF1 H_T/2 := sum_i mT(i)/2, i=final state
    muF2 H_T/2 := sum_i mT(i)/2, i=final state
    QES  H_T/2 := sum_i mT(i)/2, i=final state
  </scalesfunctionalform>
HERWIG6   
  -->
  <header>
      562
  </header>
  <init>
   2212   2212 0.65000000D+04 0.65000000D+04 -1 -1   247000   247000 -3   1
 0.23994430D+00 0.90497283D-03 0.47139866D-03     66
  </init>
  <event>
  4     66 0.47139866E-03 0.11269157E+03 0.75467711E-02 0.11813189E+00
        1 -1    0    0  501    0 0.00000000E+00 0.00000000E+00 0.96659068E+03 0.96659073E+03 0.32000000E+00 0.0000E+00 0.9000E+01
       -2 -1    0    0    0  501 0.00000000E+00 0.00000000E+00 -.24013399E+02 0.24015531E+02 0.32000000E+00 0.0000E+00 0.9000E+01
       25  1    1    2    0    0 0.72260517E+01 -.94893586E+02 0.70551136E+03 0.72279201E+03 0.12500000E+03 0.0000E+00 0.9000E+01
      -24  1    1    2    0    0 -.72260517E+01 0.94893586E+02 0.23706592E+03 0.26781425E+03 0.80419002E+02 0.0000E+00 0.9000E+01
#aMCatNLO 1  0  0  2  1 0.47616155D+02 0.00000000D+00  -5  5  0 0.00000000D+00 0.00000000D+00 0.00000000D+00 0.00000000D+00 0.00000000D+00
  <mgrwgt>
 0.1732670648D+00    7    2    0
 0.152355537935077D+03 0.000000000000000D+00 0.000000000000000D+00 0.152355537935077D+03
 0.152355537935077D+03 0.000000000000000D+00 0.000000000000000D+00 -.152355537935077D+03
 0.167382533621857D+03 0.722605171972157D+01 -.948935863304454D+02 0.577486277894303D+02
 0.137328542248298D+03 -.722605171972157D+01 0.948935863304454D+02 -.577486277894303D+02
 0.000000000000000D+00 0.000000000000000D+00 -.000000000000000D+00 -.000000000000000D+00
 0.157549072384841D+03 0.000000000000000D+00 0.000000000000000D+00 0.157549072384841D+03
 0.323681565038145D+03 0.000000000000000D+00 0.000000000000000D+00 -.323681565038145D+03
 0.165806025294484D+03 -.182812177506924D+02 -.905402180798384D+02 0.577486277894303D+02
 0.142603018056153D+03 -.286562285696772D+02 0.985511103790976D+02 -.577486277894303D+02
 0.172821594072350D+03 0.469374463203696D+02 -.801089229925924D+01 -.166132492653304D+03
0.449863619556D-03 0.000000000000D+00 0.000000000000D+00 0.207609341461D-02 0.000000000000D+00  5 1 -2 25 -24 21 0 0.14870643D+00 0.36945372D-02 0.19838910D+05 0.19838910D+05 0.19838910D+05 0.12342129D+01  1  2  2  2  5  2       -2 0.203079381203D+00 0.100000000000D+01
-.248050908068D-04 0.000000000000D+00 -.172759475091D-05 0.207609341461D-02 0.000000000000D+00  5 1 -2 25 -24 21 2 0.14870643D+00 0.36945372D-02 0.19838910D+05 0.19838910D+05 0.19838910D+05 0.12342129D+01  1  2  3  2  5  2       -2 -.170571291353D-01 0.100000000000D+01
0.310697641092D-04 0.000000000000D+00 0.000000000000D+00 0.207609341461D-02 0.000000000000D+00  5 1 -2 25 -24 21 2 0.14870643D+00 0.36945372D-02 0.19838910D+05 0.19838910D+05 0.19838910D+05 0.12342129D+01  1  2 15  2  5  2       -2 0.213650086082D-01 0.100000000000D+01
0.146202517435D-02 0.000000000000D+00 0.000000000000D+00 0.207609341461D-02 0.000000000000D+00  5 1 -2 25 -24 21 2 0.14870643D+00 0.78402002D-02 0.27793444D+05 0.27793444D+05 0.27793444D+05 0.12183961D+01  1  2 12  2  5  2       -2 0.314992965803D+00 0.100000000000D+01
-.158548455033D-02 0.000000000000D+00 -.130232986838D-03 0.207609341461D-02 0.000000000000D+00  5 1 -2 25 -24 21 2 0.14870643D+00 0.80897392D-02 0.19838910D+05 0.19838910D+05 0.19838910D+05 0.12342129D+01  1  2  5  2  5  2       -2 -.333472978940D+00 0.100000000000D+01
0.119005431494D-03 0.000000000000D+00 0.000000000000D+00 0.207609341461D-02 0.000000000000D+00  5 1 21 25 -24 2 2 0.14870643D+00 0.78402002D-02 0.27793444D+05 0.27793444D+05 0.27793444D+05 0.12183961D+01  1  2 12  4  5  2       -2 0.419943814304D+00 0.100000000000D+01
-.126448611647D-03 0.000000000000D+00 -.110596313332D-04 0.207609341461D-02 0.000000000000D+00  5 1 21 25 -24 2 2 0.14870643D+00 0.80897392D-02 0.19838910D+05 0.19838910D+05 0.19838910D+05 0.12342129D+01  1  2  5  4  5  2       -2 -.435583997036D+00 0.100000000000D+01
  </mgrwgt>
  </event>
  <event>
  5     66 0.47139866E-03 0.11405953E+03 0.75467711E-02 0.11830256E+00
        1 -1    0    0  501    0 0.00000000E+00 0.00000000E+00 0.38838288E+03 0.38838302E+03 0.32000000E+00 0.0000E+00 0.9000E+01
       21 -1    0    0  502  501 0.00000000E+00 0.00000000E+00 -.15635432E+03 0.15635612E+03 0.75000000E+00 0.0000E+00 0.9000E+01
       25  1    1    2    0    0 0.94642222E+01 0.32069277E+02 0.21213803E+03 0.24848652E+03 0.12500000E+03 0.0000E+00 0.9000E+01
      -24  1    1    2    0    0 -.79600421E+02 0.18152010E+02 0.11876328E+03 0.16503834E+03 0.80419002E+02 0.0000E+00 0.9000E+01
        2  1    1    2  502    0 0.70136199E+02 -.50221287E+02 -.98872744E+02 0.13121427E+03 0.32000000E+00 0.0000E+00 0.9000E+01
#aMCatNLO 2  0  0  2  1 0.86262762D+02 0.00000000D+00  -5  5  0 0.00000000D+00 0.00000000D+00 0.00000000D+00 0.00000000D+00 0.00000000D+00
  <mgrwgt>
 0.2149975904D+00    2    2    0
 0.116260351928335D+03 0.000000000000000D+00 0.000000000000000D+00 0.116260351928335D+03
 0.116260351928335D+03 0.000000000000000D+00 0.000000000000000D+00 -.116260351928335D+03
 0.135952757580251D+03 0.484688630739833D+02 0.413985811801759D+01 0.221761849909482D+02
 0.965679462764180D+02 -.484688630739833D+02 -.413985811801759D+01 -.221761849909482D+02
 0.000000000000000D+00 0.000000000000000D+00 -.000000000000000D+00 -.000000000000000D+00
 0.129390403847097D+03 0.000000000000000D+00 0.000000000000000D+00 0.129390403847097D+03
 0.469322313338181D+03 0.000000000000000D+00 0.000000000000000D+00 -.469322313338181D+03
 0.131281351315339D+03 0.946422216649385D+01 0.320692769050350D+02 0.221761849909482D+02
 0.116724982797007D+03 -.796004208717418D+02 0.181520101057681D+02 -.221761849909482D+02
 0.350706383072932D+03 0.701361987052479D+02 -.502212870108031D+02 -.339931909491085D+03
-.127738962171D-04 0.000000000000D+00 0.000000000000D+00 0.277015315280D-02 0.000000000000D+00  5 1 21 25 -24 2 2 0.53687989D-01 0.23096851D-01 0.27267352D+05 0.27267352D+05 0.27267352D+05 0.12192759D+01  1  2 13  4  5  2       -2 -.266088345574D-01 0.100000000000D+01
0.143322664031D-03 0.000000000000D+00 0.000000000000D+00 0.277015315280D-02 0.126337941153D-05  5 1 21 25 -24 2 2 0.59751329D-01 0.24054647D-01 0.27267352D+05 0.27267352D+05 0.27267352D+05 0.12192759D+01  1  2  1  4  5  2       -2 0.241606424955D+00 0.100000000000D+01
  </mgrwgt>
  </event>
  <event>
  4     66 0.47139866E-03 0.55778706E+02 0.75467711E-02 0.11721462E+00
        1 -1    0    0  501    0 0.00000000E+00 0.00000000E+00 0.25426858E+03 0.25426878E+03 0.32000000E+00 0.0000E+00 0.9000E+01
       -2 -1    0    0    0  501 0.00000000E+00 0.00000000E+00 -.10038238E+03 0.10038289E+03 0.32000000E+00 0.0000E+00 0.9000E+01
       25  1    1    2    0    0 0.85760134E+02 0.84501900E+02 0.99066828E+02 0.19983645E+03 0.12500000E+03 0.0000E+00 0.9000E+01
      -24  1    1    2    0    0 -.85760134E+02 -.84501900E+02 0.54819376E+02 0.15481522E+03 0.80419002E+02 0.0000E+00 0.9000E+01
#aMCatNLO 1  0  0  2  1 0.31314196D+02 0.00000000D+00  -5  5  0 0.00000000D+00 0.00000000D+00 0.00000000D+00 0.00000000D+00 0.00000000D+00
  <mgrwgt>
 0.1941883950D+00    9    2    0
 0.159762984142988D+03 0.000000000000000D+00 0.000000000000000D+00 0.159762984142988D+03
 0.159762984142988D+03 0.000000000000000D+00 0.000000000000000D+00 -.159762984142988D+03
 0.174093249840568D+03 0.857601340828096D+02 0.845019004993051D+02 0.137145125379864D+02
 0.145432718445407D+03 -.857601340828096D+02 -.845019004993051D+02 -.137145125379864D+02
 0.000000000000000D+00 -.000000000000000D+00 -.000000000000000D+00 -.000000000000000D+00
 0.169601711731528D+03 0.000000000000000D+00 0.000000000000000D+00 0.169601711731528D+03
 0.187546478037719D+03 0.000000000000000D+00 0.000000000000000D+00 -.187546478037719D+03
 0.185024633836492D+03 0.102835766477700D+03 0.885767035123648D+02 0.137145125379864D+02
 0.136032095269325D+03 -.723768137037801D+02 -.813082036016411D+02 -.137145125379864D+02
 0.360914606634298D+02 -.304589527739200D+02 -.726849991072372D+01 -.179447663061913D+02
0.495401254141D-03 0.000000000000D+00 0.000000000000D+00 0.232332428716D-02 0.000000000000D+00  5 1 -2 25 -24 21 0 0.39118298D-01 0.15443497D-01 0.25334586D+05 0.25334586D+05 0.25334586D+05 0.12226791D+01  1  2  2  2  5  2       -2 0.149293983179D+00 0.100000000000D+01
-.275218267085D-04 0.000000000000D+00 -.190247125805D-05 0.232332428716D-02 0.000000000000D+00  5 1 -2 25 -24 21 2 0.39118298D-01 0.15443497D-01 0.25334586D+05 0.25334586D+05 0.25334586D+05 0.12226791D+01  1  2  3  2  5  2       -2 -.123990222385D-01 0.100000000000D+01
0.342233284007D-04 0.000000000000D+00 0.000000000000D+00 0.232332428716D-02 0.000000000000D+00  5 1 -2 25 -24 21 2 0.39118298D-01 0.15443497D-01 0.25334586D+05 0.25334586D+05 0.25334586D+05 0.12226791D+01  1  2 15  2  5  2       -2 0.154181557209D-01 0.100000000000D+01
0.619443532927D-03 0.000000000000D+00 0.000000000000D+00 0.232332428716D-02 0.000000000000D+00  5 1 -2 25 -24 21 2 0.39118298D-01 0.18543648D-01 0.30829890D+05 0.30829890D+05 0.30829890D+05 0.12136566D+01  1  2 12  2  5  2       -2 0.203595452374D+00 0.100000000000D+01
-.617362526863D-03 0.000000000000D+00 0.000000000000D+00 0.232332428716D-02 0.000000000000D+00  5 1 -2 25 -24 21 2 0.39118298D-01 0.15443497D-01 0.25334586D+05 0.25334586D+05 0.25334586D+05 0.12226791D+01  1  2  4  2  5  2       -2 -.278131672758D+00 0.100000000000D+01
-.127906956950D-02 0.000000000000D+00 -.306022538443D-03 0.232332428716D-02 0.000000000000D+00  5 1 -2 25 -24 21 2 0.39118298D-01 0.19175719D-01 0.25334586D+05 0.25334586D+05 0.25334586D+05 0.12226791D+01  1  2  5  2  5  2       -2 -.401763847658D+00 0.100000000000D+01
0.132126792160D-02 0.000000000000D+00 0.298990758136D-03 0.232332428716D-02 0.000000000000D+00  5 1 -2 25 -24 21 2 0.39118298D-01 0.15443497D-01 0.25334586D+05 0.25334586D+05 0.25334586D+05 0.12226791D+01  1  2  6  2  5  2       -2 0.595252288901D+00 0.100000000000D+01
0.165451796834D-04 0.000000000000D+00 0.000000000000D+00 0.232332428716D-02 0.000000000000D+00  5 1 21 25 -24 2 2 0.39118298D-01 0.18543648D-01 0.30829890D+05 0.30829890D+05 0.30829890D+05 0.12136566D+01  1  2 12  4  5  2       -2 0.763137207110D-01 0.100000000000D+01
-.348405046619D-04 0.000000000000D+00 -.930080045281D-05 0.232332428716D-02 0.000000000000D+00  5 1 21 25 -24 2 2 0.39118298D-01 0.19175719D-01 0.25334586D+05 0.25334586D+05 0.25334586D+05 0.12226791D+01  1  2  5  4  5  2       -2 -.153390663200D+00 0.100000000000D+01
  </mgrwgt>
  </event>
  <event>
  4     66 0.47139866E-03 0.21414517E+03 0.75467711E-02 0.11066247E+00
        1 -1    0    0  501    0 0.00000000E+00 0.00000000E+00 0.15598278E+03 0.15598311E+03 0.32000000E+00 0.0000E+00 0.9000E+01
       -2 -1    0    0    0  501 0.00000000E+00 0.00000000E+00 -.40720008E+03 0.40720020E+03 0.32000000E+00 0.0000E+00 0.9000E+01
       25  1    1    2    0    0 -.17320074E+03 -.70198625E+02 0.18204003E+02 0.22557201E+03 0.12500000E+03 0.0000E+00 0.9000E+01
      -24  1    1    2    0    0 0.17320074E+03 0.70198625E+02 -.26942130E+03 0.33761131E+03 0.80419002E+02 0.0000E+00 0.9000E+01
#aMCatNLO 1  0  0  1  1 0.85344034D+02 0.00000000D+00  -5  5  0 0.00000000D+00 0.00000000D+00 0.00000000D+00 0.00000000D+00 0.00000000D+00
  <mgrwgt>
 0.2058989134D+00    4    2    0
 0.252024460783617D+03 0.000000000000000D+00 0.000000000000000D+00 0.252024460783617D+03
 0.252024460783617D+03 0.000000000000000D+00 0.000000000000000D+00 -.252024460783617D+03
 0.261108682228983D+03 -.173200742159606D+03 -.701986245605105D+02 0.132764452925209D+03
 0.242940239338251D+03 0.173200742159606D+03 0.701986245605105D+02 -.132764452925209D+03
 0.000000000000000D+00 -.000000000000000D+00 0.000000000000000D+00 -.000000000000000D+00
 0.267698724118164D+03 0.000000000000000D+00 0.000000000000000D+00 0.267698724118164D+03
 0.406258010097286D+03 0.000000000000000D+00 0.000000000000000D+00 -.406258010097286D+03
 0.272218360185126D+03 -.166534909714526D+03 -.114531914799865D+03 0.132764452925209D+03
 0.239004604296831D+03 0.179224369915101D+03 0.301365258236455D+02 -.132764452925209D+03
 0.162733769733493D+03 -.126894602005748D+02 0.843953889762192D+02 -.138559285979122D+03
0.526846851661D-02 0.000000000000D+00 0.000000000000D+00 0.150484353726D-02 0.000000000000D+00  5 1 -2 25 -24 21 0 0.23997386D-01 0.62646200D-01 0.45858152D+05 0.45858152D+05 0.45858152D+05 0.11960189D+01  1  2  2  1  5  1        1 0.225863223562D+00 0.100000000000D+01
-.283252383928D-03 0.000000000000D+00 -.202323063234D-04 0.150484353726D-02 0.000000000000D+00  5 1 -2 25 -24 21 2 0.23997386D-01 0.62646200D-01 0.45858152D+05 0.45858152D+05 0.45858152D+05 0.11960189D+01  1  2  3  1  5  1        1 -.173704388590D-01 0.100000000000D+01
0.361976902359D-03 0.000000000000D+00 0.000000000000D+00 0.150484353726D-02 0.000000000000D+00  5 1 -2 25 -24 21 2 0.23997386D-01 0.62646200D-01 0.45858152D+05 0.45858152D+05 0.45858152D+05 0.11960189D+01  1  2 15  1  5  1        1 0.221982161760D-01 0.100000000000D+01
-.404274061597D-03 0.000000000000D+00 0.000000000000D+00 0.150484353726D-02 0.000000000000D+00  5 1 -2 25 -24 21 2 0.23997386D-01 0.62646200D-01 0.45858152D+05 0.45858152D+05 0.45858152D+05 0.11960189D+01  1  2  4  1  5  1        1 -.247920874376D-01 0.100000000000D+01
  </mgrwgt>
  </event>
  <event>
  4     66 0.47139866E-03 0.34066751E+02 0.75467711E-02 0.12583053E+00
        1 -1    0    0  501    0 0.00000000E+00 0.00000000E+00 0.46264736E+02 0.46265842E+02 0.32000000E+00 0.0000E+00 0.9000E+01
       -2 -1    0    0    0  501 0.00000000E+00 0.00000000E+00 -.24783554E+03 0.24783575E+03 0.32000000E+00 0.0000E+00 0.9000E+01
       25  1    1    2    0    0 0.21376870E+02 -.16946833E+02 -.10506604E+03 0.16555373E+03 0.12500000E+03 0.0000E+00 0.9000E+01
      -24  1    1    2    0    0 -.21376870E+02 0.16946833E+02 -.96504765E+02 0.12854786E+03 0.80419002E+02 0.0000E+00 0.9000E+01
#aMCatNLO 1  0  0  2  1 0.93901199D+01 0.00000000D+00  -5  5  0 0.00000000D+00 0.00000000D+00 0.00000000D+00 0.00000000D+00 0.00000000D+00
  <mgrwgt>
 0.1705067729D+00   11    2    0
 0.107080524857221D+03 0.000000000000000D+00 0.000000000000000D+00 0.107080524857221D+03
 0.107080524857221D+03 0.000000000000000D+00 0.000000000000000D+00 -.107080524857221D+03
 0.128461126180011D+03 0.213768695496786D+02 -.169468326910232D+02 0.115366914423191D+02
 0.856999235344310D+02 -.213768695496786D+02 0.169468326910232D+02 -.115366914423191D+02
 0.000000000000000D+00 0.000000000000000D+00 -.000000000000000D+00 -.000000000000000D+00
 0.110191109143218D+03 0.000000000000000D+00 0.000000000000000D+00 0.110191109143218D+03
 0.114512447746380D+03 0.000000000000000D+00 0.000000000000000D+00 -.114512447746380D+03
 0.127595685418762D+03 0.197027818374850D+02 -.115915519199453D+02 0.115366914423191D+02
 0.867711253692814D+02 -.225044773718492D+02 0.205539653659742D+02 -.115366914423191D+02
 0.103367461015552D+02 0.280169553436420D+01 -.896241344602896D+01 -.432133860316208D+01
0.230299343462D-03 0.000000000000D+00 0.000000000000D+00 0.306643240434D-02 0.000000000000D+00  5 1 -2 25 -24 21 0 0.71177526D-02 0.38128646D-01 0.11327547D+05 0.11327547D+05 0.11327547D+05 0.12619700D+01  1  2  2  2  5  2       -2 0.125071120485D+00 0.100000000000D+01
-.127938320212D-04 0.000000000000D+00 -.884410118104D-06 0.306643240434D-02 0.000000000000D+00  5 1 -2 25 -24 21 2 0.71177526D-02 0.38128646D-01 0.11327547D+05 0.11327547D+05 0.11327547D+05 0.12619700D+01  1  2  3  2  5  2       -2 -.110652968641D-01 0.100000000000D+01
0.159247273127D-04 0.000000000000D+00 0.000000000000D+00 0.306643240434D-02 0.000000000000D+00  5 1 -2 25 -24 21 2 0.71177526D-02 0.38128646D-01 0.11327547D+05 0.11327547D+05 0.11327547D+05 0.12619700D+01  1  2 15  2  5  2       -2 0.137731865560D-01 0.100000000000D+01
0.576802949644D-03 0.000000000000D+00 0.000000000000D+00 0.306643240434D-02 0.000000000000D+00  5 1 -2 25 -24 21 2 0.71177526D-02 0.41300643D-01 0.12372553D+05 0.12372553D+05 0.12372553D+05 0.12574709D+01  1  2 12  2  5  2       -2 0.427778378487D+00 0.100000000000D+01
-.554636712899D-03 0.000000000000D+00 0.000000000000D+00 0.306643240434D-02 0.000000000000D+00  5 1 -2 25 -24 21 2 0.71177526D-02 0.38128646D-01 0.11327547D+05 0.11327547D+05 0.11327547D+05 0.12619700D+01  1  2  4  2  5  2       -2 -.479701458466D+00 0.100000000000D+01
-.172562841291D-02 0.000000000000D+00 -.301218219459D-03 0.306643240434D-02 0.000000000000D+00  5 1 -2 25 -24 21 2 0.71177526D-02 0.41812992D-01 0.11327547D+05 0.11327547D+05 0.11327547D+05 0.12619700D+01  1  2  5  2  5  2       -2 -.125460089631D+01 0.100000000000D+01
0.174725160892D-02 0.000000000000D+00 0.299941296924D-03 0.306643240434D-02 0.000000000000D+00  5 1 -2 25 -24 21 2 0.71177526D-02 0.38128646D-01 0.11327547D+05 0.11327547D+05 0.11327547D+05 0.12619700D+01  1  2  6  2  5  2       -2 0.151118583681D+01 0.100000000000D+01
0.124289543476D-07 0.000000000000D+00 0.000000000000D+00 0.306643240434D-02 0.294066812788D-03  5 1 -2 25 -24 21 2 0.73245164D-02 0.40774964D-01 0.12372553D+05 0.12372553D+05 0.12372553D+05 0.12574709D+01  1  2 11  2  5  2       -2 0.908875002893D-05 0.100000000000D+01
0.776671966067D-05 0.000000000000D+00 0.000000000000D+00 0.306643240434D-02 0.000000000000D+00  5 1 21 25 -24 2 2 0.71177526D-02 0.41300643D-01 0.12372553D+05 0.12372553D+05 0.12372553D+05 0.12574709D+01  1  2 12  4  5  2       -2 0.738435233902D-01 0.100000000000D+01
-.252754168948D-04 0.000000000000D+00 -.456103255318D-05 0.306643240434D-02 0.000000000000D+00  5 1 21 25 -24 2 2 0.71177526D-02 0.41812992D-01 0.11327547D+05 0.11327547D+05 0.11327547D+05 0.12619700D+01  1  2  5  4  5  2       -2 -.235788444427D+00 0.100000000000D+01
0.184772829944D-09 0.000000000000D+00 0.000000000000D+00 0.306643240434D-02 0.341936425882D-05  5 1 21 25 -24 2 2 0.73245164D-02 0.40774964D-01 0.12372553D+05 0.12372553D+05 0.12372553D+05 0.12574709D+01  1  2 11  4  5  2       -2 0.173448552673D-05 0.100000000000D+01
  </mgrwgt>
  </event>
  <event>
  4     66 0.47139866E-03 0.10978169E+03 0.75467711E-02 0.11054551E+00
        1 -1    0    0  501    0 0.00000000E+00 0.00000000E+00 0.97843842E+03 0.97843847E+03 0.32000000E+00 0.0000E+00 0.9000E+01
       -2 -1    0    0    0  501 0.00000000E+00 0.00000000E+00 -.13193140E+02 0.13197020E+02 0.32000000E+00 0.0000E+00 0.9000E+01
       25  1    1    2    0    0 0.16682332E+02 -.34095799E+02 0.69389726E+03 0.70608727E+03 0.12500000E+03 0.0000E+00 0.9000E+01
      -24  1    1    2    0    0 -.16682332E+02 0.34095799E+02 0.27134801E+03 0.28554822E+03 0.80419002E+02 0.0000E+00 0.9000E+01
#aMCatNLO 1  0  0  2  1 0.21687192D+03 0.00000000D+00  -5  5  0 0.00000000D+00 0.00000000D+00 0.00000000D+00 0.00000000D+00 0.00000000D+00
  <mgrwgt>
 0.3049379224D+00    5    2    0
 0.113624929544988D+03 0.000000000000000D+00 0.000000000000000D+00 0.113624929544988D+03
 0.113624929544988D+03 0.000000000000000D+00 0.000000000000000D+00 -.113624929544988D+03
 0.133774081853161D+03 0.166823322775597D+02 -.340957994019934D+02 0.288041876916593D+02
 0.934757772368155D+02 -.166823322775597D+02 0.340957994019934D+02 -.288041876916593D+02
 0.000000000000000D+00 0.000000000000000D+00 -.000000000000000D+00 -.000000000000000D+00
 0.235168725331161D+03 0.000000000000000D+00 0.000000000000000D+00 0.235168725331161D+03
 0.307608931878699D+03 0.000000000000000D+00 0.000000000000000D+00 -.307608931878699D+03
 0.149567938159554D+03 -.542918476534235D+02 0.544819435694174D+02 0.288041876916593D+02
 0.164559306733785D+03 -.813173923276502D+02 0.114762145129777D+03 -.288041876916593D+02
 0.228650412316521D+03 0.135609239981074D+03 -.169244088699194D+03 -.724402065475377D+02
0.221619142243D-03 0.000000000000D+00 0.000000000000D+00 0.275979190355D-02 0.000000000000D+00  5 1 -2 25 -24 21 0 0.15052929D+00 0.20300163D-02 0.12052020D+05 0.12052020D+05 0.12052020D+05 0.12588040D+01  1  2  2  2  5  2       -2 0.232368619662D+00 0.100000000000D+01
-.122944504744D-04 0.000000000000D+00 -.851075859874D-06 0.275979190355D-02 0.000000000000D+00  5 1 -2 25 -24 21 2 0.15052929D+00 0.20300163D-02 0.12052020D+05 0.12052020D+05 0.12052020D+05 0.12588040D+01  1  2  3  2  5  2       -2 -.204265751494D-01 0.100000000000D+01
0.153308398073D-04 0.000000000000D+00 0.000000000000D+00 0.275979190355D-02 0.000000000000D+00  5 1 -2 25 -24 21 2 0.15052929D+00 0.20300163D-02 0.12052020D+05 0.12052020D+05 0.12052020D+05 0.12588040D+01  1  2 15  2  5  2       -2 0.254713744285D-01 0.100000000000D+01
0.158077560473D-03 0.000000000000D+00 -.974124579734D-04 0.275979190355D-02 0.000000000000D+00  5 1 -2 25 -24 21 2 0.15052929D+00 0.12142991D-01 0.12052020D+05 0.12052020D+05 0.12052020D+05 0.12588040D+01  1  2  5  2  5  2       -2 0.179276597034D-01 0.100000000000D+01
0.284857929909D-04 0.000000000000D+00 -.213545575249D-04 0.275979190355D-02 0.000000000000D+00  5 1 21 25 -24 2 2 0.15052929D+00 0.12142991D-01 0.12052020D+05 0.12052020D+05 0.12052020D+05 0.12588040D+01  1  2  5  4  5  2       -2 0.495968437414D-01 0.100000000000D+01
  </mgrwgt>
  </event>
  <event>
  5     66 0.47139866E-03 0.15953898E+03 0.75467711E-02 0.11680070E+00
        1 -1    0    0  502    0 0.00000000E+00 0.00000000E+00 0.13855239E+03 0.13855276E+03 0.32000000E+00 0.0000E+00 0.9000E+01
       -2 -1    0    0    0  501 0.00000000E+00 0.00000000E+00 -.28295623E+03 0.28295641E+03 0.32000000E+00 0.0000E+00 0.9000E+01
       25  1    1    2    0    0 0.42151189E+02 0.12096415E+03 -.10733664E+02 0.17930214E+03 0.12500000E+03 0.0000E+00 0.9000E+01
      -24  1    1    2    0    0 -.69762743E+02 -.94516251E+02 -.51180367E+02 0.15128386E+03 0.80419002E+02 0.0000E+00 0.9000E+01
       21  1    1    2  502  501 0.27611554E+02 -.26447896E+02 -.82489811E+02 0.90923158E+02 0.75000000E+00 0.0000E+00 0.9000E+01
#aMCatNLO 2  0  0  1  1 0.38234659D+02 0.00000000D+00  -5  5  0 0.00000000D+00 0.00000000D+00 0.00000000D+00 0.00000000D+00 0.00000000D+00
  <mgrwgt>
 0.1572120590D-01    1    2    0
 0.161238854814077D+03 0.000000000000000D+00 0.000000000000000D+00 0.161238854814077D+03
 0.161238854814077D+03 0.000000000000000D+00 0.000000000000000D+00 -.161238854814077D+03
 0.175437951018570D+03 0.573356513165603D+02 0.106419616090076D+03 0.232586125325823D+02
 0.147039758609584D+03 -.573356513165603D+02 -.106419616090076D+03 -.232586125325823D+02
 0.000000000000000D+00 0.000000000000000D+00 -.000000000000000D+00 -.000000000000000D+00
 0.167463019219117D+03 0.000000000000000D+00 0.000000000000000D+00 0.167463019219117D+03
 0.234102683046104D+03 0.000000000000000D+00 0.000000000000000D+00 -.234102683046104D+03
 0.180485485476165D+03 0.421511886023674D+02 0.120964146382445D+03 0.232586125325823D+02
 0.144250965092953D+03 -.697627428748226D+02 -.945162505896130D+02 -.232586125325823D+02
 0.768292516961025D+02 0.276115542724551D+02 -.264478957928324D+02 -.666396638269868D+02
0.103655864366D-03 0.000000000000D+00 0.000000000000D+00 0.228509233951D-02 0.130806916830D-04  5 1 -2 25 -24 21 2 0.21315567D-01 0.43531306D-01 0.32324224D+05 0.32324224D+05 0.32324224D+05 0.12115118D+01  1  2  1  1  5  1        1 0.157212058966D-01 0.100000000000D+01
  </mgrwgt>
  </event>
  <event>
  5     66 0.47139866E-03 0.21995020E+03 0.75467711E-02 0.11114129E+00
        1 -1    0    0  501    0 0.00000000E+00 0.00000000E+00 0.15315838E+04 0.15315838E+04 0.32000000E+00 0.0000E+00 0.9000E+01
       21 -1    0    0  502  501 0.00000000E+00 0.00000000E+00 -.46478472E+02 0.46484523E+02 0.75000000E+00 0.0000E+00 0.9000E+01
       25  1    1    2    0    0 0.19002121E+03 0.57933091E+02 0.44842519E+03 0.50613679E+03 0.12500000E+03 0.0000E+00 0.9000E+01
      -24  1    1    2    0    0 -.19340761E+03 0.38018800E+01 0.75354072E+03 0.78212006E+03 0.80419002E+02 0.0000E+00 0.9000E+01
        2  1    1    2  502    0 0.33864040E+01 -.61734971E+02 0.28313940E+03 0.28981149E+03 0.32000000E+00 0.0000E+00 0.9000E+01
#aMCatNLO 2  0  0  2  1 0.61827780D+02 0.00000000D+00  -5  5  0 0.00000000D+00 0.00000000D+00 0.00000000D+00 0.00000000D+00 0.00000000D+00
  <mgrwgt>
 0.5974880229D-01    1    2    0
 0.229706877421133D+03 0.000000000000000D+00 0.000000000000000D+00 0.229706877421133D+03
 0.229706877421133D+03 0.000000000000000D+00 0.000000000000000D+00 -.229706877421133D+03
 0.239673692682002D+03 0.191795304518045D+03 0.255908350153917D+02 -.661675849028194D+02
 0.219740062160265D+03 -.191795304518045D+03 -.255908350153917D+02 0.661675849028194D+02
 0.000000000000000D+00 0.000000000000000D+00 -.000000000000000D+00 0.000000000000000D+00
 0.285104800228099D+03 0.000000000000000D+00 0.000000000000000D+00 0.285104800228099D+03
 0.249698626581721D+03 0.000000000000000D+00 0.000000000000000D+00 -.249698626581721D+03
 0.243859490146451D+03 0.190021205605248D+03 0.579330912600325D+02 -.661675849028194D+02
 0.219695978534041D+03 -.193407609587739D+03 0.380187997498355D+01 0.661675849028194D+02
 0.712479581293274D+02 0.338640398249128D+01 -.617349712350161D+02 0.354061736463783D+02
0.385675422060D-04 0.000000000000D+00 0.000000000000D+00 0.192706731938D-02 0.633185679694D-07  5 1 21 25 -24 2 2 0.23562841D+00 0.71509923D-02 0.64017584D+05 0.64017584D+05 0.64017584D+05 0.11817963D+01  1  2  1  4  5  2       -2 0.597488022866D-01 0.100000000000D+01
  </mgrwgt>
  </event>
  <event>
  4     66 0.47139866E-03 0.71077490E+02 0.75467711E-02 0.11393320E+00
        1 -1    0    0  501    0 0.00000000E+00 0.00000000E+00 0.17131671E+04 0.17131671E+04 0.32000000E+00 0.0000E+00 0.9000E+01
       -2 -1    0    0    0  501 0.00000000E+00 0.00000000E+00 -.15494285E+02 0.15497589E+02 0.32000000E+00 0.0000E+00 0.9000E+01
       25  1    1    2    0    0 0.31945612E+02 -.11412778E+03 0.11377094E+04 0.11506752E+04 0.12500000E+03 0.0000E+00 0.9000E+01
      -24  1    1    2    0    0 -.31945612E+02 0.11412778E+03 0.55996337E+03 0.57798950E+03 0.80419002E+02 0.0000E+00 0.9000E+01
#aMCatNLO 1  0  0  1  2 0.95999681D+02 0.00000000D+00  -5  5  0 0.00000000D+00 0.00000000D+00 0.00000000D+00 0.00000000D+00 0.00000000D+00
  <mgrwgt>
 0.2955975396D+00    9    2    0
 0.162933055804383D+03 0.000000000000000D+00 0.000000000000000D+00 0.162933055804383D+03
 0.162933055804383D+03 0.000000000000000D+00 0.000000000000000D+00 -.162933055804383D+03
 0.176984507795537D+03 0.319456121712306D+02 -.114127782230755D+03 0.406551741568449D+02
 0.148881603813229D+03 -.319456121712306D+02 0.114127782230755D+03 -.406551741568449D+02
 0.000000000000000D+00 0.000000000000000D+00 -.000000000000000D+00 0.000000000000000D+00
 0.264768340571247D+03 0.000000000000000D+00 0.000000000000000D+00 0.264768340571247D+03
 0.194131256616343D+03 0.000000000000000D+00 0.000000000000000D+00 -.194131256616343D+03
 0.150088222099919D+03 0.270530586014198D+02 -.672068690514551D+02 0.406551741568449D+02
 0.189624393987695D+03 -.370091915423161D+02 0.162688879142032D+03 -.406551741568449D+02
 0.119186981099976D+03 0.995613294089634D+01 -.954820100905770D+02 0.706370839549047D+02
0.893071558174D-03 0.000000000000D+00 0.000000000000D+00 0.218576877877D-02 0.000000000000D+00  5 1 -2 25 -24 21 0 0.26356443D+00 0.23839926D-02 0.24881116D+05 0.24881116D+05 0.24881116D+05 0.12235197D+01  1  2  2  1  5  1        1 0.241764870143D+00 0.100000000000D+01
-.495517319265D-04 0.000000000000D+00 -.342962993453D-05 0.218576877877D-02 0.000000000000D+00  5 1 -2 25 -24 21 2 0.26356443D+00 0.23839926D-02 0.24881116D+05 0.24881116D+05 0.24881116D+05 0.12235197D+01  1  2  3  1  5  1        1 -.200811080493D-01 0.100000000000D+01
0.617547499919D-04 0.000000000000D+00 0.000000000000D+00 0.218576877877D-02 0.000000000000D+00  5 1 -2 25 -24 21 2 0.26356443D+00 0.23839926D-02 0.24881116D+05 0.24881116D+05 0.24881116D+05 0.12235197D+01  1  2 15  1  5  1        1 0.250264472891D-01 0.100000000000D+01
0.210382875707D-03 0.000000000000D+00 0.000000000000D+00 0.218576877877D-02 0.000000000000D+00  5 1 -2 25 -24 21 2 0.44058941D+00 0.23839926D-02 0.45303356D+05 0.45303356D+05 0.45303356D+05 0.11965479D+01  1  2 12  1  5  1        1 0.143584908779D-01 0.100000000000D+01
-.530271137389D-03 0.000000000000D+00 0.000000000000D+00 0.218576877877D-02 0.000000000000D+00  5 1 -2 25 -24 21 2 0.26356443D+00 0.23839926D-02 0.24881116D+05 0.24881116D+05 0.24881116D+05 0.12235197D+01  1  2  4  1  5  1        1 -.214895253734D+00 0.100000000000D+01
-.634753197709D-03 0.000000000000D+00 -.281937824292D-03 0.218576877877D-02 0.000000000000D+00  5 1 -2 25 -24 21 2 0.45251362D+00 0.23839926D-02 0.24881116D+05 0.24881116D+05 0.24881116D+05 0.12235197D+01  1  2  5  1  5  1        1 -.406527679086D-01 0.100000000000D+01
0.716596214689D-03 0.000000000000D+00 0.245233192060D-03 0.218576877877D-02 0.000000000000D+00  5 1 -2 25 -24 21 2 0.26356443D+00 0.23839926D-02 0.24881116D+05 0.24881116D+05 0.24881116D+05 0.12235197D+01  1  2  6  1  5  1        1 0.290404501627D+00 0.100000000000D+01
0.121226921766D-04 0.000000000000D+00 0.000000000000D+00 0.218576877877D-02 0.000000000000D+00  5 21 -2 25 -24 -1 2 0.44058941D+00 0.23839926D-02 0.45303356D+05 0.45303356D+05 0.45303356D+05 0.11965479D+01  1  2 12  3  5  1        1 0.373550830448D-03 0.100000000000D+01
-.242865376801D-04 0.000000000000D+00 -.169300830321D-04 0.218576877877D-02 0.000000000000D+00  5 21 -2 25 -24 -1 2 0.45251362D+00 0.23839926D-02 0.24881116D+05 0.24881116D+05 0.24881116D+05 0.12235197D+01  1  2  5  3  5  1        1 -.701191503222D-03 0.100000000000D+01
  </mgrwgt>
  </event>
  <event>
  4     66 0.47139866E-03 0.87745796E+02 0.75467711E-02 0.11536786E+00
        3 -1    0    0  501    0 0.00000000E+00 0.00000000E+00 0.18769029E+02 0.18775688E+02 0.50000000E+00 0.0000E+00 0.9000E+01
       -4 -1    0    0    0  501 0.00000000E+00 0.00000000E+00 -.14058924E+04 0.14058933E+04 0.15500000E+01 0.0000E+00 0.9000E+01
       25  1    1    2    0    0 -.12450140E+03 0.58236914E+01 -.73947275E+03 0.76024961E+03 0.12500000E+03 0.0000E+00 0.9000E+01
      -24  1    1    2    0    0 0.12450140E+03 -.58236914E+01 -.64765062E+03 0.66441934E+03 0.80419002E+02 0.0000E+00 0.9000E+01
#aMCatNLO 1  0  0  2  1 0.60385409D+02 0.00000000D+00  -5  5  0 0.00000000D+00 0.00000000D+00 0.00000000D+00 0.00000000D+00 0.00000000D+00
  <mgrwgt>
 0.1186960014D+00    9    2    0
 0.162457956158156D+03 0.000000000000000D+00 0.000000000000000D+00 0.162457956158156D+03
 0.162457956158156D+03 0.000000000000000D+00 0.000000000000000D+00 -.162457956158156D+03
 0.176550500872793D+03 -.124501398935724D+03 0.582369135848725D+01 0.325048310913401D+01
 0.148365411443518D+03 0.124501398935724D+03 -.582369135848725D+01 -.325048310913401D+01
 0.000000000000000D+00 -.000000000000000D+00 -.000000000000000D+00 -.000000000000000D+00
 0.178127963496293D+03 0.000000000000000D+00 0.000000000000000D+00 0.178127963496293D+03
 0.235971231886444D+03 0.000000000000000D+00 0.000000000000000D+00 -.235971231886444D+03
 0.162410005578661D+03 -.100405999729232D+03 0.256920121826123D+02 0.325048310913401D+01
 0.168069566763833D+03 0.146995544942954D+03 0.127242856103256D+02 -.325048310913401D+01
 0.836196230402426D+02 -.465895452137227D+02 -.384162977929379D+02 -.578432683901513D+02
0.705364080308D-02 0.000000000000D+00 0.000000000000D+00 0.232165885876D-02 0.000000000000D+00  5 3 -4 25 -24 21 0 0.28881209D-02 0.21629172D+00 0.26381942D+05 0.26381942D+05 0.26381942D+05 0.12208003D+01  1  2  2  2  5  2       -4 0.892490038990D-01 0.100000000000D+01
-.391868914117D-03 0.000000000000D+00 -.270878379501D-04 0.232165885876D-02 0.000000000000D+00  5 3 -4 25 -24 21 2 0.28881209D-02 0.21629172D+00 0.26381942D+05 0.26381942D+05 0.26381942D+05 0.12208003D+01  1  2  3  2  5  2       -4 -.738958644527D-02 0.100000000000D+01
0.487949649597D-03 0.000000000000D+00 0.000000000000D+00 0.232165885876D-02 0.000000000000D+00  5 3 -4 25 -24 21 2 0.28881209D-02 0.21629172D+00 0.26381942D+05 0.26381942D+05 0.26381942D+05 0.12208003D+01  1  2 15  2  5  2       -4 0.920140890676D-02 0.100000000000D+01
0.487121513818D-02 0.000000000000D+00 0.000000000000D+00 0.232165885876D-02 0.000000000000D+00  5 3 -4 25 -24 21 2 0.28881209D-02 0.32087196D+00 0.38181358D+05 0.38181358D+05 0.38181358D+05 0.12040579D+01  1  2 12  2  5  2       -4 0.220599028475D-01 0.100000000000D+01
-.561542611079D-02 0.000000000000D+00 0.000000000000D+00 0.232165885876D-02 0.000000000000D+00  5 3 -4 25 -24 21 2 0.28881209D-02 0.21629172D+00 0.26381942D+05 0.26381942D+05 0.26381942D+05 0.12208003D+01  1  2  4  2  5  2       -4 -.105891728529D+00 0.100000000000D+01
-.763553173013D-02 0.000000000000D+00 -.213404494253D-02 0.232165885876D-02 0.000000000000D+00  5 3 -4 25 -24 21 2 0.28881209D-02 0.32533349D+00 0.26381942D+05 0.26381942D+05 0.26381942D+05 0.12208003D+01  1  2  5  2  5  2       -4 -.331407397516D-01 0.100000000000D+01
0.799728677843D-02 0.000000000000D+00 0.196779305545D-02 0.232165885876D-02 0.000000000000D+00  5 3 -4 25 -24 21 2 0.28881209D-02 0.21629172D+00 0.26381942D+05 0.26381942D+05 0.26381942D+05 0.12208003D+01  1  2  6  2  5  2       -4 0.150807170071D+00 0.100000000000D+01
0.229491060121D-03 0.000000000000D+00 0.000000000000D+00 0.232165885876D-02 0.000000000000D+00  5 3 21 25 -24 4 2 0.28881209D-02 0.32087196D+00 0.38181358D+05 0.38181358D+05 0.38181358D+05 0.12040579D+01  1  2 12  4  5  2       -4 0.228542603541D-01 0.100000000000D+01
-.294066206331D-03 0.000000000000D+00 -.103111868214D-03 0.232165885876D-02 0.000000000000D+00  5 3 21 25 -24 4 2 0.28881209D-02 0.32533349D+00 0.26381942D+05 0.26381942D+05 0.26381942D+05 0.12208003D+01  1  2  5  4  5  2       -4 -.290536899436D-01 0.100000000000D+01
  </mgrwgt>
  </event>
  <event>
  4     66 0.47139866E-03 0.10624809E+03 0.75467711E-02 0.12569093E+00
        1 -1    0    0  501    0 0.00000000E+00 0.00000000E+00 0.11879661E+04 0.11879661E+04 0.32000000E+00 0.0000E+00 0.9000E+01
       -2 -1    0    0    0  501 0.00000000E+00 0.00000000E+00 -.14186716E+02 0.14190325E+02 0.32000000E+00 0.0000E+00 0.9000E+01
       25  1    1    2    0    0 -.24242659E+02 -.10916208E+02 0.32596221E+03 0.35011889E+03 0.12500000E+03 0.0000E+00 0.9000E+01
      -24  1    1    2    0    0 0.24242659E+02 0.10916208E+02 0.84781715E+03 0.85203756E+03 0.80419002E+02 0.0000E+00 0.9000E+01
#aMCatNLO 1  0  0  2  2 0.11364610D+02 0.00000000D+00  -5  5  0 0.00000000D+00 0.00000000D+00 0.00000000D+00 0.00000000D+00 0.00000000D+00
  <mgrwgt>
 0.1840945398D+00    4    2    0
 0.129828859499917D+03 0.000000000000000D+00 0.000000000000000D+00 0.129828859499917D+03
 0.129828859499917D+03 0.000000000000000D+00 0.000000000000000D+00 -.129828859499917D+03
 0.147463197660369D+03 -.242426589104597D+02 -.109162077826210D+02 -.735766577170967D+02
 0.112194521339465D+03 0.242426589104597D+02 0.109162077826210D+02 0.735766577170967D+02
 0.000000000000000D+00 0.000000000000000D+00 -.000000000000000D+00 0.000000000000000D+00
 0.153924846683597D+03 0.000000000000000D+00 0.000000000000000D+00 0.153924846683597D+03
 0.131300097133039D+03 0.000000000000000D+00 0.000000000000000D+00 -.131300097133039D+03
 0.148542550396915D+03 -.305751404524309D+02 -.956689625298310D+01 -.735766577170967D+02
 0.111363750810894D+03 0.194600537035056D+02 0.119352750005320D+02 0.735766577170967D+02
 0.253186426088266D+02 0.111150867489253D+02 -.236837874754889D+01 0.226247495505588D+02
0.309501716912D-03 0.000000000000D+00 0.000000000000D+00 0.187801348822D-02 0.000000000000D+00  5 1 -2 25 -24 21 0 0.18276429D+00 0.21828527D-02 0.11288657D+05 0.11288657D+05 0.11288657D+05 0.12621464D+01  1  2  2  2  5  2       -2 0.207707076473D+00 0.100000000000D+01
-.163546118546D-04 0.000000000000D+00 -.118856808661D-05 0.187801348822D-02 0.000000000000D+00  5 1 -2 25 -24 21 2 0.18276429D+00 0.21828527D-02 0.11288657D+05 0.11288657D+05 0.11288657D+05 0.12621464D+01  1  2  3  2  5  2       -2 -.174842871479D-01 0.100000000000D+01
0.212590455661D-04 0.000000000000D+00 0.000000000000D+00 0.187801348822D-02 0.000000000000D+00  5 1 -2 25 -24 21 2 0.18276429D+00 0.21828527D-02 0.11288657D+05 0.11288657D+05 0.11288657D+05 0.12621464D+01  1  2 15  2  5  2       -2 0.227274887641D-01 0.100000000000D+01
-.269913434498D-04 0.000000000000D+00 0.000000000000D+00 0.187801348822D-02 0.000000000000D+00  5 1 -2 25 -24 21 2 0.18276429D+00 0.21828527D-02 0.11288657D+05 0.11288657D+05 0.11288657D+05 0.12621464D+01  1  2  4  2  5  2       -2 -.288557382822D-01 0.100000000000D+01
  </mgrwgt>
  </event>
  <event>
  4     66 0.47139866E-03 0.60325409E+02 0.75467711E-02 0.12491798E+00
        1 -1    0    0  501    0 0.00000000E+00 0.00000000E+00 0.20376565E+03 0.20376590E+03 0.32000000E+00 0.0000E+00 0.9000E+01
       -2 -1    0    0    0  501 0.00000000E+00 0.00000000E+00 -.79100158E+02 0.79100806E+02 0.32000000E+00 0.0000E+00 0.9000E+01
       25  1    1    2    0    0 -.16667220E+02 0.17524598E+02 -.60935123E+01 0.12746387E+03 0.12500000E+03 0.0000E+00 0.9000E+01
      -24  1    1    2    0    0 0.16667220E+02 -.17524598E+02 0.13075900E+03 0.15540283E+03 0.80419002E+02 0.0000E+00 0.9000E+01
#aMCatNLO 1  0  0  1  2 0.20231749D+02 0.00000000D+00  -5  5  0 0.00000000D+00 0.00000000D+00 0.00000000D+00 0.00000000D+00 0.00000000D+00
  <mgrwgt>
 0.2518408387D+00    9    2    0
 0.126956771656806D+03 0.000000000000000D+00 0.000000000000000D+00 0.126956771656806D+03
 0.126956771656806D+03 0.000000000000000D+00 0.000000000000000D+00 -.126956771656806D+03
 0.144990043781874D+03 -.166672202283871D+02 0.175245982909372D+02 -.693700585301004D+02
 0.108923499531737D+03 0.166672202283871D+02 -.175245982909372D+02 0.693700585301004D+02
 0.000000000000000D+00 -.000000000000000D+00 0.000000000000000D+00 0.000000000000000D+00
 0.141586988676404D+03 0.000000000000000D+00 0.000000000000000D+00 0.141586988676404D+03
 0.134551450461887D+03 0.000000000000000D+00 0.000000000000000D+00 -.134551450461887D+03
 0.143571608728521D+03 -.108235125532092D+02 0.764548156995867D+01 -.693700585301004D+02
 0.111146688892091D+03 0.211238964290608D+02 -.250588602392341D+02 0.693700585301004D+02
 0.214201415176793D+02 -.103003838758516D+02 0.174133786692754D+02 0.703553821451686D+01
0.260033804600D-03 0.000000000000D+00 0.000000000000D+00 0.196542199571D-02 0.000000000000D+00  5 1 -2 25 -24 21 0 0.31348630D-01 0.12169324D-01 0.11161401D+05 0.11161401D+05 0.11161401D+05 0.12627283D+01  1  2  2  1  5  1        1 0.147856296713D+00 0.100000000000D+01
-.138533451117D-04 0.000000000000D+00 -.998598278137D-06 0.196542199571D-02 0.000000000000D+00  5 1 -2 25 -24 21 2 0.31348630D-01 0.12169324D-01 0.11161401D+05 0.11161401D+05 0.11161401D+05 0.12627283D+01  1  2  3  1  5  1        1 -.125598509237D-01 0.100000000000D+01
0.178450928963D-04 0.000000000000D+00 0.000000000000D+00 0.196542199571D-02 0.000000000000D+00  5 1 -2 25 -24 21 2 0.31348630D-01 0.12169324D-01 0.11161401D+05 0.11161401D+05 0.11161401D+05 0.12627283D+01  1  2 15  1  5  1        1 0.161788870983D-01 0.100000000000D+01
0.440501917474D-03 0.000000000000D+00 0.000000000000D+00 0.196542199571D-02 0.000000000000D+00  5 1 -2 25 -24 21 2 0.35814377D-01 0.12169324D-01 0.13545855D+05 0.13545855D+05 0.13545855D+05 0.12529029D+01  1  2 12  1  5  1        1 0.335922130194D+00 0.100000000000D+01
-.417208917762D-03 0.000000000000D+00 0.000000000000D+00 0.196542199571D-02 0.000000000000D+00  5 1 -2 25 -24 21 2 0.31348630D-01 0.12169324D-01 0.11161401D+05 0.11161401D+05 0.11161401D+05 0.12627283D+01  1  2  4  1  5  1        1 -.378253899608D+00 0.100000000000D+01
-.106565392551D-02 0.000000000000D+00 -.265951771732D-03 0.196542199571D-02 0.000000000000D+00  5 1 -2 25 -24 21 2 0.36854365D-01 0.12169324D-01 0.11161401D+05 0.11161401D+05 0.11161401D+05 0.12627283D+01  1  2  5  1  5  1        1 -.791863594721D+00 0.100000000000D+01
0.109772878462D-02 0.000000000000D+00 0.262507989391D-03 0.196542199571D-02 0.000000000000D+00  5 1 -2 25 -24 21 2 0.31348630D-01 0.12169324D-01 0.11161401D+05 0.11161401D+05 0.11161401D+05 0.12627283D+01  1  2  6  1  5  1        1 0.995233265196D+00 0.100000000000D+01
0.911657852030D-05 0.000000000000D+00 0.000000000000D+00 0.196542199571D-02 0.000000000000D+00  5 21 -2 25 -24 -1 2 0.35814377D-01 0.12169324D-01 0.13545855D+05 0.13545855D+05 0.13545855D+05 0.12529029D+01  1  2 12  3  5  1        1 0.406419799585D-01 0.100000000000D+01
-.237214042318D-04 0.000000000000D+00 -.644753122833D-05 0.196542199571D-02 0.000000000000D+00  5 21 -2 25 -24 -1 2 0.36854365D-01 0.12169324D-01 0.11161401D+05 0.11161401D+05 0.11161401D+05 0.12627283D+01  1  2  5  3  5  1        1 -.101314375252D+00 0.100000000000D+01
  </mgrwgt>
  </event>
  <event>
  5     66 0.47139866E-03 0.10395380E+03 0.75467711E-02 0.12309994E+00
        1 -1    0    0  501    0 0.00000000E+00 0.00000000E+00 0.12815543E+03 0.12815583E+03 0.32000000E+00 0.0000E+00 0.9000E+01
       21 -1    0    0  502  501 0.00000000E+00 0.00000000E+00 -.24027942E+03 0.24028059E+03 0.75000000E+00 0.0000E+00 0.9000E+01
       25  1    1    2    0    0 0.17771178E+02 -.35802189E+02 0.69402718E+02 0.14845656E+03 0.12500000E+03 0.0000E+00 0.9000E+01
      -24  1    1    2    0    0 0.12122804E+00 -.38840698E+01 -.12379390E+03 0.14767277E+03 0.80419002E+02 0.0000E+00 0.9000E+01
        2  1    1    2  502    0 -.17892406E+02 0.39686259E+02 -.57732801E+02 0.72307096E+02 0.32000000E+00 0.0000E+00 0.9000E+01
#aMCatNLO 2  0  0  2  1 0.43533175D+02 0.00000000D+00  -5  5  0 0.00000000D+00 0.00000000D+00 0.00000000D+00 0.00000000D+00 0.00000000D+00
  <mgrwgt>
 0.4013597618D-01    2    2    0
 0.143908858782865D+03 0.000000000000000D+00 0.000000000000000D+00 0.143908858782865D+03
 0.143908858782865D+03 0.000000000000000D+00 0.000000000000000D+00 -.143908858782865D+03
 0.159817858623256D+03 0.776308926210273D+01 -.136037440803567D+02 0.983433806975726D+02
 0.127999858942475D+03 -.776308926210273D+01 0.136037440803567D+02 -.983433806975726D+02
 0.000000000000000D+00 -.000000000000000D+00 0.000000000000000D+00 -.000000000000000D+00
 0.154320174650057D+03 0.000000000000000D+00 0.000000000000000D+00 0.154320174650057D+03
 0.199541282387517D+03 0.000000000000000D+00 0.000000000000000D+00 -.199541282387517D+03
 0.163994000039638D+03 0.177711776207428D+02 -.358021894294920D+02 0.983433806975726D+02
 0.127097353143005D+03 0.121228036023391D+00 -.388406981435156D+01 -.983433806975726D+02
 0.627701038549308D+02 -.178924056567662D+02 0.396862592438435D+02 -.452211077374600D+02
-.194076185363D-04 0.000000000000D+00 0.000000000000D+00 0.142015333605D-02 0.000000000000D+00  5 1 21 25 -24 2 2 0.18386118D-01 0.37644570D-01 0.16292092D+05 0.16292092D+05 0.16292092D+05 0.12437522D+01  1  2 13  4  5  2       -2 -.627645751239D-01 0.100000000000D+01
0.335463910411D-04 0.000000000000D+00 0.000000000000D+00 0.142015333605D-02 0.325801557086D-06  5 1 21 25 -24 2 2 0.19716291D-01 0.36966091D-01 0.16292092D+05 0.16292092D+05 0.16292092D+05 0.12437522D+01  1  2  1  4  5  2       -2 0.102900551308D+00 0.100000000000D+01
  </mgrwgt>
  </event>
  <event>
  4     66 0.47139866E-03 0.51073026E+02 0.75467711E-02 0.11039308E+00
        1 -1    0    0  501    0 0.00000000E+00 0.00000000E+00 0.31794463E+03 0.31794479E+03 0.32000000E+00 0.0000E+00 0.9000E+01
       -2 -1    0    0    0  501 0.00000000E+00 0.00000000E+00 -.93886256E+02 0.93886802E+02 0.32000000E+00 0.0000E+00 0.9000E+01
       25  1    1    2    0    0 0.88933574E+02 -.96096361E+02 0.69545574E+02 0.19392080E+03 0.12500000E+03 0.0000E+00 0.9000E+01
      -24  1    1    2    0    0 -.88933574E+02 0.96096361E+02 0.15451280E+03 0.21791079E+03 0.80419002E+02 0.0000E+00 0.9000E+01
#aMCatNLO 1  0  0  1  2 0.16098008D+03 0.00000000D+00  -5  5  0 0.00000000D+00 0.00000000D+00 0.00000000D+00 0.00000000D+00 0.00000000D+00
  <mgrwgt>
 0.1500752427D+00    7    2    0
 0.172773773520273D+03 0.000000000000000D+00 0.000000000000000D+00 0.172773773520273D+03
 0.172773773520273D+03 0.000000000000000D+00 0.000000000000000D+00 -.172773773520273D+03
 0.186024893552901D+03 0.889335741476808D+02 -.960963609132398D+02 -.428552194011373D+02
 0.159522653487644D+03 -.889335741476808D+02 0.960963609132398D+02 0.428552194011373D+02
 0.000000000000000D+00 -.000000000000000D+00 0.000000000000000D+00 0.000000000000000D+00
 0.475883148617300D+03 0.000000000000000D+00 0.000000000000000D+00 0.475883148617300D+03
 0.213312544792564D+03 0.000000000000000D+00 0.000000000000000D+00 -.213312544792564D+03
 0.259336642323409D+03 0.114968104026994D+03 -.191249207261360D+03 -.428552194011373D+02
 0.121868938407831D+03 -.724842465411208D+02 0.359761916790488D+02 0.428552194011373D+02
 0.307990112678624D+03 -.424838574858728D+02 0.155273015582311D+03 0.262570603824737D+03
0.749318911790D-03 0.000000000000D+00 0.000000000000D+00 0.213630131895D-02 0.000000000000D+00  5 1 -2 25 -24 21 0 0.48914613D-01 0.14444094D-01 0.28002618D+05 0.28002618D+05 0.28002618D+05 0.12180515D+01  1  2  2  1  5  1        1 0.191233864530D+00 0.100000000000D+01
-.415771401415D-04 0.000000000000D+00 -.287758192147D-05 0.213630131895D-02 0.000000000000D+00  5 1 -2 25 -24 21 2 0.48914613D-01 0.14444094D-01 0.28002618D+05 0.28002618D+05 0.28002618D+05 0.12180515D+01  1  2  3  1  5  1        1 -.157428737051D-01 0.100000000000D+01
0.517390856139D-04 0.000000000000D+00 0.000000000000D+00 0.213630131895D-02 0.000000000000D+00  5 1 -2 25 -24 21 2 0.48914613D-01 0.14444094D-01 0.28002618D+05 0.28002618D+05 0.28002618D+05 0.12180515D+01  1  2 15  1  5  1        1 0.195906184904D-01 0.100000000000D+01
0.158741407512D-05 0.000000000000D+00 0.000000000000D+00 0.213630131895D-02 0.000000000000D+00  5 1 -2 25 -24 21 2 0.13041803D+00 0.14444094D-01 0.70446894D+05 0.70446894D+05 0.70446894D+05 0.11778117D+01  1  2 12  1  5  1        1 0.148858429485D-03 0.100000000000D+01
-.497747484596D-03 0.000000000000D+00 -.281059949926D-03 0.213630131895D-02 0.000000000000D+00  5 1 -2 25 -24 21 2 0.15284877D+00 0.14444094D-01 0.28002618D+05 0.28002618D+05 0.28002618D+05 0.12180515D+01  1  2  5  1  5  1        1 -.387602982549D-01 0.100000000000D+01
0.173250274558D-06 0.000000000000D+00 0.000000000000D+00 0.213630131895D-02 0.000000000000D+00  5 21 -2 25 -24 -1 2 0.13041803D+00 0.14444094D-01 0.70446894D+05 0.70446894D+05 0.70446894D+05 0.11778117D+01  1  2 12  3  5  1        1 0.288763634444D-04 0.100000000000D+01
-.521307658361D-04 0.000000000000D+00 -.367169181244D-04 0.213630131895D-02 0.000000000000D+00  5 21 -2 25 -24 -1 2 0.15284877D+00 0.14444094D-01 0.28002618D+05 0.28002618D+05 0.28002618D+05 0.12180515D+01  1  2  5  3  5  1        1 -.642380310715D-02 0.100000000000D+01
  </mgrwgt>
  </event>
  <event>
  4     66 0.47139866E-03 0.12489240E+03 0.75467711E-02 0.11363670E+00
        1 -1    0    0  501    0 0.00000000E+00 0.00000000E+00 0.12623310E+04 0.12623310E+04 0.32000000E+00 0.0000E+00 0.9000E+01
       -2 -1    0    0    0  501 0.00000000E+00 0.00000000E+00 -.30151336E+02 0.30153035E+02 0.32000000E+00 0.0000E+00 0.9000E+01
       25  1    1    2    0    0 0.14368859E+03 -.62719626E+02 0.82118814E+03 0.84531363E+03 0.12500000E+03 0.0000E+00 0.9000E+01
      -24  1    1    2    0    0 -.14368859E+03 0.62719626E+02 0.41099149E+03 0.44717042E+03 0.80419002E+02 0.0000E+00 0.9000E+01
#aMCatNLO 1  0  0  1  2 0.52934592D+02 0.00000000D+00  -5  5  0 0.00000000D+00 0.00000000D+00 0.00000000D+00 0.00000000D+00 0.00000000D+00
  <mgrwgt>
 0.3126547669D+00    9    2    0
 0.195095077918616D+03 0.000000000000000D+00 0.000000000000000D+00 0.195095077918616D+03
 0.195095077918616D+03 0.000000000000000D+00 0.000000000000000D+00 -.195095077918616D+03
 0.206830104941504D+03 0.143688587991232D+03 -.627196257475292D+02 0.507299767128816D+02
 0.183360050895728D+03 -.143688587991232D+03 0.627196257475292D+02 -.507299767128816D+02
 0.000000000000000D+00 0.000000000000000D+00 -.000000000000000D+00 0.000000000000000D+00
 0.264505923133973D+03 0.000000000000000D+00 0.000000000000000D+00 0.264505923133973D+03
 0.207241272275913D+03 0.000000000000000D+00 0.000000000000000D+00 -.207241272275913D+03
 0.194732660039367D+03 0.135510289003603D+03 -.368678711465422D+02 0.507299767128816D+02
 0.199031772972984D+03 -.151476448168387D+03 0.873371960358220D+02 -.507299767128816D+02
 0.779827623975345D+02 0.159661591647835D+02 -.504693248892798D+02 0.572646508580594D+02
0.104279877280D-02 0.000000000000D+00 0.000000000000D+00 0.203896914195D-02 0.000000000000D+00  5 1 -2 25 -24 21 0 0.19420490D+00 0.46388009D-02 0.35478531D+05 0.35478531D+05 0.35478531D+05 0.12073266D+01  1  2  2  1  5  1        1 0.208114391956D+00 0.100000000000D+01
-.578462591723D-04 0.000000000000D+00 -.400462186279D-05 0.203896914195D-02 0.000000000000D+00  5 1 -2 25 -24 21 2 0.19420490D+00 0.46388009D-02 0.35478531D+05 0.35478531D+05 0.35478531D+05 0.12073266D+01  1  2  3  1  5  1        1 -.168277656310D-01 0.100000000000D+01
0.718705878276D-04 0.000000000000D+00 0.000000000000D+00 0.203896914195D-02 0.000000000000D+00  5 1 -2 25 -24 21 2 0.19420490D+00 0.46388009D-02 0.35478531D+05 0.35478531D+05 0.35478531D+05 0.12073266D+01  1  2 15  1  5  1        1 0.209075128631D-01 0.100000000000D+01
0.149262510146D-02 0.000000000000D+00 0.000000000000D+00 0.203896914195D-02 0.000000000000D+00  5 1 -2 25 -24 21 2 0.26772140D+00 0.46388009D-02 0.46959193D+05 0.46959193D+05 0.46959193D+05 0.11949899D+01  1  2 12  1  5  1        1 0.205628099601D+00 0.100000000000D+01
-.156955652391D-02 0.000000000000D+00 0.000000000000D+00 0.203896914195D-02 0.000000000000D+00  5 1 -2 25 -24 21 2 0.19420490D+00 0.46388009D-02 0.35478531D+05 0.35478531D+05 0.35478531D+05 0.12073266D+01  1  2  4  1  5  1        1 -.456591829912D+00 0.100000000000D+01
-.219245763583D-02 0.000000000000D+00 -.492029953485D-03 0.203896914195D-02 0.000000000000D+00  5 1 -2 25 -24 21 2 0.26988656D+00 0.46388009D-02 0.35478531D+05 0.35478531D+05 0.35478531D+05 0.12073266D+01  1  2  5  1  5  1        1 -.302738377425D+00 0.100000000000D+01
0.225657152953D-02 0.000000000000D+00 0.466538345096D-03 0.203896914195D-02 0.000000000000D+00  5 1 -2 25 -24 21 2 0.19420490D+00 0.46388009D-02 0.35478531D+05 0.35478531D+05 0.35478531D+05 0.12073266D+01  1  2  6  1  5  1        1 0.656447925446D+00 0.100000000000D+01
0.605879058499D-04 0.000000000000D+00 0.000000000000D+00 0.203896914195D-02 0.000000000000D+00  5 21 -2 25 -24 -1 2 0.26772140D+00 0.46388009D-02 0.46959193D+05 0.46959193D+05 0.46959193D+05 0.11949899D+01  1  2 12  3  5  1        1 0.759564670505D-02 0.100000000000D+01
-.778939482887D-04 0.000000000000D+00 -.203319463829D-04 0.203896914195D-02 0.000000000000D+00  5 21 -2 25 -24 -1 2 0.26988656D+00 0.46388009D-02 0.35478531D+05 0.35478531D+05 0.35478531D+05 0.12073266D+01  1  2  5  3  5  1        1 -.988083674625D-02 0.100000000000D+01
  </mgrwgt>
  </event>
  <event>
  5     66 0.47139866E-03 0.12768996E+03 0.75467711E-02 0.12219502E+00
        3 -1    0    0  502    0 0.00000000E+00 0.00000000E+00 0.31955638E+03 0.31955677E+03 0.50000000E+00 0.0000E+00 0.9000E+01
       -4 -1    0    0    0  501 0.00000000E+00 0.00000000E+00 -.57489225E+02 0.57510116E+02 0.15500000E+01 0.0000E+00 0.9000E+01
       25  1    1    2    0    0 -.55134441E+02 0.59592072E+02 0.14493591E+03 0.20790007E+03 0.12500000E+03 0.0000E+00 0.9000E+01
      -24  1    1    2    0    0 0.50206418E+02 -.48752745E+02 0.11541110E+03 0.15711286E+03 0.80419002E+02 0.0000E+00 0.9000E+01
       21  1    1    2  502  501 0.49280237E+01 -.10839327E+02 0.17201521E+01 0.12053956E+02 0.75000000E+00 0.0000E+00 0.9000E+01
#aMCatNLO 2  0  0  1  1 0.11906991D+02 0.00000000D+00  -5  5  0 0.00000000D+00 0.00000000D+00 0.00000000D+00 0.00000000D+00 0.00000000D+00
  <mgrwgt>
 0.1526245747D-01    1    2    0
 0.127781162496255D+03 0.000000000000000D+00 0.000000000000000D+00 0.127781162496255D+03
 0.127781162496255D+03 0.000000000000000D+00 0.000000000000000D+00 -.127781162496255D+03
 0.145698091460448D+03 -.522934174685191D+02 0.533431596458134D+02 -.477908607178415D+01
 0.109864233532063D+03 0.522934174685191D+02 -.533431596458134D+02 0.477908607178415D+01
 0.000000000000000D+00 0.000000000000000D+00 -.000000000000000D+00 -.000000000000000D+00
 0.130728338549720D+03 0.000000000000000D+00 0.000000000000000D+00 0.130728338549720D+03
 0.140539804547695D+03 0.000000000000000D+00 0.000000000000000D+00 -.140539804547695D+03
 0.149126997479869D+03 -.551344414733189D+02 0.595920722672435D+02 -.477908607178415D+01
 0.106712558476067D+03 0.502064177929176D+02 -.487527448546136D+02 0.477908607178415D+01
 0.154285871414792D+02 0.492802368040121D+01 -.108393274126300D+02 -.981146599797564D+01
0.131703379074D-03 0.000000000000D+00 0.000000000000D+00 0.264939338166D-02 0.153704316486D-03  5 3 -4 25 -24 21 2 0.49160778D-01 0.88455252D-02 0.17897474D+05 0.17897474D+05 0.17897474D+05 0.12391723D+01  1  2  1  1  5  1        3 0.152624574705D-01 0.100000000000D+01
  </mgrwgt>
  </event>
  <event>
  4     66 0.47139866E-03 0.68434193E+02 0.75467711E-02 0.12611681E+00
        1 -1    0    0  501    0 0.00000000E+00 0.00000000E+00 0.83900645E+02 0.83901255E+02 0.32000000E+00 0.0000E+00 0.9000E+01
       -2 -1    0    0    0  501 0.00000000E+00 0.00000000E+00 -.12818621E+03 0.12818661E+03 0.32000000E+00 0.0000E+00 0.9000E+01
       25  1    1    2    0    0 0.69451552E+01 -.54804408E+01 -.15748995E+02 0.12629846E+03 0.12500000E+03 0.0000E+00 0.9000E+01
      -24  1    1    2    0    0 -.69451552E+01 0.54804408E+01 -.28536573E+02 0.85789407E+02 0.80419002E+02 0.0000E+00 0.9000E+01
#aMCatNLO 1  0  0  2  1 0.12747481D+02 0.00000000D+00  -5  5  0 0.00000000D+00 0.00000000D+00 0.00000000D+00 0.00000000D+00 0.00000000D+00
  <mgrwgt>
 0.2287643371D+00    6    2    0
 0.103706379070041D+03 0.000000000000000D+00 0.000000000000000D+00 0.103706379070041D+03
 0.103706379070041D+03 0.000000000000000D+00 0.000000000000000D+00 -.103706379070041D+03
 0.125782610367839D+03 0.694515515781287D+01 -.548044082881444D+01 0.108625346537254D+02
 0.816301477722425D+02 -.694515515781287D+01 0.548044082881444D+01 -.108625346537254D+02
 0.000000000000000D+00 -.000000000000000D+00 0.000000000000000D+00 0.000000000000000D+00
 0.110348481660817D+03 0.000000000000000D+00 0.000000000000000D+00 0.110348481660817D+03
 0.110203934252237D+03 0.000000000000000D+00 0.000000000000000D+00 -.110203934252237D+03
 0.126543615616750D+03 0.140935860958899D+02 -.846538984419176D+01 0.108625346537254D+02
 0.812605000872985D+02 -.233044441128243D+01 0.355348980719450D+01 -.108625346537254D+02
 0.127483002090055D+02 -.117631416846074D+02 0.491190003699727D+01 0.144547408580525D+00
0.184249591955D-03 0.000000000000D+00 0.000000000000D+00 0.317869230489D-02 0.000000000000D+00  5 1 -2 25 -24 21 0 0.12907869D-01 0.19721034D-01 0.10631349D+05 0.10631349D+05 0.10631349D+05 0.12652350D+01  1  2  2  2  5  2       -2 0.145772679845D+00 0.100000000000D+01
-.102356723060D-04 0.000000000000D+00 -.707566947139D-06 0.317869230489D-02 0.000000000000D+00  5 1 -2 25 -24 21 2 0.12907869D-01 0.19721034D-01 0.10631349D+05 0.10631349D+05 0.10631349D+05 0.12652350D+01  1  2  3  2  5  2       -2 -.129636830153D-01 0.100000000000D+01
0.126711625880D-04 0.000000000000D+00 0.000000000000D+00 0.317869230489D-02 0.000000000000D+00  5 1 -2 25 -24 21 2 0.12907869D-01 0.19721034D-01 0.10631349D+05 0.10631349D+05 0.10631349D+05 0.12652350D+01  1  2 15  2  5  2       -2 0.160482800070D-01 0.100000000000D+01
0.242424480367D-03 0.000000000000D+00 0.000000000000D+00 0.317869230489D-02 0.000000000000D+00  5 1 -2 25 -24 21 2 0.12907869D-01 0.21549382D-01 0.12029177D+05 0.12029177D+05 0.12029177D+05 0.12589005D+01  1  2 12  2  5  2       -2 0.263105172522D+00 0.100000000000D+01
-.187061129547D-03 0.000000000000D+00 0.000000000000D+00 0.317869230489D-02 0.000000000000D+00  5 1 -2 25 -24 21 2 0.12907869D-01 0.19721034D-01 0.10631349D+05 0.10631349D+05 0.10631349D+05 0.12652350D+01  1  2  4  2  5  2       -2 -.236916649483D+00 0.100000000000D+01
0.354575601584D-05 0.000000000000D+00 0.000000000000D+00 0.317869230489D-02 0.000000000000D+00  5 1 21 25 -24 2 2 0.12907869D-01 0.21549382D-01 0.12029177D+05 0.12029177D+05 0.12029177D+05 0.12589005D+01  1  2 12  4  5  2       -2 0.537185371858D-01 0.100000000000D+01
  </mgrwgt>
  </event>
  <event>
  4     66 0.47139866E-03 0.61945180E+02 0.75467711E-02 0.12098812E+00
        1 -1    0    0  501    0 0.00000000E+00 0.00000000E+00 0.70858511E+03 0.70858518E+03 0.32000000E+00 0.0000E+00 0.9000E+01
       -2 -1    0    0    0  501 0.00000000E+00 0.00000000E+00 -.26457575E+02 0.26459510E+02 0.32000000E+00 0.0000E+00 0.9000E+01
       25  1    1    2    0    0 0.18117429E+02 -.84528280E+02 0.44323287E+03 0.46856552E+03 0.12500000E+03 0.0000E+00 0.9000E+01
      -24  1    1    2    0    0 -.18117429E+02 0.84528280E+02 0.23889466E+03 0.26647917E+03 0.80419002E+02 0.0000E+00 0.9000E+01
#aMCatNLO 1  0  0  1  2 0.14724461D+02 0.00000000D+00  -5  5  0 0.00000000D+00 0.00000000D+00 0.00000000D+00 0.00000000D+00 0.00000000D+00
  <mgrwgt>
 0.4254532525D+00    9    2    0
 0.136923998601465D+03 0.000000000000000D+00 0.000000000000000D+00 0.136923998601465D+03
 0.136923998601465D+03 0.000000000000000D+00 0.000000000000000D+00 -.136923998601465D+03
 0.153644559166389D+03 0.181174289938356D+02 -.845282795696604D+02 0.225472677076546D+02
 0.120203438036541D+03 -.181174289938356D+02 0.845282795696604D+02 -.225472677076546D+02
 0.000000000000000D+00 0.000000000000000D+00 -.000000000000000D+00 0.000000000000000D+00
 0.146813203126182D+03 0.000000000000000D+00 0.000000000000000D+00 0.146813203126182D+03
 0.142714612664783D+03 0.000000000000000D+00 0.000000000000000D+00 -.142714612664783D+03
 0.152325164354600D+03 0.996361265521312D+01 -.834883395297344D+02 0.225472677076546D+02
 0.121918404974202D+03 -.245697570763655D+02 0.853512113165994D+02 -.225472677076546D+02
 0.152842464621627D+02 0.146061444211524D+02 -.186287178686504D+01 0.409859046139914D+01
0.277275372976D-03 0.000000000000D+00 0.000000000000D+00 0.247267620599D-02 0.000000000000D+00  5 1 -2 25 -24 21 0 0.10901325D+00 0.40705506D-02 0.18231885D+05 0.18231885D+05 0.18231885D+05 0.12382762D+01  1  2  2  1  5  1        1 0.174265974936D+00 0.100000000000D+01
-.154005361540D-04 0.000000000000D+00 -.106481044051D-05 0.247267620599D-02 0.000000000000D+00  5 1 -2 25 -24 21 2 0.10901325D+00 0.40705506D-02 0.18231885D+05 0.18231885D+05 0.18231885D+05 0.12382762D+01  1  2  3  1  5  1        1 -.148413095022D-01 0.100000000000D+01
0.191905321026D-04 0.000000000000D+00 0.000000000000D+00 0.247267620599D-02 0.000000000000D+00  5 1 -2 25 -24 21 2 0.10901325D+00 0.40705506D-02 0.18231885D+05 0.18231885D+05 0.18231885D+05 0.12382762D+01  1  2 15  1  5  1        1 0.184936825315D-01 0.100000000000D+01
0.649804950066D-03 0.000000000000D+00 0.000000000000D+00 0.247267620599D-02 0.000000000000D+00  5 1 -2 25 -24 21 2 0.11905829D+00 0.40705506D-02 0.20332907D+05 0.20332907D+05 0.20332907D+05 0.12330375D+01  1  2 12  1  5  1        1 0.547411413263D+00 0.100000000000D+01
-.590479683299D-03 0.000000000000D+00 0.000000000000D+00 0.247267620599D-02 0.000000000000D+00  5 1 -2 25 -24 21 2 0.10901325D+00 0.40705506D-02 0.18231885D+05 0.18231885D+05 0.18231885D+05 0.12382762D+01  1  2  4  1  5  1        1 -.569038093673D+00 0.100000000000D+01
-.210691757451D-02 0.000000000000D+00 -.404347545043D-03 0.247267620599D-02 0.000000000000D+00  5 1 -2 25 -24 21 2 0.12053744D+00 0.40705506D-02 0.18231885D+05 0.18231885D+05 0.18231885D+05 0.12382762D+01  1  2  5  1  5  1        1 -.175283455696D+01 0.100000000000D+01
0.213877570531D-02 0.000000000000D+00 0.402314460847D-03 0.247267620599D-02 0.000000000000D+00  5 1 -2 25 -24 21 2 0.10901325D+00 0.40705506D-02 0.18231885D+05 0.18231885D+05 0.18231885D+05 0.12382762D+01  1  2  6  1  5  1        1 0.206111215096D+01 0.100000000000D+01
0.945546953135D-05 0.000000000000D+00 0.000000000000D+00 0.247267620599D-02 0.000000000000D+00  5 21 -2 25 -24 -1 2 0.11905829D+00 0.40705506D-02 0.20332907D+05 0.20332907D+05 0.20332907D+05 0.12330375D+01  1  2 12  3  5  1        1 0.161642157815D-01 0.100000000000D+01
-.330203674538D-04 0.000000000000D+00 -.659537109103D-05 0.247267620599D-02 0.000000000000D+00  5 21 -2 25 -24 -1 2 0.12053744D+00 0.40705506D-02 0.18231885D+05 0.18231885D+05 0.18231885D+05 0.12382762D+01  1  2  5  3  5  1        1 -.552802248553D-01 0.100000000000D+01
  </mgrwgt>
  </event>
  <event>
  4     66 0.47139866E-03 0.69102814E+02 0.75467711E-02 0.12548213E+00
        1 -1    0    0  501    0 0.00000000E+00 0.00000000E+00 0.14920111E+04 0.14920111E+04 0.32000000E+00 0.0000E+00 0.9000E+01
       -2 -1    0    0    0  501 0.00000000E+00 0.00000000E+00 -.96238407E+01 0.96291593E+01 0.32000000E+00 0.0000E+00 0.9000E+01
       25  1    1    2    0    0 0.14653424E+02 -.33394259E+02 0.55551907E+03 0.57057545E+03 0.12500000E+03 0.0000E+00 0.9000E+01
      -24  1    1    2    0    0 -.14653424E+02 0.33394259E+02 0.92686819E+03 0.93106485E+03 0.80419002E+02 0.0000E+00 0.9000E+01
#aMCatNLO 1  0  0  1  2 0.76085348D+01 0.00000000D+00  -5  5  0 0.00000000D+00 0.00000000D+00 0.00000000D+00 0.00000000D+00 0.00000000D+00
  <mgrwgt>
 0.6770154349D+00   11    2    0
 0.119845301361437D+03 0.000000000000000D+00 0.000000000000000D+00 0.119845301361437D+03
 0.119845301361437D+03 0.000000000000000D+00 0.000000000000000D+00 -.119845301361437D+03
 0.138948645300660D+03 0.146534241468522D+02 -.333942586095951D+02 -.484956357168009D+02
 0.100741957422214D+03 -.146534241468522D+02 0.333942586095951D+02 0.484956357168009D+02
 0.000000000000000D+00 0.000000000000000D+00 -.000000000000000D+00 0.000000000000000D+00
 0.124346205590959D+03 0.000000000000000D+00 0.000000000000000D+00 0.124346205590959D+03
 0.123164830600505D+03 0.000000000000000D+00 0.000000000000000D+00 -.123164830600505D+03
 0.137988680826621D+03 0.112455069161229D+02 -.306200575912906D+02 -.484956357168009D+02
 0.101822650922498D+03 -.171461304525259D+02 0.354234359350239D+02 0.484956357168009D+02
 0.769970444234505D+01 0.590062353640298D+01 -.480337834373325D+01 0.118137499045381D+01
0.242998923798D-03 0.000000000000D+00 0.000000000000D+00 0.239186046276D-02 0.000000000000D+00  5 1 -2 25 -24 21 0 0.22954058D+00 0.14810026D-02 0.11936901D+05 0.11936901D+05 0.11936901D+05 0.12592925D+01  1  2  2  1  5  1        1 0.179956751816D+00 0.100000000000D+01
-.133594775262D-04 0.000000000000D+00 -.933179850471D-06 0.239186046276D-02 0.000000000000D+00  5 1 -2 25 -24 21 2 0.22954058D+00 0.14810026D-02 0.11936901D+05 0.11936901D+05 0.11936901D+05 0.12592925D+01  1  2  3  1  5  1        1 -.156894069818D-01 0.100000000000D+01
0.167247604393D-04 0.000000000000D+00 0.000000000000D+00 0.239186046276D-02 0.000000000000D+00  5 1 -2 25 -24 21 2 0.22954058D+00 0.14810026D-02 0.11936901D+05 0.11936901D+05 0.11936901D+05 0.12592925D+01  1  2 15  1  5  1        1 0.196416044483D-01 0.100000000000D+01
0.600046849098D-03 0.000000000000D+00 0.000000000000D+00 0.239186046276D-02 0.000000000000D+00  5 1 -2 25 -24 21 2 0.24123677D+00 0.14810026D-02 0.12805966D+05 0.12805966D+05 0.12805966D+05 0.12557289D+01  1  2 12  1  5  1        1 0.627256446251D+00 0.100000000000D+01
-.519078147068D-03 0.000000000000D+00 0.000000000000D+00 0.239186046276D-02 0.000000000000D+00  5 1 -2 25 -24 21 2 0.22954058D+00 0.14810026D-02 0.11936901D+05 0.11936901D+05 0.11936901D+05 0.12592925D+01  1  2  4  1  5  1        1 -.609606797027D+00 0.100000000000D+01
-.350715213167D-02 0.000000000000D+00 -.567689569161D-03 0.239186046276D-02 0.000000000000D+00  5 1 -2 25 -24 21 2 0.24198299D+00 0.14810026D-02 0.11936901D+05 0.11936901D+05 0.11936901D+05 0.12592925D+01  1  2  5  1  5  1        1 -.365549610098D+01 0.100000000000D+01
0.353298559525D-02 0.000000000000D+00 0.566899544360D-03 0.239186046276D-02 0.000000000000D+00  5 1 -2 25 -24 21 2 0.22954058D+00 0.14810026D-02 0.11936901D+05 0.11936901D+05 0.11936901D+05 0.12592925D+01  1  2  6  1  5  1        1 0.414914795553D+01 0.100000000000D+01
0.896423691784D-05 0.000000000000D+00 0.000000000000D+00 0.239186046276D-02 0.347896645123D-03  5 1 -2 25 -24 21 2 0.23816120D+00 0.15220241D-02 0.12805966D+05 0.12805966D+05 0.12805966D+05 0.12557289D+01  1  2 11  1  5  1        1 0.927983744645D-02 0.100000000000D+01
0.712144825178D-05 0.000000000000D+00 0.000000000000D+00 0.239186046276D-02 0.000000000000D+00  5 21 -2 25 -24 -1 2 0.24123677D+00 0.14810026D-02 0.12805966D+05 0.12805966D+05 0.12805966D+05 0.12557289D+01  1  2 12  3  5  1        1 0.805466239795D-02 0.100000000000D+01
-.315684380377D-04 0.000000000000D+00 -.519967072662D-05 0.239186046276D-02 0.000000000000D+00  5 21 -2 25 -24 -1 2 0.24198299D+00 0.14810026D-02 0.11936901D+05 0.11936901D+05 0.11936901D+05 0.12592925D+01  1  2  5  3  5  1        1 -.356395582663D-01 0.100000000000D+01
0.971370536339D-07 0.000000000000D+00 0.000000000000D+00 0.239186046276D-02 0.230168229789D-05  5 21 -2 25 -24 -1 2 0.23816120D+00 0.15220241D-02 0.12805966D+05 0.12805966D+05 0.12805966D+05 0.12557289D+01  1  2 11  3  5  1        1 0.110040247797D-03 0.100000000000D+01
  </mgrwgt>
  </event>
  <event>
  5     66 0.47139866E-03 0.10337650E+03 0.75467711E-02 0.12189064E+00
        1 -1    0    0  501    0 0.00000000E+00 0.00000000E+00 0.22642484E+03 0.22642507E+03 0.32000000E+00 0.0000E+00 0.9000E+01
       -2 -1    0    0    0  502 0.00000000E+00 0.00000000E+00 -.14332274E+03 0.14332309E+03 0.32000000E+00 0.0000E+00 0.9000E+01
       25  1    1    2    0    0 -.27018658E+02 -.21747151E+02 0.16070332E+03 0.20652725E+03 0.12500000E+03 0.0000E+00 0.9000E+01
      -24  1    1    2    0    0 -.33033040E+01 -.26865714E+02 -.57494228E+02 0.10249625E+03 0.80419002E+02 0.0000E+00 0.9000E+01
       21  1    1    2  501  502 0.30321962E+02 0.48612865E+02 -.20106987E+02 0.60724669E+02 0.75000000E+00 0.0000E+00 0.9000E+01
#aMCatNLO 2  0  0  2  1 0.57294258D+02 0.00000000D+00  -5  5  0 0.00000000D+00 0.00000000D+00 0.00000000D+00 0.00000000D+00 0.00000000D+00
  <mgrwgt>
 0.3954308959D-01    2    2    0
 0.142794232428833D+03 0.000000000000000D+00 0.000000000000000D+00 0.142794232428833D+03
 0.142794232428833D+03 0.000000000000000D+00 0.000000000000000D+00 -.142794232428833D+03
 0.158827415089403D+03 -.101462006882318D+02 0.530315983174707D+01 0.973143303495158D+02
 0.126761049768263D+03 0.101462006882318D+02 -.530315983174707D+01 -.973143303495158D+02
 0.000000000000000D+00 0.000000000000000D+00 0.000000000000000D+00 -.000000000000000D+00
 0.159987588122608D+03 0.000000000000000D+00 0.000000000000000D+00 0.159987588122608D+03
 0.202835606076757D+03 0.000000000000000D+00 0.000000000000000D+00 -.202835606076757D+03
 0.162166659095750D+03 -.270186578919095D+02 -.217471505403002D+02 0.973143303495158D+02
 0.129112250639618D+03 -.330330401572592D+01 -.268657142481283D+02 -.973143303495158D+02
 0.715442844639964D+02 0.303219619076355D+02 0.486128647884285D+02 -.428480179541494D+02
-.126064986058D-03 0.000000000000D+00 0.000000000000D+00 0.143370896802D-02 0.000000000000D+00  5 1 -2 25 -24 21 2 0.31090706D-01 0.22674858D-01 0.18478192D+05 0.18478192D+05 0.18478192D+05 0.12376280D+01  1  2 13  2  5  2       -2 -.402925692169D-01 0.100000000000D+01
0.274114416352D-03 0.000000000000D+00 0.000000000000D+00 0.143370896802D-02 0.392133313242D-05  5 1 -2 25 -24 21 2 0.34834230D-01 0.22049440D-01 0.18478192D+05 0.18478192D+05 0.18478192D+05 0.12376280D+01  1  2  1  2  5  2       -2 0.798356588052D-01 0.100000000000D+01
  </mgrwgt>
  </event>
  <event>
  4     66 0.47139866E-03 0.10732096E+03 0.75467711E-02 0.11137919E+00
        3 -1    0    0  501    0 0.00000000E+00 0.00000000E+00 0.36239308E+02 0.36242757E+02 0.50000000E+00 0.0000E+00 0.9000E+01
       -4 -1    0    0    0  501 0.00000000E+00 0.00000000E+00 -.40958249E+03 0.40958542E+03 0.15500000E+01 0.0000E+00 0.9000E+01
       25  1    1    2    0    0 0.28942263E+02 0.94398054E+01 -.31935729E+03 0.34429761E+03 0.12500000E+03 0.0000E+00 0.9000E+01
      -24  1    1    2    0    0 -.28942263E+02 -.94398054E+01 -.53985894E+02 0.10153057E+03 0.80419002E+02 0.0000E+00 0.9000E+01
#aMCatNLO 1  0  0  2  1 0.20421170D+03 0.00000000D+00  -5  5  0 0.00000000D+00 0.00000000D+00 0.00000000D+00 0.00000000D+00 0.00000000D+00
  <mgrwgt>
 0.5969913493D-01    5    2    0
 0.121837631890621D+03 0.000000000000000D+00 0.000000000000000D+00 0.121837631890621D+03
 0.121837631890621D+03 0.000000000000000D+00 0.000000000000000D+00 -.121837631890621D+03
 0.140628591431453D+03 0.289422632560826D+02 0.943980542942205D+01 -.567858802790335D+02
 0.103046672349790D+03 -.289422632560826D+02 -.943980542942205D+01 0.567858802790335D+02
 0.000000000000000D+00 -.000000000000000D+00 -.000000000000000D+00 -.000000000000000D+00
 0.203783703103552D+03 0.000000000000000D+00 0.000000000000000D+00 0.203783703103552D+03
 0.391585025034046D+03 0.000000000000000D+00 0.000000000000000D+00 -.391585025034046D+03
 0.207819972538369D+03 0.132064633417998D+03 0.830568322713634D+02 -.567858802790335D+02
 0.110110918195873D+03 0.341411247327848D+02 0.355941814694956D+02 0.567858802790335D+02
 0.277437837403356D+03 -.166205758150783D+03 -.118651013740859D+03 -.187801321930494D+03
0.659713100368D-03 0.000000000000D+00 0.000000000000D+00 0.223047855015D-02 0.000000000000D+00  5 3 -4 25 -24 21 0 0.55757691D-02 0.63013182D-01 0.11517788D+05 0.11517788D+05 0.11517788D+05 0.12611170D+01  1  2  2  2  5  2       -4 0.562408921618D-01 0.100000000000D+01
-.359335119990D-04 0.000000000000D+00 -.253347201186D-05 0.223047855015D-02 0.000000000000D+00  5 3 -4 25 -24 21 2 0.55757691D-02 0.63013182D-01 0.11517788D+05 0.11517788D+05 0.11517788D+05 0.12611170D+01  1  2  3  2  5  2       -4 -.487200301689D-02 0.100000000000D+01
0.452961043143D-04 0.000000000000D+00 0.000000000000D+00 0.223047855015D-02 0.000000000000D+00  5 3 -4 25 -24 21 2 0.55757691D-02 0.63013182D-01 0.11517788D+05 0.11517788D+05 0.11517788D+05 0.12611170D+01  1  2 15  2  5  2       -4 0.614141909867D-02 0.100000000000D+01
0.134643898126D-03 0.000000000000D+00 -.219666036565D-03 0.223047855015D-02 0.000000000000D+00  5 3 -4 25 -24 21 2 0.55757691D-02 0.27487336D+00 0.11517788D+05 0.11517788D+05 0.11517788D+05 0.12611170D+01  1  2  5  2  5  2       -4 0.425369841347D-03 0.100000000000D+01
0.232097984055D-04 0.000000000000D+00 -.390044478401D-04 0.223047855015D-02 0.000000000000D+00  5 3 21 25 -24 4 2 0.55757691D-02 0.27487336D+00 0.11517788D+05 0.11517788D+05 0.11517788D+05 0.12611170D+01  1  2  5  4  5  2       -4 0.176345684023D-02 0.100000000000D+01
  </mgrwgt>
  </event>
  <event>
  4     66 0.47139866E-03 0.10664151E+03 0.75467711E-02 0.11166301E+00
        1 -1    0    0  501    0 0.00000000E+00 0.00000000E+00 0.19627736E+04 0.19627736E+04 0.32000000E+00 0.0000E+00 0.9000E+01
       -2 -1    0    0    0  501 0.00000000E+00 0.00000000E+00 -.58930824E+01 0.59017642E+01 0.32000000E+00 0.0000E+00 0.9000E+01
       25  1    1    2    0    0 -.97313358E+01 0.26315497E+02 0.10442462E+04 0.10520752E+04 0.12500000E+03 0.0000E+00 0.9000E+01
      -24  1    1    2    0    0 0.97313358E+01 -.26315497E+02 0.91263437E+03 0.91660019E+03 0.80419002E+02 0.0000E+00 0.9000E+01
#aMCatNLO 1  0  0  1  1 0.19834994D+03 0.00000000D+00  -5  5  0 0.00000000D+00 0.00000000D+00 0.00000000D+00 0.00000000D+00 0.00000000D+00
  <mgrwgt>
 0.3214634058D+00    5    2    0
 0.107588837859736D+03 0.000000000000000D+00 0.000000000000000D+00 0.107588837859736D+03
 0.107588837859736D+03 0.000000000000000D+00 0.000000000000000D+00 -.107588837859736D+03
 0.128868424636127D+03 -.973133584415252D+01 0.263154970605154D+02 -.139594622154116D+02
 0.863092510833440D+02 0.973133584415252D+01 -.263154970605154D+02 0.139594622154116D+02
 0.000000000000000D+00 0.000000000000000D+00 0.000000000000000D+00 0.000000000000000D+00
 0.301008987368037D+03 0.000000000000000D+00 0.000000000000000D+00 0.301008987368037D+03
 0.209910737911316D+03 0.000000000000000D+00 0.000000000000000D+00 -.209910737911316D+03
 0.173288287263246D+03 -.116968619312846D+03 -.229631446742875D+02 -.139594622154116D+02
 0.119361900190350D+03 -.632626261692242D+02 -.598583394984360D+02 0.139594622154116D+02
 0.218269537825758D+03 0.180231245482070D+03 0.828214841727234D+02 0.910982494567207D+02
0.420300227895D-03 0.000000000000D+00 0.000000000000D+00 0.303767558010D-02 0.000000000000D+00  5 1 -2 25 -24 21 0 0.30196584D+00 0.90729789D-03 0.11372411D+05 0.11372411D+05 0.11372411D+05 0.12617674D+01  1  2  2  1  5  1        1 0.314648607533D+00 0.100000000000D+01
-.233477920241D-04 0.000000000000D+00 -.161406354271D-05 0.303767558010D-02 0.000000000000D+00  5 1 -2 25 -24 21 2 0.30196584D+00 0.90729789D-03 0.11372411D+05 0.11372411D+05 0.11372411D+05 0.12617674D+01  1  2  3  1  5  1        1 -.278272718376D-01 0.100000000000D+01
0.290655791999D-04 0.000000000000D+00 0.000000000000D+00 0.303767558010D-02 0.000000000000D+00  5 1 -2 25 -24 21 2 0.30196584D+00 0.90729789D-03 0.11372411D+05 0.11372411D+05 0.11372411D+05 0.12617674D+01  1  2 15  1  5  1        1 0.346420669106D-01 0.100000000000D+01
-.120058218646D-06 0.000000000000D+00 -.113519945651D-03 0.303767558010D-02 0.000000000000D+00  5 1 -2 25 -24 21 2 0.88746071D+00 0.90729789D-03 0.11372411D+05 0.11372411D+05 0.11372411D+05 0.12617674D+01  1  2  5  1  5  1        1 -.351494607151D-07 0.100000000000D+01
0.587556953985D-05 0.000000000000D+00 -.138700993777D-04 0.303767558010D-02 0.000000000000D+00  5 21 -2 25 -24 -1 2 0.88746071D+00 0.90729789D-03 0.11372411D+05 0.11372411D+05 0.11372411D+05 0.12617674D+01  1  2  5  3  5  1        1 0.383085942540D-07 0.100000000000D+01
  </mgrwgt>
  </event>
  <event>
  4     66 0.47139866E-03 0.13377779E+03 0.75467711E-02 0.12183019E+00
        1 -1    0    0  501    0 0.00000000E+00 0.00000000E+00 0.37631909E+03 0.37631922E+03 0.32000000E+00 0.0000E+00 0.9000E+01
       -2 -1    0    0    0  501 0.00000000E+00 0.00000000E+00 -.51831616E+02 0.51832604E+02 0.32000000E+00 0.0000E+00 0.9000E+01
       25  1    1    2    0    0 -.51373404E+02 0.67112185E+02 0.24230787E+03 0.28544943E+03 0.12500000E+03 0.0000E+00 0.9000E+01
      -24  1    1    2    0    0 0.51373404E+02 -.67112185E+02 0.82179600E+02 0.14270240E+03 0.80419002E+02 0.0000E+00 0.9000E+01
#aMCatNLO 1  0  0  2  1 0.51664549D+01 0.00000000D+00  -5  5  0 0.00000000D+00 0.00000000D+00 0.00000000D+00 0.00000000D+00 0.00000000D+00
  <mgrwgt>
 0.2282023460D+00    6    2    0
 0.139661974966080D+03 0.000000000000000D+00 0.000000000000000D+00 0.139661974966080D+03
 0.139661974966080D+03 0.000000000000000D+00 0.000000000000000D+00 -.139661974966080D+03
 0.156054740512776D+03 -.513734040375006D+02 0.671121854704969D+02 0.398096716324447D+02
 0.123269209419385D+03 0.513734040375006D+02 -.671121854704969D+02 -.398096716324447D+02
 0.000000000000000D+00 0.000000000000000D+00 -.000000000000000D+00 0.000000000000000D+00
 0.165572967868328D+03 0.000000000000000D+00 0.000000000000000D+00 0.165572967868328D+03
 0.139943638578227D+03 0.000000000000000D+00 0.000000000000000D+00 -.139943638578227D+03
 0.157644284270136D+03 -.531892694497922D+02 0.693744334964820D+02 0.398096716324447D+02
 0.121727441682713D+03 0.499552263904026D+02 -.653453862567849D+02 -.398096716324447D+02
 0.261448804937056D+02 0.323404305938952D+01 -.402904723969710D+01 0.256293292901015D+02
0.385438127428D-03 0.000000000000D+00 0.000000000000D+00 0.232120434231D-02 0.000000000000D+00  5 1 -2 25 -24 21 0 0.57895331D-01 0.79741813D-02 0.17896498D+05 0.17896498D+05 0.17896498D+05 0.12391749D+01  1  2  2  2  5  2       -2 0.202199145523D+00 0.100000000000D+01
-.213649893865D-04 0.000000000000D+00 -.148018389751D-05 0.232120434231D-02 0.000000000000D+00  5 1 -2 25 -24 21 2 0.57895331D-01 0.79741813D-02 0.17896498D+05 0.17896498D+05 0.17896498D+05 0.12391749D+01  1  2  3  2  5  2       -2 -.172104627626D-01 0.100000000000D+01
0.266244439085D-04 0.000000000000D+00 0.000000000000D+00 0.232120434231D-02 0.000000000000D+00  5 1 -2 25 -24 21 2 0.57895331D-01 0.79741813D-02 0.17896498D+05 0.17896498D+05 0.17896498D+05 0.12391749D+01  1  2 15  2  5  2       -2 0.214471906432D-01 0.100000000000D+01
-.152860922483D-04 0.000000000000D+00 0.000000000000D+00 0.232120434231D-02 0.000000000000D+00  5 1 -2 25 -24 21 2 0.57895331D-01 0.79741813D-02 0.17896498D+05 0.17896498D+05 0.17896498D+05 0.12391749D+01  1  2  4  2  5  2       -2 -.123136368882D-01 0.100000000000D+01
0.830649672879D-05 0.000000000000D+00 0.000000000000D+00 0.232120434231D-02 0.721040671583D-03  5 1 -2 25 -24 21 2 0.68636447D-01 0.79902632D-02 0.18596114D+05 0.18596114D+05 0.18596114D+05 0.12373210D+01  1  2 11  2  5  2       -2 0.536833696664D-02 0.100000000000D+01
0.270362872801D-05 0.000000000000D+00 0.000000000000D+00 0.232120434231D-02 0.299726958309D-06  5 1 21 25 -24 2 2 0.68636447D-01 0.79902632D-02 0.18596114D+05 0.18596114D+05 0.18596114D+05 0.12373210D+01  1  2 11  4  5  2       -2 0.287117725519D-01 0.100000000000D+01
  </mgrwgt>
  </event>
  <event>
  5     66 0.47139866E-03 0.17645817E+03 0.75467711E-02 0.11471897E+00
        1 -1    0    0  501    0 0.00000000E+00 0.00000000E+00 0.54789517E+03 0.54789527E+03 0.32000000E+00 0.0000E+00 0.9000E+01
       21 -1    0    0  502  501 0.00000000E+00 0.00000000E+00 -.85285686E+02 0.85288984E+02 0.75000000E+00 0.0000E+00 0.9000E+01
       25  1    1    2    0    0 -.14042542E+03 0.72692255E+02 0.21320331E+03 0.29340094E+03 0.12500000E+03 0.0000E+00 0.9000E+01
      -24  1    1    2    0    0 0.13006501E+03 -.24042348E+02 0.10499565E+03 0.18704610E+03 0.80419002E+02 0.0000E+00 0.9000E+01
        2  1    1    2  502    0 0.10360414E+02 -.48649907E+02 0.14441053E+03 0.15273721E+03 0.32000000E+00 0.0000E+00 0.9000E+01
#aMCatNLO 2  0  0  2  1 0.49740845D+02 0.00000000D+00  -5  5  0 0.00000000D+00 0.00000000D+00 0.00000000D+00 0.00000000D+00 0.00000000D+00
  <mgrwgt>
 0.6280582982D-01    1    2    0
 0.178258682392338D+03 0.000000000000000D+00 0.000000000000000D+00 0.178258682392338D+03
 0.178258682392338D+03 0.000000000000000D+00 0.000000000000000D+00 -.178258682392338D+03
 0.191102073696939D+03 -.134724756882645D+03 0.459233619124736D+02 0.252049059676602D+02
 0.165415291087737D+03 0.134724756882645D+03 -.459233619124736D+02 -.252049059676602D+02
 0.000000000000000D+00 0.000000000000000D+00 -.000000000000000D+00 0.000000000000000D+00
 0.246950950524398D+03 0.000000000000000D+00 0.000000000000000D+00 0.246950950524398D+03
 0.189221905216786D+03 0.000000000000000D+00 0.000000000000000D+00 -.189221905216786D+03
 0.203134808192583D+03 -.140425421887713D+03 0.726922547611272D+02 0.252049059676602D+02
 0.156835722610730D+03 0.130065007475552D+03 -.240423475976291D+02 -.252049059676602D+02
 0.762023249378716D+02 0.103604144121607D+02 -.486499071634981D+02 0.577290453076116D+02
0.197589031851D-04 0.000000000000D+00 0.000000000000D+00 0.219947521094D-02 0.935101557802D-07  5 1 21 25 -24 2 2 0.84291682D-01 0.13121113D-01 0.41229917D+05 0.41229917D+05 0.41229917D+05 0.12006669D+01  1  2  1  4  5  2       -2 0.628058298173D-01 0.100000000000D+01
  </mgrwgt>
  </event>
  <event>
  4     66 0.47139866E-03 0.14037870E+03 0.75467711E-02 0.11498399E+00
        1 -1    0    0  501    0 0.00000000E+00 0.00000000E+00 0.16961813E+04 0.16961814E+04 0.32000000E+00 0.0000E+00 0.9000E+01
       -2 -1    0    0    0  501 0.00000000E+00 0.00000000E+00 -.13342959E+02 0.13346796E+02 0.32000000E+00 0.0000E+00 0.9000E+01
       25  1    1    2    0    0 0.94477491E+02 -.24740930E+00 0.62084884E+03 0.64031581E+03 0.12500000E+03 0.0000E+00 0.9000E+01
      -24  1    1    2    0    0 -.94477491E+02 0.24740930E+00 0.10619895E+04 0.10692123E+04 0.80419002E+02 0.0000E+00 0.9000E+01
#aMCatNLO 1  0  0  2  1 0.10116458D+03 0.00000000D+00  -5  5  0 0.00000000D+00 0.00000000D+00 0.00000000D+00 0.00000000D+00 0.00000000D+00
  <mgrwgt>
 0.1735043967D+00    4    2    0
 0.150450603015790D+03 0.000000000000000D+00 0.000000000000000D+00 0.150450603015790D+03
 0.150450603015790D+03 0.000000000000000D+00 0.000000000000000D+00 -.150450603015790D+03
 0.165667863468825D+03 0.944774907125126D+02 -.247409300387924D+00 -.538031925040726D+02
 0.135233342562756D+03 -.944774907125126D+02 0.247409300387924D+00 0.538031925040726D+02
 0.000000000000000D+00 0.000000000000000D+00 0.000000000000000D+00 0.000000000000000D+00
 0.223055424112470D+03 0.000000000000000D+00 0.000000000000000D+00 0.223055424112470D+03
 0.198498952551750D+03 0.000000000000000D+00 0.000000000000000D+00 -.198498952551750D+03
 0.150311349758043D+03 0.545685490441562D+02 -.331057668340415D+02 -.538031925040726D+02
 0.167140707196515D+03 -.132668067208452D+03 -.311961610991477D+02 0.538031925040726D+02
 0.104102319709662D+03 0.780995181642960D+02 0.643019279331892D+02 0.245564715607199D+02
0.657903412918D-03 0.000000000000D+00 0.000000000000D+00 0.212442001244D-02 0.000000000000D+00  5 1 -2 25 -24 21 0 0.26095127D+00 0.20530604D-02 0.19706180D+05 0.19706180D+05 0.19706180D+05 0.12345343D+01  1  2  2  2  5  2       -2 0.226773001266D+00 0.100000000000D+01
-.363368236076D-04 0.000000000000D+00 -.252652233555D-05 0.212442001244D-02 0.000000000000D+00  5 1 -2 25 -24 21 2 0.26095127D+00 0.20530604D-02 0.19706180D+05 0.19706180D+05 0.19706180D+05 0.12345343D+01  1  2  3  2  5  2       -2 -.190889695223D-01 0.100000000000D+01
0.454658943608D-04 0.000000000000D+00 0.000000000000D+00 0.212442001244D-02 0.000000000000D+00  5 1 -2 25 -24 21 2 0.26095127D+00 0.20530604D-02 0.19706180D+05 0.19706180D+05 0.19706180D+05 0.12345343D+01  1  2 15  2  5  2       -2 0.238847809355D-01 0.100000000000D+01
-.110528566796D-03 0.000000000000D+00 0.000000000000D+00 0.212442001244D-02 0.000000000000D+00  5 1 -2 25 -24 21 2 0.26095127D+00 0.20530604D-02 0.19706180D+05 0.19706180D+05 0.19706180D+05 0.12345343D+01  1  2  4  2  5  2       -2 -.580644160234D-01 0.100000000000D+01
  </mgrwgt>
  </event>
  <event>
  5     66 0.47139866E-03 0.11371029E+03 0.75467711E-02 0.11969950E+00
       21 -1    0    0  501  502 0.00000000E+00 0.00000000E+00 0.17891584E+03 0.17891741E+03 0.75000000E+00 0.0000E+00 0.9000E+01
       -2 -1    0    0    0  501 0.00000000E+00 0.00000000E+00 -.24436309E+03 0.24436330E+03 0.32000000E+00 0.0000E+00 0.9000E+01
       25  1    1    2    0    0 -.24697435E+02 0.72796357E+02 0.11949425E+02 0.14723132E+03 0.12500000E+03 0.0000E+00 0.9000E+01
      -24  1    1    2    0    0 0.39700891E+02 -.52988252E+01 -.15059409E+03 0.17535687E+03 0.80419002E+02 0.0000E+00 0.9000E+01
       -1  1    1    2    0  502 -.15003457E+02 -.67497532E+02 0.73197408E+02 0.10069252E+03 0.32000000E+00 0.0000E+00 0.9000E+01
#aMCatNLO 2  0  0  1  2 0.69144925D+02 0.00000000D+00  -5  5  0 0.00000000D+00 0.00000000D+00 0.00000000D+00 0.00000000D+00 0.00000000D+00
  <mgrwgt>
 0.6902948816D-01    2    2    0
 0.141474184905031D+03 0.000000000000000D+00 0.000000000000000D+00 0.141474184905031D+03
 0.141474184905031D+03 0.000000000000000D+00 0.000000000000000D+00 -.141474184905031D+03
 0.157656967742368D+03 -.332258211717517D+02 0.344288631351842D+02 0.833151706977761D+02
 0.125291402067694D+03 0.332258211717517D+02 -.344288631351842D+02 -.833151706977761D+02
 0.000000000000000D+00 -.000000000000000D+00 -.000000000000000D+00 0.000000000000000D+00
 0.283314198537303D+03 0.000000000000000D+00 0.000000000000000D+00 0.283314198537303D+03
 0.154318811544683D+03 0.000000000000000D+00 0.000000000000000D+00 -.154318811544683D+03
 0.168747416604867D+03 -.246974346875324D+02 0.727963574794247D+02 0.833151706977761D+02
 0.122527025396725D+03 0.397008914486253D+02 -.529882515130493D+01 -.833151706977761D+02
 0.146358568080394D+03 -.150034567610930D+02 -.674975323281198D+02 0.128995386992620D+03
-.241261714395D-04 0.000000000000D+00 0.000000000000D+00 0.170736575495D-02 0.000000000000D+00  5 21 -2 25 -24 -1 2 0.27558247D-01 0.34465271D-01 0.23367984D+05 0.23367984D+05 0.23367984D+05 0.12264535D+01  1  2 13  3  5  1        1 -.291244768434D-01 0.100000000000D+01
0.953586275488D-04 0.000000000000D+00 0.000000000000D+00 0.170736575495D-02 0.363564414724D-06  5 21 -2 25 -24 -1 2 0.27525621D-01 0.37594418D-01 0.23367984D+05 0.23367984D+05 0.23367984D+05 0.12264535D+01  1  2  1  3  5  1        1 0.981539649988D-01 0.100000000000D+01
  </mgrwgt>
  </event>
  <event>
  4     66 0.47139866E-03 0.10439083E+03 0.75467711E-02 0.11328403E+00
        1 -1    0    0  501    0 0.00000000E+00 0.00000000E+00 0.15649103E+03 0.15649135E+03 0.32000000E+00 0.0000E+00 0.9000E+01
       -2 -1    0    0    0  501 0.00000000E+00 0.00000000E+00 -.69650545E+02 0.69651280E+02 0.32000000E+00 0.0000E+00 0.9000E+01
       25  1    1    2    0    0 0.18192305E+02 -.11698370E+01 0.50914087E+02 0.13619682E+03 0.12500000E+03 0.0000E+00 0.9000E+01
      -24  1    1    2    0    0 -.18192305E+02 0.11698370E+01 0.35926395E+02 0.89945818E+02 0.80419002E+02 0.0000E+00 0.9000E+01
#aMCatNLO 1  0  0  2  1 0.17218454D+03 0.00000000D+00  -5  5  0 0.00000000D+00 0.00000000D+00 0.00000000D+00 0.00000000D+00 0.00000000D+00
  <mgrwgt>
 0.1952743650D+00    3    2    0
 0.104402133500722D+03 0.000000000000000D+00 0.000000000000000D+00 0.104402133500722D+03
 0.104402133500722D+03 0.000000000000000D+00 0.000000000000000D+00 -.104402133500722D+03
 0.126331244857355D+03 0.181923046966149D+02 -.116983699975760D+01 -.150165189991499D+01
 0.824730221440898D+02 -.181923046966149D+02 0.116983699975760D+01 0.150165189991499D+01
 0.000000000000000D+00 0.000000000000000D+00 -.000000000000000D+00 0.000000000000000D+00
 0.307349261563776D+03 0.000000000000000D+00 0.000000000000000D+00 0.307349261563776D+03
 0.178405827757521D+03 0.000000000000000D+00 0.000000000000000D+00 -.178405827757521D+03
 0.155869343153471D+03 -.292479167983814D+02 0.883886674841341D+02 -.150165189991499D+01
 0.114771999961610D+03 -.513508023575797D+02 0.637670460317990D+02 0.150165189991499D+01
 0.215113746206216D+03 0.805987191559611D+02 -.152155713515933D+03 0.128943433806256D+03
0.198423998247D-03 0.000000000000D+00 0.000000000000D+00 0.318272634025D-02 0.000000000000D+00  5 1 -2 25 -24 21 0 0.24075624D-01 0.10715550D-01 0.10897446D+05 0.10897446D+05 0.10897446D+05 0.12639594D+01  1  2  2  2  5  2       -2 0.191119276160D+00 0.100000000000D+01
-.110235553012D-04 0.000000000000D+00 -.762000399507D-06 0.318272634025D-02 0.000000000000D+00  5 1 -2 25 -24 21 2 0.24075624D-01 0.10715550D-01 0.10897446D+05 0.10897446D+05 0.10897446D+05 0.12639594D+01  1  2  3  2  5  2       -2 -.169628276924D-01 0.100000000000D+01
0.137238038794D-04 0.000000000000D+00 0.000000000000D+00 0.318272634025D-02 0.000000000000D+00  5 1 -2 25 -24 21 2 0.24075624D-01 0.10715550D-01 0.10897446D+05 0.10897446D+05 0.10897446D+05 0.12639594D+01  1  2 15  2  5  2       -2 0.211179165097D-01 0.100000000000D+01
  </mgrwgt>
  </event>
  <event>
  4     66 0.47139866E-03 0.13841594E+03 0.75467711E-02 0.89624020E-01
        1 -1    0    0  501    0 0.00000000E+00 0.00000000E+00 0.13715966E+03 0.13716003E+03 0.32000000E+00 0.0000E+00 0.9000E+01
       -2 -1    0    0    0  501 0.00000000E+00 0.00000000E+00 -.15418605E+03 0.15418638E+03 0.32000000E+00 0.0000E+00 0.9000E+01
       25  1    1    2    0    0 -.25099638E+02 -.88070733E+02 0.34952495E+02 0.15884937E+03 0.12500000E+03 0.0000E+00 0.9000E+01
      -24  1    1    2    0    0 0.25099638E+02 0.88070733E+02 -.51978886E+02 0.13249704E+03 0.80419002E+02 0.0000E+00 0.9000E+01
#aMCatNLO 1  0  0  1  2 0.13744185D+04 0.00000000D+00  -5  5  0 0.00000000D+00 0.00000000D+00 0.00000000D+00 0.00000000D+00 0.00000000D+00
  <mgrwgt>
 0.3176297997D+00    3    2    0
 0.145424237273518D+03 0.000000000000000D+00 0.000000000000000D+00 0.145424237273518D+03
 0.145424237273518D+03 0.000000000000000D+00 0.000000000000000D+00 -.145424237273518D+03
 0.161167458997289D+03 -.250996376343545D+02 -.880707331172327D+02 0.443114431999253D+02
 0.129681015549746D+03 0.250996376343545D+02 0.880707331172327D+02 -.443114431999253D+02
 0.000000000000000D+00 0.000000000000000D+00 -.000000000000000D+00 -.000000000000000D+00
 0.815985438463941D+03 0.000000000000000D+00 0.000000000000000D+00 0.815985438463941D+03
 0.486116401033613D+04 0.000000000000000D+00 0.000000000000000D+00 -.486116401033613D+04
 0.811385752994980D+03 -.797433886451730D+03 0.696960034956158D+02 0.443114431999253D+02
 0.593469726386033D+03 -.549176482343271D+03 0.205379617842067D+03 -.443114431999253D+02
 0.427229396941906D+04 0.134661036879500D+04 -.275075621337682D+03 -.404517857187219D+04
0.990510918578D-03 0.000000000000D+00 0.000000000000D+00 0.224187206144D-02 0.000000000000D+00  5 1 -2 25 -24 21 0 0.21101540D-01 0.23720985D-01 0.19158971D+05 0.19158971D+05 0.19158971D+05 0.12358854D+01  1  2  2  1  5  1        1 0.311125381627D+00 0.100000000000D+01
-.548651608558D-04 0.000000000000D+00 -.380382273486D-05 0.224187206144D-02 0.000000000000D+00  5 1 -2 25 -24 21 2 0.21101540D-01 0.23720985D-01 0.19158971D+05 0.19158971D+05 0.19158971D+05 0.12358854D+01  1  2  3  1  5  1        1 -.263226277774D-01 0.100000000000D+01
0.684225438292D-04 0.000000000000D+00 0.000000000000D+00 0.224187206144D-02 0.000000000000D+00  5 1 -2 25 -24 21 2 0.21101540D-01 0.23720985D-01 0.19158971D+05 0.19158971D+05 0.19158971D+05 0.12358854D+01  1  2 15  1  5  1        1 0.328270458831D-01 0.100000000000D+01
  </mgrwgt>
  </event>
  <event>
  4     66 0.47139866E-03 0.10751726E+03 0.75467711E-02 0.11524504E+00
        1 -1    0    0  501    0 0.00000000E+00 0.00000000E+00 0.24505273E+02 0.24507362E+02 0.32000000E+00 0.0000E+00 0.9000E+01
       -2 -1    0    0    0  501 0.00000000E+00 0.00000000E+00 -.55738710E+03 0.55738719E+03 0.32000000E+00 0.0000E+00 0.9000E+01
       25  1    1    2    0    0 0.11711221E+02 0.28811867E+02 -.19893960E+03 0.23700051E+03 0.12500000E+03 0.0000E+00 0.9000E+01
      -24  1    1    2    0    0 -.11711221E+02 -.28811867E+02 -.33394222E+03 0.34489404E+03 0.80419002E+02 0.0000E+00 0.9000E+01
#aMCatNLO 1  0  0  2  2 0.13787100D+03 0.00000000D+00  -5  5  0 0.00000000D+00 0.00000000D+00 0.00000000D+00 0.00000000D+00 0.00000000D+00
  <mgrwgt>
 0.1880237074D+00    3    2    0
 0.116874110078297D+03 0.000000000000000D+00 0.000000000000000D+00 0.116874110078297D+03
 0.116874110078297D+03 0.000000000000000D+00 0.000000000000000D+00 -.116874110078297D+03
 0.136463102113176D+03 0.117112205703861D+02 0.288118666444468D+02 0.450544325407117D+02
 0.972851180434176D+02 -.117112205703861D+02 -.288118666444468D+02 -.450544325407117D+02
 0.000000000000000D+00 0.000000000000000D+00 0.000000000000000D+00 0.000000000000000D+00
 0.231043216729203D+03 0.000000000000000D+00 0.000000000000000D+00 0.231043216729203D+03
 0.185526194774282D+03 0.000000000000000D+00 0.000000000000000D+00 -.185526194774282D+03
 0.150457839315735D+03 -.664433320734388D+02 0.238315577118388D+02 0.450544325407117D+02
 0.120921310827649D+03 -.711485894410376D+02 -.325994445794938D+02 -.450544325407117D+02
 0.145190261360101D+03 0.137591921514476D+03 0.876788686765503D+01 0.455170219549205D+02
0.741150958433D-03 0.000000000000D+00 0.000000000000D+00 0.248341427818D-02 0.000000000000D+00  5 1 -2 25 -24 21 0 0.37702098D-02 0.85752029D-01 0.11559960D+05 0.11559960D+05 0.11559960D+05 0.12609301D+01  1  2  2  2  5  2       -2 0.184015438877D+00 0.100000000000D+01
-.408264536414D-04 0.000000000000D+00 -.284621482991D-05 0.248341427818D-02 0.000000000000D+00  5 1 -2 25 -24 21 2 0.37702098D-02 0.85752029D-01 0.11559960D+05 0.11559960D+05 0.11559960D+05 0.12609301D+01  1  2  3  2  5  2       -2 -.161165199545D-01 0.100000000000D+01
0.509802206304D-04 0.000000000000D+00 0.000000000000D+00 0.248341427818D-02 0.000000000000D+00  5 1 -2 25 -24 21 2 0.37702098D-02 0.85752029D-01 0.11559960D+05 0.11559960D+05 0.11559960D+05 0.12609301D+01  1  2 15  2  5  2       -2 0.201247884593D-01 0.100000000000D+01
  </mgrwgt>
  </event>
  <event>
  4     66 0.47139866E-03 0.18742954E+03 0.75467711E-02 0.10472814E+00
        1 -1    0    0  501    0 0.00000000E+00 0.00000000E+00 0.74729877E+03 0.74729884E+03 0.32000000E+00 0.0000E+00 0.9000E+01
       -2 -1    0    0    0  501 0.00000000E+00 0.00000000E+00 -.47542036E+02 0.47543113E+02 0.32000000E+00 0.0000E+00 0.9000E+01
       25  1    1    2    0    0 -.13927602E+03 0.69535033E+02 0.33041114E+03 0.38604333E+03 0.12500000E+03 0.0000E+00 0.9000E+01
      -24  1    1    2    0    0 0.13927602E+03 -.69535033E+02 0.36934560E+03 0.40879863E+03 0.80419002E+02 0.0000E+00 0.9000E+01
#aMCatNLO 1  0  0  1  2 0.30011038D+03 0.00000000D+00  -5  5  0 0.00000000D+00 0.00000000D+00 0.00000000D+00 0.00000000D+00 0.00000000D+00
  <mgrwgt>
 0.2512185721D+00    3    2    0
 0.188490212423968D+03 0.000000000000000D+00 0.000000000000000D+00 0.188490212423968D+03
 0.188490212423968D+03 0.000000000000000D+00 0.000000000000000D+00 -.188490212423968D+03
 0.200636445281183D+03 -.139276017889473D+03 0.695350334223880D+02 -.199261923825825D+02
 0.176343979566753D+03 0.139276017889473D+03 -.695350334223880D+02 0.199261923825825D+02
 0.000000000000000D+00 -.000000000000000D+00 -.000000000000000D+00 -.000000000000000D+00
 0.354887823589678D+03 0.000000000000000D+00 0.000000000000000D+00 0.354887823589678D+03
 0.438504613008928D+03 0.000000000000000D+00 0.000000000000000D+00 -.438504613008928D+03
 0.159434786103834D+03 -.161778724883361D+02 0.955807214811575D+02 -.199261923825825D+02
 0.322416310798193D+03 0.309788020493778D+03 -.334572971117741D+02 0.199261923825825D+02
 0.311541339696579D+03 -.293610148005442D+03 -.621234243693833D+02 -.836167894192503D+02
0.101673207998D-02 0.000000000000D+00 0.000000000000D+00 0.217790628981D-02 0.000000000000D+00  5 1 -2 25 -24 21 0 0.11496913D+00 0.73142474D-02 0.35129833D+05 0.35129833D+05 0.35129833D+05 0.12077685D+01  1  2  2  1  5  1        1 0.246395950129D+00 0.100000000000D+01
-.564829285485D-04 0.000000000000D+00 -.390451889881D-05 0.217790628981D-02 0.000000000000D+00  5 1 -2 25 -24 21 2 0.11496913D+00 0.73142474D-02 0.35129833D+05 0.35129833D+05 0.35129833D+05 0.12077685D+01  1  2  3  1  5  1        1 -.199669455322D-01 0.100000000000D+01
0.701252662213D-04 0.000000000000D+00 0.000000000000D+00 0.217790628981D-02 0.000000000000D+00  5 1 -2 25 -24 21 2 0.11496913D+00 0.73142474D-02 0.35129833D+05 0.35129833D+05 0.35129833D+05 0.12077685D+01  1  2 15  1  5  1        1 0.247895675216D-01 0.100000000000D+01
  </mgrwgt>
  </event>
  <event>
  4     66 0.47139866E-03 0.10287935E+03 0.75467711E-02 0.12402410E+00
        1 -1    0    0  501    0 0.00000000E+00 0.00000000E+00 0.10723030E+04 0.10723031E+04 0.32000000E+00 0.0000E+00 0.9000E+01
       -2 -1    0    0    0  501 0.00000000E+00 0.00000000E+00 -.20407869E+02 0.20410377E+02 0.32000000E+00 0.0000E+00 0.9000E+01
       25  1    1    2    0    0 0.29326609E+02 0.44296523E+02 0.91654351E+03 0.92655234E+03 0.12500000E+03 0.0000E+00 0.9000E+01
      -24  1    1    2    0    0 -.29326609E+02 -.44296523E+02 0.13535167E+03 0.16616114E+03 0.80419002E+02 0.0000E+00 0.9000E+01
#aMCatNLO 1  0  0  2  1 0.10759719D+02 0.00000000D+00  -5  5  0 0.00000000D+00 0.00000000D+00 0.00000000D+00 0.00000000D+00 0.00000000D+00
  <mgrwgt>
 0.3564524417D+00    6    2    0
 0.147935176144929D+03 0.000000000000000D+00 0.000000000000000D+00 0.147935176144929D+03
 0.147935176144929D+03 0.000000000000000D+00 0.000000000000000D+00 -.147935176144929D+03
 0.163411184428209D+03 0.293266090016316D+02 0.442965234685519D+02 0.908624411365633D+02
 0.132459167861649D+03 -.293266090016316D+02 -.442965234685519D+02 -.908624411365633D+02
 0.000000000000000D+00 0.000000000000000D+00 0.000000000000000D+00 0.000000000000000D+00
 0.154467569223817D+03 0.000000000000000D+00 0.000000000000000D+00 0.154467569223817D+03
 0.152530974066517D+03 0.000000000000000D+00 0.000000000000000D+00 -.152530974066517D+03
 0.161745154651770D+03 0.243791612106472D+02 0.410629801974330D+02 0.908624411365633D+02
 0.134320778752012D+03 -.333858251352837D+02 -.469495380266654D+02 -.908624411365633D+02
 0.109326098865515D+02 0.900666392463650D+01 0.588655782923234D+01 0.193659515730004D+01
0.342721308732D-03 0.000000000000D+00 0.000000000000D+00 0.159215048033D-02 0.000000000000D+00  5 1 -2 25 -24 21 0 0.16496990D+00 0.31398687D-02 0.13479485D+05 0.13479485D+05 0.13479485D+05 0.12531492D+01  1  2  2  2  5  2       -2 0.163589372857D+00 0.100000000000D+01
-.176808198606D-04 0.000000000000D+00 -.131614006612D-05 0.159215048033D-02 0.000000000000D+00  5 1 -2 25 -24 21 2 0.16496990D+00 0.31398687D-02 0.13479485D+05 0.13479485D+05 0.13479485D+05 0.12531492D+01  1  2  3  2  5  2       -2 -.132532364957D-01 0.100000000000D+01
0.235304639854D-04 0.000000000000D+00 0.000000000000D+00 0.159215048033D-02 0.000000000000D+00  5 1 -2 25 -24 21 2 0.16496990D+00 0.31398687D-02 0.13479485D+05 0.13479485D+05 0.13479485D+05 0.12531492D+01  1  2 15  2  5  2       -2 0.176380284687D-01 0.100000000000D+01
0.557292509366D-03 0.000000000000D+00 0.000000000000D+00 0.159215048033D-02 0.000000000000D+00  5 1 -2 25 -24 21 2 0.16496990D+00 0.33042126D-02 0.14822558D+05 0.14822558D+05 0.14822558D+05 0.12484121D+01  1  2 12  2  5  2       -2 0.385385849660D+00 0.100000000000D+01
-.365346160318D-03 0.000000000000D+00 0.000000000000D+00 0.159215048033D-02 0.000000000000D+00  5 1 -2 25 -24 21 2 0.16496990D+00 0.31398687D-02 0.13479485D+05 0.13479485D+05 0.13479485D+05 0.12531492D+01  1  2  4  2  5  2       -2 -.273857157285D+00 0.100000000000D+01
0.575930077506D-05 0.000000000000D+00 0.000000000000D+00 0.159215048033D-02 0.000000000000D+00  5 1 21 25 -24 2 2 0.16496990D+00 0.33042126D-02 0.14822558D+05 0.14822558D+05 0.14822558D+05 0.12484121D+01  1  2 12  4  5  2       -2 0.769495844811D-01 0.100000000000D+01
  </mgrwgt>
  </event>
  <event>
  5     66 -.47139866E-03 0.15115075E+03 0.75467711E-02 0.11950514E+00
        1 -1    0    0  502    0 0.00000000E+00 0.00000000E+00 0.16860145E+04 0.16860146E+04 0.32000000E+00 0.0000E+00 0.9000E+01
       -2 -1    0    0    0  501 0.00000000E+00 0.00000000E+00 -.14777400E+02 0.14780864E+02 0.32000000E+00 0.0000E+00 0.9000E+01
       25  1    1    2    0    0 -.90316998E+02 0.65176480E+02 0.74341333E+03 0.76203249E+03 0.12500000E+03 0.0000E+00 0.9000E+01
      -24  1    1    2    0    0 0.91154733E+02 -.58599819E+02 0.84904853E+03 0.85970561E+03 0.80419002E+02 0.0000E+00 0.9000E+01
       21  1    1    2  502  501 -.83773473E+00 -.65766613E+01 0.78775268E+02 0.79057319E+02 0.75000000E+00 0.0000E+00 0.9000E+01
#aMCatNLO 2  0  0  1  2 0.66298019D+01 0.00000000D+00  -5  5  0 0.00000000D+00 0.00000000D+00 0.00000000D+00 0.00000000D+00 0.00000000D+00
  <mgrwgt>
 -.7882588709D-01    3    2    0
 0.153342548573003D+03 0.000000000000000D+00 0.000000000000000D+00 0.153342548573003D+03
 0.153342548573003D+03 0.000000000000000D+00 0.000000000000000D+00 -.153342548573003D+03
 0.168272820912369D+03 -.907781128263546D+02 0.615564861650619D+02 -.257074989157334D+02
 0.138412276233638D+03 0.907781128263546D+02 -.615564861650619D+02 0.257074989157334D+02
 0.000000000000000D+00 -.000000000000000D+00 -.000000000000000D+00 0.000000000000000D+00
 0.160893841566299D+03 0.000000000000000D+00 0.000000000000000D+00 0.160893841566299D+03
 0.154840501680900D+03 0.000000000000000D+00 0.000000000000000D+00 -.154840501680900D+03
 0.169384206030253D+03 -.903169981854241D+02 0.651764803496692D+02 -.257074989157334D+02
 0.137372543015839D+03 0.911547329105085D+02 -.585998190080781D+02 0.257074989157334D+02
 0.897759420110730D+01 -.837734725084473D+00 -.657666134159111D+01 0.605333988539914D+01
-.226102797540D-02 0.000000000000D+00 0.000000000000D+00 0.232204009632D-02 0.000000000000D+00  5 1 -2 25 -24 21 2 0.26053118D+00 0.22514928D-02 0.23869867D+05 0.23869867D+05 0.23869867D+05 0.12254574D+01  1  2 13  1  5  1        1 -.102870615483D+01 0.100000000000D+01
-.139673192338D-02 0.000000000000D+00 0.000000000000D+00 0.232204009632D-02 0.000000000000D+00  5 1 -2 25 -24 21 2 0.24718840D+00 0.22514928D-02 0.22846550D+05 0.22846550D+05 0.22846550D+05 0.12275141D+01  1  2  8  1  5  1        1 -.724705184075D+00 0.100000000000D+01
0.369158559665D-02 0.000000000000D+00 0.000000000000D+00 0.232204009632D-02 0.423579183327D-03  5 1 -2 25 -24 21 2 0.25936109D+00 0.22734869D-02 0.23869867D+05 0.23869867D+05 0.23869867D+05 0.12254574D+01  1  2  1  1  5  1        1 0.167458545181D+01 0.100000000000D+01
  </mgrwgt>
  </event>
  <event>
  5     66 0.47139866E-03 0.14500821E+03 0.75467711E-02 0.11795072E+00
        1 -1    0    0  501    0 0.00000000E+00 0.00000000E+00 0.21962490E+03 0.21962513E+03 0.32000000E+00 0.0000E+00 0.9000E+01
       -2 -1    0    0    0  502 0.00000000E+00 0.00000000E+00 -.13428095E+03 0.13428133E+03 0.32000000E+00 0.0000E+00 0.9000E+01
       25  1    1    2    0    0 -.77048385E+02 0.96450910E+02 0.11959375E+02 0.17608878E+03 0.12500000E+03 0.0000E+00 0.9000E+01
      -24  1    1    2    0    0 0.38106323E+02 -.76738169E+02 0.45449179E+02 0.12599080E+03 0.80419002E+02 0.0000E+00 0.9000E+01
       21  1    1    2  501  502 0.38942061E+02 -.19712741E+02 0.27935399E+02 0.51826878E+02 0.75000000E+00 0.0000E+00 0.9000E+01
#aMCatNLO 2  0  0  2  2 0.43647180D+02 0.00000000D+00  -5  5  0 0.00000000D+00 0.00000000D+00 0.00000000D+00 0.00000000D+00 0.00000000D+00
  <mgrwgt>
 0.5782287115D-01    1    2    0
 0.146672471710301D+03 0.000000000000000D+00 0.000000000000000D+00 0.146672471710301D+03
 0.146672471710301D+03 0.000000000000000D+00 0.000000000000000D+00 -.146672471710301D+03
 0.162281713067666D+03 -.546487376745199D+02 0.851120539093931D+02 -.219045234160084D+02
 0.131063230352937D+03 0.546487376745199D+02 -.851120539093931D+02 0.219045234160084D+02
 0.000000000000000D+00 0.000000000000000D+00 -.000000000000000D+00 0.000000000000000D+00
 0.181185534442834D+03 0.000000000000000D+00 0.000000000000000D+00 0.181185534442834D+03
 0.162764144869429D+03 0.000000000000000D+00 0.000000000000000D+00 -.162764144869429D+03
 0.177042480394152D+03 -.770483849103175D+02 0.964509103157801D+02 -.219045234160084D+02
 0.119531847780191D+03 0.381063234954943D+02 -.767381694005697D+02 0.219045234160084D+02
 0.473753511379202D+02 0.389420614148232D+02 -.197127409152104D+02 0.184213895734052D+02
0.175208139778D-03 0.000000000000D+00 0.000000000000D+00 0.238779107423D-02 0.100918269442D-04  5 1 -2 25 -24 21 2 0.33787898D-01 0.20658290D-01 0.28364799D+05 0.28364799D+05 0.28364799D+05 0.12174615D+01  1  2  1  2  5  2       -2 0.578228711522D-01 0.100000000000D+01
  </mgrwgt>
  </event>
  <event>
  5     66 0.47139866E-03 0.14493282E+03 0.75467711E-02 0.11839236E+00
       21 -1    0    0  501  502 0.00000000E+00 0.00000000E+00 0.30430321E+03 0.30430414E+03 0.75000000E+00 0.0000E+00 0.9000E+01
       -4 -1    0    0    0  501 0.00000000E+00 0.00000000E+00 -.11625402E+03 0.11626435E+03 0.15500000E+01 0.0000E+00 0.9000E+01
       25  1    1    2    0    0 -.22332218E+02 -.80087069E+02 0.60694191E+01 0.15024814E+03 0.12500000E+03 0.0000E+00 0.9000E+01
      -24  1    1    2    0    0 0.44214232E+02 0.10882685E+03 0.18571887E+03 0.23400191E+03 0.80419002E+02 0.0000E+00 0.9000E+01
       -3  1    1    2    0  502 -.21882015E+02 -.28739779E+02 -.37390895E+01 0.36318429E+02 0.50000000E+00 0.0000E+00 0.9000E+01
#aMCatNLO 2  0  0  1  1 0.36121981D+02 0.00000000D+00  -5  5  0 0.00000000D+00 0.00000000D+00 0.00000000D+00 0.00000000D+00 0.00000000D+00
  <mgrwgt>
 0.1160455244D-01    1    2    0
 0.165499668014065D+03 0.000000000000000D+00 0.000000000000000D+00 0.165499668014065D+03
 0.165499668014065D+03 0.000000000000000D+00 0.000000000000000D+00 -.165499668014065D+03
 0.179333206406497D+03 -.338415858410295D+02 -.952034422137674D+02 -.795389877886901D+02
 0.151666129621633D+03 0.338415858410295D+02 0.952034422137674D+02 0.795389877886901D+02
 0.000000000000000D+00 -.000000000000000D+00 -.000000000000000D+00 -.000000000000000D+00
 0.175896708109755D+03 0.000000000000000D+00 0.000000000000000D+00 0.175896708109755D+03
 0.201131016564341D+03 0.000000000000000D+00 0.000000000000000D+00 -.201131016564341D+03
 0.169894429342882D+03 -.223322176794565D+02 -.800870688489191D+02 -.795389877886901D+02
 0.163070070174808D+03 0.442142322939902D+02 0.108826848326366D+03 0.795389877886901D+02
 0.440632251564058D+02 -.218820146145337D+02 -.287397794774469D+02 -.252343084545855D+02
0.154946135844D-04 0.000000000000D+00 0.000000000000D+00 0.181000472425D-02 0.122960333445D-06  5 21 -4 25 -24 -3 2 0.46816378D-01 0.17885959D-01 0.26995158D+05 0.26995158D+05 0.26995158D+05 0.12197386D+01  1  2  1  3  5  1        3 0.116045524427D-01 0.100000000000D+01
  </mgrwgt>
  </event>
  <event>
  4     66 0.47139866E-03 0.21474498E+03 0.75467711E-02 0.11134540E+00
        1 -1    0    0  501    0 0.00000000E+00 0.00000000E+00 0.95417740E+03 0.95417745E+03 0.32000000E+00 0.0000E+00 0.9000E+01
       -2 -1    0    0    0  501 0.00000000E+00 0.00000000E+00 -.11744320E+03 0.11744364E+03 0.32000000E+00 0.0000E+00 0.9000E+01
       25  1    1    2    0    0 -.12431984E+02 -.18715877E+03 0.16088548E+02 0.22597965E+03 0.12500000E+03 0.0000E+00 0.9000E+01
      -24  1    1    2    0    0 0.12431984E+02 0.18715877E+03 0.82064565E+03 0.84564145E+03 0.80419002E+02 0.0000E+00 0.9000E+01
#aMCatNLO 1  0  0  1  1 0.65417726D+02 0.00000000D+00  -5  5  0 0.00000000D+00 0.00000000D+00 0.00000000D+00 0.00000000D+00 0.00000000D+00
  <mgrwgt>
 0.2109438079D+00    3    2    0
 0.334756497150150D+03 0.000000000000000D+00 0.000000000000000D+00 0.334756497150150D+03
 0.334756497150150D+03 0.000000000000000D+00 0.000000000000000D+00 -.334756497150150D+03
 0.341595635541482D+03 -.124319836742766D+02 -.187158769019904D+03 -.256670253792421D+03
 0.327917358758818D+03 0.124319836742766D+02 0.187158769019904D+03 0.256670253792421D+03
 0.000000000000000D+00 -.000000000000000D+00 -.000000000000000D+00 -.000000000000000D+00
 0.339049913951363D+03 0.000000000000000D+00 0.000000000000000D+00 0.339049913951363D+03
 0.732711653546864D+03 0.000000000000000D+00 0.000000000000000D+00 -.732711653546864D+03
 0.326382950891939D+03 0.237247731687446D+01 -.158163152480106D+03 -.256670253792421D+03
 0.346318415535925D+03 0.273751232031661D+02 0.216425997589682D+03 0.256670253792421D+03
 0.399060201070363D+03 -.297476005200406D+02 -.582628451095756D+02 -.393661739595501D+03
0.527844746063D-02 0.000000000000D+00 0.000000000000D+00 0.838432521057D-03 0.000000000000D+00  5 1 -2 25 -24 21 0 0.14679656D+00 0.18068223D-01 0.46115405D+05 0.46115405D+05 0.46115405D+05 0.11957760D+01  1  2  2  1  5  1        1 0.203396699746D+00 0.100000000000D+01
-.222974214829D-03 0.000000000000D+00 -.202706280960D-04 0.838432521057D-03 0.000000000000D+00  5 1 -2 25 -24 21 2 0.14679656D+00 0.18068223D-01 0.46115405D+05 0.46115405D+05 0.46115405D+05 0.11957760D+01  1  2  3  1  5  1        1 -.122854772456D-01 0.100000000000D+01
0.359949806605D-03 0.000000000000D+00 0.000000000000D+00 0.838432521057D-03 0.000000000000D+00  5 1 -2 25 -24 21 2 0.14679656D+00 0.18068223D-01 0.46115405D+05 0.46115405D+05 0.46115405D+05 0.11957760D+01  1  2 15  1  5  1        1 0.198325854044D-01 0.100000000000D+01
  </mgrwgt>
  </event>
  <event>
  4     66 0.47139866E-03 0.17160068E+03 0.75467711E-02 0.10770522E+00
        1 -1    0    0  501    0 0.00000000E+00 0.00000000E+00 0.12639066E+03 0.12639106E+03 0.32000000E+00 0.0000E+00 0.9000E+01
       -2 -1    0    0    0  501 0.00000000E+00 0.00000000E+00 -.27169603E+03 0.27169622E+03 0.32000000E+00 0.0000E+00 0.9000E+01
       25  1    1    2    0    0 -.13267451E+03 -.31243571E+02 -.15243663E+03 0.23966772E+03 0.12500000E+03 0.0000E+00 0.9000E+01
      -24  1    1    2    0    0 0.13267451E+03 0.31243571E+02 0.71312593E+01 0.15841956E+03 0.80419002E+02 0.0000E+00 0.9000E+01
#aMCatNLO 1  0  0  1  1 0.22398938D+03 0.00000000D+00  -5  5  0 0.00000000D+00 0.00000000D+00 0.00000000D+00 0.00000000D+00 0.00000000D+00
  <mgrwgt>
 0.1748381177D+00    3    2    0
 0.185310435051849D+03 0.000000000000000D+00 0.000000000000000D+00 0.185310435051849D+03
 0.185310435051849D+03 0.000000000000000D+00 0.000000000000000D+00 -.185310435051849D+03
 0.197665087453193D+03 -.132674512288764D+03 -.312435707440274D+02 -.697696199930882D+02
 0.172955782650506D+03 0.132674512288764D+03 0.312435707440274D+02 0.697696199930882D+02
 0.000000000000000D+00 -.000000000000000D+00 0.000000000000000D+00 -.000000000000000D+00
 0.304093215356449D+03 0.000000000000000D+00 0.000000000000000D+00 0.304093215356449D+03
 0.359757863923401D+03 0.000000000000000D+00 0.000000000000000D+00 -.359757863923401D+03
 0.215849432876370D+03 -.861274838281069D+02 -.136675653751902D+03 -.697696199930882D+02
 0.217199145082622D+03 0.176592081400451D+03 -.682326137776352D+02 0.697696199930882D+02
 0.230802501320858D+03 -.904645975723438D+02 0.204908267529537D+03 -.556646485669519D+02
0.136529194467D-02 0.000000000000D+00 0.000000000000D+00 0.191681942927D-02 0.000000000000D+00  5 1 -2 25 -24 21 0 0.19444762D-01 0.41799435D-01 0.29446794D+05 0.29446794D+05 0.29446794D+05 0.12157477D+01  1  2  2  1  5  1        1 0.171330365610D+00 0.100000000000D+01
-.753047222959D-04 0.000000000000D+00 -.524308055716D-05 0.191681942927D-02 0.000000000000D+00  5 1 -2 25 -24 21 2 0.19444762D-01 0.41799435D-01 0.29446794D+05 0.29446794D+05 0.29446794D+05 0.12157477D+01  1  2  3  1  5  1        1 -.139674756857D-01 0.100000000000D+01
0.942165357155D-04 0.000000000000D+00 0.000000000000D+00 0.191681942927D-02 0.000000000000D+00  5 1 -2 25 -24 21 2 0.19444762D-01 0.41799435D-01 0.29446794D+05 0.29446794D+05 0.29446794D+05 0.12157477D+01  1  2 15  1  5  1        1 0.174752277371D-01 0.100000000000D+01
  </mgrwgt>
  </event>
  <event>
  4     66 0.47139866E-03 0.11453431E+03 0.75467711E-02 0.11625690E+00
        1 -1    0    0  501    0 0.00000000E+00 0.00000000E+00 0.49030990E+03 0.49031000E+03 0.32000000E+00 0.0000E+00 0.9000E+01
       -2 -1    0    0    0  501 0.00000000E+00 0.00000000E+00 -.33012456E+02 0.33014007E+02 0.32000000E+00 0.0000E+00 0.9000E+01
       25  1    1    2    0    0 -.67018672E+01 0.49261068E+02 0.37350285E+03 0.39698986E+03 0.12500000E+03 0.0000E+00 0.9000E+01
      -24  1    1    2    0    0 0.67018672E+01 -.49261068E+02 0.83794587E+02 0.12633415E+03 0.80419002E+02 0.0000E+00 0.9000E+01
#aMCatNLO 1  0  0  2  1 0.11465476D+03 0.00000000D+00  -5  5  0 0.00000000D+00 0.00000000D+00 0.00000000D+00 0.00000000D+00 0.00000000D+00
  <mgrwgt>
 0.1721674496D+00    5    2    0
 0.127227225527818D+03 0.000000000000000D+00 0.000000000000000D+00 0.127227225527818D+03
 0.127227225527818D+03 0.000000000000000D+00 0.000000000000000D+00 -.127227225527818D+03
 0.145222163340140D+03 -.670186723363917D+01 0.492610682572738D+02 0.547074844507139D+02
 0.109232287715495D+03 0.670186723363917D+01 -.492610682572738D+02 -.547074844507139D+02
 0.000000000000000D+00 -.000000000000000D+00 0.000000000000000D+00 -.000000000000000D+00
 0.165958452454282D+03 0.000000000000000D+00 0.000000000000000D+00 0.165958452454282D+03
 0.263975478698554D+03 0.000000000000000D+00 0.000000000000000D+00 -.263975478698554D+03
 0.155650268642731D+03 0.579282499261745D+02 0.474701499272936D+02 0.547074844507139D+02
 0.123442515149990D+03 0.566825174056331D+02 -.506460458261062D+02 -.547074844507139D+02
 0.150841147360116D+03 -.114610767331808D+03 0.317589589881255D+01 -.980170262442719D+02
0.250324060521D-03 0.000000000000D+00 0.000000000000D+00 0.222807952052D-02 0.000000000000D+00  5 1 -2 25 -24 21 0 0.75432419D-01 0.50789667D-02 0.13118109D+05 0.13118109D+05 0.13118109D+05 0.12545148D+01  1  2  2  2  5  2       -2 0.184370796585D+00 0.100000000000D+01
-.137201172477D-04 0.000000000000D+00 -.961310304239D-06 0.222807952052D-02 0.000000000000D+00  5 1 -2 25 -24 21 2 0.75432419D-01 0.50789667D-02 0.13118109D+05 0.13118109D+05 0.13118109D+05 0.12545148D+01  1  2  3  2  5  2       -2 -.159037282788D-01 0.100000000000D+01
0.173060510024D-04 0.000000000000D+00 0.000000000000D+00 0.222807952052D-02 0.000000000000D+00  5 1 -2 25 -24 21 2 0.75432419D-01 0.50789667D-02 0.13118109D+05 0.13118109D+05 0.13118109D+05 0.12545148D+01  1  2 15  2  5  2       -2 0.200603776011D-01 0.100000000000D+01
-.484372055595D-04 0.000000000000D+00 -.724143904292D-04 0.222807952052D-02 0.000000000000D+00  5 1 -2 25 -24 21 2 0.75432419D-01 0.13672467D-01 0.13118109D+05 0.13118109D+05 0.13118109D+05 0.12545148D+01  1  2  5  2  5  2       -2 -.121458959558D-01 0.100000000000D+01
-.111917938019D-05 0.000000000000D+00 -.799462001747D-05 0.222807952052D-02 0.000000000000D+00  5 1 21 25 -24 2 2 0.75432419D-01 0.13672467D-01 0.13118109D+05 0.13118109D+05 0.13118109D+05 0.12545148D+01  1  2  5  4  5  2       -2 -.421410032045D-02 0.100000000000D+01
  </mgrwgt>
  </event>
  <event>
  4     66 0.47139866E-03 0.24446411E+03 0.75467711E-02 0.10511702E+00
        1 -1    0    0  501    0 0.00000000E+00 0.00000000E+00 0.17445331E+04 0.17445332E+04 0.32000000E+00 0.0000E+00 0.9000E+01
       -2 -1    0    0    0  501 0.00000000E+00 0.00000000E+00 -.37450203E+02 0.37451570E+02 0.32000000E+00 0.0000E+00 0.9000E+01
       25  1    1    2    0    0 -.87157358E+02 0.20299728E+03 0.11434695E+04 0.11713034E+04 0.12500000E+03 0.0000E+00 0.9000E+01
      -24  1    1    2    0    0 0.87157358E+02 -.20299728E+03 0.56361345E+03 0.61068129E+03 0.80419002E+02 0.0000E+00 0.9000E+01
#aMCatNLO 1  0  0  1  2 0.22238376D+03 0.00000000D+00  -5  5  0 0.00000000D+00 0.00000000D+00 0.00000000D+00 0.00000000D+00 0.00000000D+00
  <mgrwgt>
 0.2973252678D+00    6    2    0
 0.255605875253456D+03 0.000000000000000D+00 0.000000000000000D+00 0.255605875253456D+03
 0.255605875253456D+03 0.000000000000000D+00 0.000000000000000D+00 -.255605875253456D+03
 0.264562813387751D+03 -.871573582198598D+02 0.202997280398715D+03 0.745934399696278D+02
 0.246648937119162D+03 0.871573582198598D+02 -.202997280398715D+03 -.745934399696278D+02
 0.000000000000000D+00 -.000000000000000D+00 0.000000000000000D+00 0.000000000000000D+00
 0.409164659368022D+03 0.000000000000000D+00 0.000000000000000D+00 0.409164659368022D+03
 0.373541448471128D+03 0.000000000000000D+00 0.000000000000000D+00 -.373541448471128D+03
 0.226538537467442D+03 0.106117613175854D+02 0.173256798403768D+03 0.745934399696278D+02
 0.330948674661093D+03 0.202146270085708D+03 -.237975867493948D+03 -.745934399696278D+02
 0.225218895710615D+03 -.212758031403293D+03 0.647190690901808D+02 0.356232108968937D+02
0.264890786946D-02 0.000000000000D+00 0.000000000000D+00 0.188443853015D-02 0.000000000000D+00  5 1 -2 25 -24 21 0 0.26838982D+00 0.57616771D-02 0.59762703D+05 0.59762703D+05 0.59762703D+05 0.11846858D+01  1  2  2  1  5  1        1 0.181961500147D+00 0.100000000000D+01
-.146806141472D-03 0.000000000000D+00 -.101725036922D-04 0.188443853015D-02 0.000000000000D+00  5 1 -2 25 -24 21 2 0.26838982D+00 0.57616771D-02 0.59762703D+05 0.59762703D+05 0.59762703D+05 0.11846858D+01  1  2  3  1  5  1        1 -.141534793374D-01 0.100000000000D+01
0.182613371088D-03 0.000000000000D+00 0.000000000000D+00 0.188443853015D-02 0.000000000000D+00  5 1 -2 25 -24 21 2 0.26838982D+00 0.57616771D-02 0.59762703D+05 0.59762703D+05 0.59762703D+05 0.11846858D+01  1  2 15  1  5  1        1 0.176056297680D-01 0.100000000000D+01
-.884917451862D-03 0.000000000000D+00 -.785466022762D-03 0.188443853015D-02 0.000000000000D+00  5 1 -2 25 -24 21 2 0.49599504D+00 0.57616771D-02 0.59762703D+05 0.59762703D+05 0.59762703D+05 0.11846858D+01  1  2  5  1  5  1        1 -.871049355659D-02 0.100000000000D+01
0.125168305992D-02 0.000000000000D+00 0.657526599354D-03 0.188443853015D-02 0.000000000000D+00  5 1 -2 25 -24 21 2 0.26838982D+00 0.57616771D-02 0.59762703D+05 0.59762703D+05 0.59762703D+05 0.11846858D+01  1  2  6  1  5  1        1 0.120673904701D+00 0.100000000000D+01
-.159429861514D-04 0.000000000000D+00 -.526292695244D-04 0.188443853015D-02 0.000000000000D+00  5 21 -2 25 -24 -1 2 0.49599504D+00 0.57616771D-02 0.59762703D+05 0.59762703D+05 0.59762703D+05 0.11846858D+01  1  2  5  3  5  1        1 -.517939356227D-04 0.100000000000D+01
  </mgrwgt>
  </event>
  <event>
  4     66 0.47139866E-03 0.12240932E+03 0.75467711E-02 0.10759832E+00
        3 -1    0    0  501    0 0.00000000E+00 0.00000000E+00 0.10384567E+03 0.10384687E+03 0.50000000E+00 0.0000E+00 0.9000E+01
       -4 -1    0    0    0  501 0.00000000E+00 0.00000000E+00 -.15067994E+03 0.15068791E+03 0.15500000E+01 0.0000E+00 0.9000E+01
       25  1    1    2    0    0 0.64698114E+02 -.10094375E+02 -.91056811E+00 0.14111545E+03 0.12500000E+03 0.0000E+00 0.9000E+01
      -24  1    1    2    0    0 -.64698114E+02 0.10094375E+02 -.45923701E+02 0.11341933E+03 0.80419002E+02 0.0000E+00 0.9000E+01
#aMCatNLO 1  0  0  1  2 0.27235655D+03 0.00000000D+00  -5  5  0 0.00000000D+00 0.00000000D+00 0.00000000D+00 0.00000000D+00 0.00000000D+00
  <mgrwgt>
 0.4144689182D-01    5    2    0
 0.125094472767445D+03 0.000000000000000D+00 0.000000000000000D+00 0.125094472767445D+03
 0.125094472767445D+03 0.000000000000000D+00 0.000000000000000D+00 -.125094472767445D+03
 0.143396208733538D+03 0.646981143681296D+02 -.100943753039240D+02 0.254898070527072D+02
 0.106792736801352D+03 -.646981143681296D+02 0.100943753039240D+02 -.254898070527072D+02
 0.000000000000000D+00 0.000000000000000D+00 0.000000000000000D+00 0.000000000000000D+00
 0.159937714093913D+04 0.000000000000000D+00 0.000000000000000D+00 0.159937714093913D+04
 0.198024540585031D+03 0.000000000000000D+00 0.000000000000000D+00 -.198024540585031D+03
 0.215666373555567D+03 0.485029439735839D+02 -.166987181678477D+03 0.254898070527072D+02
 0.154161421856082D+03 -.764681992309952D+02 -.103929843053393D+03 -.254898070527072D+02
 0.142757388611251D+04 0.279652552574113D+02 0.270917024731870D+03 0.140135260035410D+04
0.415577801874D-03 0.000000000000D+00 0.000000000000D+00 0.259617120277D-02 0.000000000000D+00  5 3 -4 25 -24 21 0 0.15976963D-01 0.23182235D-01 0.14984041D+05 0.14984041D+05 0.14984041D+05 0.12478752D+01  1  2  2  1  5  1        3 0.455103506910D-01 0.100000000000D+01
-.230744387186D-04 0.000000000000D+00 -.159592818334D-05 0.259617120277D-02 0.000000000000D+00  5 3 -4 25 -24 21 2 0.15976963D-01 0.23182235D-01 0.14984041D+05 0.14984041D+05 0.14984041D+05 0.12478752D+01  1  2  3  1  5  1        3 -.393487845895D-02 0.100000000000D+01
0.287094793277D-04 0.000000000000D+00 0.000000000000D+00 0.259617120277D-02 0.000000000000D+00  5 3 -4 25 -24 21 2 0.15976963D-01 0.23182235D-01 0.14984041D+05 0.14984041D+05 0.14984041D+05 0.12478752D+01  1  2 15  1  5  1        3 0.489582057237D-02 0.100000000000D+01
-.160691227948D-02 0.000000000000D+00 -.553394520572D-03 0.259617120277D-02 0.000000000000D+00  5 3 -4 25 -24 21 2 0.25966253D+00 0.23182235D-01 0.14984041D+05 0.14984041D+05 0.14984041D+05 0.12478752D+01  1  2  5  1  5  1        3 -.656598667946D-03 0.100000000000D+01
-.626485175589D-03 0.000000000000D+00 -.171612715733D-03 0.259617120277D-02 0.000000000000D+00  5 21 -4 25 -24 -3 2 0.25966253D+00 0.23182235D-01 0.14984041D+05 0.14984041D+05 0.14984041D+05 0.12478752D+01  1  2  5  3  5  1        3 -.436780231912D-02 0.100000000000D+01
  </mgrwgt>
  </event>
  <event>
  4     66 0.47139866E-03 0.52883650E+02 0.75467711E-02 0.12165063E+00
        1 -1    0    0  501    0 0.00000000E+00 0.00000000E+00 0.13187373E+04 0.13187374E+04 0.32000000E+00 0.0000E+00 0.9000E+01
       -2 -1    0    0    0  501 0.00000000E+00 0.00000000E+00 -.12013308E+02 0.12017569E+02 0.32000000E+00 0.0000E+00 0.9000E+01
       25  1    1    2    0    0 0.21161747E+02 0.66082834E+02 0.84160802E+03 0.85366494E+03 0.12500000E+03 0.0000E+00 0.9000E+01
      -24  1    1    2    0    0 -.21161747E+02 -.66082834E+02 0.46511601E+03 0.47709001E+03 0.80419002E+02 0.0000E+00 0.9000E+01
#aMCatNLO 1  0  0  1  2 0.24948151D+02 0.00000000D+00  -5  5  0 0.00000000D+00 0.00000000D+00 0.00000000D+00 0.00000000D+00 0.00000000D+00
  <mgrwgt>
 0.3750157990D+00    9    2    0
 0.125877952135181D+03 0.000000000000000D+00 0.000000000000000D+00 0.125877952135181D+03
 0.125877952135181D+03 0.000000000000000D+00 0.000000000000000D+00 -.125877952135181D+03
 0.144065775916654D+03 0.211617469269024D+02 0.660828341294977D+02 0.177535148881198D+02
 0.107690128353708D+03 -.211617469269024D+02 -.660828341294977D+02 -.177535148881198D+02
 0.000000000000000D+00 -.000000000000000D+00 -.000000000000000D+00 0.000000000000000D+00
 0.140443126185348D+03 0.000000000000000D+00 0.000000000000000D+00 0.140443126185348D+03
 0.137649924453502D+03 0.000000000000000D+00 0.000000000000000D+00 -.137649924453502D+03
 0.151407072128828D+03 0.291063190465906D+02 0.783373243818007D+02 0.177535148881198D+02
 0.101581950519259D+03 -.155349113843437D+02 -.574034489758636D+02 -.177535148881198D+02
 0.251040279907623D+02 -.135714076622469D+02 -.209338754059370D+02 0.279320173184617D+01
0.220861677282D-03 0.000000000000D+00 0.000000000000D+00 0.263487408930D-02 0.000000000000D+00  5 1 -2 25 -24 21 0 0.20288300D+00 0.18485320D-02 0.15523209D+05 0.15523209D+05 0.15523209D+05 0.12461286D+01  1  2  2  1  5  1        1 0.155167767751D+00 0.100000000000D+01
-.122685205753D-04 0.000000000000D+00 -.848166994977D-06 0.263487408930D-02 0.000000000000D+00  5 1 -2 25 -24 21 2 0.20288300D+00 0.18485320D-02 0.15523209D+05 0.15523209D+05 0.15523209D+05 0.12461286D+01  1  2  3  1  5  1        1 -.133844049253D-01 0.100000000000D+01
0.152804505222D-04 0.000000000000D+00 0.000000000000D+00 0.263487408930D-02 0.000000000000D+00  5 1 -2 25 -24 21 2 0.20288300D+00 0.18485320D-02 0.15523209D+05 0.15523209D+05 0.15523209D+05 0.12461286D+01  1  2 15  1  5  1        1 0.166702852211D-01 0.100000000000D+01
0.244813553223D-03 0.000000000000D+00 0.000000000000D+00 0.263487408930D-02 0.000000000000D+00  5 1 -2 25 -24 21 2 0.23487427D+00 0.18485320D-02 0.18951554D+05 0.18951554D+05 0.18951554D+05 0.12364089D+01  1  2 12  1  5  1        1 0.192947385802D+00 0.100000000000D+01
-.210815563627D-03 0.000000000000D+00 0.000000000000D+00 0.263487408930D-02 0.000000000000D+00  5 1 -2 25 -24 21 2 0.20288300D+00 0.18485320D-02 0.15523209D+05 0.15523209D+05 0.15523209D+05 0.12461286D+01  1  2  4  1  5  1        1 -.229990311451D+00 0.100000000000D+01
-.734547774411D-03 0.000000000000D+00 -.183664606775D-03 0.263487408930D-02 0.000000000000D+00  5 1 -2 25 -24 21 2 0.23903811D+00 0.18485320D-02 0.15523209D+05 0.15523209D+05 0.15523209D+05 0.12461286D+01  1  2  5  1  5  1        1 -.563171395597D+00 0.100000000000D+01
0.756908992286D-03 0.000000000000D+00 0.181222255854D-03 0.263487408930D-02 0.000000000000D+00  5 1 -2 25 -24 21 2 0.20288300D+00 0.18485320D-02 0.15523209D+05 0.15523209D+05 0.15523209D+05 0.12461286D+01  1  2  6  1  5  1        1 0.825753715147D+00 0.100000000000D+01
0.547608688367D-05 0.000000000000D+00 0.000000000000D+00 0.263487408930D-02 0.000000000000D+00  5 21 -2 25 -24 -1 2 0.23487427D+00 0.18485320D-02 0.18951554D+05 0.18951554D+05 0.18951554D+05 0.12364089D+01  1  2 12  3  5  1        1 0.468314104902D-02 0.100000000000D+01
-.165048787742D-04 0.000000000000D+00 -.450061152553D-05 0.263487408930D-02 0.000000000000D+00  5 21 -2 25 -24 -1 2 0.23903811D+00 0.18485320D-02 0.15523209D+05 0.15523209D+05 0.15523209D+05 0.12461286D+01  1  2  5  3  5  1        1 -.136603839476D-01 0.100000000000D+01
  </mgrwgt>
  </event>
  <event>
  4     66 0.47139866E-03 0.10606859E+03 0.75467711E-02 0.11980555E+00
        3 -1    0    0  501    0 0.00000000E+00 0.00000000E+00 0.70001879E+02 0.70003665E+02 0.50000000E+00 0.0000E+00 0.9000E+01
       -4 -1    0    0    0  501 0.00000000E+00 0.00000000E+00 -.64626945E+03 0.64627131E+03 0.15500000E+01 0.0000E+00 0.9000E+01
       25  1    1    2    0    0 -.92000087E+01 -.24201050E+02 0.61119880E+01 0.12779940E+03 0.12500000E+03 0.0000E+00 0.9000E+01
      -24  1    1    2    0    0 0.92000087E+01 0.24201050E+02 -.58237956E+03 0.58847557E+03 0.80419002E+02 0.0000E+00 0.9000E+01
#aMCatNLO 1  0  0  2  2 0.76380863D+02 0.00000000D+00  -5  5  0 0.00000000D+00 0.00000000D+00 0.00000000D+00 0.00000000D+00 0.00000000D+00
  <mgrwgt>
 0.2223245054D-01    3    2    0
 0.212700214465572D+03 0.000000000000000D+00 0.000000000000000D+00 0.212700214465572D+03
 0.212700214465572D+03 0.000000000000000D+00 0.000000000000000D+00 -.212700214465572D+03
 0.223463936623351D+03 -.920000871888115D+01 -.242010502879649D+02 0.183414285091802D+03
 0.201936492307793D+03 0.920000871888115D+01 0.242010502879649D+02 -.183414285091802D+03
 0.000000000000000D+00 -.000000000000000D+00 -.000000000000000D+00 0.000000000000000D+00
 0.554806565263609D+03 0.000000000000000D+00 0.000000000000000D+00 0.554806565263609D+03
 0.220407707959670D+03 0.000000000000000D+00 0.000000000000000D+00 -.220407707959670D+03
 0.222598469887986D+03 -.674879529393696D+01 0.154509735232473D+02 0.183414285091802D+03
 0.209604678147135D+03 0.114615201738052D+02 0.607843625150585D+02 -.183414285091802D+03
 0.343011125188159D+03 -.471272487986822D+01 -.762353360383058D+02 0.334398857303939D+03
0.192102288860D-02 0.000000000000D+00 0.000000000000D+00 0.613430027036D-03 0.000000000000D+00  5 3 -4 25 -24 21 0 0.10769800D-01 0.99426350D-01 0.11250545D+05 0.11250545D+05 0.11250545D+05 0.12623199D+01  1  2  2  2  5  2       -4 0.207303684116D-01 0.100000000000D+01
-.439020875716D-04 0.000000000000D+00 -.737723370917D-05 0.613430027036D-03 0.000000000000D+00  5 3 -4 25 -24 21 2 0.10769800D-01 0.99426350D-01 0.11250545D+05 0.11250545D+05 0.11250545D+05 0.12623199D+01  1  2  3  2  5  2       -4 -.754915771659D-03 0.100000000000D+01
0.131255596118D-03 0.000000000000D+00 0.000000000000D+00 0.613430027036D-03 0.000000000000D+00  5 3 -4 25 -24 21 2 0.10769800D-01 0.99426350D-01 0.11250545D+05 0.11250545D+05 0.11250545D+05 0.12623199D+01  1  2 15  2  5  2       -4 0.225699790394D-02 0.100000000000D+01
  </mgrwgt>
  </event>
  <event>
  4     66 0.47139866E-03 0.10476272E+03 0.75467711E-02 0.12451252E+00
        1 -1    0    0  501    0 0.00000000E+00 0.00000000E+00 0.11030327E+04 0.11030328E+04 0.32000000E+00 0.0000E+00 0.9000E+01
       -2 -1    0    0    0  501 0.00000000E+00 0.00000000E+00 -.10915942E+02 0.10920631E+02 0.32000000E+00 0.0000E+00 0.9000E+01
       25  1    1    2    0    0 0.67982021E+01 -.18986433E+02 0.48731968E+03 0.50349992E+03 0.12500000E+03 0.0000E+00 0.9000E+01
      -24  1    1    2    0    0 -.67982021E+01 0.18986433E+02 0.60479708E+03 0.61045346E+03 0.80419002E+02 0.0000E+00 0.9000E+01
#aMCatNLO 1  0  0  2  2 0.26465482D+02 0.00000000D+00  -5  5  0 0.00000000D+00 0.00000000D+00 0.00000000D+00 0.00000000D+00 0.00000000D+00
  <mgrwgt>
 0.2130228278D+00    4    2    0
 0.109741871203926D+03 0.000000000000000D+00 0.000000000000000D+00 0.109741871203926D+03
 0.109741871203926D+03 0.000000000000000D+00 0.000000000000000D+00 -.109741871203926D+03
 0.130603972298895D+03 0.679820211077391D+01 -.189864325482195D+02 -.320265110089036D+02
 0.888797701089566D+02 -.679820211077391D+01 0.189864325482195D+02 0.320265110089036D+02
 0.000000000000000D+00 -.000000000000000D+00 0.000000000000000D+00 0.000000000000000D+00
 0.138044023969709D+03 0.000000000000000D+00 0.000000000000000D+00 0.138044023969709D+03
 0.116902595969056D+03 0.000000000000000D+00 0.000000000000000D+00 -.116902595969056D+03
 0.133868006109995D+03 0.738241378905965D+01 -.348632416609434D+02 -.320265110089036D+02
 0.872055900975663D+02 -.640923415875611D+01 0.841565802472003D+01 0.320265110089036D+02
 0.338730237312038D+02 -.973179630303535D+00 0.264475836362234D+02 0.211414280006537D+02
0.248577796625D-03 0.000000000000D+00 0.000000000000D+00 0.280321706325D-02 0.000000000000D+00  5 1 -2 25 -24 21 0 0.16969770D+00 0.16797399D-02 0.10975227D+05 0.10975227D+05 0.10975227D+05 0.12635932D+01  1  2  2  2  5  2       -2 0.278117054824D+00 0.100000000000D+01
-.137736761912D-04 0.000000000000D+00 -.954604191078D-06 0.280321706325D-02 0.000000000000D+00  5 1 -2 25 -24 21 2 0.16969770D+00 0.16797399D-02 0.10975227D+05 0.10975227D+05 0.10975227D+05 0.12635932D+01  1  2  3  2  5  2       -2 -.246053589964D-01 0.100000000000D+01
0.170917297701D-04 0.000000000000D+00 0.000000000000D+00 0.280321706325D-02 0.000000000000D+00  5 1 -2 25 -24 21 2 0.16969770D+00 0.16797399D-02 0.10975227D+05 0.10975227D+05 0.10975227D+05 0.12635932D+01  1  2 15  2  5  2       -2 0.305327452907D-01 0.100000000000D+01
-.397567336546D-04 0.000000000000D+00 0.000000000000D+00 0.280321706325D-02 0.000000000000D+00  5 1 -2 25 -24 21 2 0.16969770D+00 0.16797399D-02 0.10975227D+05 0.10975227D+05 0.10975227D+05 0.12635932D+01  1  2  4  2  5  2       -2 -.710216132946D-01 0.100000000000D+01
  </mgrwgt>
  </event>
  <event>
  4     66 0.47139866E-03 0.12975072E+03 0.75467711E-02 0.11266326E+00
        1 -1    0    0  501    0 0.00000000E+00 0.00000000E+00 0.10158322E+04 0.10158322E+04 0.32000000E+00 0.0000E+00 0.9000E+01
       -2 -1    0    0    0  501 0.00000000E+00 0.00000000E+00 -.21574697E+02 0.21577070E+02 0.32000000E+00 0.0000E+00 0.9000E+01
       25  1    1    2    0    0 -.72864312E+02 -.28129650E+02 0.79705470E+03 0.81056874E+03 0.12500000E+03 0.0000E+00 0.9000E+01
      -24  1    1    2    0    0 0.72864312E+02 0.28129650E+02 0.19720276E+03 0.22684053E+03 0.80419002E+02 0.0000E+00 0.9000E+01
#aMCatNLO 1  0  0  2  2 0.15698489D+03 0.00000000D+00  -5  5  0 0.00000000D+00 0.00000000D+00 0.00000000D+00 0.00000000D+00 0.00000000D+00
  <mgrwgt>
 0.2511541406D+00    3    2    0
 0.148045694507640D+03 0.000000000000000D+00 0.000000000000000D+00 0.148045694507640D+03
 0.148045694507640D+03 0.000000000000000D+00 0.000000000000000D+00 -.148045694507640D+03
 0.163510149715348D+03 -.728643116198153D+02 -.281296497399161D+02 0.707819465514722D+02
 0.132581239299932D+03 0.728643116198153D+02 0.281296497399161D+02 -.707819465514722D+02
 0.000000000000000D+00 -.000000000000000D+00 -.000000000000000D+00 0.000000000000000D+00
 0.298823726159267D+03 0.000000000000000D+00 0.000000000000000D+00 0.298823726159267D+03
 0.214505597287908D+03 0.000000000000000D+00 0.000000000000000D+00 -.214505597287908D+03
 0.145268365489533D+03 0.362629424033118D+01 -.213228526343852D+02 0.707819465514722D+02
 0.189864990805835D+03 0.152740683464356D+03 0.352377416494745D+02 -.707819465514722D+02
 0.178195967151807D+03 -.156366977704688D+03 -.139148890150893D+02 0.843181288713599D+02
0.506330351126D-03 0.000000000000D+00 0.000000000000D+00 0.192007756219D-02 0.000000000000D+00  5 1 -2 25 -24 21 0 0.15628206D+00 0.33193705D-02 0.16835249D+05 0.16835249D+05 0.16835249D+05 0.12421480D+01  1  2  2  2  5  2       -2 0.245571978982D+00 0.100000000000D+01
-.275343891355D-04 0.000000000000D+00 -.194444186817D-05 0.192007756219D-02 0.000000000000D+00  5 1 -2 25 -24 21 2 0.15628206D+00 0.33193705D-02 0.16835249D+05 0.16835249D+05 0.16835249D+05 0.12421480D+01  1  2  3  2  5  2       -2 -.206047338868D-01 0.100000000000D+01
0.349939084075D-04 0.000000000000D+00 0.000000000000D+00 0.192007756219D-02 0.000000000000D+00  5 1 -2 25 -24 21 2 0.15628206D+00 0.33193705D-02 0.16835249D+05 0.16835249D+05 0.16835249D+05 0.12421480D+01  1  2 15  2  5  2       -2 0.261868954799D-01 0.100000000000D+01
  </mgrwgt>
  </event>
  <event>
  4     66 0.47139866E-03 0.64012085E+02 0.75467711E-02 0.12244832E+00
        1 -1    0    0  501    0 0.00000000E+00 0.00000000E+00 0.35152967E+03 0.35152981E+03 0.32000000E+00 0.0000E+00 0.9000E+01
       -2 -1    0    0    0  501 0.00000000E+00 0.00000000E+00 -.32949719E+02 0.32951273E+02 0.32000000E+00 0.0000E+00 0.9000E+01
       25  1    1    2    0    0 0.18881558E+02 0.24592419E+02 0.20026619E+03 0.23810260E+03 0.12500000E+03 0.0000E+00 0.9000E+01
      -24  1    1    2    0    0 -.18881558E+02 -.24592419E+02 0.11831375E+03 0.14637848E+03 0.80419002E+02 0.0000E+00 0.9000E+01
#aMCatNLO 1  0  0  1  2 0.44507267D+02 0.00000000D+00  -5  5  0 0.00000000D+00 0.00000000D+00 0.00000000D+00 0.00000000D+00 0.00000000D+00
  <mgrwgt>
 0.1908017965D+00    9    2    0
 0.107624952841274D+03 0.000000000000000D+00 0.000000000000000D+00 0.107624952841274D+03
 0.107624952841274D+03 0.000000000000000D+00 0.000000000000000D+00 -.107624952841274D+03
 0.128897398969857D+03 0.188815579275207D+02 0.245924192058403D+02 0.531405203479199D+01
 0.863525067126897D+02 -.188815579275207D+02 -.245924192058403D+02 -.531405203479199D+01
 0.000000000000000D+00 0.000000000000000D+00 0.000000000000000D+00 0.000000000000000D+00
 0.155786954570358D+03 0.000000000000000D+00 0.000000000000000D+00 0.155786954570358D+03
 0.120694202633333D+03 0.000000000000000D+00 0.000000000000000D+00 -.120694202633333D+03
 0.125990288438027D+03 -.494386507342358D+01 0.139954217444373D+02 0.531405203479199D+01
 0.938128478331726D+02 -.357223705451234D+02 -.320828234076724D+02 -.531405203479199D+01
 0.566780209324913D+02 0.406662356185469D+02 0.180874016632352D+02 0.350927519370246D+02
0.135844394765D-03 0.000000000000D+00 0.000000000000D+00 0.307348290482D-02 0.000000000000D+00  5 1 -2 25 -24 21 0 0.54081618D-01 0.50693183D-02 0.11553740D+05 0.11553740D+05 0.11553740D+05 0.12609576D+01  1  2  2  1  5  1        1 0.151841131451D+00 0.100000000000D+01
-.754689601392D-05 0.000000000000D+00 -.521678244549D-06 0.307348290482D-02 0.000000000000D+00  5 1 -2 25 -24 21 2 0.54081618D-01 0.50693183D-02 0.11553740D+05 0.11553740D+05 0.11553740D+05 0.12609576D+01  1  2  3  1  5  1        1 -.134127262267D-01 0.100000000000D+01
0.939604940339D-05 0.000000000000D+00 0.000000000000D+00 0.307348290482D-02 0.000000000000D+00  5 1 -2 25 -24 21 2 0.54081618D-01 0.50693183D-02 0.11553740D+05 0.11553740D+05 0.11553740D+05 0.12609576D+01  1  2 15  1  5  1        1 0.166991353834D-01 0.100000000000D+01
0.104989214621D-03 0.000000000000D+00 0.000000000000D+00 0.307348290482D-02 0.000000000000D+00  5 1 -2 25 -24 21 2 0.80403841D-01 0.50693183D-02 0.17430291D+05 0.17430291D+05 0.17430291D+05 0.12404560D+01  1  2 12  1  5  1        1 0.110827309478D+00 0.100000000000D+01
-.130834080300D-03 0.000000000000D+00 0.000000000000D+00 0.307348290482D-02 0.000000000000D+00  5 1 -2 25 -24 21 2 0.54081618D-01 0.50693183D-02 0.11553740D+05 0.11553740D+05 0.11553740D+05 0.12609576D+01  1  2  4  1  5  1        1 -.232524960851D+00 0.100000000000D+01
-.175364479119D-03 0.000000000000D+00 -.603583209617D-04 0.307348290482D-02 0.000000000000D+00  5 1 -2 25 -24 21 2 0.85387288D-01 0.50693183D-02 0.11553740D+05 0.11553740D+05 0.11553740D+05 0.12609576D+01  1  2  5  1  5  1        1 -.174441796901D+00 0.100000000000D+01
0.188697279303D-03 0.000000000000D+00 0.545678973536D-04 0.307348290482D-02 0.000000000000D+00  5 1 -2 25 -24 21 2 0.54081618D-01 0.50693183D-02 0.11553740D+05 0.11553740D+05 0.11553740D+05 0.12609576D+01  1  2  6  1  5  1        1 0.335362371808D+00 0.100000000000D+01
0.496597954500D-05 0.000000000000D+00 0.000000000000D+00 0.307348290482D-02 0.000000000000D+00  5 21 -2 25 -24 -1 2 0.80403841D-01 0.50693183D-02 0.17430291D+05 0.17430291D+05 0.17430291D+05 0.12404560D+01  1  2 12  3  5  1        1 0.154813647856D-01 0.100000000000D+01
-.676956160939D-05 0.000000000000D+00 -.317198815553D-05 0.307348290482D-02 0.000000000000D+00  5 21 -2 25 -24 -1 2 0.85387288D-01 0.50693183D-02 0.11553740D+05 0.11553740D+05 0.11553740D+05 0.12609576D+01  1  2  5  3  5  1        1 -.190300324120D-01 0.100000000000D+01
  </mgrwgt>
  </event>
  <event>
  4     66 0.47139866E-03 0.10635262E+03 0.75467711E-02 0.10843660E+00
        3 -1    0    0  501    0 0.00000000E+00 0.00000000E+00 0.48299311E+03 0.48299337E+03 0.50000000E+00 0.0000E+00 0.9000E+01
       -4 -1    0    0    0  501 0.00000000E+00 0.00000000E+00 -.27115844E+02 0.27160108E+02 0.15500000E+01 0.0000E+00 0.9000E+01
       25  1    1    2    0    0 -.15318999E+01 -.26941298E+02 0.36051594E+03 0.38252441E+03 0.12500000E+03 0.0000E+00 0.9000E+01
      -24  1    1    2    0    0 0.15318999E+01 0.26941298E+02 0.95361321E+02 0.12762906E+03 0.80419002E+02 0.0000E+00 0.9000E+01
#aMCatNLO 1  0  0  1  2 0.26412122D+03 0.00000000D+00  -5  5  0 0.00000000D+00 0.00000000D+00 0.00000000D+00 0.00000000D+00 0.00000000D+00
  <mgrwgt>
 0.3013827870D-01    3    2    0
 0.114490706960330D+03 0.000000000000000D+00 0.000000000000000D+00 0.114490706960330D+03
 0.114490706960330D+03 0.000000000000000D+00 0.000000000000000D+00 -.114490706960330D+03
 0.134487491609416D+03 -.153189992991575D+01 -.269412979906745D+02 0.416377850584687D+02
 0.944939223112437D+02 0.153189992991575D+01 0.269412979906745D+02 -.416377850584687D+02
 0.000000000000000D+00 0.000000000000000D+00 -.000000000000000D+00 -.000000000000000D+00
 0.262363702481737D+03 0.000000000000000D+00 0.000000000000000D+00 0.262363702481737D+03
 0.373904594988099D+03 0.000000000000000D+00 0.000000000000000D+00 -.373904594988099D+03
 0.191897175597993D+03 -.132137178104183D+03 0.447837807758036D+02 0.416377850584687D+02
 0.157663273472032D+03 -.993706975502217D+02 0.823544241152437D+02 -.416377850584687D+02
 0.286707848399811D+03 0.231507875654404D+03 -.127138204891047D+03 -.111540892506362D+03
0.282151944385D-03 0.000000000000D+00 0.000000000000D+00 0.257234966191D-02 0.000000000000D+00  5 3 -4 25 -24 21 0 0.74310057D-01 0.41750931D-02 0.11310879D+05 0.11310879D+05 0.11310879D+05 0.12620455D+01  1  2  2  1  5  1        3 0.295031983145D-01 0.100000000000D+01
-.155714932215D-04 0.000000000000D+00 -.108353775875D-05 0.257234966191D-02 0.000000000000D+00  5 3 -4 25 -24 21 2 0.74310057D-01 0.41750931D-02 0.11310879D+05 0.11310879D+05 0.11310879D+05 0.12620455D+01  1  2  3  1  5  1        3 -.259338120853D-02 0.100000000000D+01
0.193847196880D-04 0.000000000000D+00 0.000000000000D+00 0.257234966191D-02 0.000000000000D+00  5 3 -4 25 -24 21 2 0.74310057D-01 0.41750931D-02 0.11310879D+05 0.11310879D+05 0.11310879D+05 0.12620455D+01  1  2 15  1  5  1        3 0.322846159044D-02 0.100000000000D+01
  </mgrwgt>
  </event>
  <event>
  5     66 0.47139866E-03 0.11085748E+03 0.75467711E-02 0.12378695E+00
        1 -1    0    0  501    0 0.00000000E+00 0.00000000E+00 0.24412401E+04 0.24412401E+04 0.32000000E+00 0.0000E+00 0.9000E+01
       -2 -1    0    0    0  502 0.00000000E+00 0.00000000E+00 -.81793532E+01 0.81856105E+01 0.32000000E+00 0.0000E+00 0.9000E+01
       25  1    1    2    0    0 0.14591690E+02 -.24061317E+02 0.65764829E+03 0.67001353E+03 0.12500000E+03 0.0000E+00 0.9000E+01
      -24  1    1    2    0    0 -.21148539E+02 0.46273904E+02 0.15068733E+04 0.15098751E+04 0.80419002E+02 0.0000E+00 0.9000E+01
       21  1    1    2  501  502 0.65568483E+01 -.22212587E+02 0.26853910E+03 0.26953701E+03 0.75000000E+00 0.0000E+00 0.9000E+01
#aMCatNLO 2  0  0  2  2 0.23160122D+02 0.00000000D+00  -5  5  0 0.00000000D+00 0.00000000D+00 0.00000000D+00 0.00000000D+00 0.00000000D+00
  <mgrwgt>
 0.1031541895D+00    1    2    0
 0.128670575273085D+03 0.000000000000000D+00 0.000000000000000D+00 0.128670575273085D+03
 0.128670575273085D+03 0.000000000000000D+00 0.000000000000000D+00 -.128670575273085D+03
 0.146463656609268D+03 0.182774395409846D+02 -.365475029706457D+02 -.644733893772754D+02
 0.110877493936903D+03 -.182774395409846D+02 0.365475029706457D+02 0.644733893772754D+02
 0.000000000000000D+00 0.000000000000000D+00 -.000000000000000D+00 0.000000000000000D+00
 0.145185520536648D+03 0.000000000000000D+00 0.000000000000000D+00 0.145185520536648D+03
 0.137574396455222D+03 0.000000000000000D+00 0.000000000000000D+00 -.137574396455222D+03
 0.143435289742838D+03 0.145916901815765D+02 -.240613171597702D+02 -.644733893772754D+02
 0.114945938343487D+03 -.211485385268217D+02 0.462739037436858D+02 0.644733893772754D+02
 0.243786889055453D+02 0.655684834524520D+01 -.222125865839156D+02 0.761112408142614D+01
0.284186564989D-03 0.000000000000D+00 0.000000000000D+00 0.205481748307D-02 0.321849662713D-04  5 1 -2 25 -24 21 2 0.37556043D+00 0.12587932D-02 0.15184418D+05 0.15184418D+05 0.15184418D+05 0.12472180D+01  1  2  1  2  5  2       -2 0.103154189497D+00 0.100000000000D+01
  </mgrwgt>
  </event>
  <event>
  5     66 0.47139866E-03 0.10340684E+03 0.75467711E-02 0.11734752E+00
        1 -1    0    0  502    0 0.00000000E+00 0.00000000E+00 0.12405880E+03 0.12405921E+03 0.32000000E+00 0.0000E+00 0.9000E+01
       -2 -1    0    0    0  501 0.00000000E+00 0.00000000E+00 -.41921474E+03 0.41921486E+03 0.32000000E+00 0.0000E+00 0.9000E+01
       25  1    1    2    0    0 0.81300450E+02 0.81311285E+01 0.46198711E+01 0.14940623E+03 0.12500000E+03 0.0000E+00 0.9000E+01
      -24  1    1    2    0    0 0.30973184E+02 0.39402274E+01 -.15055037E+02 0.87571306E+02 0.80419002E+02 0.0000E+00 0.9000E+01
       21  1    1    2  502  501 -.11227363E+03 -.12071356E+02 -.28472078E+03 0.30629654E+03 0.75000000E+00 0.0000E+00 0.9000E+01
#aMCatNLO 2  0  0  1  2 0.11292071D+03 0.00000000D+00  -5  5  0 0.00000000D+00 0.00000000D+00 0.00000000D+00 0.00000000D+00 0.00000000D+00
  <mgrwgt>
 0.1814154325D-02    1    2    0
 0.104041306011408D+03 0.000000000000000D+00 0.000000000000000D+00 0.104041306011408D+03
 0.104041306011408D+03 0.000000000000000D+00 0.000000000000000D+00 -.104041306011408D+03
 0.126046470106102D+03 0.116891266556603D+02 0.646708260763155D+00 0.112097597058077D+02
 0.820361419167131D+02 -.116891266556603D+02 -.646708260763155D+00 -.112097597058077D+02
 0.000000000000000D+00 -.000000000000000D+00 -.000000000000000D+00 -.000000000000000D+00
 0.129647247830275D+03 0.000000000000000D+00 0.000000000000000D+00 0.129647247830275D+03
 0.401142856818899D+03 0.000000000000000D+00 0.000000000000000D+00 -.401142856818899D+03
 0.149754923806764D+03 0.813004504335158D+02 0.813112852040256D+01 0.112097597058077D+02
 0.869927479360326D+02 0.309731841195647D+02 0.394022739510928D+01 -.112097597058077D+02
 0.294042432906377D+03 -.112273634553080D+03 -.120713559155119D+02 -.271495608988624D+03
0.228120495857D-04 0.000000000000D+00 0.000000000000D+00 0.316532392641D-02 0.428798015511D-05  5 1 -2 25 -24 21 2 0.19085945D-01 0.64494396D-01 0.30367068D+05 0.30367068D+05 0.30367068D+05 0.12143445D+01  1  2  1  1  5  1        1 0.181415432513D-02 0.100000000000D+01
  </mgrwgt>
  </event>
  <event>
  5     66 0.47139866E-03 0.12178709E+03 0.75467711E-02 0.11780030E+00
       21 -1    0    0  501  502 0.00000000E+00 0.00000000E+00 0.43794991E+02 0.43801413E+02 0.75000000E+00 0.0000E+00 0.9000E+01
       -2 -1    0    0    0  501 0.00000000E+00 0.00000000E+00 -.69597320E+03 0.69597327E+03 0.32000000E+00 0.0000E+00 0.9000E+01
       25  1    1    2    0    0 -.80960190E+02 0.52426505E+01 -.33655715E+03 0.36807303E+03 0.12500000E+03 0.0000E+00 0.9000E+01
      -24  1    1    2    0    0 0.34987162E+02 0.63294051E+02 -.22169203E+03 0.24666741E+03 0.80419002E+02 0.0000E+00 0.9000E+01
       -1  1    1    2    0  502 0.45973028E+02 -.68536701E+02 -.93929022E+02 0.12503424E+03 0.32000000E+00 0.0000E+00 0.9000E+01
#aMCatNLO 2  0  0  1  2 0.82527563D+02 0.00000000D+00  -5  5  0 0.00000000D+00 0.00000000D+00 0.00000000D+00 0.00000000D+00 0.00000000D+00
  <mgrwgt>
 0.4457165663D-01    2    2    0
 0.121914782775757D+03 0.000000000000000D+00 0.000000000000000D+00 0.121914782775757D+03
 0.121914782775757D+03 0.000000000000000D+00 0.000000000000000D+00 -.121914782775757D+03
 0.140693850902535D+03 -.543790363196628D+02 -.343845974154201D+02 -.551176480894442D+01
 0.103135714648978D+03 0.543790363196628D+02 0.343845974154201D+02 0.551176480894442D+01
 0.000000000000000D+00 0.000000000000000D+00 -.000000000000000D+00 0.000000000000000D+00
 0.199577881834513D+03 0.000000000000000D+00 0.000000000000000D+00 0.199577881834513D+03
 0.152734572952157D+03 0.000000000000000D+00 0.000000000000000D+00 -.152734572952157D+03
 0.149122155686765D+03 -.809601901000946D+02 0.524265050477869D+01 -.551176480894442D+01
 0.108295123752917D+03 0.349871618140885D+02 0.632940505195769D+02 0.551176480894442D+01
 0.948951753469883D+02 0.459730282860060D+02 -.685367010243556D+02 0.468433088823563D+02
-.485720981231D-05 0.000000000000D+00 0.000000000000D+00 0.274311290286D-02 0.000000000000D+00  5 21 -2 25 -24 -1 2 0.69888539D-02 0.85467202D-01 0.28849463D+05 0.28849463D+05 0.28849463D+05 0.12166849D+01  1  2 13  3  5  1        1 -.109639664101D-01 0.100000000000D+01
0.386944024653D-04 0.000000000000D+00 0.000000000000D+00 0.274311290286D-02 0.294787937847D-06  5 21 -2 25 -24 -1 2 0.67381795D-02 0.10707312D+00 0.28849463D+05 0.28849463D+05 0.28849463D+05 0.12166849D+01  1  2  1  3  5  1        1 0.555356230384D-01 0.100000000000D+01
  </mgrwgt>
  </event>
  <event>
  5     66 0.47139866E-03 0.17581634E+03 0.75467711E-02 0.11329750E+00
        1 -1    0    0  501    0 0.00000000E+00 0.00000000E+00 0.46905939E+03 0.46905950E+03 0.32000000E+00 0.0000E+00 0.9000E+01
       -2 -1    0    0    0  502 0.00000000E+00 0.00000000E+00 -.15101459E+03 0.15101493E+03 0.32000000E+00 0.0000E+00 0.9000E+01
       25  1    1    2    0    0 0.84540620E+02 -.69152116E+02 0.45156682E+02 0.17202691E+03 0.12500000E+03 0.0000E+00 0.9000E+01
      -24  1    1    2    0    0 -.16585950E+03 0.63408585E+02 0.30371596E+03 0.36088865E+03 0.80419002E+02 0.0000E+00 0.9000E+01
       21  1    1    2  501  502 0.81318882E+02 0.57435307E+01 -.30827842E+02 0.87158861E+02 0.75000000E+00 0.0000E+00 0.9000E+01
#aMCatNLO 2  0  0  2  1 0.81521462D+02 0.00000000D+00  -5  5  0 0.00000000D+00 0.00000000D+00 0.00000000D+00 0.00000000D+00 0.00000000D+00
  <mgrwgt>
 0.2904087259D-01    2    2    0
 0.197256895566101D+03 0.000000000000000D+00 0.000000000000000D+00 0.197256895566101D+03
 0.197256895566101D+03 0.000000000000000D+00 0.000000000000000D+00 -.197256895566101D+03
 0.208863313708478D+03 0.125061854480500D+03 -.662901116290076D+02 -.892414559910255D+02
 0.185650477423724D+03 -.125061854480500D+03 0.662901116290076D+02 0.892414559910255D+02
 0.000000000000000D+00 0.000000000000000D+00 0.000000000000000D+00 -.000000000000000D+00
 0.214290810487739D+03 0.000000000000000D+00 0.000000000000000D+00 0.214290810487739D+03
 0.330552325679976D+03 0.000000000000000D+00 0.000000000000000D+00 -.330552325679976D+03
 0.188462646006858D+03 0.845406197851849D+02 -.691521155052038D+02 -.892414559910255D+02
 0.214385811987346D+03 -.165859501786211D+03 0.634085848046997D+02 0.892414559910255D+02
 0.141994678173511D+03 0.813188820010257D+02 0.574353070050407D+01 -.116261515192237D+03
-.828592861955D-03 0.000000000000D+00 0.000000000000D+00 0.174947825998D-02 0.000000000000D+00  5 1 -2 25 -24 21 2 0.66426507D-01 0.23486304D-01 0.48939314D+05 0.48939314D+05 0.48939314D+05 0.11932051D+01  1  2 13  2  5  2       -2 -.904125630323D-01 0.100000000000D+01
0.119648155829D-02 0.000000000000D+00 0.000000000000D+00 0.174947825998D-02 0.214475894018D-05  5 1 -2 25 -24 21 2 0.72162699D-01 0.23232946D-01 0.48939314D+05 0.48939314D+05 0.48939314D+05 0.11932051D+01  1  2  1  2  5  2       -2 0.119453435620D+00 0.100000000000D+01
  </mgrwgt>
  </event>
  <event>
  4     66 0.47139866E-03 0.51957841E+02 0.75467711E-02 0.12393468E+00
        1 -1    0    0  501    0 0.00000000E+00 0.00000000E+00 0.22594414E+04 0.22594414E+04 0.32000000E+00 0.0000E+00 0.9000E+01
       -2 -1    0    0    0  501 0.00000000E+00 0.00000000E+00 -.12511077E+02 0.12515169E+02 0.32000000E+00 0.0000E+00 0.9000E+01
       25  1    1    2    0    0 0.39448326E+02 -.22997914E+02 0.37804061E+03 0.40078021E+03 0.12500000E+03 0.0000E+00 0.9000E+01
      -24  1    1    2    0    0 -.39448326E+02 0.22997914E+02 0.18688897E+04 0.18711763E+04 0.80419002E+02 0.0000E+00 0.9000E+01
#aMCatNLO 1  0  0  1  2 0.18971829D+02 0.00000000D+00  -5  5  0 0.00000000D+00 0.00000000D+00 0.00000000D+00 0.00000000D+00 0.00000000D+00
  <mgrwgt>
 0.4628637316D+00    9    2    0
 0.168144935425320D+03 0.000000000000000D+00 0.000000000000000D+00 0.168144935425320D+03
 0.168144935425320D+03 0.000000000000000D+00 0.000000000000000D+00 -.168144935425320D+03
 0.181760843663152D+03 0.394483260141958D+02 -.229979137927743D+02 -.123801978275788D+03
 0.154529027187488D+03 -.394483260141958D+02 0.229979137927743D+02 0.123801978275788D+03
 0.000000000000000D+00 -.000000000000000D+00 -.000000000000000D+00 0.000000000000000D+00
 0.178798271844971D+03 0.000000000000000D+00 0.000000000000000D+00 0.178798271844971D+03
 0.177076152053035D+03 0.000000000000000D+00 0.000000000000000D+00 -.177076152053035D+03
 0.184253520342548D+03 0.497630760973094D+02 -.228268743142048D+02 -.123801978275788D+03
 0.152571074270084D+03 -.307938547460017D+02 0.231414224809227D+02 0.123801978275788D+03
 0.190498292853734D+02 -.189692213513077D+02 -.314548166717868D+00 0.172211979193576D+01
0.879807469694D-03 0.000000000000D+00 0.000000000000D+00 0.113353791709D-02 0.000000000000D+00  5 1 -2 25 -24 21 0 0.34760668D+00 0.19250976D-02 0.12719080D+05 0.12719080D+05 0.12719080D+05 0.12560727D+01  1  2  2  1  5  1        1 0.145835347384D+00 0.100000000000D+01
-.393982356625D-04 0.000000000000D+00 -.337869234225D-05 0.113353791709D-02 0.000000000000D+00  5 1 -2 25 -24 21 2 0.34760668D+00 0.19250976D-02 0.12719080D+05 0.12719080D+05 0.12719080D+05 0.12560727D+01  1  2  3  1  5  1        1 -.103034221440D-01 0.100000000000D+01
0.602458309854D-04 0.000000000000D+00 0.000000000000D+00 0.113353791709D-02 0.000000000000D+00  5 1 -2 25 -24 21 2 0.34760668D+00 0.19250976D-02 0.12719080D+05 0.12719080D+05 0.12719080D+05 0.12560727D+01  1  2 15  1  5  1        1 0.157554829199D-01 0.100000000000D+01
0.150978321979D-02 0.000000000000D+00 0.000000000000D+00 0.113353791709D-02 0.000000000000D+00  5 1 -2 25 -24 21 2 0.37833256D+00 0.19250976D-02 0.14957810D+05 0.14957810D+05 0.14957810D+05 0.12479620D+01  1  2 12  1  5  1        1 0.289797415535D+00 0.100000000000D+01
-.125438038700D-02 0.000000000000D+00 0.000000000000D+00 0.113353791709D-02 0.000000000000D+00  5 1 -2 25 -24 21 2 0.34760668D+00 0.19250976D-02 0.12719080D+05 0.12719080D+05 0.12719080D+05 0.12560727D+01  1  2  4  1  5  1        1 -.328045417239D+00 0.100000000000D+01
-.503106736010D-02 0.000000000000D+00 -.110781975468D-02 0.113353791709D-02 0.000000000000D+00  5 1 -2 25 -24 21 2 0.37822609D+00 0.19250976D-02 0.12719080D+05 0.12719080D+05 0.12719080D+05 0.12560727D+01  1  2  5  1  5  1        1 -.980473670725D+00 0.100000000000D+01
0.511030508459D-02 0.000000000000D+00 0.110388382309D-02 0.113353791709D-02 0.000000000000D+00  5 1 -2 25 -24 21 2 0.34760668D+00 0.19250976D-02 0.12719080D+05 0.12719080D+05 0.12719080D+05 0.12560727D+01  1  2  6  1  5  1        1 0.133644640897D+01 0.100000000000D+01
0.212121592648D-04 0.000000000000D+00 0.000000000000D+00 0.113353791709D-02 0.000000000000D+00  5 21 -2 25 -24 -1 2 0.37833256D+00 0.19250976D-02 0.14957810D+05 0.14957810D+05 0.14957810D+05 0.12479620D+01  1  2 12  3  5  1        1 0.268009019415D-02 0.100000000000D+01
-.678203092499D-04 0.000000000000D+00 -.155189894866D-04 0.113353791709D-02 0.000000000000D+00  5 21 -2 25 -24 -1 2 0.37822609D+00 0.19250976D-02 0.12719080D+05 0.12719080D+05 0.12719080D+05 0.12560727D+01  1  2  5  3  5  1        1 -.882850332976D-02 0.100000000000D+01
  </mgrwgt>
  </event>
  <event>
  5     66 -.47139866E-03 0.25767030E+03 0.75467711E-02 0.10946715E+00
        1 -1    0    0  502    0 0.00000000E+00 0.00000000E+00 0.19303787E+03 0.19303814E+03 0.32000000E+00 0.0000E+00 0.9000E+01
       -2 -1    0    0    0  501 0.00000000E+00 0.00000000E+00 -.41851120E+03 0.41851132E+03 0.32000000E+00 0.0000E+00 0.9000E+01
       25  1    1    2    0    0 0.22934724E+03 -.12280917E+03 -.77441143E+02 0.29883838E+03 0.12500000E+03 0.0000E+00 0.9000E+01
      -24  1    1    2    0    0 -.19115591E+03 0.96501242E+02 -.12874072E+03 0.26247754E+03 0.80419002E+02 0.0000E+00 0.9000E+01
       21  1    1    2  502  501 -.38191332E+02 0.26307929E+02 -.19291463E+02 0.50233534E+02 0.75000000E+00 0.0000E+00 0.9000E+01
#aMCatNLO 2  0  0  1  2 0.46375478D+02 0.00000000D+00  -5  5  0 0.00000000D+00 0.00000000D+00 0.00000000D+00 0.00000000D+00 0.00000000D+00
  <mgrwgt>
 -.7445511844D-01    2    2    0
 0.260006691683390D+03 0.000000000000000D+00 0.000000000000000D+00 0.260006691683390D+03
 0.260006691683390D+03 0.000000000000000D+00 0.000000000000000D+00 -.260006691683390D+03
 0.268812026640673D+03 0.208841256450842D+03 -.108683716571566D+03 0.347575175018457D+02
 0.251201356726106D+03 -.208841256450842D+03 0.108683716571566D+03 -.347575175018457D+02
 0.000000000000000D+00 -.000000000000000D+00 0.000000000000000D+00 -.000000000000000D+00
 0.283779309318252D+03 0.000000000000000D+00 0.000000000000000D+00 0.283779309318252D+03
 0.284682157326035D+03 0.000000000000000D+00 0.000000000000000D+00 -.284682157326035D+03
 0.290715209568409D+03 0.229347238190094D+03 -.122809170610704D+03 0.347575175018457D+02
 0.231361991468009D+03 -.191155906094807D+03 0.965012418772669D+02 -.347575175018457D+02
 0.463842656078683D+02 -.381913320952870D+02 0.263079287334373D+02 -.902848007782728D+00
-.480984433449D-02 0.000000000000D+00 0.000000000000D+00 0.201310969300D-02 0.000000000000D+00  5 1 -2 25 -24 21 2 0.30874147D-01 0.58804907D-01 0.79451179D+05 0.79451179D+05 0.79451179D+05 0.11728618D+01  1  2 13  1  5  1        1 -.235069732201D+00 0.100000000000D+01
0.378140143039D-02 0.000000000000D+00 0.000000000000D+00 0.201310969300D-02 0.687879491112D-05  5 1 -2 25 -24 21 2 0.29697847D-01 0.64385681D-01 0.79451179D+05 0.79451179D+05 0.79451179D+05 0.11728618D+01  1  2  1  1  5  1        1 0.160614613764D+00 0.100000000000D+01
  </mgrwgt>
  </event>
  <event>
  4     66 0.47139866E-03 0.11073597E+03 0.75467711E-02 0.99214894E-01
        1 -1    0    0  501    0 0.00000000E+00 0.00000000E+00 0.24005929E+03 0.24005950E+03 0.32000000E+00 0.0000E+00 0.9000E+01
       -2 -1    0    0    0  501 0.00000000E+00 0.00000000E+00 -.51441427E+02 0.51442423E+02 0.32000000E+00 0.0000E+00 0.9000E+01
       25  1    1    2    0    0 0.32511060E+02 -.24224512E+02 0.12379321E+03 0.18053685E+03 0.12500000E+03 0.0000E+00 0.9000E+01
      -24  1    1    2    0    0 -.32511060E+02 0.24224512E+02 0.64824653E+02 0.11096507E+03 0.80419002E+02 0.0000E+00 0.9000E+01
#aMCatNLO 1  0  0  2  2 0.57160545D+03 0.00000000D+00  -5  5  0 0.00000000D+00 0.00000000D+00 0.00000000D+00 0.00000000D+00 0.00000000D+00
  <mgrwgt>
 0.2602422764D+00    3    2    0
 0.111126813142556D+03 0.000000000000000D+00 0.000000000000000D+00 0.111126813142556D+03
 0.111126813142556D+03 0.000000000000000D+00 0.000000000000000D+00 -.111126813142556D+03
 0.131728915791449D+03 0.325110602039270D+02 -.242245122341424D+02 0.914938396971515D+01
 0.905247104936619D+02 -.325110602039270D+02 0.242245122341424D+02 -.914938396971515D+01
 0.000000000000000D+00 0.000000000000000D+00 -.000000000000000D+00 0.000000000000000D+00
 0.102945163023302D+04 0.000000000000000D+00 0.000000000000000D+00 0.102945163023302D+04
 0.419655648884002D+03 0.000000000000000D+00 0.000000000000000D+00 -.419655648884002D+03
 0.261943250620328D+03 -.214321776968138D+03 0.834968935693919D+02 0.914938396971515D+01
 0.351350695084112D+03 -.309567375943642D+03 0.145135879458047D+03 -.914938396971515D+01
 0.835813333412581D+03 0.523889152911780D+03 -.228632773027439D+03 0.609795981349018D+03
0.279034839373D-03 0.000000000000D+00 0.000000000000D+00 0.296446465352D-02 0.000000000000D+00  5 1 -2 25 -24 21 0 0.36932291D-01 0.79141587D-02 0.12262456D+05 0.12262456D+05 0.12262456D+05 0.12579244D+01  1  2  2  2  5  2       -2 0.254734584424D+00 0.100000000000D+01
-.155017015533D-04 0.000000000000D+00 -.107156725475D-05 0.296446465352D-02 0.000000000000D+00  5 1 -2 25 -24 21 2 0.36932291D-01 0.79141587D-02 0.12262456D+05 0.12262456D+05 0.12262456D+05 0.12579244D+01  1  2  3  2  5  2       -2 -.223932904912D-01 0.100000000000D+01
0.193143880752D-04 0.000000000000D+00 0.000000000000D+00 0.296446465352D-02 0.000000000000D+00  5 1 -2 25 -24 21 2 0.36932291D-01 0.79141587D-02 0.12262456D+05 0.12262456D+05 0.12262456D+05 0.12579244D+01  1  2 15  2  5  2       -2 0.279009824399D-01 0.100000000000D+01
  </mgrwgt>
  </event>
  <event>
  4     66 0.47139866E-03 0.12887926E+03 0.75467711E-02 0.12068685E+00
        1 -1    0    0  501    0 0.00000000E+00 0.00000000E+00 0.50505187E+03 0.50505197E+03 0.32000000E+00 0.0000E+00 0.9000E+01
       -2 -1    0    0    0  501 0.00000000E+00 0.00000000E+00 -.44552171E+02 0.44553320E+02 0.32000000E+00 0.0000E+00 0.9000E+01
       25  1    1    2    0    0 -.22305038E+02 -.73360823E+02 0.39330292E+03 0.41975172E+03 0.12500000E+03 0.0000E+00 0.9000E+01
      -24  1    1    2    0    0 0.22305038E+02 0.73360823E+02 0.67196779E+02 0.12985356E+03 0.80419002E+02 0.0000E+00 0.9000E+01
#aMCatNLO 1  0  0  2  2 0.29948056D+02 0.00000000D+00  -5  5  0 0.00000000D+00 0.00000000D+00 0.00000000D+00 0.00000000D+00 0.00000000D+00
  <mgrwgt>
 0.2816524017D+00    4    2    0
 0.150005001651876D+03 0.000000000000000D+00 0.000000000000000D+00 0.150005001651876D+03
 0.150005001651876D+03 0.000000000000000D+00 0.000000000000000D+00 -.150005001651876D+03
 0.165267466144364D+03 -.223050381543108D+02 -.733608227746528D+02 0.762168637542852D+02
 0.134742537159388D+03 0.223050381543108D+02 0.733608227746528D+02 -.762168637542852D+02
 0.000000000000000D+00 -.000000000000000D+00 -.000000000000000D+00 0.000000000000000D+00
 0.265310364232802D+03 0.000000000000000D+00 0.000000000000000D+00 0.265310364232802D+03
 0.152707772896347D+03 0.000000000000000D+00 0.000000000000000D+00 -.152707772896347D+03
 0.160500943006235D+03 -.825566464091125D+01 -.652563130025604D+02 0.762168637542852D+02
 0.141000115305117D+03 0.341969571041880D+02 0.802207851243114D+02 -.762168637542852D+02
 0.116517078817796D+03 -.259412924632767D+02 -.149644721217510D+02 0.112602591336455D+03
0.628198325132D-03 0.000000000000D+00 0.000000000000D+00 0.184089929247D-02 0.000000000000D+00  5 1 -2 25 -24 21 0 0.77700383D-01 0.68542763D-02 0.16609864D+05 0.16609864D+05 0.16609864D+05 0.12428065D+01  1  2  2  2  5  2       -2 0.285101388707D+00 0.100000000000D+01
-.339222034027D-04 0.000000000000D+00 -.241244697692D-05 0.184089929247D-02 0.000000000000D+00  5 1 -2 25 -24 21 2 0.77700383D-01 0.68542763D-02 0.16609864D+05 0.16609864D+05 0.16609864D+05 0.12428065D+01  1  2  3  2  5  2       -2 -.237790043889D-01 0.100000000000D+01
0.433346147790D-04 0.000000000000D+00 0.000000000000D+00 0.184089929247D-02 0.000000000000D+00  5 1 -2 25 -24 21 2 0.77700383D-01 0.68542763D-02 0.16609864D+05 0.16609864D+05 0.16609864D+05 0.12428065D+01  1  2 15  2  5  2       -2 0.303769770727D-01 0.100000000000D+01
-.143326022012D-04 0.000000000000D+00 0.000000000000D+00 0.184089929247D-02 0.000000000000D+00  5 1 -2 25 -24 21 2 0.77700383D-01 0.68542763D-02 0.16609864D+05 0.16609864D+05 0.16609864D+05 0.12428065D+01  1  2  4  2  5  2       -2 -.100469597036D-01 0.100000000000D+01
  </mgrwgt>
  </event>
  <event>
  4     66 0.47139866E-03 0.56936033E+02 0.75467711E-02 0.11763572E+00
        1 -1    0    0  501    0 0.00000000E+00 0.00000000E+00 0.19775131E+04 0.19775131E+04 0.32000000E+00 0.0000E+00 0.9000E+01
       -2 -1    0    0    0  501 0.00000000E+00 0.00000000E+00 -.66497822E+01 0.66574772E+01 0.32000000E+00 0.0000E+00 0.9000E+01
       25  1    1    2    0    0 0.37862180E+02 0.28683004E+02 0.12946531E+04 0.13015406E+04 0.12500000E+03 0.0000E+00 0.9000E+01
      -24  1    1    2    0    0 -.37862180E+02 -.28683004E+02 0.67621024E+03 0.68263003E+03 0.80419002E+02 0.0000E+00 0.9000E+01
#aMCatNLO 1  0  0  2  1 0.96170104D+02 0.00000000D+00  -5  5  0 0.00000000D+00 0.00000000D+00 0.00000000D+00 0.00000000D+00 0.00000000D+00
  <mgrwgt>
 0.1783841800D+00    7    2    0
 0.114706979079591D+03 0.000000000000000D+00 0.000000000000000D+00 0.114706979079591D+03
 0.114706979079591D+03 0.000000000000000D+00 0.000000000000000D+00 -.114706979079591D+03
 0.134666061166644D+03 0.378621801418174D+02 0.286830042944769D+02 0.159276052716606D+02
 0.947478969925390D+02 -.378621801418174D+02 -.286830042944769D+02 -.159276052716606D+02
 0.000000000000000D+00 0.000000000000000D+00 0.000000000000000D+00 -.000000000000000D+00
 0.153390094721333D+03 0.000000000000000D+00 0.000000000000000D+00 0.153390094721333D+03
 0.204074483471448D+03 0.000000000000000D+00 0.000000000000000D+00 -.204074483471448D+03
 0.129311500098500D+03 0.197914563951669D+02 -.212384957516491D+02 0.159276052716606D+02
 0.119444310193174D+03 -.525248211109512D+02 -.691894633649179D+02 -.159276052716606D+02
 0.108708767901107D+03 0.327333647157843D+02 0.904279591165670D+02 -.506843887501141D+02
0.292295902581D-03 0.000000000000D+00 0.000000000000D+00 0.284625864571D-02 0.000000000000D+00  5 1 -2 25 -24 21 0 0.30423338D+00 0.10236373D-02 0.12895916D+05 0.12895916D+05 0.12895916D+05 0.12553756D+01  1  2  2  2  5  2       -2 0.180829856212D+00 0.100000000000D+01
-.162366679129D-04 0.000000000000D+00 -.112249322919D-05 0.284625864571D-02 0.000000000000D+00  5 1 -2 25 -24 21 2 0.30423338D+00 0.10236373D-02 0.12895916D+05 0.12895916D+05 0.12895916D+05 0.12553756D+01  1  2  3  2  5  2       -2 -.158303931101D-01 0.100000000000D+01
0.202366007606D-04 0.000000000000D+00 0.000000000000D+00 0.284625864571D-02 0.000000000000D+00  5 1 -2 25 -24 21 2 0.30423338D+00 0.10236373D-02 0.12895916D+05 0.12895916D+05 0.12895916D+05 0.12553756D+01  1  2 15  2  5  2       -2 0.197302394167D-01 0.100000000000D+01
0.430312144478D-05 0.000000000000D+00 0.000000000000D+00 0.284625864571D-02 0.000000000000D+00  5 1 -2 25 -24 21 2 0.30423338D+00 0.18847735D-02 0.29390736D+05 0.29390736D+05 0.29390736D+05 0.12158347D+01  1  2 12  2  5  2       -2 0.164503972260D-02 0.100000000000D+01
-.467756337083D-04 0.000000000000D+00 -.843238756953D-04 0.284625864571D-02 0.000000000000D+00  5 1 -2 25 -24 21 2 0.30423338D+00 0.26138133D-02 0.12895916D+05 0.12895916D+05 0.12895916D+05 0.12553756D+01  1  2  5  2  5  2       -2 -.118370899967D-01 0.100000000000D+01
0.286784129742D-06 0.000000000000D+00 0.000000000000D+00 0.284625864571D-02 0.000000000000D+00  5 1 21 25 -24 2 2 0.30423338D+00 0.18847735D-02 0.29390736D+05 0.29390736D+05 0.29390736D+05 0.12158347D+01  1  2 12  4  5  2       -2 0.230379080820D-02 0.100000000000D+01
0.302469071632D-06 0.000000000000D+00 -.873155708931D-05 0.284625864571D-02 0.000000000000D+00  5 1 21 25 -24 2 2 0.30423338D+00 0.26138133D-02 0.12895916D+05 0.12895916D+05 0.12895916D+05 0.12553756D+01  1  2  5  4  5  2       -2 0.154273698607D-02 0.100000000000D+01
  </mgrwgt>
  </event>
  <event>
  4     66 0.47139866E-03 0.14865804E+03 0.75467711E-02 0.11857922E+00
        1 -1    0    0  501    0 0.00000000E+00 0.00000000E+00 0.52302933E+03 0.52302943E+03 0.32000000E+00 0.0000E+00 0.9000E+01
       -2 -1    0    0    0  501 0.00000000E+00 0.00000000E+00 -.44843067E+02 0.44844208E+02 0.32000000E+00 0.0000E+00 0.9000E+01
       25  1    1    2    0    0 -.95215020E+02 0.47163413E+02 0.33034104E+03 0.36883667E+03 0.12500000E+03 0.0000E+00 0.9000E+01
      -24  1    1    2    0    0 0.95215020E+02 -.47163413E+02 0.14784523E+03 0.19903697E+03 0.80419002E+02 0.0000E+00 0.9000E+01
#aMCatNLO 1  0  0  2  1 0.26710009D+02 0.00000000D+00  -5  5  0 0.00000000D+00 0.00000000D+00 0.00000000D+00 0.00000000D+00 0.00000000D+00
  <mgrwgt>
 0.2047848722D+00    4    2    0
 0.153148918347914D+03 0.000000000000000D+00 0.000000000000000D+00 0.153148918347914D+03
 0.153148918347914D+03 0.000000000000000D+00 0.000000000000000D+00 -.153148918347914D+03
 0.168098067425195D+03 -.952150201874394D+02 0.471634131354191D+02 0.366288501622523D+02
 0.138199769270632D+03 0.952150201874394D+02 -.471634131354191D+02 -.366288501622523D+02
 0.000000000000000D+00 -.000000000000000D+00 -.000000000000000D+00 0.000000000000000D+00
 0.198582352836784D+03 0.000000000000000D+00 0.000000000000000D+00 0.198582352836784D+03
 0.157706639136808D+03 0.000000000000000D+00 0.000000000000000D+00 -.157706639136808D+03
 0.170520686785962D+03 -.913399952787494D+02 0.613810819408176D+02 0.366288501622523D+02
 0.136939537261401D+03 0.983636103139817D+02 -.356110714916951D+02 -.366288501622523D+02
 0.488287679262282D+02 -.702361503523234D+01 -.257700104491226D+02 0.408757136999762D+02
0.536072430333D-03 0.000000000000D+00 0.000000000000D+00 0.225979409342D-02 0.000000000000D+00  5 1 -2 25 -24 21 0 0.80466146D-01 0.68990287D-02 0.22099212D+05 0.22099212D+05 0.22099212D+05 0.12290823D+01  1  2  2  2  5  2       -2 0.231710855095D+00 0.100000000000D+01
-.297497271035D-04 0.000000000000D+00 -.205865928359D-05 0.225979409342D-02 0.000000000000D+00  5 1 -2 25 -24 21 2 0.80466146D-01 0.68990287D-02 0.22099212D+05 0.22099212D+05 0.22099212D+05 0.12290823D+01  1  2  3  2  5  2       -2 -.194253037449D-01 0.100000000000D+01
0.370677001803D-04 0.000000000000D+00 0.000000000000D+00 0.225979409342D-02 0.000000000000D+00  5 1 -2 25 -24 21 2 0.80466146D-01 0.68990287D-02 0.22099212D+05 0.22099212D+05 0.22099212D+05 0.12290823D+01  1  2 15  2  5  2       -2 0.242036282424D-01 0.100000000000D+01
-.485549417804D-04 0.000000000000D+00 0.000000000000D+00 0.225979409342D-02 0.000000000000D+00  5 1 -2 25 -24 21 2 0.80466146D-01 0.68990287D-02 0.22099212D+05 0.22099212D+05 0.22099212D+05 0.12290823D+01  1  2  4  2  5  2       -2 -.317043073746D-01 0.100000000000D+01
  </mgrwgt>
  </event>
  <event>
  4     66 0.47139866E-03 0.11081718E+03 0.75467711E-02 0.11656092E+00
        1 -1    0    0  501    0 0.00000000E+00 0.00000000E+00 0.21476825E+03 0.21476849E+03 0.32000000E+00 0.0000E+00 0.9000E+01
       -2 -1    0    0    0  501 0.00000000E+00 0.00000000E+00 -.59831093E+02 0.59831949E+02 0.32000000E+00 0.0000E+00 0.9000E+01
       25  1    1    2    0    0 -.73715172E+01 0.40085196E+02 0.62849919E+02 0.14572671E+03 0.12500000E+03 0.0000E+00 0.9000E+01
      -24  1    1    2    0    0 0.73715172E+01 -.40085196E+02 0.92087242E+02 0.12887373E+03 0.80419002E+02 0.0000E+00 0.9000E+01
#aMCatNLO 1  0  0  2  1 0.11517332D+03 0.00000000D+00  -5  5  0 0.00000000D+00 0.00000000D+00 0.00000000D+00 0.00000000D+00 0.00000000D+00
  <mgrwgt>
 0.1589392201D+00    5    2    0
 0.113357706804870D+03 0.000000000000000D+00 0.000000000000000D+00 0.113357706804870D+03
 0.113357706804870D+03 0.000000000000000D+00 0.000000000000000D+00 -.113357706804870D+03
 0.133554357530597D+03 -.737151722975466D+01 0.400851959187687D+02 -.234649572191367D+02
 0.931610560791423D+02 0.737151722975466D+01 -.400851959187687D+02 0.234649572191367D+02
 0.000000000000000D+00 0.000000000000000D+00 -.000000000000000D+00 -.000000000000000D+00
 0.163185282758302D+03 0.000000000000000D+00 0.000000000000000D+00 0.163185282758302D+03
 0.219164132519823D+03 0.000000000000000D+00 0.000000000000000D+00 -.219164132519823D+03
 0.167881522911284D+03 -.533542214801488D+02 0.957179636638983D+02 -.234649572191367D+02
 0.864111668914268D+02 -.200214275263145D+02 -.694348843738454D+01 0.234649572191367D+02
 0.128056725475414D+03 0.733756490064633D+02 -.887744752265138D+02 -.559788497615206D+02
0.185487994561D-03 0.000000000000D+00 0.000000000000D+00 0.281912780080D-02 0.000000000000D+00  5 1 -2 25 -24 21 0 0.33041354D-01 0.92048678D-02 0.12280448D+05 0.12280448D+05 0.12280448D+05 0.12578500D+01  1  2  2  2  5  2       -2 0.153808580837D+00 0.100000000000D+01
-.102984514302D-04 0.000000000000D+00 -.712322739224D-06 0.281912780080D-02 0.000000000000D+00  5 1 -2 25 -24 21 2 0.33041354D-01 0.92048678D-02 0.12280448D+05 0.12280448D+05 0.12280448D+05 0.12578500D+01  1  2  3  2  5  2       -2 -.135112135679D-01 0.100000000000D+01
0.128428347941D-04 0.000000000000D+00 0.000000000000D+00 0.281912780080D-02 0.000000000000D+00  5 1 -2 25 -24 21 2 0.33041354D-01 0.92048678D-02 0.12280448D+05 0.12280448D+05 0.12280448D+05 0.12578500D+01  1  2 15  2  5  2       -2 0.168493569054D-01 0.100000000000D+01
-.136926896710D-04 0.000000000000D+00 -.536085422230D-04 0.281912780080D-02 0.000000000000D+00  5 1 -2 25 -24 21 2 0.33041354D-01 0.25230709D-01 0.12280448D+05 0.12280448D+05 0.12280448D+05 0.12578500D+01  1  2  5  2  5  2       -2 -.345573991791D-02 0.100000000000D+01
0.152555781623D-05 0.000000000000D+00 -.604634796159D-05 0.281912780080D-02 0.000000000000D+00  5 1 21 25 -24 2 2 0.33041354D-01 0.25230709D-01 0.12280448D+05 0.12280448D+05 0.12280448D+05 0.12578500D+01  1  2  5  4  5  2       -2 0.524823585375D-02 0.100000000000D+01
  </mgrwgt>
  </event>
  <event>
  5     66 0.47139866E-03 0.12373577E+03 0.75467711E-02 0.11845075E+00
       21 -1    0    0  501  502 0.00000000E+00 0.00000000E+00 0.21328017E+04 0.21328018E+04 0.75000000E+00 0.0000E+00 0.9000E+01
       -2 -1    0    0    0  501 0.00000000E+00 0.00000000E+00 -.31173342E+02 0.31174984E+02 0.32000000E+00 0.0000E+00 0.9000E+01
       25  1    1    2    0    0 0.36354143E+02 -.45133555E+02 0.88377447E+03 0.89445009E+03 0.12500000E+03 0.0000E+00 0.9000E+01
      -24  1    1    2    0    0 -.89441711E+02 0.31765450E+00 0.12147329E+03 0.17094706E+03 0.80419002E+02 0.0000E+00 0.9000E+01
       -1  1    1    2    0  502 0.53087569E+02 0.44815900E+02 0.10963806E+04 0.10985797E+04 0.32000000E+00 0.0000E+00 0.9000E+01
#aMCatNLO 2  0  0  1  2 0.69474851D+02 0.00000000D+00  -5  5  0 0.00000000D+00 0.00000000D+00 0.00000000D+00 0.00000000D+00 0.00000000D+00
  <mgrwgt>
 0.3901038853D-02    2    2    0
 0.173003816638428D+03 0.000000000000000D+00 0.000000000000000D+00 0.173003816638428D+03
 0.173003816638428D+03 0.000000000000000D+00 0.000000000000000D+00 -.173003816638428D+03
 0.186237316661102D+03 0.643891348025515D+02 -.214667445471953D+02 0.120218785200366D+03
 0.159770316615753D+03 -.643891348025515D+02 0.214667445471953D+02 -.120218785200366D+03
 0.000000000000000D+00 0.000000000000000D+00 0.000000000000000D+00 0.000000000000000D+00
 0.363507326159781D+03 0.000000000000000D+00 0.000000000000000D+00 0.363507326159781D+03
 0.182907958408451D+03 0.000000000000000D+00 0.000000000000000D+00 -.182907958408451D+03
 0.182855729366169D+03 0.363541425194192D+02 -.451335547975057D+02 0.120218785200366D+03
 0.170057910456522D+03 -.894417113825157D+02 0.317654502461419D+00 -.120218785200366D+03
 0.193501644745541D+03 0.530875688630965D+02 0.448159002950443D+02 0.180599367751331D+03
-.443086081173D-04 0.000000000000D+00 0.000000000000D+00 0.124217707952D-02 0.000000000000D+00  5 21 -2 25 -24 -1 2 0.32770793D+00 0.45363352D-02 0.26819871D+05 0.26819871D+05 0.26819871D+05 0.12200393D+01  1  2 13  3  5  1        1 -.282876824180D-02 0.100000000000D+01
0.115247980218D-03 0.000000000000D+00 0.000000000000D+00 0.124217707952D-02 0.246619082851D-06  5 21 -2 25 -24 -1 2 0.32812324D+00 0.47960319D-02 0.26819871D+05 0.26819871D+05 0.26819871D+05 0.12200393D+01  1  2  1  3  5  1        1 0.672980709432D-02 0.100000000000D+01
  </mgrwgt>
  </event>
  <event>
  5     66 0.47139866E-03 0.12364753E+03 0.75467711E-02 0.11838607E+00
        1 -1    0    0  501    0 0.00000000E+00 0.00000000E+00 0.29312225E+04 0.29312225E+04 0.32000000E+00 0.0000E+00 0.9000E+01
       21 -1    0    0  502  501 0.00000000E+00 0.00000000E+00 -.16306985E+02 0.16324223E+02 0.75000000E+00 0.0000E+00 0.9000E+01
       25  1    1    2    0    0 0.54825919E+02 0.36925082E+02 0.18788912E+04 0.18842045E+04 0.12500000E+03 0.0000E+00 0.9000E+01
      -24  1    1    2    0    0 -.77932289E+02 0.30483046E+02 0.91921511E+03 0.92651298E+03 0.80419002E+02 0.0000E+00 0.9000E+01
        2  1    1    2  502    0 0.23106371E+02 -.67408128E+02 0.11680911E+03 0.13682921E+03 0.32000000E+00 0.0000E+00 0.9000E+01
#aMCatNLO 2  0  0  2  1 0.71258403D+02 0.00000000D+00  -5  5  0 0.00000000D+00 0.00000000D+00 0.00000000D+00 0.00000000D+00 0.00000000D+00
  <mgrwgt>
 0.1488455683D+00    2    2    0
 0.128117008581583D+03 0.000000000000000D+00 0.000000000000000D+00 0.128117008581583D+03
 0.128117008581583D+03 0.000000000000000D+00 0.000000000000000D+00 -.128117008581583D+03
 0.145986970085948D+03 0.677125834026760D+02 -.669136676979992D+00 0.331926759981583D+02
 0.110247047077217D+03 -.677125834026760D+02 0.669136676979992D+00 -.331926759981583D+02
 0.000000000000000D+00 0.000000000000000D+00 -.000000000000000D+00 -.000000000000000D+00
 0.138992344608744D+03 0.000000000000000D+00 0.000000000000000D+00 0.138992344608744D+03
 0.344081932234927D+03 0.000000000000000D+00 0.000000000000000D+00 -.344081932234927D+03
 0.145244954290955D+03 0.548259187030259D+02 0.369250815223471D+02 0.331926759981583D+02
 0.120712996550304D+03 -.779322893899653D+02 0.304830463094356D+02 -.331926759981583D+02
 0.217116326002412D+03 0.231063706869394D+02 -.674081278317826D+02 -.205089587626182D+03
-.833600323206D-04 0.000000000000D+00 0.000000000000D+00 0.249106617750D-02 0.000000000000D+00  5 1 21 25 -24 2 2 0.41567342D+00 0.24758570D-02 0.27014135D+05 0.27014135D+05 0.27014135D+05 0.12197062D+01  1  2 13  4  5  2       -2 -.146353208858D+00 0.100000000000D+01
0.245768545067D-03 0.000000000000D+00 0.000000000000D+00 0.249106617750D-02 0.781609608514D-06  5 1 21 25 -24 2 2 0.45095826D+00 0.25100923D-02 0.27014135D+05 0.27014135D+05 0.27014135D+05 0.12197062D+01  1  2  1  4  5  2       -2 0.295198777176D+00 0.100000000000D+01
  </mgrwgt>
  </event>
  <event>
  4     66 0.47139866E-03 0.92693027E+02 0.75467711E-02 0.11963595E+00
        1 -1    0    0  501    0 0.00000000E+00 0.00000000E+00 0.38087962E+03 0.38087976E+03 0.32000000E+00 0.0000E+00 0.9000E+01
       -2 -1    0    0    0  501 0.00000000E+00 0.00000000E+00 -.76001093E+02 0.76001766E+02 0.32000000E+00 0.0000E+00 0.9000E+01
       25  1    1    2    0    0 0.72302972E+02 0.78360301E+02 0.27451541E+03 0.31992463E+03 0.12500000E+03 0.0000E+00 0.9000E+01
      -24  1    1    2    0    0 -.72302972E+02 -.78360301E+02 0.30363119E+02 0.13695690E+03 0.80419002E+02 0.0000E+00 0.9000E+01
#aMCatNLO 1  0  0  2  1 0.88776856D+01 0.00000000D+00  -5  5  0 0.00000000D+00 0.00000000D+00 0.00000000D+00 0.00000000D+00 0.00000000D+00
  <mgrwgt>
 0.1401127064D+00   11    2    0
 0.170139508022184D+03 0.000000000000000D+00 0.000000000000000D+00 0.170139508022184D+03
 0.170139508022184D+03 0.000000000000000D+00 0.000000000000000D+00 -.170139508022184D+03
 0.183595794795441D+03 0.723029715639903D+02 0.783603006042930D+02 0.819411951266962D+02
 0.156683221248927D+03 -.723029715639903D+02 -.783603006042930D+02 -.819411951266962D+02
 0.000000000000000D+00 -.000000000000000D+00 0.000000000000000D+00 -.000000000000000D+00
 0.174322353208874D+03 0.000000000000000D+00 0.000000000000000D+00 0.174322353208874D+03
 0.174974021408222D+03 0.000000000000000D+00 0.000000000000000D+00 -.174974021408222D+03
 0.184692715173637D+03 0.767913411755961D+02 0.766493933431457D+02 0.819411951266962D+02
 0.155702088050422D+03 -.684958999573063D+02 -.798115060573245D+02 -.819411951266962D+02
 0.890157139303590D+01 -.829544121828984D+01 0.316211271417877D+01 -.651668199348487D+00
0.463541232030D-03 0.000000000000D+00 0.000000000000D+00 0.178632833017D-02 0.000000000000D+00  5 1 -2 25 -24 21 0 0.58596927D-01 0.11692538D-01 0.22177822D+05 0.22177822D+05 0.22177822D+05 0.12289146D+01  1  2  2  2  5  2       -2 0.132098260660D+00 0.100000000000D+01
-.251968069687D-04 0.000000000000D+00 -.178012038421D-05 0.178632833017D-02 0.000000000000D+00  5 1 -2 25 -24 21 2 0.58596927D-01 0.11692538D-01 0.22177822D+05 0.22177822D+05 0.22177822D+05 0.12289146D+01  1  2  3  2  5  2       -2 -.108442026044D-01 0.100000000000D+01
0.319978914945D-04 0.000000000000D+00 0.000000000000D+00 0.178632833017D-02 0.000000000000D+00  5 1 -2 25 -24 21 2 0.58596927D-01 0.11692538D-01 0.22177822D+05 0.22177822D+05 0.22177822D+05 0.12289146D+01  1  2 15  2  5  2       -2 0.137712535843D-01 0.100000000000D+01
0.776020174009D-03 0.000000000000D+00 0.000000000000D+00 0.178632833017D-02 0.000000000000D+00  5 1 -2 25 -24 21 2 0.58596927D-01 0.12164733D-01 0.23530716D+05 0.23530716D+05 0.23530716D+05 0.12261279D+01  1  2 12  2  5  2       -2 0.312445283716D+00 0.100000000000D+01
-.625170781279D-03 0.000000000000D+00 0.000000000000D+00 0.178632833017D-02 0.000000000000D+00  5 1 -2 25 -24 21 2 0.58596927D-01 0.11692538D-01 0.22177822D+05 0.22177822D+05 0.22177822D+05 0.12289146D+01  1  2  4  2  5  2       -2 -.269061021223D+00 0.100000000000D+01
-.653862839910D-02 0.000000000000D+00 -.108344531697D-02 0.178632833017D-02 0.000000000000D+00  5 1 -2 25 -24 21 2 0.58596927D-01 0.12314629D-01 0.22177822D+05 0.22177822D+05 0.22177822D+05 0.12289146D+01  1  2  5  2  5  2       -2 -.259008858729D+01 0.100000000000D+01
0.658739260903D-02 0.000000000000D+00 0.108199129413D-02 0.178632833017D-02 0.000000000000D+00  5 1 -2 25 -24 21 2 0.58596927D-01 0.11692538D-01 0.22177822D+05 0.22177822D+05 0.22177822D+05 0.12289146D+01  1  2  6  2  5  2       -2 0.283508224577D+01 0.100000000000D+01
0.387866333057D-06 0.000000000000D+00 0.000000000000D+00 0.178632833017D-02 0.181878684476D-03  5 1 -2 25 -24 21 2 0.60037521D-01 0.12024781D-01 0.23530716D+05 0.23530716D+05 0.23530716D+05 0.12261279D+01  1  2 11  2  5  2       -2 0.154288701266D-03 0.100000000000D+01
0.104642366053D-04 0.000000000000D+00 0.000000000000D+00 0.178632833017D-02 0.000000000000D+00  5 1 21 25 -24 2 2 0.58596927D-01 0.12164733D-01 0.23530716D+05 0.23530716D+05 0.23530716D+05 0.12261279D+01  1  2 12  4  5  2       -2 0.639222553665D-01 0.100000000000D+01
-.578691158076D-04 0.000000000000D+00 -.975826421575D-05 0.178632833017D-02 0.000000000000D+00  5 1 21 25 -24 2 2 0.58596927D-01 0.12314629D-01 0.22177822D+05 0.22177822D+05 0.22177822D+05 0.12289146D+01  1  2  5  4  5  2       -2 -.347388907220D+00 0.100000000000D+01
0.361079626304D-08 0.000000000000D+00 0.000000000000D+00 0.178632833017D-02 0.937006387220D-06  5 1 21 25 -24 2 2 0.60037521D-01 0.12024781D-01 0.23530716D+05 0.23530716D+05 0.23530716D+05 0.12261279D+01  1  2 11  4  5  2       -2 0.218369454522D-04 0.100000000000D+01
  </mgrwgt>
  </event>
  <event>
  4     66 0.47139866E-03 0.10335239E+03 0.75467711E-02 0.12054724E+00
        1 -1    0    0  501    0 0.00000000E+00 0.00000000E+00 0.11709888E+03 0.11709932E+03 0.32000000E+00 0.0000E+00 0.9000E+01
       -2 -1    0    0    0  501 0.00000000E+00 0.00000000E+00 -.97995242E+02 0.97995765E+02 0.32000000E+00 0.0000E+00 0.9000E+01
       25  1    1    2    0    0 0.82623998E+01 -.76187247E+01 0.39127490E+02 0.13146206E+03 0.12500000E+03 0.0000E+00 0.9000E+01
      -24  1    1    2    0    0 -.82623998E+01 0.76187247E+01 -.20023852E+02 0.83633025E+02 0.80419002E+02 0.0000E+00 0.9000E+01
#aMCatNLO 1  0  0  1  1 0.72801402D+02 0.00000000D+00  -5  5  0 0.00000000D+00 0.00000000D+00 0.00000000D+00 0.00000000D+00 0.00000000D+00
  <mgrwgt>
 0.1239491104D+00    4    2    0
 0.107122529793876D+03 0.000000000000000D+00 0.000000000000000D+00 0.107122529793876D+03
 0.107122529793876D+03 0.000000000000000D+00 0.000000000000000D+00 -.107122529793876D+03
 0.128494747345242D+03 0.826239983989945D+01 -.761872474373047D+01 0.275606218631284D+02
 0.857503122425101D+02 -.826239983989945D+01 0.761872474373047D+01 -.275606218631284D+02
 0.000000000000000D+00 0.000000000000000D+00 0.000000000000000D+00 -.000000000000000D+00
 0.141677219533347D+03 0.000000000000000D+00 0.000000000000000D+00 0.141677219533347D+03
 0.159566193657257D+03 0.000000000000000D+00 0.000000000000000D+00 -.159566193657257D+03
 0.133809004725179D+03 -.330896085982659D+02 -.206237647114740D+02 0.275606218631284D+02
 0.924673521739839D+02 -.363582936447371D+02 -.121732060598367D+01 -.275606218631284D+02
 0.749670562914412D+02 0.694479022430030D+02 0.218410853174577D+02 -.178889741239106D+02
0.241383633566D-03 0.000000000000D+00 0.000000000000D+00 0.292487500057D-02 0.000000000000D+00  5 1 -2 25 -24 21 0 0.18015286D-01 0.15076265D-01 0.10681716D+05 0.10681716D+05 0.10681716D+05 0.12649909D+01  1  2  2  1  5  1        1 0.194011962054D+00 0.100000000000D+01
-.133892711273D-04 0.000000000000D+00 -.926976710663D-06 0.292487500057D-02 0.000000000000D+00  5 1 -2 25 -24 21 2 0.18015286D-01 0.15076265D-01 0.10681716D+05 0.10681716D+05 0.10681716D+05 0.12649909D+01  1  2  3  1  5  1        1 -.172207633278D-01 0.100000000000D+01
0.165956588679D-04 0.000000000000D+00 0.000000000000D+00 0.292487500057D-02 0.000000000000D+00  5 1 -2 25 -24 21 2 0.18015286D-01 0.15076265D-01 0.10681716D+05 0.10681716D+05 0.10681716D+05 0.12649909D+01  1  2 15  1  5  1        1 0.213446953845D-01 0.100000000000D+01
-.576807741823D-04 0.000000000000D+00 0.000000000000D+00 0.292487500057D-02 0.000000000000D+00  5 1 -2 25 -24 21 2 0.18015286D-01 0.15076265D-01 0.10681716D+05 0.10681716D+05 0.10681716D+05 0.12649909D+01  1  2  4  1  5  1        1 -.741867836803D-01 0.100000000000D+01
  </mgrwgt>
  </event>
  <event>
  4     66 0.47139866E-03 0.14532478E+03 0.75467711E-02 0.11203566E+00
        1 -1    0    0  501    0 0.00000000E+00 0.00000000E+00 0.11753897E+03 0.11753941E+03 0.32000000E+00 0.0000E+00 0.9000E+01
       -2 -1    0    0    0  501 0.00000000E+00 0.00000000E+00 -.25817927E+03 0.25817947E+03 0.32000000E+00 0.0000E+00 0.9000E+01
       25  1    1    2    0    0 0.10159382E+03 0.26158226E+00 0.27538203E+02 0.16341580E+03 0.12500000E+03 0.0000E+00 0.9000E+01
      -24  1    1    2    0    0 -.10159382E+03 -.26158226E+00 -.16817850E+03 0.21230307E+03 0.80419002E+02 0.0000E+00 0.9000E+01
#aMCatNLO 1  0  0  2  1 0.15053629D+03 0.00000000D+00  -5  5  0 0.00000000D+00 0.00000000D+00 0.00000000D+00 0.00000000D+00 0.00000000D+00
  <mgrwgt>
 0.2048509618D+00    5    2    0
 0.174201738323203D+03 0.000000000000000D+00 0.000000000000000D+00 0.174201738323203D+03
 0.174201738323203D+03 0.000000000000000D+00 0.000000000000000D+00 -.174201738323203D+03
 0.187344236402985D+03 0.101593817088787D+03 0.261582257390648D+00 0.956634246589065D+02
 0.161059240243421D+03 -.101593817088787D+03 -.261582257390648D+00 -.956634246589065D+02
 0.000000000000000D+00 0.000000000000000D+00 -.000000000000000D+00 -.000000000000000D+00
 0.193114588675407D+03 0.000000000000000D+00 0.000000000000000D+00 0.193114588675407D+03
 0.188215101265582D+04 0.000000000000000D+00 0.000000000000000D+00 -.188215101265582D+04
 0.191447765479937D+03 0.788513973396297D+02 0.752210956273470D+02 0.956634246589065D+02
 0.188086366455977D+03 -.122556286997500D+03 0.688311774718244D+02 -.956634246589065D+02
 0.169573146939532D+04 0.437048896578700D+02 -.144052273099171D+03 -.168903642398042D+04
0.147858311374D-02 0.000000000000D+00 0.000000000000D+00 0.162174329661D-02 0.000000000000D+00  5 1 -2 25 -24 21 0 0.18082968D-01 0.39719936D-01 0.21119292D+05 0.21119292D+05 0.21119292D+05 0.12312309D+01  1  2  2  2  5  2       -2 0.223080262609D+00 0.100000000000D+01
-.788627275085D-04 0.000000000000D+00 -.567814847665D-05 0.162174329661D-02 0.000000000000D+00  5 1 -2 25 -24 21 2 0.18082968D-01 0.39719936D-01 0.21119292D+05 0.21119292D+05 0.21119292D+05 0.12312309D+01  1  2  3  2  5  2       -2 -.180370798637D-01 0.100000000000D+01
0.101788239918D-03 0.000000000000D+00 0.000000000000D+00 0.162174329661D-02 0.000000000000D+00  5 1 -2 25 -24 21 2 0.18082968D-01 0.39719936D-01 0.21119292D+05 0.21119292D+05 0.21119292D+05 0.12312309D+01  1  2 15  2  5  2       -2 0.232804858592D-01 0.100000000000D+01
-.229749803277D-01 0.000000000000D+00 -.102738196701D-02 0.162174329661D-02 0.000000000000D+00  5 1 -2 25 -24 21 2 0.18082968D-01 0.43406102D+00 0.21119292D+05 0.21119292D+05 0.21119292D+05 0.12312309D+01  1  2  5  2  5  2       -2 -.524357694904D-02 0.100000000000D+01
-.665077080837D-02 0.000000000000D+00 -.289393890168D-03 0.162174329661D-02 0.000000000000D+00  5 1 21 25 -24 2 2 0.18082968D-01 0.43406102D+00 0.21119292D+05 0.21119292D+05 0.21119292D+05 0.12312309D+01  1  2  5  4  5  2       -2 -.182291298407D-01 0.100000000000D+01
  </mgrwgt>
  </event>
  <event>
  4     66 0.47139866E-03 0.11944875E+03 0.75467711E-02 0.10731451E+00
        1 -1    0    0  501    0 0.00000000E+00 0.00000000E+00 0.64850119E+03 0.64850127E+03 0.32000000E+00 0.0000E+00 0.9000E+01
       -2 -1    0    0    0  501 0.00000000E+00 0.00000000E+00 -.23646727E+02 0.23648892E+02 0.32000000E+00 0.0000E+00 0.9000E+01
       25  1    1    2    0    0 0.52731596E+02 0.28436607E+02 0.44667639E+03 0.46769013E+03 0.12500000E+03 0.0000E+00 0.9000E+01
      -24  1    1    2    0    0 -.52731596E+02 -.28436607E+02 0.17817808E+03 0.20446003E+03 0.80419002E+02 0.0000E+00 0.9000E+01
#aMCatNLO 1  0  0  2  2 0.28183754D+03 0.00000000D+00  -5  5  0 0.00000000D+00 0.00000000D+00 0.00000000D+00 0.00000000D+00 0.00000000D+00
  <mgrwgt>
 0.2244755201D+00    5    2    0
 0.123837330815035D+03 0.000000000000000D+00 0.000000000000000D+00 0.123837330815035D+03
 0.123837330815035D+03 0.000000000000000D+00 0.000000000000000D+00 -.123837330815035D+03
 0.142324857930965D+03 0.527315957454405D+02 0.284366065602646D+02 0.322816263925084D+02
 0.105349803699105D+03 -.527315957454405D+02 -.284366065602646D+02 -.322816263925084D+02
 0.000000000000000D+00 0.000000000000000D+00 -.000000000000000D+00 -.000000000000000D+00
 0.204364968955070D+03 0.000000000000000D+00 0.000000000000000D+00 0.204364968955070D+03
 0.137210436778975D+04 0.000000000000000D+00 0.000000000000000D+00 -.137210436778975D+04
 0.237205227687119D+03 0.233058746639723D+02 0.197626042933869D+03 0.322816263925084D+02
 0.137994903563810D+03 -.715985940518031D+02 0.800432094713492D+02 -.322816263925084D+02
 0.120126920549389D+04 0.482927193878308D+02 -.277669252405219D+03 -.116773939883468D+04
0.303782405238D-03 0.000000000000D+00 0.000000000000D+00 0.255370125635D-02 0.000000000000D+00  5 1 -2 25 -24 21 0 0.99769586D-01 0.36381306D-02 0.14268005D+05 0.14268005D+05 0.14268005D+05 0.12503072D+01  1  2  2  2  5  2       -2 0.253614628443D+00 0.100000000000D+01
-.168500863104D-04 0.000000000000D+00 -.116660442386D-05 0.255370125635D-02 0.000000000000D+00  5 1 -2 25 -24 21 2 0.99769586D-01 0.36381306D-02 0.14268005D+05 0.14268005D+05 0.14268005D+05 0.12503072D+01  1  2  3  2  5  2       -2 -.219911157899D-01 0.100000000000D+01
0.209959622366D-04 0.000000000000D+00 0.000000000000D+00 0.255370125635D-02 0.000000000000D+00  5 1 -2 25 -24 21 2 0.99769586D-01 0.36381306D-02 0.14268005D+05 0.14268005D+05 0.14268005D+05 0.12503072D+01  1  2 15  2  5  2       -2 0.274019152282D-01 0.100000000000D+01
-.459189162823D-03 0.000000000000D+00 -.335757048989D-03 0.255370125635D-02 0.000000000000D+00  5 1 -2 25 -24 21 2 0.99769586D-01 0.63571757D-01 0.14268005D+05 0.14268005D+05 0.14268005D+05 0.12503072D+01  1  2  5  2  5  2       -2 -.490792171424D-02 0.100000000000D+01
-.225090957221D-03 0.000000000000D+00 -.105548663912D-03 0.255370125635D-02 0.000000000000D+00  5 1 21 25 -24 2 2 0.99769586D-01 0.63571757D-01 0.14268005D+05 0.14268005D+05 0.14268005D+05 0.12503072D+01  1  2  5  4  5  2       -2 -.296419860654D-01 0.100000000000D+01
  </mgrwgt>
  </event>
  <event>
  4     66 0.47139866E-03 0.13968001E+03 0.75467711E-02 0.11278130E+00
        1 -1    0    0  501    0 0.00000000E+00 0.00000000E+00 0.10819994E+02 0.10824725E+02 0.32000000E+00 0.0000E+00 0.9000E+01
       -2 -1    0    0    0  501 0.00000000E+00 0.00000000E+00 -.18188477E+04 0.18188478E+04 0.32000000E+00 0.0000E+00 0.9000E+01
       25  1    1    2    0    0 -.91403333E+02 -.19454584E+02 -.92379185E+03 0.93688282E+03 0.12500000E+03 0.0000E+00 0.9000E+01
      -24  1    1    2    0    0 0.91403333E+02 0.19454584E+02 -.88423590E+03 0.89278967E+03 0.80419002E+02 0.0000E+00 0.9000E+01
#aMCatNLO 1  0  0  2  2 0.14288591D+03 0.00000000D+00  -5  5  0 0.00000000D+00 0.00000000D+00 0.00000000D+00 0.00000000D+00 0.00000000D+00
  <mgrwgt>
 0.1433297733D+00    5    2    0
 0.140300658455601D+03 0.000000000000000D+00 0.000000000000000D+00 0.140300658455601D+03
 0.140300658455601D+03 0.000000000000000D+00 0.000000000000000D+00 -.140300658455601D+03
 0.156618800056711D+03 -.914033331614794D+02 -.194545835497059D+02 0.130919210615952D+02
 0.123982516854492D+03 0.914033331614794D+02 0.194545835497059D+02 -.130919210615952D+02
 0.000000000000000D+00 -.000000000000000D+00 0.000000000000000D+00 -.000000000000000D+00
 0.185100016879733D+03 0.000000000000000D+00 0.000000000000000D+00 0.185100016879733D+03
 0.341994533141919D+03 0.000000000000000D+00 0.000000000000000D+00 -.341994533141919D+03
 0.158496211204867D+03 -.499120066647405D+02 -.826646366949830D+02 0.130919210615952D+02
 0.156390249362832D+03 0.128320133593625D+03 -.367863977419600D+02 -.130919210615952D+02
 0.212208089453953D+03 -.784081269288841D+02 0.119451034436943D+03 -.156894516262185D+03
0.431036833111D-02 0.000000000000D+00 0.000000000000D+00 0.247817478792D-02 0.000000000000D+00  5 1 -2 25 -24 21 0 0.16649805D-02 0.27982310D+00 0.19510505D+05 0.19510505D+05 0.19510505D+05 0.12350126D+01  1  2  2  2  5  2       -2 0.140814097808D+00 0.100000000000D+01
-.239459184302D-03 0.000000000000D+00 -.165529493375D-04 0.247817478792D-02 0.000000000000D+00  5 1 -2 25 -24 21 2 0.16649805D-02 0.27982310D+00 0.19510505D+05 0.19510505D+05 0.19510505D+05 0.12350126D+01  1  2  3  2  5  2       -2 -.119318008620D-01 0.100000000000D+01
0.297844610178D-03 0.000000000000D+00 0.000000000000D+00 0.247817478792D-02 0.000000000000D+00  5 1 -2 25 -24 21 2 0.16649805D-02 0.27982310D+00 0.19510505D+05 0.19510505D+05 0.19510505D+05 0.12350126D+01  1  2 15  2  5  2       -2 0.148410368423D-01 0.100000000000D+01
-.122055017277D-02 0.000000000000D+00 -.895827967772D-03 0.247817478792D-02 0.000000000000D+00  5 1 -2 25 -24 21 2 0.16649805D-02 0.70863423D+00 0.19510505D+05 0.19510505D+05 0.19510505D+05 0.12350126D+01  1  2  5  2  5  2       -2 -.354179883379D-03 0.100000000000D+01
-.701417243984D-04 0.000000000000D+00 -.918172798766D-04 0.247817478792D-02 0.000000000000D+00  5 1 21 25 -24 2 2 0.16649805D-02 0.70863423D+00 0.19510505D+05 0.19510505D+05 0.19510505D+05 0.12350126D+01  1  2  5  4  5  2       -2 -.393806480538D-04 0.100000000000D+01
  </mgrwgt>
  </event>
  <event>
  4     66 0.47139866E-03 0.12733074E+03 0.75467711E-02 0.11598035E+00
        1 -1    0    0  501    0 0.00000000E+00 0.00000000E+00 0.62185804E+03 0.62185812E+03 0.32000000E+00 0.0000E+00 0.9000E+01
       -2 -1    0    0    0  501 0.00000000E+00 0.00000000E+00 -.26190327E+02 0.26192281E+02 0.32000000E+00 0.0000E+00 0.9000E+01
       25  1    1    2    0    0 -.51930800E+02 0.52853508E+02 0.36135250E+03 0.38947520E+03 0.12500000E+03 0.0000E+00 0.9000E+01
      -24  1    1    2    0    0 0.51930800E+02 -.52853508E+02 0.23431521E+03 0.25857520E+03 0.80419002E+02 0.0000E+00 0.9000E+01
#aMCatNLO 1  0  0  1  2 0.10251147D+03 0.00000000D+00  -5  5  0 0.00000000D+00 0.00000000D+00 0.00000000D+00 0.00000000D+00 0.00000000D+00
  <mgrwgt>
 0.1941165111D+00    3    2    0
 0.127621805303395D+03 0.000000000000000D+00 0.000000000000000D+00 0.127621805303395D+03
 0.127621805303395D+03 0.000000000000000D+00 0.000000000000000D+00 -.127621805303395D+03
 0.145561106553402D+03 -.519307996313380D+02 0.528535078336905D+02 0.852845240209222D+01
 0.109682504053388D+03 0.519307996313380D+02 -.528535078336905D+02 -.852845240209222D+01
 0.000000000000000D+00 -.000000000000000D+00 0.000000000000000D+00 -.000000000000000D+00
 0.182468901356189D+03 0.000000000000000D+00 0.000000000000000D+00 0.182468901356189D+03
 0.195990283870541D+03 0.000000000000000D+00 0.000000000000000D+00 -.195990283870541D+03
 0.127125860754990D+03 -.164845668856027D+02 0.138386786550001D+02 0.852845240209222D+01
 0.147933955441892D+03 0.854180361961672D+02 -.897121162961200D+02 -.852845240209222D+01
 0.103399369029849D+03 -.689334693105644D+02 0.758734376411198D+02 -.135213825143514D+02
0.248978578049D-03 0.000000000000D+00 0.000000000000D+00 0.264458490486D-02 0.000000000000D+00  5 1 -2 25 -24 21 0 0.95670624D-01 0.40294377D-02 0.16213118D+05 0.16213118D+05 0.16213118D+05 0.12439904D+01  1  2  2  1  5  1        1 0.190124592809D+00 0.100000000000D+01
-.138320555472D-04 0.000000000000D+00 -.956143297272D-06 0.264458490486D-02 0.000000000000D+00  5 1 -2 25 -24 21 2 0.95670624D-01 0.40294377D-02 0.16213118D+05 0.16213118D+05 0.16213118D+05 0.12439904D+01  1  2  3  1  5  1        1 -.163454582434D-01 0.100000000000D+01
0.172101459557D-04 0.000000000000D+00 0.000000000000D+00 0.264458490486D-02 0.000000000000D+00  5 1 -2 25 -24 21 2 0.95670624D-01 0.40294377D-02 0.16213118D+05 0.16213118D+05 0.16213118D+05 0.12439904D+01  1  2 15  1  5  1        1 0.203373765469D-01 0.100000000000D+01
  </mgrwgt>
  </event>
  <event>
  4     66 0.47139866E-03 0.10965849E+03 0.75467711E-02 0.10262315E+00
        3 -1    0    0  501    0 0.00000000E+00 0.00000000E+00 0.27317334E+02 0.27321910E+02 0.50000000E+00 0.0000E+00 0.9000E+01
       -4 -1    0    0    0  501 0.00000000E+00 0.00000000E+00 -.49806635E+03 0.49806877E+03 0.15500000E+01 0.0000E+00 0.9000E+01
       25  1    1    2    0    0 -.30170609E+02 -.22461082E+02 -.18683214E+03 0.22791668E+03 0.12500000E+03 0.0000E+00 0.9000E+01
      -24  1    1    2    0    0 0.30170609E+02 0.22461082E+02 -.28391688E+03 0.29747399E+03 0.80419002E+02 0.0000E+00 0.9000E+01
#aMCatNLO 1  0  0  1  1 0.42860318D+03 0.00000000D+00  -5  5  0 0.00000000D+00 0.00000000D+00 0.00000000D+00 0.00000000D+00 0.00000000D+00
  <mgrwgt>
 0.7556208654D-01    5    2    0
 0.116651963643290D+03 0.000000000000000D+00 0.000000000000000D+00 0.116651963643290D+03
 0.116651963643290D+03 0.000000000000000D+00 0.000000000000000D+00 -.116651963643290D+03
 0.136278260020163D+03 -.301706091716436D+02 -.224610820095254D+02 0.391407497538867D+02
 0.970256672664178D+02 0.301706091716436D+02 0.224610820095254D+02 -.391407497538867D+02
 0.000000000000000D+00 -.000000000000000D+00 0.000000000000000D+00 0.000000000000000D+00
 0.593852406035884D+03 0.000000000000000D+00 0.000000000000000D+00 0.593852406035884D+03
 0.375261256321098D+03 0.000000000000000D+00 0.000000000000000D+00 -.375261256321098D+03
 0.286329709614755D+03 0.116015814265442D+03 -.226645174572723D+03 0.391407497538867D+02
 0.201657385738085D+03 0.133489548702570D+03 -.121848378586816D+03 -.391407497538867D+02
 0.481126567004143D+03 -.249505362968013D+03 0.348493553159539D+03 0.218591149714786D+03
0.665545399320D-03 0.000000000000D+00 0.000000000000D+00 0.257576233052D-02 0.000000000000D+00  5 3 -4 25 -24 21 0 0.42032043D-02 0.76626130D-01 0.12024984D+05 0.12024984D+05 0.12024984D+05 0.12589183D+01  1  2  2  1  5  1        3 0.584129029768D-01 0.100000000000D+01
-.368029140434D-04 0.000000000000D+00 -.255586957552D-05 0.257576233052D-02 0.000000000000D+00  5 3 -4 25 -24 21 2 0.42032043D-02 0.76626130D-01 0.12024984D+05 0.12024984D+05 0.12024984D+05 0.12589183D+01  1  2  3  1  5  1        3 -.511927400582D-02 0.100000000000D+01
0.459409880802D-04 0.000000000000D+00 0.000000000000D+00 0.257576233052D-02 0.000000000000D+00  5 3 -4 25 -24 21 2 0.42032043D-02 0.76626130D-01 0.12024984D+05 0.12024984D+05 0.12024984D+05 0.12589183D+01  1  2 15  1  5  1        3 0.639037728924D-02 0.100000000000D+01
0.269106212672D-02 0.000000000000D+00 -.894230712082D-03 0.257576233052D-02 0.000000000000D+00  5 3 -4 25 -24 21 2 0.68095534D-01 0.76626130D-01 0.12024984D+05 0.12024984D+05 0.12024984D+05 0.12589183D+01  1  2  5  1  5  1        3 0.280796450928D-02 0.100000000000D+01
0.627257801210D-03 0.000000000000D+00 -.277137367686D-03 0.257576233052D-02 0.000000000000D+00  5 21 -4 25 -24 -3 2 0.68095534D-01 0.76626130D-01 0.12024984D+05 0.12024984D+05 0.12024984D+05 0.12589183D+01  1  2  5  3  5  1        3 0.130701157713D-01 0.100000000000D+01
  </mgrwgt>
  </event>
  <event>
  4     66 0.47139866E-03 0.56267289E+02 0.75467711E-02 0.12094088E+00
        1 -1    0    0  501    0 0.00000000E+00 0.00000000E+00 0.53846945E+03 0.53846955E+03 0.32000000E+00 0.0000E+00 0.9000E+01
       -2 -1    0    0    0  501 0.00000000E+00 0.00000000E+00 -.38856811E+02 0.38858128E+02 0.32000000E+00 0.0000E+00 0.9000E+01
       25  1    1    2    0    0 -.49558129E+02 0.44873398E+02 0.12702626E+03 0.19034259E+03 0.12500000E+03 0.0000E+00 0.9000E+01
      -24  1    1    2    0    0 0.49558129E+02 -.44873398E+02 0.37258638E+03 0.38698509E+03 0.80419002E+02 0.0000E+00 0.9000E+01
#aMCatNLO 1  0  0  2  1 0.37348070D+02 0.00000000D+00  -5  5  0 0.00000000D+00 0.00000000D+00 0.00000000D+00 0.00000000D+00 0.00000000D+00
  <mgrwgt>
 0.2000942270D+00    9    2    0
 0.144649968411622D+03 0.000000000000000D+00 0.000000000000000D+00 0.144649968411622D+03
 0.144649968411622D+03 0.000000000000000D+00 0.000000000000000D+00 -.144649968411622D+03
 0.160477458984537D+03 -.495581288907691D+02 0.448733983625658D+02 -.752222362229018D+02
 0.128822477838707D+03 0.495581288907691D+02 -.448733983625658D+02 0.752222362229018D+02
 0.000000000000000D+00 0.000000000000000D+00 0.000000000000000D+00 -.000000000000000D+00
 0.154546254042907D+03 0.000000000000000D+00 0.000000000000000D+00 0.154546254042907D+03
 0.185952099910327D+03 0.000000000000000D+00 0.000000000000000D+00 -.185952099910327D+03
 0.166983885555062D+03 -.702211950046326D+02 0.408560519973875D+02 -.752222362229018D+02
 0.124716871628966D+03 0.335595982920440D+02 -.479838582717977D+02 0.752222362229018D+02
 0.487975967692069D+02 0.366615967125886D+02 0.712780627441025D+01 -.314058458674194D+02
0.329746790931D-03 0.000000000000D+00 0.000000000000D+00 0.185295708708D-02 0.000000000000D+00  5 1 -2 25 -24 21 0 0.82841563D-01 0.59780795D-02 0.15170221D+05 0.15170221D+05 0.15170221D+05 0.12472642D+01  1  2  2  2  5  2       -2 0.168948106522D+00 0.100000000000D+01
-.177435475249D-04 0.000000000000D+00 -.126631450150D-05 0.185295708708D-02 0.000000000000D+00  5 1 -2 25 -24 21 2 0.82841563D-01 0.59780795D-02 0.15170221D+05 0.15170221D+05 0.15170221D+05 0.12472642D+01  1  2  3  2  5  2       -2 -.141426289491D-01 0.100000000000D+01
0.228059147073D-04 0.000000000000D+00 0.000000000000D+00 0.185295708708D-02 0.000000000000D+00  5 1 -2 25 -24 21 2 0.82841563D-01 0.59780795D-02 0.15170221D+05 0.15170221D+05 0.15170221D+05 0.12472642D+01  1  2 15  2  5  2       -2 0.181776270556D-01 0.100000000000D+01
0.359793407120D-03 0.000000000000D+00 0.000000000000D+00 0.185295708708D-02 0.000000000000D+00  5 1 -2 25 -24 21 2 0.82841563D-01 0.78461513D-02 0.20435785D+05 0.20435785D+05 0.20435785D+05 0.12327968D+01  1  2 12  2  5  2       -2 0.186266007371D+00 0.100000000000D+01
-.388274192091D-03 0.000000000000D+00 0.000000000000D+00 0.185295708708D-02 0.000000000000D+00  5 1 -2 25 -24 21 2 0.82841563D-01 0.59780795D-02 0.15170221D+05 0.15170221D+05 0.15170221D+05 0.12472642D+01  1  2  4  2  5  2       -2 -.309476885699D+00 0.100000000000D+01
-.553765865858D-03 0.000000000000D+00 -.151680679254D-03 0.185295708708D-02 0.000000000000D+00  5 1 -2 25 -24 21 2 0.82841563D-01 0.81979738D-02 0.15170221D+05 0.15170221D+05 0.15170221D+05 0.12472642D+01  1  2  5  2  5  2       -2 -.272510502607D+00 0.100000000000D+01
0.579776472385D-03 0.000000000000D+00 0.144419737823D-03 0.185295708708D-02 0.000000000000D+00  5 1 -2 25 -24 21 2 0.82841563D-01 0.59780795D-02 0.15170221D+05 0.15170221D+05 0.15170221D+05 0.12472642D+01  1  2  6  2  5  2       -2 0.462115228698D+00 0.100000000000D+01
0.129508160366D-04 0.000000000000D+00 0.000000000000D+00 0.185295708708D-02 0.000000000000D+00  5 1 21 25 -24 2 2 0.82841563D-01 0.78461513D-02 0.20435785D+05 0.20435785D+05 0.20435785D+05 0.12327968D+01  1  2 12  4  5  2       -2 0.110369479757D+00 0.100000000000D+01
-.185331044758D-04 0.000000000000D+00 -.608429212914D-05 0.185295708708D-02 0.000000000000D+00  5 1 21 25 -24 2 2 0.82841563D-01 0.81979738D-02 0.15170221D+05 0.15170221D+05 0.15170221D+05 0.12472642D+01  1  2  5  4  5  2       -2 -.149652205110D+00 0.100000000000D+01
  </mgrwgt>
  </event>
  <event>
  4     66 0.47139866E-03 0.75009379E+02 0.75467711E-02 0.11498278E+00
        1 -1    0    0  501    0 0.00000000E+00 0.00000000E+00 0.24914708E+04 0.24914708E+04 0.32000000E+00 0.0000E+00 0.9000E+01
       -2 -1    0    0    0  501 0.00000000E+00 0.00000000E+00 -.11483839E+02 0.11488296E+02 0.32000000E+00 0.0000E+00 0.9000E+01
       25  1    1    2    0    0 0.35493856E+02 -.12024944E+03 0.10055040E+04 0.10209716E+04 0.12500000E+03 0.0000E+00 0.9000E+01
      -24  1    1    2    0    0 -.35493856E+02 0.12024944E+03 0.14744830E+04 0.14819875E+04 0.80419002E+02 0.0000E+00 0.9000E+01
#aMCatNLO 1  0  0  1  2 0.66922884D+02 0.00000000D+00  -5  5  0 0.00000000D+00 0.00000000D+00 0.00000000D+00 0.00000000D+00 0.00000000D+00
  <mgrwgt>
 0.2732216384D+00    9    2    0
 0.169166346518345D+03 0.000000000000000D+00 0.000000000000000D+00 0.169166346518345D+03
 0.169166346518345D+03 0.000000000000000D+00 0.000000000000000D+00 -.169166346518345D+03
 0.182700043134291D+03 0.354938564879790D+02 -.120249437153820D+03 -.451061501025321D+02
 0.155632649902398D+03 -.354938564879790D+02 0.120249437153820D+03 0.451061501025321D+02
 0.000000000000000D+00 -.000000000000000D+00 -.000000000000000D+00 0.000000000000000D+00
 0.296146064011567D+03 0.000000000000000D+00 0.000000000000000D+00 0.296146064011567D+03
 0.181495291068690D+03 0.000000000000000D+00 0.000000000000000D+00 -.181495291068690D+03
 0.166839134377424D+03 0.483666345355102D+02 -.885234468739460D+02 -.451061501025321D+02
 0.178048794630110D+03 -.232050847267574D+02 0.150536097267786D+03 0.451061501025321D+02
 0.132753426072724D+03 -.251615498087528D+02 -.620126503938402D+02 0.114650772942877D+03
0.174360699611D-02 0.000000000000D+00 0.000000000000D+00 0.213340784621D-02 0.000000000000D+00  5 1 -2 25 -24 21 0 0.38330354D+00 0.17670889D-02 0.26568565D+05 0.26568565D+05 0.26568565D+05 0.12204743D+01  1  2  2  1  5  1        1 0.230666597933D+00 0.100000000000D+01
-.967045926512D-04 0.000000000000D+00 -.669590996733D-05 0.213340784621D-02 0.000000000000D+00  5 1 -2 25 -24 21 2 0.38330354D+00 0.17670889D-02 0.26568565D+05 0.26568565D+05 0.26568565D+05 0.12204743D+01  1  2  3  1  5  1        1 -.190563844006D-01 0.100000000000D+01
0.120409804220D-03 0.000000000000D+00 0.000000000000D+00 0.213340784621D-02 0.000000000000D+00  5 1 -2 25 -24 21 2 0.38330354D+00 0.17670889D-02 0.26568565D+05 0.26568565D+05 0.26568565D+05 0.12204743D+01  1  2 15  1  5  1        1 0.237276788197D-01 0.100000000000D+01
0.169138655876D-02 0.000000000000D+00 0.000000000000D+00 0.213340784621D-02 0.000000000000D+00  5 1 -2 25 -24 21 2 0.67575210D+00 0.17670889D-02 0.39957911D+05 0.39957911D+05 0.39957911D+05 0.12020467D+01  1  2 12  1  5  1        1 0.115374247570D-01 0.100000000000D+01
-.194358267543D-02 0.000000000000D+00 0.000000000000D+00 0.213340784621D-02 0.000000000000D+00  5 1 -2 25 -24 21 2 0.38330354D+00 0.17670889D-02 0.26568565D+05 0.26568565D+05 0.26568565D+05 0.12204743D+01  1  2  4  1  5  1        1 -.382997927627D+00 0.100000000000D+01
-.219415785699D-02 0.000000000000D+00 -.449868291964D-03 0.213340784621D-02 0.000000000000D+00  5 1 -2 25 -24 21 2 0.67733564D+00 0.17670889D-02 0.26568565D+05 0.26568565D+05 0.26568565D+05 0.12204743D+01  1  2  5  1  5  1        1 -.154192658445D-01 0.100000000000D+01
0.215559245748D-02 0.000000000000D+00 0.385656678167D-03 0.213340784621D-02 0.000000000000D+00  5 1 -2 25 -24 21 2 0.38330354D+00 0.17670889D-02 0.26568565D+05 0.26568565D+05 0.26568565D+05 0.12204743D+01  1  2  6  1  5  1        1 0.424776087201D+00 0.100000000000D+01
0.105715664325D-03 0.000000000000D+00 0.000000000000D+00 0.213340784621D-02 0.000000000000D+00  5 21 -2 25 -24 -1 2 0.67575210D+00 0.17670889D-02 0.39957911D+05 0.39957911D+05 0.39957911D+05 0.12020467D+01  1  2 12  3  5  1        1 0.875707162517D-04 0.100000000000D+01
-.114395828197D-03 0.000000000000D+00 -.282165081167D-04 0.213340784621D-02 0.000000000000D+00  5 21 -2 25 -24 -1 2 0.67733564D+00 0.17670889D-02 0.26568565D+05 0.26568565D+05 0.26568565D+05 0.12204743D+01  1  2  5  3  5  1        1 -.100143117104D-03 0.100000000000D+01
  </mgrwgt>
  </event>
  <event>
  4     66 0.47139866E-03 0.73501347E+02 0.75467711E-02 0.12567769E+00
        1 -1    0    0  501    0 0.00000000E+00 0.00000000E+00 0.56293268E+03 0.56293277E+03 0.32000000E+00 0.0000E+00 0.9000E+01
       -2 -1    0    0    0  501 0.00000000E+00 0.00000000E+00 -.33991145E+02 0.33992651E+02 0.32000000E+00 0.0000E+00 0.9000E+01
       25  1    1    2    0    0 0.20997754E+02 -.31137670E+02 0.47601965E+03 0.49358907E+03 0.12500000E+03 0.0000E+00 0.9000E+01
      -24  1    1    2    0    0 -.20997754E+02 0.31137670E+02 0.52921883E+02 0.10333635E+03 0.80419002E+02 0.0000E+00 0.9000E+01
#aMCatNLO 1  0  0  1  2 0.49138596D+01 0.00000000D+00  -5  5  0 0.00000000D+00 0.00000000D+00 0.00000000D+00 0.00000000D+00 0.00000000D+00
  <mgrwgt>
 0.3006589325D+00   11    2    0
 0.138330051061368D+03 0.000000000000000D+00 0.000000000000000D+00 0.138330051061368D+03
 0.138330051061368D+03 0.000000000000000D+00 0.000000000000000D+00 -.138330051061368D+03
 0.154880655892648D+03 0.209977544194219D+02 -.311376696127855D+02 0.833819969187795D+02
 0.121779446230089D+03 -.209977544194219D+02 0.311376696127855D+02 -.833819969187795D+02
 0.000000000000000D+00 -.000000000000000D+00 0.000000000000000D+00 0.000000000000000D+00
 0.143144948753612D+03 0.000000000000000D+00 0.000000000000000D+00 0.143144948753612D+03
 0.139611289157550D+03 0.000000000000000D+00 0.000000000000000D+00 -.139611289157550D+03
 0.155422666231313D+03 0.236343027743695D+02 -.319384955916253D+02 0.833819969187795D+02
 0.121281070864064D+03 -.189325467313093D+02 0.305103828174431D+02 -.833819969187795D+02
 0.605250081578484D+01 -.470175604306021D+01 0.142811277418218D+01 0.353365959606193D+01
0.220323237348D-03 0.000000000000D+00 0.000000000000D+00 0.169644654271D-02 0.000000000000D+00  5 1 -2 25 -24 21 0 0.86605151D-01 0.52295298D-02 0.12020517D+05 0.12020517D+05 0.12020517D+05 0.12589372D+01  1  2  2  1  5  1        1 0.129289401394D+00 0.100000000000D+01
-.114359946622D-04 0.000000000000D+00 -.846099243858D-06 0.169644654271D-02 0.000000000000D+00  5 1 -2 25 -24 21 2 0.86605151D-01 0.52295298D-02 0.12020517D+05 0.12020517D+05 0.12020517D+05 0.12589372D+01  1  2  3  1  5  1        1 -.106361554171D-01 0.100000000000D+01
0.151506803899D-04 0.000000000000D+00 0.000000000000D+00 0.169644654271D-02 0.000000000000D+00  5 1 -2 25 -24 21 2 0.86605151D-01 0.52295298D-02 0.12020517D+05 0.12020517D+05 0.12020517D+05 0.12589372D+01  1  2 15  1  5  1        1 0.140910341482D-01 0.100000000000D+01
0.263928624462D-03 0.000000000000D+00 0.000000000000D+00 0.169644654271D-02 0.000000000000D+00  5 1 -2 25 -24 21 2 0.90011639D-01 0.52295298D-02 0.12560555D+05 0.12560555D+05 0.12560555D+05 0.12567070D+01  1  2 12  1  5  1        1 0.232622784925D+00 0.100000000000D+01
-.158040823668D-02 0.000000000000D+00 0.000000000000D+00 0.169644654271D-02 0.000000000000D+00  5 1 -2 25 -24 21 2 0.86605151D-01 0.52295298D-02 0.12020517D+05 0.12020517D+05 0.12020517D+05 0.12589372D+01  1  2  4  1  5  1        1 -.146987368606D+01 0.100000000000D+01
-.598291210390D-02 0.000000000000D+00 -.787024048576D-03 0.169644654271D-02 0.000000000000D+00  5 1 -2 25 -24 21 2 0.90199028D-01 0.52295298D-02 0.12020517D+05 0.12020517D+05 0.12020517D+05 0.12589372D+01  1  2  5  1  5  1        1 -.527053193163D+01 0.100000000000D+01
0.601059310508D-02 0.000000000000D+00 0.786373948859D-03 0.169644654271D-02 0.000000000000D+00  5 1 -2 25 -24 21 2 0.86605151D-01 0.52295298D-02 0.12020517D+05 0.12020517D+05 0.12020517D+05 0.12589372D+01  1  2  6  1  5  1        1 0.559020918630D+01 0.100000000000D+01
0.131772770234D-02 0.000000000000D+00 0.000000000000D+00 0.169644654271D-02 0.592321697584D-03  5 1 -2 25 -24 21 2 0.89619643D-01 0.52779666D-02 0.12560555D+05 0.12560555D+05 0.12560555D+05 0.12567070D+01  1  2 11  1  5  1        1 0.115222352685D+01 0.100000000000D+01
0.510304802074D-05 0.000000000000D+00 0.000000000000D+00 0.169644654271D-02 0.000000000000D+00  5 21 -2 25 -24 -1 2 0.90011639D-01 0.52295298D-02 0.12560555D+05 0.12560555D+05 0.12560555D+05 0.12567070D+01  1  2 12  3  5  1        1 0.120724110986D-01 0.100000000000D+01
-.424907018195D-04 0.000000000000D+00 -.565042138777D-05 0.169644654271D-02 0.000000000000D+00  5 21 -2 25 -24 -1 2 0.90199028D-01 0.52295298D-02 0.12020517D+05 0.12020517D+05 0.12020517D+05 0.12589372D+01  1  2  5  3  5  1        1 -.100401481668D+00 0.100000000000D+01
0.916325623416D-05 0.000000000000D+00 0.000000000000D+00 0.169644654271D-02 0.361359623041D-05  5 21 -2 25 -24 -1 2 0.89619643D-01 0.52779666D-02 0.12560555D+05 0.12560555D+05 0.12560555D+05 0.12567070D+01  1  2 11  3  5  1        1 0.215938425680D-01 0.100000000000D+01
  </mgrwgt>
  </event>
  <event>
  4     66 0.47139866E-03 0.17206045E+03 0.75467711E-02 0.11550623E+00
        1 -1    0    0  501    0 0.00000000E+00 0.00000000E+00 0.14122275E+03 0.14122311E+03 0.32000000E+00 0.0000E+00 0.9000E+01
       -2 -1    0    0    0  501 0.00000000E+00 0.00000000E+00 -.21247689E+03 0.21247713E+03 0.32000000E+00 0.0000E+00 0.9000E+01
       25  1    1    2    0    0 0.11409767E+03 0.75613893E+02 -.58751417E+02 0.19445429E+03 0.12500000E+03 0.0000E+00 0.9000E+01
      -24  1    1    2    0    0 -.11409767E+03 -.75613893E+02 -.12502727E+02 0.15924596E+03 0.80419002E+02 0.0000E+00 0.9000E+01
#aMCatNLO 1  0  0  2  1 0.41120273D+02 0.00000000D+00  -5  5  0 0.00000000D+00 0.00000000D+00 0.00000000D+00 0.00000000D+00 0.00000000D+00
  <mgrwgt>
 0.2194972002D+00    3    2    0
 0.173224353784169D+03 0.000000000000000D+00 0.000000000000000D+00 0.173224353784169D+03
 0.173224353784169D+03 0.000000000000000D+00 0.000000000000000D+00 -.173224353784169D+03
 0.186441005839110D+03 0.114097674064306D+03 0.756138932110812D+02 -.199877108463557D+02
 0.160007701729228D+03 -.114097674064306D+03 -.756138932110812D+02 0.199877108463557D+02
 0.000000000000000D+00 -.000000000000000D+00 -.000000000000000D+00 0.000000000000000D+00
 0.375434710313735D+03 0.000000000000000D+00 0.000000000000000D+00 0.375434710313735D+03
 0.176543374463958D+03 0.000000000000000D+00 0.000000000000000D+00 -.176543374463958D+03
 0.203653620177945D+03 0.130320368337932D+03 0.920157053060555D+02 -.199877108463557D+02
 0.145226851887925D+03 -.101404018436091D+03 -.627800845415329D+02 0.199877108463557D+02
 0.203097612711823D+03 -.289163499018404D+02 -.292356207645227D+02 0.198891335849778D+03
0.124655844697D-02 0.000000000000D+00 0.000000000000D+00 0.223635921455D-02 0.000000000000D+00  5 1 -2 25 -24 21 0 0.21726623D-01 0.32688799D-01 0.29604797D+05 0.29604797D+05 0.29604797D+05 0.12155033D+01  1  2  2  2  5  2       -2 0.215227587698D+00 0.100000000000D+01
-.692494199741D-04 0.000000000000D+00 -.478711266274D-05 0.223635921455D-02 0.000000000000D+00  5 1 -2 25 -24 21 2 0.21726623D-01 0.32688799D-01 0.29604797D+05 0.29604797D+05 0.29604797D+05 0.12155033D+01  1  2  3  2  5  2       -2 -.176650033132D-01 0.100000000000D+01
0.859869311228D-04 0.000000000000D+00 0.000000000000D+00 0.223635921455D-02 0.000000000000D+00  5 1 -2 25 -24 21 2 0.21726623D-01 0.32688799D-01 0.29604797D+05 0.29604797D+05 0.29604797D+05 0.12155033D+01  1  2 15  2  5  2       -2 0.219346158241D-01 0.100000000000D+01
  </mgrwgt>
  </event>
  <event>
  4     66 0.47139866E-03 0.14286142E+03 0.75467711E-02 0.11481484E+00
        1 -1    0    0  501    0 0.00000000E+00 0.00000000E+00 0.14622524E+03 0.14622559E+03 0.32000000E+00 0.0000E+00 0.9000E+01
       -2 -1    0    0    0  501 0.00000000E+00 0.00000000E+00 -.20035782E+03 0.20035807E+03 0.32000000E+00 0.0000E+00 0.9000E+01
       25  1    1    2    0    0 -.87984214E+02 0.43346007E+02 0.65847430E+02 0.17199123E+03 0.12500000E+03 0.0000E+00 0.9000E+01
      -24  1    1    2    0    0 0.87984214E+02 -.43346007E+02 -.11998001E+03 0.17459243E+03 0.80419002E+02 0.0000E+00 0.9000E+01
#aMCatNLO 1  0  0  1  1 0.10061803D+03 0.00000000D+00  -5  5  0 0.00000000D+00 0.00000000D+00 0.00000000D+00 0.00000000D+00 0.00000000D+00
  <mgrwgt>
 0.1700958250D+00    4    2    0
 0.171165049781747D+03 0.000000000000000D+00 0.000000000000000D+00 0.171165049781747D+03
 0.171165049781747D+03 0.000000000000000D+00 0.000000000000000D+00 -.171165049781747D+03
 0.184540712712507D+03 -.879842138874445D+02 0.433460071546046D+02 0.938625400189096D+02
 0.157789386850987D+03 0.879842138874445D+02 -.433460071546046D+02 -.938625400189096D+02
 0.000000000000000D+00 -.000000000000000D+00 -.000000000000000D+00 -.000000000000000D+00
 0.201646651305801D+03 0.000000000000000D+00 0.000000000000000D+00 0.201646651305801D+03
 0.287306218343168D+03 0.000000000000000D+00 0.000000000000000D+00 -.287306218343168D+03
 0.188521615752885D+03 -.580759340678370D+02 0.879341177781711D+02 0.938625400189096D+02
 0.168289097548161D+03 0.114125814929502D+03 -.437336793326623D+01 -.938625400189096D+02
 0.132142156347923D+03 -.560498808616650D+02 -.835607498449049D+02 -.856595670373672D+02
0.112024582470D-02 0.000000000000D+00 0.000000000000D+00 0.163572709496D-02 0.000000000000D+00  5 1 -2 25 -24 21 0 0.22496237D-01 0.30824326D-01 0.20409385D+05 0.20409385D+05 0.20409385D+05 0.12328584D+01  1  2  2  1  5  1        1 0.204425850134D+00 0.100000000000D+01
-.597636172409D-04 0.000000000000D+00 -.430203893434D-05 0.163572709496D-02 0.000000000000D+00  5 1 -2 25 -24 21 2 0.22496237D-01 0.30824326D-01 0.20409385D+05 0.20409385D+05 0.20409385D+05 0.12328584D+01  1  2  3  1  5  1        1 -.165762302156D-01 0.100000000000D+01
0.772425197125D-04 0.000000000000D+00 0.000000000000D+00 0.163572709496D-02 0.000000000000D+00  5 1 -2 25 -24 21 2 0.22496237D-01 0.30824326D-01 0.20409385D+05 0.20409385D+05 0.20409385D+05 0.12328584D+01  1  2 15  1  5  1        1 0.214242351500D-01 0.100000000000D+01
-.141251705872D-03 0.000000000000D+00 0.000000000000D+00 0.163572709496D-02 0.000000000000D+00  5 1 -2 25 -24 21 2 0.22496237D-01 0.30824326D-01 0.20409385D+05 0.20409385D+05 0.20409385D+05 0.12328584D+01  1  2  4  1  5  1        1 -.391780300955D-01 0.100000000000D+01
  </mgrwgt>
  </event>
  <event>
  5     66 0.47139866E-03 0.14341122E+03 0.75467711E-02 0.11525481E+00
        3 -1    0    0  501    0 0.00000000E+00 0.00000000E+00 0.11536874E+04 0.11536875E+04 0.50000000E+00 0.0000E+00 0.9000E+01
       -4 -1    0    0    0  502 0.00000000E+00 0.00000000E+00 -.36289290E+02 0.36322377E+02 0.15500000E+01 0.0000E+00 0.9000E+01
       25  1    1    2    0    0 0.24948278E+02 -.12231032E+03 0.57760268E+03 0.60401331E+03 0.12500000E+03 0.0000E+00 0.9000E+01
      -24  1    1    2    0    0 0.55482966E+02 0.77337422E+02 0.39657089E+03 0.41568632E+03 0.80419002E+02 0.0000E+00 0.9000E+01
       21  1    1    2  501  502 -.80431243E+02 0.44972896E+02 0.14322453E+03 0.17031023E+03 0.75000000E+00 0.0000E+00 0.9000E+01
#aMCatNLO 2  0  0  2  1 0.92150672D+02 0.00000000D+00  -5  5  0 0.00000000D+00 0.00000000D+00 0.00000000D+00 0.00000000D+00 0.00000000D+00
  <mgrwgt>
 0.1717088468D-02    2    2    0
 0.143423737050065D+03 0.000000000000000D+00 0.000000000000000D+00 0.143423737050065D+03
 0.143423737050065D+03 0.000000000000000D+00 0.000000000000000D+00 -.143423737050065D+03
 0.159386548077700D+03 -.210091551398280D+02 -.966133528823833D+02 0.188338877019282D+01
 0.127460926022431D+03 0.210091551398280D+02 0.966133528823833D+02 -.188338877019282D+01
 0.000000000000000D+00 -.000000000000000D+00 0.000000000000000D+00 -.000000000000000D+00
 0.174330293315366D+03 0.000000000000000D+00 0.000000000000000D+00 0.174330293315366D+03
 0.240266298937989D+03 0.000000000000000D+00 0.000000000000000D+00 -.240266298937989D+03
 0.176665722713487D+03 0.249482776151762D+02 -.122310317932115D+03 0.188338877019282D+01
 0.124620220702551D+03 0.554829657828643D+02 0.773374217844106D+02 -.188338877019282D+01
 0.113310648837317D+03 -.804312433980405D+02 0.449728961477047D+02 -.659360056226239D+02
-.647161185851D-04 0.000000000000D+00 0.000000000000D+00 0.246646853619D-02 0.000000000000D+00  5 3 -4 25 -24 21 2 0.14602471D+00 0.57447711D-02 0.38693318D+05 0.38693318D+05 0.38693318D+05 0.12034678D+01  1  2 13  2  5  2       -4 -.137175096413D-02 0.100000000000D+01
0.229709748839D-03 0.000000000000D+00 0.000000000000D+00 0.246646853619D-02 0.259361713791D-05  5 3 -4 25 -24 21 2 0.17749175D+00 0.55854843D-02 0.38693318D+05 0.38693318D+05 0.38693318D+05 0.12034678D+01  1  2  1  2  5  2       -4 0.308883943198D-02 0.100000000000D+01
  </mgrwgt>
  </event>
  <event>
  4     66 0.47139866E-03 0.10634014E+03 0.75467711E-02 0.12340589E+00
        1 -1    0    0  501    0 0.00000000E+00 0.00000000E+00 0.26733810E+04 0.26733810E+04 0.32000000E+00 0.0000E+00 0.9000E+01
       -2 -1    0    0    0  501 0.00000000E+00 0.00000000E+00 -.44945910E+01 0.45059681E+01 0.32000000E+00 0.0000E+00 0.9000E+01
       25  1    1    2    0    0 0.15904932E+02 0.21740926E+02 0.12665822E+04 0.12730204E+04 0.12500000E+03 0.0000E+00 0.9000E+01
      -24  1    1    2    0    0 -.15904932E+02 -.21740926E+02 0.14023043E+04 0.14048666E+04 0.80419002E+02 0.0000E+00 0.9000E+01
#aMCatNLO 1  0  0  2  1 0.35662801D+02 0.00000000D+00  -5  5  0 0.00000000D+00 0.00000000D+00 0.00000000D+00 0.00000000D+00 0.00000000D+00
  <mgrwgt>
 0.2226135592D+00    4    2    0
 0.109685974979356D+03 0.000000000000000D+00 0.000000000000000D+00 0.109685974979356D+03
 0.109685974979356D+03 0.000000000000000D+00 0.000000000000000D+00 -.109685974979356D+03
 0.130558707448920D+03 0.159049323365648D+02 0.217409260860666D+02 -.263617402881929D+02
 0.888132425097923D+02 -.159049323365648D+02 -.217409260860666D+02 0.263617402881929D+02
 0.000000000000000D+00 -.000000000000000D+00 0.000000000000000D+00 0.000000000000000D+00
 0.158641913604556D+03 0.000000000000000D+00 0.000000000000000D+00 0.158641913604556D+03
 0.117817546631751D+03 0.000000000000000D+00 0.000000000000000D+00 -.117817546631751D+03
 0.132865443925129D+03 0.346157544100048D+02 0.116204296403282D+02 -.263617402881929D+02
 0.893864127106831D+02 -.324754300841549D+01 -.285871813283576D+02 0.263617402881929D+02
 0.542076036004942D+02 -.313682114015893D+02 0.169667516880294D+02 0.408243669728051D+02
0.627377715778D-03 0.000000000000D+00 0.000000000000D+00 0.287406569447D-02 0.000000000000D+00  5 1 -2 25 -24 21 0 0.41129026D+00 0.69235217D-03 0.11308225D+05 0.11308225D+05 0.11308225D+05 0.12620576D+01  1  2  2  2  5  2       -2 0.241550680852D+00 0.100000000000D+01
-.348136484424D-04 0.000000000000D+00 -.240929562093D-05 0.287406569447D-02 0.000000000000D+00  5 1 -2 25 -24 21 2 0.41129026D+00 0.69235217D-03 0.11308225D+05 0.11308225D+05 0.11308225D+05 0.12620576D+01  1  2  3  2  5  2       -2 -.213494674867D-01 0.100000000000D+01
0.433980588509D-04 0.000000000000D+00 0.000000000000D+00 0.287406569447D-02 0.000000000000D+00  5 1 -2 25 -24 21 2 0.41129026D+00 0.69235217D-03 0.11308225D+05 0.11308225D+05 0.11308225D+05 0.12620576D+01  1  2 15  2  5  2       -2 0.266138565728D-01 0.100000000000D+01
-.394643513817D-04 0.000000000000D+00 0.000000000000D+00 0.287406569447D-02 0.000000000000D+00  5 1 -2 25 -24 21 2 0.41129026D+00 0.69235217D-03 0.11308225D+05 0.11308225D+05 0.11308225D+05 0.12620576D+01  1  2  4  2  5  2       -2 -.242015107409D-01 0.100000000000D+01
  </mgrwgt>
  </event>
  <event>
  4     66 0.47139866E-03 0.92344499E+02 0.75467711E-02 0.12217395E+00
        3 -1    0    0  501    0 0.00000000E+00 0.00000000E+00 0.17878763E+04 0.17878763E+04 0.50000000E+00 0.0000E+00 0.9000E+01
       -4 -1    0    0    0  501 0.00000000E+00 0.00000000E+00 -.94623798E+01 0.95884895E+01 0.15500000E+01 0.0000E+00 0.9000E+01
       25  1    1    2    0    0 0.77446580E+02 0.11719730E+02 0.10951130E+04 0.11050035E+04 0.12500000E+03 0.0000E+00 0.9000E+01
      -24  1    1    2    0    0 -.77446580E+02 -.11719730E+02 0.68330091E+03 0.69246131E+03 0.80419002E+02 0.0000E+00 0.9000E+01
#aMCatNLO 1  0  0  1  2 0.79583934D+01 0.00000000D+00  -5  5  0 0.00000000D+00 0.00000000D+00 0.00000000D+00 0.00000000D+00 0.00000000D+00
  <mgrwgt>
 0.1395312475D-01   11    2    0
 0.130502727869611D+03 0.000000000000000D+00 0.000000000000000D+00 0.130502727869611D+03
 0.130502727869611D+03 0.000000000000000D+00 0.000000000000000D+00 -.130502727869611D+03
 0.148046008755623D+03 0.774465797553331D+02 0.117197301331950D+02 0.125417669519096D+02
 0.112959446983600D+03 -.774465797553331D+02 -.117197301331950D+02 -.125417669519096D+02
 0.000000000000000D+00 0.000000000000000D+00 -.000000000000000D+00 0.000000000000000D+00
 0.138544055138216D+03 0.000000000000000D+00 0.000000000000000D+00 0.138544055138216D+03
 0.132547422448884D+03 0.000000000000000D+00 0.000000000000000D+00 -.132547422448884D+03
 0.146940960141406D+03 0.746757098475132D+02 0.152606752069599D+02 0.125417669519096D+02
 0.114185798254932D+03 -.795801991727912D+02 -.899313905643028D+01 -.125417669519096D+02
 0.996471919076157D+01 0.490448932527805D+01 -.626753615052964D+01 0.599663268933238D+01
0.342758646259D-03 0.000000000000D+00 0.000000000000D+00 0.259264269500D-02 0.000000000000D+00  5 3 -4 25 -24 21 0 0.27506759D+00 0.14654569D-02 0.16870743D+05 0.16870743D+05 0.16870743D+05 0.12420452D+01  1  2  2  1  5  1        3 0.689296497919D-02 0.100000000000D+01
-.190416298991D-04 0.000000000000D+00 -.131628345206D-05 0.259264269500D-02 0.000000000000D+00  5 3 -4 25 -24 21 2 0.27506759D+00 0.14654569D-02 0.16870743D+05 0.16870743D+05 0.16870743D+05 0.12420452D+01  1  2  3  1  5  1        3 -.590740300806D-03 0.100000000000D+01
0.237012947587D-04 0.000000000000D+00 0.000000000000D+00 0.259264269500D-02 0.000000000000D+00  5 3 -4 25 -24 21 2 0.27506759D+00 0.14654569D-02 0.16870743D+05 0.16870743D+05 0.16870743D+05 0.12420452D+01  1  2 15  1  5  1        3 0.735299975341D-03 0.100000000000D+01
0.140928055242D-02 0.000000000000D+00 0.000000000000D+00 0.259264269500D-02 0.000000000000D+00  5 3 -4 25 -24 21 2 0.29408422D+00 0.14654569D-02 0.17936987D+05 0.17936987D+05 0.17936987D+05 0.12390654D+01  1  2 12  1  5  1        3 0.347662025260D-01 0.100000000000D+01
-.142396406981D-02 0.000000000000D+00 0.000000000000D+00 0.259264269500D-02 0.000000000000D+00  5 3 -4 25 -24 21 2 0.27506759D+00 0.14654569D-02 0.16870743D+05 0.16870743D+05 0.16870743D+05 0.12420452D+01  1  2  4  1  5  1        3 -.441765209907D-01 0.100000000000D+01
-.431796357718D-02 0.000000000000D+00 -.604271350950D-03 0.259264269500D-02 0.000000000000D+00  5 3 -4 25 -24 21 2 0.29392659D+00 0.14654569D-02 0.16870743D+05 0.16870743D+05 0.16870743D+05 0.12420452D+01  1  2  5  1  5  1        3 -.106869619810D+00 0.100000000000D+01
0.434979344838D-02 0.000000000000D+00 0.602945157924D-03 0.259264269500D-02 0.000000000000D+00  5 3 -4 25 -24 21 2 0.27506759D+00 0.14654569D-02 0.16870743D+05 0.16870743D+05 0.16870743D+05 0.12420452D+01  1  2  6  1  5  1        3 0.134946341450D+00 0.100000000000D+01
0.909457637632D-05 0.000000000000D+00 0.000000000000D+00 0.259264269500D-02 0.335776276160D-03  5 3 -4 25 -24 21 2 0.29201673D+00 0.14884174D-02 0.17936987D+05 0.17936987D+05 0.17936987D+05 0.12390654D+01  1  2 11  1  5  1        3 0.224577754696D-03 0.100000000000D+01
0.183110174030D-04 0.000000000000D+00 0.000000000000D+00 0.259264269500D-02 0.000000000000D+00  5 21 -4 25 -24 -3 2 0.29408422D+00 0.14654569D-02 0.17936987D+05 0.17936987D+05 0.17936987D+05 0.12390654D+01  1  2 12  3  5  1        3 0.735503005092D-02 0.100000000000D+01
-.478193727557D-04 0.000000000000D+00 -.682018343046D-05 0.259264269500D-02 0.000000000000D+00  5 21 -4 25 -24 -3 2 0.29392659D+00 0.14654569D-02 0.16870743D+05 0.16870743D+05 0.16870743D+05 0.12420452D+01  1  2  5  3  5  1        3 -.193735554678D-01 0.100000000000D+01
0.107078656775D-06 0.000000000000D+00 0.000000000000D+00 0.259264269500D-02 0.349097483093D-05  5 21 -4 25 -24 -3 2 0.29201673D+00 0.14884174D-02 0.17936987D+05 0.17936987D+05 0.17936987D+05 0.12390654D+01  1  2 11  3  5  1        3 0.431445830815D-04 0.100000000000D+01
  </mgrwgt>
  </event>
  <event>
  4     66 0.47139866E-03 0.13250700E+03 0.75467711E-02 0.11680234E+00
        3 -1    0    0  501    0 0.00000000E+00 0.00000000E+00 0.27298851E+02 0.27303430E+02 0.50000000E+00 0.0000E+00 0.9000E+01
       -4 -1    0    0    0  501 0.00000000E+00 0.00000000E+00 -.64992395E+03 0.64992580E+03 0.15500000E+01 0.0000E+00 0.9000E+01
       25  1    1    2    0    0 0.79883184E+02 -.20717138E+02 -.38587774E+03 0.41392892E+03 0.12500000E+03 0.0000E+00 0.9000E+01
      -24  1    1    2    0    0 -.79883184E+02 0.20717138E+02 -.23674736E+03 0.26330031E+03 0.80419002E+02 0.0000E+00 0.9000E+01
#aMCatNLO 1  0  0  1  1 0.82179808D+02 0.00000000D+00  -5  5  0 0.00000000D+00 0.00000000D+00 0.00000000D+00 0.00000000D+00 0.00000000D+00
  <mgrwgt>
 0.4237195772D-01    7    2    0
 0.133207933096246D+03 0.000000000000000D+00 0.000000000000000D+00 0.133207933096246D+03
 0.133207933096246D+03 0.000000000000000D+00 0.000000000000000D+00 -.133207933096246D+03
 0.150394942594796D+03 0.798831840546154D+02 -.207171384705327D+02 -.135320300391797D+02
 0.116020923597697D+03 -.798831840546154D+02 0.207171384705327D+02 0.135320300391797D+02
 0.000000000000000D+00 -.000000000000000D+00 0.000000000000000D+00 0.000000000000000D+00
 0.191447823813969D+03 0.000000000000000D+00 0.000000000000000D+00 0.191447823813969D+03
 0.171841191575006D+03 0.000000000000000D+00 0.000000000000000D+00 -.171841191575006D+03
 0.179574378412455D+03 0.115721837692408D+03 -.552023353340282D+02 -.135320300391797D+02
 0.992283018953137D+02 -.565045183813980D+02 -.177862535739690D+01 0.135320300391797D+02
 0.844863350812056D+02 -.592173193110097D+02 0.569809606914251D+02 0.196066322389625D+02
0.891406524437D-03 0.000000000000D+00 0.000000000000D+00 0.255492276906D-02 0.000000000000D+00  5 3 -4 25 -24 21 0 0.42003176D-02 0.99988794D-01 0.17558104D+05 0.17558104D+05 0.17558104D+05 0.12401010D+01  1  2  2  1  5  1        3 0.446646206335D-01 0.100000000000D+01
-.495209086985D-04 0.000000000000D+00 -.342323576657D-05 0.255492276906D-02 0.000000000000D+00  5 3 -4 25 -24 21 2 0.42003176D-02 0.99988794D-01 0.17558104D+05 0.17558104D+05 0.17558104D+05 0.12401010D+01  1  2  3  1  5  1        3 -.381584342840D-02 0.100000000000D+01
0.616573961546D-04 0.000000000000D+00 0.000000000000D+00 0.255492276906D-02 0.000000000000D+00  5 3 -4 25 -24 21 2 0.42003176D-02 0.99988794D-01 0.17558104D+05 0.17558104D+05 0.17558104D+05 0.12401010D+01  1  2 15  1  5  1        3 0.475102287320D-02 0.100000000000D+01
-.391791498749D-03 0.000000000000D+00 0.000000000000D+00 0.255492276906D-02 0.000000000000D+00  5 3 -4 25 -24 21 2 0.42003176D-02 0.99988794D-01 0.17558104D+05 0.17558104D+05 0.17558104D+05 0.12401010D+01  1  2  4  1  5  1        3 -.301895715384D-01 0.100000000000D+01
-.457403043395D-03 0.000000000000D+00 -.358513299371D-03 0.255492276906D-02 0.000000000000D+00  5 3 -4 25 -24 21 2 0.78061798D-02 0.99988794D-01 0.17558104D+05 0.17558104D+05 0.17558104D+05 0.12401010D+01  1  2  5  1  5  1        3 -.131277550918D-01 0.100000000000D+01
0.616649638607D-03 0.000000000000D+00 0.299191216415D-03 0.255492276906D-02 0.000000000000D+00  5 3 -4 25 -24 21 2 0.42003176D-02 0.99988794D-01 0.17558104D+05 0.17558104D+05 0.17558104D+05 0.12401010D+01  1  2  6  1  5  1        3 0.475160600430D-01 0.100000000000D+01
-.109671703953D-04 0.000000000000D+00 -.242191192264D-04 0.255492276906D-02 0.000000000000D+00  5 21 -4 25 -24 -3 2 0.78061798D-02 0.99988794D-01 0.17558104D+05 0.17558104D+05 0.17558104D+05 0.12401010D+01  1  2  5  3  5  1        3 -.742657577265D-02 0.100000000000D+01
  </mgrwgt>
  </event>
  <event>
  4     66 0.47139866E-03 0.10714610E+03 0.75467711E-02 0.10701347E+00
        1 -1    0    0  501    0 0.00000000E+00 0.00000000E+00 0.59118459E+03 0.59118467E+03 0.32000000E+00 0.0000E+00 0.9000E+01
       -2 -1    0    0    0  501 0.00000000E+00 0.00000000E+00 -.20939248E+02 0.20941693E+02 0.32000000E+00 0.0000E+00 0.9000E+01
       25  1    1    2    0    0 -.19229652E+02 0.22824747E+02 0.41881433E+03 0.43808811E+03 0.12500000E+03 0.0000E+00 0.9000E+01
      -24  1    1    2    0    0 0.19229652E+02 -.22824747E+02 0.15143100E+03 0.17403825E+03 0.80419002E+02 0.0000E+00 0.9000E+01
#aMCatNLO 1  0  0  2  1 0.29766288D+03 0.00000000D+00  -5  5  0 0.00000000D+00 0.00000000D+00 0.00000000D+00 0.00000000D+00 0.00000000D+00
  <mgrwgt>
 0.2571229241D+00    3    2    0
 0.111264260488417D+03 0.000000000000000D+00 0.000000000000000D+00 0.111264260488417D+03
 0.111264260488417D+03 0.000000000000000D+00 0.000000000000000D+00 -.111264260488417D+03
 0.131840912877579D+03 -.192296521514145D+02 0.228247467027261D+02 0.294325962919585D+02
 0.906876080992544D+02 0.192296521514145D+02 -.228247467027261D+02 -.294325962919585D+02
 0.000000000000000D+00 -.000000000000000D+00 -.000000000000000D+00 0.000000000000000D+00
 0.373708784418503D+03 0.000000000000000D+00 0.000000000000000D+00 0.373708784418503D+03
 0.303719534688956D+03 0.000000000000000D+00 0.000000000000000D+00 -.303719534688956D+03
 0.207929444256733D+03 0.138332825136066D+03 0.872204422959595D+02 0.294325962919585D+02
 0.163718419359754D+03 0.137205935489936D+03 0.253920937524228D+02 -.294325962919585D+02
 0.305780455490972D+03 -.275538760626002D+03 -.112612536048382D+03 0.699892497295466D+02
0.223943131758D-03 0.000000000000D+00 0.000000000000D+00 0.280230697903D-02 0.000000000000D+00  5 1 -2 25 -24 21 0 0.90951669D-01 0.32216176D-02 0.11480286D+05 0.11480286D+05 0.11480286D+05 0.12612839D+01  1  2  2  2  5  2       -2 0.251649451618D+00 0.100000000000D+01
-.124197686430D-04 0.000000000000D+00 -.860000591532D-06 0.280230697903D-02 0.000000000000D+00  5 1 -2 25 -24 21 2 0.90951669D-01 0.32216176D-02 0.11480286D+05 0.11480286D+05 0.11480286D+05 0.12612839D+01  1  2  3  2  5  2       -2 -.222022748067D-01 0.100000000000D+01
0.154815838334D-04 0.000000000000D+00 0.000000000000D+00 0.280230697903D-02 0.000000000000D+00  5 1 -2 25 -24 21 2 0.90951669D-01 0.32216176D-02 0.11480286D+05 0.11480286D+05 0.11480286D+05 0.12612839D+01  1  2 15  2  5  2       -2 0.276757473180D-01 0.100000000000D+01
  </mgrwgt>
  </event>
  <event>
  4     66 0.47139866E-03 0.79453959E+02 0.75467711E-02 0.11500355E+00
        1 -1    0    0  501    0 0.00000000E+00 0.00000000E+00 0.16331756E+03 0.16331788E+03 0.32000000E+00 0.0000E+00 0.9000E+01
       -2 -1    0    0    0  501 0.00000000E+00 0.00000000E+00 -.21566542E+03 0.21566566E+03 0.32000000E+00 0.0000E+00 0.9000E+01
       25  1    1    2    0    0 -.11063430E+03 -.10987880E+03 -.31293658E+02 0.20228097E+03 0.12500000E+03 0.0000E+00 0.9000E+01
      -24  1    1    2    0    0 0.11063430E+03 0.10987880E+03 -.21054199E+02 0.17670256E+03 0.80419002E+02 0.0000E+00 0.9000E+01
#aMCatNLO 1  0  0  1  2 0.23286754D+02 0.00000000D+00  -5  5  0 0.00000000D+00 0.00000000D+00 0.00000000D+00 0.00000000D+00 0.00000000D+00
  <mgrwgt>
 0.2992963221D+00    9    2    0
 0.187675397777620D+03 0.000000000000000D+00 0.000000000000000D+00 0.187675397777620D+03
 0.187675397777620D+03 0.000000000000000D+00 0.000000000000000D+00 -.187675397777620D+03
 0.199874364922585D+03 -.110634303485815D+03 -.109878797015359D+03 -.338564792509231D+01
 0.175476430632655D+03 0.110634303485815D+03 0.109878797015359D+03 0.338564792509231D+01
 0.000000000000000D+00 -.000000000000000D+00 0.000000000000000D+00 0.000000000000000D+00
 0.200527048233650D+03 0.000000000000000D+00 0.000000000000000D+00 0.200527048233650D+03
 0.198889657072339D+03 0.000000000000000D+00 0.000000000000000D+00 -.198889657072339D+03
 0.199907680181469D+03 -.101590615628816D+03 -.118346798857519D+03 -.338564792509231D+01
 0.176164776429327D+03 0.118588971168550D+03 0.102430492556350D+03 0.338564792509231D+01
 0.233442486951927D+02 -.169983555397347D+02 0.159163063011690D+02 0.163739116131131D+01
0.109578558934D-02 0.000000000000D+00 0.000000000000D+00 0.220343692213D-02 0.000000000000D+00  5 1 -2 25 -24 21 0 0.25125821D-01 0.33179338D-01 0.35210544D+05 0.35210544D+05 0.35210544D+05 0.12076658D+01  1  2  2  1  5  1        1 0.153516640770D+00 0.100000000000D+01
-.608769752082D-04 0.000000000000D+00 -.420810519002D-05 0.220343692213D-02 0.000000000000D+00  5 1 -2 25 -24 21 2 0.25125821D-01 0.33179338D-01 0.35210544D+05 0.35210544D+05 0.35210544D+05 0.12076658D+01  1  2  3  1  5  1        1 -.124387421051D-01 0.100000000000D+01
0.756465170303D-04 0.000000000000D+00 0.000000000000D+00 0.220343692213D-02 0.000000000000D+00  5 1 -2 25 -24 21 2 0.25125821D-01 0.33179338D-01 0.35210544D+05 0.35210544D+05 0.35210544D+05 0.12076658D+01  1  2 15  1  5  1        1 0.154565418743D-01 0.100000000000D+01
0.197032638513D-02 0.000000000000D+00 0.000000000000D+00 0.220343692213D-02 0.000000000000D+00  5 1 -2 25 -24 21 2 0.27549874D-01 0.33179338D-01 0.39859724D+05 0.39859724D+05 0.39859724D+05 0.12021552D+01  1  2 12  1  5  1        1 0.355684129045D+00 0.100000000000D+01
-.160980733458D-02 0.000000000000D+00 0.000000000000D+00 0.220343692213D-02 0.000000000000D+00  5 1 -2 25 -24 21 2 0.25125821D-01 0.33179338D-01 0.35210544D+05 0.35210544D+05 0.35210544D+05 0.12076658D+01  1  2  4  1  5  1        1 -.328925315445D+00 0.100000000000D+01
-.674581244211D-02 0.000000000000D+00 -.146922224676D-02 0.220343692213D-02 0.000000000000D+00  5 1 -2 25 -24 21 2 0.28359798D-01 0.33179338D-01 0.35210544D+05 0.35210544D+05 0.35210544D+05 0.12076658D+01  1  2  5  1  5  1        1 -.118295589791D+01 0.100000000000D+01
0.688388552245D-02 0.000000000000D+00 0.145851858333D-02 0.220343692213D-02 0.000000000000D+00  5 1 -2 25 -24 21 2 0.25125821D-01 0.33179338D-01 0.35210544D+05 0.35210544D+05 0.35210544D+05 0.12076658D+01  1  2  6  1  5  1        1 0.140655603209D+01 0.100000000000D+01
0.297952255387D-04 0.000000000000D+00 0.000000000000D+00 0.220343692213D-02 0.000000000000D+00  5 21 -2 25 -24 -1 2 0.27549874D-01 0.33179338D-01 0.39859724D+05 0.39859724D+05 0.39859724D+05 0.12021552D+01  1  2 12  3  5  1        1 0.369249636517D-01 0.100000000000D+01
-.122049854604D-03 0.000000000000D+00 -.280866539069D-04 0.220343692213D-02 0.000000000000D+00  5 21 -2 25 -24 -1 2 0.28359798D-01 0.33179338D-01 0.35210544D+05 0.35210544D+05 0.35210544D+05 0.12076658D+01  1  2  5  3  5  1        1 -.144522029885D+00 0.100000000000D+01
  </mgrwgt>
  </event>
  <event>
  4     66 0.47139866E-03 0.15457483E+03 0.75467711E-02 0.11835489E+00
        1 -1    0    0  501    0 0.00000000E+00 0.00000000E+00 0.54128629E+03 0.54128638E+03 0.32000000E+00 0.0000E+00 0.9000E+01
       -2 -1    0    0    0  501 0.00000000E+00 0.00000000E+00 -.50701725E+02 0.50702735E+02 0.32000000E+00 0.0000E+00 0.9000E+01
       25  1    1    2    0    0 0.54324876E+02 0.10057560E+03 0.15970869E+03 0.23280573E+03 0.12500000E+03 0.0000E+00 0.9000E+01
      -24  1    1    2    0    0 -.54324876E+02 -.10057560E+03 0.33087587E+03 0.35918339E+03 0.80419002E+02 0.0000E+00 0.9000E+01
#aMCatNLO 1  0  0  2  2 0.19500287D+02 0.00000000D+00  -5  5  0 0.00000000D+00 0.00000000D+00 0.00000000D+00 0.00000000D+00 0.00000000D+00
  <mgrwgt>
 0.1013000530D+00    4    2    0
 0.165663742560293D+03 0.000000000000000D+00 0.000000000000000D+00 0.165663742560293D+03
 0.165663742560293D+03 0.000000000000000D+00 0.000000000000000D+00 -.165663742560293D+03
 0.179483580118135D+03 0.543248763018901D+02 0.100575602855195D+03 -.593524342981945D+02
 0.151843905002451D+03 -.543248763018901D+02 -.100575602855195D+03 0.593524342981945D+02
 0.000000000000000D+00 -.000000000000000D+00 0.000000000000000D+00 0.000000000000000D+00
 0.184183479162219D+03 0.000000000000000D+00 0.000000000000000D+00 0.184183479162219D+03
 0.171164313244807D+03 0.000000000000000D+00 0.000000000000000D+00 -.171164313244807D+03
 0.178707594191064D+03 0.626611031739204D+02 0.941396776787751D+02 -.593524342981945D+02
 0.153193239757990D+03 -.472257096403344D+02 -.106056464418836D+03 0.593524342981945D+02
 0.234469584579721D+02 -.154353935335860D+02 0.119167867400607D+02 0.130191659174125D+02
0.626495864625D-03 0.000000000000D+00 0.000000000000D+00 0.202897029628D-02 0.000000000000D+00  5 1 -2 25 -24 21 0 0.83274899D-01 0.78003504D-02 0.23893379D+05 0.23893379D+05 0.23893379D+05 0.12254113D+01  1  2  2  2  5  2       -2 0.214554570389D+00 0.100000000000D+01
-.346022000925D-04 0.000000000000D+00 -.240590908031D-05 0.202897029628D-02 0.000000000000D+00  5 1 -2 25 -24 21 2 0.83274899D-01 0.78003504D-02 0.23893379D+05 0.23893379D+05 0.23893379D+05 0.12254113D+01  1  2  3  2  5  2       -2 -.177945519966D-01 0.100000000000D+01
0.433445873538D-04 0.000000000000D+00 0.000000000000D+00 0.202897029628D-02 0.000000000000D+00  5 1 -2 25 -24 21 2 0.83274899D-01 0.78003504D-02 0.23893379D+05 0.23893379D+05 0.23893379D+05 0.12254113D+01  1  2 15  2  5  2       -2 0.222904182791D-01 0.100000000000D+01
-.228970211616D-03 0.000000000000D+00 0.000000000000D+00 0.202897029628D-02 0.000000000000D+00  5 1 -2 25 -24 21 2 0.83274899D-01 0.78003504D-02 0.23893379D+05 0.23893379D+05 0.23893379D+05 0.12254113D+01  1  2  4  2  5  2       -2 -.117750383657D+00 0.100000000000D+01
  </mgrwgt>
  </event>
  <event>
  4     66 0.47139866E-03 0.18553576E+03 0.75467711E-02 0.10514526E+00
        1 -1    0    0  501    0 0.00000000E+00 0.00000000E+00 0.15182591E+04 0.15182591E+04 0.32000000E+00 0.0000E+00 0.9000E+01
       -2 -1    0    0    0  501 0.00000000E+00 0.00000000E+00 -.65760385E+02 0.65761163E+02 0.32000000E+00 0.0000E+00 0.9000E+01
       25  1    1    2    0    0 0.37148787E+02 -.29493487E+03 0.79791691E+03 0.86061780E+03 0.12500000E+03 0.0000E+00 0.9000E+01
      -24  1    1    2    0    0 -.37148787E+02 0.29493487E+03 0.65458176E+03 0.72340245E+03 0.80419002E+02 0.0000E+00 0.9000E+01
#aMCatNLO 1  0  0  2  1 0.11616979D+03 0.00000000D+00  -5  5  0 0.00000000D+00 0.00000000D+00 0.00000000D+00 0.00000000D+00 0.00000000D+00
  <mgrwgt>
 0.3627033969D+00    9    2    0
 0.315977757364056D+03 0.000000000000000D+00 0.000000000000000D+00 0.315977757364056D+03
 0.315977757364056D+03 0.000000000000000D+00 0.000000000000000D+00 -.315977757364056D+03
 0.323223349682029D+03 0.371487873531943D+02 -.294934865281827D+03 0.219482714364650D+02
 0.308732165046083D+03 -.371487873531943D+02 0.294934865281827D+03 -.219482714364650D+02
 0.000000000000000D+00 -.000000000000000D+00 0.000000000000000D+00 -.000000000000000D+00
 0.370820873484981D+03 0.000000000000000D+00 0.000000000000000D+00 0.370820873484981D+03
 0.389363830978827D+03 0.000000000000000D+00 0.000000000000000D+00 -.389363830978827D+03
 0.352294207735325D+03 0.955494646772327D+02 -.314443607002442D+03 0.219482714364650D+02
 0.290250104513390D+03 0.146351668360981D+02 0.277636439410056D+03 -.219482714364650D+02
 0.117640392215094D+03 -.110184631513331D+03 0.368071675923855D+02 -.185429574938459D+02
0.661949422988D-02 0.000000000000D+00 0.000000000000D+00 0.198830310117D-02 0.000000000000D+00  5 1 -2 25 -24 21 0 0.23357838D+00 0.10117045D-01 0.99359962D+05 0.99359962D+05 0.99359962D+05 0.11638279D+01  1  2  2  2  5  2       -2 0.262868119093D+00 0.100000000000D+01
-.367747061804D-03 0.000000000000D+00 -.254206007956D-04 0.198830310117D-02 0.000000000000D+00  5 1 -2 25 -24 21 2 0.23357838D+00 0.10117045D-01 0.99359962D+05 0.99359962D+05 0.99359962D+05 0.11638279D+01  1  2  3  2  5  2       -2 -.197806179426D-01 0.100000000000D+01
0.455886237172D-03 0.000000000000D+00 0.000000000000D+00 0.198830310117D-02 0.000000000000D+00  5 1 -2 25 -24 21 2 0.23357838D+00 0.10117045D-01 0.99359962D+05 0.99359962D+05 0.99359962D+05 0.11638279D+01  1  2 15  2  5  2       -2 0.245215051850D-01 0.100000000000D+01
0.287283413370D-02 0.000000000000D+00 0.000000000000D+00 0.198830310117D-02 0.000000000000D+00  5 1 -2 25 -24 21 2 0.23357838D+00 0.13171222D-01 0.14333747D+06 0.14333747D+06 0.14333747D+06 0.11494757D+01  1  2 12  2  5  2       -2 0.974193360070D-01 0.100000000000D+01
-.299251280086D-02 0.000000000000D+00 0.000000000000D+00 0.198830310117D-02 0.000000000000D+00  5 1 -2 25 -24 21 2 0.23357838D+00 0.10117045D-01 0.99359962D+05 0.99359962D+05 0.99359962D+05 0.11638279D+01  1  2  4  2  5  2       -2 -.160963223233D+00 0.100000000000D+01
-.602673275567D-02 0.000000000000D+00 -.263400858797D-02 0.198830310117D-02 0.000000000000D+00  5 1 -2 25 -24 21 2 0.23357838D+00 0.14855572D-01 0.99359962D+05 0.99359962D+05 0.99359962D+05 0.11638279D+01  1  2  5  2  5  2       -2 -.173233148057D+00 0.100000000000D+01
0.671972222984D-02 0.000000000000D+00 0.245092720696D-02 0.198830310117D-02 0.000000000000D+00  5 1 -2 25 -24 21 2 0.23357838D+00 0.10117045D-01 0.99359962D+05 0.99359962D+05 0.99359962D+05 0.11638279D+01  1  2  6  2  5  2       -2 0.361444786145D+00 0.100000000000D+01
0.101145150210D-03 0.000000000000D+00 0.000000000000D+00 0.198830310117D-02 0.000000000000D+00  5 1 21 25 -24 2 2 0.23357838D+00 0.13171222D-01 0.14333747D+06 0.14333747D+06 0.14333747D+06 0.11494757D+01  1  2 12  4  5  2       -2 0.493144091255D-01 0.100000000000D+01
-.193464635874D-03 0.000000000000D+00 -.121726714708D-03 0.198830310117D-02 0.000000000000D+00  5 1 21 25 -24 2 2 0.23357838D+00 0.14855572D-01 0.99359962D+05 0.99359962D+05 0.99359962D+05 0.11638279D+01  1  2  5  4  5  2       -2 -.788877694589D-01 0.100000000000D+01
  </mgrwgt>
  </event>
  <event>
  4     66 0.47139866E-03 0.12238370E+03 0.75467711E-02 0.11735702E+00
        1 -1    0    0  501    0 0.00000000E+00 0.00000000E+00 0.70271269E+03 0.70271276E+03 0.32000000E+00 0.0000E+00 0.9000E+01
       -2 -1    0    0    0  501 0.00000000E+00 0.00000000E+00 -.23988773E+02 0.23990907E+02 0.32000000E+00 0.0000E+00 0.9000E+01
       25  1    1    2    0    0 0.65197044E+02 -.55645559E+01 0.50553142E+03 0.52485106E+03 0.12500000E+03 0.0000E+00 0.9000E+01
      -24  1    1    2    0    0 -.65197044E+02 0.55645559E+01 0.17319250E+03 0.20185261E+03 0.80419002E+02 0.0000E+00 0.9000E+01
#aMCatNLO 1  0  0  2  1 0.88192954D+02 0.00000000D+00  -5  5  0 0.00000000D+00 0.00000000D+00 0.00000000D+00 0.00000000D+00 0.00000000D+00
  <mgrwgt>
 0.1376595646D+00    4    2    0
 0.129838426357595D+03 0.000000000000000D+00 0.000000000000000D+00 0.129838426357595D+03
 0.129838426357595D+03 0.000000000000000D+00 0.000000000000000D+00 -.129838426357595D+03
 0.147471465170788D+03 0.651970442246424D+02 -.556455594854304D+01 0.429093717162648D+02
 0.112205387544403D+03 -.651970442246424D+02 0.556455594854304D+01 -.429093717162648D+02
 0.000000000000000D+00 -.000000000000000D+00 -.000000000000000D+00 0.000000000000000D+00
 0.190859032264877D+03 0.000000000000000D+00 0.000000000000000D+00 0.190859032264877D+03
 0.173307908904094D+03 0.000000000000000D+00 0.000000000000000D+00 -.173307908904094D+03
 0.156737915206792D+03 0.717040798121676D+02 0.442615501375329D+02 0.429093717162648D+02
 0.117506619873792D+03 -.602835066956655D+02 0.431888226186183D+02 -.429093717162648D+02
 0.899224060883860D+02 -.114205731165021D+02 -.874503727561512D+02 0.175511233607832D+02
0.259950835703D-03 0.000000000000D+00 0.000000000000D+00 0.236972983454D-02 0.000000000000D+00  5 1 -2 25 -24 21 0 0.10810981D+00 0.36907502D-02 0.14977771D+05 0.14977771D+05 0.14977771D+05 0.12478960D+01  1  2  2  2  5  2       -2 0.190087577310D+00 0.100000000000D+01
-.143803213534D-04 0.000000000000D+00 -.998279655726D-06 0.236972983454D-02 0.000000000000D+00  5 1 -2 25 -24 21 2 0.10810981D+00 0.36907502D-02 0.14977771D+05 0.14977771D+05 0.14977771D+05 0.12478960D+01  1  2  3  2  5  2       -2 -.163752474149D-01 0.100000000000D+01
0.179632102742D-04 0.000000000000D+00 0.000000000000D+00 0.236972983454D-02 0.000000000000D+00  5 1 -2 25 -24 21 2 0.10810981D+00 0.36907502D-02 0.14977771D+05 0.14977771D+05 0.14977771D+05 0.12478960D+01  1  2 15  2  5  2       -2 0.204551765831D-01 0.100000000000D+01
-.496238219864D-04 0.000000000000D+00 0.000000000000D+00 0.236972983454D-02 0.000000000000D+00  5 1 -2 25 -24 21 2 0.10810981D+00 0.36907502D-02 0.14977771D+05 0.14977771D+05 0.14977771D+05 0.12478960D+01  1  2  4  2  5  2       -2 -.565079418413D-01 0.100000000000D+01
  </mgrwgt>
  </event>
  <event>
  4     66 0.47139866E-03 0.73306181E+02 0.75467711E-02 0.11823933E+00
        1 -1    0    0  501    0 0.00000000E+00 0.00000000E+00 0.19958965E+04 0.19958965E+04 0.32000000E+00 0.0000E+00 0.9000E+01
       -2 -1    0    0    0  501 0.00000000E+00 0.00000000E+00 -.77328494E+01 0.77394677E+01 0.32000000E+00 0.0000E+00 0.9000E+01
       25  1    1    2    0    0 0.19001634E+02 -.62759906E+02 0.97349846E+03 0.98367887E+03 0.12500000E+03 0.0000E+00 0.9000E+01
      -24  1    1    2    0    0 -.19001634E+02 0.62759906E+02 0.10146652E+04 0.10199571E+04 0.80419002E+02 0.0000E+00 0.9000E+01
#aMCatNLO 1  0  0  1  2 0.75231956D+02 0.00000000D+00  -5  5  0 0.00000000D+00 0.00000000D+00 0.00000000D+00 0.00000000D+00 0.00000000D+00
  <mgrwgt>
 0.4549514953D+00    8    2    0
 0.124260302815235D+03 0.000000000000000D+00 0.000000000000000D+00 0.124260302815235D+03
 0.124260302815235D+03 0.000000000000000D+00 0.000000000000000D+00 -.124260302815235D+03
 0.142684899887170D+03 0.190016342795933D+02 -.627599064591366D+02 -.208353711691625D+02
 0.105835705743300D+03 -.190016342795933D+02 0.627599064591366D+02 0.208353711691625D+02
 0.000000000000000D+00 0.000000000000000D+00 0.000000000000000D+00 0.000000000000000D+00
 0.215908158606901D+03 0.000000000000000D+00 0.000000000000000D+00 0.215908158606901D+03
 0.146266984387343D+03 0.000000000000000D+00 0.000000000000000D+00 -.146266984387343D+03
 0.151290953683501D+03 -.209875359393624D+02 -.799334930420305D+02 -.208353711691625D+02
 0.108367164933087D+03 -.481393847200654D+02 0.502465265295126D+02 0.208353711691625D+02
 0.102517024377657D+03 0.691269206594278D+02 0.296869665125179D+02 0.696411742195582D+02
0.432778480275D-03 0.000000000000D+00 0.000000000000D+00 0.264118965054D-02 0.000000000000D+00  5 1 -2 25 -24 21 0 0.30706151D+00 0.11901802D-02 0.14996456D+05 0.14996456D+05 0.14996456D+05 0.12478342D+01  1  2  2  1  5  1        1 0.210646694901D+00 0.100000000000D+01
-.240370227047D-04 0.000000000000D+00 -.166198331745D-05 0.264118965054D-02 0.000000000000D+00  5 1 -2 25 -24 21 2 0.30706151D+00 0.11901802D-02 0.14996456D+05 0.14996456D+05 0.14996456D+05 0.12478342D+01  1  2  3  1  5  1        1 -.182172768041D-01 0.100000000000D+01
0.299857206378D-04 0.000000000000D+00 0.000000000000D+00 0.264118965054D-02 0.000000000000D+00  5 1 -2 25 -24 21 2 0.30706151D+00 0.11901802D-02 0.14996456D+05 0.14996456D+05 0.14996456D+05 0.12478342D+01  1  2 15  1  5  1        1 0.227257002557D-01 0.100000000000D+01
0.104096830645D-03 0.000000000000D+00 0.000000000000D+00 0.264118965054D-02 0.000000000000D+00  5 1 -2 25 -24 21 2 0.54378804D+00 0.11901802D-02 0.27460911D+05 0.27460911D+05 0.27460911D+05 0.12189501D+01  1  2 12  1  5  1        1 0.681225018482D-02 0.100000000000D+01
-.300029242677D-03 0.000000000000D+00 -.123579043680D-03 0.264118965054D-02 0.000000000000D+00  5 1 -2 25 -24 21 2 0.55365537D+00 0.11901802D-02 0.14996456D+05 0.14996456D+05 0.14996456D+05 0.12478342D+01  1  2  5  1  5  1        1 -.186935656189D-01 0.100000000000D+01
0.332212918693D-03 0.000000000000D+00 0.104830874756D-03 0.264118965054D-02 0.000000000000D+00  5 1 -2 25 -24 21 2 0.30706151D+00 0.11901802D-02 0.14996456D+05 0.14996456D+05 0.14996456D+05 0.12478342D+01  1  2  6  1  5  1        1 0.251778881772D+00 0.100000000000D+01
0.655035571123D-05 0.000000000000D+00 0.000000000000D+00 0.264118965054D-02 0.000000000000D+00  5 21 -2 25 -24 -1 2 0.54378804D+00 0.11901802D-02 0.27460911D+05 0.27460911D+05 0.27460911D+05 0.12189501D+01  1  2 12  3  5  1        1 0.116642934238D-03 0.100000000000D+01
-.128036063243D-04 0.000000000000D+00 -.798669288772D-05 0.264118965054D-02 0.000000000000D+00  5 21 -2 25 -24 -1 2 0.55365537D+00 0.11901802D-02 0.14996456D+05 0.14996456D+05 0.14996456D+05 0.12478342D+01  1  2  5  3  5  1        1 -.217832334000D-03 0.100000000000D+01
  </mgrwgt>
  </event>
  <event>
  4     66 0.47139866E-03 0.36031899E+02 0.75467711E-02 0.12379081E+00
        1 -1    0    0  501    0 0.00000000E+00 0.00000000E+00 0.24401029E+03 0.24401050E+03 0.32000000E+00 0.0000E+00 0.9000E+01
       -2 -1    0    0    0  501 0.00000000E+00 0.00000000E+00 -.56770837E+02 0.56771739E+02 0.32000000E+00 0.0000E+00 0.9000E+01
       25  1    1    2    0    0 0.35855749E+02 -.39942923E+02 0.86812370E+02 0.16137676E+03 0.12500000E+03 0.0000E+00 0.9000E+01
      -24  1    1    2    0    0 -.35855749E+02 0.39942923E+02 0.10042708E+03 0.13940548E+03 0.80419002E+02 0.0000E+00 0.9000E+01
#aMCatNLO 1  0  0  1  2 0.13305179D+02 0.00000000D+00  -5  5  0 0.00000000D+00 0.00000000D+00 0.00000000D+00 0.00000000D+00 0.00000000D+00
  <mgrwgt>
 0.1291517876D+00    7    2    0
 0.117698069707402D+03 0.000000000000000D+00 0.000000000000000D+00 0.117698069707402D+03
 0.117698069707402D+03 0.000000000000000D+00 0.000000000000000D+00 -.117698069707402D+03
 0.137149926624843D+03 0.358557489944008D+02 -.399429234322624D+02 -.174364705412168D+02
 0.982462127899610D+02 -.358557489944008D+02 0.399429234322624D+02 0.174364705412168D+02
 0.000000000000000D+00 -.000000000000000D+00 -.000000000000000D+00 0.000000000000000D+00
 0.243742952818999D+03 0.000000000000000D+00 0.000000000000000D+00 0.243742952818999D+03
 0.118237574914738D+03 0.000000000000000D+00 0.000000000000000D+00 -.118237574914738D+03
 0.138233120480741D+03 0.428827157856402D+02 -.366119895629331D+02 -.174364705412168D+02
 0.975387400880295D+02 -.308598918544712D+02 0.423110675046762D+02 0.174364705412168D+02
 0.126208667164967D+03 -.120228239311689D+02 -.569907794174309D+01 0.125505377904261D+03
0.161561471824D-03 0.000000000000D+00 0.000000000000D+00 0.277547078648D-02 0.000000000000D+00  5 1 -2 25 -24 21 0 0.37540130D-01 0.87340604D-02 0.13540065D+05 0.13540065D+05 0.13540065D+05 0.12529243D+01  1  2  2  1  5  1        1 0.124660522698D+00 0.100000000000D+01
-.897421446741D-05 0.000000000000D+00 -.620438591917D-06 0.277547078648D-02 0.000000000000D+00  5 1 -2 25 -24 21 2 0.37540130D-01 0.87340604D-02 0.13540065D+05 0.13540065D+05 0.13540065D+05 0.12529243D+01  1  2  3  1  5  1        1 -.108701931673D-01 0.100000000000D+01
0.111953892466D-04 0.000000000000D+00 0.000000000000D+00 0.277547078648D-02 0.000000000000D+00  5 1 -2 25 -24 21 2 0.37540130D-01 0.87340604D-02 0.13540065D+05 0.13540065D+05 0.13540065D+05 0.12529243D+01  1  2 15  1  5  1        1 0.135606346534D-01 0.100000000000D+01
0.521754895156D-02 0.000000000000D+00 0.000000000000D+00 0.277547078648D-02 0.000000000000D+00  5 1 -2 25 -24 21 2 0.77734573D-01 0.87340604D-02 0.15178457D+05 0.15178457D+05 0.15178457D+05 0.12472374D+01  1  2 12  1  5  1        1 0.253036139282D+01 0.100000000000D+01
-.519622243044D-02 0.000000000000D+00 -.597523894729D-04 0.277547078648D-02 0.000000000000D+00  5 1 -2 25 -24 21 2 0.77857819D-01 0.87340604D-02 0.13540065D+05 0.13540065D+05 0.13540065D+05 0.12529243D+01  1  2  5  1  5  1        1 -.253142537528D+01 0.100000000000D+01
0.410663034237D-03 0.000000000000D+00 0.000000000000D+00 0.277547078648D-02 0.000000000000D+00  5 21 -2 25 -24 -1 2 0.77734573D-01 0.87340604D-02 0.15178457D+05 0.15178457D+05 0.15178457D+05 0.12472374D+01  1  2 12  3  5  1        1 0.609071593312D+00 0.100000000000D+01
-.406202193354D-03 0.000000000000D+00 -.471326814451D-05 0.277547078648D-02 0.000000000000D+00  5 21 -2 25 -24 -1 2 0.77857819D-01 0.87340604D-02 0.13540065D+05 0.13540065D+05 0.13540065D+05 0.12529243D+01  1  2  5  3  5  1        1 -.606206787466D+00 0.100000000000D+01
  </mgrwgt>
  </event>
  <event>
  4     66 0.47139866E-03 0.12345657E+03 0.75467711E-02 0.11665506E+00
        1 -1    0    0  501    0 0.00000000E+00 0.00000000E+00 0.38009961E+03 0.38009975E+03 0.32000000E+00 0.0000E+00 0.9000E+01
       -2 -1    0    0    0  501 0.00000000E+00 0.00000000E+00 -.40274605E+02 0.40275876E+02 0.32000000E+00 0.0000E+00 0.9000E+01
       25  1    1    2    0    0 0.42484404E+02 -.52291418E+02 0.20908500E+03 0.25274662E+03 0.12500000E+03 0.0000E+00 0.9000E+01
      -24  1    1    2    0    0 -.42484404E+02 0.52291418E+02 0.13074001E+03 0.16762900E+03 0.80419002E+02 0.0000E+00 0.9000E+01
#aMCatNLO 1  0  0  2  2 0.97229714D+02 0.00000000D+00  -5  5  0 0.00000000D+00 0.00000000D+00 0.00000000D+00 0.00000000D+00 0.00000000D+00
  <mgrwgt>
 0.2022057084D+00    3    2    0
 0.123728158671097D+03 0.000000000000000D+00 0.000000000000000D+00 0.123728158671097D+03
 0.123728158671097D+03 0.000000000000000D+00 0.000000000000000D+00 -.123728158671097D+03
 0.142231998346699D+03 0.424844043896482D+02 -.522914184445930D+02 0.810088232260409D+01
 0.105224318995496D+03 -.424844043896482D+02 0.522914184445930D+02 -.810088232260409D+01
 0.000000000000000D+00 -.000000000000000D+00 -.000000000000000D+00 0.000000000000000D+00
 0.206136390153396D+03 0.000000000000000D+00 0.000000000000000D+00 0.206136390153396D+03
 0.165223213994869D+03 0.000000000000000D+00 0.000000000000000D+00 -.165223213994869D+03
 0.149512332401541D+03 0.806872142952675D+02 -.123647359459733D+02 0.810088232260409D+01
 0.116360280554363D+03 -.134687442981381D+02 0.826163880168232D+02 -.810088232260409D+01
 0.105486991192362D+03 -.672184699971294D+02 -.702516520708500D+02 0.409131761585266D+02
0.261210060634D-03 0.000000000000D+00 0.000000000000D+00 0.270642402935D-02 0.000000000000D+00  5 1 -2 25 -24 21 0 0.58476971D-01 0.61962013D-02 0.15241525D+05 0.15241525D+05 0.15241525D+05 0.12470325D+01  1  2  2  2  5  2       -2 0.197986018273D+00 0.100000000000D+01
-.145115848358D-04 0.000000000000D+00 -.100311541102D-05 0.270642402935D-02 0.000000000000D+00  5 1 -2 25 -24 21 2 0.58476971D-01 0.61962013D-02 0.15241525D+05 0.15241525D+05 0.15241525D+05 0.12470325D+01  1  2  3  2  5  2       -2 -.171046813036D-01 0.100000000000D+01
0.180915633274D-04 0.000000000000D+00 0.000000000000D+00 0.270642402935D-02 0.000000000000D+00  5 1 -2 25 -24 21 2 0.58476971D-01 0.61962013D-02 0.15241525D+05 0.15241525D+05 0.15241525D+05 0.12470325D+01  1  2 15  2  5  2       -2 0.213243714248D-01 0.100000000000D+01
  </mgrwgt>
  </event>
  <event>
  4     66 0.47139866E-03 0.11973902E+03 0.75467711E-02 0.12234091E+00
        1 -1    0    0  501    0 0.00000000E+00 0.00000000E+00 0.36719361E+03 0.36719375E+03 0.32000000E+00 0.0000E+00 0.9000E+01
       -2 -1    0    0    0  501 0.00000000E+00 0.00000000E+00 -.43241695E+02 0.43242880E+02 0.32000000E+00 0.0000E+00 0.9000E+01
       25  1    1    2    0    0 0.13236629E+02 0.59005960E+02 0.12214132E+03 0.18493354E+03 0.12500000E+03 0.0000E+00 0.9000E+01
      -24  1    1    2    0    0 -.13236629E+02 -.59005960E+02 0.20181059E+03 0.22550309E+03 0.80419002E+02 0.0000E+00 0.9000E+01
#aMCatNLO 1  0  0  1  2 0.24974521D+02 0.00000000D+00  -5  5  0 0.00000000D+00 0.00000000D+00 0.00000000D+00 0.00000000D+00 0.00000000D+00
  <mgrwgt>
 0.2148518709D+00    4    2    0
 0.126009308436305D+03 0.000000000000000D+00 0.000000000000000D+00 0.126009308436305D+03
 0.126009308436305D+03 0.000000000000000D+00 0.000000000000000D+00 -.126009308436305D+03
 0.144178172624339D+03 0.132366286230587D+02 0.590059595643986D+02 -.387999208745793D+02
 0.107840444248271D+03 -.132366286230587D+02 -.590059595643986D+02 0.387999208745793D+02
 0.000000000000000D+00 -.000000000000000D+00 -.000000000000000D+00 -.000000000000000D+00
 0.128769154523724D+03 0.000000000000000D+00 0.000000000000000D+00 0.128769154523724D+03
 0.199402461368582D+03 0.000000000000000D+00 0.000000000000000D+00 -.199402461368582D+03
 0.150550684937596D+03 0.208787921828504D+02 0.714083392349316D+02 -.387999208745793D+02
 0.102702370235918D+03 -.777736468149191D+01 -.501461826706929D+02 0.387999208745793D+02
 0.749185607187923D+02 -.131014275013585D+02 -.212621565642388D+02 -.706333068448576D+02
0.319734795924D-03 0.000000000000D+00 0.000000000000D+00 0.245669521430D-02 0.000000000000D+00  5 1 -2 25 -24 21 0 0.56491426D-01 0.66526703D-02 0.14337434D+05 0.14337434D+05 0.14337434D+05 0.12500654D+01  1  2  2  1  5  1        1 0.226654132617D+00 0.100000000000D+01
-.177067788913D-04 0.000000000000D+00 -.122786580445D-05 0.245669521430D-02 0.000000000000D+00  5 1 -2 25 -24 21 2 0.56491426D-01 0.66526703D-02 0.14337434D+05 0.14337434D+05 0.14337434D+05 0.12500654D+01  1  2  3  1  5  1        1 -.196145703342D-01 0.100000000000D+01
0.221169382544D-04 0.000000000000D+00 0.000000000000D+00 0.245669521430D-02 0.000000000000D+00  5 1 -2 25 -24 21 2 0.56491426D-01 0.66526703D-02 0.14337434D+05 0.14337434D+05 0.14337434D+05 0.12500654D+01  1  2 15  1  5  1        1 0.244998959795D-01 0.100000000000D+01
-.150644859796D-04 0.000000000000D+00 0.000000000000D+00 0.245669521430D-02 0.000000000000D+00  5 1 -2 25 -24 21 2 0.56491426D-01 0.66526703D-02 0.14337434D+05 0.14337434D+05 0.14337434D+05 0.12500654D+01  1  2  4  1  5  1        1 -.166875873704D-01 0.100000000000D+01
  </mgrwgt>
  </event>
  <event>
  4     66 0.47139866E-03 0.12835690E+03 0.75467711E-02 0.10550089E+00
        1 -1    0    0  501    0 0.00000000E+00 0.00000000E+00 0.21812436E+04 0.21812436E+04 0.32000000E+00 0.0000E+00 0.9000E+01
       -2 -1    0    0    0  501 0.00000000E+00 0.00000000E+00 -.96973598E+01 0.97026381E+01 0.32000000E+00 0.0000E+00 0.9000E+01
       25  1    1    2    0    0 0.44957551E+02 -.61043821E+02 0.69179379E+03 0.70707225E+03 0.12500000E+03 0.0000E+00 0.9000E+01
      -24  1    1    2    0    0 -.44957551E+02 0.61043821E+02 0.14797524E+04 0.14838740E+04 0.80419002E+02 0.0000E+00 0.9000E+01
#aMCatNLO 1  0  0  1  1 0.32469595D+03 0.00000000D+00  -5  5  0 0.00000000D+00 0.00000000D+00 0.00000000D+00 0.00000000D+00 0.00000000D+00
  <mgrwgt>
 0.2962230088D+00    5    2    0
 0.145458280831139D+03 0.000000000000000D+00 0.000000000000000D+00 0.145458280831139D+03
 0.145458280831139D+03 0.000000000000000D+00 0.000000000000000D+00 -.145458280831139D+03
 0.161197817957012D+03 0.449575511520157D+02 -.610438206852765D+02 -.679132318820092D+02
 0.129718743705266D+03 -.449575511520157D+02 0.610438206852765D+02 0.679132318820092D+02
 0.000000000000000D+00 0.000000000000000D+00 0.000000000000000D+00 0.000000000000000D+00
 0.386180426773644D+03 0.000000000000000D+00 0.000000000000000D+00 0.386180426773644D+03
 0.374677817331845D+03 0.000000000000000D+00 0.000000000000000D+00 -.374677817331845D+03
 0.251630747496674D+03 -.894674659532345D+02 -.187286941768459D+03 -.679132318820092D+02
 0.184327861474344D+03 -.147217239084998D+03 -.349917420667384D+02 0.679132318820092D+02
 0.324899635134472D+03 0.236684705038233D+03 0.222278683835197D+03 0.115026094417986D+02
0.107923482937D-02 0.000000000000D+00 0.000000000000D+00 0.196332073483D-02 0.000000000000D+00  5 1 -2 25 -24 21 0 0.33557634D+00 0.14923093D-02 0.16475494D+05 0.16475494D+05 0.16475494D+05 0.12432039D+01  1  2  2  1  5  1        1 0.289673733949D+00 0.100000000000D+01
-.588170742465D-04 0.000000000000D+00 -.414454591385D-05 0.196332073483D-02 0.000000000000D+00  5 1 -2 25 -24 21 2 0.33557634D+00 0.14923093D-02 0.16475494D+05 0.16475494D+05 0.16475494D+05 0.12432039D+01  1  2  3  1  5  1        1 -.243995214892D-01 0.100000000000D+01
0.746002560469D-04 0.000000000000D+00 0.000000000000D+00 0.196332073483D-02 0.000000000000D+00  5 1 -2 25 -24 21 2 0.33557634D+00 0.14923093D-02 0.16475494D+05 0.16475494D+05 0.16475494D+05 0.12432039D+01  1  2 15  1  5  1        1 0.309469754121D-01 0.100000000000D+01
0.117318843458D-03 0.000000000000D+00 -.273989911311D-03 0.196332073483D-02 0.000000000000D+00  5 1 -2 25 -24 21 2 0.93714052D+00 0.14923093D-02 0.16475494D+05 0.16475494D+05 0.16475494D+05 0.12432039D+01  1  2  5  1  5  1        1 0.181704115297D-05 0.100000000000D+01
0.288631727423D-04 0.000000000000D+00 -.315839038678D-04 0.196332073483D-02 0.000000000000D+00  5 21 -2 25 -24 -1 2 0.93714052D+00 0.14923093D-02 0.16475494D+05 0.16475494D+05 0.16475494D+05 0.12432039D+01  1  2  5  3  5  1        1 0.392977301522D-08 0.100000000000D+01
  </mgrwgt>
  </event>
  <event>
  4     66 0.47139866E-03 0.10278200E+03 0.75467711E-02 0.11728483E+00
        3 -1    0    0  501    0 0.00000000E+00 0.00000000E+00 0.32612595E+02 0.32616428E+02 0.50000000E+00 0.0000E+00 0.9000E+01
       -4 -1    0    0    0  501 0.00000000E+00 0.00000000E+00 -.77169050E+03 0.77169205E+03 0.15500000E+01 0.0000E+00 0.9000E+01
       25  1    1    2    0    0 -.87385701E+02 0.73324231E+02 -.31111048E+03 0.35415736E+03 0.12500000E+03 0.0000E+00 0.9000E+01
      -24  1    1    2    0    0 0.87385701E+02 -.73324231E+02 -.42796742E+03 0.45015112E+03 0.80419002E+02 0.0000E+00 0.9000E+01
#aMCatNLO 1  0  0  1  2 0.38766033D+02 0.00000000D+00  -5  5  0 0.00000000D+00 0.00000000D+00 0.00000000D+00 0.00000000D+00 0.00000000D+00
  <mgrwgt>
 0.6060300491D-01    9    2    0
 0.158647398288483D+03 0.000000000000000D+00 0.000000000000000D+00 0.158647398288483D+03
 0.158647398288483D+03 0.000000000000000D+00 0.000000000000000D+00 -.158647398288483D+03
 0.173078432368501D+03 -.873857011538288D+02 0.733242307169735D+02 0.363103315153635D+02
 0.144216364208464D+03 0.873857011538288D+02 -.733242307169735D+02 -.363103315153635D+02
 0.000000000000000D+00 0.000000000000000D+00 -.000000000000000D+00 0.000000000000000D+00
 0.192793691478069D+03 0.000000000000000D+00 0.000000000000000D+00 0.192793691478069D+03
 0.171223511212452D+03 0.000000000000000D+00 0.000000000000000D+00 -.171223511212452D+03
 0.188295523810658D+03 -.103777697306350D+03 0.879883722668289D+02 0.363103315153635D+02
 0.131358653784090D+03 0.748855622881896D+02 -.621417118819877D+02 -.363103315153635D+02
 0.443630250957728D+02 0.288921350181606D+02 -.258466603848411D+02 0.215701802656175D+02
0.207437163102D-02 0.000000000000D+00 0.000000000000D+00 0.223301862521D-02 0.000000000000D+00  5 3 -4 25 -24 21 0 0.50177369D-02 0.11872203D+00 0.23838938D+05 0.23838938D+05 0.23838938D+05 0.12255181D+01  1  2  2  1  5  1        3 0.536762914617D-01 0.100000000000D+01
-.115139611701D-03 0.000000000000D+00 -.796613325770D-05 0.223301862521D-02 0.000000000000D+00  5 3 -4 25 -24 21 2 0.50177369D-02 0.11872203D+00 0.23838938D+05 0.23838938D+05 0.23838938D+05 0.12255181D+01  1  2  3  1  5  1        3 -.447466139575D-02 0.100000000000D+01
0.143349544851D-03 0.000000000000D+00 0.000000000000D+00 0.223301862521D-02 0.000000000000D+00  5 3 -4 25 -24 21 2 0.50177369D-02 0.11872203D+00 0.23838938D+05 0.23838938D+05 0.23838938D+05 0.12255181D+01  1  2 15  1  5  1        3 0.557098174092D-02 0.100000000000D+01
0.265059570672D-02 0.000000000000D+00 0.000000000000D+00 0.223301862521D-02 0.000000000000D+00  5 3 -4 25 -24 21 2 0.62643324D-02 0.11872203D+00 0.30584391D+05 0.30584391D+05 0.30584391D+05 0.12140200D+01  1  2 12  1  5  1        3 0.721337953409D-01 0.100000000000D+01
-.269690499896D-02 0.000000000000D+00 0.000000000000D+00 0.223301862521D-02 0.000000000000D+00  5 3 -4 25 -24 21 2 0.50177369D-02 0.11872203D+00 0.23838938D+05 0.23838938D+05 0.23838938D+05 0.12255181D+01  1  2  4  1  5  1        3 -.104809600350D+00 0.100000000000D+01
-.505266806369D-02 0.000000000000D+00 -.140210462953D-02 0.223301862521D-02 0.000000000000D+00  5 3 -4 25 -24 21 2 0.65821986D-02 0.11872203D+00 0.23838938D+05 0.23838938D+05 0.23838938D+05 0.12255181D+01  1  2  5  1  5  1        3 -.127249017141D+00 0.100000000000D+01
0.528736887472D-02 0.000000000000D+00 0.135200891386D-02 0.223301862521D-02 0.000000000000D+00  5 3 -4 25 -24 21 2 0.50177369D-02 0.11872203D+00 0.23838938D+05 0.23838938D+05 0.23838938D+05 0.12255181D+01  1  2  6  1  5  1        3 0.205482587957D+00 0.100000000000D+01
0.820794048046D-04 0.000000000000D+00 0.000000000000D+00 0.223301862521D-02 0.000000000000D+00  5 21 -4 25 -24 -3 2 0.62643324D-02 0.11872203D+00 0.30584391D+05 0.30584391D+05 0.30584391D+05 0.12140200D+01  1  2 12  3  5  1        3 0.527421061376D-01 0.100000000000D+01
-.154769890873D-03 0.000000000000D+00 -.503966571694D-04 0.223301862521D-02 0.000000000000D+00  5 21 -4 25 -24 -3 2 0.65821986D-02 0.11872203D+00 0.23838938D+05 0.23838938D+05 0.23838938D+05 0.12255181D+01  1  2  5  3  5  1        3 -.924694788467D-01 0.100000000000D+01
  </mgrwgt>
  </event>
  <event>
  5     66 0.47139866E-03 0.10577824E+03 0.75467711E-02 0.12645889E+00
        1 -1    0    0  501    0 0.00000000E+00 0.00000000E+00 0.21707607E+03 0.21707631E+03 0.32000000E+00 0.0000E+00 0.9000E+01
       21 -1    0    0  502  501 0.00000000E+00 0.00000000E+00 -.68675882E+02 0.68679978E+02 0.75000000E+00 0.0000E+00 0.9000E+01
       25  1    1    2    0    0 0.78608066E+01 -.24147006E+02 0.33928024E+02 0.13198856E+03 0.12500000E+03 0.0000E+00 0.9000E+01
      -24  1    1    2    0    0 -.37390711E+01 0.24116707E+02 0.70766004E+02 0.10986646E+03 0.80419002E+02 0.0000E+00 0.9000E+01
        2  1    1    2  502    0 -.41217356E+01 0.30298621E-01 0.43706163E+02 0.43901261E+02 0.32000000E+00 0.0000E+00 0.9000E+01
#aMCatNLO 2  0  0  2  1 0.41218469D+01 0.00000000D+00  -5  5  0 0.00000000D+00 0.00000000D+00 0.00000000D+00 0.00000000D+00 0.00000000D+00
  <mgrwgt>
 0.6582806338D-02    1    2    0
 0.108990853303864D+03 0.000000000000000D+00 0.000000000000000D+00 0.108990853303864D+03
 0.108990853303864D+03 0.000000000000000D+00 0.000000000000000D+00 -.108990853303864D+03
 0.129996707850433D+03 0.540174962553027D+01 -.241289294546125D+02 -.257441239180549D+02
 0.879849987572955D+02 -.540174962553027D+01 0.241289294546125D+02 0.257441239180549D+02
 0.000000000000000D+00 -.000000000000000D+00 0.000000000000000D+00 0.000000000000000D+00
 0.136566940178648D+03 0.000000000000000D+00 0.000000000000000D+00 0.136566940178648D+03
 0.109164470564139D+03 0.000000000000000D+00 0.000000000000000D+00 -.109164470564139D+03
 0.130125439817674D+03 0.786080663346212D+01 -.241470058290075D+02 -.257441239180549D+02
 0.878952336005070D+02 -.373907106542562D+01 0.241167072084205D+02 0.257441239180549D+02
 0.277107373246058D+02 -.412173556803650D+01 0.302986205869310D-01 0.274024696145088D+02
0.399566210583D-06 0.000000000000D+00 0.000000000000D+00 0.289799885496D-02 0.498575785223D-06  5 1 21 25 -24 2 2 0.33396370D-01 0.10565764D-01 0.11633325D+05 0.11633325D+05 0.11633325D+05 0.12606067D+01  1  2  1  4  5  2       -2 0.658280633808D-02 0.100000000000D+01
  </mgrwgt>
  </event>
  <event>
  4     66 0.47139866E-03 0.12796875E+03 0.75467711E-02 0.12107516E+00
        1 -1    0    0  501    0 0.00000000E+00 0.00000000E+00 0.34854637E+02 0.34856106E+02 0.32000000E+00 0.0000E+00 0.9000E+01
       -2 -1    0    0    0  501 0.00000000E+00 0.00000000E+00 -.53248033E+03 0.53248042E+03 0.32000000E+00 0.0000E+00 0.9000E+01
       25  1    1    2    0    0 0.33539350E+02 0.67268713E+02 -.37596740E+03 0.40326970E+03 0.12500000E+03 0.0000E+00 0.9000E+01
      -24  1    1    2    0    0 -.33539350E+02 -.67268713E+02 -.12165829E+03 0.16406683E+03 0.80419002E+02 0.0000E+00 0.9000E+01
#aMCatNLO 1  0  0  1  1 0.26403998D+02 0.00000000D+00  -5  5  0 0.00000000D+00 0.00000000D+00 0.00000000D+00 0.00000000D+00 0.00000000D+00
  <mgrwgt>
 0.1739550040D+00    4    2    0
 0.136234549331611D+03 0.000000000000000D+00 0.000000000000000D+00 0.136234549331611D+03
 0.136234549331611D+03 0.000000000000000D+00 0.000000000000000D+00 -.136234549331611D+03
 0.153039728507083D+03 0.335393497185701D+02 0.672687133584081D+02 -.463269977991386D+02
 0.119429370156139D+03 -.335393497185701D+02 -.672687133584081D+02 0.463269977991386D+02
 0.000000000000000D+00 -.000000000000000D+00 0.000000000000000D+00 -.000000000000000D+00
 0.139421866486281D+03 0.000000000000000D+00 0.000000000000000D+00 0.139421866486281D+03
 0.205246094312248D+03 0.000000000000000D+00 0.000000000000000D+00 -.205246094312248D+03
 0.148061024391238D+03 0.365810959594193D+02 0.530348907523059D+02 -.463269977991386D+02
 0.125684442871360D+03 -.310631884596563D+02 -.788558864204326D+02 0.463269977991386D+02
 0.709224935359312D+02 -.551790749976300D+01 0.258209956681266D+02 -.658242278259672D+02
0.107879655995D-02 0.000000000000D+00 0.000000000000D+00 0.227896908483D-02 0.000000000000D+00  5 1 -2 25 -24 21 0 0.53623722D-02 0.81920171D-01 0.16376000D+05 0.16376000D+05 0.16376000D+05 0.12435005D+01  1  2  2  1  5  1        1 0.185371436882D+00 0.100000000000D+01
-.596476555901D-04 0.000000000000D+00 -.414286284386D-05 0.227896908483D-02 0.000000000000D+00  5 1 -2 25 -24 21 2 0.53623722D-02 0.81920171D-01 0.16376000D+05 0.16376000D+05 0.16376000D+05 0.12435005D+01  1  2  3  1  5  1        1 -.158485143483D-01 0.100000000000D+01
0.745573496500D-04 0.000000000000D+00 0.000000000000D+00 0.227896908483D-02 0.000000000000D+00  5 1 -2 25 -24 21 2 0.53623722D-02 0.81920171D-01 0.16376000D+05 0.16376000D+05 0.16376000D+05 0.12435005D+01  1  2 15  1  5  1        1 0.198100531196D-01 0.100000000000D+01
-.578767156271D-04 0.000000000000D+00 0.000000000000D+00 0.227896908483D-02 0.000000000000D+00  5 1 -2 25 -24 21 2 0.53623722D-02 0.81920171D-01 0.16376000D+05 0.16376000D+05 0.16376000D+05 0.12435005D+01  1  2  4  1  5  1        1 -.153779716734D-01 0.100000000000D+01
  </mgrwgt>
  </event>
  <event>
  5     66 0.47139866E-03 0.10791415E+03 0.75467711E-02 0.12455824E+00
        1 -1    0    0  501    0 0.00000000E+00 0.00000000E+00 0.61501098E+03 0.61501107E+03 0.32000000E+00 0.0000E+00 0.9000E+01
       -2 -1    0    0    0  502 0.00000000E+00 0.00000000E+00 -.28144587E+02 0.28146406E+02 0.32000000E+00 0.0000E+00 0.9000E+01
       25  1    1    2    0    0 -.10706808E+02 0.40751011E+02 0.43134600E+03 0.45106502E+03 0.12500000E+03 0.0000E+00 0.9000E+01
      -24  1    1    2    0    0 -.37003633E+01 -.26288373E+02 0.90526373E+02 0.12396375E+03 0.80419002E+02 0.0000E+00 0.9000E+01
       21  1    1    2  501  502 0.14407172E+02 -.14462638E+02 0.64994024E+02 0.68128703E+02 0.75000000E+00 0.0000E+00 0.9000E+01
#aMCatNLO 2  0  0  2  1 0.20414076D+02 0.00000000D+00  -5  5  0 0.00000000D+00 0.00000000D+00 0.00000000D+00 0.00000000D+00 0.00000000D+00
  <mgrwgt>
 0.1190420090D+00    1    2    0
 0.120302305242433D+03 0.000000000000000D+00 0.000000000000000D+00 0.120302305242433D+03
 0.120302305242433D+03 0.000000000000000D+00 0.000000000000000D+00 -.120302305242433D+03
 0.139333079480663D+03 -.230151110122681D+01 0.323133537421339D+02 0.523379141173136D+02
 0.101271531004203D+03 0.230151110122681D+01 -.323133537421339D+02 -.523379141173136D+02
 0.000000000000000D+00 0.000000000000000D+00 -.000000000000000D+00 0.000000000000000D+00
 0.135380476235494D+03 0.000000000000000D+00 0.000000000000000D+00 0.135380476235494D+03
 0.127848017930347D+03 0.000000000000000D+00 0.000000000000000D+00 -.127848017930347D+03
 0.141913839616070D+03 -.107068084669145D+02 0.407510106976157D+02 0.523379141173136D+02
 0.995552331036564D+02 -.370036325436314D+01 -.262883727451375D+02 -.523379141173136D+02
 0.217594214461145D+02 0.144071717212776D+02 -.144626379524782D+02 0.753245830514747D+01
0.109638572767D-03 0.000000000000D+00 0.000000000000D+00 0.232258315416D-02 0.470302142585D-04  5 1 -2 25 -24 21 2 0.94612530D-01 0.43298681D-02 0.14043647D+05 0.14043647D+05 0.14043647D+05 0.12510975D+01  1  2  1  2  5  2       -2 0.119042008975D+00 0.100000000000D+01
  </mgrwgt>
  </event>
  <event>
  4     66 0.47139866E-03 0.15706925E+03 0.75467711E-02 0.11661931E+00
        1 -1    0    0  501    0 0.00000000E+00 0.00000000E+00 0.11808401E+04 0.11808402E+04 0.32000000E+00 0.0000E+00 0.9000E+01
       -2 -1    0    0    0  501 0.00000000E+00 0.00000000E+00 -.31846072E+02 0.31847679E+02 0.32000000E+00 0.0000E+00 0.9000E+01
       25  1    1    2    0    0 0.26023632E+02 0.14631668E+03 0.39709425E+03 0.44203467E+03 0.12500000E+03 0.0000E+00 0.9000E+01
      -24  1    1    2    0    0 -.26023632E+02 -.14631668E+03 0.75189979E+03 0.77065317E+03 0.80419002E+02 0.0000E+00 0.9000E+01
#aMCatNLO 1  0  0  1  1 0.17748485D+00 0.00000000D+00  -5  5  0 0.00000000D+00 0.00000000D+00 0.00000000D+00 0.00000000D+00 0.00000000D+00
  <mgrwgt>
 0.2758281773D+00    9    2    0
 0.193922974997764D+03 0.000000000000000D+00 0.000000000000000D+00 0.193922974997764D+03
 0.193922974997764D+03 0.000000000000000D+00 0.000000000000000D+00 -.193922974997764D+03
 0.205728930488256D+03 0.260236316222803D+02 0.146316680743148D+03 -.679234302235765D+02
 0.182117019507272D+03 -.260236316222803D+02 -.146316680743148D+03 0.679234302235765D+02
 0.000000000000000D+00 0.000000000000000D+00 0.000000000000000D+00 0.000000000000000D+00
 0.194058595191255D+03 0.000000000000000D+00 0.000000000000000D+00 0.194058595191255D+03
 0.193981072182241D+03 0.000000000000000D+00 0.000000000000000D+00 -.193981072182241D+03
 0.205696431197020D+03 0.259343495311093D+02 0.146286837918698D+03 -.679234302235765D+02
 0.182149559408539D+03 -.261026799380576D+02 -.146343102895451D+03 0.679234302235765D+02
 0.193676767937718D+00 0.168330406948290D+00 0.562649767527082D-01 0.775230090130734D-01
0.257018293106D-03 0.000000000000D+00 0.000000000000D+00 0.192854972542D-02 0.000000000000D+00  5 1 -2 25 -24 21 0 0.18166784D+00 0.48995227D-02 0.32972943D+05 0.32972943D+05 0.32972943D+05 0.12106149D+01  1  2  2  1  5  1        1 0.537237875797D-01 0.100000000000D+01
-.142037650698D-04 0.000000000000D+00 -.987017919999D-06 0.192854972542D-02 0.000000000000D+00  5 1 -2 25 -24 21 2 0.18166784D+00 0.48995227D-02 0.32972943D+05 0.32972943D+05 0.32972943D+05 0.12106149D+01  1  2  3  1  5  1        1 -.435129085042D-02 0.100000000000D+01
0.177338898856D-04 0.000000000000D+00 0.000000000000D+00 0.192854972542D-02 0.000000000000D+00  5 1 -2 25 -24 21 2 0.18166784D+00 0.48995227D-02 0.32972943D+05 0.32972943D+05 0.32972943D+05 0.12106149D+01  1  2 15  1  5  1        1 0.543273649080D-02 0.100000000000D+01
-.694555902031D-01 0.000000000000D+00 0.000000000000D+00 0.192854972542D-02 0.000000000000D+00  5 1 -2 25 -24 21 2 0.18166784D+00 0.48995227D-02 0.32972943D+05 0.32972943D+05 0.32972943D+05 0.12106149D+01  1  2  4  1  5  1        1 -.212775607507D+02 0.100000000000D+01
-.557249849043D+00 0.000000000000D+00 -.373492195196D-01 0.192854972542D-02 0.000000000000D+00  5 1 -2 25 -24 21 2 0.18182726D+00 0.48995227D-02 0.32972943D+05 0.32972943D+05 0.32972943D+05 0.12106149D+01  1  2  5  1  5  1        1 -.170429391033D+03 0.100000000000D+01
0.557282409932D+00 0.000000000000D+00 0.373492051515D-01 0.192854972542D-02 0.000000000000D+00  5 1 -2 25 -24 21 2 0.18166784D+00 0.48995227D-02 0.32972943D+05 0.32972943D+05 0.32972943D+05 0.12106149D+01  1  2  6  1  5  1        1 0.170722188062D+03 0.100000000000D+01
0.694556136118D-01 0.000000000000D+00 0.000000000000D+00 0.192854972542D-02 0.478506058196D+00  5 1 -2 25 -24 21 2 0.18179489D+00 0.49009905D-02 0.33005295D+05 0.33005295D+05 0.33005295D+05 0.12105707D+01  1  2 11  1  5  1        1 0.212384104758D+02 0.100000000000D+01
-.915173181408D-04 0.000000000000D+00 -.613459554748D-05 0.192854972542D-02 0.000000000000D+00  5 21 -2 25 -24 -1 2 0.18182726D+00 0.48995227D-02 0.32972943D+05 0.32972943D+05 0.32972943D+05 0.12106149D+01  1  2  5  3  5  1        1 -.373803098046D-01 0.100000000000D+01
0.116459344932D-04 0.000000000000D+00 0.000000000000D+00 0.192854972542D-02 0.626595483097D-04  5 21 -2 25 -24 -1 2 0.18179489D+00 0.49009905D-02 0.33005295D+05 0.33005295D+05 0.33005295D+05 0.12105707D+01  1  2 11  3  5  1        1 0.475649974313D-02 0.100000000000D+01
  </mgrwgt>
  </event>
  <event>
  4     66 0.47139866E-03 0.11671023E+03 0.75467711E-02 0.11145415E+00
        1 -1    0    0  501    0 0.00000000E+00 0.00000000E+00 0.15404430E+04 0.15404431E+04 0.32000000E+00 0.0000E+00 0.9000E+01
       -2 -1    0    0    0  501 0.00000000E+00 0.00000000E+00 -.10708395E+02 0.10713175E+02 0.32000000E+00 0.0000E+00 0.9000E+01
       25  1    1    2    0    0 0.47063490E+00 0.54403625E+02 0.55087292E+03 0.56749092E+03 0.12500000E+03 0.0000E+00 0.9000E+01
      -24  1    1    2    0    0 -.47063490E+00 -.54403625E+02 0.97886171E+03 0.98366531E+03 0.80419002E+02 0.0000E+00 0.9000E+01
#aMCatNLO 1  0  0  1  1 0.19290044D+03 0.00000000D+00  -5  5  0 0.00000000D+00 0.00000000D+00 0.00000000D+00 0.00000000D+00 0.00000000D+00
  <mgrwgt>
 0.2615479648D+00    3    2    0
 0.128450012480192D+03 0.000000000000000D+00 0.000000000000000D+00 0.128450012480192D+03
 0.128450012480192D+03 0.000000000000000D+00 0.000000000000000D+00 -.128450012480192D+03
 0.146273646493154D+03 0.470634897527107D+00 0.544036252669877D+02 -.530188996397190D+02
 0.110626378467230D+03 -.470634897527107D+00 -.544036252669877D+02 0.530188996397190D+02
 0.000000000000000D+00 0.000000000000000D+00 0.000000000000000D+00 -.000000000000000D+00
 0.235351970860854D+03 0.000000000000000D+00 0.000000000000000D+00 0.235351970860854D+03
 0.285127227605476D+03 0.000000000000000D+00 0.000000000000000D+00 -.285127227605476D+03
 0.152734524491987D+03 -.673886421782000D+02 -.187243733717654D+02 -.530188996397190D+02
 0.168525809890464D+03 -.638236383744844D+02 -.122675474771866D+03 0.530188996397190D+02
 0.199218864083879D+03 0.131212280552684D+03 0.141399848143631D+03 -.497752567446212D+02
0.431414190713D-03 0.000000000000D+00 0.000000000000D+00 0.224570475936D-02 0.000000000000D+00  5 1 -2 25 -24 21 0 0.23699160D+00 0.16478157D-02 0.13621277D+05 0.13621277D+05 0.13621277D+05 0.12526246D+01  1  2  2  1  5  1        1 0.255836072021D+00 0.100000000000D+01
-.236997550813D-04 0.000000000000D+00 -.165674408630D-05 0.224570475936D-02 0.000000000000D+00  5 1 -2 25 -24 21 2 0.23699160D+00 0.16478157D-02 0.13621277D+05 0.13621277D+05 0.13621277D+05 0.12526246D+01  1  2  3  1  5  1        1 -.220522586957D-01 0.100000000000D+01
0.298383761891D-04 0.000000000000D+00 0.000000000000D+00 0.224570475936D-02 0.000000000000D+00  5 1 -2 25 -24 21 2 0.23699160D+00 0.16478157D-02 0.13621277D+05 0.13621277D+05 0.13621277D+05 0.12526246D+01  1  2 15  1  5  1        1 0.277641515080D-01 0.100000000000D+01
  </mgrwgt>
  </event>
  <event>
  4     66 0.47139866E-03 0.17330063E+03 0.75467711E-02 0.10751199E+00
        3 -1    0    0  501    0 0.00000000E+00 0.00000000E+00 0.15127906E+03 0.15127988E+03 0.50000000E+00 0.0000E+00 0.9000E+01
       -4 -1    0    0    0  501 0.00000000E+00 0.00000000E+00 -.21255111E+03 0.21255676E+03 0.15500000E+01 0.0000E+00 0.9000E+01
       25  1    1    2    0    0 0.74091760E+00 -.13842319E+03 -.79429475E+02 0.20272042E+03 0.12500000E+03 0.0000E+00 0.9000E+01
      -24  1    1    2    0    0 -.74091760E+00 0.13842319E+03 0.18157424E+02 0.16111622E+03 0.80419002E+02 0.0000E+00 0.9000E+01
#aMCatNLO 1  0  0  2  1 0.22774378D+03 0.00000000D+00  -5  5  0 0.00000000D+00 0.00000000D+00 0.00000000D+00 0.00000000D+00 0.00000000D+00
  <mgrwgt>
 0.5675508041D-01    3    2    0
 0.179320129883519D+03 0.000000000000000D+00 0.000000000000000D+00 0.179320129883519D+03
 0.179320129883519D+03 0.000000000000000D+00 0.000000000000000D+00 -.179320129883519D+03
 0.192087497456220D+03 0.740917599659645D+00 -.138423187176629D+03 -.459464794295253D+02
 0.166552762310818D+03 -.740917599659645D+00 0.138423187176629D+03 0.459464794295253D+02
 0.000000000000000D+00 -.000000000000000D+00 -.000000000000000D+00 0.000000000000000D+00
 0.958143339097832D+03 0.000000000000000D+00 0.000000000000000D+00 0.958143339097832D+03
 0.229808855921119D+03 0.000000000000000D+00 0.000000000000000D+00 -.229808855921119D+03
 0.182141949982808D+03 0.935864825353891D+02 -.817384931242632D+02 -.459464794295253D+02
 0.242699276130555D+03 0.100793680947343D+03 0.200412768028992D+03 0.459464794295253D+02
 0.763110968905588D+03 -.194380163482732D+03 -.118674274904728D+03 0.728334483176712D+03
0.176743816625D-02 0.000000000000D+00 0.000000000000D+00 0.209894853659D-02 0.000000000000D+00  5 3 -4 25 -24 21 0 0.23274199D-01 0.32700669D-01 0.30033110D+05 0.30033110D+05 0.30033110D+05 0.12148481D+01  1  2  2  2  5  2       -4 0.556435195855D-01 0.100000000000D+01
-.980518211166D-04 0.000000000000D+00 -.678742793557D-05 0.209894853659D-02 0.000000000000D+00  5 3 -4 25 -24 21 2 0.23274199D-01 0.32700669D-01 0.30033110D+05 0.30033110D+05 0.30033110D+05 0.12148481D+01  1  2  3  2  5  2       -4 -.455585614729D-02 0.100000000000D+01
0.121975000316D-03 0.000000000000D+00 0.000000000000D+00 0.209894853659D-02 0.000000000000D+00  5 3 -4 25 -24 21 2 0.23274199D-01 0.32700669D-01 0.30033110D+05 0.30033110D+05 0.30033110D+05 0.12148481D+01  1  2 15  2  5  2       -4 0.566741697073D-02 0.100000000000D+01
  </mgrwgt>
  </event>
  <event>
  5     66 0.47139866E-03 0.11414800E+03 0.75467711E-02 0.12076696E+00
        1 -1    0    0  502    0 0.00000000E+00 0.00000000E+00 0.35451998E+03 0.35452012E+03 0.32000000E+00 0.0000E+00 0.9000E+01
       -2 -1    0    0    0  501 0.00000000E+00 0.00000000E+00 -.51085881E+03 0.51085891E+03 0.32000000E+00 0.0000E+00 0.9000E+01
       25  1    1    2    0    0 0.27754491E+02 0.74660676E+02 -.54789321E+02 0.15802341E+03 0.12500000E+03 0.0000E+00 0.9000E+01
      -24  1    1    2    0    0 -.22711344E+01 -.24502948E+02 -.39740053E+03 0.40620186E+03 0.80419002E+02 0.0000E+00 0.9000E+01
       21  1    1    2  502  501 -.25483357E+02 -.50157727E+02 0.29585102E+03 0.30115376E+03 0.75000000E+00 0.0000E+00 0.9000E+01
#aMCatNLO 2  0  0  1  2 0.56260102D+02 0.00000000D+00  -5  5  0 0.00000000D+00 0.00000000D+00 0.00000000D+00 0.00000000D+00 0.00000000D+00
  <mgrwgt>
 0.3115868185D+00    2    2    0
 0.166365029878879D+03 0.000000000000000D+00 0.000000000000000D+00 0.166365029878879D+03
 0.166365029878879D+03 0.000000000000000D+00 0.000000000000000D+00 -.166365029878879D+03
 0.180126611943777D+03 0.136502462441526D+02 0.468999345035869D+02 0.120144343401499D+03
 0.152603447813981D+03 -.136502462441526D+02 -.468999345035869D+02 -.120144343401499D+03
 0.000000000000000D+00 -.000000000000000D+00 -.000000000000000D+00 0.000000000000000D+00
 0.106782075049889D+04 0.000000000000000D+00 0.000000000000000D+00 0.106782075049889D+04
 0.169606581387751D+03 0.000000000000000D+00 0.000000000000000D+00 -.169606581387751D+03
 0.190798824655166D+03 0.277544910292975D+02 0.746606755000248D+02 0.120144343401499D+03
 0.146654122784251D+03 -.227113439831573D+01 -.245029482392471D+02 -.120144343401499D+03
 0.899974384447229D+03 -.254833566309817D+02 -.501577272607777D+02 0.898214169111142D+03
-.265944733537D-01 0.000000000000D+00 0.000000000000D+00 0.118420538830D-02 0.000000000000D+00  5 1 -2 25 -24 21 2 0.53922041D-01 0.77091514D-01 0.20819758D+05 0.20819758D+05 0.20819758D+05 0.12319100D+01  1  2 13  1  5  1        1 -.405024008491D+00 0.100000000000D+01
0.497787082956D-01 0.000000000000D+00 0.000000000000D+00 0.118420538830D-02 0.114564173243D-04  5 1 -2 25 -24 21 2 0.54541504D-01 0.78593609D-01 0.20819758D+05 0.20819758D+05 0.20819758D+05 0.12319100D+01  1  2  1  1  5  1        1 0.716610827040D+00 0.100000000000D+01
  </mgrwgt>
  </event>
  <event>
  5     66 0.47139866E-03 0.11220705E+03 0.75467711E-02 0.11824857E+00
       21 -1    0    0  501  502 0.00000000E+00 0.00000000E+00 0.14596634E+03 0.14596827E+03 0.75000000E+00 0.0000E+00 0.9000E+01
       -4 -1    0    0    0  501 0.00000000E+00 0.00000000E+00 -.20363267E+03 0.20363857E+03 0.15500000E+01 0.0000E+00 0.9000E+01
       25  1    1    2    0    0 0.22608581E+02 -.85252944E+02 -.53857407E+02 0.16218765E+03 0.12500000E+03 0.0000E+00 0.9000E+01
      -24  1    1    2    0    0 0.33873014E+02 0.15682737E+02 -.30755623E+02 0.93842707E+02 0.80419002E+02 0.0000E+00 0.9000E+01
       -3  1    1    2    0  502 -.56481595E+02 0.69570207E+02 0.26946701E+02 0.93576487E+02 0.50000000E+00 0.0000E+00 0.9000E+01
#aMCatNLO 2  0  0  1  2 0.89611296D+02 0.00000000D+00  -5  5  0 0.00000000D+00 0.00000000D+00 0.00000000D+00 0.00000000D+00 0.00000000D+00
  <mgrwgt>
 0.2405255208D-01    2    2    0
 0.112207389157989D+03 0.000000000000000D+00 0.000000000000000D+00 0.112207389157989D+03
 0.112207389157989D+03 0.000000000000000D+00 0.000000000000000D+00 -.112207389157989D+03
 0.132611090095936D+03 -.120026636443762D+02 -.426211545179540D+02 -.272890873779559D+00
 0.918036882200430D+02 0.120026636443762D+02 0.426211545179540D+02 0.272890873779559D+00
 0.000000000000000D+00 -.000000000000000D+00 0.000000000000000D+00 0.000000000000000D+00
 0.205771587761068D+03 0.000000000000000D+00 0.000000000000000D+00 0.205771587761068D+03
 0.144454673627533D+03 0.000000000000000D+00 0.000000000000000D+00 -.144454673627533D+03
 0.152984597080055D+03 0.226085814338181D+02 -.852529443472081D+02 -.272890873779559D+00
 0.886601360460263D+02 0.338730136877652D+02 0.156827371210778D+02 0.272890873779559D+00
 0.108581528262520D+03 -.564815951215833D+02 0.695702072261303D+02 0.613169141335352D+02
-.870556360008D-06 0.000000000000D+00 0.000000000000D+00 0.295375425830D-02 0.000000000000D+00  5 21 -4 25 -24 -3 2 0.23000011D-01 0.24334965D-01 0.27432529D+05 0.27432529D+05 0.27432529D+05 0.12189977D+01  1  2 13  3  5  1        3 -.150556199361D-02 0.100000000000D+01
0.227014886710D-04 0.000000000000D+00 0.000000000000D+00 0.295375425830D-02 0.353074679233D-06  5 21 -4 25 -24 -3 2 0.22456880D-01 0.31328591D-01 0.27432529D+05 0.27432529D+05 0.27432529D+05 0.12189977D+01  1  2  1  3  5  1        3 0.255581140750D-01 0.100000000000D+01
  </mgrwgt>
  </event>
  <event>
  4     66 0.47139866E-03 0.11352605E+03 0.75467711E-02 0.12070540E+00
        1 -1    0    0  501    0 0.00000000E+00 0.00000000E+00 0.56034004E+03 0.56034013E+03 0.32000000E+00 0.0000E+00 0.9000E+01
       -2 -1    0    0    0  501 0.00000000E+00 0.00000000E+00 -.98404000E+02 0.98404520E+02 0.32000000E+00 0.0000E+00 0.9000E+01
       25  1    1    2    0    0 -.33894031E+02 -.33165428E+02 0.52781380E+03 0.54448247E+03 0.12500000E+03 0.0000E+00 0.9000E+01
      -24  1    1    2    0    0 0.33894031E+02 0.33165428E+02 -.65877760E+02 0.11426218E+03 0.80419002E+02 0.0000E+00 0.9000E+01
#aMCatNLO 1  0  0  1  1 0.58831845D+02 0.00000000D+00  -5  5  0 0.00000000D+00 0.00000000D+00 0.00000000D+00 0.00000000D+00 0.00000000D+00
  <mgrwgt>
 0.3829106697D-01    4    2    0
 0.234818871749428D+03 0.000000000000000D+00 0.000000000000000D+00 0.234818871749428D+03
 0.234818871749428D+03 0.000000000000000D+00 0.000000000000000D+00 -.234818871749428D+03
 0.244568709973037D+03 -.338940314249177D+02 -.331654278873263D+02 0.204792829280453D+03
 0.225069033525818D+03 0.338940314249177D+02 0.331654278873263D+02 -.204792829280453D+03
 0.000000000000000D+00 0.000000000000000D+00 0.000000000000000D+00 -.000000000000000D+00
 0.257464789937542D+03 0.000000000000000D+00 0.000000000000000D+00 0.257464789937542D+03
 0.278233751724099D+03 0.000000000000000D+00 0.000000000000000D+00 -.278233751724099D+03
 0.252034230036519D+03 -.469108629883838D+02 -.612823067376973D+02 0.204792829280453D+03
 0.221274121999009D+03 0.221945967118230D+02 0.789417913204817D+01 -.204792829280453D+03
 0.623901896261133D+02 0.247162662765608D+02 0.533881276056492D+02 -.207689617865564D+02
0.816827622104D-03 0.000000000000D+00 0.000000000000D+00 0.554302850772D-03 0.000000000000D+00  5 1 -2 25 -24 21 0 0.86206207D-01 0.15139124D-01 0.12888163D+05 0.12888163D+05 0.12888163D+05 0.12554060D+01  1  2  2  1  5  1        1 0.926358722192D-01 0.100000000000D+01
-.162353940846D-04 0.000000000000D+00 -.313683314453D-05 0.554302850772D-03 0.000000000000D+00  5 1 -2 25 -24 21 2 0.86206207D-01 0.15139124D-01 0.12888163D+05 0.12888163D+05 0.12888163D+05 0.12554060D+01  1  2  3  1  5  1        1 -.290188358393D-02 0.100000000000D+01
0.557618024387D-04 0.000000000000D+00 0.000000000000D+00 0.554302850772D-03 0.000000000000D+00  5 1 -2 25 -24 21 2 0.86206207D-01 0.15139124D-01 0.12888163D+05 0.12888163D+05 0.12888163D+05 0.12554060D+01  1  2 15  1  5  1        1 0.996675893814D-02 0.100000000000D+01
-.343573522633D-03 0.000000000000D+00 0.000000000000D+00 0.554302850772D-03 0.000000000000D+00  5 1 -2 25 -24 21 2 0.86206207D-01 0.15139124D-01 0.12888163D+05 0.12888163D+05 0.12888163D+05 0.12554060D+01  1  2  4  1  5  1        1 -.614096806030D-01 0.100000000000D+01
  </mgrwgt>
  </event>
  <event>
  5     66 0.47139866E-03 0.11391709E+03 0.75467711E-02 0.12127356E+00
        3 -1    0    0  502    0 0.00000000E+00 0.00000000E+00 0.19823445E+04 0.19823446E+04 0.50000000E+00 0.0000E+00 0.9000E+01
       -4 -1    0    0    0  501 0.00000000E+00 0.00000000E+00 -.27177664E+02 0.27221828E+02 0.15500000E+01 0.0000E+00 0.9000E+01
       25  1    1    2    0    0 0.63839320E+02 -.33314088E+02 0.17190547E+04 0.17250970E+04 0.12500000E+03 0.0000E+00 0.9000E+01
      -24  1    1    2    0    0 -.13922179E+02 0.28623670E+02 0.70961238E+02 0.11187428E+03 0.80419002E+02 0.0000E+00 0.9000E+01
       21  1    1    2  502  501 -.49917141E+02 0.46904179E+01 0.16515086E+03 0.17259516E+03 0.75000000E+00 0.0000E+00 0.9000E+01
#aMCatNLO 2  0  0  1  1 0.50137023D+02 0.00000000D+00  -5  5  0 0.00000000D+00 0.00000000D+00 0.00000000D+00 0.00000000D+00 0.00000000D+00
  <mgrwgt>
 0.1797967342D-02    1    2    0
 0.204812342451839D+03 0.000000000000000D+00 0.000000000000000D+00 0.204812342451839D+03
 0.204812342451839D+03 0.000000000000000D+00 0.000000000000000D+00 -.204812342451839D+03
 0.215990604386642D+03 0.372217960182823D+02 -.308129974004615D+02 0.169387243544724D+03
 0.193634080517035D+03 -.372217960182823D+02 0.308129974004615D+02 -.169387243544724D+03
 0.000000000000000D+00 -.000000000000000D+00 0.000000000000000D+00 -.000000000000000D+00
 0.225552661162431D+03 0.000000000000000D+00 0.000000000000000D+00 0.225552661162431D+03
 0.239051335884626D+03 0.000000000000000D+00 0.000000000000000D+00 -.239051335884626D+03
 0.222491180811583D+03 0.638393200129715D+02 -.333140883641503D+02 0.169387243544724D+03
 0.190190419833841D+03 -.139221785821317D+02 0.286236704503443D+02 -.169387243544724D+03
 0.519223964016322D+02 -.499171414308397D+02 0.469041791380606D+01 -.134986747221946D+02
0.425587297391D-03 0.000000000000D+00 0.000000000000D+00 0.746876337513D-03 0.250433724459D-05  5 3 -4 25 -24 21 2 0.30497590D+00 0.41845321D-02 0.19723926D+05 0.19723926D+05 0.19723926D+05 0.12344912D+01  1  2  1  1  5  1        3 0.179796734226D-02 0.100000000000D+01
  </mgrwgt>
  </event>
  <event>
  4     66 0.47139866E-03 0.16361704E+03 0.75467711E-02 0.10075424E+00
        1 -1    0    0  501    0 0.00000000E+00 0.00000000E+00 0.28607740E+03 0.28607758E+03 0.32000000E+00 0.0000E+00 0.9000E+01
       -2 -1    0    0    0  501 0.00000000E+00 0.00000000E+00 -.98502993E+02 0.98503512E+02 0.32000000E+00 0.0000E+00 0.9000E+01
       25  1    1    2    0    0 0.44599157E+02 -.11803024E+03 0.58557589E+02 0.18701394E+03 0.12500000E+03 0.0000E+00 0.9000E+01
      -24  1    1    2    0    0 -.44599157E+02 0.11803024E+03 0.12901682E+03 0.19756715E+03 0.80419002E+02 0.0000E+00 0.9000E+01
#aMCatNLO 1  0  0  2  1 0.47438334D+03 0.00000000D+00  -5  5  0 0.00000000D+00 0.00000000D+00 0.00000000D+00 0.00000000D+00 0.00000000D+00
  <mgrwgt>
 0.3442206646D+00    3    2    0
 0.167867849311775D+03 0.000000000000000D+00 0.000000000000000D+00 0.167867849311775D+03
 0.167867849311775D+03 0.000000000000000D+00 0.000000000000000D+00 -.167867849311775D+03
 0.181506232246886D+03 0.445991569196661D+02 -.118030244784162D+03 -.374070696888448D+02
 0.154229466376665D+03 -.445991569196661D+02 0.118030244784162D+03 0.374070696888448D+02
 0.000000000000000D+00 0.000000000000000D+00 -.000000000000000D+00 0.000000000000000D+00
 0.191985863801989D+04 0.000000000000000D+00 0.000000000000000D+00 0.191985863801989D+04
 0.325115409987508D+03 0.000000000000000D+00 0.000000000000000D+00 -.325115409987508D+03
 0.152655891100161D+03 -.791991564364606D+02 0.265063098736728D+01 -.374070696888448D+02
 0.428513627210731D+03 -.260490208195776D+03 0.328484817491374D+03 0.374070696888448D+02
 0.166380452969650D+04 0.339689364632237D+03 -.331135448478742D+03 0.159474322803238D+04
0.125508440769D-02 0.000000000000D+00 0.000000000000D+00 0.218576208969D-02 0.000000000000D+00  5 1 -2 25 -24 21 0 0.44011962D-01 0.15154360D-01 0.26770535D+05 0.26770535D+05 0.26770535D+05 0.12201244D+01  1  2  2  2  5  2       -2 0.337420110893D+00 0.100000000000D+01
-.696711409155D-04 0.000000000000D+00 -.481985459685D-05 0.218576208969D-02 0.000000000000D+00  5 1 -2 25 -24 21 2 0.44011962D-01 0.15154360D-01 0.26770535D+05 0.26770535D+05 0.26770535D+05 0.12201244D+01  1  2  3  2  5  2       -2 -.278842622401D-01 0.100000000000D+01
0.866628882360D-04 0.000000000000D+00 0.000000000000D+00 0.218576208969D-02 0.000000000000D+00  5 1 -2 25 -24 21 2 0.44011962D-01 0.15154360D-01 0.26770535D+05 0.26770535D+05 0.26770535D+05 0.12201244D+01  1  2 15  2  5  2       -2 0.346848159841D-01 0.100000000000D+01
  </mgrwgt>
  </event>
  <event>
  5     66 0.47139866E-03 0.13835639E+03 0.75467711E-02 0.11415223E+00
        1 -1    0    0  501    0 0.00000000E+00 0.00000000E+00 0.83404329E+03 0.83404335E+03 0.32000000E+00 0.0000E+00 0.9000E+01
       -2 -1    0    0    0  502 0.00000000E+00 0.00000000E+00 -.61343003E+02 0.61343837E+02 0.32000000E+00 0.0000E+00 0.9000E+01
       25  1    1    2    0    0 -.90695568E+02 -.55848099E+02 0.44877317E+03 0.47787765E+03 0.12500000E+03 0.0000E+00 0.9000E+01
      -24  1    1    2    0    0 0.91250253E+02 -.63040324E+02 0.22219461E+03 0.26103324E+03 0.80419002E+02 0.0000E+00 0.9000E+01
       21  1    1    2  501  502 -.55468462E+00 0.11888842E+03 0.10173250E+03 0.15647629E+03 0.75000000E+00 0.0000E+00 0.9000E+01
#aMCatNLO 2  0  0  2  1 0.11888972D+03 0.00000000D+00  -5  5  0 0.00000000D+00 0.00000000D+00 0.00000000D+00 0.00000000D+00 0.00000000D+00
  <mgrwgt>
 0.3803837259D-01    2    2    0
 0.142878255818473D+03 0.000000000000000D+00 0.000000000000000D+00 0.142878255818473D+03
 0.142878255818473D+03 0.000000000000000D+00 0.000000000000000D+00 -.142878255818473D+03
 0.158902009736047D+03 -.910001891814008D+02 0.944282715996783D+01 0.354210005834248D+02
 0.126854501900899D+03 0.910001891814008D+02 -.944282715996783D+01 -.354210005834248D+02
 0.000000000000000D+00 -.000000000000000D+00 0.000000000000000D+00 -.000000000000000D+00
 0.183091715077960D+03 0.000000000000000D+00 0.000000000000000D+00 0.183091715077960D+03
 0.279437290423604D+03 0.000000000000000D+00 0.000000000000000D+00 -.279437290423604D+03
 0.168001022458653D+03 -.906955684957498D+02 -.558480986252390D+02 0.354210005834248D+02
 0.141501075333062D+03 0.912502531205036D+02 -.630403235172164D+02 -.354210005834248D+02
 0.153026907709850D+03 -.554684624753761D+00 0.118888422142455D+03 -.963455753456448D+02
-.579075325504D-05 0.000000000000D+00 0.000000000000D+00 0.233458726072D-02 0.000000000000D+00  5 1 -2 25 -24 21 2 0.10013155D+00 0.95659161D-02 0.44123157D+05 0.44123157D+05 0.44123157D+05 0.11976975D+01  1  2 13  2  5  2       -2 -.162010994595D-02 0.100000000000D+01
0.200434447113D-03 0.000000000000D+00 0.000000000000D+00 0.233458726072D-02 0.163728861538D-05  5 1 -2 25 -24 21 2 0.12831383D+00 0.94374108D-02 0.44123157D+05 0.44123157D+05 0.44123157D+05 0.11976975D+01  1  2  1  2  5  2       -2 0.396584825353D-01 0.100000000000D+01
  </mgrwgt>
  </event>
  <event>
  4     66 0.47139866E-03 0.10572778E+03 0.75467711E-02 0.12646395E+00
        1 -1    0    0  501    0 0.00000000E+00 0.00000000E+00 0.42395570E+03 0.42395582E+03 0.32000000E+00 0.0000E+00 0.9000E+01
       -2 -1    0    0    0  501 0.00000000E+00 0.00000000E+00 -.30749556E+02 0.30751221E+02 0.32000000E+00 0.0000E+00 0.9000E+01
       25  1    1    2    0    0 -.24241963E+02 -.36723639E+01 0.14684594E+03 0.19439622E+03 0.12500000E+03 0.0000E+00 0.9000E+01
      -24  1    1    2    0    0 0.24241963E+02 0.36723639E+01 0.24636021E+03 0.26031083E+03 0.80419002E+02 0.0000E+00 0.9000E+01
#aMCatNLO 1  0  0  1  1 0.41381164D+01 0.00000000D+00  -5  5  0 0.00000000D+00 0.00000000D+00 0.00000000D+00 0.00000000D+00 0.00000000D+00
  <mgrwgt>
 0.1870732274D+00    8    2    0
 0.114179049624784D+03 0.000000000000000D+00 0.000000000000000D+00 0.114179049624784D+03
 0.114179049624784D+03 0.000000000000000D+00 0.000000000000000D+00 -.114179049624784D+03
 0.134230416481760D+03 -.242419629022885D+02 -.367236386336886D+01 -.423278358431625D+02
 0.941276827678083D+02 0.242419629022885D+02 0.367236386336886D+01 0.423278358431625D+02
 0.000000000000000D+00 -.000000000000000D+00 0.000000000000000D+00 -.000000000000000D+00
 0.114624263895174D+03 0.000000000000000D+00 0.000000000000000D+00 0.114624263895174D+03
 0.124236045451660D+03 0.000000000000000D+00 0.000000000000000D+00 -.124236045451660D+03
 0.133815702894841D+03 -.218149371215176D+02 -.375568535140611D+01 -.423278358431625D+02
 0.945798870376424D+02 0.259506171369016D+02 0.361370457161469D+01 0.423278358431625D+02
 0.104647194143509D+02 -.413568001538401D+01 0.141980779791419D+00 -.961178155648658D+01
0.188015669305D-03 0.000000000000D+00 0.000000000000D+00 0.256631141623D-02 0.000000000000D+00  5 1 -2 25 -24 21 0 0.65224091D-01 0.47308382D-02 0.11178365D+05 0.11178365D+05 0.11178365D+05 0.12626503D+01  1  2  2  1  5  1        1 0.184186846632D+00 0.100000000000D+01
-.103702120309D-04 0.000000000000D+00 -.722029675794D-06 0.256631141623D-02 0.000000000000D+00  5 1 -2 25 -24 21 2 0.65224091D-01 0.47308382D-02 0.11178365D+05 0.11178365D+05 0.11178365D+05 0.12626503D+01  1  2  3  1  5  1        1 -.161963952118D-01 0.100000000000D+01
0.129261256680D-04 0.000000000000D+00 0.000000000000D+00 0.256631141623D-02 0.000000000000D+00  5 1 -2 25 -24 21 2 0.65224091D-01 0.47308382D-02 0.11178365D+05 0.11178365D+05 0.11178365D+05 0.12626503D+01  1  2 15  1  5  1        1 0.201882699459D-01 0.100000000000D+01
-.400749114036D-04 0.000000000000D+00 0.000000000000D+00 0.256631141623D-02 0.000000000000D+00  5 1 -2 25 -24 21 2 0.65224091D-01 0.47308382D-02 0.11178365D+05 0.11178365D+05 0.11178365D+05 0.12626503D+01  1  2  4  1  5  1        1 -.625897620258D-01 0.100000000000D+01
0.138039176586D-07 0.000000000000D+00 0.000000000000D+00 0.256631141623D-02 0.000000000000D+00  5 1 -2 25 -24 21 2 0.70822286D-01 0.47308382D-02 0.11178365D+05 0.11178365D+05 0.11178365D+05 0.12626503D+01  1  2  5  1  5  1        1 0.194256582913D-04 0.100000000000D+01
-.137572496146D-07 0.000000000000D+00 0.000000000000D+00 0.256631141623D-02 0.000000000000D+00  5 1 -2 25 -24 21 2 0.65224091D-01 0.47308382D-02 0.11178365D+05 0.11178365D+05 0.11178365D+05 0.12626503D+01  1  2  6  1  5  1        1 -.214863351995D-04 0.100000000000D+01
0.351625746174D-04 0.000000000000D+00 0.000000000000D+00 0.256631141623D-02 0.127451748825D-02  5 1 -2 25 -24 21 2 0.65478417D-01 0.51475348D-02 0.11627587D+05 0.11627587D+05 0.11627587D+05 0.12606319D+01  1  2 11  1  5  1        1 0.481061789934D-01 0.100000000000D+01
0.272037574464D-05 0.000000000000D+00 0.000000000000D+00 0.256631141623D-02 0.964771502213D-06  5 21 -2 25 -24 -1 2 0.65478417D-01 0.51475348D-02 0.11627587D+05 0.11627587D+05 0.11627587D+05 0.12606319D+01  1  2 11  3  5  1        1 0.133801497824D-01 0.100000000000D+01
  </mgrwgt>
  </event>
  <event>
  4     66 0.47139866E-03 0.10688197E+03 0.75467711E-02 0.10743944E+00
        1 -1    0    0  501    0 0.00000000E+00 0.00000000E+00 0.11205855E+04 0.11205855E+04 0.32000000E+00 0.0000E+00 0.9000E+01
       -2 -1    0    0    0  501 0.00000000E+00 0.00000000E+00 -.10970781E+02 0.10975447E+02 0.32000000E+00 0.0000E+00 0.9000E+01
       25  1    1    2    0    0 0.27593977E+02 0.86631978E+01 0.51022564E+03 0.52610996E+03 0.12500000E+03 0.0000E+00 0.9000E+01
      -24  1    1    2    0    0 -.27593977E+02 -.86631978E+01 0.59938903E+03 0.60545099E+03 0.80419002E+02 0.0000E+00 0.9000E+01
#aMCatNLO 1  0  0  2  2 0.28724482D+03 0.00000000D+00  -5  5  0 0.00000000D+00 0.00000000D+00 0.00000000D+00 0.00000000D+00 0.00000000D+00
  <mgrwgt>
 0.2551138684D+00    3    2    0
 0.110888970944872D+03 0.000000000000000D+00 0.000000000000000D+00 0.110888970944872D+03
 0.110888970944872D+03 0.000000000000000D+00 0.000000000000000D+00 -.110888970944872D+03
 0.131535262383049D+03 0.275939765036925D+02 0.866319775970899D+01 -.289835593995509D+02
 0.902426795066946D+02 -.275939765036925D+02 -.866319775970899D+01 0.289835593995509D+02
 0.000000000000000D+00 0.000000000000000D+00 0.000000000000000D+00 0.000000000000000D+00
 0.372927613132373D+03 0.000000000000000D+00 0.000000000000000D+00 0.372927613132373D+03
 0.289175980093063D+03 0.000000000000000D+00 0.000000000000000D+00 -.289175980093063D+03
 0.183080378300274D+03 -.752278100335087D+02 -.106743406356863D+03 -.289835593995509D+02
 0.179817733529269D+03 -.115854350593874D+03 -.107726153139510D+03 0.289835593995509D+02
 0.299205481395894D+03 0.191082160627383D+03 0.214469559496373D+03 0.837516330393101D+02
0.230848320291D-03 0.000000000000D+00 0.000000000000D+00 0.281596493936D-02 0.000000000000D+00  5 1 -2 25 -24 21 0 0.17239812D+00 0.16881750D-02 0.11423756D+05 0.11423756D+05 0.11423756D+05 0.12615367D+01  1  2  2  2  5  2       -2 0.249652868391D+00 0.100000000000D+01
-.128037848392D-04 0.000000000000D+00 -.886518333677D-06 0.281596493936D-02 0.000000000000D+00  5 1 -2 25 -24 21 2 0.17239812D+00 0.16881750D-02 0.11423756D+05 0.11423756D+05 0.11423756D+05 0.12615367D+01  1  2  3  2  5  2       -2 -.220367709637D-01 0.100000000000D+01
0.159767301336D-04 0.000000000000D+00 0.000000000000D+00 0.281596493936D-02 0.000000000000D+00  5 1 -2 25 -24 21 2 0.17239812D+00 0.16881750D-02 0.11423756D+05 0.11423756D+05 0.11423756D+05 0.12615367D+01  1  2 15  2  5  2       -2 0.274977709423D-01 0.100000000000D+01
  </mgrwgt>
  </event>
  <event>
  5     66 0.47139866E-03 0.13146646E+03 0.75467711E-02 0.11302894E+00
        1 -1    0    0  501    0 0.00000000E+00 0.00000000E+00 0.66604684E+03 0.66604691E+03 0.32000000E+00 0.0000E+00 0.9000E+01
       21 -1    0    0  502  501 0.00000000E+00 0.00000000E+00 -.76759952E+02 0.76763616E+02 0.75000000E+00 0.0000E+00 0.9000E+01
       25  1    1    2    0    0 0.24570554E+02 0.16880684E+02 0.17457268E+03 0.21677013E+03 0.12500000E+03 0.0000E+00 0.9000E+01
      -24  1    1    2    0    0 -.11831626E+03 0.97693896E+02 0.19185624E+03 0.25849345E+03 0.80419002E+02 0.0000E+00 0.9000E+01
        2  1    1    2  502    0 0.93745703E+02 -.11457458E+03 0.22285797E+03 0.26754695E+03 0.32000000E+00 0.0000E+00 0.9000E+01
#aMCatNLO 2  0  0  2  2 0.14803915D+03 0.00000000D+00  -5  5  0 0.00000000D+00 0.00000000D+00 0.00000000D+00 0.00000000D+00 0.00000000D+00
  <mgrwgt>
 0.4049816257D-01    1    2    0
 0.131994065370867D+03 0.000000000000000D+00 0.000000000000000D+00 0.131994065370867D+03
 0.131994065370867D+03 0.000000000000000D+00 0.000000000000000D+00 -.131994065370867D+03
 0.149339133158382D+03 0.706243331956268D+02 -.394055483734941D+02 0.116868734293709D+02
 0.114648997583352D+03 -.706243331956268D+02 0.394055483734941D+02 -.116868734293709D+02
 0.000000000000000D+00 0.000000000000000D+00 -.000000000000000D+00 0.000000000000000D+00
 0.239503885269465D+03 0.000000000000000D+00 0.000000000000000D+00 0.239503885269465D+03
 0.213470587275396D+03 0.000000000000000D+00 0.000000000000000D+00 -.213470587275396D+03
 0.129035857900288D+03 0.245705536311406D+02 0.168806844579334D+02 0.116868734293709D+02
 0.173627857126398D+03 -.118316256488938D+03 0.976938956937632D+02 -.116868734293709D+02
 0.150310757518176D+03 0.937457028577974D+02 -.114574580151697D+03 0.260332979940686D+02
0.140777937953D-04 0.000000000000D+00 0.000000000000D+00 0.257609197132D-02 0.108073945083D-06  5 1 21 25 -24 2 2 0.10246895D+00 0.11809502D-01 0.50575235D+05 0.50575235D+05 0.50575235D+05 0.11917901D+01  1  2  1  4  5  2       -2 0.404981625662D-01 0.100000000000D+01
  </mgrwgt>
  </event>
  <event>
  4     66 0.47139866E-03 0.14619304E+03 0.75467711E-02 0.11913311E+00
        1 -1    0    0  501    0 0.00000000E+00 0.00000000E+00 0.20756552E+04 0.20756553E+04 0.32000000E+00 0.0000E+00 0.9000E+01
       -2 -1    0    0    0  501 0.00000000E+00 0.00000000E+00 -.12201705E+02 0.12205900E+02 0.32000000E+00 0.0000E+00 0.9000E+01
       25  1    1    2    0    0 0.10733378E+02 -.10225625E+03 0.71429853E+03 0.73240626E+03 0.12500000E+03 0.0000E+00 0.9000E+01
      -24  1    1    2    0    0 -.10733378E+02 0.10225625E+03 0.13491550E+04 0.13554549E+04 0.80419002E+02 0.0000E+00 0.9000E+01
#aMCatNLO 1  0  0  1  2 0.22371692D+02 0.00000000D+00  -5  5  0 0.00000000D+00 0.00000000D+00 0.00000000D+00 0.00000000D+00 0.00000000D+00
  <mgrwgt>
 0.2551039874D+00    4    2    0
 0.159156960184122D+03 0.000000000000000D+00 0.000000000000000D+00 0.159156960184122D+03
 0.159156960184122D+03 0.000000000000000D+00 0.000000000000000D+00 -.159156960184122D+03
 0.173541791414618D+03 0.107333784628945D+02 -.102256245362027D+03 -.626115663326506D+02
 0.144772128953626D+03 -.107333784628945D+02 0.102256245362027D+03 0.626115663326506D+02
 0.000000000000000D+00 0.000000000000000D+00 0.000000000000000D+00 -.000000000000000D+00
 0.160607720105000D+03 0.000000000000000D+00 0.000000000000000D+00 0.160607720105000D+03
 0.277795170415281D+03 0.000000000000000D+00 0.000000000000000D+00 -.277795170415281D+03
 0.179325020042775D+03 0.342142488387007D+01 -.112252164462329D+03 -.626115663326506D+02
 0.139774093873275D+03 -.166296223284026D+02 0.941956940964460D+02 0.626115663326506D+02
 0.119303776604232D+03 0.132081974445325D+02 0.180564703658834D+02 -.117187450310281D+03
0.114938008928D-02 0.000000000000D+00 0.000000000000D+00 0.200823614103D-02 0.000000000000D+00  5 1 -2 25 -24 21 0 0.31933190D+00 0.18775100D-02 0.21372404D+05 0.21372404D+05 0.21372404D+05 0.12306654D+01  1  2  2  1  5  1        1 0.258619506362D+00 0.100000000000D+01
-.632940056704D-04 0.000000000000D+00 -.441392218158D-05 0.200823614103D-02 0.000000000000D+00  5 1 -2 25 -24 21 2 0.31933190D+00 0.18775100D-02 0.21372404D+05 0.21372404D+05 0.21372404D+05 0.12306654D+01  1  2  3  1  5  1        1 -.215695049493D-01 0.100000000000D+01
0.794373377920D-04 0.000000000000D+00 0.000000000000D+00 0.200823614103D-02 0.000000000000D+00  5 1 -2 25 -24 21 2 0.31933190D+00 0.18775100D-02 0.21372404D+05 0.21372404D+05 0.21372404D+05 0.12306654D+01  1  2 15  1  5  1        1 0.270708739716D-01 0.100000000000D+01
-.264593443838D-04 0.000000000000D+00 0.000000000000D+00 0.200823614103D-02 0.000000000000D+00  5 1 -2 25 -24 21 2 0.31933190D+00 0.18775100D-02 0.21372404D+05 0.21372404D+05 0.21372404D+05 0.12306654D+01  1  2  4  1  5  1        1 -.901688799115D-02 0.100000000000D+01
  </mgrwgt>
  </event>
  <event>
  4     66 0.47139866E-03 0.12363456E+03 0.75467711E-02 0.11251215E+00
        1 -1    0    0  501    0 0.00000000E+00 0.00000000E+00 0.73709583E+03 0.73709590E+03 0.32000000E+00 0.0000E+00 0.9000E+01
       -2 -1    0    0    0  501 0.00000000E+00 0.00000000E+00 -.45586243E+02 0.45587366E+02 0.32000000E+00 0.0000E+00 0.9000E+01
       25  1    1    2    0    0 -.24049650E+00 0.67692315E+02 0.65676552E+03 0.67197341E+03 0.12500000E+03 0.0000E+00 0.9000E+01
      -24  1    1    2    0    0 0.24049650E+00 -.67692315E+02 0.34744067E+02 0.11070986E+03 0.80419002E+02 0.0000E+00 0.9000E+01
#aMCatNLO 1  0  0  2  1 0.17420857D+03 0.00000000D+00  -5  5  0 0.00000000D+00 0.00000000D+00 0.00000000D+00 0.00000000D+00 0.00000000D+00
  <mgrwgt>
 0.1860956697D+00    3    2    0
 0.183308200919201D+03 0.000000000000000D+00 0.000000000000000D+00 0.183308200919201D+03
 0.183308200919201D+03 0.000000000000000D+00 0.000000000000000D+00 -.183308200919201D+03
 0.195797800402077D+03 -.240496498884423D+00 0.676923150927602D+02 0.134645725075503D+03
 0.170818601436325D+03 0.240496498884423D+00 -.676923150927602D+02 -.134645725075503D+03
 0.000000000000000D+00 -.000000000000000D+00 -.000000000000000D+00 0.000000000000000D+00
 0.385570788026711D+03 0.000000000000000D+00 0.000000000000000D+00 0.385570788026711D+03
 0.244497024189013D+03 0.000000000000000D+00 0.000000000000000D+00 -.244497024189013D+03
 0.248835827689154D+03 0.765858877599099D+01 0.167648870794284D+03 0.134645725075503D+03
 0.157065900130570D+03 0.606548919974129D+01 0.601827127299465D+01 -.134645725075503D+03
 0.224166084396001D+03 -.137240779757323D+02 -.173667142067278D+03 0.141073763837698D+03
0.688632555987D-03 0.000000000000D+00 0.000000000000D+00 0.109124473229D-02 0.000000000000D+00  5 1 -2 25 -24 21 0 0.11339945D+00 0.70133599D-02 0.15285505D+05 0.15285505D+05 0.15285505D+05 0.12468901D+01  1  2  2  2  5  2       -2 0.179554091857D+00 0.100000000000D+01
-.310424116883D-04 0.000000000000D+00 -.264453033611D-05 0.109124473229D-02 0.000000000000D+00  5 1 -2 25 -24 21 2 0.11339945D+00 0.70133599D-02 0.15285505D+05 0.15285505D+05 0.15285505D+05 0.12468901D+01  1  2  3  2  5  2       -2 -.125840250183D-01 0.100000000000D+01
0.471792480372D-04 0.000000000000D+00 0.000000000000D+00 0.109124473229D-02 0.000000000000D+00  5 1 -2 25 -24 21 2 0.11339945D+00 0.70133599D-02 0.15285505D+05 0.15285505D+05 0.15285505D+05 0.12468901D+01  1  2 15  2  5  2       -2 0.191256028561D-01 0.100000000000D+01
  </mgrwgt>
  </event>
  <event>
  4     66 0.47139866E-03 0.11596141E+03 0.75467711E-02 0.12165006E+00
        1 -1    0    0  501    0 0.00000000E+00 0.00000000E+00 0.79845723E+03 0.79845730E+03 0.32000000E+00 0.0000E+00 0.9000E+01
       -2 -1    0    0    0  501 0.00000000E+00 0.00000000E+00 -.18360776E+02 0.18363564E+02 0.32000000E+00 0.0000E+00 0.9000E+01
       25  1    1    2    0    0 -.35706731E+02 0.38932797E+02 0.56692425E+03 0.58293982E+03 0.12500000E+03 0.0000E+00 0.9000E+01
      -24  1    1    2    0    0 0.35706731E+02 -.38932797E+02 0.21317221E+03 0.23388104E+03 0.80419002E+02 0.0000E+00 0.9000E+01
#aMCatNLO 1  0  0  2  1 0.40232183D+02 0.00000000D+00  -5  5  0 0.00000000D+00 0.00000000D+00 0.00000000D+00 0.00000000D+00 0.00000000D+00
  <mgrwgt>
 0.1486581470D+00    4    2    0
 0.121084511944678D+03 0.000000000000000D+00 0.000000000000000D+00 0.121084511944678D+03
 0.121084511944678D+03 0.000000000000000D+00 0.000000000000000D+00 -.121084511944678D+03
 0.139992347262653D+03 -.357067313657304D+02 0.389327974466134D+02 0.343820288852162D+02
 0.102176676626703D+03 0.357067313657304D+02 -.389327974466134D+02 -.343820288852162D+02
 0.000000000000000D+00 0.000000000000000D+00 -.000000000000000D+00 0.000000000000000D+00
 0.154113681756368D+03 0.000000000000000D+00 0.000000000000000D+00 0.154113681756368D+03
 0.135643778519368D+03 0.000000000000000D+00 0.000000000000000D+00 -.135643778519368D+03
 0.149649882840576D+03 -.582551085313074D+02 0.468434184698337D+02 0.343820288852162D+02
 0.958383341944646D+02 0.202914476660773D+02 -.335246713354561D+02 -.343820288852162D+02
 0.442692432406955D+02 0.379636608652302D+02 -.133187471343776D+02 0.184699032370006D+02
0.243189392754D-03 0.000000000000D+00 0.000000000000D+00 0.256982727374D-02 0.000000000000D+00  5 1 -2 25 -24 21 0 0.12283979D+00 0.28249541D-02 0.13447049D+05 0.13447049D+05 0.13447049D+05 0.12532701D+01  1  2  2  2  5  2       -2 0.217836962618D+00 0.100000000000D+01
-.134798210011D-04 0.000000000000D+00 -.933911301412D-06 0.256982727374D-02 0.000000000000D+00  5 1 -2 25 -24 21 2 0.12283979D+00 0.28249541D-02 0.13447049D+05 0.13447049D+05 0.13447049D+05 0.12532701D+01  1  2  3  2  5  2       -2 -.189653307827D-01 0.100000000000D+01
0.168213460764D-04 0.000000000000D+00 0.000000000000D+00 0.256982727374D-02 0.000000000000D+00  5 1 -2 25 -24 21 2 0.12283979D+00 0.28249541D-02 0.13447049D+05 0.13447049D+05 0.13447049D+05 0.12532701D+01  1  2 15  2  5  2       -2 0.236666638618D-01 0.100000000000D+01
-.525111421303D-04 0.000000000000D+00 0.000000000000D+00 0.256982727374D-02 0.000000000000D+00  5 1 -2 25 -24 21 2 0.12283979D+00 0.28249541D-02 0.13447049D+05 0.13447049D+05 0.13447049D+05 0.12532701D+01  1  2  4  2  5  2       -2 -.738801487200D-01 0.100000000000D+01
  </mgrwgt>
  </event>
  <event>
  4     66 0.47139866E-03 0.69685497E+02 0.75467711E-02 0.12038200E+00
        1 -1    0    0  501    0 0.00000000E+00 0.00000000E+00 0.55997938E+03 0.55997947E+03 0.32000000E+00 0.0000E+00 0.9000E+01
       -2 -1    0    0    0  501 0.00000000E+00 0.00000000E+00 -.36996512E+02 0.36997896E+02 0.32000000E+00 0.0000E+00 0.9000E+01
       25  1    1    2    0    0 0.23503913E+02 0.85862574E+02 0.38312435E+03 0.41271550E+03 0.12500000E+03 0.0000E+00 0.9000E+01
      -24  1    1    2    0    0 -.23503913E+02 -.85862574E+02 0.13985852E+03 0.18426187E+03 0.80419002E+02 0.0000E+00 0.9000E+01
#aMCatNLO 1  0  0  2  1 0.20466633D+02 0.00000000D+00  -5  5  0 0.00000000D+00 0.00000000D+00 0.00000000D+00 0.00000000D+00 0.00000000D+00
  <mgrwgt>
 0.1850395997D+00    9    2    0
 0.143936529152505D+03 0.000000000000000D+00 0.000000000000000D+00 0.143936529152505D+03
 0.143936529152505D+03 0.000000000000000D+00 0.000000000000000D+00 -.143936529152505D+03
 0.159842470645519D+03 0.235039128263080D+02 0.858625740966789D+02 0.447191220107167D+02
 0.128030587659490D+03 -.235039128263080D+02 -.858625740966789D+02 -.447191220107167D+02
 0.000000000000000D+00 0.000000000000000D+00 -.000000000000000D+00 -.000000000000000D+00
 0.152046557020399D+03 0.000000000000000D+00 0.000000000000000D+00 0.152046557020399D+03
 0.157817935993357D+03 0.000000000000000D+00 0.000000000000000D+00 -.157817935993357D+03
 0.161783187932034D+03 0.135524291306953D+02 0.914621872070631D+02 0.447191220107167D+02
 0.126816501522159D+03 -.313891874778451D+02 -.814255988005033D+02 -.447191220107167D+02
 0.212648035595633D+02 0.178367583471498D+02 -.100365884065598D+02 -.577137897295836D+01
0.334876811067D-03 0.000000000000D+00 0.000000000000D+00 0.224662779086D-02 0.000000000000D+00  5 1 -2 25 -24 21 0 0.86150787D-01 0.56918846D-02 0.18690483D+05 0.18690483D+05 0.18690483D+05 0.12370770D+01  1  2  2  2  5  2       -2 0.176417615502D+00 0.100000000000D+01
-.185443021804D-04 0.000000000000D+00 -.128601512959D-05 0.224662779086D-02 0.000000000000D+00  5 1 -2 25 -24 21 2 0.86150787D-01 0.56918846D-02 0.18690483D+05 0.18690483D+05 0.18690483D+05 0.12370770D+01  1  2  3  2  5  2       -2 -.149506753238D-01 0.100000000000D+01
0.231583182642D-04 0.000000000000D+00 0.000000000000D+00 0.224662779086D-02 0.000000000000D+00  5 1 -2 25 -24 21 2 0.86150787D-01 0.56918846D-02 0.18690483D+05 0.18690483D+05 0.18690483D+05 0.12370770D+01  1  2 15  2  5  2       -2 0.186705595091D-01 0.100000000000D+01
0.465967026502D-03 0.000000000000D+00 0.000000000000D+00 0.224662779086D-02 0.000000000000D+00  5 1 -2 25 -24 21 2 0.86150787D-01 0.63887434D-02 0.21699761D+05 0.21699761D+05 0.21699761D+05 0.12299450D+01  1  2 12  2  5  2       -2 0.312779358690D+00 0.100000000000D+01
-.426765898366D-03 0.000000000000D+00 0.000000000000D+00 0.224662779086D-02 0.000000000000D+00  5 1 -2 25 -24 21 2 0.86150787D-01 0.56918846D-02 0.18690483D+05 0.18690483D+05 0.18690483D+05 0.12370770D+01  1  2  4  2  5  2       -2 -.344064625548D+00 0.100000000000D+01
-.128645200286D-02 0.000000000000D+00 -.294317668870D-03 0.224662779086D-02 0.000000000000D+00  5 1 -2 25 -24 21 2 0.86150787D-01 0.65911365D-02 0.18690483D+05 0.18690483D+05 0.18690483D+05 0.12370770D+01  1  2  5  2  5  2       -2 -.830075116098D+00 0.100000000000D+01
0.131855135208D-02 0.000000000000D+00 0.291179494161D-03 0.224662779086D-02 0.000000000000D+00  5 1 -2 25 -24 21 2 0.86150787D-01 0.56918846D-02 0.18690483D+05 0.18690483D+05 0.18690483D+05 0.12370770D+01  1  2  6  2  5  2       -2 0.106303450898D+01 0.100000000000D+01
0.856047079085D-05 0.000000000000D+00 0.000000000000D+00 0.224662779086D-02 0.000000000000D+00  5 1 21 25 -24 2 2 0.86150787D-01 0.63887434D-02 0.21699761D+05 0.21699761D+05 0.21699761D+05 0.12299450D+01  1  2 12  4  5  2       -2 0.981124154992D-01 0.100000000000D+01
-.268557400570D-04 0.000000000000D+00 -.659304373554D-05 0.224662779086D-02 0.000000000000D+00  5 1 21 25 -24 2 2 0.86150787D-01 0.65911365D-02 0.18690483D+05 0.18690483D+05 0.18690483D+05 0.12370770D+01  1  2  5  4  5  2       -2 -.294884441475D+00 0.100000000000D+01
  </mgrwgt>
  </event>
  <event>
  4     66 0.47139866E-03 0.10954645E+03 0.75467711E-02 0.10514238E+00
        1 -1    0    0  501    0 0.00000000E+00 0.00000000E+00 0.51851296E+03 0.51851306E+03 0.32000000E+00 0.0000E+00 0.9000E+01
       -2 -1    0    0    0  501 0.00000000E+00 0.00000000E+00 -.36229382E+02 0.36230795E+02 0.32000000E+00 0.0000E+00 0.9000E+01
       25  1    1    2    0    0 -.28336966E+02 -.24251054E+02 0.10577949E+03 0.16794463E+03 0.12500000E+03 0.0000E+00 0.9000E+01
      -24  1    1    2    0    0 0.28336966E+02 0.24251054E+02 0.37650409E+03 0.38679922E+03 0.80419002E+02 0.0000E+00 0.9000E+01
#aMCatNLO 1  0  0  1  1 0.34663964D+03 0.00000000D+00  -5  5  0 0.00000000D+00 0.00000000D+00 0.00000000D+00 0.00000000D+00 0.00000000D+00
  <mgrwgt>
 0.2576778880D+00    3    2    0
 0.137061385239185D+03 0.000000000000000D+00 0.000000000000000D+00 0.137061385239185D+03
 0.137061385239185D+03 0.000000000000000D+00 0.000000000000000D+00 -.137061385239185D+03
 0.153765185564945D+03 -.283369661689302D+02 -.242510539489102D+02 -.814102881860139D+02
 0.120357584913425D+03 0.283369661689302D+02 0.242510539489102D+02 0.814102881860139D+02
 0.000000000000000D+00 -.000000000000000D+00 0.000000000000000D+00 -.000000000000000D+00
 0.317126573596490D+03 0.000000000000000D+00 0.000000000000000D+00 0.317126573596490D+03
 0.533353909524522D+03 0.000000000000000D+00 0.000000000000000D+00 -.533353909524522D+03
 0.233884813386520D+03 0.130524622514762D+03 -.124148273559064D+03 -.814102881860139D+02
 0.208045424626359D+03 0.162918738296132D+03 -.603782447828531D+02 0.814102881860139D+02
 0.408550245108134D+03 -.293443360810894D+03 0.184526518341917D+03 -.216227335928033D+03
0.422599345069D-03 0.000000000000D+00 0.000000000000D+00 0.173160359120D-02 0.000000000000D+00  5 1 -2 25 -24 21 0 0.79771341D-01 0.55738674D-02 0.12000424D+05 0.12000424D+05 0.12000424D+05 0.12590223D+01  1  2  2  1  5  1        1 0.251098699047D+00 0.100000000000D+01
-.220444151137D-04 0.000000000000D+00 -.162289275803D-05 0.173160359120D-02 0.000000000000D+00  5 1 -2 25 -24 21 2 0.79771341D-01 0.55738674D-02 0.12000424D+05 0.12000424D+05 0.12000424D+05 0.12590223D+01  1  2  3  1  5  1        1 -.207625683287D-01 0.100000000000D+01
0.290297924129D-04 0.000000000000D+00 0.000000000000D+00 0.173160359120D-02 0.000000000000D+00  5 1 -2 25 -24 21 2 0.79771341D-01 0.55738674D-02 0.12000424D+05 0.12000424D+05 0.12000424D+05 0.12590223D+01  1  2 15  1  5  1        1 0.273417573309D-01 0.100000000000D+01
  </mgrwgt>
  </event>
  <event>
  4     66 0.47139866E-03 0.76248295E+02 0.75467711E-02 0.11948456E+00
        1 -1    0    0  501    0 0.00000000E+00 0.00000000E+00 0.10818699E+04 0.10818699E+04 0.32000000E+00 0.0000E+00 0.9000E+01
       -2 -1    0    0    0  501 0.00000000E+00 0.00000000E+00 -.23713045E+02 0.23715204E+02 0.32000000E+00 0.0000E+00 0.9000E+01
       25  1    1    2    0    0 0.74211920E+02 0.69189934E+02 0.34428511E+03 0.38006827E+03 0.12500000E+03 0.0000E+00 0.9000E+01
      -24  1    1    2    0    0 -.74211920E+02 -.69189934E+02 0.71387173E+03 0.72551686E+03 0.80419002E+02 0.0000E+00 0.9000E+01
#aMCatNLO 1  0  0  1  2 0.18122820D+02 0.00000000D+00  -5  5  0 0.00000000D+00 0.00000000D+00 0.00000000D+00 0.00000000D+00 0.00000000D+00
  <mgrwgt>
 0.4141461972D+00    9    2    0
 0.160173809926418D+03 0.000000000000000D+00 0.000000000000000D+00 0.160173809926418D+03
 0.160173809926418D+03 0.000000000000000D+00 0.000000000000000D+00 -.160173809926418D+03
 0.174467320285316D+03 0.742119195974849D+02 0.691899338865117D+02 -.672249201262114D+02
 0.145880299567520D+03 -.742119195974849D+02 -.691899338865117D+02 0.672249201262114D+02
 0.000000000000000D+00 0.000000000000000D+00 0.000000000000000D+00 0.000000000000000D+00
 0.173140868139716D+03 0.000000000000000D+00 0.000000000000000D+00 0.173140868139716D+03
 0.166889635860187D+03 0.000000000000000D+00 0.000000000000000D+00 -.166889635860187D+03
 0.169031229490511D+03 0.665254504988927D+02 0.632592372149518D+02 -.672249201262114D+02
 0.151828606206546D+03 -.808737535589425D+02 -.743300464655031D+02 0.672249201262114D+02
 0.191706683028464D+02 0.143483030600498D+02 0.110708092505512D+02 0.625123227952966D+01
0.438641540025D-03 0.000000000000D+00 0.000000000000D+00 0.195608504694D-02 0.000000000000D+00  5 1 -2 25 -24 21 0 0.16644169D+00 0.36483306D-02 0.21092257D+05 0.21092257D+05 0.21092257D+05 0.12312918D+01  1  2  2  1  5  1        1 0.166536372399D+00 0.100000000000D+01
-.240848292164D-04 0.000000000000D+00 -.168449901067D-05 0.195608504694D-02 0.000000000000D+00  5 1 -2 25 -24 21 2 0.16644169D+00 0.36483306D-02 0.21092257D+05 0.21092257D+05 0.21092257D+05 0.12312918D+01  1  2  3  1  5  1        1 -.138632440787D-01 0.100000000000D+01
0.303009127770D-04 0.000000000000D+00 0.000000000000D+00 0.195608504694D-02 0.000000000000D+00  5 1 -2 25 -24 21 2 0.16644169D+00 0.36483306D-02 0.21092257D+05 0.21092257D+05 0.21092257D+05 0.12312918D+01  1  2 15  1  5  1        1 0.174412260041D-01 0.100000000000D+01
0.993307980464D-03 0.000000000000D+00 0.000000000000D+00 0.195608504694D-02 0.000000000000D+00  5 1 -2 25 -24 21 2 0.18318646D+00 0.36483306D-02 0.23923747D+05 0.23923747D+05 0.23923747D+05 0.12253519D+01  1  2 12  1  5  1        1 0.476012241896D+00 0.100000000000D+01
-.926291772193D-03 0.000000000000D+00 0.000000000000D+00 0.195608504694D-02 0.000000000000D+00  5 1 -2 25 -24 21 2 0.16644169D+00 0.36483306D-02 0.21092257D+05 0.21092257D+05 0.21092257D+05 0.12312918D+01  1  2  4  1  5  1        1 -.533174174107D+00 0.100000000000D+01
-.296325429224D-02 0.000000000000D+00 -.582185487438D-03 0.195608504694D-02 0.000000000000D+00  5 1 -2 25 -24 21 2 0.18458764D+00 0.36483306D-02 0.21092257D+05 0.21092257D+05 0.21092257D+05 0.12312918D+01  1  2  5  1  5  1        1 -.141127304460D+01 0.100000000000D+01
0.301046922049D-02 0.000000000000D+00 0.579082322148D-03 0.195608504694D-02 0.000000000000D+00  5 1 -2 25 -24 21 2 0.16644169D+00 0.36483306D-02 0.21092257D+05 0.21092257D+05 0.21092257D+05 0.12312918D+01  1  2  6  1  5  1        1 0.173282813093D+01 0.100000000000D+01
0.155532416078D-04 0.000000000000D+00 0.000000000000D+00 0.195608504694D-02 0.000000000000D+00  5 21 -2 25 -24 -1 2 0.18318646D+00 0.36483306D-02 0.23923747D+05 0.23923747D+05 0.23923747D+05 0.12253519D+01  1  2 12  3  5  1        1 0.100233856762D-01 0.100000000000D+01
-.475231403093D-04 0.000000000000D+00 -.973889568346D-05 0.195608504694D-02 0.000000000000D+00  5 21 -2 25 -24 -1 2 0.18458764D+00 0.36483306D-02 0.21092257D+05 0.21092257D+05 0.21092257D+05 0.12312918D+01  1  2  5  3  5  1        1 -.303846969140D-01 0.100000000000D+01
  </mgrwgt>
  </event>
  <event>
  4     66 0.47139866E-03 0.16193924E+03 0.75467711E-02 0.11082808E+00
        1 -1    0    0  501    0 0.00000000E+00 0.00000000E+00 0.50264348E+03 0.50264359E+03 0.32000000E+00 0.0000E+00 0.9000E+01
       -2 -1    0    0    0  501 0.00000000E+00 0.00000000E+00 -.52556152E+02 0.52557127E+02 0.32000000E+00 0.0000E+00 0.9000E+01
       25  1    1    2    0    0 -.18444077E+02 -.12262911E+03 0.22090989E+03 0.28249648E+03 0.12500000E+03 0.0000E+00 0.9000E+01
      -24  1    1    2    0    0 0.18444077E+02 0.12262911E+03 0.22917744E+03 0.27270423E+03 0.80419002E+02 0.0000E+00 0.9000E+01
#aMCatNLO 1  0  0  1  1 0.15651100D+03 0.00000000D+00  -5  5  0 0.00000000D+00 0.00000000D+00 0.00000000D+00 0.00000000D+00 0.00000000D+00
  <mgrwgt>
 0.2773866146D+00    3    2    0
 0.162534015814195D+03 0.000000000000000D+00 0.000000000000000D+00 0.162534015814195D+03
 0.162534015814195D+03 0.000000000000000D+00 0.000000000000000D+00 -.162534015814195D+03
 0.176619965760971D+03 -.184440766844475D+02 -.122629108614644D+03 -.138394386101002D+02
 0.148448065867418D+03 0.184440766844475D+02 0.122629108614644D+03 0.138394386101002D+02
 0.000000000000000D+00 0.000000000000000D+00 -.000000000000000D+00 -.000000000000000D+00
 0.233161795791764D+03 0.000000000000000D+00 0.000000000000000D+00 0.233161795791764D+03
 0.296441385249287D+03 0.000000000000000D+00 0.000000000000000D+00 -.296441385249287D+03
 0.176133334633017D+03 -.895101282066790D+02 -.848195641130479D+02 -.138394386101002D+02
 0.184650419877723D+03 -.486622951723214D+02 0.158331969526587D+03 0.138394386101002D+02
 0.168819426530311D+03 0.138172423379000D+03 -.735124054135389D+02 -.632795894575232D+02
0.759547610431D-03 0.000000000000D+00 0.000000000000D+00 0.230645966548D-02 0.000000000000D+00  5 1 -2 25 -24 21 0 0.77329850D-01 0.80856447D-02 0.26224316D+05 0.26224316D+05 0.26224316D+05 0.12210777D+01  1  2  2  1  5  1        1 0.271889691225D+00 0.100000000000D+01
-.421963998958D-04 0.000000000000D+00 -.291686281753D-05 0.230645966548D-02 0.000000000000D+00  5 1 -2 25 -24 21 2 0.77329850D-01 0.80856447D-02 0.26224316D+05 0.26224316D+05 0.26224316D+05 0.12210777D+01  1  2  3  1  5  1        1 -.225216261962D-01 0.100000000000D+01
0.524954064898D-04 0.000000000000D+00 0.000000000000D+00 0.230645966548D-02 0.000000000000D+00  5 1 -2 25 -24 21 2 0.77329850D-01 0.80856447D-02 0.26224316D+05 0.26224316D+05 0.26224316D+05 0.12210777D+01  1  2 15  1  5  1        1 0.280185495659D-01 0.100000000000D+01
  </mgrwgt>
  </event>
  <event>
  4     66 0.47139866E-03 0.62566459E+02 0.75467711E-02 0.12026915E+00
        3 -1    0    0  501    0 0.00000000E+00 0.00000000E+00 0.44073124E+02 0.44075960E+02 0.50000000E+00 0.0000E+00 0.9000E+01
       -4 -1    0    0    0  501 0.00000000E+00 0.00000000E+00 -.45729273E+03 0.45729535E+03 0.15500000E+01 0.0000E+00 0.9000E+01
       25  1    1    2    0    0 -.92446815E+02 -.82039424E+01 -.18153065E+03 0.23914869E+03 0.12500000E+03 0.0000E+00 0.9000E+01
      -24  1    1    2    0    0 0.92446815E+02 0.82039424E+01 -.23168895E+03 0.26222262E+03 0.80419002E+02 0.0000E+00 0.9000E+01
#aMCatNLO 1  0  0  1  2 0.17342739D+02 0.00000000D+00  -5  5  0 0.00000000D+00 0.00000000D+00 0.00000000D+00 0.00000000D+00 0.00000000D+00
  <mgrwgt>
 0.8388635582D-01    6    2    0
 0.141970730644879D+03 0.000000000000000D+00 0.000000000000000D+00 0.141970730644879D+03
 0.141970730644879D+03 0.000000000000000D+00 0.000000000000000D+00 -.141970730644879D+03
 0.158096913844810D+03 -.924468151275645D+02 -.820394235191272D+01 0.274939242362676D+02
 0.125844547444948D+03 0.924468151275645D+02 0.820394235191272D+01 -.274939242362676D+02
 0.000000000000000D+00 -.000000000000000D+00 -.000000000000000D+00 -.000000000000000D+00
 0.149331149930059D+03 0.000000000000000D+00 0.000000000000000D+00 0.149331149930059D+03
 0.152832011855747D+03 0.000000000000000D+00 0.000000000000000D+00 -.152832011855747D+03
 0.152722828113710D+03 -.830010208494027D+02 -.736049557415020D+01 0.274939242362676D+02
 0.131747775002694D+03 0.100275031154457D+03 0.890295012077518D+01 -.274939242362676D+02
 0.176925586694029D+02 -.172740103050544D+02 -.154245454662498D+01 -.350086192568826D+01
0.743537331822D-03 0.000000000000D+00 0.000000000000D+00 0.239684165135D-02 0.000000000000D+00  5 3 -4 25 -24 21 0 0.67809008D-02 0.70353147D-01 0.19389496D+05 0.19389496D+05 0.19389496D+05 0.12353110D+01  1  2  2  1  5  1        3 0.384741782063D-01 0.100000000000D+01
-.412887709818D-04 0.000000000000D+00 -.285537913207D-05 0.239684165135D-02 0.000000000000D+00  5 3 -4 25 -24 21 2 0.67809008D-02 0.70353147D-01 0.19389496D+05 0.19389496D+05 0.19389496D+05 0.12353110D+01  1  2  3  1  5  1        3 -.326025190066D-02 0.100000000000D+01
0.514817652411D-04 0.000000000000D+00 0.000000000000D+00 0.239684165135D-02 0.000000000000D+00  5 3 -4 25 -24 21 2 0.67809008D-02 0.70353147D-01 0.19389496D+05 0.19389496D+05 0.19389496D+05 0.12353110D+01  1  2 15  1  5  1        3 0.406511308004D-02 0.100000000000D+01
0.112251235363D-02 0.000000000000D+00 0.000000000000D+00 0.239684165135D-02 0.000000000000D+00  5 3 -4 25 -24 21 2 0.73760993D-02 0.70353147D-01 0.21965823D+05 0.21965823D+05 0.21965823D+05 0.12293684D+01  1  2 12  1  5  1        3 0.774246372472D-01 0.100000000000D+01
-.737777704156D-03 0.000000000000D+00 0.000000000000D+00 0.239684165135D-02 0.000000000000D+00  5 3 -4 25 -24 21 2 0.67809008D-02 0.70353147D-01 0.19389496D+05 0.19389496D+05 0.19389496D+05 0.12353110D+01  1  2  4  1  5  1        3 -.582565454249D-01 0.100000000000D+01
0.156778333758D-04 0.000000000000D+00 0.000000000000D+00 0.239684165135D-02 0.000000000000D+00  5 21 -4 25 -24 -3 2 0.73760993D-02 0.70353147D-01 0.21965823D+05 0.21965823D+05 0.21965823D+05 0.12293684D+01  1  2 12  3  5  1        3 0.254392246120D-01 0.100000000000D+01
  </mgrwgt>
  </event>
  <event>
  4     66 0.47139866E-03 0.10654088E+03 0.75467711E-02 0.11860680E+00
        1 -1    0    0  501    0 0.00000000E+00 0.00000000E+00 0.30137840E+03 0.30137857E+03 0.32000000E+00 0.0000E+00 0.9000E+01
       -2 -1    0    0    0  501 0.00000000E+00 0.00000000E+00 -.38858803E+02 0.38860121E+02 0.32000000E+00 0.0000E+00 0.9000E+01
       25  1    1    2    0    0 0.12543028E+02 0.24683947E+02 0.12766694E+03 0.18080506E+03 0.12500000E+03 0.0000E+00 0.9000E+01
      -24  1    1    2    0    0 -.12543028E+02 -.24683947E+02 0.13485266E+03 0.15943362E+03 0.80419002E+02 0.0000E+00 0.9000E+01
#aMCatNLO 1  0  0  1  2 0.92544994D+02 0.00000000D+00  -5  5  0 0.00000000D+00 0.00000000D+00 0.00000000D+00 0.00000000D+00 0.00000000D+00
  <mgrwgt>
 0.2372781129D+00    3    2    0
 0.108219484382299D+03 0.000000000000000D+00 0.000000000000000D+00 0.108219484382299D+03
 0.108219484382299D+03 0.000000000000000D+00 0.000000000000000D+00 -.108219484382299D+03
 0.129375064862794D+03 0.125430277079637D+02 0.246839471667348D+02 -.186086704640391D+02
 0.870639039018044D+02 -.125430277079637D+02 -.246839471667348D+02 0.186086704640391D+02
 0.000000000000000D+00 -.000000000000000D+00 -.000000000000000D+00 -.000000000000000D+00
 0.128775707011436D+03 0.000000000000000D+00 0.000000000000000D+00 0.128775707011436D+03
 0.310964922928086D+03 0.000000000000000D+00 0.000000000000000D+00 -.310964922928086D+03
 0.151535139084956D+03 0.156639171905777D+02 0.821356040904582D+02 -.186086704640391D+02
 0.838590050172607D+02 -.106440881134357D+02 0.102731465437146D+02 0.186086704640391D+02
 0.204346485837306D+03 -.501982907714191D+01 -.924087506341728D+02 -.182189215916650D+03
0.220263893952D-03 0.000000000000D+00 0.000000000000D+00 0.298659294866D-02 0.000000000000D+00  5 1 -2 25 -24 21 0 0.46366022D-01 0.59783918D-02 0.11350960D+05 0.11350960D+05 0.11350960D+05 0.12618642D+01  1  2  2  1  5  1        1 0.232225667598D+00 0.100000000000D+01
-.122332470634D-04 0.000000000000D+00 -.845871349591D-06 0.298659294866D-02 0.000000000000D+00  5 1 -2 25 -24 21 2 0.46366022D-01 0.59783918D-02 0.11350960D+05 0.11350960D+05 0.11350960D+05 0.12618642D+01  1  2  3  1  5  1        1 -.205368524963D-01 0.100000000000D+01
0.152428519324D-04 0.000000000000D+00 0.000000000000D+00 0.298659294866D-02 0.000000000000D+00  5 1 -2 25 -24 21 2 0.46366022D-01 0.59783918D-02 0.11350960D+05 0.11350960D+05 0.11350960D+05 0.12618642D+01  1  2 15  1  5  1        1 0.255892977667D-01 0.100000000000D+01
  </mgrwgt>
  </event>
  <event>
  5     66 -.47139866E-03 0.16855143E+03 0.75467711E-02 0.11745775E+00
        3 -1    0    0  502    0 0.00000000E+00 0.00000000E+00 0.30261099E+03 0.30261140E+03 0.50000000E+00 0.0000E+00 0.9000E+01
       -4 -1    0    0    0  501 0.00000000E+00 0.00000000E+00 -.12333745E+03 0.12334719E+03 0.15500000E+01 0.0000E+00 0.9000E+01
       25  1    1    2    0    0 0.11877522E+03 0.55877955E+02 0.13372633E+01 0.18126414E+03 0.12500000E+03 0.0000E+00 0.9000E+01
      -24  1    1    2    0    0 -.12445294E+03 -.48775157E+02 0.17633104E+03 0.23543025E+03 0.80419002E+02 0.0000E+00 0.9000E+01
       21  1    1    2  502  501 0.56777176E+01 -.71027977E+01 0.16052426E+01 0.92642062E+01 0.75000000E+00 0.0000E+00 0.9000E+01
#aMCatNLO 2  0  0  1  2 0.90931959D+01 0.00000000D+00  -5  5  0 0.00000000D+00 0.00000000D+00 0.00000000D+00 0.00000000D+00 0.00000000D+00
  <mgrwgt>
 -.2727865765D-01    3    2    0
 0.188404814761685D+03 0.000000000000000D+00 0.000000000000000D+00 0.188404814761685D+03
 0.188404814761685D+03 0.000000000000000D+00 0.000000000000000D+00 -.188404814761685D+03
 0.200556553103952D+03 0.121790755511596D+03 0.521055358202316D+02 -.839640161124972D+02
 0.176253076419417D+03 -.121790755511596D+03 -.521055358202316D+02 0.839640161124972D+02
 0.000000000000000D+00 0.000000000000000D+00 -.000000000000000D+00 -.000000000000000D+00
 0.191891358806959D+03 0.000000000000000D+00 0.000000000000000D+00 0.191891358806959D+03
 0.194483385482616D+03 0.000000000000000D+00 0.000000000000000D+00 -.194483385482616D+03
 0.199761995877978D+03 0.118775221026289D+03 0.558779550947411D+02 -.839640161124972D+02
 0.177157336491471D+03 -.124452938641280D+03 -.487751574081697D+02 0.839640161124972D+02
 0.945541192012630D+01 0.567771761499160D+01 -.710279768657131D+01 -.259202667565707D+01
-.155842395078D-02 0.000000000000D+00 0.000000000000D+00 0.178796029712D-02 0.000000000000D+00  5 3 -4 25 -24 21 2 0.47271846D-01 0.18381270D-01 0.29989311D+05 0.29989311D+05 0.29989311D+05 0.12149146D+01  1  2 13  1  5  1        3 -.552891979318D-01 0.100000000000D+01
-.993823477905D-03 0.000000000000D+00 0.000000000000D+00 0.178796029712D-02 0.000000000000D+00  5 3 -4 25 -24 21 2 0.45706899D-01 0.18381270D-01 0.28409583D+05 0.28409583D+05 0.28409583D+05 0.12173891D+01  1  2  8  1  5  1        3 -.377033227676D-01 0.100000000000D+01
0.190211681333D-02 0.000000000000D+00 0.000000000000D+00 0.178796029712D-02 0.170344337433D-03  5 3 -4 25 -24 21 2 0.46552733D-01 0.18974312D-01 0.29989311D+05 0.29989311D+05 0.29989311D+05 0.12149146D+01  1  2  1  1  5  1        3 0.657138630455D-01 0.100000000000D+01
  </mgrwgt>
  </event>
  <event>
  4     66 0.47139866E-03 0.67428174E+02 0.75467711E-02 0.11930374E+00
        1 -1    0    0  501    0 0.00000000E+00 0.00000000E+00 0.19141271E+02 0.19143946E+02 0.32000000E+00 0.0000E+00 0.9000E+01
       -2 -1    0    0    0  501 0.00000000E+00 0.00000000E+00 -.77711938E+03 0.77711945E+03 0.32000000E+00 0.0000E+00 0.9000E+01
       25  1    1    2    0    0 0.42299153E+02 -.91805015E+01 -.28046639E+03 0.31009659E+03 0.12500000E+03 0.0000E+00 0.9000E+01
      -24  1    1    2    0    0 -.42299153E+02 0.91805015E+01 -.47751172E+03 0.48616680E+03 0.80419002E+02 0.0000E+00 0.9000E+01
#aMCatNLO 1  0  0  1  2 0.76990115D+02 0.00000000D+00  -5  5  0 0.00000000D+00 0.00000000D+00 0.00000000D+00 0.00000000D+00 0.00000000D+00
  <mgrwgt>
 0.9759223939D-01    7    2    0
 0.121967798009183D+03 0.000000000000000D+00 0.000000000000000D+00 0.121967798009183D+03
 0.121967798009183D+03 0.000000000000000D+00 0.000000000000000D+00 -.121967798009183D+03
 0.140738703516840D+03 0.422991533279112D+02 -.918050154545293D+01 0.480508344018791D+02
 0.103196892501526D+03 -.422991533279112D+02 0.918050154545293D+01 -.480508344018791D+02
 0.000000000000000D+00 -.000000000000000D+00 0.000000000000000D+00 0.000000000000000D+00
 0.214907872241155D+03 0.000000000000000D+00 0.000000000000000D+00 0.214907872241155D+03
 0.144929586453183D+03 0.000000000000000D+00 0.000000000000000D+00 -.144929586453183D+03
 0.160447681724458D+03 0.816949068575490D+02 -.336974491256001D+02 0.480508344018791D+02
 0.953492159506489D+02 -.163289437296782D+02 -.698139942913581D+01 -.480508344018791D+02
 0.104040561019231D+03 -.653659631278707D+02 0.406788485547359D+02 0.699782857879720D+02
0.915505400327D-03 0.000000000000D+00 0.000000000000D+00 0.237650009842D-02 0.000000000000D+00  5 1 -2 25 -24 21 0 0.29450217D-02 0.11955704D+00 0.12500293D+05 0.12500293D+05 0.12500293D+05 0.12569504D+01  1  2  2  1  5  1        1 0.149086552493D+00 0.100000000000D+01
-.503933072523D-04 0.000000000000D+00 -.351578179536D-05 0.237650009842D-02 0.000000000000D+00  5 1 -2 25 -24 21 2 0.29450217D-02 0.11955704D+00 0.12500293D+05 0.12500293D+05 0.12500293D+05 0.12569504D+01  1  2  3  1  5  1        1 -.129654239168D-01 0.100000000000D+01
0.632765012157D-04 0.000000000000D+00 0.000000000000D+00 0.237650009842D-02 0.000000000000D+00  5 1 -2 25 -24 21 2 0.29450217D-02 0.11955704D+00 0.12500293D+05 0.12500293D+05 0.12500293D+05 0.12569504D+01  1  2 15  1  5  1        1 0.162800718382D-01 0.100000000000D+01
0.161074799572D-03 0.000000000000D+00 0.000000000000D+00 0.237650009842D-02 0.000000000000D+00  5 1 -2 25 -24 21 2 0.52875869D-02 0.11955704D+00 0.24403151D+05 0.24403151D+05 0.24403151D+05 0.12244243D+01  1  2 12  1  5  1        1 0.179273880485D-01 0.100000000000D+01
-.590364013178D-03 0.000000000000D+00 -.349641136994D-03 0.237650009842D-02 0.000000000000D+00  5 1 -2 25 -24 21 2 0.61745932D-02 0.11955704D+00 0.12500293D+05 0.12500293D+05 0.12500293D+05 0.12569504D+01  1  2  5  1  5  1        1 -.552900008387D-01 0.100000000000D+01
0.103448053571D-04 0.000000000000D+00 0.000000000000D+00 0.237650009842D-02 0.000000000000D+00  5 21 -2 25 -24 -1 2 0.52875869D-02 0.11955704D+00 0.24403151D+05 0.24403151D+05 0.24403151D+05 0.12244243D+01  1  2 12  3  5  1        1 0.174867188198D-01 0.100000000000D+01
-.256311449261D-04 0.000000000000D+00 -.279939449824D-04 0.237650009842D-02 0.000000000000D+00  5 21 -2 25 -24 -1 2 0.61745932D-02 0.11955704D+00 0.12500293D+05 0.12500293D+05 0.12500293D+05 0.12569504D+01  1  2  5  3  5  1        1 -.349330670581D-01 0.100000000000D+01
  </mgrwgt>
  </event>
  <event>
  5     66 0.47139866E-03 0.12115931E+03 0.75467711E-02 0.11503023E+00
       21 -1    0    0  501  502 0.00000000E+00 0.00000000E+00 0.34611924E+03 0.34612006E+03 0.75000000E+00 0.0000E+00 0.9000E+01
       -2 -1    0    0    0  501 0.00000000E+00 0.00000000E+00 -.21168809E+03 0.21168833E+03 0.32000000E+00 0.0000E+00 0.9000E+01
       25  1    1    2    0    0 -.86325603E+02 -.66428125E+02 -.12280171E+03 0.20632514E+03 0.12500000E+03 0.0000E+00 0.9000E+01
      -24  1    1    2    0    0 0.45005867E+02 -.53127022E+02 0.77114501E+02 0.13138444E+03 0.80419002E+02 0.0000E+00 0.9000E+01
       -1  1    1    2    0  502 0.41319736E+02 0.11955515E+03 0.18011837E+03 0.22009880E+03 0.32000000E+00 0.0000E+00 0.9000E+01
#aMCatNLO 2  0  0  1  2 0.12649409D+03 0.00000000D+00  -5  5  0 0.00000000D+00 0.00000000D+00 0.00000000D+00 0.00000000D+00 0.00000000D+00
  <mgrwgt>
 0.4974666592D-01    1    2    0
 0.154886803695753D+03 0.000000000000000D+00 0.000000000000000D+00 0.154886803695753D+03
 0.154886803695753D+03 0.000000000000000D+00 0.000000000000000D+00 -.154886803695753D+03
 0.169668217972366D+03 -.631680593136019D+02 0.576260969848107D+00 -.957693499809107D+02
 0.140105389419140D+03 0.631680593136019D+02 -.576260969848107D+00 0.957693499809107D+02
 0.000000000000000D+00 0.000000000000000D+00 0.000000000000000D+00 0.000000000000000D+00
 0.396590543842618D+03 0.000000000000000D+00 0.000000000000000D+00 0.396590543842618D+03
 0.184748575873631D+03 0.000000000000000D+00 0.000000000000000D+00 -.184748575873631D+03
 0.191472123253931D+03 -.863256030410249D+02 -.664281254229409D+02 -.957693499809107D+02
 0.143132780632225D+03 0.450058670590132D+02 -.531270220475645D+02 0.957693499809107D+02
 0.246734215830093D+03 0.413197359820117D+02 0.119555147470505D+03 0.211841967968987D+03
0.146135987797D-03 0.000000000000D+00 0.000000000000D+00 0.153852031485D-02 0.180884576940D-06  5 21 -2 25 -24 -1 2 0.53249168D-01 0.32567462D-01 0.39733970D+05 0.39733970D+05 0.39733970D+05 0.12022947D+01  1  2  1  3  5  1        1 0.497466659154D-01 0.100000000000D+01
  </mgrwgt>
  </event>
  <event>
  5     66 0.47139866E-03 0.11037506E+03 0.75467711E-02 0.11897869E+00
        1 -1    0    0  501    0 0.00000000E+00 0.00000000E+00 0.13189325E+04 0.13189325E+04 0.32000000E+00 0.0000E+00 0.9000E+01
       21 -1    0    0  502  501 0.00000000E+00 0.00000000E+00 -.22444161E+02 0.22456689E+02 0.75000000E+00 0.0000E+00 0.9000E+01
       25  1    1    2    0    0 0.88040461E+02 -.18533614E+02 0.51276638E+03 0.53539610E+03 0.12500000E+03 0.0000E+00 0.9000E+01
      -24  1    1    2    0    0 -.56789398E+01 0.74990018E+01 0.58529278E+03 0.59086660E+03 0.80419002E+02 0.0000E+00 0.9000E+01
        2  1    1    2  502    0 -.82361521E+02 0.11034612E+02 0.19842916E+03 0.21512652E+03 0.32000000E+00 0.0000E+00 0.9000E+01
#aMCatNLO 2  0  0  2  1 0.83097430D+02 0.00000000D+00  -5  5  0 0.00000000D+00 0.00000000D+00 0.00000000D+00 0.00000000D+00 0.00000000D+00
  <mgrwgt>
 0.7736398104D-01    2    2    0
 0.118140336849807D+03 0.000000000000000D+00 0.000000000000000D+00 0.118140336849807D+03
 0.118140336849807D+03 0.000000000000000D+00 0.000000000000000D+00 -.118140336849807D+03
 0.137519374293368D+03 0.377829090469174D+02 -.118002198174952D+02 -.414702893919333D+02
 0.987612994062455D+02 -.377829090469174D+02 0.118002198174952D+02 0.414702893919333D+02
 0.000000000000000D+00 -.000000000000000D+00 0.000000000000000D+00 -.000000000000000D+00
 0.148517244244772D+03 0.000000000000000D+00 0.000000000000000D+00 0.148517244244772D+03
 0.199375261616655D+03 0.000000000000000D+00 0.000000000000000D+00 -.199375261616655D+03
 0.159497343442691D+03 0.880404611877386D+02 -.185336142421128D+02 -.414702893919333D+02
 0.909696995825234D+02 -.567893979195551D+01 0.749900182375460D+01 0.414702893919333D+02
 0.974254628362120D+02 -.823615213957831D+02 0.110346124183582D+02 -.508580173718824D+02
-.697483197726D-06 0.000000000000D+00 0.000000000000D+00 0.252082914083D-02 0.000000000000D+00  5 1 21 25 -24 2 2 0.16141054D+00 0.35690057D-02 0.25293159D+05 0.25293159D+05 0.25293159D+05 0.12227552D+01  1  2 13  4  5  2       -2 -.818810923190D-02 0.100000000000D+01
0.106122532626D-04 0.000000000000D+00 0.000000000000D+00 0.252082914083D-02 0.289545941035D-06  5 1 21 25 -24 2 2 0.20291333D+00 0.34539088D-02 0.25293159D+05 0.25293159D+05 0.25293159D+05 0.12227552D+01  1  2  1  4  5  2       -2 0.855520902748D-01 0.100000000000D+01
  </mgrwgt>
  </event>
  <event>
  4     66 0.47139866E-03 0.87200354E+02 0.75467711E-02 0.11237130E+00
        1 -1    0    0  501    0 0.00000000E+00 0.00000000E+00 0.50848192E+02 0.50849199E+02 0.32000000E+00 0.0000E+00 0.9000E+01
       -2 -1    0    0    0  501 0.00000000E+00 0.00000000E+00 -.42504971E+03 0.42504983E+03 0.32000000E+00 0.0000E+00 0.9000E+01
       25  1    1    2    0    0 -.44908886E+02 0.93636478E+02 -.21502674E+03 0.26952940E+03 0.12500000E+03 0.0000E+00 0.9000E+01
      -24  1    1    2    0    0 0.44908886E+02 -.93636478E+02 -.15917477E+03 0.20636963E+03 0.80419002E+02 0.0000E+00 0.9000E+01
#aMCatNLO 1  0  0  1  2 0.14203191D+03 0.00000000D+00  -5  5  0 0.00000000D+00 0.00000000D+00 0.00000000D+00 0.00000000D+00 0.00000000D+00
  <mgrwgt>
 0.6399780658D-01    7    2    0
 0.147014548014814D+03 0.000000000000000D+00 0.000000000000000D+00 0.147014548014814D+03
 0.147014548014814D+03 0.000000000000000D+00 0.000000000000000D+00 -.147014548014814D+03
 0.162587469486345D+03 -.449088855250572D+02 0.936364781897624D+02 -.500871112049825D+01
 0.131441626543282D+03 0.449088855250572D+02 -.936364781897624D+02 0.500871112049825D+01
 0.000000000000000D+00 0.000000000000000D+00 0.000000000000000D+00 0.000000000000000D+00
 0.543621500693004D+03 0.000000000000000D+00 0.000000000000000D+00 0.543621500693004D+03
 0.176527746064844D+03 0.000000000000000D+00 0.000000000000000D+00 -.176527746064844D+03
 0.158938421007394D+03 -.910618181204164D+02 0.363191377353505D+02 -.500871112049825D+01
 0.167598213133555D+03 0.198367803169414D+01 -.146945305898378D+03 0.500871112049825D+01
 0.393612612616898D+03 0.890781400887223D+02 0.110626168163028D+03 0.367093754628160D+03
0.993274899291D-03 0.000000000000D+00 0.000000000000D+00 0.243169968793D-02 0.000000000000D+00  5 1 -2 25 -24 21 0 0.78228855D-02 0.65392349D-01 0.21587905D+05 0.21587905D+05 0.21587905D+05 0.12301898D+01  1  2  2  1  5  1        1 0.167319984664D+00 0.100000000000D+01
-.551819157073D-04 0.000000000000D+00 -.381443714856D-05 0.243169968793D-02 0.000000000000D+00  5 1 -2 25 -24 21 2 0.78228855D-02 0.65392349D-01 0.21587905D+05 0.21587905D+05 0.21587905D+05 0.12301898D+01  1  2  3  1  5  1        1 -.140675793421D-01 0.100000000000D+01
0.685067960251D-04 0.000000000000D+00 0.000000000000D+00 0.243169968793D-02 0.000000000000D+00  5 1 -2 25 -24 21 2 0.78228855D-02 0.65392349D-01 0.21587905D+05 0.21587905D+05 0.21587905D+05 0.12301898D+01  1  2 15  1  5  1        1 0.174645040173D-01 0.100000000000D+01
0.284233741640D-05 0.000000000000D+00 0.000000000000D+00 0.243169968793D-02 0.000000000000D+00  5 1 -2 25 -24 21 2 0.27292213D-01 0.65392349D-01 0.54853094D+05 0.54853094D+05 0.54853094D+05 0.11883179D+01  1  2 12  1  5  1        1 0.133558683468D-03 0.100000000000D+01
-.134729128290D-02 0.000000000000D+00 -.455104876605D-03 0.243169968793D-02 0.000000000000D+00  5 1 -2 25 -24 21 2 0.33887760D-01 0.65392349D-01 0.21587905D+05 0.21587905D+05 0.21587905D+05 0.12301898D+01  1  2  5  1  5  1        1 -.517280838687D-01 0.100000000000D+01
0.415290515877D-06 0.000000000000D+00 0.000000000000D+00 0.243169968793D-02 0.000000000000D+00  5 21 -2 25 -24 -1 2 0.27292213D-01 0.65392349D-01 0.54853094D+05 0.54853094D+05 0.54853094D+05 0.11883179D+01  1  2 12  3  5  1        1 0.133738198781D-03 0.100000000000D+01
-.238809942874D-03 0.000000000000D+00 -.803694320431D-04 0.243169968793D-02 0.000000000000D+00  5 21 -2 25 -24 -1 2 0.33887760D-01 0.65392349D-01 0.21587905D+05 0.21587905D+05 0.21587905D+05 0.12301898D+01  1  2  5  3  5  1        1 -.552583157760D-01 0.100000000000D+01
  </mgrwgt>
  </event>
  <event>
  4     66 0.47139866E-03 0.10330083E+03 0.75467711E-02 0.12119544E+00
        1 -1    0    0  501    0 0.00000000E+00 0.00000000E+00 0.22152566E+03 0.22152589E+03 0.32000000E+00 0.0000E+00 0.9000E+01
       -2 -1    0    0    0  501 0.00000000E+00 0.00000000E+00 -.49604056E+02 0.49605088E+02 0.32000000E+00 0.0000E+00 0.9000E+01
       25  1    1    2    0    0 -.82131979E+01 0.69778550E+01 0.81341325E+02 0.14952444E+03 0.12500000E+03 0.0000E+00 0.9000E+01
      -24  1    1    2    0    0 0.82131979E+01 -.69778550E+01 0.90580276E+02 0.12160654E+03 0.80419002E+02 0.0000E+00 0.9000E+01
#aMCatNLO 1  0  0  1  1 0.65390611D+02 0.00000000D+00  -5  5  0 0.00000000D+00 0.00000000D+00 0.00000000D+00 0.00000000D+00 0.00000000D+00
  <mgrwgt>
 0.2655056781D+00    3    2    0
 0.104827201913928D+03 0.000000000000000D+00 0.000000000000000D+00 0.104827201913928D+03
 0.104827201913928D+03 0.000000000000000D+00 0.000000000000000D+00 -.104827201913928D+03
 0.126667391956272D+03 -.821319793885283D+01 0.697785496450207D+01 -.174207090761417D+02
 0.829870118715845D+02 0.821319793885283D+01 -.697785496450207D+01 0.174207090761417D+02
 0.000000000000000D+00 0.000000000000000D+00 -.000000000000000D+00 -.000000000000000D+00
 0.119770217288258D+03 0.000000000000000D+00 0.000000000000000D+00 0.119770217288258D+03
 0.217107885825107D+03 0.000000000000000D+00 0.000000000000000D+00 -.217107885825107D+03
 0.135843939480363D+03 -.457082205421695D+02 0.208771014199147D+02 -.174207090761417D+02
 0.837714085015898D+02 -.156052433717265D+02 0.185154059186280D+01 0.174207090761417D+02
 0.117262755131412D+03 0.613134639138960D+02 -.227286420117775D+02 -.973376685368482D+02
0.245491065208D-03 0.000000000000D+00 0.000000000000D+00 0.309678885531D-02 0.000000000000D+00  5 1 -2 25 -24 21 0 0.34080967D-01 0.76314904D-02 0.10671061D+05 0.10671061D+05 0.10671061D+05 0.12650424D+01  1  2  2  1  5  1        1 0.259969422098D+00 0.100000000000D+01
-.136348248676D-04 0.000000000000D+00 -.942750329680D-06 0.309678885531D-02 0.000000000000D+00  5 1 -2 25 -24 21 2 0.34080967D-01 0.76314904D-02 0.10671061D+05 0.10671061D+05 0.10671061D+05 0.12650424D+01  1  2  3  1  5  1        1 -.231071462234D-01 0.100000000000D+01
0.169016012980D-04 0.000000000000D+00 0.000000000000D+00 0.309678885531D-02 0.000000000000D+00  5 1 -2 25 -24 21 2 0.34080967D-01 0.76314904D-02 0.10671061D+05 0.10671061D+05 0.10671061D+05 0.12650424D+01  1  2 15  1  5  1        1 0.286434021995D-01 0.100000000000D+01
  </mgrwgt>
  </event>
  <event>
  4     66 0.47139866E-03 0.14970575E+03 0.75467711E-02 0.11221389E+00
        1 -1    0    0  501    0 0.00000000E+00 0.00000000E+00 0.18948064E+03 0.18948091E+03 0.32000000E+00 0.0000E+00 0.9000E+01
       -2 -1    0    0    0  501 0.00000000E+00 0.00000000E+00 -.15069110E+03 0.15069144E+03 0.32000000E+00 0.0000E+00 0.9000E+01
       25  1    1    2    0    0 0.34747475E+01 0.10764528E+03 -.57607602E+02 0.17476617E+03 0.12500000E+03 0.0000E+00 0.9000E+01
      -24  1    1    2    0    0 -.34747475E+01 -.10764528E+03 0.96397136E+02 0.16540618E+03 0.80419002E+02 0.0000E+00 0.9000E+01
#aMCatNLO 1  0  0  2  1 0.14154714D+03 0.00000000D+00  -5  5  0 0.00000000D+00 0.00000000D+00 0.00000000D+00 0.00000000D+00 0.00000000D+00
  <mgrwgt>
 0.1563293322D+00    5    2    0
 0.168976774580434D+03 0.000000000000000D+00 0.000000000000000D+00 0.168976774580434D+03
 0.168976774580434D+03 0.000000000000000D+00 0.000000000000000D+00 -.168976774580434D+03
 0.182525654401889D+03 0.347474745085721D+01 0.107645278765976D+03 -.780450805905531D+02
 0.155427894758979D+03 -.347474745085721D+01 -.107645278765976D+03 0.780450805905531D+02
 0.000000000000000D+00 0.000000000000000D+00 0.000000000000000D+00 -.000000000000000D+00
 0.233014713979913D+03 0.000000000000000D+00 0.000000000000000D+00 0.233014713979913D+03
 0.283749001356710D+03 0.000000000000000D+00 0.000000000000000D+00 -.283749001356710D+03
 0.180201357298911D+03 -.644691243225400D+02 0.812417785198523D+02 -.780450805905531D+02
 0.186197598088881D+03 -.674660079079770D+02 -.132512764488078D+03 0.780450805905531D+02
 0.150364759948831D+03 0.131935132230517D+03 0.512709859682255D+02 -.507342873767973D+02
0.717914104197D-03 0.000000000000D+00 0.000000000000D+00 0.183123997125D-02 0.000000000000D+00  5 1 -2 25 -24 21 0 0.29150914D-01 0.23183294D-01 0.22411813D+05 0.22411813D+05 0.22411813D+05 0.12284192D+01  1  2  2  2  5  2       -2 0.156860987844D+00 0.100000000000D+01
-.391730756564D-04 0.000000000000D+00 -.275697919124D-05 0.183123997125D-02 0.000000000000D+00  5 1 -2 25 -24 21 2 0.29150914D-01 0.23183294D-01 0.22411813D+05 0.22411813D+05 0.22411813D+05 0.12284192D+01  1  2  3  2  5  2       -2 -.129158602970D-01 0.100000000000D+01
0.495168523670D-04 0.000000000000D+00 0.000000000000D+00 0.183123997125D-02 0.000000000000D+00  5 1 -2 25 -24 21 2 0.29150914D-01 0.23183294D-01 0.22411813D+05 0.22411813D+05 0.22411813D+05 0.12284192D+01  1  2 15  2  5  2       -2 0.163263347798D-01 0.100000000000D+01
-.101645270238D-03 0.000000000000D+00 -.202900926270D-03 0.183123997125D-02 0.000000000000D+00  5 1 -2 25 -24 21 2 0.29150914D-01 0.52152310D-01 0.22411813D+05 0.22411813D+05 0.22411813D+05 0.12284192D+01  1  2  5  2  5  2       -2 -.745745440316D-02 0.100000000000D+01
0.387775628775D-05 0.000000000000D+00 -.178625506305D-04 0.183123997125D-02 0.000000000000D+00  5 1 21 25 -24 2 2 0.29150914D-01 0.52152310D-01 0.22411813D+05 0.22411813D+05 0.22411813D+05 0.12284192D+01  1  2  5  4  5  2       -2 0.351532427339D-02 0.100000000000D+01
  </mgrwgt>
  </event>
  <event>
  4     66 -.47139866E-03 0.10098382E+03 0.75467711E-02 0.12591090E+00
        1 -1    0    0  501    0 0.00000000E+00 0.00000000E+00 0.11603433E+04 0.11603434E+04 0.32000000E+00 0.0000E+00 0.9000E+01
       -2 -1    0    0    0  501 0.00000000E+00 0.00000000E+00 -.10563279E+02 0.10568125E+02 0.32000000E+00 0.0000E+00 0.9000E+01
       25  1    1    2    0    0 0.96207464E+01 0.39337232E+02 0.68838064E+03 0.70080873E+03 0.12500000E+03 0.0000E+00 0.9000E+01
      -24  1    1    2    0    0 -.96207464E+01 -.39337232E+02 0.46139940E+03 0.47010276E+03 0.80419002E+02 0.0000E+00 0.9000E+01
#aMCatNLO 1  0  0  2  1 0.14901645D+00 0.00000000D+00  -5  5  0 0.00000000D+00 0.00000000D+00 0.00000000D+00 0.00000000D+00 0.00000000D+00
  <mgrwgt>
 -.2978943549D+00    9    2    0
 0.110724401136134D+03 0.000000000000000D+00 0.000000000000000D+00 0.110724401136134D+03
 0.110724401136134D+03 0.000000000000000D+00 0.000000000000000D+00 -.110724401136134D+03
 0.131401379181764D+03 0.962074635939343D+01 0.393372322174478D+02 0.116010854170785D+01
 0.900474230905042D+02 -.962074635939343D+01 -.393372322174478D+02 -.116010854170785D+01
 0.000000000000000D+00 -.000000000000000D+00 0.000000000000000D+00 -.000000000000000D+00
 0.110763300089624D+03 0.000000000000000D+00 0.000000000000000D+00 0.110763300089624D+03
 0.110867233536830D+03 0.000000000000000D+00 0.000000000000000D+00 -.110867233536830D+03
 0.131392242802674D+03 0.969456408960474D+01 0.392885612360741D+02 0.116010854170785D+01
 0.900566096073696D+02 -.957015582072180D+01 -.393705885826235D+02 -.116010854170785D+01
 0.181681216410455D+00 -.124408268882944D+00 0.820273465493782D-01 -.103933447205410D+00
0.560403945893D-04 0.000000000000D+00 0.000000000000D+00 0.299182907737D-02 0.000000000000D+00  5 1 -2 25 -24 21 0 0.17851473D+00 0.16254960D-02 0.12258499D+05 0.12258499D+05 0.12258499D+05 0.12579408D+01  1  2  2  2  5  2       -2 0.602105431234D-01 0.100000000000D+01
-.311335524272D-05 0.000000000000D+00 -.215209870998D-06 0.299182907737D-02 0.000000000000D+00  5 1 -2 25 -24 21 2 0.17851473D+00 0.16254960D-02 0.12258499D+05 0.12258499D+05 0.12258499D+05 0.12579408D+01  1  2  3  2  5  2       -2 -.529322571591D-02 0.100000000000D+01
0.388411279882D-05 0.000000000000D+00 0.000000000000D+00 0.299182907737D-02 0.000000000000D+00  5 1 -2 25 -24 21 2 0.17851473D+00 0.16254960D-02 0.12258499D+05 0.12258499D+05 0.12258499D+05 0.12579408D+01  1  2 15  2  5  2       -2 0.660364274148D-02 0.100000000000D+01
-.105166565938D-01 0.000000000000D+00 0.000000000000D+00 0.299182907737D-02 0.000000000000D+00  5 1 -2 25 -24 21 2 0.17851473D+00 0.16254960D-02 0.12258499D+05 0.12258499D+05 0.12258499D+05 0.12579408D+01  1  2  4  2  5  2       -2 -.178800788178D+02 0.100000000000D+01
-.584292441400D-01 0.000000000000D+00 -.404278652248D-02 0.299182907737D-02 0.000000000000D+00  5 1 -2 25 -24 21 2 0.17851473D+00 0.16281844D-02 0.12258499D+05 0.12258499D+05 0.12258499D+05 0.12579408D+01  1  2  5  2  5  2       -2 -.991039151354D+02 0.100000000000D+01
0.584358506913D-01 0.000000000000D+00 0.404278100236D-02 0.299182907737D-02 0.000000000000D+00  5 1 -2 25 -24 21 2 0.17851473D+00 0.16254960D-02 0.12258499D+05 0.12258499D+05 0.12258499D+05 0.12579408D+01  1  2  6  2  5  2       -2 0.993507401168D+02 0.100000000000D+01
0.105166659356D-01 0.000000000000D+00 0.000000000000D+00 0.299182907737D-02 0.113694814553D+01  5 1 -2 25 -24 21 2 0.17857745D+00 0.16275929D-02 0.12275008D+05 0.12275008D+05 0.12275008D+05 0.12578724D+01  1  2 11  2  5  2       -2 0.178343248085D+02 0.100000000000D+01
-.180553252326D-04 0.000000000000D+00 -.124955456029D-05 0.299182907737D-02 0.000000000000D+00  5 1 21 25 -24 2 2 0.17851473D+00 0.16281844D-02 0.12258499D+05 0.12258499D+05 0.12258499D+05 0.12579408D+01  1  2  5  4  5  2       -2 -.667650321825D+00 0.100000000000D+01
0.289848358028D-05 0.000000000000D+00 0.000000000000D+00 0.299182907737D-02 0.274335642095D-03  5 1 21 25 -24 2 2 0.17857745D+00 0.16275929D-02 0.12275008D+05 0.12275008D+05 0.12275008D+05 0.12578724D+01  1  2 11  4  5  2       -2 0.107164034745D+00 0.100000000000D+01
  </mgrwgt>
  </event>
  <event>
  4     66 0.47139866E-03 0.17681269E+03 0.75467711E-02 0.10611433E+00
        1 -1    0    0  501    0 0.00000000E+00 0.00000000E+00 0.10360187E+04 0.10360187E+04 0.32000000E+00 0.0000E+00 0.9000E+01
       -2 -1    0    0    0  501 0.00000000E+00 0.00000000E+00 -.32821057E+02 0.32822617E+02 0.32000000E+00 0.0000E+00 0.9000E+01
       25  1    1    2    0    0 -.75186085E+02 0.12137270E+03 0.68673648E+03 0.71247194E+03 0.12500000E+03 0.0000E+00 0.9000E+01
      -24  1    1    2    0    0 0.75186085E+02 -.12137270E+03 0.31646116E+03 0.35636942E+03 0.80419002E+02 0.0000E+00 0.9000E+01
#aMCatNLO 1  0  0  2  1 0.26581408D+03 0.00000000D+00  -5  5  0 0.00000000D+00 0.00000000D+00 0.00000000D+00 0.00000000D+00 0.00000000D+00
  <mgrwgt>
 0.2364626649D+00    5    2    0
 0.184401977001886D+03 0.000000000000000D+00 0.000000000000000D+00 0.184401977001886D+03
 0.184401977001886D+03 0.000000000000000D+00 0.000000000000000D+00 -.184401977001886D+03
 0.196817494712869D+03 -.751860852058998D+02 0.121372703668185D+03 0.522287815360116D+02
 0.171986459290902D+03 0.751860852058998D+02 -.121372703668185D+03 -.522287815360116D+02
 0.000000000000000D+00 -.000000000000000D+00 0.000000000000000D+00 -.000000000000000D+00
 0.291880115266090D+03 0.000000000000000D+00 0.000000000000000D+00 0.291880115266090D+03
 0.500860545723336D+03 0.000000000000000D+00 0.000000000000000D+00 -.500860545723336D+03
 0.165634990441158D+03 0.369177920938470D+02 0.878588701533413D+02 0.522287815360116D+02
 0.288978559254311D+03 0.217759161664481D+03 -.163995407389271D+03 -.522287815360116D+02
 0.338127111293956D+03 -.254676953758328D+03 0.761365372359295D+02 -.208980430457246D+03
0.839740227599D-03 0.000000000000D+00 0.000000000000D+00 0.204866341887D-02 0.000000000000D+00  5 1 -2 25 -24 21 0 0.15938762D+00 0.50495172D-02 0.31262727D+05 0.31262727D+05 0.31262727D+05 0.12130236D+01  1  2  2  2  5  2       -2 0.212470004146D+00 0.100000000000D+01
-.465520474576D-04 0.000000000000D+00 -.322482358266D-05 0.204866341887D-02 0.000000000000D+00  5 1 -2 25 -24 21 2 0.15938762D+00 0.50495172D-02 0.31262727D+05 0.31262727D+05 0.31262727D+05 0.12130236D+01  1  2  3  2  5  2       -2 -.173312533405D-01 0.100000000000D+01
0.578776969253D-04 0.000000000000D+00 0.000000000000D+00 0.204866341887D-02 0.000000000000D+00  5 1 -2 25 -24 21 2 0.15938762D+00 0.50495172D-02 0.31262727D+05 0.31262727D+05 0.31262727D+05 0.12130236D+01  1  2 15  2  5  2       -2 0.215477746514D-01 0.100000000000D+01
0.168760425844D-03 0.000000000000D+00 -.297598588217D-03 0.204866341887D-02 0.000000000000D+00  5 1 -2 25 -24 21 2 0.15938762D+00 0.22111794D-01 0.31262727D+05 0.31262727D+05 0.31262727D+05 0.12130236D+01  1  2  5  2  5  2       -2 0.592825483475D-02 0.100000000000D+01
0.289063477604D-04 0.000000000000D+00 -.530012976697D-04 0.204866341887D-02 0.000000000000D+00  5 1 21 25 -24 2 2 0.15938762D+00 0.22111794D-01 0.31262727D+05 0.31262727D+05 0.31262727D+05 0.12130236D+01  1  2  5  4  5  2       -2 0.138478845762D-01 0.100000000000D+01
  </mgrwgt>
  </event>
  <event>
  4     66 0.47139866E-03 0.59203667E+02 0.75467711E-02 0.12164482E+00
        1 -1    0    0  501    0 0.00000000E+00 0.00000000E+00 0.15162004E+04 0.15162005E+04 0.32000000E+00 0.0000E+00 0.9000E+01
       -2 -1    0    0    0  501 0.00000000E+00 0.00000000E+00 -.93757392E+01 0.93811985E+01 0.32000000E+00 0.0000E+00 0.9000E+01
       25  1    1    2    0    0 -.33851508E+02 -.48895072E+02 0.85965659E+03 0.87073021E+03 0.12500000E+03 0.0000E+00 0.9000E+01
      -24  1    1    2    0    0 0.33851508E+02 0.48895072E+02 0.64716809E+03 0.65485144E+03 0.80419002E+02 0.0000E+00 0.9000E+01
#aMCatNLO 1  0  0  2  1 0.34486952D+02 0.00000000D+00  -5  5  0 0.00000000D+00 0.00000000D+00 0.00000000D+00 0.00000000D+00 0.00000000D+00
  <mgrwgt>
 0.2426454521D+00    9    2    0
 0.119246340598210D+03 0.000000000000000D+00 0.000000000000000D+00 0.119246340598210D+03
 0.119246340598210D+03 0.000000000000000D+00 0.000000000000000D+00 -.119246340598210D+03
 0.138445638454414D+03 -.338515075748983D+02 -.488950719122581D+02 -.235418449826925D+01
 0.100047042742006D+03 0.338515075748983D+02 0.488950719122581D+02 0.235418449826925D+01
 0.000000000000000D+00 -.000000000000000D+00 -.000000000000000D+00 -.000000000000000D+00
 0.126796212645618D+03 0.000000000000000D+00 0.000000000000000D+00 0.126796212645618D+03
 0.167611345809535D+03 0.000000000000000D+00 0.000000000000000D+00 -.167611345809535D+03
 0.132617888796773D+03 -.330412769058015D+02 -.294148986857935D+02 -.235418449826925D+01
 0.108355364588987D+03 0.344744391203021D+02 0.638720591771583D+02 0.235418449826925D+01
 0.534343050693934D+02 -.143316221450056D+01 -.344571604913648D+02 -.408151331639167D+02
0.276531432163D-03 0.000000000000D+00 0.000000000000D+00 0.279684714074D-02 0.000000000000D+00  5 1 -2 25 -24 21 0 0.23326203D+00 0.14428440D-02 0.14214000D+05 0.14214000D+05 0.14214000D+05 0.12504961D+01  1  2  2  2  5  2       -2 0.205922750070D+00 0.100000000000D+01
-.153628565944D-04 0.000000000000D+00 -.106195351190D-05 0.279684714074D-02 0.000000000000D+00  5 1 -2 25 -24 21 2 0.23326203D+00 0.14428440D-02 0.14214000D+05 0.14214000D+05 0.14214000D+05 0.12504961D+01  1  2  3  2  5  2       -2 -.178894304198D-01 0.100000000000D+01
0.191311784202D-04 0.000000000000D+00 0.000000000000D+00 0.279684714074D-02 0.000000000000D+00  5 1 -2 25 -24 21 2 0.23326203D+00 0.14428440D-02 0.14214000D+05 0.14214000D+05 0.14214000D+05 0.12504961D+01  1  2 15  2  5  2       -2 0.222774900679D-01 0.100000000000D+01
0.342478939672D-03 0.000000000000D+00 0.000000000000D+00 0.279684714074D-02 0.000000000000D+00  5 1 -2 25 -24 21 2 0.23326203D+00 0.20594608D-02 0.18963181D+05 0.18963181D+05 0.18963181D+05 0.12363794D+01  1  2 12  2  5  2       -2 0.234365077672D+00 0.100000000000D+01
-.359452106925D-03 0.000000000000D+00 0.000000000000D+00 0.279684714074D-02 0.000000000000D+00  5 1 -2 25 -24 21 2 0.23326203D+00 0.14428440D-02 0.14214000D+05 0.14214000D+05 0.14214000D+05 0.12504961D+01  1  2  4  2  5  2       -2 -.418567563692D+00 0.100000000000D+01
-.464378122750D-03 0.000000000000D+00 -.106942944135D-03 0.279684714074D-02 0.000000000000D+00  5 1 -2 25 -24 21 2 0.23326203D+00 0.21658870D-02 0.14214000D+05 0.14214000D+05 0.14214000D+05 0.12504961D+01  1  2  5  2  5  2       -2 -.300949078470D+00 0.100000000000D+01
0.476239326308D-03 0.000000000000D+00 0.986881167665D-04 0.279684714074D-02 0.000000000000D+00  5 1 -2 25 -24 21 2 0.23326203D+00 0.14428440D-02 0.14214000D+05 0.14214000D+05 0.14214000D+05 0.12504961D+01  1  2  6  2  5  2       -2 0.554561597239D+00 0.100000000000D+01
0.149720861821D-04 0.000000000000D+00 0.000000000000D+00 0.279684714074D-02 0.000000000000D+00  5 1 21 25 -24 2 2 0.23326203D+00 0.20594608D-02 0.18963181D+05 0.18963181D+05 0.18963181D+05 0.12363794D+01  1  2 12  4  5  2       -2 0.213682658454D+00 0.100000000000D+01
-.186292975704D-04 0.000000000000D+00 -.514847586757D-05 0.279684714074D-02 0.000000000000D+00  5 1 21 25 -24 2 2 0.23326203D+00 0.21658870D-02 0.14214000D+05 0.14214000D+05 0.14214000D+05 0.12504961D+01  1  2  5  4  5  2       -2 -.250758048835D+00 0.100000000000D+01
  </mgrwgt>
  </event>
  <event>
  4     66 0.47139866E-03 0.12278850E+03 0.75467711E-02 0.12049663E+00
        1 -1    0    0  501    0 0.00000000E+00 0.00000000E+00 0.36789935E+03 0.36789949E+03 0.32000000E+00 0.0000E+00 0.9000E+01
       -2 -1    0    0    0  501 0.00000000E+00 0.00000000E+00 -.52661289E+02 0.52662261E+02 0.32000000E+00 0.0000E+00 0.9000E+01
       25  1    1    2    0    0 0.17052615E+02 -.89566747E+02 0.15070815E+03 0.21598828E+03 0.12500000E+03 0.0000E+00 0.9000E+01
      -24  1    1    2    0    0 -.17052615E+02 0.89566747E+02 0.16452991E+03 0.20457346E+03 0.80419002E+02 0.0000E+00 0.9000E+01
#aMCatNLO 1  0  0  2  1 0.16037687D+02 0.00000000D+00  -5  5  0 0.00000000D+00 0.00000000D+00 0.00000000D+00 0.00000000D+00 0.00000000D+00
  <mgrwgt>
 0.3597494156D+00    6    2    0
 0.139191549681621D+03 0.000000000000000D+00 0.000000000000000D+00 0.139191549681621D+03
 0.139191549681621D+03 0.000000000000000D+00 0.000000000000000D+00 -.139191549681621D+03
 0.155639717811397D+03 0.170526145038562D+02 -.895667466505027D+02 -.169034905696656D+02
 0.122743381551845D+03 -.170526145038562D+02 0.895667466505027D+02 0.169034905696656D+02
 0.000000000000000D+00 0.000000000000000D+00 -.000000000000000D+00 0.000000000000000D+00
 0.149333544701571D+03 0.000000000000000D+00 0.000000000000000D+00 0.149333544701571D+03
 0.145910136061821D+03 0.000000000000000D+00 0.000000000000000D+00 -.145910136061821D+03
 0.154022239872959D+03 0.827939542386045D+01 -.879975794750057D+02 -.169034905696656D+02
 0.124822443422802D+03 -.240665507182503D+02 0.908212506561935D+02 0.169034905696656D+02
 0.163989974676309D+02 0.157871552943898D+02 -.282367118118777D+01 0.342340863974961D+01
0.378516890904D-03 0.000000000000D+00 0.000000000000D+00 0.247609858177D-02 0.000000000000D+00  5 1 -2 25 -24 21 0 0.56599985D-01 0.81018223D-02 0.19084451D+05 0.19084451D+05 0.19084451D+05 0.12360727D+01  1  2  2  2  5  2       -2 0.199695344334D+00 0.100000000000D+01
-.210272639578D-04 0.000000000000D+00 -.145360452686D-05 0.247609858177D-02 0.000000000000D+00  5 1 -2 25 -24 21 2 0.56599985D-01 0.81018223D-02 0.19084451D+05 0.19084451D+05 0.19084451D+05 0.12360727D+01  1  2  3  2  5  2       -2 -.169493678729D-01 0.100000000000D+01
0.262112786449D-04 0.000000000000D+00 0.000000000000D+00 0.247609858177D-02 0.000000000000D+00  5 1 -2 25 -24 21 2 0.56599985D-01 0.81018223D-02 0.19084451D+05 0.19084451D+05 0.19084451D+05 0.12360727D+01  1  2 15  2  5  2       -2 0.211280271682D-01 0.100000000000D+01
0.461384185497D-03 0.000000000000D+00 0.000000000000D+00 0.247609858177D-02 0.000000000000D+00  5 1 -2 25 -24 21 2 0.56599985D-01 0.87711212D-02 0.21433278D+05 0.21433278D+05 0.21433278D+05 0.12305305D+01  1  2 12  2  5  2       -2 0.326921911463D+00 0.100000000000D+01
-.298911113365D-03 0.000000000000D+00 0.000000000000D+00 0.247609858177D-02 0.000000000000D+00  5 1 -2 25 -24 21 2 0.56599985D-01 0.81018223D-02 0.19084451D+05 0.19084451D+05 0.19084451D+05 0.12360727D+01  1  2  4  2  5  2       -2 -.240942161182D+00 0.100000000000D+01
0.611989166299D-05 0.000000000000D+00 0.000000000000D+00 0.247609858177D-02 0.000000000000D+00  5 1 21 25 -24 2 2 0.56599985D-01 0.87711212D-02 0.21433278D+05 0.21433278D+05 0.21433278D+05 0.12305305D+01  1  2 12  4  5  2       -2 0.698956617176D-01 0.100000000000D+01
  </mgrwgt>
  </event>
  <event>
  5     66 0.47139866E-03 0.11029488E+03 0.75467711E-02 0.11969231E+00
        1 -1    0    0  501    0 0.00000000E+00 0.00000000E+00 0.25392363E+03 0.25392383E+03 0.32000000E+00 0.0000E+00 0.9000E+01
       21 -1    0    0  502  501 0.00000000E+00 0.00000000E+00 -.14580228E+03 0.14580420E+03 0.75000000E+00 0.0000E+00 0.9000E+01
       25  1    1    2    0    0 -.21084977E+02 -.50191857E+02 -.67061261E+02 0.15194082E+03 0.12500000E+03 0.0000E+00 0.9000E+01
      -24  1    1    2    0    0 0.50156546E+02 -.17008138E+02 0.12989526E+03 0.16169400E+03 0.80419002E+02 0.0000E+00 0.9000E+01
        2  1    1    2  502    0 -.29071569E+02 0.67199994E+02 0.45287359E+02 0.86093221E+02 0.32000000E+00 0.0000E+00 0.9000E+01
#aMCatNLO 2  0  0  2  2 0.73218818D+02 0.00000000D+00  -5  5  0 0.00000000D+00 0.00000000D+00 0.00000000D+00 0.00000000D+00 0.00000000D+00
  <mgrwgt>
 0.5591487403D-01    1    2    0
 0.149212675919680D+03 0.000000000000000D+00 0.000000000000000D+00 0.149212675919680D+03
 0.149212675919680D+03 0.000000000000000D+00 0.000000000000000D+00 -.149212675919680D+03
 0.164556184755616D+03 -.370848248696056D+02 -.132076239331061D+02 -.995189046149369D+02
 0.133869167083743D+03 0.370848248696056D+02 0.132076239331061D+02 0.995189046149369D+02
 0.000000000000000D+00 -.000000000000000D+00 0.000000000000000D+00 0.000000000000000D+00
 0.207254591783477D+03 0.000000000000000D+00 0.000000000000000D+00 0.207254591783477D+03
 0.178635078573074D+03 0.000000000000000D+00 0.000000000000000D+00 -.178635078573074D+03
 0.168798137149635D+03 -.210849771978839D+02 -.501918565705123D+02 -.995189046149369D+02
 0.138478100061915D+03 0.501565461637388D+02 -.170081375686744D+02 0.995189046149369D+02
 0.786134331450016D+02 -.290715689658548D+02 0.671999941391867D+02 0.286195132104035D+02
0.168798284225D-04 0.000000000000D+00 0.000000000000D+00 0.143470976645D-02 0.968968583308D-07  5 1 21 25 -24 2 2 0.39065270D-01 0.22431244D-01 0.23386313D+05 0.23386313D+05 0.23386313D+05 0.12264167D+01  1  2  1  4  5  2       -2 0.559148740327D-01 0.100000000000D+01
  </mgrwgt>
  </event>
  <event>
  5     66 0.47139866E-03 0.26034911E+03 0.75467711E-02 0.10752804E+00
        1 -1    0    0  501    0 0.00000000E+00 0.00000000E+00 0.13321116E+04 0.13321117E+04 0.32000000E+00 0.0000E+00 0.9000E+01
       21 -1    0    0  502  501 0.00000000E+00 0.00000000E+00 -.20349322E+03 0.20349460E+03 0.75000000E+00 0.0000E+00 0.9000E+01
       25  1    1    2    0    0 -.16469272E+03 0.13507500E+03 0.73246908E+03 0.77298441E+03 0.12500000E+03 0.0000E+00 0.9000E+01
      -24  1    1    2    0    0 0.26077951E+03 -.82444923E+02 0.52260809E+03 0.59530627E+03 0.80419002E+02 0.0000E+00 0.9000E+01
        2  1    1    2  502    0 -.96086786E+02 -.52630076E+02 -.12645874E+03 0.16731560E+03 0.32000000E+00 0.0000E+00 0.9000E+01
#aMCatNLO 2  0  0  2  1 0.10955636D+03 0.00000000D+00  -5  5  0 0.00000000D+00 0.00000000D+00 0.00000000D+00 0.00000000D+00 0.00000000D+00
  <mgrwgt>
 0.1321906926D+00    2    2    0
 0.266926057881584D+03 0.000000000000000D+00 0.000000000000000D+00 0.266926057881584D+03
 0.266926057881584D+03 0.000000000000000D+00 0.000000000000000D+00 -.266926057881584D+03
 0.275503137352870D+03 -.211843155346832D+03 0.109249066783485D+03 0.588565852807487D+02
 0.258348978410299D+03 0.211843155346832D+03 -.109249066783485D+03 -.588565852807487D+02
 0.000000000000000D+00 -.000000000000000D+00 -.000000000000000D+00 -.000000000000000D+00
 0.276732603338936D+03 0.000000000000000D+00 0.000000000000000D+00 0.276732603338936D+03
 0.979561858751323D+03 0.000000000000000D+00 0.000000000000000D+00 -.979561858751323D+03
 0.253885892089373D+03 -.164692723920771D+03 0.135074998643951D+03 0.588565852807487D+02
 0.291091792697062D+03 0.260779510201172D+03 -.824449225213136D+02 -.588565852807487D+02
 0.711316777303825D+03 -.960867862804013D+02 -.526300761226372D+02 -.702829255412386D+03
-.260015525215D-02 0.000000000000D+00 0.000000000000D+00 0.194394353691D-02 0.000000000000D+00  5 1 21 25 -24 2 2 0.19767789D+00 0.30914515D-01 0.10291438D+06 0.10291438D+06 0.10291438D+06 0.11624273D+01  1  2 13  4  5  2       -2 -.376254223241D+00 0.100000000000D+01
0.388219256302D-02 0.000000000000D+00 0.000000000000D+00 0.194394353691D-02 0.386465923786D-06  5 1 21 25 -24 2 2 0.20494034D+00 0.31306754D-01 0.10291438D+06 0.10291438D+06 0.10291438D+06 0.11624273D+01  1  2  1  4  5  2       -2 0.508444915815D+00 0.100000000000D+01
  </mgrwgt>
  </event>
  <event>
  4     66 0.47139866E-03 0.13234376E+03 0.75467711E-02 0.11994051E+00
        1 -1    0    0  501    0 0.00000000E+00 0.00000000E+00 0.54768450E+03 0.54768459E+03 0.32000000E+00 0.0000E+00 0.9000E+01
       -2 -1    0    0    0  501 0.00000000E+00 0.00000000E+00 -.32982990E+02 0.32984542E+02 0.32000000E+00 0.0000E+00 0.9000E+01
       25  1    1    2    0    0 0.81809114E+02 0.86772535E+01 0.34019927E+03 0.37165652E+03 0.12500000E+03 0.0000E+00 0.9000E+01
      -24  1    1    2    0    0 -.81809114E+02 -.86772535E+01 0.17450224E+03 0.20901262E+03 0.80419002E+02 0.0000E+00 0.9000E+01
#aMCatNLO 1  0  0  1  1 0.34796324D+02 0.00000000D+00  -5  5  0 0.00000000D+00 0.00000000D+00 0.00000000D+00 0.00000000D+00 0.00000000D+00
  <mgrwgt>
 0.2100880253D+00    4    2    0
 0.134405171918361D+03 0.000000000000000D+00 0.000000000000000D+00 0.134405171918361D+03
 0.134405171918361D+03 0.000000000000000D+00 0.000000000000000D+00 -.134405171918361D+03
 0.151439084964490D+03 0.818091136639907D+02 0.867725349856628D+01 0.232544758727378D+02
 0.117371258872232D+03 -.818091136639907D+02 -.867725349856628D+01 -.232544758727378D+02
 0.000000000000000D+00 -.000000000000000D+00 0.000000000000000D+00 -.000000000000000D+00
 0.141080201240574D+03 0.000000000000000D+00 0.000000000000000D+00 0.141080201240574D+03
 0.190030541154546D+03 0.000000000000000D+00 0.000000000000000D+00 -.190030541154546D+03
 0.154634360019523D+03 0.874140144616918D+02 -.102374179470612D+02 0.232544758727378D+02
 0.116418743855877D+03 -.775278870686755D+02 -.231249658412869D+02 -.232544758727378D+02
 0.600576385197201D+02 -.988612739301625D+01 0.333623837883481D+02 -.489503399139719D+02
0.382145833467D-03 0.000000000000D+00 0.000000000000D+00 0.249532625298D-02 0.000000000000D+00  5 1 -2 25 -24 21 0 0.84259280D-01 0.50744328D-02 0.17514870D+05 0.17514870D+05 0.17514870D+05 0.12402207D+01  1  2  2  1  5  1        1 0.246090651060D+00 0.100000000000D+01
-.212241575551D-04 0.000000000000D+00 -.146754062182D-05 0.249532625298D-02 0.000000000000D+00  5 1 -2 25 -24 21 2 0.84259280D-01 0.50744328D-02 0.17514870D+05 0.17514870D+05 0.17514870D+05 0.12402207D+01  1  2  3  1  5  1        1 -.210229870599D-01 0.100000000000D+01
0.264211167335D-04 0.000000000000D+00 0.000000000000D+00 0.249532625298D-02 0.000000000000D+00  5 1 -2 25 -24 21 2 0.84259280D-01 0.50744328D-02 0.17514870D+05 0.17514870D+05 0.17514870D+05 0.12402207D+01  1  2 15  1  5  1        1 0.261706875174D-01 0.100000000000D+01
-.415440967185D-04 0.000000000000D+00 0.000000000000D+00 0.249532625298D-02 0.000000000000D+00  5 1 -2 25 -24 21 2 0.84259280D-01 0.50744328D-02 0.17514870D+05 0.17514870D+05 0.17514870D+05 0.12402207D+01  1  2  4  1  5  1        1 -.411503262478D-01 0.100000000000D+01
  </mgrwgt>
  </event>
  <event>
  4     66 0.47139866E-03 0.13344496E+03 0.75467711E-02 0.10629292E+00
        1 -1    0    0  501    0 0.00000000E+00 0.00000000E+00 0.12166820E+03 0.12166862E+03 0.32000000E+00 0.0000E+00 0.9000E+01
       -2 -1    0    0    0  501 0.00000000E+00 0.00000000E+00 -.10042129E+04 0.10042129E+04 0.32000000E+00 0.0000E+00 0.9000E+01
       25  1    1    2    0    0 0.26881289E+03 0.18890392E+03 -.54110988E+03 0.64526736E+03 0.12500000E+03 0.0000E+00 0.9000E+01
      -24  1    1    2    0    0 -.26881289E+03 -.18890392E+03 -.34143478E+03 0.48061418E+03 0.80419002E+02 0.0000E+00 0.9000E+01
#aMCatNLO 1  0  0  2  1 0.86474593D+01 0.00000000D+00  -5  5  0 0.00000000D+00 0.00000000D+00 0.00000000D+00 0.00000000D+00 0.00000000D+00
  <mgrwgt>
 0.1944069098D-01    9    2    0
 0.349544043141495D+03 0.000000000000000D+00 0.000000000000000D+00 0.349544043141495D+03
 0.349544043141495D+03 0.000000000000000D+00 0.000000000000000D+00 -.349544043141495D+03
 0.356093850115263D+03 0.268812890962311D+03 0.188903919861691D+03 -.568574428134443D+02
 0.342994236167726D+03 -.268812890962311D+03 -.188903919861691D+03 0.568574428134443D+02
 0.000000000000000D+00 -.000000000000000D+00 -.000000000000000D+00 -.000000000000000D+00
 0.349612913284540D+03 0.000000000000000D+00 0.000000000000000D+00 0.349612913284540D+03
 0.793310864107299D+03 0.000000000000000D+00 0.000000000000000D+00 -.793310864107299D+03
 0.359712947616613D+03 0.270823303790637D+03 0.192848059372327D+03 -.568574428134443D+02
 0.339428619545930D+03 -.266896240173555D+03 -.185143727926228D+03 0.568574428134443D+02
 0.443782210229296D+03 -.392706361708194D+01 -.770433144609849D+01 -.443697950822759D+03
0.364055546667D-02 0.000000000000D+00 0.000000000000D+00 0.192717189856D-02 0.000000000000D+00  5 1 -2 25 -24 21 0 0.18718221D-01 0.15449432D+00 0.11894710D+06 0.11894710D+06 0.11894710D+06 0.11567123D+01  1  2  2  2  5  2       -2 0.260977025195D-01 0.100000000000D+01
-.202208843475D-03 0.000000000000D+00 -.139806915723D-04 0.192717189856D-02 0.000000000000D+00  5 1 -2 25 -24 21 2 0.18718221D-01 0.15449432D+00 0.11894710D+06 0.11894710D+06 0.11894710D+06 0.11567123D+01  1  2  3  2  5  2       -2 -.193948081115D-02 0.100000000000D+01
0.250119137302D-03 0.000000000000D+00 0.000000000000D+00 0.192717189856D-02 0.000000000000D+00  5 1 -2 25 -24 21 2 0.18718221D-01 0.15449432D+00 0.11894710D+06 0.11894710D+06 0.11894710D+06 0.11567123D+01  1  2 15  2  5  2       -2 0.239901113602D-02 0.100000000000D+01
0.206365079748D+01 0.000000000000D+00 0.000000000000D+00 0.192717189856D-02 0.000000000000D+00  5 1 -2 25 -24 21 2 0.18718221D-01 0.35062830D+00 0.12196547D+06 0.12196547D+06 0.12196547D+06 0.11557319D+01  1  2 12  2  5  2       -2 0.120554633035D+01 0.100000000000D+01
-.206462810590D+01 0.000000000000D+00 -.889638740496D-03 0.192717189856D-02 0.000000000000D+00  5 1 -2 25 -24 21 2 0.18718221D-01 0.35064773D+00 0.11894710D+06 0.11894710D+06 0.11894710D+06 0.11567123D+01  1  2  5  2  5  2       -2 -.120932848646D+01 0.100000000000D+01
0.157100765498D-02 0.000000000000D+00 0.000000000000D+00 0.192717189856D-02 0.249331143287D-03  5 1 -2 25 -24 21 2 0.18721909D-01 0.35063400D+00 0.12196547D+06 0.12196547D+06 0.12196547D+06 0.11557319D+01  1  2 11  2  5  2       -2 0.917443263528D-03 0.100000000000D+01
0.183809385934D+00 0.000000000000D+00 0.000000000000D+00 0.192717189856D-02 0.000000000000D+00  5 1 21 25 -24 2 2 0.18718221D-01 0.35062830D+00 0.12196547D+06 0.12196547D+06 0.12196547D+06 0.11557319D+01  1  2 12  4  5  2       -2 0.109608890657D+01 0.100000000000D+01
-.183853601046D+00 0.000000000000D+00 -.792459175055D-04 0.192717189856D-02 0.000000000000D+00  5 1 21 25 -24 2 2 0.18718221D-01 0.35064773D+00 0.11894710D+06 0.11894710D+06 0.11894710D+06 0.11567123D+01  1  2  5  4  5  2       -2 -.110117640287D+01 0.100000000000D+01
0.140185109059D-03 0.000000000000D+00 0.000000000000D+00 0.192717189856D-02 0.222483976321D-04  5 1 21 25 -24 2 2 0.18721909D-01 0.35063400D+00 0.12196547D+06 0.12196547D+06 0.12196547D+06 0.11557319D+01  1  2 11  4  5  2       -2 0.835667277405D-03 0.100000000000D+01
  </mgrwgt>
  </event>
  <event>
  4     66 0.47139866E-03 0.11701853E+03 0.75467711E-02 0.11497667E+00
        3 -1    0    0  501    0 0.00000000E+00 0.00000000E+00 0.75568872E+03 0.75568888E+03 0.50000000E+00 0.0000E+00 0.9000E+01
       -4 -1    0    0    0  501 0.00000000E+00 0.00000000E+00 -.43639279E+02 0.43666797E+02 0.15500000E+01 0.0000E+00 0.9000E+01
       25  1    1    2    0    0 -.13301761E+01 0.11992937E+03 0.57403838E+03 0.59960811E+03 0.12500000E+03 0.0000E+00 0.9000E+01
      -24  1    1    2    0    0 0.13301761E+01 -.11992937E+03 0.13801105E+03 0.19974757E+03 0.80419002E+02 0.0000E+00 0.9000E+01
#aMCatNLO 1  0  0  2  1 0.74087715D+02 0.00000000D+00  -5  5  0 0.00000000D+00 0.00000000D+00 0.00000000D+00 0.00000000D+00 0.00000000D+00
  <mgrwgt>
 0.3566018526D-01    8    2    0
 0.181628122606470D+03 0.000000000000000D+00 0.000000000000000D+00 0.181628122606470D+03
 0.181628122606470D+03 0.000000000000000D+00 0.000000000000000D+00 -.181628122606470D+03
 0.194233252134610D+03 -.133017614470587D+01 0.119929369923798D+03 0.878449377932032D+02
 0.169022993078331D+03 0.133017614470587D+01 -.119929369923798D+03 -.878449377932032D+02
 0.000000000000000D+00 -.000000000000000D+00 -.000000000000000D+00 -.000000000000000D+00
 0.194184196148814D+03 0.000000000000000D+00 0.000000000000000D+00 0.194184196148814D+03
 0.341004987111149D+03 0.000000000000000D+00 0.000000000000000D+00 -.341004987111149D+03
 0.203819851863324D+03 0.376820058719114D+02 0.129540979427997D+03 0.878449377932032D+02
 0.166914674653732D+03 0.342545807233200D+02 -.111817633958015D+03 -.878449377932032D+02
 0.164454656742907D+03 -.719365865952314D+02 -.177233454699822D+02 -.146820790962335D+03
0.656709206915D-03 0.000000000000D+00 0.000000000000D+00 0.173680768308D-02 0.000000000000D+00  5 3 -4 25 -24 21 0 0.11626193D+00 0.67158647D-02 0.25223123D+05 0.25223123D+05 0.25223123D+05 0.12228841D+01  1  2  2  2  5  2       -4 0.125686205447D-01 0.100000000000D+01
-.356849177319D-04 0.000000000000D+00 -.252193627006D-05 0.173680768308D-02 0.000000000000D+00  5 3 -4 25 -24 21 2 0.11626193D+00 0.67158647D-02 0.25223123D+05 0.25223123D+05 0.25223123D+05 0.12228841D+01  1  2  3  2  5  2       -4 -.102133881271D-02 0.100000000000D+01
0.452135018720D-04 0.000000000000D+00 0.000000000000D+00 0.173680768308D-02 0.000000000000D+00  5 3 -4 25 -24 21 2 0.11626193D+00 0.67158647D-02 0.25223123D+05 0.25223123D+05 0.25223123D+05 0.12228841D+01  1  2 15  2  5  2       -4 0.129405662828D-02 0.100000000000D+01
0.720993263834D-03 0.000000000000D+00 0.000000000000D+00 0.173680768308D-02 0.000000000000D+00  5 3 -4 25 -24 21 2 0.11626193D+00 0.12653444D-01 0.39986881D+05 0.39986881D+05 0.39986881D+05 0.12020147D+01  1  2 12  2  5  2       -4 0.704617628333D-02 0.100000000000D+01
-.985901186646D-03 0.000000000000D+00 -.194701011544D-03 0.173680768308D-02 0.000000000000D+00  5 3 -4 25 -24 21 2 0.11626193D+00 0.13408241D-01 0.25223123D+05 0.25223123D+05 0.25223123D+05 0.12228841D+01  1  2  5  2  5  2       -4 -.880249520775D-02 0.100000000000D+01
0.928408408490D-03 0.000000000000D+00 0.155924317141D-03 0.173680768308D-02 0.000000000000D+00  5 3 -4 25 -24 21 2 0.11626193D+00 0.67158647D-02 0.25223123D+05 0.25223123D+05 0.25223123D+05 0.12228841D+01  1  2  6  2  5  2       -4 0.265719974126D-01 0.100000000000D+01
0.496805935136D-04 0.000000000000D+00 0.000000000000D+00 0.173680768308D-02 0.000000000000D+00  5 3 21 25 -24 4 2 0.11626193D+00 0.12653444D-01 0.39986881D+05 0.39986881D+05 0.39986881D+05 0.12020147D+01  1  2 12  4  5  2       -4 0.120994157889D-01 0.100000000000D+01
-.620959478471D-04 0.000000000000D+00 -.145668233601D-04 0.173680768308D-02 0.000000000000D+00  5 3 21 25 -24 4 2 0.11626193D+00 0.13408241D-01 0.25223123D+05 0.25223123D+05 0.25223123D+05 0.12228841D+01  1  2  5  4  5  2       -4 -.140962473757D-01 0.100000000000D+01
  </mgrwgt>
  </event>
  <event>
  5     66 0.47139866E-03 0.10623427E+03 0.75467711E-02 0.12044847E+00
        1 -1    0    0  501    0 0.00000000E+00 0.00000000E+00 0.52534143E+03 0.52534152E+03 0.32000000E+00 0.0000E+00 0.9000E+01
       21 -1    0    0  502  501 0.00000000E+00 0.00000000E+00 -.44531690E+02 0.44538005E+02 0.75000000E+00 0.0000E+00 0.9000E+01
       25  1    1    2    0    0 0.64284447E+02 -.22989706E+02 0.15606960E+03 0.21129064E+03 0.12500000E+03 0.0000E+00 0.9000E+01
      -24  1    1    2    0    0 -.26036199E+01 -.10175515E+02 0.15415452E+03 0.17418712E+03 0.80419002E+02 0.0000E+00 0.9000E+01
        2  1    1    2  502    0 -.61680827E+02 0.33165221E+02 0.17058561E+03 0.18440176E+03 0.32000000E+00 0.0000E+00 0.9000E+01
#aMCatNLO 2  0  0  2  1 0.70031823D+02 0.00000000D+00  -5  5  0 0.00000000D+00 0.00000000D+00 0.00000000D+00 0.00000000D+00 0.00000000D+00
  <mgrwgt>
 0.7078899375D-01    1    2    0
 0.108914697052590D+03 0.000000000000000D+00 0.000000000000000D+00 0.108914697052590D+03
 0.108914697052590D+03 0.000000000000000D+00 0.000000000000000D+00 -.108914697052590D+03
 0.129935239489594D+03 0.264041826169073D+02 -.262183179528445D+01 -.235395751785876D+02
 0.878941546155867D+02 -.264041826169073D+02 0.262183179528445D+01 0.235395751785876D+02
 0.000000000000000D+00 -.000000000000000D+00 0.000000000000000D+00 0.000000000000000D+00
 0.172780810502007D+03 0.000000000000000D+00 0.000000000000000D+00 0.172780810502007D+03
 0.135408930251624D+03 0.000000000000000D+00 0.000000000000000D+00 -.135408930251624D+03
 0.144361103732543D+03 0.642844466136967D+02 -.229897062804320D+02 -.235395751785876D+02
 0.844490822647168D+02 -.260361993204456D+01 -.101755149571632D+02 0.235395751785876D+02
 0.793795547563706D+02 -.616808266816521D+02 0.331652212375951D+02 0.373718802503834D+02
0.639113132997D-05 0.000000000000D+00 0.000000000000D+00 0.292319502450D-02 0.257098569474D-06  5 1 21 25 -24 2 2 0.80822072D-01 0.68515072D-02 0.21544782D+05 0.21544782D+05 0.21544782D+05 0.12302845D+01  1  2  1  4  5  2       -2 0.707889937526D-01 0.100000000000D+01
  </mgrwgt>
  </event>
  <event>
  4     66 0.47139866E-03 0.12092766E+03 0.75467711E-02 0.11804927E+00
        1 -1    0    0  501    0 0.00000000E+00 0.00000000E+00 0.12731270E+04 0.12731271E+04 0.32000000E+00 0.0000E+00 0.9000E+01
       -2 -1    0    0    0  501 0.00000000E+00 0.00000000E+00 -.11922279E+02 0.11926573E+02 0.32000000E+00 0.0000E+00 0.9000E+01
       25  1    1    2    0    0 -.62618592E+02 -.38388732E+01 0.84740699E+03 0.85887102E+03 0.12500000E+03 0.0000E+00 0.9000E+01
      -24  1    1    2    0    0 0.62618592E+02 0.38388732E+01 0.41379778E+03 0.42618264E+03 0.80419002E+02 0.0000E+00 0.9000E+01
#aMCatNLO 1  0  0  2  1 0.80127612D+02 0.00000000D+00  -5  5  0 0.00000000D+00 0.00000000D+00 0.00000000D+00 0.00000000D+00 0.00000000D+00
  <mgrwgt>
 0.1547580583D+00    4    2    0
 0.123212666141136D+03 0.000000000000000D+00 0.000000000000000D+00 0.123212666141136D+03
 0.123212666141136D+03 0.000000000000000D+00 0.000000000000000D+00 -.123212666141136D+03
 0.141793921486953D+03 -.626185918112188D+02 -.383887322356472D+01 0.233386199806595D+02
 0.104631410795319D+03 0.626185918112188D+02 0.383887322356472D+01 -.233386199806595D+02
 0.000000000000000D+00 -.000000000000000D+00 0.000000000000000D+00 0.000000000000000D+00
 0.185275764403760D+03 0.000000000000000D+00 0.000000000000000D+00 0.185275764403760D+03
 0.158372834104711D+03 0.000000000000000D+00 0.000000000000000D+00 -.158372834104711D+03
 0.141425168104665D+03 -.432134782074272D+02 -.443168398246901D+02 0.233386199806595D+02
 0.117700049867378D+03 0.778519126233066D+02 -.279369701776014D+02 -.233386199806595D+02
 0.845233805364282D+02 -.346384344158795D+02 0.722538100022914D+02 0.269029302990482D+02
0.262717891115D-03 0.000000000000D+00 0.000000000000D+00 0.264008686576D-02 0.000000000000D+00  5 1 -2 25 -24 21 0 0.19586603D+00 0.18345302D-02 0.14623499D+05 0.14623499D+05 0.14623499D+05 0.12490831D+01  1  2  2  2  5  2       -2 0.199862681025D+00 0.100000000000D+01
-.145892199745D-04 0.000000000000D+00 -.100890587709D-05 0.264008686576D-02 0.000000000000D+00  5 1 -2 25 -24 21 2 0.19586603D+00 0.18345302D-02 0.14623499D+05 0.14623499D+05 0.14623499D+05 0.12490831D+01  1  2  3  2  5  2       -2 -.173163667316D-01 0.100000000000D+01
0.181858937758D-04 0.000000000000D+00 0.000000000000D+00 0.264008686576D-02 0.000000000000D+00  5 1 -2 25 -24 21 2 0.19586603D+00 0.18345302D-02 0.14623499D+05 0.14623499D+05 0.14623499D+05 0.12490831D+01  1  2 15  2  5  2       -2 0.215853627893D-01 0.100000000000D+01
-.415977898762D-04 0.000000000000D+00 0.000000000000D+00 0.264008686576D-02 0.000000000000D+00  5 1 -2 25 -24 21 2 0.19586603D+00 0.18345302D-02 0.14623499D+05 0.14623499D+05 0.14623499D+05 0.12490831D+01  1  2  4  2  5  2       -2 -.493736187389D-01 0.100000000000D+01
  </mgrwgt>
  </event>
  <event>
  4     66 0.47139866E-03 0.19796432E+03 0.75467711E-02 0.99813466E-01
        3 -1    0    0  501    0 0.00000000E+00 0.00000000E+00 0.33324007E+03 0.33324045E+03 0.50000000E+00 0.0000E+00 0.9000E+01
       -4 -1    0    0    0  501 0.00000000E+00 0.00000000E+00 -.11956573E+03 0.11957578E+03 0.15500000E+01 0.0000E+00 0.9000E+01
       25  1    1    2    0    0 -.16350184E+03 0.39302145E+02 0.14198994E+03 0.25310799E+03 0.12500000E+03 0.0000E+00 0.9000E+01
      -24  1    1    2    0    0 0.16350184E+03 -.39302145E+02 0.71684399E+02 0.19970824E+03 0.80419002E+02 0.0000E+00 0.9000E+01
#aMCatNLO 1  0  0  1  1 0.49622931D+03 0.00000000D+00  -5  5  0 0.00000000D+00 0.00000000D+00 0.00000000D+00 0.00000000D+00 0.00000000D+00
  <mgrwgt>
 0.3405280068D-01    3    2    0
 0.199615762890579D+03 0.000000000000000D+00 0.000000000000000D+00 0.199615762890579D+03
 0.199615762890579D+03 0.000000000000000D+00 0.000000000000000D+00 -.199615762890579D+03
 0.211085027533083D+03 -.163501841956588D+03 0.393021453331212D+02 0.255808111219992D+02
 0.188146498248075D+03 0.163501841956588D+03 -.393021453331212D+02 -.255808111219992D+02
 0.000000000000000D+00 0.000000000000000D+00 -.000000000000000D+00 -.000000000000000D+00
 0.551786415075261D+03 0.000000000000000D+00 0.000000000000000D+00 0.551786415075261D+03
 0.582268613685512D+03 0.000000000000000D+00 0.000000000000000D+00 -.582268613685512D+03
 0.525664632137860D+03 -.438319539290495D+03 0.260614483594332D+03 0.255808111219992D+02
 0.111225738420938D+03 0.518319040786049D+02 0.506263247218217D+02 -.255808111219992D+02
 0.497164658201974D+03 0.386487635211890D+03 -.311240808316153D+03 -.304821986102510D+02
0.160840086100D-02 0.000000000000D+00 0.000000000000D+00 0.213114343827D-02 0.000000000000D+00  5 3 -4 25 -24 21 0 0.51268505D-01 0.18395530D-01 0.39189871D+05 0.39189871D+05 0.39189871D+05 0.12029037D+01  1  2  2  1  5  1        3 0.334013064070D-01 0.100000000000D+01
-.893481053539D-04 0.000000000000D+00 -.617668280790D-05 0.213114343827D-02 0.000000000000D+00  5 3 -4 25 -24 21 2 0.51268505D-01 0.18395530D-01 0.39189871D+05 0.39189871D+05 0.39189871D+05 0.12029037D+01  1  2  3  1  5  1        3 -.268482646773D-02 0.100000000000D+01
0.111029126274D-03 0.000000000000D+00 0.000000000000D+00 0.213114343827D-02 0.000000000000D+00  5 3 -4 25 -24 21 2 0.51268505D-01 0.18395530D-01 0.39189871D+05 0.39189871D+05 0.39189871D+05 0.12029037D+01  1  2 15  1  5  1        3 0.333632073930D-02 0.100000000000D+01
  </mgrwgt>
  </event>
  <event>
  4     66 0.47139866E-03 0.27375174E+03 0.75467711E-02 0.10800441E+00
        3 -1    0    0  501    0 0.00000000E+00 0.00000000E+00 0.17810469E+03 0.17810539E+03 0.50000000E+00 0.0000E+00 0.9000E+01
       -4 -1    0    0    0  501 0.00000000E+00 0.00000000E+00 -.42147466E+03 0.42147751E+03 0.15500000E+01 0.0000E+00 0.9000E+01
       25  1    1    2    0    0 0.25269395E+03 0.10469924E+02 -.11303885E+03 0.30391879E+03 0.12500000E+03 0.0000E+00 0.9000E+01
      -24  1    1    2    0    0 -.25269395E+03 -.10469924E+02 -.13033112E+03 0.29566411E+03 0.80419002E+02 0.0000E+00 0.9000E+01
#aMCatNLO 1  0  0  1  1 0.69387614D+02 0.00000000D+00  -5  5  0 0.00000000D+00 0.00000000D+00 0.00000000D+00 0.00000000D+00 0.00000000D+00
  <mgrwgt>
 0.3939403514D-01    4    2    0
 0.273984814219566D+03 0.000000000000000D+00 0.000000000000000D+00 0.273984814219566D+03
 0.273984814219566D+03 0.000000000000000D+00 0.000000000000000D+00 -.273984814219566D+03
 0.282340919713693D+03 0.252693946233642D+03 0.104699239750104D+02 0.112935899341524D+02
 0.265628708725439D+03 -.252693946233642D+03 -.104699239750104D+02 -.112935899341524D+02
 0.000000000000000D+00 -.000000000000000D+00 -.000000000000000D+00 -.000000000000000D+00
 0.286156115484416D+03 0.000000000000000D+00 0.000000000000000D+00 0.286156115484416D+03
 0.396738164908493D+03 0.000000000000000D+00 0.000000000000000D+00 -.396738164908493D+03
 0.316620582505808D+03 0.290427627599385D+03 0.121589974796149D+02 0.112935899341524D+02
 0.235724739376371D+03 -.221109426707447D+03 -.905610552007984D+01 -.112935899341524D+02
 0.130548958510730D+03 -.693182008919371D+02 -.310289195953507D+01 -.110582049424077D+03
0.719953470287D-02 0.000000000000D+00 0.000000000000D+00 0.202944174724D-02 0.000000000000D+00  5 3 -4 25 -24 21 0 0.27400995D-01 0.64842529D-01 0.74940014D+05 0.74940014D+05 0.74940014D+05 0.11752593D+01  1  2  2  1  5  1        3 0.440902631295D-01 0.100000000000D+01
-.399973797931D-03 0.000000000000D+00 -.276481089400D-04 0.202944174724D-02 0.000000000000D+00  5 3 -4 25 -24 21 2 0.27400995D-01 0.64842529D-01 0.74940014D+05 0.74940014D+05 0.74940014D+05 0.11752593D+01  1  2  3  1  5  1        3 -.338327400856D-02 0.100000000000D+01
0.495698873267D-03 0.000000000000D+00 0.000000000000D+00 0.202944174724D-02 0.000000000000D+00  5 3 -4 25 -24 21 2 0.27400995D-01 0.64842529D-01 0.74940014D+05 0.74940014D+05 0.74940014D+05 0.11752593D+01  1  2 15  1  5  1        3 0.419298744736D-02 0.100000000000D+01
-.650917513636D-03 0.000000000000D+00 0.000000000000D+00 0.202944174724D-02 0.000000000000D+00  5 3 -4 25 -24 21 2 0.27400995D-01 0.64842529D-01 0.74940014D+05 0.74940014D+05 0.74940014D+05 0.11752593D+01  1  2  4  1  5  1        3 -.550594143165D-02 0.100000000000D+01
  </mgrwgt>
  </event>
  <event>
  4     66 0.47139866E-03 0.21624637E+03 0.75467711E-02 0.10101780E+00
        1 -1    0    0  501    0 0.00000000E+00 0.00000000E+00 0.12735396E+04 0.12735397E+04 0.32000000E+00 0.0000E+00 0.9000E+01
       -2 -1    0    0    0  501 0.00000000E+00 0.00000000E+00 -.43601327E+02 0.43602501E+02 0.32000000E+00 0.0000E+00 0.9000E+01
       25  1    1    2    0    0 0.15786719E+03 -.10443382E+03 0.90172902E+03 0.92982186E+03 0.12500000E+03 0.0000E+00 0.9000E+01
      -24  1    1    2    0    0 -.15786719E+03 0.10443382E+03 0.32820929E+03 0.38732032E+03 0.80419002E+02 0.0000E+00 0.9000E+01
#aMCatNLO 1  0  0  2  2 0.43020509D+03 0.00000000D+00  -5  5  0 0.00000000D+00 0.00000000D+00 0.00000000D+00 0.00000000D+00 0.00000000D+00
  <mgrwgt>
 0.2400196164D+00    5    2    0
 0.235645533987943D+03 0.000000000000000D+00 0.000000000000000D+00 0.235645533987943D+03
 0.235645533987943D+03 0.000000000000000D+00 0.000000000000000D+00 -.235645533987943D+03
 0.245361169046507D+03 0.157867191631781D+03 -.104433817263656D+03 0.935341162031504D+02
 0.225929898929378D+03 -.157867191631781D+03 0.104433817263656D+03 -.935341162031504D+02
 0.000000000000000D+00 -.000000000000000D+00 0.000000000000000D+00 -.000000000000000D+00
 0.380171370364900D+03 0.000000000000000D+00 0.000000000000000D+00 0.380171370364900D+03
 0.107615907450045D+04 0.000000000000000D+00 0.000000000000000D+00 -.107615907450045D+04
 0.481816274766863D+03 0.439335965406063D+03 -.121479221420930D+03 0.935341162031504D+02
 0.156299462509895D+03 -.991756725859827D+01 0.954741692411010D+02 -.935341162031504D+02
 0.818214707588589D+03 -.429418398147465D+03 0.260050521798295D+02 -.695987704135548D+03
0.204831797161D-02 0.000000000000D+00 0.000000000000D+00 0.176700458702D-02 0.000000000000D+00  5 1 -2 25 -24 21 0 0.19592927D+00 0.67079899D-02 0.46762491D+05 0.46762491D+05 0.46762491D+05 0.11951717D+01  1  2  2  2  5  2       -2 0.228827758917D+00 0.100000000000D+01
-.112774274397D-03 0.000000000000D+00 -.786608034548D-05 0.176700458702D-02 0.000000000000D+00  5 1 -2 25 -24 21 2 0.19592927D+00 0.67079899D-02 0.46762491D+05 0.46762491D+05 0.46762491D+05 0.11951717D+01  1  2  3  2  5  2       -2 -.179962494651D-01 0.100000000000D+01
0.140922379015D-03 0.000000000000D+00 0.000000000000D+00 0.176700458702D-02 0.000000000000D+00  5 1 -2 25 -24 21 2 0.19592927D+00 0.67079899D-02 0.46762491D+05 0.46762491D+05 0.46762491D+05 0.11951717D+01  1  2 15  2  5  2       -2 0.224880567978D-01 0.100000000000D+01
0.682783102139D-03 0.000000000000D+00 -.106703643913D-02 0.176700458702D-02 0.000000000000D+00  5 1 -2 25 -24 21 2 0.19592927D+00 0.50195348D-01 0.46762491D+05 0.46762491D+05 0.46762491D+05 0.11951717D+01  1  2  5  2  5  2       -2 0.343829195334D-02 0.100000000000D+01
0.533398381299D-04 0.000000000000D+00 -.261718201579D-03 0.176700458702D-02 0.000000000000D+00  5 1 21 25 -24 2 2 0.19592927D+00 0.50195348D-01 0.46762491D+05 0.46762491D+05 0.46762491D+05 0.11951717D+01  1  2  5  4  5  2       -2 0.326175816173D-02 0.100000000000D+01
  </mgrwgt>
  </event>
  <event>
  4     66 0.47139866E-03 0.39130037E+02 0.75467711E-02 0.11388464E+00
        1 -1    0    0  501    0 0.00000000E+00 0.00000000E+00 0.19460088E+04 0.19460088E+04 0.32000000E+00 0.0000E+00 0.9000E+01
       -2 -1    0    0    0  501 0.00000000E+00 0.00000000E+00 -.20122136E+02 0.20124680E+02 0.32000000E+00 0.0000E+00 0.9000E+01
       25  1    1    2    0    0 0.95025757E+02 0.11110455E+03 0.60736613E+03 0.63709711E+03 0.12500000E+03 0.0000E+00 0.9000E+01
      -24  1    1    2    0    0 -.95025757E+02 -.11110455E+03 0.13185205E+04 0.13290364E+04 0.80419002E+02 0.0000E+00 0.9000E+01
#aMCatNLO 1  0  0  1  2 0.62228665D+02 0.00000000D+00  -5  5  0 0.00000000D+00 0.00000000D+00 0.00000000D+00 0.00000000D+00 0.00000000D+00
  <mgrwgt>
 0.2265875413D+00    9    2    0
 0.197889816252367D+03 0.000000000000000D+00 0.000000000000000D+00 0.197889816252367D+03
 0.197889816252367D+03 0.000000000000000D+00 0.000000000000000D+00 -.197889816252367D+03
 0.209459113019451D+03 0.950257568579830D+02 0.111104553788319D+03 -.829096115535539D+02
 0.186320519485283D+03 -.950257568579830D+02 -.111104553788319D+03 0.829096115535539D+02
 0.000000000000000D+00 0.000000000000000D+00 -.000000000000000D+00 0.000000000000000D+00
 0.312002057343304D+03 0.000000000000000D+00 0.000000000000000D+00 0.312002057343304D+03
 0.208989391231053D+03 0.000000000000000D+00 0.000000000000000D+00 -.208989391231053D+03
 0.198717985651235D+03 0.632611705843140D+02 0.113964285763679D+03 -.829096115535539D+02
 0.201923904686870D+03 -.125239170464602D+03 -.108384472241178D+03 0.829096115535539D+02
 0.120349558236252D+03 0.619779998802882D+02 -.557981352250103D+01 0.103012666112251D+03
0.139348767305D-02 0.000000000000D+00 0.000000000000D+00 0.180791703887D-02 0.000000000000D+00  5 1 -2 25 -24 21 0 0.29938616D+00 0.30959109D-02 0.32257734D+05 0.32257734D+05 0.32257734D+05 0.12116049D+01  1  2  2  1  5  1        1 0.182048445032D+00 0.100000000000D+01
-.765311879457D-04 0.000000000000D+00 -.535135957826D-05 0.180791703887D-02 0.000000000000D+00  5 1 -2 25 -24 21 2 0.29938616D+00 0.30959109D-02 0.32257734D+05 0.32257734D+05 0.32257734D+05 0.12116049D+01  1  2  3  1  5  1        1 -.146772376906D-01 0.100000000000D+01
0.961371094904D-04 0.000000000000D+00 0.000000000000D+00 0.180791703887D-02 0.000000000000D+00  5 1 -2 25 -24 21 2 0.29938616D+00 0.30959109D-02 0.32257734D+05 0.32257734D+05 0.32257734D+05 0.12116049D+01  1  2 15  1  5  1        1 0.184372834756D-01 0.100000000000D+01
0.196020338970D-02 0.000000000000D+00 0.000000000000D+00 0.180791703887D-02 0.000000000000D+00  5 1 -2 25 -24 21 2 0.47641604D+00 0.30959109D-02 0.45569859D+05 0.45569859D+05 0.45569859D+05 0.11962929D+01  1  2 12  1  5  1        1 0.625707656285D-01 0.100000000000D+01
-.210221944178D-02 0.000000000000D+00 0.000000000000D+00 0.180791703887D-02 0.000000000000D+00  5 1 -2 25 -24 21 2 0.29938616D+00 0.30959109D-02 0.32257734D+05 0.32257734D+05 0.32257734D+05 0.12116049D+01  1  2  4  1  5  1        1 -.403166019673D+00 0.100000000000D+01
-.240850371273D-02 0.000000000000D+00 -.452056455059D-03 0.180791703887D-02 0.000000000000D+00  5 1 -2 25 -24 21 2 0.47806179D+00 0.30959109D-02 0.32257734D+05 0.32257734D+05 0.32257734D+05 0.12116049D+01  1  2  5  1  5  1        1 -.783850310163D-01 0.100000000000D+01
0.239798408987D-02 0.000000000000D+00 0.406698124587D-03 0.180791703887D-02 0.000000000000D+00  5 1 -2 25 -24 21 2 0.29938616D+00 0.30959109D-02 0.32257734D+05 0.32257734D+05 0.32257734D+05 0.12116049D+01  1  2  6  1  5  1        1 0.459888098044D+00 0.100000000000D+01
0.104366079788D-03 0.000000000000D+00 0.000000000000D+00 0.180791703887D-02 0.000000000000D+00  5 21 -2 25 -24 -1 2 0.47641604D+00 0.30959109D-02 0.45569859D+05 0.45569859D+05 0.45569859D+05 0.11962929D+01  1  2 12  3  5  1        1 0.125333225671D-02 0.100000000000D+01
-.110090086576D-03 0.000000000000D+00 -.242057832452D-04 0.180791703887D-02 0.000000000000D+00  5 21 -2 25 -24 -1 2 0.47806179D+00 0.30959109D-02 0.32257734D+05 0.32257734D+05 0.32257734D+05 0.12116049D+01  1  2  5  3  5  1        1 -.138209474364D-02 0.100000000000D+01
  </mgrwgt>
  </event>
  <event>
  4     66 0.47139866E-03 0.14091771E+03 0.75467711E-02 0.11768583E+00
        1 -1    0    0  501    0 0.00000000E+00 0.00000000E+00 0.23961986E+04 0.23961987E+04 0.32000000E+00 0.0000E+00 0.9000E+01
       -2 -1    0    0    0  501 0.00000000E+00 0.00000000E+00 -.85163725E+01 0.85223824E+01 0.32000000E+00 0.0000E+00 0.9000E+01
       25  1    1    2    0    0 -.88594741E+02 0.35023139E+02 0.15249383E+04 0.15330158E+04 0.12500000E+03 0.0000E+00 0.9000E+01
      -24  1    1    2    0    0 0.88594741E+02 -.35023139E+02 0.86274393E+03 0.87170519E+03 0.80419002E+02 0.0000E+00 0.9000E+01
#aMCatNLO 1  0  0  2  2 0.54765180D+02 0.00000000D+00  -5  5  0 0.00000000D+00 0.00000000D+00 0.00000000D+00 0.00000000D+00 0.00000000D+00
  <mgrwgt>
 0.2458201618D+00    4    2    0
 0.142878171494111D+03 0.000000000000000D+00 0.000000000000000D+00 0.142878171494111D+03
 0.142878171494111D+03 0.000000000000000D+00 0.000000000000000D+00 -.142878171494111D+03
 0.158901934868643D+03 -.885947411889713D+02 0.350231387626161D+02 0.234345149271769D+02
 0.126854408119580D+03 0.885947411889713D+02 -.350231387626161D+02 -.234345149271769D+02
 0.000000000000000D+00 -.000000000000000D+00 -.000000000000000D+00 0.000000000000000D+00
 0.212776482304567D+03 0.000000000000000D+00 0.000000000000000D+00 0.212776482304567D+03
 0.156620022064156D+03 0.000000000000000D+00 0.000000000000000D+00 -.156620022064156D+03
 0.155188373734719D+03 -.683372089258966D+02 0.569146793786368D+02 0.234345149271769D+02
 0.135768517341512D+03 0.105532839053905D+03 -.167187839896393D+02 -.234345149271769D+02
 0.784396132924927D+02 -.371956301280089D+02 -.401958953889975D+02 0.561564602404116D+02
0.114370772087D-02 0.000000000000D+00 0.000000000000D+00 0.241189432526D-02 0.000000000000D+00  5 1 -2 25 -24 21 0 0.36864641D+00 0.13106751D-02 0.19857802D+05 0.19857802D+05 0.19857802D+05 0.12341673D+01  1  2  2  2  5  2       -2 0.269290871175D+00 0.100000000000D+01
-.635245709022D-04 0.000000000000D+00 -.439213879330D-05 0.241189432526D-02 0.000000000000D+00  5 1 -2 25 -24 21 2 0.36864641D+00 0.13106751D-02 0.19857802D+05 0.19857802D+05 0.19857802D+05 0.12341673D+01  1  2  3  2  5  2       -2 -.227822399204D-01 0.100000000000D+01
0.791495163149D-04 0.000000000000D+00 0.000000000000D+00 0.241189432526D-02 0.000000000000D+00  5 1 -2 25 -24 21 2 0.36864641D+00 0.13106751D-02 0.19857802D+05 0.19857802D+05 0.19857802D+05 0.12341673D+01  1  2 15  2  5  2       -2 0.283859181520D-01 0.100000000000D+01
-.810692014634D-04 0.000000000000D+00 0.000000000000D+00 0.241189432526D-02 0.000000000000D+00  5 1 -2 25 -24 21 2 0.36864641D+00 0.13106751D-02 0.19857802D+05 0.19857802D+05 0.19857802D+05 0.12341673D+01  1  2  4  2  5  2       -2 -.290743876214D-01 0.100000000000D+01
  </mgrwgt>
  </event>
  <event>
  4     66 0.47139866E-03 0.10924495E+03 0.75467711E-02 0.12240099E+00
        1 -1    0    0  501    0 0.00000000E+00 0.00000000E+00 0.64325974E+03 0.64325982E+03 0.32000000E+00 0.0000E+00 0.9000E+01
       -2 -1    0    0    0  501 0.00000000E+00 0.00000000E+00 -.18644554E+02 0.18647299E+02 0.32000000E+00 0.0000E+00 0.9000E+01
       25  1    1    2    0    0 0.28470682E+02 0.22736901E+02 0.39485096E+03 0.41576415E+03 0.12500000E+03 0.0000E+00 0.9000E+01
      -24  1    1    2    0    0 -.28470682E+02 -.22736901E+02 0.22976423E+03 0.24614297E+03 0.80419002E+02 0.0000E+00 0.9000E+01
#aMCatNLO 1  0  0  1  2 0.42170654D+02 0.00000000D+00  -5  5  0 0.00000000D+00 0.00000000D+00 0.00000000D+00 0.00000000D+00 0.00000000D+00
  <mgrwgt>
 0.2215600475D+00    3    2    0
 0.109518153072843D+03 0.000000000000000D+00 0.000000000000000D+00 0.109518153072843D+03
 0.109518153072843D+03 0.000000000000000D+00 0.000000000000000D+00 -.109518153072843D+03
 0.130422870210326D+03 0.284706822900978D+02 0.227369013268032D+02 0.758805916496966D+01
 0.886134359353596D+02 -.284706822900978D+02 -.227369013268032D+02 -.758805916496966D+01
 0.000000000000000D+00 -.000000000000000D+00 0.000000000000000D+00 -.000000000000000D+00
 0.114098868969467D+03 0.000000000000000D+00 0.000000000000000D+00 0.114098868969467D+03
 0.284560774483177D+03 0.000000000000000D+00 0.000000000000000D+00 -.284560774483177D+03
 0.128842279256147D+03 0.302328506540633D+02 -.193106793174537D+01 0.758805916496966D+01
 0.942166087166676D+02 -.272280265713050D+02 -.401323975217072D+02 -.758805916496966D+01
 0.175600755479829D+03 -.300482408275834D+01 0.420634654534526D+02 -.170461905513709D+03
0.182425308123D-03 0.000000000000D+00 0.000000000000D+00 0.301277891644D-02 0.000000000000D+00  5 1 -2 25 -24 21 0 0.98963255D-01 0.28686102D-02 0.11934459D+05 0.11934459D+05 0.11934459D+05 0.12593030D+01  1  2  2  1  5  1        1 0.216880151263D+00 0.100000000000D+01
-.101346624655D-04 0.000000000000D+00 -.700561216878D-06 0.301277891644D-02 0.000000000000D+00  5 1 -2 25 -24 21 2 0.98963255D-01 0.28686102D-02 0.11934459D+05 0.11934459D+05 0.11934459D+05 0.12593030D+01  1  2  3  1  5  1        1 -.191075259291D-01 0.100000000000D+01
0.126168869587D-04 0.000000000000D+00 0.000000000000D+00 0.301277891644D-02 0.000000000000D+00  5 1 -2 25 -24 21 2 0.98963255D-01 0.28686102D-02 0.11934459D+05 0.11934459D+05 0.11934459D+05 0.12593030D+01  1  2 15  1  5  1        1 0.237874221789D-01 0.100000000000D+01
  </mgrwgt>
  </event>
  <event>
  4     66 0.47139866E-03 0.10849567E+03 0.75467711E-02 0.12002752E+00
        1 -1    0    0  501    0 0.00000000E+00 0.00000000E+00 0.11383187E+04 0.11383187E+04 0.32000000E+00 0.0000E+00 0.9000E+01
       -2 -1    0    0    0  501 0.00000000E+00 0.00000000E+00 -.11032954E+02 0.11037593E+02 0.32000000E+00 0.0000E+00 0.9000E+01
       25  1    1    2    0    0 0.22575051E+02 -.25707046E+02 0.52479513E+03 0.54056028E+03 0.12500000E+03 0.0000E+00 0.9000E+01
      -24  1    1    2    0    0 -.22575051E+02 0.25707046E+02 0.60249060E+03 0.60879604E+03 0.80419002E+02 0.0000E+00 0.9000E+01
#aMCatNLO 1  0  0  2  2 0.71642553D+02 0.00000000D+00  -5  5  0 0.00000000D+00 0.00000000D+00 0.00000000D+00 0.00000000D+00 0.00000000D+00
  <mgrwgt>
 0.2637268611D+00    3    2    0
 0.112079032874576D+03 0.000000000000000D+00 0.000000000000000D+00 0.112079032874576D+03
 0.112079032874576D+03 0.000000000000000D+00 0.000000000000000D+00 -.112079032874576D+03
 0.132506100745240D+03 0.225750512441154D+02 -.257070455339264D+02 -.276112586810140D+02
 0.916519650039114D+02 -.225750512441154D+02 0.257070455339264D+02 0.276112586810140D+02
 0.000000000000000D+00 0.000000000000000D+00 -.000000000000000D+00 0.000000000000000D+00
 0.228644608750497D+03 0.000000000000000D+00 0.000000000000000D+00 0.228644608750497D+03
 0.129226320163350D+03 0.000000000000000D+00 0.000000000000000D+00 -.129226320163350D+03
 0.129945513946380D+03 -.168296299023522D+02 -.146703287689447D+02 -.276112586810140D+02
 0.105382966921944D+03 -.521580228572909D+02 0.339928346651089D+02 0.276112586810140D+02
 0.122542448045523D+03 0.689876527596432D+02 -.193225058961642D+02 0.994182885871470D+02
0.247221998963D-03 0.000000000000D+00 0.000000000000D+00 0.280536998857D-02 0.000000000000D+00  5 1 -2 25 -24 21 0 0.17512631D+00 0.16977379D-02 0.11771310D+05 0.11771310D+05 0.11771310D+05 0.12600047D+01  1  2  2  2  5  2       -2 0.258060147688D+00 0.100000000000D+01
-.137169234436D-04 0.000000000000D+00 -.949397571067D-06 0.280536998857D-02 0.000000000000D+00  5 1 -2 25 -24 21 2 0.17512631D+00 0.16977379D-02 0.11771310D+05 0.11771310D+05 0.11771310D+05 0.12600047D+01  1  2  3  2  5  2       -2 -.227318530439D-01 0.100000000000D+01
0.171363487973D-04 0.000000000000D+00 0.000000000000D+00 0.280536998857D-02 0.000000000000D+00  5 1 -2 25 -24 21 2 0.17512631D+00 0.16977379D-02 0.11771310D+05 0.11771310D+05 0.11771310D+05 0.12600047D+01  1  2 15  2  5  2       -2 0.283985664984D-01 0.100000000000D+01
  </mgrwgt>
  </event>
  <event>
  4     66 0.47139866E-03 0.14955440E+03 0.75467711E-02 0.10491842E+00
        3 -1    0    0  501    0 0.00000000E+00 0.00000000E+00 0.65852440E+03 0.65852459E+03 0.50000000E+00 0.0000E+00 0.9000E+01
       -4 -1    0    0    0  501 0.00000000E+00 0.00000000E+00 -.42178409E+02 0.42206880E+02 0.15500000E+01 0.0000E+00 0.9000E+01
       25  1    1    2    0    0 -.12190410E+02 0.10679959E+03 0.48764112E+03 0.51475588E+03 0.12500000E+03 0.0000E+00 0.9000E+01
      -24  1    1    2    0    0 0.12190410E+02 -.10679959E+03 0.12870487E+03 0.18597558E+03 0.80419002E+02 0.0000E+00 0.9000E+01
#aMCatNLO 1  0  0  2  2 0.32746633D+03 0.00000000D+00  -5  5  0 0.00000000D+00 0.00000000D+00 0.00000000D+00 0.00000000D+00 0.00000000D+00
  <mgrwgt>
 0.1889072768D-01    3    2    0
 0.166689990783420D+03 0.000000000000000D+00 0.000000000000000D+00 0.166689990783420D+03
 0.166689990783420D+03 0.000000000000000D+00 0.000000000000000D+00 -.166689990783420D+03
 0.180424744745834D+03 -.121904103174446D+02 0.106799590283956D+03 0.733030008121840D+02
 0.152955236821006D+03 0.121904103174446D+02 -.106799590283956D+03 -.733030008121840D+02
 0.000000000000000D+00 -.000000000000000D+00 0.000000000000000D+00 0.000000000000000D+00
 0.443640985361171D+03 0.000000000000000D+00 0.000000000000000D+00 0.443640985361171D+03
 0.361321357965353D+03 0.000000000000000D+00 0.000000000000000D+00 -.361321357965353D+03
 0.178059883661034D+03 0.102341861471904D+03 0.152687796426397D+02 0.733030008121840D+02
 0.289247731077582D+03 0.153469858561835D+03 -.219705954776147D+03 -.733030008121840D+02
 0.337654728587909D+03 -.255811720033738D+03 0.204437175133507D+03 0.823196273958184D+02
0.670521354809D-03 0.000000000000D+00 0.000000000000D+00 0.188463617179D-02 0.000000000000D+00  5 3 -4 25 -24 21 0 0.10131365D+00 0.64911907D-02 0.22366518D+05 0.22366518D+05 0.22366518D+05 0.12285147D+01  1  2  2  2  5  2       -4 0.184921236709D-01 0.100000000000D+01
-.367182377466D-04 0.000000000000D+00 -.257497855479D-05 0.188463617179D-02 0.000000000000D+00  5 3 -4 25 -24 21 2 0.10131365D+00 0.64911907D-02 0.22366518D+05 0.22366518D+05 0.22366518D+05 0.12285147D+01  1  2  3  2  5  2       -4 -.152832841989D-02 0.100000000000D+01
0.462947376358D-04 0.000000000000D+00 0.000000000000D+00 0.188463617179D-02 0.000000000000D+00  5 3 -4 25 -24 21 2 0.10131365D+00 0.64911907D-02 0.22366518D+05 0.22366518D+05 0.22366518D+05 0.12285147D+01  1  2 15  2  5  2       -4 0.192693243364D-02 0.100000000000D+01
  </mgrwgt>
  </event>
  <event>
  5     66 -.47139866E-03 0.10556604E+03 0.75467711E-02 0.12610148E+00
        1 -1    0    0  501    0 0.00000000E+00 0.00000000E+00 0.49256263E+02 0.49257303E+02 0.32000000E+00 0.0000E+00 0.9000E+01
       -2 -1    0    0    0  502 0.00000000E+00 0.00000000E+00 -.24736806E+03 0.24736827E+03 0.32000000E+00 0.0000E+00 0.9000E+01
       25  1    1    2    0    0 0.18468270E+02 0.20742609E+02 -.12871994E+03 0.18156309E+03 0.12500000E+03 0.0000E+00 0.9000E+01
      -24  1    1    2    0    0 -.17425529E+02 -.12578029E+02 -.60376233E+02 0.10283171E+03 0.80419002E+02 0.0000E+00 0.9000E+01
       21  1    1    2  501  502 -.10427410E+01 -.81645804E+01 -.90156261E+01 0.12230768E+02 0.75000000E+00 0.0000E+00 0.9000E+01
#aMCatNLO 2  0  0  2  1 0.82308980D+01 0.00000000D+00  -5  5  0 0.00000000D+00 0.00000000D+00 0.00000000D+00 0.00000000D+00 0.00000000D+00
  <mgrwgt>
 -.5458637583D-01    3    2    0
 0.106131162181014D+03 0.000000000000000D+00 0.000000000000000D+00 0.106131162181014D+03
 0.106131162181014D+03 0.000000000000000D+00 0.000000000000000D+00 -.106131162181014D+03
 0.127703016896998D+03 0.178392185978717D+02 0.158171854118435D+02 -.107069813701037D+02
 0.845593074650305D+02 -.178392185978717D+02 -.158171854118435D+02 0.107069813701037D+02
 0.000000000000000D+00 -.000000000000000D+00 -.000000000000000D+00 -.000000000000000D+00
 0.109777421510981D+03 0.000000000000000D+00 0.000000000000000D+00 0.109777421510981D+03
 0.110959819973173D+03 0.000000000000000D+00 0.000000000000000D+00 -.110959819973173D+03
 0.128495028256271D+03 0.184682700471851D+02 0.207426092376168D+02 -.107069813701037D+02
 0.839268209635250D+02 -.174255290897657D+02 -.125780288024407D+02 0.107069813701037D+02
 0.831539226435741D+01 -.104274095741943D+01 -.816458043517611D+01 -.118239846219222D+01
-.379097620406D-03 0.000000000000D+00 0.000000000000D+00 0.309968952866D-02 0.000000000000D+00  5 1 -2 25 -24 21 2 0.73251587D-02 0.38651262D-01 0.12047270D+05 0.12047270D+05 0.12047270D+05 0.12588241D+01  1  2 13  2  5  2       -2 -.306868831177D+00 0.100000000000D+01
-.345816775334D-04 0.000000000000D+00 0.000000000000D+00 0.309968952866D-02 0.000000000000D+00  5 1 -2 25 -24 21 2 0.73251587D-02 0.36395031D-01 0.11144189D+05 0.11144189D+05 0.11144189D+05 0.12628076D+01  1  2  8  2  5  2       -2 -.314000975021D-01 0.100000000000D+01
0.356073092786D-03 0.000000000000D+00 0.000000000000D+00 0.309968952866D-02 0.387280038286D-03  5 1 -2 25 -24 21 2 0.75768230D-02 0.38050898D-01 0.12047270D+05 0.12047270D+05 0.12047270D+05 0.12588241D+01  1  2  1  2  5  2       -2 0.283682552853D+00 0.100000000000D+01
  </mgrwgt>
  </event>
  <event>
  4     66 0.47139866E-03 0.16916936E+03 0.75467711E-02 0.11253026E+00
        1 -1    0    0  501    0 0.00000000E+00 0.00000000E+00 0.19076892E+03 0.19076919E+03 0.32000000E+00 0.0000E+00 0.9000E+01
       -2 -1    0    0    0  501 0.00000000E+00 0.00000000E+00 -.16315327E+03 0.16315359E+03 0.32000000E+00 0.0000E+00 0.9000E+01
       25  1    1    2    0    0 -.11961556E+03 0.58714893E+02 0.64892609E+02 0.19388494E+03 0.12500000E+03 0.0000E+00 0.9000E+01
      -24  1    1    2    0    0 0.11961556E+03 -.58714893E+02 -.37276963E+02 0.16003783E+03 0.80419002E+02 0.0000E+00 0.9000E+01
#aMCatNLO 1  0  0  2  1 0.10956253D+03 0.00000000D+00  -5  5  0 0.00000000D+00 0.00000000D+00 0.00000000D+00 0.00000000D+00 0.00000000D+00
  <mgrwgt>
 0.2145437458D+00    3    2    0
 0.176421872493904D+03 0.000000000000000D+00 0.000000000000000D+00 0.176421872493904D+03
 0.176421872493904D+03 0.000000000000000D+00 0.000000000000000D+00 -.176421872493904D+03
 0.189398982299189D+03 -.119615558355465D+03 0.587148927513589D+02 0.499164708736041D+02
 0.163444762688620D+03 0.119615558355465D+03 -.587148927513589D+02 -.499164708736041D+02
 0.000000000000000D+00 0.000000000000000D+00 -.000000000000000D+00 0.000000000000000D+00
 0.344092396415789D+03 0.000000000000000D+00 0.000000000000000D+00 0.344092396415789D+03
 0.203562700580510D+03 0.000000000000000D+00 0.000000000000000D+00 -.203562700580510D+03
 0.239126863775429D+03 -.172432980195399D+03 0.966016058641383D+02 0.499164708736041D+02
 0.130335796620687D+03 0.834059997686314D+02 -.327412440890435D+02 -.499164708736041D+02
 0.178192436600183D+03 0.890269804267675D+02 -.638603617750949D+02 0.140529695835280D+03
0.110943929316D-02 0.000000000000D+00 0.000000000000D+00 0.208076304268D-02 0.000000000000D+00  5 1 -2 25 -24 21 0 0.29349110D-01 0.25100549D-01 0.28618274D+05 0.28618274D+05 0.28618274D+05 0.12170535D+01  1  2  2  2  5  2       -2 0.210293794938D+00 0.100000000000D+01
-.615034624536D-04 0.000000000000D+00 -.426053900781D-05 0.208076304268D-02 0.000000000000D+00  5 1 -2 25 -24 21 2 0.29349110D-01 0.25100549D-01 0.28618274D+05 0.28618274D+05 0.28618274D+05 0.12170535D+01  1  2  3  2  5  2       -2 -.172679915774D-01 0.100000000000D+01
0.766405263459D-04 0.000000000000D+00 0.000000000000D+00 0.208076304268D-02 0.000000000000D+00  5 1 -2 25 -24 21 2 0.29349110D-01 0.25100549D-01 0.28618274D+05 0.28618274D+05 0.28618274D+05 0.12170535D+01  1  2 15  2  5  2       -2 0.215179424155D-01 0.100000000000D+01
  </mgrwgt>
  </event>
  <event>
  4     66 0.47139866E-03 0.10297082E+03 0.75467711E-02 0.12445103E+00
        1 -1    0    0  501    0 0.00000000E+00 0.00000000E+00 0.76745583E+03 0.76745589E+03 0.32000000E+00 0.0000E+00 0.9000E+01
       -2 -1    0    0    0  501 0.00000000E+00 0.00000000E+00 -.13875502E+02 0.13879191E+02 0.32000000E+00 0.0000E+00 0.9000E+01
       25  1    1    2    0    0 -.35093759E+01 0.62381571E+01 0.48321364E+03 0.49917096E+03 0.12500000E+03 0.0000E+00 0.9000E+01
      -24  1    1    2    0    0 0.35093759E+01 -.62381571E+01 0.27036668E+03 0.28216412E+03 0.80419002E+02 0.0000E+00 0.9000E+01
#aMCatNLO 1  0  0  2  1 0.30158614D+02 0.00000000D+00  -5  5  0 0.00000000D+00 0.00000000D+00 0.00000000D+00 0.00000000D+00 0.00000000D+00
  <mgrwgt>
 0.1077434299D+00    4    2    0
 0.103200301270434D+03 0.000000000000000D+00 0.000000000000000D+00 0.103200301270434D+03
 0.103200301270434D+03 0.000000000000000D+00 0.000000000000000D+00 -.103200301270434D+03
 0.125384790881641D+03 -.350937586101239D+01 0.623815706287754D+01 0.671680444541007D+01
 0.810158116592274D+02 0.350937586101239D+01 -.623815706287754D+01 -.671680444541007D+01
 0.000000000000000D+00 0.000000000000000D+00 -.000000000000000D+00 0.000000000000000D+00
 0.132046030946979D+03 0.000000000000000D+00 0.000000000000000D+00 0.132046030946979D+03
 0.112490262062447D+03 0.000000000000000D+00 0.000000000000000D+00 -.112490262062447D+03
 0.127743571943990D+03 -.153699289911507D+02 0.202995072319094D+02 0.671680444541007D+01
 0.808487355124497D+02 -.407493053667849D+01 0.275346304766925D+01 -.671680444541007D+01
 0.359439855529872D+02 0.194448595278291D+02 -.230529702795786D+02 0.195557688845315D+02
0.103873013351D-03 0.000000000000D+00 0.000000000000D+00 0.321444601480D-02 0.000000000000D+00  5 1 -2 25 -24 21 0 0.11807042D+00 0.21349815D-02 0.10602991D+05 0.10602991D+05 0.10602991D+05 0.12653731D+01  1  2  2  2  5  2       -2 0.146889169920D+00 0.100000000000D+01
-.577068819483D-05 0.000000000000D+00 -.398899721662D-06 0.321444601480D-02 0.000000000000D+00  5 1 -2 25 -24 21 2 0.11807042D+00 0.21349815D-02 0.10602991D+05 0.10602991D+05 0.10602991D+05 0.12653731D+01  1  2  3  2  5  2       -2 -.130662768898D-01 0.100000000000D+01
0.718193742999D-05 0.000000000000D+00 0.000000000000D+00 0.321444601480D-02 0.000000000000D+00  5 1 -2 25 -24 21 2 0.11807042D+00 0.21349815D-02 0.10602991D+05 0.10602991D+05 0.10602991D+05 0.12653731D+01  1  2 15  2  5  2       -2 0.162616970276D-01 0.100000000000D+01
-.186998664805D-04 0.000000000000D+00 0.000000000000D+00 0.321444601480D-02 0.000000000000D+00  5 1 -2 25 -24 21 2 0.11807042D+00 0.21349815D-02 0.10602991D+05 0.10602991D+05 0.10602991D+05 0.12653731D+01  1  2  4  2  5  2       -2 -.423411601851D-01 0.100000000000D+01
  </mgrwgt>
  </event>
  <event>
  4     66 0.47139866E-03 0.57672348E+02 0.75467711E-02 0.12205291E+00
        1 -1    0    0  501    0 0.00000000E+00 0.00000000E+00 0.50617586E+03 0.50617596E+03 0.32000000E+00 0.0000E+00 0.9000E+01
       -2 -1    0    0    0  501 0.00000000E+00 0.00000000E+00 -.27036457E+02 0.27038351E+02 0.32000000E+00 0.0000E+00 0.9000E+01
       25  1    1    2    0    0 0.30139200E+02 -.45715453E+02 0.26840174E+03 0.30110259E+03 0.12500000E+03 0.0000E+00 0.9000E+01
      -24  1    1    2    0    0 -.30139200E+02 0.45715453E+02 0.21073766E+03 0.23211173E+03 0.80419002E+02 0.0000E+00 0.9000E+01
#aMCatNLO 1  0  0  2  1 0.33426180D+02 0.00000000D+00  -5  5  0 0.00000000D+00 0.00000000D+00 0.00000000D+00 0.00000000D+00 0.00000000D+00
  <mgrwgt>
 0.2006601186D+00    9    2    0
 0.116986040402374D+03 0.000000000000000D+00 0.000000000000000D+00 0.116986040402374D+03
 0.116986040402374D+03 0.000000000000000D+00 0.000000000000000D+00 -.116986040402374D+03
 0.136556290011070D+03 0.301392002009654D+02 -.457154528147134D+02 -.493419971010548D+01
 0.974157907936793D+02 -.301392002009654D+02 0.457154528147134D+02 0.493419971010548D+01
 0.000000000000000D+00 -.000000000000000D+00 -.000000000000000D+00 -.000000000000000D+00
 0.124614065959862D+03 0.000000000000000D+00 0.000000000000000D+00 0.124614065959862D+03
 0.161546285267631D+03 0.000000000000000D+00 0.000000000000000D+00 -.161546285267631D+03
 0.137464436399327D+03 0.457126389891652D+02 -.340217516370289D+02 -.493419971010548D+01
 0.988832822967093D+02 -.189829214807381D+02 0.540924202516129D+02 0.493419971010548D+01
 0.498126325314564D+02 -.267297175084271D+02 -.200706686145840D+02 -.369322193077690D+02
0.172054768501D-03 0.000000000000D+00 0.000000000000D+00 0.283933153244D-02 0.000000000000D+00  5 1 -2 25 -24 21 0 0.77873363D-01 0.41596084D-02 0.13660685D+05 0.13660685D+05 0.13660685D+05 0.12524799D+01  1  2  2  2  5  2       -2 0.163951153880D+00 0.100000000000D+01
-.955858849924D-05 0.000000000000D+00 -.660735614106D-06 0.283933153244D-02 0.000000000000D+00  5 1 -2 25 -24 21 2 0.77873363D-01 0.41596084D-02 0.13660685D+05 0.13660685D+05 0.13660685D+05 0.12524799D+01  1  2  3  2  5  2       -2 -.142883816969D-01 0.100000000000D+01
0.119152963455D-04 0.000000000000D+00 0.000000000000D+00 0.283933153244D-02 0.000000000000D+00  5 1 -2 25 -24 21 2 0.77873363D-01 0.41596084D-02 0.13660685D+05 0.13660685D+05 0.13660685D+05 0.12524799D+01  1  2 15  2  5  2       -2 0.178112387859D-01 0.100000000000D+01
0.207459555242D-03 0.000000000000D+00 0.000000000000D+00 0.283933153244D-02 0.000000000000D+00  5 1 -2 25 -24 21 2 0.77873363D-01 0.58402164D-02 0.18165936D+05 0.18165936D+05 0.18165936D+05 0.12384515D+01  1  2 12  2  5  2       -2 0.184115062959D+00 0.100000000000D+01
-.218129349322D-03 0.000000000000D+00 0.000000000000D+00 0.283933153244D-02 0.000000000000D+00  5 1 -2 25 -24 21 2 0.77873363D-01 0.41596084D-02 0.13660685D+05 0.13660685D+05 0.13660685D+05 0.12524799D+01  1  2  4  2  5  2       -2 -.326064397757D+00 0.100000000000D+01
-.291319277088D-03 0.000000000000D+00 -.688336836483D-04 0.283933153244D-02 0.000000000000D+00  5 1 -2 25 -24 21 2 0.77873363D-01 0.61099479D-02 0.13660685D+05 0.13660685D+05 0.13660685D+05 0.12524799D+01  1  2  5  2  5  2       -2 -.244927527678D+00 0.100000000000D+01
0.300118939832D-03 0.000000000000D+00 0.640412067142D-04 0.283933153244D-02 0.000000000000D+00  5 1 -2 25 -24 21 2 0.77873363D-01 0.41596084D-02 0.13660685D+05 0.13660685D+05 0.13660685D+05 0.12524799D+01  1  2  6  2  5  2       -2 0.448624184119D+00 0.100000000000D+01
0.876445761826D-05 0.000000000000D+00 0.000000000000D+00 0.283933153244D-02 0.000000000000D+00  5 1 21 25 -24 2 2 0.77873363D-01 0.58402164D-02 0.18165936D+05 0.18165936D+05 0.18165936D+05 0.12384515D+01  1  2 12  4  5  2       -2 0.135368428773D+00 0.100000000000D+01
-.112462689422D-04 0.000000000000D+00 -.318311922812D-05 0.283933153244D-02 0.000000000000D+00  5 1 21 25 -24 2 2 0.77873363D-01 0.61099479D-02 0.13660685D+05 0.13660685D+05 0.13660685D+05 0.12524799D+01  1  2  5  4  5  2       -2 -.163929642817D+00 0.100000000000D+01
  </mgrwgt>
  </event>
  <event>
  4     66 0.47139866E-03 0.74713465E+02 0.75467711E-02 0.12410650E+00
        1 -1    0    0  501    0 0.00000000E+00 0.00000000E+00 0.51906365E+04 0.51906365E+04 0.32000000E+00 0.0000E+00 0.9000E+01
       -2 -1    0    0    0  501 0.00000000E+00 0.00000000E+00 -.29475785E+01 0.29648979E+01 0.32000000E+00 0.0000E+00 0.9000E+01
       25  1    1    2    0    0 0.16022135E+02 0.58083986E+02 0.36470109E+04 0.36496498E+04 0.12500000E+03 0.0000E+00 0.9000E+01
      -24  1    1    2    0    0 -.16022135E+02 -.58083986E+02 0.15406780E+04 0.15439516E+04 0.80419002E+02 0.0000E+00 0.9000E+01
#aMCatNLO 1  0  0  1  2 0.32204958D+01 0.00000000D+00  -5  5  0 0.00000000D+00 0.00000000D+00 0.00000000D+00 0.00000000D+00 0.00000000D+00
  <mgrwgt>
 0.4661048053D-01   11    2    0
 0.123874166502164D+03 0.000000000000000D+00 0.000000000000000D+00 0.123874166502164D+03
 0.123874166502164D+03 0.000000000000000D+00 0.000000000000000D+00 -.123874166502164D+03
 0.142356196097635D+03 0.160221353422743D+02 0.580839860648564D+02 0.317777958530758D+02
 0.105392136906692D+03 -.160221353422743D+02 -.580839860648564D+02 -.317777958530758D+02
 0.000000000000000D+00 0.000000000000000D+00 -.000000000000000D+00 0.000000000000000D+00
 0.126119181179952D+03 0.000000000000000D+00 0.000000000000000D+00 0.126119181179952D+03
 0.125044999394860D+03 0.000000000000000D+00 0.000000000000000D+00 -.125044999394860D+03
 0.142923382114487D+03 0.151107846962095D+02 0.596986518409642D+02 0.317777958530758D+02
 0.104845881717025D+03 -.166937591412890D+02 -.568940511398403D+02 -.317777958530758D+02
 0.339491674330055D+01 0.158297444507944D+01 -.280460070112392D+01 0.107418178509185D+01
0.155897017953D-02 0.000000000000D+00 0.000000000000D+00 0.255818723048D-02 0.000000000000D+00  5 1 -2 25 -24 21 0 0.79856080D+00 0.45480664D-03 0.14310287D+05 0.14310287D+05 0.14310287D+05 0.12501598D+01  1  2  2  1  5  1        1 0.714617945850D-02 0.100000000000D+01
-.864811976294D-04 0.000000000000D+00 -.598685597568D-05 0.255818723048D-02 0.000000000000D+00  5 1 -2 25 -24 21 2 0.79856080D+00 0.45480664D-03 0.14310287D+05 0.14310287D+05 0.14310287D+05 0.12501598D+01  1  2  3  1  5  1        1 -.619567840551D-03 0.100000000000D+01
0.107708284431D-03 0.000000000000D+00 0.000000000000D+00 0.255818723048D-02 0.000000000000D+00  5 1 -2 25 -24 21 2 0.79856080D+00 0.45480664D-03 0.14310287D+05 0.14310287D+05 0.14310287D+05 0.12501598D+01  1  2 15  1  5  1        1 0.771642750373D-03 0.100000000000D+01
0.138845697486D-04 0.000000000000D+00 0.000000000000D+00 0.255818723048D-02 0.000000000000D+00  5 1 -2 25 -24 21 2 0.81675500D+00 0.45480664D-03 0.14699193D+05 0.14699193D+05 0.14699193D+05 0.12488267D+01  1  2 12  1  5  1        1 0.677642228480D-04 0.100000000000D+01
-.431896809728D-02 0.000000000000D+00 0.000000000000D+00 0.255818723048D-02 0.000000000000D+00  5 1 -2 25 -24 21 2 0.79856080D+00 0.45480664D-03 0.14310287D+05 0.14310287D+05 0.14310287D+05 0.12501598D+01  1  2  4  1  5  1        1 -.309419135117D-01 0.100000000000D+01
-.225598037404D-01 0.000000000000D+00 -.261402601606D-02 0.255818723048D-02 0.000000000000D+00  5 1 -2 25 -24 21 2 0.81378486D+00 0.45480664D-03 0.14310287D+05 0.14310287D+05 0.14310287D+05 0.12501598D+01  1  2  5  1  5  1        1 -.117845946397D+00 0.100000000000D+01
0.232647556494D-01 0.000000000000D+00 0.283422363495D-02 0.255818723048D-02 0.000000000000D+00  5 1 -2 25 -24 21 2 0.79856080D+00 0.45480664D-03 0.14310287D+05 0.14310287D+05 0.14310287D+05 0.12501598D+01  1  2  6  1  5  1        1 0.166673159181D+00 0.100000000000D+01
0.409550291032D-02 0.000000000000D+00 0.000000000000D+00 0.255818723048D-02 0.205202916130D-02  5 1 -2 25 -24 21 2 0.81303339D+00 0.45910537D-03 0.14699193D+05 0.14699193D+05 0.14699193D+05 0.12488267D+01  1  2 11  1  5  1        1 0.213742617909D-01 0.100000000000D+01
0.471422798048D-06 0.000000000000D+00 0.000000000000D+00 0.255818723048D-02 0.000000000000D+00  5 21 -2 25 -24 -1 2 0.81675500D+00 0.45480664D-03 0.14699193D+05 0.14699193D+05 0.14699193D+05 0.12488267D+01  1  2 12  3  5  1        1 0.110917730957D-06 0.100000000000D+01
-.773255543392D-04 0.000000000000D+00 -.899934474263D-05 0.255818723048D-02 0.000000000000D+00  5 21 -2 25 -24 -1 2 0.81378486D+00 0.45480664D-03 0.14310287D+05 0.14310287D+05 0.14310287D+05 0.12501598D+01  1  2  5  3  5  1        1 -.200408402192D-04 0.100000000000D+01
0.185762695333D-04 0.000000000000D+00 0.000000000000D+00 0.255818723048D-02 0.674930632264D-05  5 21 -2 25 -24 -1 2 0.81303339D+00 0.45910537D-03 0.14699193D+05 0.14699193D+05 0.14699193D+05 0.12488267D+01  1  2 11  3  5  1        1 0.483079745917D-05 0.100000000000D+01
  </mgrwgt>
  </event>
  <event>
  4     66 0.47139866E-03 0.18751006E+03 0.75467711E-02 0.11606542E+00
        1 -1    0    0  501    0 0.00000000E+00 0.00000000E+00 0.12847238E+03 0.12847278E+03 0.32000000E+00 0.0000E+00 0.9000E+01
       -2 -1    0    0    0  501 0.00000000E+00 0.00000000E+00 -.27642769E+03 0.27642788E+03 0.32000000E+00 0.0000E+00 0.9000E+01
       25  1    1    2    0    0 0.13239568E+02 -.15520215E+03 -.98900390E+02 0.22286606E+03 0.12500000E+03 0.0000E+00 0.9000E+01
      -24  1    1    2    0    0 -.13239568E+02 0.15520215E+03 -.49054923E+02 0.18203460E+03 0.80419002E+02 0.0000E+00 0.9000E+01
#aMCatNLO 1  0  0  1  2 0.15751215D+00 0.00000000D+00  -5  5  0 0.00000000D+00 0.00000000D+00 0.00000000D+00 0.00000000D+00 0.00000000D+00
  <mgrwgt>
 0.9246061204D-01    6    2    0
 0.188450104748587D+03 0.000000000000000D+00 0.000000000000000D+00 0.188450104748587D+03
 0.188450104748587D+03 0.000000000000000D+00 0.000000000000000D+00 -.188450104748587D+03
 0.200598922678201D+03 0.132395684331521D+02 -.155202149618234D+03 -.187599136788565D+02
 0.176301286818972D+03 -.132395684331521D+02 0.155202149618234D+03 0.187599136788565D+02
 0.000000000000000D+00 0.000000000000000D+00 0.000000000000000D+00 -.000000000000000D+00
 0.188468424309348D+03 0.000000000000000D+00 0.000000000000000D+00 0.188468424309348D+03
 0.188788999188195D+03 0.000000000000000D+00 0.000000000000000D+00 -.188788999188195D+03
 0.200594578668523D+03 0.131557497555887D+02 -.155203662580277D+03 -.187599136788565D+02
 0.176305663741971D+03 -.133132362473028D+02 0.155200819883504D+03 0.187599136788565D+02
 0.357181087048486D+00 0.157486491714126D+00 0.284269677334531D-02 -.320574878847001D+00
0.674053910040D-03 0.000000000000D+00 0.000000000000D+00 0.218068433030D-02 0.000000000000D+00  5 1 -2 25 -24 21 0 0.19765027D-01 0.42527382D-01 0.35160024D+05 0.35160024D+05 0.35160024D+05 0.12077300D+01  1  2  2  1  5  1        1 0.803542915656D-01 0.100000000000D+01
-.374463008360D-04 0.000000000000D+00 -.258854449702D-05 0.218068433030D-02 0.000000000000D+00  5 1 -2 25 -24 21 2 0.19765027D-01 0.42527382D-01 0.35160024D+05 0.35160024D+05 0.35160024D+05 0.12077300D+01  1  2  3  1  5  1        1 -.651123099804D-02 0.100000000000D+01
0.465410286440D-04 0.000000000000D+00 0.000000000000D+00 0.218068433030D-02 0.000000000000D+00  5 1 -2 25 -24 21 2 0.19765027D-01 0.42527382D-01 0.35160024D+05 0.35160024D+05 0.35160024D+05 0.12077300D+01  1  2 15  1  5  1        1 0.809263883540D-02 0.100000000000D+01
-.691289093610D-02 0.000000000000D+00 0.000000000000D+00 0.218068433030D-02 0.000000000000D+00  5 1 -2 25 -24 21 2 0.19765027D-01 0.42527382D-01 0.35160024D+05 0.35160024D+05 0.35160024D+05 0.12077300D+01  1  2  4  1  5  1        1 -.120202606784D+01 0.100000000000D+01
0.691290208294D-02 0.000000000000D+00 0.000000000000D+00 0.218068433030D-02 0.683717719118D+00  5 1 -2 25 -24 21 2 0.19766948D-01 0.42603860D-01 0.35189573D+05 0.35189573D+05 0.35189573D+05 0.12076924D+01  1  2 11  1  5  1        1 0.119766474765D+01 0.100000000000D+01
0.101458140473D-04 0.000000000000D+00 0.000000000000D+00 0.218068433030D-02 0.124710022619D-04  5 21 -2 25 -24 -1 2 0.19766948D-01 0.42603860D-01 0.35189573D+05 0.35189573D+05 0.35189573D+05 0.12076924D+01  1  2 11  3  5  1        1 0.148862328354D-01 0.100000000000D+01
  </mgrwgt>
  </event>
  <event>
  4     66 0.47139866E-03 0.16619706E+03 0.75467711E-02 0.11243252E+00
        1 -1    0    0  501    0 0.00000000E+00 0.00000000E+00 0.10612401E+04 0.10612401E+04 0.32000000E+00 0.0000E+00 0.9000E+01
       -2 -1    0    0    0  501 0.00000000E+00 0.00000000E+00 -.26502778E+02 0.26504709E+02 0.32000000E+00 0.0000E+00 0.9000E+01
       25  1    1    2    0    0 -.55309115E+01 -.12936200E+03 0.63214076E+03 0.65726102E+03 0.12500000E+03 0.0000E+00 0.9000E+01
      -24  1    1    2    0    0 0.55309115E+01 0.12936200E+03 0.40259657E+03 0.43048383E+03 0.80419002E+02 0.0000E+00 0.9000E+01
#aMCatNLO 1  0  0  1  2 0.11491971D+03 0.00000000D+00  -5  5  0 0.00000000D+00 0.00000000D+00 0.00000000D+00 0.00000000D+00 0.00000000D+00
  <mgrwgt>
 0.2715243411D+00    3    2    0
 0.167710724673030D+03 0.000000000000000D+00 0.000000000000000D+00 0.167710724673030D+03
 0.167710724673030D+03 0.000000000000000D+00 0.000000000000000D+00 -.167710724673030D+03
 0.181361885121302D+03 -.553091153046704D+01 -.129362004214508D+03 0.224056746829895D+02
 0.154059564224759D+03 0.553091153046704D+01 0.129362004214508D+03 -.224056746829895D+02
 0.000000000000000D+00 -.000000000000000D+00 -.000000000000000D+00 -.000000000000000D+00
 0.197790556283393D+03 0.000000000000000D+00 0.000000000000000D+00 0.197790556283393D+03
 0.338260539903589D+03 0.000000000000000D+00 0.000000000000000D+00 -.338260539903589D+03
 0.179232419573177D+03 0.527716190550781D+02 -.114945213864525D+03 0.224056746829895D+02
 0.175329405605728D+03 0.587880213574078D+02 0.142531185368566D+03 -.224056746829895D+02
 0.181489271008076D+03 -.111559640412486D+03 -.275859715040413D+02 -.140469983620195D+03
0.796807997088D-03 0.000000000000D+00 0.000000000000D+00 0.225449550552D-02 0.000000000000D+00  5 1 -2 25 -24 21 0 0.16326786D+00 0.40775027D-02 0.27621463D+05 0.27621463D+05 0.27621463D+05 0.12186817D+01  1  2  2  1  5  1        1 0.266221780810D+00 0.100000000000D+01
-.442626867516D-04 0.000000000000D+00 -.305995251318D-05 0.225449550552D-02 0.000000000000D+00  5 1 -2 25 -24 21 2 0.16326786D+00 0.40775027D-02 0.27621463D+05 0.27621463D+05 0.27621463D+05 0.12186817D+01  1  2  3  1  5  1        1 -.219638386490D-01 0.100000000000D+01
0.549486860216D-04 0.000000000000D+00 0.000000000000D+00 0.225449550552D-02 0.000000000000D+00  5 1 -2 25 -24 21 2 0.16326786D+00 0.40775027D-02 0.27621463D+05 0.27621463D+05 0.27621463D+05 0.12186817D+01  1  2 15  1  5  1        1 0.272663989090D-01 0.100000000000D+01
  </mgrwgt>
  </event>
  <event>
  4     66 0.47139866E-03 0.14499941E+03 0.75467711E-02 0.11211512E+00
        1 -1    0    0  501    0 0.00000000E+00 0.00000000E+00 0.11062363E+03 0.11062409E+03 0.32000000E+00 0.0000E+00 0.9000E+01
       -2 -1    0    0    0  501 0.00000000E+00 0.00000000E+00 -.19554946E+03 0.19554972E+03 0.32000000E+00 0.0000E+00 0.9000E+01
       25  1    1    2    0    0 -.58342176E+02 0.82608811E+02 -.21447416E+02 0.16221287E+03 0.12500000E+03 0.0000E+00 0.9000E+01
      -24  1    1    2    0    0 0.58342176E+02 -.82608811E+02 -.63478419E+02 0.14396093E+03 0.80419002E+02 0.0000E+00 0.9000E+01
#aMCatNLO 1  0  0  2  1 0.14993154D+03 0.00000000D+00  -5  5  0 0.00000000D+00 0.00000000D+00 0.00000000D+00 0.00000000D+00 0.00000000D+00
  <mgrwgt>
 0.2313073877D+00    3    2    0
 0.147079913850512D+03 0.000000000000000D+00 0.000000000000000D+00 0.147079913850512D+03
 0.147079913850512D+03 0.000000000000000D+00 0.000000000000000D+00 -.147079913850512D+03
 0.162645914342831D+03 -.583421758562444D+02 0.826088107595276D+02 0.245085363429007D+02
 0.131513913358193D+03 0.583421758562444D+02 -.826088107595276D+02 -.245085363429007D+02
 0.000000000000000D+00 -.000000000000000D+00 -.000000000000000D+00 0.000000000000000D+00
 0.314809796971581D+03 0.000000000000000D+00 0.000000000000000D+00 0.314809796971581D+03
 0.202617032876789D+03 0.000000000000000D+00 0.000000000000000D+00 -.202617032876789D+03
 0.221175838222258D+03 -.483180721074931D+02 0.174236755500847D+03 0.245085363429007D+02
 0.108989986639324D+03 0.646233103397456D+02 -.251944565397069D+02 -.245085363429007D+02
 0.187261004986788D+03 -.163052382322524D+02 -.149042298961140D+03 0.112192764094791D+03
0.832202498952D-03 0.000000000000D+00 0.000000000000D+00 0.237218814201D-02 0.000000000000D+00  5 1 -2 25 -24 21 0 0.17019075D-01 0.30084588D-01 0.21024830D+05 0.21024830D+05 0.21024830D+05 0.12314439D+01  1  2  2  2  5  2       -2 0.226627405178D+00 0.100000000000D+01
-.462220631768D-04 0.000000000000D+00 -.319587671993D-05 0.237218814201D-02 0.000000000000D+00  5 1 -2 25 -24 21 2 0.17019075D-01 0.30084588D-01 0.21024830D+05 0.21024830D+05 0.21024830D+05 0.12314439D+01  1  2  3  2  5  2       -2 -.190880699176D-01 0.100000000000D+01
0.575547148932D-04 0.000000000000D+00 0.000000000000D+00 0.237218814201D-02 0.000000000000D+00  5 1 -2 25 -24 21 2 0.17019075D-01 0.30084588D-01 0.21024830D+05 0.21024830D+05 0.21024830D+05 0.12314439D+01  1  2 15  2  5  2       -2 0.237680524508D-01 0.100000000000D+01
  </mgrwgt>
  </event>
  <event>
  5     66 0.47139866E-03 0.10487623E+03 0.75467711E-02 0.11339533E+00
        1 -1    0    0  501    0 0.00000000E+00 0.00000000E+00 0.31903594E+03 0.31903610E+03 0.32000000E+00 0.0000E+00 0.9000E+01
       21 -1    0    0  502  501 0.00000000E+00 0.00000000E+00 -.15418271E+03 0.15418453E+03 0.75000000E+00 0.0000E+00 0.9000E+01
       25  1    1    2    0    0 -.79577883E+02 0.81523284E+02 0.76225168E+02 0.18551000E+03 0.12500000E+03 0.0000E+00 0.9000E+01
      -24  1    1    2    0    0 -.16774562E+02 0.58402505E+02 0.53919333E+02 0.11430988E+03 0.80419002E+02 0.0000E+00 0.9000E+01
        2  1    1    2  502    0 0.96352445E+02 -.13992579E+03 0.34708725E+02 0.17340074E+03 0.32000000E+00 0.0000E+00 0.9000E+01
#aMCatNLO 2  0  0  2  1 0.16989120D+03 0.00000000D+00  -5  5  0 0.00000000D+00 0.00000000D+00 0.00000000D+00 0.00000000D+00 0.00000000D+00
  <mgrwgt>
 0.3870334700D-01    1    2    0
 0.104989704522307D+03 0.000000000000000D+00 0.000000000000000D+00 0.104989704522307D+03
 0.104989704522307D+03 0.000000000000000D+00 0.000000000000000D+00 -.104989704522307D+03
 0.126796090413420D+03 -.201725242686546D+02 -.474688439380738D+01 -.477335283743164D+01
 0.831833186311942D+02 0.201725242686546D+02 0.474688439380738D+01 0.477335283743164D+01
 0.000000000000000D+00 0.000000000000000D+00 -.000000000000000D+00 -.000000000000000D+00
 0.200416670089430D+03 0.000000000000000D+00 0.000000000000000D+00 0.200416670089430D+03
 0.245439806214274D+03 0.000000000000000D+00 0.000000000000000D+00 -.245439806214274D+03
 0.169193587915601D+03 -.795778828360958D+02 0.815232841448878D+02 -.477335283743164D+01
 0.100907083151139D+03 -.167745624961326D+02 0.584025053525360D+02 0.477335283743164D+01
 0.175755805236964D+03 0.963524453322284D+02 -.139925789497424D+03 -.450231361248443D+02
0.183781039940D-04 0.000000000000D+00 0.000000000000D+00 0.315795642578D-02 0.282443304013D-06  5 1 21 25 -24 2 2 0.49082571D-01 0.23720554D-01 0.48358552D+05 0.48358552D+05 0.48358552D+05 0.11937201D+01  1  2  1  4  5  2       -2 0.387033469986D-01 0.100000000000D+01
  </mgrwgt>
  </event>
  <event>
  4     66 0.47139866E-03 0.11735844E+03 0.75467711E-02 0.11689497E+00
        1 -1    0    0  501    0 0.00000000E+00 0.00000000E+00 0.87608134E+03 0.87608140E+03 0.32000000E+00 0.0000E+00 0.9000E+01
       -2 -1    0    0    0  501 0.00000000E+00 0.00000000E+00 -.15745799E+02 0.15749051E+02 0.32000000E+00 0.0000E+00 0.9000E+01
       25  1    1    2    0    0 0.66912848E+01 -.55341583E+02 0.48357129E+03 0.50256707E+03 0.12500000E+03 0.0000E+00 0.9000E+01
      -24  1    1    2    0    0 -.66912848E+01 0.55341583E+02 0.37676425E+03 0.38926338E+03 0.80419002E+02 0.0000E+00 0.9000E+01
#aMCatNLO 1  0  0  2  1 0.10181006D+03 0.00000000D+00  -5  5  0 0.00000000D+00 0.00000000D+00 0.00000000D+00 0.00000000D+00 0.00000000D+00
  <mgrwgt>
 0.2765032368D+00    3    2    0
 0.117456701568657D+03 0.000000000000000D+00 0.000000000000000D+00 0.117456701568657D+03
 0.117456701568657D+03 0.000000000000000D+00 0.000000000000000D+00 -.117456701568657D+03
 0.136948531160595D+03 0.669128483654170D+01 -.553415829444843D+02 -.473667515030750D+01
 0.979648719767195D+02 -.669128483654170D+01 0.553415829444843D+02 0.473667515030750D+01
 0.000000000000000D+00 -.000000000000000D+00 0.000000000000000D+00 0.000000000000000D+00
 0.374031676069481D+03 0.000000000000000D+00 0.000000000000000D+00 0.374031676069481D+03
 0.138546319433161D+03 0.000000000000000D+00 0.000000000000000D+00 -.138546319433161D+03
 0.169604320929707D+03 0.471449235916063D+02 -.104381730997762D+03 -.473667515030750D+01
 0.864222326482974D+02 0.176409934989261D+02 0.258446435153827D+02 0.473667515030750D+01
 0.256551441924638D+03 -.647859170905324D+02 0.785370874823791D+02 0.235485356636320D+03
0.278196670842D-03 0.000000000000D+00 0.000000000000D+00 0.282985817361D-02 0.000000000000D+00  5 1 -2 25 -24 21 0 0.13478200D+00 0.24226853D-02 0.13773004D+05 0.13773004D+05 0.13773004D+05 0.12520700D+01  1  2  2  2  5  2       -2 0.270720841608D+00 0.100000000000D+01
-.154553574408D-04 0.000000000000D+00 -.106834846690D-05 0.282985817361D-02 0.000000000000D+00  5 1 -2 25 -24 21 2 0.13478200D+00 0.24226853D-02 0.13773004D+05 0.13773004D+05 0.13773004D+05 0.12520700D+01  1  2  3  2  5  2       -2 -.235779486357D-01 0.100000000000D+01
0.192457204755D-04 0.000000000000D+00 0.000000000000D+00 0.282985817361D-02 0.000000000000D+00  5 1 -2 25 -24 21 2 0.13478200D+00 0.24226853D-02 0.13773004D+05 0.13773004D+05 0.13773004D+05 0.12520700D+01  1  2 15  2  5  2       -2 0.293603438527D-01 0.100000000000D+01
  </mgrwgt>
  </event>
  <event>
  5     66 0.47139866E-03 0.12160937E+03 0.75467711E-02 0.11493909E+00
        3 -1    0    0  502    0 0.00000000E+00 0.00000000E+00 0.73523733E+03 0.73523750E+03 0.50000000E+00 0.0000E+00 0.9000E+01
       -4 -1    0    0    0  501 0.00000000E+00 0.00000000E+00 -.63079658E+02 0.63098698E+02 0.15500000E+01 0.0000E+00 0.9000E+01
       25  1    1    2    0    0 -.88515463E+02 -.26930437E+01 0.29014245E+03 0.32810041E+03 0.12500000E+03 0.0000E+00 0.9000E+01
      -24  1    1    2    0    0 0.29862410E+01 -.90526549E+02 0.86683808E+02 0.14894721E+03 0.80419002E+02 0.0000E+00 0.9000E+01
       21  1    1    2  502  501 0.85529222E+02 0.93219593E+02 0.29533142E+03 0.32128858E+03 0.75000000E+00 0.0000E+00 0.9000E+01
#aMCatNLO 2  0  0  1  1 0.12651142D+03 0.00000000D+00  -5  5  0 0.00000000D+00 0.00000000D+00 0.00000000D+00 0.00000000D+00 0.00000000D+00
  <mgrwgt>
 0.2568230005D-02    1    2    0
 0.131881829687634D+03 0.000000000000000D+00 0.000000000000000D+00 0.131881829687634D+03
 0.131881829687634D+03 0.000000000000000D+00 0.000000000000000D+00 -.131881829687634D+03
 0.149241658686291D+03 -.407703623349796D+02 0.493450639062244D+02 0.505065828442251D+02
 0.114522000688977D+03 0.407703623349796D+02 -.493450639062244D+02 -.505065828442251D+02
 0.000000000000000D+00 0.000000000000000D+00 0.000000000000000D+00 0.000000000000000D+00
 0.251892025325861D+03 0.000000000000000D+00 0.000000000000000D+00 0.251892025325861D+03
 0.184149290267303D+03 0.000000000000000D+00 0.000000000000000D+00 -.184149290267303D+03
 0.161301440362471D+03 -.885154634389881D+02 -.269304374052739D+01 0.505065828442251D+02
 0.131233016390777D+03 0.298624099004589D+01 -.905265490936234D+02 -.505065828442251D+02
 0.143506858839916D+03 0.855292224489422D+02 0.932195928341507D+02 0.677427350585578D+02
0.156475875557D-03 0.000000000000D+00 0.000000000000D+00 0.225750484690D-02 0.143205551692D-05  5 3 -4 25 -24 21 2 0.11311437D+00 0.97059934D-02 0.40165434D+05 0.40165434D+05 0.40165434D+05 0.12018183D+01  1  2  1  1  5  1        3 0.256823000532D-02 0.100000000000D+01
  </mgrwgt>
  </event>
  <event>
  5     66 0.47139866E-03 0.10664192E+03 0.75467711E-02 0.11259617E+00
        1 -1    0    0  501    0 0.00000000E+00 0.00000000E+00 0.66693299E+03 0.66693307E+03 0.32000000E+00 0.0000E+00 0.9000E+01
       21 -1    0    0  502  501 0.00000000E+00 0.00000000E+00 -.19600412E+03 0.19600556E+03 0.75000000E+00 0.0000E+00 0.9000E+01
       25  1    1    2    0    0 -.93828826E+02 0.67495879E+02 -.86619869E+02 0.19101713E+03 0.12500000E+03 0.0000E+00 0.9000E+01
      -24  1    1    2    0    0 -.24205598E+02 0.70814976E+02 0.29941849E+02 0.11386133E+03 0.80419002E+02 0.0000E+00 0.9000E+01
        2  1    1    2  502    0 0.11803442E+03 -.13831086E+03 0.52760689E+03 0.55806016E+03 0.32000000E+00 0.0000E+00 0.9000E+01
#aMCatNLO 2  0  0  2  1 0.18182964D+03 0.00000000D+00  -5  5  0 0.00000000D+00 0.00000000D+00 0.00000000D+00 0.00000000D+00 0.00000000D+00
  <mgrwgt>
 0.4673078550D-01    1    2    0
 0.119034090042580D+03 0.000000000000000D+00 0.000000000000000D+00 0.119034090042580D+03
 0.119034090042580D+03 0.000000000000000D+00 0.000000000000000D+00 -.119034090042580D+03
 0.138267622307064D+03 -.243900292406042D+02 -.138713948751814D+02 -.520158269789885D+02
 0.998005577780973D+02 0.243900292406042D+02 0.138713948751814D+02 0.520158269789885D+02
 0.000000000000000D+00 0.000000000000000D+00 -.000000000000000D+00 0.000000000000000D+00
 0.804950914490068D+03 0.000000000000000D+00 0.000000000000000D+00 0.804950914490068D+03
 0.162397740835081D+03 0.000000000000000D+00 0.000000000000000D+00 -.162397740835081D+03
 0.178017382906616D+03 -.938288261988704D+02 0.674958793909287D+02 -.520158269789885D+02
 0.121546427496126D+03 -.242055984825540D+02 0.708149760184502D+02 0.520158269789885D+02
 0.667784844922408D+03 0.118034424681424D+03 -.138310855409379D+03 0.642553173654987D+03
0.943071859352D-04 0.000000000000D+00 0.000000000000D+00 0.234045513095D-02 0.126555753409D-06  5 1 21 25 -24 2 2 0.10260517D+00 0.30154590D-01 0.53345305D+05 0.53345305D+05 0.53345305D+05 0.11895063D+01  1  2  1  4  5  2       -2 0.467307854990D-01 0.100000000000D+01
  </mgrwgt>
  </event>
  <event>
  4     66 0.47139866E-03 0.15670145E+03 0.75467711E-02 0.10102511E+00
        1 -1    0    0  501    0 0.00000000E+00 0.00000000E+00 0.19330896E+03 0.19330923E+03 0.32000000E+00 0.0000E+00 0.9000E+01
       -2 -1    0    0    0  501 0.00000000E+00 0.00000000E+00 -.12978602E+03 0.12978642E+03 0.32000000E+00 0.0000E+00 0.9000E+01
       25  1    1    2    0    0 -.46091879E+02 0.10769510E+03 0.11201418E+02 0.17167751E+03 0.12500000E+03 0.0000E+00 0.9000E+01
      -24  1    1    2    0    0 0.46091879E+02 -.10769510E+03 0.52321520E+02 0.15141814E+03 0.80419002E+02 0.0000E+00 0.9000E+01
#aMCatNLO 1  0  0  1  1 0.46697606D+03 0.00000000D+00  -5  5  0 0.00000000D+00 0.00000000D+00 0.00000000D+00 0.00000000D+00 0.00000000D+00
  <mgrwgt>
 0.2321933585D+00    5    2    0
 0.158394786406377D+03 0.000000000000000D+00 0.000000000000000D+00 0.158394786406377D+03
 0.158394786406377D+03 0.000000000000000D+00 0.000000000000000D+00 -.158394786406377D+03
 0.172848835452749D+03 -.460918792256594D+02 0.107695096802496D+03 -.230005372006770D+02
 0.143940737360005D+03 0.460918792256594D+02 -.107695096802496D+03 0.230005372006770D+02
 0.000000000000000D+00 0.000000000000000D+00 -.000000000000000D+00 0.000000000000000D+00
 0.104081681074857D+04 0.000000000000000D+00 0.000000000000000D+00 0.104081681074857D+04
 0.354002576347602D+03 0.000000000000000D+00 0.000000000000000D+00 -.354002576347602D+03
 0.480423678317413D+03 -.195387247853840D+03 0.420091310732102D+03 -.230005372006770D+02
 0.838654970587764D+02 -.596972604083050D+01 0.124229707510025D+01 0.230005372006770D+02
 0.830530211719984D+03 0.201356973894670D+03 -.421333607807202D+03 0.686814234400969D+03
0.789650713068D-03 0.000000000000D+00 0.000000000000D+00 0.230245294768D-02 0.000000000000D+00  5 1 -2 25 -24 21 0 0.29739891D-01 0.19967131D-01 0.24555344D+05 0.24555344D+05 0.24555344D+05 0.12241341D+01  1  2  2  1  5  1        1 0.217811827283D+00 0.100000000000D+01
-.438633221812D-04 0.000000000000D+00 -.303246665799D-05 0.230245294768D-02 0.000000000000D+00  5 1 -2 25 -24 21 2 0.29739891D-01 0.19967131D-01 0.24555344D+05 0.24555344D+05 0.24555344D+05 0.12241341D+01  1  2  3  1  5  1        1 -.181303407813D-01 0.100000000000D+01
0.545132779927D-04 0.000000000000D+00 0.000000000000D+00 0.230245294768D-02 0.000000000000D+00  5 1 -2 25 -24 21 2 0.29739891D-01 0.19967131D-01 0.24555344D+05 0.24555344D+05 0.24555344D+05 0.12241341D+01  1  2 15  1  5  1        1 0.225323632129D-01 0.100000000000D+01
0.100984150138D-02 0.000000000000D+00 -.713499774362D-03 0.230245294768D-02 0.000000000000D+00  5 1 -2 25 -24 21 2 0.31993368D+00 0.19967131D-01 0.24555344D+05 0.24555344D+05 0.24555344D+05 0.12241341D+01  1  2  5  1  5  1        1 0.887027845255D-02 0.100000000000D+01
0.160527943683D-03 0.000000000000D+00 -.200037069823D-03 0.230245294768D-02 0.000000000000D+00  5 21 -2 25 -24 -1 2 0.31993368D+00 0.19967131D-01 0.24555344D+05 0.24555344D+05 0.24555344D+05 0.12241341D+01  1  2  5  3  5  1        1 0.110923036234D-02 0.100000000000D+01
  </mgrwgt>
  </event>
  <event>
  4     66 0.47139866E-03 0.12376399E+03 0.75467711E-02 0.11298118E+00
        1 -1    0    0  501    0 0.00000000E+00 0.00000000E+00 0.15207477E+04 0.15207478E+04 0.32000000E+00 0.0000E+00 0.9000E+01
       -2 -1    0    0    0  501 0.00000000E+00 0.00000000E+00 -.10398269E+02 0.10403192E+02 0.32000000E+00 0.0000E+00 0.9000E+01
       25  1    1    2    0    0 -.39525153E+02 0.55239247E+02 0.99904077E+03 0.10091190E+04 0.12500000E+03 0.0000E+00 0.9000E+01
      -24  1    1    2    0    0 0.39525153E+02 -.55239247E+02 0.51130870E+03 0.52203201E+03 0.80419002E+02 0.0000E+00 0.9000E+01
#aMCatNLO 1  0  0  1  2 0.15760707D+03 0.00000000D+00  -5  5  0 0.00000000D+00 0.00000000D+00 0.00000000D+00 0.00000000D+00 0.00000000D+00
  <mgrwgt>
 0.2073801515D+00    5    2    0
 0.125765409546831D+03 0.000000000000000D+00 0.000000000000000D+00 0.125765409546831D+03
 0.125765409546831D+03 0.000000000000000D+00 0.000000000000000D+00 -.125765409546831D+03
 0.143969508906558D+03 -.395251531476750D+02 0.552392472240392D+02 0.221044640190597D+02
 0.107561310187103D+03 0.395251531476750D+02 -.552392472240392D+02 -.221044640190597D+02
 0.000000000000000D+00 0.000000000000000D+00 0.000000000000000D+00 0.000000000000000D+00
 0.239706105934358D+03 0.000000000000000D+00 0.000000000000000D+00 0.239706105934358D+03
 0.216438668444838D+03 0.000000000000000D+00 0.000000000000000D+00 -.216438668444838D+03
 0.135382266521246D+03 -.398402384008578D+02 -.250500731141180D+02 0.221044640190597D+02
 0.161447215816453D+03 0.392217342079015D+02 -.132555783640959D+03 -.221044640190597D+02
 0.159315292041496D+03 0.618504192956379D+00 0.157605856755077D+03 0.232674374895195D+02
0.320563205692D-03 0.000000000000D+00 0.000000000000D+00 0.261074005132D-02 0.000000000000D+00  5 1 -2 25 -24 21 0 0.23396157D+00 0.16001149D-02 0.15317526D+05 0.15317526D+05 0.15317526D+05 0.12467868D+01  1  2  2  1  5  1        1 0.204638886686D+00 0.100000000000D+01
-.178034947124D-04 0.000000000000D+00 -.123104711609D-05 0.261074005132D-02 0.000000000000D+00  5 1 -2 25 -24 21 2 0.23396157D+00 0.16001149D-02 0.15317526D+05 0.15317526D+05 0.15317526D+05 0.12467868D+01  1  2  3  1  5  1        1 -.176670530166D-01 0.100000000000D+01
0.221943230111D-04 0.000000000000D+00 0.000000000000D+00 0.261074005132D-02 0.000000000000D+00  5 1 -2 25 -24 21 2 0.23396157D+00 0.16001149D-02 0.15317526D+05 0.15317526D+05 0.15317526D+05 0.12467868D+01  1  2 15  1  5  1        1 0.220242310647D-01 0.100000000000D+01
-.361369167070D-04 0.000000000000D+00 -.924242503119D-04 0.261074005132D-02 0.000000000000D+00  5 1 -2 25 -24 21 2 0.54332659D+00 0.16001149D-02 0.15317526D+05 0.15317526D+05 0.15317526D+05 0.12467868D+01  1  2  5  1  5  1        1 -.164927190160D-02 0.100000000000D+01
0.252594282338D-05 0.000000000000D+00 -.848415533501D-05 0.261074005132D-02 0.000000000000D+00  5 21 -2 25 -24 -1 2 0.54332659D+00 0.16001149D-02 0.15317526D+05 0.15317526D+05 0.15317526D+05 0.12467868D+01  1  2  5  3  5  1        1 0.333587129093D-04 0.100000000000D+01
  </mgrwgt>
  </event>
  <event>
  5     66 0.47139866E-03 0.15011798E+03 0.75467711E-02 0.10919709E+00
        1 -1    0    0  501    0 0.00000000E+00 0.00000000E+00 0.32354861E+04 0.32354862E+04 0.32000000E+00 0.0000E+00 0.9000E+01
       21 -1    0    0  502  501 0.00000000E+00 0.00000000E+00 -.33536380E+02 0.33544765E+02 0.75000000E+00 0.0000E+00 0.9000E+01
       25  1    1    2    0    0 -.18772844E+03 0.93642901E+02 0.22044155E+04 0.22179008E+04 0.12500000E+03 0.0000E+00 0.9000E+01
      -24  1    1    2    0    0 -.23811327E+02 -.82725938E+02 0.30648112E+03 0.32834197E+03 0.80419002E+02 0.0000E+00 0.9000E+01
        2  1    1    2  502    0 0.21153977E+03 -.10916963E+02 0.69105310E+03 0.72278817E+03 0.32000000E+00 0.0000E+00 0.9000E+01
#aMCatNLO 2  0  0  2  2 0.21182128D+03 0.00000000D+00  -5  5  0 0.00000000D+00 0.00000000D+00 0.00000000D+00 0.00000000D+00 0.00000000D+00
  <mgrwgt>
 0.2231097603D-01    1    2    0
 0.182949336305990D+03 0.000000000000000D+00 0.000000000000000D+00 0.182949336305990D+03
 0.182949336305990D+03 0.000000000000000D+00 0.000000000000000D+00 -.182949336305990D+03
 0.195463434786119D+03 -.640875282112863D+02 0.872621469676179D+02 0.104206817304613D+03
 0.170435237825862D+03 0.640875282112863D+02 -.872621469676179D+02 -.104206817304613D+03
 0.000000000000000D+00 0.000000000000000D+00 -.000000000000000D+00 -.000000000000000D+00
 0.270494333624205D+03 0.000000000000000D+00 0.000000000000000D+00 0.270494333624205D+03
 0.401191954870365D+03 0.000000000000000D+00 0.000000000000000D+00 -.401191954870365D+03
 0.265508986578367D+03 -.187728442703918D+03 0.936429013918095D+02 0.104206817304613D+03
 0.157279486478284D+03 -.238113271816858D+02 -.827259381185358D+02 -.104206817304613D+03
 0.248897815437920D+03 0.211539769885604D+03 -.109169632732737D+02 -.130697621246160D+03
0.117124914492D-03 0.000000000000D+00 0.000000000000D+00 0.154266558230D-02 0.627347246215D-07  5 1 21 25 -24 2 2 0.49776757D+00 0.51600876D-02 0.82320219D+05 0.82320219D+05 0.82320219D+05 0.11714142D+01  1  2  1  4  5  2       -2 0.223109760288D-01 0.100000000000D+01
  </mgrwgt>
  </event>
  <event>
  4     66 0.47139866E-03 0.16520920E+03 0.75467711E-02 0.10658512E+00
        1 -1    0    0  501    0 0.00000000E+00 0.00000000E+00 0.55251959E+03 0.55251968E+03 0.32000000E+00 0.0000E+00 0.9000E+01
       -2 -1    0    0    0  501 0.00000000E+00 0.00000000E+00 -.53140806E+02 0.53141770E+02 0.32000000E+00 0.0000E+00 0.9000E+01
       25  1    1    2    0    0 -.12648875E+03 0.20990639E+02 0.34925556E+03 0.39248498E+03 0.12500000E+03 0.0000E+00 0.9000E+01
      -24  1    1    2    0    0 0.12648875E+03 -.20990639E+02 0.15012322E+03 0.21317648E+03 0.80419002E+02 0.0000E+00 0.9000E+01
#aMCatNLO 1  0  0  1  2 0.26316312D+03 0.00000000D+00  -5  5  0 0.00000000D+00 0.00000000D+00 0.00000000D+00 0.00000000D+00 0.00000000D+00
  <mgrwgt>
 0.2197981430D+00    5    2    0
 0.171352433065093D+03 0.000000000000000D+00 0.000000000000000D+00 0.171352433065093D+03
 0.171352433065093D+03 0.000000000000000D+00 0.000000000000000D+00 -.171352433065093D+03
 0.184713468974853D+03 -.126488751900847D+03 0.209906392624159D+02 0.453216761235152D+02
 0.157991397155334D+03 0.126488751900847D+03 -.209906392624159D+02 -.453216761235152D+02
 0.000000000000000D+00 -.000000000000000D+00 0.000000000000000D+00 0.000000000000000D+00
 0.513670800670219D+03 0.000000000000000D+00 0.000000000000000D+00 0.513670800670219D+03
 0.274217515032986D+03 0.000000000000000D+00 0.000000000000000D+00 -.274217515032986D+03
 0.146701776372618D+03 -.381884975984991D+02 -.488261765388842D+02 0.453216761235152D+02
 0.285387857220171D+03 0.244620013100662D+03 -.114394090574372D+03 -.453216761235152D+02
 0.355798682110416D+03 -.206431515502163D+03 0.163220267113256D+03 0.239453285637233D+03
0.688488263909D-03 0.000000000000D+00 0.000000000000D+00 0.212512974287D-02 0.000000000000D+00  5 1 -2 25 -24 21 0 0.85003095D-01 0.81755899D-02 0.27294079D+05 0.27294079D+05 0.27294079D+05 0.12192308D+01  1  2  2  1  5  1        1 0.213828395288D+00 0.100000000000D+01
-.381873572121D-04 0.000000000000D+00 -.264397621653D-05 0.212512974287D-02 0.000000000000D+00  5 1 -2 25 -24 21 2 0.85003095D-01 0.81755899D-02 0.27294079D+05 0.27294079D+05 0.27294079D+05 0.12192308D+01  1  2  3  1  5  1        1 -.176303236376D-01 0.100000000000D+01
0.474870488308D-04 0.000000000000D+00 0.000000000000D+00 0.212512974287D-02 0.000000000000D+00  5 1 -2 25 -24 21 2 0.85003095D-01 0.81755899D-02 0.27294079D+05 0.27294079D+05 0.27294079D+05 0.12192308D+01  1  2 15  1  5  1        1 0.219238015040D-01 0.100000000000D+01
0.389780267234D-04 0.000000000000D+00 -.271155314280D-03 0.212512974287D-02 0.000000000000D+00  5 1 -2 25 -24 21 2 0.32470673D+00 0.81755899D-02 0.27294079D+05 0.27294079D+05 0.27294079D+05 0.12192308D+01  1  2  5  1  5  1        1 0.136978851553D-02 0.100000000000D+01
0.113668865291D-04 0.000000000000D+00 -.430978476735D-04 0.212512974287D-02 0.000000000000D+00  5 21 -2 25 -24 -1 2 0.32470673D+00 0.81755899D-02 0.27294079D+05 0.27294079D+05 0.27294079D+05 0.12192308D+01  1  2  5  3  5  1        1 0.306481320070D-03 0.100000000000D+01
  </mgrwgt>
  </event>
  <event>
  5     66 0.47139866E-03 0.10551887E+03 0.75467711E-02 0.12427373E+00
        3 -1    0    0  501    0 0.00000000E+00 0.00000000E+00 0.92172337E+03 0.92172351E+03 0.50000000E+00 0.0000E+00 0.9000E+01
       21 -1    0    0  502  501 0.00000000E+00 0.00000000E+00 -.17705537E+02 0.17721415E+02 0.75000000E+00 0.0000E+00 0.9000E+01
       25  1    1    2    0    0 -.18045313E+02 0.35558412E+02 0.41423950E+03 0.43452204E+03 0.12500000E+03 0.0000E+00 0.9000E+01
      -24  1    1    2    0    0 0.10772827E+02 -.89304599E+01 0.23753646E+03 0.25117045E+03 0.80419002E+02 0.0000E+00 0.9000E+01
        4  1    1    2  502    0 0.72724857E+01 -.26627952E+02 0.25224187E+03 0.25375244E+03 0.15500000E+01 0.0000E+00 0.9000E+01
#aMCatNLO 2  0  0  2  1 0.27603204D+02 0.00000000D+00  -5  5  0 0.00000000D+00 0.00000000D+00 0.00000000D+00 0.00000000D+00 0.00000000D+00
  <mgrwgt>
 0.6279187586D-02    1    2    0
 0.105593958746138D+03 0.000000000000000D+00 0.000000000000000D+00 0.105593958746138D+03
 0.105593958746138D+03 0.000000000000000D+00 0.000000000000000D+00 -.105593958746138D+03
 0.127275559081925D+03 -.136126203726919D+02 0.193282629734270D+02 0.389650569557070D+01
 0.839123584103505D+02 0.136126203726919D+02 -.193282629734270D+02 -.389650569557070D+01
 0.000000000000000D+00 0.000000000000000D+00 -.000000000000000D+00 0.000000000000000D+00
 0.146763422554847D+03 0.000000000000000D+00 0.000000000000000D+00 0.146763422554847D+03
 0.111222126678207D+03 0.000000000000000D+00 0.000000000000000D+00 -.111222126678207D+03
 0.131263920237407D+03 -.180453130401001D+02 0.355584121796997D+02 0.389650569557070D+01
 0.817202889981663D+02 0.107728273028517D+02 -.893045994563546D+01 -.389650569557070D+01
 0.450013399974817D+02 0.727248573724842D+01 -.266279522340642D+02 0.355412958766399D+02
0.285425188472D-05 0.000000000000D+00 0.000000000000D+00 0.313982258670D-02 0.407519142147D-06  5 3 21 25 -24 4 2 0.14178837D+00 0.27248443D-02 0.14452442D+05 0.14452442D+05 0.14452442D+05 0.12496679D+01  1  2  1  4  5  2       -4 0.627918758603D-02 0.100000000000D+01
  </mgrwgt>
  </event>
  <event>
  4     66 0.47139866E-03 0.88013018E+02 0.75467711E-02 0.11960908E+00
        1 -1    0    0  501    0 0.00000000E+00 0.00000000E+00 0.21556385E+04 0.21556385E+04 0.32000000E+00 0.0000E+00 0.9000E+01
       -2 -1    0    0    0  501 0.00000000E+00 0.00000000E+00 -.97100495E+01 0.97153210E+01 0.32000000E+00 0.0000E+00 0.9000E+01
       25  1    1    2    0    0 -.88245248E+02 -.44886476E+02 0.13281202E+04 0.13376585E+04 0.12500000E+03 0.0000E+00 0.9000E+01
      -24  1    1    2    0    0 0.88245248E+02 0.44886476E+02 0.81780829E+03 0.82769538E+03 0.80419002E+02 0.0000E+00 0.9000E+01
#aMCatNLO 1  0  0  1  2 0.19594146D+02 0.00000000D+00  -5  5  0 0.00000000D+00 0.00000000D+00 0.00000000D+00 0.00000000D+00 0.00000000D+00
  <mgrwgt>
 0.2445399631D+00    6    2    0
 0.144696543319329D+03 0.000000000000000D+00 0.000000000000000D+00 0.144696543319329D+03
 0.144696543319329D+03 0.000000000000000D+00 0.000000000000000D+00 -.144696543319329D+03
 0.160518939341291D+03 -.882452484796685D+02 -.448864758809986D+02 0.184203770590910D+02
 0.128874147297367D+03 0.882452484796685D+02 0.448864758809986D+02 -.184203770590910D+02
 0.000000000000000D+00 0.000000000000000D+00 0.000000000000000D+00 -.000000000000000D+00
 0.153934047648731D+03 0.000000000000000D+00 0.000000000000000D+00 0.153934047648731D+03
 0.155804873988661D+03 0.000000000000000D+00 0.000000000000000D+00 -.155804873988661D+03
 0.166778763753127D+03 -.945238344420433D+02 -.540008376823485D+02 0.184203770590910D+02
 0.123276901886633D+03 0.834082086140143D+02 0.378647465222991D+02 -.184203770590910D+02
 0.196832559976328D+02 0.111156258280291D+02 0.161360911600494D+02 -.187082633993058D+01
0.858321406980D-03 0.000000000000D+00 0.000000000000D+00 0.241886141037D-02 0.000000000000D+00  5 1 -2 25 -24 21 0 0.33163710D+00 0.14942611D-02 0.20593604D+05 0.20593604D+05 0.20593604D+05 0.12324301D+01  1  2  2  1  5  1        1 0.238936890119D+00 0.100000000000D+01
-.476805565595D-04 0.000000000000D+00 -.329618020402D-05 0.241886141037D-02 0.000000000000D+00  5 1 -2 25 -24 21 2 0.33163710D+00 0.14942611D-02 0.20593604D+05 0.20593604D+05 0.20593604D+05 0.12324301D+01  1  2  3  1  5  1        1 -.201604004218D-01 0.100000000000D+01
0.593555722137D-04 0.000000000000D+00 0.000000000000D+00 0.241886141037D-02 0.000000000000D+00  5 1 -2 25 -24 21 2 0.33163710D+00 0.14942611D-02 0.20593604D+05 0.20593604D+05 0.20593604D+05 0.12324301D+01  1  2 15  1  5  1        1 0.250968568624D-01 0.100000000000D+01
0.114631996415D-02 0.000000000000D+00 0.000000000000D+00 0.241886141037D-02 0.000000000000D+00  5 1 -2 25 -24 21 2 0.36468483D+00 0.14942611D-02 0.23599944D+05 0.23599944D+05 0.23599944D+05 0.12259902D+01  1  2 12  1  5  1        1 0.348836503248D+00 0.100000000000D+01
-.832002753201D-03 0.000000000000D+00 0.000000000000D+00 0.241886141037D-02 0.000000000000D+00  5 1 -2 25 -24 21 2 0.33163710D+00 0.14942611D-02 0.20593604D+05 0.20593604D+05 0.20593604D+05 0.12324301D+01  1  2  4  1  5  1        1 -.351789279885D+00 0.100000000000D+01
0.178078429717D-04 0.000000000000D+00 0.000000000000D+00 0.241886141037D-02 0.000000000000D+00  5 21 -2 25 -24 -1 2 0.36468483D+00 0.14942611D-02 0.23599944D+05 0.23599944D+05 0.23599944D+05 0.12259902D+01  1  2 12  3  5  1        1 0.361939322091D-02 0.100000000000D+01
  </mgrwgt>
  </event>
  <event>
  4     66 0.47139866E-03 0.24664459E+03 0.75467711E-02 0.95900161E-01
        1 -1    0    0  501    0 0.00000000E+00 0.00000000E+00 0.18413471E+04 0.18413472E+04 0.32000000E+00 0.0000E+00 0.9000E+01
       -2 -1    0    0    0  501 0.00000000E+00 0.00000000E+00 -.33060658E+02 0.33062207E+02 0.32000000E+00 0.0000E+00 0.9000E+01
       25  1    1    2    0    0 0.15196531E+03 -.16364643E+03 0.96334403E+03 0.99675992E+03 0.12500000E+03 0.0000E+00 0.9000E+01
      -24  1    1    2    0    0 -.15196531E+03 0.16364643E+03 0.84494245E+03 0.87764946E+03 0.80419002E+02 0.0000E+00 0.9000E+01
#aMCatNLO 1  0  0  1  2 0.70161093D+03 0.00000000D+00  -5  5  0 0.00000000D+00 0.00000000D+00 0.00000000D+00 0.00000000D+00 0.00000000D+00
  <mgrwgt>
 0.4163251124D+00    3    2    0
 0.246733917729196D+03 0.000000000000000D+00 0.000000000000000D+00 0.246733917729196D+03
 0.246733917729196D+03 0.000000000000000D+00 0.000000000000000D+00 -.246733917729196D+03
 0.256012925789693D+03 0.151965310171237D+03 -.163646431333643D+03 0.663386672475537D+01
 0.237454909668698D+03 -.151965310171237D+03 0.163646431333643D+03 -.663386672475537D+01
 0.000000000000000D+00 -.000000000000000D+00 0.000000000000000D+00 -.000000000000000D+00
 0.576838640234074D+03 0.000000000000000D+00 0.000000000000000D+00 0.576838640234074D+03
 0.126066036730141D+04 0.000000000000000D+00 0.000000000000000D+00 -.126066036730141D+04
 0.699083307901530D+03 0.639947228562979D+03 -.252023823979770D+03 0.663386672475537D+01
 0.158686122174109D+03 0.504327873746403D+02 0.126990531876152D+03 -.663386672475537D+01
 0.979729577459850D+03 -.690380015937620D+03 0.125033292103617D+03 -.683821727067340D+03
0.568345160375D-02 0.000000000000D+00 0.000000000000D+00 0.206508748972D-02 0.000000000000D+00  5 1 -2 25 -24 21 0 0.28328430D+00 0.50863764D-02 0.60833556D+05 0.60833556D+05 0.60833556D+05 0.11839375D+01  1  2  2  1  5  1        1 0.408669826240D+00 0.100000000000D+01
-.315747260986D-03 0.000000000000D+00 -.218259506456D-04 0.206508748972D-02 0.000000000000D+00  5 1 -2 25 -24 21 2 0.28328430D+00 0.50863764D-02 0.60833556D+05 0.60833556D+05 0.60833556D+05 0.11839375D+01  1  2  3  1  5  1        1 -.318242067901D-01 0.100000000000D+01
0.391699999045D-03 0.000000000000D+00 0.000000000000D+00 0.206508748972D-02 0.000000000000D+00  5 1 -2 25 -24 21 2 0.28328430D+00 0.50863764D-02 0.60833556D+05 0.60833556D+05 0.60833556D+05 0.11839375D+01  1  2 15  1  5  1        1 0.394794929666D-01 0.100000000000D+01
  </mgrwgt>
  </event>
  <event>
  4     66 0.47139866E-03 0.10439553E+03 0.75467711E-02 0.10562066E+00
        1 -1    0    0  501    0 0.00000000E+00 0.00000000E+00 0.90736777E+02 0.90737341E+02 0.32000000E+00 0.0000E+00 0.9000E+01
       -2 -1    0    0    0  501 0.00000000E+00 0.00000000E+00 -.12775624E+03 0.12775664E+03 0.32000000E+00 0.0000E+00 0.9000E+01
       25  1    1    2    0    0 -.11072379E+02 -.14514383E+02 0.40021393E+01 0.12638941E+03 0.12500000E+03 0.0000E+00 0.9000E+01
      -24  1    1    2    0    0 0.11072379E+02 0.14514383E+02 -.41021600E+02 0.92104574E+02 0.80419002E+02 0.0000E+00 0.9000E+01
#aMCatNLO 1  0  0  2  2 0.33622436D+03 0.00000000D+00  -5  5  0 0.00000000D+00 0.00000000D+00 0.00000000D+00 0.00000000D+00 0.00000000D+00
  <mgrwgt>
 0.2308143627D+00    5    2    0
 0.107667519277529D+03 0.000000000000000D+00 0.000000000000000D+00 0.107667519277529D+03
 0.107667519277529D+03 0.000000000000000D+00 0.000000000000000D+00 -.107667519277529D+03
 0.128931555328234D+03 -.110723793540095D+02 -.145143826335863D+02 0.257891657787567D+02
 0.864034832268235D+02 0.110723793540095D+02 0.145143826335863D+02 -.257891657787567D+02
 0.000000000000000D+00 -.000000000000000D+00 -.000000000000000D+00 -.000000000000000D+00
 0.280958125474513D+03 0.000000000000000D+00 0.000000000000000D+00 0.280958125474513D+03
 0.547156816869331D+03 0.000000000000000D+00 0.000000000000000D+00 -.547156816869331D+03
 0.211452119770808D+03 0.615284035105454D+02 0.156959145784651D+03 0.257891657787567D+02
 0.187817208343652D+03 0.695611916623065D+02 0.152657287210889D+03 -.257891657787567D+02
 0.428845614229384D+03 -.131089595172852D+03 -.309616432995540D+03 -.266198691394818D+03
0.298988401251D-03 0.000000000000D+00 0.000000000000D+00 0.293150112196D-02 0.000000000000D+00  5 1 -2 25 -24 21 0 0.13959578D-01 0.19654880D-01 0.10898426D+05 0.10898426D+05 0.10898426D+05 0.12639548D+01  1  2  2  2  5  2       -2 0.215215137672D+00 0.100000000000D+01
-.165912319754D-04 0.000000000000D+00 -.114819418626D-05 0.293150112196D-02 0.000000000000D+00  5 1 -2 25 -24 21 2 0.13959578D-01 0.19654880D-01 0.10898426D+05 0.10898426D+05 0.10898426D+05 0.12639548D+01  1  2  3  2  5  2       -2 -.190792016109D-01 0.100000000000D+01
0.205266220465D-04 0.000000000000D+00 0.000000000000D+00 0.293150112196D-02 0.000000000000D+00  5 1 -2 25 -24 21 2 0.13959578D-01 0.19654880D-01 0.10898426D+05 0.10898426D+05 0.10898426D+05 0.12639548D+01  1  2 15  2  5  2       -2 0.236047305586D-01 0.100000000000D+01
0.451602879210D-03 0.000000000000D+00 -.209459547584D-03 0.293150112196D-02 0.000000000000D+00  5 1 -2 25 -24 21 2 0.13959578D-01 0.21176948D+00 0.10898426D+05 0.10898426D+05 0.10898426D+05 0.12639548D+01  1  2  5  2  5  2       -2 0.326396798996D-02 0.100000000000D+01
0.906287146456D-04 0.000000000000D+00 -.587515694546D-04 0.293150112196D-02 0.000000000000D+00  5 1 21 25 -24 2 2 0.13959578D-01 0.21176948D+00 0.10898426D+05 0.10898426D+05 0.10898426D+05 0.12639548D+01  1  2  5  4  5  2       -2 0.780972808111D-02 0.100000000000D+01
  </mgrwgt>
  </event>
  <event>
  4     66 0.47139866E-03 0.92272789E+02 0.75467711E-02 0.12008212E+00
        1 -1    0    0  501    0 0.00000000E+00 0.00000000E+00 0.67341196E+02 0.67341957E+02 0.32000000E+00 0.0000E+00 0.9000E+01
       -2 -1    0    0    0  501 0.00000000E+00 0.00000000E+00 -.28241995E+03 0.28242013E+03 0.32000000E+00 0.0000E+00 0.9000E+01
       25  1    1    2    0    0 -.80429964E+02 0.25607279E+02 -.16298870E+03 0.22206987E+03 0.12500000E+03 0.0000E+00 0.9000E+01
      -24  1    1    2    0    0 0.80429964E+02 -.25607279E+02 -.52090049E+02 0.12769221E+03 0.80419002E+02 0.0000E+00 0.9000E+01
#aMCatNLO 1  0  0  2  1 0.30230890D+02 0.00000000D+00  -5  5  0 0.00000000D+00 0.00000000D+00 0.00000000D+00 0.00000000D+00 0.00000000D+00
  <mgrwgt>
 0.2150007980D+00    9    2    0
 0.137908164726643D+03 0.000000000000000D+00 0.000000000000000D+00 0.137908164726643D+03
 0.137908164726643D+03 0.000000000000000D+00 0.000000000000000D+00 -.137908164726643D+03
 0.154509400889458D+03 -.804299637576000D+02 0.256072793940983D+02 -.335178032574179D+02
 0.121306928563828D+03 0.804299637576000D+02 -.256072793940983D+02 0.335178032574179D+02
 0.000000000000000D+00 -.000000000000000D+00 -.000000000000000D+00 -.000000000000000D+00
 0.151533040172688D+03 0.000000000000000D+00 0.000000000000000D+00 0.151533040172688D+03
 0.156585215043639D+03 0.000000000000000D+00 0.000000000000000D+00 -.156585215043639D+03
 0.148650473037016D+03 -.654390367258719D+02 0.326535215760225D+02 -.335178032574179D+02
 0.128817640950035D+03 0.927983524953989D+02 -.197937188142715D+02 0.335178032574179D+02
 0.306501412292748D+02 -.273593157695271D+02 -.128598027617510D+02 -.505217487095052D+01
0.506877258988D-03 0.000000000000D+00 0.000000000000D+00 0.238945979959D-02 0.000000000000D+00  5 1 -2 25 -24 21 0 0.10360257D-01 0.43449295D-01 0.17877629D+05 0.17877629D+05 0.17877629D+05 0.12392260D+01  1  2  2  2  5  2       -2 0.132588990227D+00 0.100000000000D+01
-.281270819782D-04 0.000000000000D+00 -.194654213836D-05 0.238945979959D-02 0.000000000000D+00  5 1 -2 25 -24 21 2 0.10360257D-01 0.43449295D-01 0.17877629D+05 0.17877629D+05 0.17877629D+05 0.12392260D+01  1  2  3  2  5  2       -2 -.112987497560D-01 0.100000000000D+01
0.350937283378D-04 0.000000000000D+00 0.000000000000D+00 0.238945979959D-02 0.000000000000D+00  5 1 -2 25 -24 21 2 0.10360257D-01 0.43449295D-01 0.17877629D+05 0.17877629D+05 0.17877629D+05 0.12392260D+01  1  2 15  2  5  2       -2 0.140972765964D-01 0.100000000000D+01
0.422877820461D-03 0.000000000000D+00 0.000000000000D+00 0.238945979959D-02 0.000000000000D+00  5 1 -2 25 -24 21 2 0.10360257D-01 0.51231353D-01 0.22415164D+05 0.22415164D+05 0.22415164D+05 0.12284122D+01  1  2 12  2  5  2       -2 0.121678480054D+00 0.100000000000D+01
-.379582167004D-03 0.000000000000D+00 0.000000000000D+00 0.238945979959D-02 0.000000000000D+00  5 1 -2 25 -24 21 2 0.10360257D-01 0.43449295D-01 0.17877629D+05 0.17877629D+05 0.17877629D+05 0.12392260D+01  1  2  4  2  5  2       -2 -.152479518500D+00 0.100000000000D+01
-.108909325698D-02 0.000000000000D+00 -.310737621697D-03 0.238945979959D-02 0.000000000000D+00  5 1 -2 25 -24 21 2 0.10360257D-01 0.53662779D-01 0.17877629D+05 0.17877629D+05 0.17877629D+05 0.12392260D+01  1  2  5  2  5  2       -2 -.289032958466D+00 0.100000000000D+01
0.113608284586D-02 0.000000000000D+00 0.303938578957D-03 0.238945979959D-02 0.000000000000D+00  5 1 -2 25 -24 21 2 0.10360257D-01 0.43449295D-01 0.17877629D+05 0.17877629D+05 0.17877629D+05 0.12392260D+01  1  2  6  2  5  2       -2 0.456368555669D+00 0.100000000000D+01
0.104008003577D-04 0.000000000000D+00 0.000000000000D+00 0.238945979959D-02 0.000000000000D+00  5 1 21 25 -24 2 2 0.10360257D-01 0.51231353D-01 0.22415164D+05 0.22415164D+05 0.22415164D+05 0.12284122D+01  1  2 12  4  5  2       -2 0.370354305831D-01 0.100000000000D+01
-.285548170651D-04 0.000000000000D+00 -.926734676910D-05 0.238945979959D-02 0.000000000000D+00  5 1 21 25 -24 2 2 0.10360257D-01 0.53662779D-01 0.17877629D+05 0.17877629D+05 0.17877629D+05 0.12392260D+01  1  2  5  4  5  2       -2 -.939567084264D-01 0.100000000000D+01
  </mgrwgt>
  </event>
  <event>
  4     66 0.47139866E-03 0.12042523E+03 0.75467711E-02 0.12245604E+00
        1 -1    0    0  501    0 0.00000000E+00 0.00000000E+00 0.96973067E+03 0.96973073E+03 0.32000000E+00 0.0000E+00 0.9000E+01
       -2 -1    0    0    0  501 0.00000000E+00 0.00000000E+00 -.17139295E+02 0.17142282E+02 0.32000000E+00 0.0000E+00 0.9000E+01
       25  1    1    2    0    0 0.58514385E+02 -.19840012E+02 0.36761387E+03 0.39316983E+03 0.12500000E+03 0.0000E+00 0.9000E+01
      -24  1    1    2    0    0 -.58514385E+02 0.19840012E+02 0.58497751E+03 0.59370318E+03 0.80419002E+02 0.0000E+00 0.9000E+01
#aMCatNLO 1  0  0  2  1 0.22147641D+02 0.00000000D+00  -5  5  0 0.00000000D+00 0.00000000D+00 0.00000000D+00 0.00000000D+00 0.00000000D+00
  <mgrwgt>
 0.2069235448D+00    4    2    0
 0.128926334439362D+03 0.000000000000000D+00 0.000000000000000D+00 0.128926334439362D+03
 0.128926334439362D+03 0.000000000000000D+00 0.000000000000000D+00 -.128926334439362D+03
 0.146684118536483D+03 0.585143849082664D+02 -.198400124288112D+02 -.455375811441134D+02
 0.111168550342241D+03 -.585143849082664D+02 0.198400124288112D+02 0.455375811441134D+02
 0.000000000000000D+00 0.000000000000000D+00 0.000000000000000D+00 0.000000000000000D+00
 0.170022378866109D+03 0.000000000000000D+00 0.000000000000000D+00 0.170022378866109D+03
 0.132419884518715D+03 0.000000000000000D+00 0.000000000000000D+00 -.132419884518715D+03
 0.148813270033973D+03 0.582255372705459D+02 -.325039205528161D+02 -.455375811441134D+02
 0.109988810396307D+03 -.587305654353528D+02 0.103620386609564D+02 0.455375811441134D+02
 0.436401829545440D+02 0.505028164806892D+00 0.221418818918597D+02 0.376024943473934D+02
0.311507639132D-03 0.000000000000D+00 0.000000000000D+00 0.234565511020D-02 0.000000000000D+00  5 1 -2 25 -24 21 0 0.14918957D+00 0.26370484D-02 0.14502236D+05 0.14502236D+05 0.14502236D+05 0.12494968D+01  1  2  2  2  5  2       -2 0.227992719956D+00 0.100000000000D+01
-.172080758406D-04 0.000000000000D+00 -.119627135611D-05 0.234565511020D-02 0.000000000000D+00  5 1 -2 25 -24 21 2 0.14918957D+00 0.26370484D-02 0.14502236D+05 0.14502236D+05 0.14502236D+05 0.12494968D+01  1  2  3  2  5  2       -2 -.196632323232D-01 0.100000000000D+01
0.215312938824D-04 0.000000000000D+00 0.000000000000D+00 0.234565511020D-02 0.000000000000D+00  5 1 -2 25 -24 21 2 0.14918957D+00 0.26370484D-02 0.14502236D+05 0.14502236D+05 0.14502236D+05 0.12494968D+01  1  2 15  2  5  2       -2 0.246032640576D-01 0.100000000000D+01
-.227616902926D-04 0.000000000000D+00 0.000000000000D+00 0.234565511020D-02 0.000000000000D+00  5 1 -2 25 -24 21 2 0.14918957D+00 0.26370484D-02 0.14502236D+05 0.14502236D+05 0.14502236D+05 0.12494968D+01  1  2  4  2  5  2       -2 -.260092068653D-01 0.100000000000D+01
  </mgrwgt>
  </event>
  <event>
  4     66 0.47139866E-03 0.49886696E+02 0.75467711E-02 0.12092450E+00
        1 -1    0    0  501    0 0.00000000E+00 0.00000000E+00 0.82703150E+03 0.82703157E+03 0.32000000E+00 0.0000E+00 0.9000E+01
       -2 -1    0    0    0  501 0.00000000E+00 0.00000000E+00 -.24390507E+02 0.24392606E+02 0.32000000E+00 0.0000E+00 0.9000E+01
       25  1    1    2    0    0 0.53559922E+02 -.25826515E-01 0.68884871E+03 0.70214401E+03 0.12500000E+03 0.0000E+00 0.9000E+01
      -24  1    1    2    0    0 -.53559922E+02 0.25826515E-01 0.11379229E+03 0.14928016E+03 0.80419002E+02 0.0000E+00 0.9000E+01
#aMCatNLO 1  0  0  1  2 0.48256017D+02 0.00000000D+00  -5  5  0 0.00000000D+00 0.00000000D+00 0.00000000D+00 0.00000000D+00 0.00000000D+00
  <mgrwgt>
 0.2044816379D+00    9    2    0
 0.142030410168250D+03 0.000000000000000D+00 0.000000000000000D+00 0.142030410168250D+03
 0.142030410168250D+03 0.000000000000000D+00 0.000000000000000D+00 -.142030410168250D+03
 0.158149817333908D+03 0.535599220545835D+02 -.258265153436723D-01 0.807322661966476D+02
 0.125911003002592D+03 -.535599220545835D+02 0.258265153436723D-01 -.807322661966476D+02
 0.000000000000000D+00 0.000000000000000D+00 0.000000000000000D+00 0.000000000000000D+00
 0.202186794207356D+03 0.000000000000000D+00 0.000000000000000D+00 0.202186794207356D+03
 0.154081522902385D+03 0.000000000000000D+00 0.000000000000000D+00 -.154081522902385D+03
 0.157777312959013D+03 0.458218941015503D+02 -.255212793618615D+02 0.807322661966476D+02
 0.130353200532436D+03 -.598366212683461D+02 -.206548029431646D+02 -.807322661966476D+02
 0.681378036182936D+02 0.140147271667958D+02 0.461760823050261D+02 0.481052713049711D+02
0.315483046535D-03 0.000000000000D+00 0.000000000000D+00 0.175607431184D-02 0.000000000000D+00  5 1 -2 25 -24 21 0 0.12723578D+00 0.37525519D-02 0.13527293D+05 0.13527293D+05 0.13527293D+05 0.12529716D+01  1  2  2  1  5  1        1 0.176668862994D+00 0.100000000000D+01
-.166760613011D-04 0.000000000000D+00 -.121153796729D-05 0.175607431184D-02 0.000000000000D+00  5 1 -2 25 -24 21 2 0.12723578D+00 0.37525519D-02 0.13527293D+05 0.13527293D+05 0.13527293D+05 0.12529716D+01  1  2  3  1  5  1        1 -.146608769408D-01 0.100000000000D+01
0.216329358162D-04 0.000000000000D+00 0.000000000000D+00 0.175607431184D-02 0.000000000000D+00  5 1 -2 25 -24 21 2 0.12723578D+00 0.37525519D-02 0.13527293D+05 0.13527293D+05 0.13527293D+05 0.12529716D+01  1  2 15  1  5  1        1 0.190187481410D-01 0.100000000000D+01
0.312903331911D-03 0.000000000000D+00 0.000000000000D+00 0.175607431184D-02 0.000000000000D+00  5 1 -2 25 -24 21 2 0.18474092D+00 0.37525519D-02 0.20471583D+05 0.20471583D+05 0.20471583D+05 0.12327133D+01  1  2 12  1  5  1        1 0.142980451931D+00 0.100000000000D+01
-.394095265862D-03 0.000000000000D+00 0.000000000000D+00 0.175607431184D-02 0.000000000000D+00  5 1 -2 25 -24 21 2 0.12723578D+00 0.37525519D-02 0.13527293D+05 0.13527293D+05 0.13527293D+05 0.12529716D+01  1  2  4  1  5  1        1 -.346471633286D+00 0.100000000000D+01
-.480130710330D-03 0.000000000000D+00 -.141695702998D-03 0.175607431184D-02 0.000000000000D+00  5 1 -2 25 -24 21 2 0.18891281D+00 0.37525519D-02 0.13527293D+05 0.13527293D+05 0.13527293D+05 0.12529716D+01  1  2  5  1  5  1        1 -.216192352454D+00 0.100000000000D+01
0.506449538473D-03 0.000000000000D+00 0.131305387110D-03 0.175607431184D-02 0.000000000000D+00  5 1 -2 25 -24 21 2 0.12723578D+00 0.37525519D-02 0.13527293D+05 0.13527293D+05 0.13527293D+05 0.12529716D+01  1  2  6  1  5  1        1 0.445248684699D+00 0.100000000000D+01
0.141514534201D-04 0.000000000000D+00 0.000000000000D+00 0.175607431184D-02 0.000000000000D+00  5 21 -2 25 -24 -1 2 0.18474092D+00 0.37525519D-02 0.20471583D+05 0.20471583D+05 0.20471583D+05 0.12327133D+01  1  2 12  3  5  1        1 0.868529670309D-02 0.100000000000D+01
-.178963027022D-04 0.000000000000D+00 -.668579629586D-05 0.175607431184D-02 0.000000000000D+00  5 21 -2 25 -24 -1 2 0.18891281D+00 0.37525519D-02 0.13527293D+05 0.13527293D+05 0.13527293D+05 0.12529716D+01  1  2  5  3  5  1        1 -.107955438567D-01 0.100000000000D+01
  </mgrwgt>
  </event>
  <event>
  4     66 0.47139866E-03 0.12976381E+03 0.75467711E-02 0.12234754E+00
        3 -1    0    0  501    0 0.00000000E+00 0.00000000E+00 0.50610574E+02 0.50613043E+02 0.50000000E+00 0.0000E+00 0.9000E+01
       -4 -1    0    0    0  501 0.00000000E+00 0.00000000E+00 -.49305860E+03 0.49306104E+03 0.15500000E+01 0.0000E+00 0.9000E+01
       25  1    1    2    0    0 0.44115963E+02 -.64479459E+02 -.39557968E+03 0.42215175E+03 0.12500000E+03 0.0000E+00 0.9000E+01
      -24  1    1    2    0    0 -.44115963E+02 0.64479459E+02 -.46868351E+02 0.12152233E+03 0.80419002E+02 0.0000E+00 0.9000E+01
#aMCatNLO 1  0  0  2  2 0.59644939D+01 0.00000000D+00  -5  5  0 0.00000000D+00 0.00000000D+00 0.00000000D+00 0.00000000D+00 0.00000000D+00
  <mgrwgt>
 0.3128839796D-01    6    2    0
 0.157972505252890D+03 0.000000000000000D+00 0.000000000000000D+00 0.157972505252890D+03
 0.157972505252890D+03 0.000000000000000D+00 0.000000000000000D+00 -.157972505252890D+03
 0.172465191861502D+03 0.441159631279675D+02 -.644794592863253D+02 -.895288977440220D+02
 0.143479818644279D+03 -.441159631279675D+02 0.644794592863253D+02 0.895288977440220D+02
 0.000000000000000D+00 0.000000000000000D+00 0.000000000000000D+00 0.000000000000000D+00
 0.166850149996847D+03 0.000000000000000D+00 0.000000000000000D+00 0.166850149996847D+03
 0.159005658459098D+03 0.000000000000000D+00 0.000000000000000D+00 -.159005658459098D+03
 0.173564565008215D+03 0.435944238792753D+02 -.677034777678782D+02 -.895288977440220D+02
 0.142436740133983D+03 -.445468992087336D+02 0.618155257621624D+02 0.895288977440220D+02
 0.985450331374705D+01 0.952475329458340D+00 0.588795200571580D+01 0.784449153774878D+01
0.116626880181D-02 0.000000000000D+00 0.000000000000D+00 0.165441156290D-02 0.000000000000D+00  5 3 -4 25 -24 21 0 0.77866195D-02 0.75855547D-01 0.16838645D+05 0.16838645D+05 0.16838645D+05 0.12421382D+01  1  2  2  2  5  2       -4 0.404941927086D-01 0.100000000000D+01
-.617445436513D-04 0.000000000000D+00 -.447877928457D-05 0.165441156290D-02 0.000000000000D+00  5 3 -4 25 -24 21 2 0.77866195D-02 0.75855547D-01 0.16838645D+05 0.16838645D+05 0.16838645D+05 0.12421382D+01  1  2  3  2  5  2       -4 -.330774865232D-02 0.100000000000D+01
0.800509818933D-04 0.000000000000D+00 0.000000000000D+00 0.165441156290D-02 0.000000000000D+00  5 3 -4 25 -24 21 2 0.77866195D-02 0.75855547D-01 0.16838645D+05 0.16838645D+05 0.16838645D+05 0.12421382D+01  1  2 15  2  5  2       -4 0.428845225531D-02 0.100000000000D+01
-.366775703371D-03 0.000000000000D+00 0.000000000000D+00 0.165441156290D-02 0.000000000000D+00  5 3 -4 25 -24 21 2 0.77866195D-02 0.75855547D-01 0.16838645D+05 0.16838645D+05 0.16838645D+05 0.12421382D+01  1  2  4  2  5  2       -4 -.196487295360D-01 0.100000000000D+01
0.111639012304D-03 0.000000000000D+00 0.000000000000D+00 0.165441156290D-02 0.381757362045D-03  5 3 -4 25 -24 21 2 0.82242073D-02 0.76351649D-01 0.17614454D+05 0.17614454D+05 0.17614454D+05 0.12399454D+01  1  2 11  2  5  2       -4 0.539598374312D-02 0.100000000000D+01
0.348642662096D-05 0.000000000000D+00 0.000000000000D+00 0.165441156290D-02 0.471074487979D-06  5 3 21 25 -24 4 2 0.82242073D-02 0.76351649D-01 0.17614454D+05 0.17614454D+05 0.17614454D+05 0.12399454D+01  1  2 11  4  5  2       -4 0.406624744107D-02 0.100000000000D+01
  </mgrwgt>
  </event>
  <event>
  4     66 0.47139866E-03 0.90210195E+02 0.75467711E-02 0.12114522E+00
        1 -1    0    0  501    0 0.00000000E+00 0.00000000E+00 0.22159923E+04 0.22159923E+04 0.32000000E+00 0.0000E+00 0.9000E+01
       -2 -1    0    0    0  501 0.00000000E+00 0.00000000E+00 -.87750188E+01 0.87808516E+01 0.32000000E+00 0.0000E+00 0.9000E+01
       25  1    1    2    0    0 0.19869785E+02 -.87202450E+02 0.10261043E+04 0.10375520E+04 0.12500000E+03 0.0000E+00 0.9000E+01
      -24  1    1    2    0    0 -.19869785E+02 0.87202450E+02 0.11811130E+04 0.11872212E+04 0.80419002E+02 0.0000E+00 0.9000E+01
#aMCatNLO 1  0  0  1  2 0.87188825D+01 0.00000000D+00  -5  5  0 0.00000000D+00 0.00000000D+00 0.00000000D+00 0.00000000D+00 0.00000000D+00
  <mgrwgt>
 0.8201026300D+00   11    2    0
 0.139470025745757D+03 0.000000000000000D+00 0.000000000000000D+00 0.139470025745757D+03
 0.139470025745757D+03 0.000000000000000D+00 0.000000000000000D+00 -.139470025745757D+03
 0.155885352258859D+03 0.198697852272928D+02 -.872024502709046D+02 -.260032180823881D+02
 0.123054699232655D+03 -.198697852272928D+02 0.872024502709046D+02 0.260032180823881D+02
 0.000000000000000D+00 -.000000000000000D+00 0.000000000000000D+00 0.000000000000000D+00
 0.146931398976913D+03 0.000000000000000D+00 0.000000000000000D+00 0.146931398976913D+03
 0.142108689526995D+03 0.000000000000000D+00 0.000000000000000D+00 -.142108689526995D+03
 0.158728631609933D+03 0.216324744436178D+02 -.917913241628420D+02 -.260032180823881D+02
 0.120347650502082D+03 -.185060737614842D+02 0.836522498818470D+02 0.260032180823881D+02
 0.996380639189304D+01 -.312640068213355D+01 0.813907428099492D+01 0.482270944991821D+01
0.764366349274D-03 0.000000000000D+00 0.000000000000D+00 0.242801953761D-02 0.000000000000D+00  5 1 -2 25 -24 21 0 0.34092234D+00 0.13504533D-02 0.18765870D+05 0.18765870D+05 0.18765870D+05 0.12368830D+01  1  2  2  1  5  1        1 0.225169174423D+00 0.100000000000D+01
-.424481575201D-04 0.000000000000D+00 -.293536804349D-05 0.242801953761D-02 0.000000000000D+00  5 1 -2 25 -24 21 2 0.34092234D+00 0.13504533D-02 0.18765870D+05 0.18765870D+05 0.18765870D+05 0.12368830D+01  1  2  3  1  5  1        1 -.191303735324D-01 0.100000000000D+01
0.528803392182D-04 0.000000000000D+00 0.000000000000D+00 0.242801953761D-02 0.000000000000D+00  5 1 -2 25 -24 21 2 0.34092234D+00 0.13504533D-02 0.18765870D+05 0.18765870D+05 0.18765870D+05 0.12368830D+01  1  2 15  1  5  1        1 0.238319093422D-01 0.100000000000D+01
0.242285310778D-02 0.000000000000D+00 0.000000000000D+00 0.242801953761D-02 0.000000000000D+00  5 1 -2 25 -24 21 2 0.36226555D+00 0.13504533D-02 0.19995081D+05 0.19995081D+05 0.19995081D+05 0.12338378D+01  1  2 12  1  5  1        1 0.884894716952D+00 0.100000000000D+01
-.237380209128D-02 0.000000000000D+00 0.000000000000D+00 0.242801953761D-02 0.000000000000D+00  5 1 -2 25 -24 21 2 0.34092234D+00 0.13504533D-02 0.18765870D+05 0.18765870D+05 0.18765870D+05 0.12368830D+01  1  2  4  1  5  1        1 -.106981606154D+01 0.100000000000D+01
-.928869480987D-02 0.000000000000D+00 -.136413345212D-02 0.242801953761D-02 0.000000000000D+00  5 1 -2 25 -24 21 2 0.36175941D+00 0.13504533D-02 0.18765870D+05 0.18765870D+05 0.18765870D+05 0.12368830D+01  1  2  5  1  5  1        1 -.342581787308D+01 0.100000000000D+01
0.935555065280D-02 0.000000000000D+00 0.136173649191D-02 0.242801953761D-02 0.000000000000D+00  5 1 -2 25 -24 21 2 0.34092234D+00 0.13504533D-02 0.18765870D+05 0.18765870D+05 0.18765870D+05 0.12368830D+01  1  2  6  1  5  1        1 0.421632384171D+01 0.100000000000D+01
0.170071138082D-05 0.000000000000D+00 0.000000000000D+00 0.242801953761D-02 0.259577316080D-03  5 1 -2 25 -24 21 2 0.35916102D+00 0.13760029D-02 0.19995081D+05 0.19995081D+05 0.19995081D+05 0.12338378D+01  1  2 11  1  5  1        1 0.623017834409D-03 0.100000000000D+01
0.306237892416D-04 0.000000000000D+00 0.000000000000D+00 0.242801953761D-02 0.000000000000D+00  5 21 -2 25 -24 -1 2 0.36226555D+00 0.13504533D-02 0.19995081D+05 0.19995081D+05 0.19995081D+05 0.12338378D+01  1  2 12  3  5  1        1 0.764523493616D-02 0.100000000000D+01
-.930551016114D-04 0.000000000000D+00 -.139112451015D-04 0.242801953761D-02 0.000000000000D+00  5 21 -2 25 -24 -1 2 0.36175941D+00 0.13504533D-02 0.18765870D+05 0.18765870D+05 0.18765870D+05 0.12368830D+01  1  2  5  3  5  1        1 -.236257843232D-01 0.100000000000D+01
0.190500024388D-07 0.000000000000D+00 0.000000000000D+00 0.242801953761D-02 0.239200594730D-05  5 21 -2 25 -24 -1 2 0.35916102D+00 0.13760029D-02 0.19995081D+05 0.19995081D+05 0.19995081D+05 0.12338378D+01  1  2 11  3  5  1        1 0.482732195455D-05 0.100000000000D+01
  </mgrwgt>
  </event>
  <event>
  4     66 0.47139866E-03 0.54276747E+02 0.75467711E-02 0.12701348E+00
        1 -1    0    0  501    0 0.00000000E+00 0.00000000E+00 0.80362762E+01 0.80426448E+01 0.32000000E+00 0.0000E+00 0.9000E+01
       -2 -1    0    0    0  501 0.00000000E+00 0.00000000E+00 -.15676272E+04 0.15676272E+04 0.32000000E+00 0.0000E+00 0.9000E+01
       25  1    1    2    0    0 -.14414526E+02 -.11105298E+02 -.63711486E+03 0.64951632E+03 0.12500000E+03 0.0000E+00 0.9000E+01
      -24  1    1    2    0    0 0.14414526E+02 0.11105298E+02 -.92247605E+03 0.92615354E+03 0.80419002E+02 0.0000E+00 0.9000E+01
#aMCatNLO 1  0  0  2  1 0.12132841D+01 0.00000000D+00  -5  5  0 0.00000000D+00 0.00000000D+00 0.00000000D+00 0.00000000D+00 0.00000000D+00
  <mgrwgt>
 0.3367656366D+00   11    2    0
 0.112262764070424D+03 0.000000000000000D+00 0.000000000000000D+00 0.112262764070424D+03
 0.112262764070424D+03 0.000000000000000D+00 0.000000000000000D+00 -.112262764070424D+03
 0.132656400645871D+03 -.144145256139404D+02 -.111052982055602D+02 0.405168413799548D+02
 0.918691274949769D+02 0.144145256139404D+02 0.111052982055602D+02 -.405168413799548D+02
 0.000000000000000D+00 0.000000000000000D+00 -.000000000000000D+00 -.000000000000000D+00
 0.112499400585110D+03 0.000000000000000D+00 0.000000000000000D+00 0.112499400585110D+03
 0.113830439727035D+03 0.000000000000000D+00 0.000000000000000D+00 -.113830439727035D+03
 0.132684127020854D+03 -.149856967450311D+02 -.106720204714793D+02 0.405168413799548D+02
 0.918446792498507D+02 0.140190638888955D+02 0.114052866867987D+02 -.405168413799548D+02
 0.180103404144002D+01 0.966632856135568D+00 -.733266215319371D+00 -.133103914192489D+01
0.184059753932D-02 0.000000000000D+00 0.000000000000D+00 0.262725527567D-02 0.000000000000D+00  5 1 -2 25 -24 21 0 0.12368426D-02 0.24117390D+00 0.10896168D+05 0.10896168D+05 0.10896168D+05 0.12639655D+01  1  2  2  2  5  2       -2 0.149564875693D+00 0.100000000000D+01
-.101597243622D-03 0.000000000000D+00 -.706837919146D-05 0.262725527567D-02 0.000000000000D+00  5 1 -2 25 -24 21 2 0.12368426D-02 0.24117390D+00 0.10896168D+05 0.10896168D+05 0.10896168D+05 0.12639655D+01  1  2  3  2  5  2       -2 -.131893419284D-01 0.100000000000D+01
0.126628651577D-03 0.000000000000D+00 0.000000000000D+00 0.262725527567D-02 0.000000000000D+00  5 1 -2 25 -24 21 2 0.12368426D-02 0.24117390D+00 0.10896168D+05 0.10896168D+05 0.10896168D+05 0.12639655D+01  1  2 15  2  5  2       -2 0.164389162936D-01 0.100000000000D+01
0.685437352807D-07 0.000000000000D+00 0.000000000000D+00 0.262725527567D-02 0.000000000000D+00  5 1 -2 25 -24 21 2 0.12368426D-02 0.24479385D+00 0.11023381D+05 0.11023381D+05 0.11023381D+05 0.12633679D+01  1  2 12  2  5  2       -2 0.847718550355D-05 0.100000000000D+01
-.468693141733D-01 0.000000000000D+00 0.000000000000D+00 0.262725527567D-02 0.000000000000D+00  5 1 -2 25 -24 21 2 0.12368426D-02 0.24117390D+00 0.10896168D+05 0.10896168D+05 0.10896168D+05 0.12639655D+01  1  2  4  2  5  2       -2 -.608456871996D+01 0.100000000000D+01
-.129370304151D+00 0.000000000000D+00 -.113641452611D-01 0.262725527567D-02 0.000000000000D+00  5 1 -2 25 -24 21 2 0.12368426D-02 0.24476341D+00 0.10896168D+05 0.10896168D+05 0.10896168D+05 0.12639655D+01  1  2  5  2  5  2       -2 -.160161510642D+02 0.100000000000D+01
0.129525299967D+00 0.000000000000D+00 0.113629051787D-01 0.262725527567D-02 0.000000000000D+00  5 1 -2 25 -24 21 2 0.12368426D-02 0.24117390D+00 0.10896168D+05 0.10896168D+05 0.10896168D+05 0.12639655D+01  1  2  6  2  5  2       -2 0.168149588387D+02 0.100000000000D+01
0.468739354986D-01 0.000000000000D+00 0.000000000000D+00 0.262725527567D-02 0.151942440226D-01  5 1 -2 25 -24 21 2 0.12394497D-02 0.24454174D+00 0.11023381D+05 0.11023381D+05 0.11023381D+05 0.12633679D+01  1  2 11  2  5  2       -2 0.579949546868D+01 0.100000000000D+01
0.546839814535D-08 0.000000000000D+00 0.000000000000D+00 0.262725527567D-02 0.000000000000D+00  5 1 21 25 -24 2 2 0.12368426D-02 0.24479385D+00 0.11023381D+05 0.11023381D+05 0.11023381D+05 0.12633679D+01  1  2 12  4  5  2       -2 0.806595840225D-05 0.100000000000D+01
-.349641798235D-03 0.000000000000D+00 -.307934373356D-04 0.262725527567D-02 0.000000000000D+00  5 1 21 25 -24 2 2 0.12368426D-02 0.24476341D+00 0.10896168D+05 0.10896168D+05 0.10896168D+05 0.12639655D+01  1  2  5  4  5  2       -2 -.516629993275D+00 0.100000000000D+01
0.126615506162D-03 0.000000000000D+00 0.000000000000D+00 0.262725527567D-02 0.387499860699D-04  5 1 21 25 -24 2 2 0.12394497D-02 0.24454174D+00 0.11023381D+05 0.11023381D+05 0.11023381D+05 0.12633679D+01  1  2 11  4  5  2       -2 0.186830113418D+00 0.100000000000D+01
  </mgrwgt>
  </event>
  <event>
  5     66 0.47139866E-03 0.10284747E+03 0.75467711E-02 0.12216671E+00
        1 -1    0    0  501    0 0.00000000E+00 0.00000000E+00 0.36519987E+03 0.36520001E+03 0.32000000E+00 0.0000E+00 0.9000E+01
       21 -1    0    0  502  501 0.00000000E+00 0.00000000E+00 -.50760150E+02 0.50765691E+02 0.75000000E+00 0.0000E+00 0.9000E+01
       25  1    1    2    0    0 -.30979842E+02 -.20232497E+01 0.14446933E+03 0.19354646E+03 0.12500000E+03 0.0000E+00 0.9000E+01
      -24  1    1    2    0    0 -.22824402E+02 -.95131470E+01 0.12816085E+03 0.15330973E+03 0.80419002E+02 0.0000E+00 0.9000E+01
        2  1    1    2  502    0 0.53804243E+02 0.11536397E+02 0.41809539E+02 0.69109514E+02 0.32000000E+00 0.0000E+00 0.9000E+01
#aMCatNLO 2  0  0  2  1 0.55027130D+02 0.00000000D+00  -5  5  0 0.00000000D+00 0.00000000D+00 0.00000000D+00 0.00000000D+00 0.00000000D+00
  <mgrwgt>
 0.5054713694D-01    2    2    0
 0.103626750440447D+03 0.000000000000000D+00 0.000000000000000D+00 0.103626750440447D+03
 0.103626750440447D+03 0.000000000000000D+00 0.000000000000000D+00 -.103626750440447D+03
 0.125719945505201D+03 0.157058253844484D+01 0.495602523743926D+01 -.123885343025887D+02
 0.815335553756927D+02 -.157058253844484D+01 -.495602523743926D+01 0.123885343025887D+02
 0.000000000000000D+00 0.000000000000000D+00 0.000000000000000D+00 -.000000000000000D+00
 0.126413872493850D+03 0.000000000000000D+00 0.000000000000000D+00 0.126413872493850D+03
 0.146650519361863D+03 0.000000000000000D+00 0.000000000000000D+00 -.146650519361863D+03
 0.129392116870699D+03 -.309798416216671D+02 -.202324966589968D+01 -.123885343025887D+02
 0.850420190754050D+02 -.228244015566465D+02 -.951314698012971D+01 0.123885343025887D+02
 0.586302559096095D+02 0.538042431783135D+02 0.115363966460294D+02 -.202366468680137D+02
-.169242171586D-05 0.000000000000D+00 0.000000000000D+00 0.317276859515D-02 0.000000000000D+00  5 1 21 25 -24 2 2 0.46057075D-01 0.82129613D-02 0.17950593D+05 0.17950593D+05 0.17950593D+05 0.12390287D+01  1  2 13  4  5  2       -2 -.283209872007D-01 0.100000000000D+01
0.553175078725D-05 0.000000000000D+00 0.000000000000D+00 0.317276859515D-02 0.533339075851D-06  5 1 21 25 -24 2 2 0.56184848D-01 0.78096652D-02 0.17950593D+05 0.17950593D+05 0.17950593D+05 0.12390287D+01  1  2  1  4  5  2       -2 0.788681241400D-01 0.100000000000D+01
  </mgrwgt>
  </event>
  <event>
  4     66 0.47139866E-03 0.80673108E+02 0.75467711E-02 0.12585754E+00
        1 -1    0    0  501    0 0.00000000E+00 0.00000000E+00 0.43461562E+04 0.43461563E+04 0.32000000E+00 0.0000E+00 0.9000E+01
       -2 -1    0    0    0  501 0.00000000E+00 0.00000000E+00 -.27316115E+01 0.27502911E+01 0.32000000E+00 0.0000E+00 0.9000E+01
       25  1    1    2    0    0 0.26774890E+02 0.15241867E+02 0.29656886E+04 0.29684816E+04 0.12500000E+03 0.0000E+00 0.9000E+01
      -24  1    1    2    0    0 -.26774890E+02 -.15241867E+02 0.13777360E+04 0.13804249E+04 0.80419002E+02 0.0000E+00 0.9000E+01
#aMCatNLO 1  0  0  1  2 0.71840535D+01 0.00000000D+00  -5  5  0 0.00000000D+00 0.00000000D+00 0.00000000D+00 0.00000000D+00 0.00000000D+00
  <mgrwgt>
 0.2540537236D+00   11    2    0
 0.109145104511450D+03 0.000000000000000D+00 0.000000000000000D+00 0.109145104511450D+03
 0.109145104511450D+03 0.000000000000000D+00 0.000000000000000D+00 -.109145104511450D+03
 0.130121272170597D+03 0.267748904491957D+02 0.152418667363646D+02 0.189033386236183D+02
 0.881689368523021D+02 -.267748904491957D+02 -.152418667363646D+02 -.189033386236183D+02
 0.000000000000000D+00 -.000000000000000D+00 0.000000000000000D+00 0.000000000000000D+00
 0.112971282671732D+03 0.000000000000000D+00 0.000000000000000D+00 0.112971282671732D+03
 0.112629298594358D+03 0.000000000000000D+00 0.000000000000000D+00 -.112629298594358D+03
 0.129841820141007D+03 0.274780860178679D+02 0.110234674764864D+02 0.189033386236183D+02
 0.885665725074078D+02 -.262968240209820D+02 -.181097389994917D+02 -.189033386236183D+02
 0.719218861767532D+01 -.118126199688590D+01 0.708627152300521D+01 0.341984077373468D+00
0.110425530894D-02 0.000000000000D+00 0.000000000000D+00 0.295924965605D-02 0.000000000000D+00  5 1 -2 25 -24 21 0 0.66864086D+00 0.42168572D-03 0.11541154D+05 0.11541154D+05 0.11541154D+05 0.12610134D+01  1  2  2  1  5  1        1 0.469212134813D-01 0.100000000000D+01
-.613287999737D-04 0.000000000000D+00 -.424063114344D-05 0.295924965605D-02 0.000000000000D+00  5 1 -2 25 -24 21 2 0.66864086D+00 0.42168572D-03 0.11541154D+05 0.11541154D+05 0.11541154D+05 0.12610134D+01  1  2  3  1  5  1        1 -.414384583204D-02 0.100000000000D+01
0.762800855422D-04 0.000000000000D+00 0.000000000000D+00 0.295924965605D-02 0.000000000000D+00  5 1 -2 25 -24 21 2 0.66864086D+00 0.42168572D-03 0.11541154D+05 0.11541154D+05 0.11541154D+05 0.12610134D+01  1  2 15  1  5  1        1 0.515406977923D-02 0.100000000000D+01
0.143423437884D-02 0.000000000000D+00 0.000000000000D+00 0.295924965605D-02 0.000000000000D+00  5 1 -2 25 -24 21 2 0.70239999D+00 0.42168572D-03 0.12339676D+05 0.12339676D+05 0.12339676D+05 0.12576058D+01  1  2 12  1  5  1        1 0.596835108779D-01 0.100000000000D+01
-.118513692455D-02 0.000000000000D+00 0.000000000000D+00 0.295924965605D-02 0.000000000000D+00  5 1 -2 25 -24 21 2 0.66864086D+00 0.42168572D-03 0.11541154D+05 0.11541154D+05 0.11541154D+05 0.12610134D+01  1  2  4  1  5  1        1 -.800769737431D-01 0.100000000000D+01
-.980003391512D-02 0.000000000000D+00 -.145067974125D-02 0.295924965605D-02 0.000000000000D+00  5 1 -2 25 -24 21 2 0.69599504D+00 0.42168572D-03 0.11541154D+05 0.11541154D+05 0.11541154D+05 0.12610134D+01  1  2  5  1  5  1        1 -.451159095665D+00 0.100000000000D+01
0.100014749920D-01 0.000000000000D+00 0.152024562670D-02 0.295924965605D-02 0.000000000000D+00  5 1 -2 25 -24 21 2 0.66864086D+00 0.42168572D-03 0.11541154D+05 0.11541154D+05 0.11541154D+05 0.12610134D+01  1  2  6  1  5  1        1 0.675776641277D+00 0.100000000000D+01
0.474751539226D-04 0.000000000000D+00 0.000000000000D+00 0.295924965605D-02 0.484182912030D-03  5 1 -2 25 -24 21 2 0.69208066D+00 0.43514702D-03 0.12339676D+05 0.12339676D+05 0.12339676D+05 0.12576058D+01  1  2 11  1  5  1        1 0.219591552479D-02 0.100000000000D+01
0.163016565702D-04 0.000000000000D+00 0.000000000000D+00 0.295924965605D-02 0.000000000000D+00  5 21 -2 25 -24 -1 2 0.70239999D+00 0.42168572D-03 0.12339676D+05 0.12339676D+05 0.12339676D+05 0.12576058D+01  1  2 12  3  5  1        1 0.775555989712D-04 0.100000000000D+01
-.686087326716D-04 0.000000000000D+00 -.102790824920D-04 0.295924965605D-02 0.000000000000D+00  5 21 -2 25 -24 -1 2 0.69599504D+00 0.42168572D-03 0.11541154D+05 0.11541154D+05 0.11541154D+05 0.12610134D+01  1  2  5  3  5  1        1 -.378407830197D-03 0.100000000000D+01
0.556633460208D-06 0.000000000000D+00 0.000000000000D+00 0.295924965605D-02 0.303429477207D-05  5 21 -2 25 -24 -1 2 0.69208066D+00 0.43514702D-03 0.12339676D+05 0.12339676D+05 0.12339676D+05 0.12576058D+01  1  2 11  3  5  1        1 0.314009909513D-05 0.100000000000D+01
  </mgrwgt>
  </event>
  <event>
  5     66 0.47139866E-03 0.27506358E+03 0.75467711E-02 0.10843705E+00
        1 -1    0    0  501    0 0.00000000E+00 0.00000000E+00 0.57457770E+03 0.57457779E+03 0.32000000E+00 0.0000E+00 0.9000E+01
       21 -1    0    0  502  501 0.00000000E+00 0.00000000E+00 -.19339950E+03 0.19340096E+03 0.75000000E+00 0.0000E+00 0.9000E+01
       25  1    1    2    0    0 0.16100721E+03 -.22631866E+03 0.56907830E+02 0.30984990E+03 0.12500000E+03 0.0000E+00 0.9000E+01
      -24  1    1    2    0    0 -.11484714E+03 0.20427743E+03 0.18339354E+03 0.30825239E+03 0.80419002E+02 0.0000E+00 0.9000E+01
        2  1    1    2  502    0 -.46160071E+02 0.22041235E+02 0.14087683E+03 0.14987645E+03 0.32000000E+00 0.0000E+00 0.9000E+01
#aMCatNLO 2  0  0  2  1 0.51152402D+02 0.00000000D+00  -5  5  0 0.00000000D+00 0.00000000D+00 0.00000000D+00 0.00000000D+00 0.00000000D+00
  <mgrwgt>
 0.5050986705D-01    1    2    0
 0.283588226078741D+03 0.000000000000000D+00 0.000000000000000D+00 0.283588226078741D+03
 0.283588226078741D+03 0.000000000000000D+00 0.000000000000000D+00 -.283588226078741D+03
 0.291661361000681D+03 0.136480368219016D+03 -.214607197848751D+03 -.689797740144053D+02
 0.275515091156801D+03 -.136480368219016D+03 0.214607197848751D+03 0.689797740144053D+02
 0.000000000000000D+00 -.000000000000000D+00 0.000000000000000D+00 0.000000000000000D+00
 0.381184045691414D+03 0.000000000000000D+00 0.000000000000000D+00 0.381184045691414D+03
 0.291521773304756D+03 0.000000000000000D+00 0.000000000000000D+00 -.291521773304756D+03
 0.312292599711434D+03 0.161007212808998D+03 -.226318660377190D+03 -.689797740144053D+02
 0.257185842475253D+03 -.114847141413572D+03 0.204277425334733D+03 0.689797740144053D+02
 0.103227376809482D+03 -.461600713954257D+02 0.220412350424563D+02 0.896622723866581D+02
0.852546967291D-04 0.000000000000D+00 0.000000000000D+00 0.190644622455D-02 0.308650494070D-07  5 1 21 25 -24 2 2 0.88396614D-01 0.29753864D-01 0.91051324D+05 0.91051324D+05 0.91051324D+05 0.11673303D+01  1  2  1  4  5  2       -2 0.505098670476D-01 0.100000000000D+01
  </mgrwgt>
  </event>
  <event>
  5     66 0.47139866E-03 0.16222087E+03 0.75467711E-02 0.10704062E+00
       21 -1    0    0  501  502 0.00000000E+00 0.00000000E+00 0.11374366E+03 0.11374613E+03 0.75000000E+00 0.0000E+00 0.9000E+01
       -4 -1    0    0    0  501 0.00000000E+00 0.00000000E+00 -.11905567E+04 0.11905578E+04 0.15500000E+01 0.0000E+00 0.9000E+01
       25  1    1    2    0    0 -.10694861E+03 -.15684546E+03 -.31936925E+03 0.39199518E+03 0.12500000E+03 0.0000E+00 0.9000E+01
      -24  1    1    2    0    0 0.13581955E+03 -.93869477E+02 -.56741312E+03 0.59639190E+03 0.80419002E+02 0.0000E+00 0.9000E+01
       -3  1    1    2    0  502 -.28870935E+02 0.25071493E+03 -.19003071E+03 0.31591681E+03 0.50000000E+00 0.0000E+00 0.9000E+01
#aMCatNLO 2  0  0  1  1 0.25237177D+03 0.00000000D+00  -5  5  0 0.00000000D+00 0.00000000D+00 0.00000000D+00 0.00000000D+00 0.00000000D+00
  <mgrwgt>
 0.1369913826D-01    1    2    0
 0.178069177924475D+03 0.000000000000000D+00 0.000000000000000D+00 0.178069177924475D+03
 0.178069177924475D+03 0.000000000000000D+00 0.000000000000000D+00 -.178069177924475D+03
 0.190926237400419D+03 -.122600820696264D+03 -.209218216048313D+02 0.732061764690601D+02
 0.165212118448531D+03 0.122600820696264D+03 0.209218216048313D+02 -.732061764690601D+02
 0.000000000000000D+00 -.000000000000000D+00 0.000000000000000D+00 0.000000000000000D+00
 0.488648915299925D+03 0.000000000000000D+00 0.000000000000000D+00 0.488648915299925D+03
 0.277132283243794D+03 0.000000000000000D+00 0.000000000000000D+00 -.277132283243794D+03
 0.238794152085011D+03 -.106948612306222D+03 -.156845456174394D+03 0.732061764690601D+02
 0.197698731381436D+03 0.135819547076336D+03 -.938694774365895D+02 -.732061764690601D+02
 0.329288315077272D+03 -.288709347701139D+02 0.250714933610983D+03 0.211516632056131D+03
0.448708809304D-03 0.000000000000D+00 0.000000000000D+00 0.188645556465D-02 0.844919867801D-07  5 21 -4 25 -24 -3 2 0.17499282D-01 0.18316273D+00 0.10999612D+06 0.10999612D+06 0.10999612D+06 0.11597897D+01  1  2  1  3  5  1        3 0.136991382572D-01 0.100000000000D+01
  </mgrwgt>
  </event>
  <event>
  4     66 0.47139866E-03 0.14222340E+03 0.75467711E-02 0.11844500E+00
        1 -1    0    0  501    0 0.00000000E+00 0.00000000E+00 0.34242620E+03 0.34242635E+03 0.32000000E+00 0.0000E+00 0.9000E+01
       -2 -1    0    0    0  501 0.00000000E+00 0.00000000E+00 -.66608189E+02 0.66608958E+02 0.32000000E+00 0.0000E+00 0.9000E+01
       25  1    1    2    0    0 -.53934156E+02 -.80818473E+02 0.22015897E+03 0.27117428E+03 0.12500000E+03 0.0000E+00 0.9000E+01
      -24  1    1    2    0    0 0.53934156E+02 0.80818473E+02 0.55659047E+02 0.13786103E+03 0.80419002E+02 0.0000E+00 0.9000E+01
#aMCatNLO 1  0  0  1  1 0.40792798D+02 0.00000000D+00  -5  5  0 0.00000000D+00 0.00000000D+00 0.00000000D+00 0.00000000D+00 0.00000000D+00
  <mgrwgt>
 0.1709112560D+00    4    2    0
 0.151025087980977D+03 0.000000000000000D+00 0.000000000000000D+00 0.151025087980977D+03
 0.151025087980977D+03 0.000000000000000D+00 0.000000000000000D+00 -.151025087980977D+03
 0.166184463433191D+03 -.539341555527918D+02 -.808184727626430D+02 0.505149206838821D+02
 0.135865712528762D+03 0.539341555527918D+02 0.808184727626430D+02 -.505149206838821D+02
 0.000000000000000D+00 0.000000000000000D+00 0.000000000000000D+00 -.000000000000000D+00
 0.162003666454275D+03 0.000000000000000D+00 0.000000000000000D+00 0.162003666454275D+03
 0.195697012682834D+03 0.000000000000000D+00 0.000000000000000D+00 -.195697012682834D+03
 0.180572556051446D+03 -.703453510492080D+02 -.973715686071530D+02 0.505149206838821D+02
 0.124219768637066D+03 0.416249204476580D+02 0.684028051464487D+02 -.505149206838821D+02
 0.529083544485963D+02 0.287204306015501D+02 0.289687634607043D+02 -.336933462285598D+02
0.598665208122D-03 0.000000000000D+00 0.000000000000D+00 0.215538617292D-02 0.000000000000D+00  5 1 -2 25 -24 21 0 0.52681025D-01 0.10247484D-01 0.20227496D+05 0.20227496D+05 0.20227496D+05 0.12332856D+01  1  2  2  1  5  1        1 0.239798676677D+00 0.100000000000D+01
-.331133726597D-04 0.000000000000D+00 -.229903203136D-05 0.215538617292D-02 0.000000000000D+00  5 1 -2 25 -24 21 2 0.52681025D-01 0.10247484D-01 0.20227496D+05 0.20227496D+05 0.20227496D+05 0.12332856D+01  1  2  3  1  5  1        1 -.201740699059D-01 0.100000000000D+01
0.413737707240D-04 0.000000000000D+00 0.000000000000D+00 0.215538617292D-02 0.000000000000D+00  5 1 -2 25 -24 21 2 0.52681025D-01 0.10247484D-01 0.20227496D+05 0.20227496D+05 0.20227496D+05 0.12332856D+01  1  2 15  1  5  1        1 0.252066544666D-01 0.100000000000D+01
-.121331029997D-03 0.000000000000D+00 0.000000000000D+00 0.215538617292D-02 0.000000000000D+00  5 1 -2 25 -24 21 2 0.52681025D-01 0.10247484D-01 0.20227496D+05 0.20227496D+05 0.20227496D+05 0.12332856D+01  1  2  4  1  5  1        1 -.739200052521D-01 0.100000000000D+01
  </mgrwgt>
  </event>
  <event>
  4     66 0.47139866E-03 0.83963854E+02 0.75467711E-02 0.11395373E+00
        1 -1    0    0  501    0 0.00000000E+00 0.00000000E+00 0.19730513E+04 0.19730513E+04 0.32000000E+00 0.0000E+00 0.9000E+01
       -2 -1    0    0    0  501 0.00000000E+00 0.00000000E+00 -.14285543E+02 0.14289127E+02 0.32000000E+00 0.0000E+00 0.9000E+01
       25  1    1    2    0    0 -.12574762E+03 0.13094949E+02 0.12760206E+04 0.12883468E+04 0.12500000E+03 0.0000E+00 0.9000E+01
      -24  1    1    2    0    0 0.12574762E+03 -.13094949E+02 0.68274517E+03 0.69899365E+03 0.80419002E+02 0.0000E+00 0.9000E+01
#aMCatNLO 1  0  0  2  1 0.86375438D+02 0.00000000D+00  -5  5  0 0.00000000D+00 0.00000000D+00 0.00000000D+00 0.00000000D+00 0.00000000D+00
  <mgrwgt>
 0.2352064397D+00    9    2    0
 0.167897873788937D+03 0.000000000000000D+00 0.000000000000000D+00 0.167897873788937D+03
 0.167897873788937D+03 0.000000000000000D+00 0.000000000000000D+00 -.167897873788937D+03
 0.181533817828857D+03 -.125747620419519D+03 0.130949486470415D+02 0.366822204109887D+02
 0.154261929749018D+03 0.125747620419519D+03 -.130949486470415D+02 -.366822204109887D+02
 0.000000000000000D+00 -.000000000000000D+00 -.000000000000000D+00 -.000000000000000D+00
 0.202831565537569D+03 0.000000000000000D+00 0.000000000000000D+00 0.202831565537569D+03
 0.236658172510807D+03 0.000000000000000D+00 0.000000000000000D+00 -.236658172510807D+03
 0.155704099822968D+03 -.833553276903929D+02 0.180297186064453D+02 0.366822204109887D+02
 0.191022738390881D+03 0.169151425153535D+03 -.804243136297186D+01 -.366822204109887D+02
 0.927628998345272D+02 -.857960974631417D+02 -.998728724347348D+01 -.338266069732386D+02
0.948964773751D-03 0.000000000000D+00 0.000000000000D+00 0.218971007186D-02 0.000000000000D+00  5 1 -2 25 -24 21 0 0.30354663D+00 0.21980535D-02 0.26834722D+05 0.26834722D+05 0.26834722D+05 0.12200138D+01  1  2  2  2  5  2       -2 0.197336343063D+00 0.100000000000D+01
-.526813798875D-04 0.000000000000D+00 -.364427459937D-05 0.218971007186D-02 0.000000000000D+00  5 1 -2 25 -24 21 2 0.30354663D+00 0.21980535D-02 0.26834722D+05 0.26834722D+05 0.26834722D+05 0.12200138D+01  1  2  3  2  5  2       -2 -.163058557422D-01 0.100000000000D+01
0.654950565007D-04 0.000000000000D+00 0.000000000000D+00 0.218971007186D-02 0.000000000000D+00  5 1 -2 25 -24 21 2 0.30354663D+00 0.21980535D-02 0.26834722D+05 0.26834722D+05 0.26834722D+05 0.12200138D+01  1  2 15  2  5  2       -2 0.202719242626D-01 0.100000000000D+01
0.238750141780D-03 0.000000000000D+00 0.000000000000D+00 0.218971007186D-02 0.000000000000D+00  5 1 -2 25 -24 21 2 0.30354663D+00 0.32514682D-02 0.45191211D+05 0.45191211D+05 0.45191211D+05 0.11966557D+01  1  2 12  2  5  2       -2 0.397906202862D-01 0.100000000000D+01
-.406460936470D-03 0.000000000000D+00 0.000000000000D+00 0.218971007186D-02 0.000000000000D+00  5 1 -2 25 -24 21 2 0.30354663D+00 0.21980535D-02 0.26834722D+05 0.26834722D+05 0.26834722D+05 0.12200138D+01  1  2  4  2  5  2       -2 -.125807133546D+00 0.100000000000D+01
-.493544226596D-03 0.000000000000D+00 -.303164227945D-03 0.218971007186D-02 0.000000000000D+00  5 1 -2 25 -24 21 2 0.30354663D+00 0.38908575D-02 0.26834722D+05 0.26834722D+05 0.26834722D+05 0.12200138D+01  1  2  5  2  5  2       -2 -.657645815357D-01 0.100000000000D+01
0.608265868726D-03 0.000000000000D+00 0.259662288251D-03 0.218971007186D-02 0.000000000000D+00  5 1 -2 25 -24 21 2 0.30354663D+00 0.21980535D-02 0.26834722D+05 0.26834722D+05 0.26834722D+05 0.12200138D+01  1  2  6  2  5  2       -2 0.188269470723D+00 0.100000000000D+01
0.111877881829D-04 0.000000000000D+00 0.000000000000D+00 0.218971007186D-02 0.000000000000D+00  5 1 21 25 -24 2 2 0.30354663D+00 0.32514682D-02 0.45191211D+05 0.45191211D+05 0.45191211D+05 0.11966557D+01  1  2 12  4  5  2       -2 0.354477914710D-01 0.100000000000D+01
-.153394492665D-04 0.000000000000D+00 -.190638571272D-04 0.218971007186D-02 0.000000000000D+00  5 1 21 25 -24 2 2 0.30354663D+00 0.38908575D-02 0.26834722D+05 0.26834722D+05 0.26834722D+05 0.12200138D+01  1  2  5  4  5  2       -2 -.380321392571D-01 0.100000000000D+01
  </mgrwgt>
  </event>
  <event>
  5     66 0.47139866E-03 0.12909439E+03 0.75467711E-02 0.10316206E+00
        1 -1    0    0  502    0 0.00000000E+00 0.00000000E+00 0.13328471E+04 0.13328472E+04 0.32000000E+00 0.0000E+00 0.9000E+01
       -2 -1    0    0    0  501 0.00000000E+00 0.00000000E+00 -.43150347E+03 0.43150359E+03 0.32000000E+00 0.0000E+00 0.9000E+01
       25  1    1    2    0    0 0.32272325E+03 -.45122691E+02 -.28478673E+03 0.45046069E+03 0.12500000E+03 0.0000E+00 0.9000E+01
      -24  1    1    2    0    0 0.83322952E+02 -.65799110E+01 0.99841905E+02 0.15304127E+03 0.80419002E+02 0.0000E+00 0.9000E+01
       21  1    1    2  502  501 -.40604620E+03 0.51702602E+02 0.10862885E+04 0.11608488E+04 0.75000000E+00 0.0000E+00 0.9000E+01
#aMCatNLO 2  0  0  1  1 0.40932466D+03 0.00000000D+00  -5  5  0 0.00000000D+00 0.00000000D+00 0.00000000D+00 0.00000000D+00 0.00000000D+00
  <mgrwgt>
 0.1403791946D-01    1    2    0
 0.201533717734468D+03 0.000000000000000D+00 0.000000000000000D+00 0.201533717734468D+03
 0.201533717734468D+03 0.000000000000000D+00 0.000000000000000D+00 -.201533717734468D+03
 0.212893831749850D+03 0.758061097614519D+02 -.136822824302457D+02 -.154159049255849D+03
 0.190173603719086D+03 -.758061097614519D+02 0.136822824302457D+02 0.154159049255849D+03
 0.000000000000000D+00 -.000000000000000D+00 0.000000000000000D+00 0.000000000000000D+00
 0.182931744060421D+04 0.000000000000000D+00 0.000000000000000D+00 0.182931744060421D+04
 0.314394859759361D+03 0.000000000000000D+00 0.000000000000000D+00 -.314394859759361D+03
 0.381544707179474D+03 0.322723246503019D+03 -.451226913620509D+02 -.154159049255849D+03
 0.192920289334806D+03 0.833229523387665D+02 -.657991099783490D+01 0.154159049255849D+03
 0.156924730384929D+04 -.406046198841786D+03 0.517026023598858D+02 0.151492258084485D+04
0.639002358572D-02 0.000000000000D+00 0.000000000000D+00 0.955693883190D-03 0.213032741261D-06  5 1 -2 25 -24 21 2 0.20505336D+00 0.66385144D-01 0.19111216D+06 0.19111216D+06 0.19111216D+06 0.11385836D+01  1  2  1  1  5  1        1 0.140379194604D-01 0.100000000000D+01
  </mgrwgt>
  </event>
  <event>
  4     66 0.47139866E-03 0.52861836E+02 0.75467711E-02 0.12480986E+00
        1 -1    0    0  501    0 0.00000000E+00 0.00000000E+00 0.37844235E+02 0.37845588E+02 0.32000000E+00 0.0000E+00 0.9000E+01
       -2 -1    0    0    0  501 0.00000000E+00 0.00000000E+00 -.35156974E+03 0.35156989E+03 0.32000000E+00 0.0000E+00 0.9000E+01
       25  1    1    2    0    0 -.24025137E+02 0.21267307E+02 -.25186883E+03 0.28300603E+03 0.12500000E+03 0.0000E+00 0.9000E+01
      -24  1    1    2    0    0 0.24025137E+02 -.21267307E+02 -.61856678E+02 0.10640945E+03 0.80419002E+02 0.0000E+00 0.9000E+01
#aMCatNLO 1  0  0  2  1 0.17564103D+02 0.00000000D+00  -5  5  0 0.00000000D+00 0.00000000D+00 0.00000000D+00 0.00000000D+00 0.00000000D+00
  <mgrwgt>
 0.1957331009D+00    9    2    0
 0.115348080056351D+03 0.000000000000000D+00 0.000000000000000D+00 0.115348080056351D+03
 0.115348080056351D+03 0.000000000000000D+00 0.000000000000000D+00 -.115348080056351D+03
 0.135196230197116D+03 -.240251372951156D+02 0.212673070499660D+02 -.402928664691997D+02
 0.954999299155867D+02 0.240251372951156D+02 -.212673070499660D+02 0.402928664691997D+02
 0.000000000000000D+00 -.000000000000000D+00 0.000000000000000D+00 -.000000000000000D+00
 0.116482406097897D+03 0.000000000000000D+00 0.000000000000000D+00 0.116482406097897D+03
 0.212027539350207D+03 0.000000000000000D+00 0.000000000000000D+00 -.212027539350207D+03
 0.133206846038444D+03 -.150636919564092D+02 0.163900557609594D+02 -.402928664691997D+02
 0.981569713545270D+02 0.304909563890528D+02 -.247863180262625D+02 0.402928664691997D+02
 0.971461280551324D+02 -.154272644326436D+02 0.839626226530309D+01 -.955451332523103D+02
0.467867544074D-03 0.000000000000D+00 0.000000000000D+00 0.257938386597D-02 0.000000000000D+00  5 1 -2 25 -24 21 0 0.58223052D-02 0.54087768D-01 0.11624715D+05 0.11624715D+05 0.11624715D+05 0.12606445D+01  1  2  2  2  5  2       -2 0.169624030447D+00 0.100000000000D+01
-.258486064460D-04 0.000000000000D+00 -.179673456160D-05 0.257938386597D-02 0.000000000000D+00  5 1 -2 25 -24 21 2 0.58223052D-02 0.54087768D-01 0.11624715D+05 0.11624715D+05 0.11624715D+05 0.12606445D+01  1  2  3  2  5  2       -2 -.148931612550D-01 0.100000000000D+01
0.321726453258D-04 0.000000000000D+00 0.000000000000D+00 0.257938386597D-02 0.000000000000D+00  5 1 -2 25 -24 21 2 0.58223052D-02 0.54087768D-01 0.11624715D+05 0.11624715D+05 0.11624715D+05 0.12606445D+01  1  2 15  2  5  2       -2 0.185368753181D-01 0.100000000000D+01
0.460343574782D-02 0.000000000000D+00 0.000000000000D+00 0.257938386597D-02 0.000000000000D+00  5 1 -2 25 -24 21 2 0.58223052D-02 0.99478536D-01 0.13693278D+05 0.13693278D+05 0.13693278D+05 0.12523605D+01  1  2 12  2  5  2       -2 0.714121025264D+00 0.100000000000D+01
-.392140462776D-02 0.000000000000D+00 0.000000000000D+00 0.257938386597D-02 0.000000000000D+00  5 1 -2 25 -24 21 2 0.58223052D-02 0.54087768D-01 0.11624715D+05 0.11624715D+05 0.11624715D+05 0.12606445D+01  1  2  4  2  5  2       -2 -.225939110447D+01 0.100000000000D+01
-.461298283518D-02 0.000000000000D+00 -.137617160772D-03 0.257938386597D-02 0.000000000000D+00  5 1 -2 25 -24 21 2 0.58223052D-02 0.99770329D-01 0.11624715D+05 0.11624715D+05 0.11624715D+05 0.12606445D+01  1  2  5  2  5  2       -2 -.717108428060D+00 0.100000000000D+01
0.395482693970D-02 0.000000000000D+00 0.115318902884D-03 0.257938386597D-02 0.000000000000D+00  5 1 -2 25 -24 21 2 0.58223052D-02 0.54087768D-01 0.11624715D+05 0.11624715D+05 0.11624715D+05 0.12606445D+01  1  2  6  2  5  2       -2 0.227864799874D+01 0.100000000000D+01
0.306301706639D-03 0.000000000000D+00 0.000000000000D+00 0.257938386597D-02 0.000000000000D+00  5 1 21 25 -24 2 2 0.58223052D-02 0.99478536D-01 0.13693278D+05 0.13693278D+05 0.13693278D+05 0.12523605D+01  1  2 12  4  5  2       -2 0.573644060200D+00 0.100000000000D+01
-.300674268925D-03 0.000000000000D+00 -.919590767899D-05 0.257938386597D-02 0.000000000000D+00  5 1 21 25 -24 2 2 0.58223052D-02 0.99770329D-01 0.11624715D+05 0.11624715D+05 0.11624715D+05 0.12606445D+01  1  2  5  4  5  2       -2 -.567448195290D+00 0.100000000000D+01
  </mgrwgt>
  </event>
  <event>
  4     66 0.47139866E-03 0.78954784E+02 0.75467711E-02 0.11871773E+00
        1 -1    0    0  501    0 0.00000000E+00 0.00000000E+00 0.15721470E+03 0.15721503E+03 0.32000000E+00 0.0000E+00 0.9000E+01
       -2 -1    0    0    0  501 0.00000000E+00 0.00000000E+00 -.14822474E+03 0.14822509E+03 0.32000000E+00 0.0000E+00 0.9000E+01
       25  1    1    2    0    0 0.94358816E+02 -.32674926E+01 -.54820107E+02 0.16596538E+03 0.12500000E+03 0.0000E+00 0.9000E+01
      -24  1    1    2    0    0 -.94358816E+02 0.32674926E+01 0.63810066E+02 0.13947474E+03 0.80419002E+02 0.0000E+00 0.9000E+01
#aMCatNLO 1  0  0  2  1 0.39183753D+02 0.00000000D+00  -5  5  0 0.00000000D+00 0.00000000D+00 0.00000000D+00 0.00000000D+00 0.00000000D+00
  <mgrwgt>
 0.2308090571D+00    9    2    0
 0.152653895091469D+03 0.000000000000000D+00 0.000000000000000D+00 0.152653895091469D+03
 0.152653895091469D+03 0.000000000000000D+00 0.000000000000000D+00 -.152653895091469D+03
 0.167651520995712D+03 0.943588161342864D+02 -.326749256693718D+01 -.597308111633890D+02
 0.137656269187226D+03 -.943588161342864D+02 0.326749256693718D+01 0.597308111633890D+02
 0.000000000000000D+00 0.000000000000000D+00 0.000000000000000D+00 -.000000000000000D+00
 0.167570174032106D+03 0.000000000000000D+00 0.000000000000000D+00 0.167570174032106D+03
 0.181997060578071D+03 0.000000000000000D+00 0.000000000000000D+00 -.181997060578071D+03
 0.165246577459193D+03 0.870264521559014D+02 -.232391519831803D+02 -.597308111633890D+02
 0.142565399604346D+03 -.100530936911626D+03 -.135439333803176D+02 0.597308111633890D+02
 0.417552575466386D+02 0.135044847557243D+02 0.367830853634979D+02 -.144268865459653D+02
0.574024010841D-03 0.000000000000D+00 0.000000000000D+00 0.205336199802D-02 0.000000000000D+00  5 1 -2 25 -24 21 0 0.24186929D-01 0.22803858D-01 0.19694223D+05 0.19694223D+05 0.19694223D+05 0.12345634D+01  1  2  2  2  5  2       -2 0.162580662944D+00 0.100000000000D+01
-.316157679779D-04 0.000000000000D+00 -.220440334562D-05 0.205336199802D-02 0.000000000000D+00  5 1 -2 25 -24 21 2 0.24186929D-01 0.22803858D-01 0.19694223D+05 0.19694223D+05 0.19694223D+05 0.12345634D+01  1  2  3  2  5  2       -2 -.136480100991D-01 0.100000000000D+01
0.395920681313D-04 0.000000000000D+00 0.000000000000D+00 0.205336199802D-02 0.000000000000D+00  5 1 -2 25 -24 21 2 0.24186929D-01 0.22803858D-01 0.19694223D+05 0.19694223D+05 0.19694223D+05 0.12345634D+01  1  2 15  2  5  2       -2 0.170912484580D-01 0.100000000000D+01
0.462912794271D-03 0.000000000000D+00 0.000000000000D+00 0.205336199802D-02 0.000000000000D+00  5 1 -2 25 -24 21 2 0.24186929D-01 0.28132371D-01 0.26034891D+05 0.26034891D+05 0.26034891D+05 0.12214135D+01  1  2 12  2  5  2       -2 0.136207064061D+00 0.100000000000D+01
-.463272909573D-03 0.000000000000D+00 0.000000000000D+00 0.205336199802D-02 0.000000000000D+00  5 1 -2 25 -24 21 2 0.24186929D-01 0.22803858D-01 0.19694223D+05 0.19694223D+05 0.19694223D+05 0.12345634D+01  1  2  4  2  5  2       -2 -.199987340269D+00 0.100000000000D+01
-.966915348187D-03 0.000000000000D+00 -.300082012139D-03 0.205336199802D-02 0.000000000000D+00  5 1 -2 25 -24 21 2 0.24186929D-01 0.29643877D-01 0.19694223D+05 0.19694223D+05 0.19694223D+05 0.12345634D+01  1  2  5  2  5  2       -2 -.263138098230D+00 0.100000000000D+01
0.102036186010D-02 0.000000000000D+00 0.290044952010D-03 0.205336199802D-02 0.000000000000D+00  5 1 -2 25 -24 21 2 0.24186929D-01 0.22803858D-01 0.19694223D+05 0.19694223D+05 0.19694223D+05 0.12345634D+01  1  2  6  2  5  2       -2 0.440473531471D+00 0.100000000000D+01
0.137494145392D-04 0.000000000000D+00 0.000000000000D+00 0.205336199802D-02 0.000000000000D+00  5 1 21 25 -24 2 2 0.24186929D-01 0.28132371D-01 0.26034891D+05 0.26034891D+05 0.26034891D+05 0.12214135D+01  1  2 12  4  5  2       -2 0.534614599149D-01 0.100000000000D+01
-.284630791224D-04 0.000000000000D+00 -.105214779362D-04 0.205336199802D-02 0.000000000000D+00  5 1 21 25 -24 2 2 0.24186929D-01 0.29643877D-01 0.19694223D+05 0.19694223D+05 0.19694223D+05 0.12345634D+01  1  2  5  4  5  2       -2 -.102231461110D+00 0.100000000000D+01
  </mgrwgt>
  </event>
  <event>
  4     66 0.47139866E-03 0.10998387E+03 0.75467711E-02 0.10280425E+00
        1 -1    0    0  501    0 0.00000000E+00 0.00000000E+00 0.33107090E+03 0.33107105E+03 0.32000000E+00 0.0000E+00 0.9000E+01
       -2 -1    0    0    0  501 0.00000000E+00 0.00000000E+00 -.37590809E+02 0.37592171E+02 0.32000000E+00 0.0000E+00 0.9000E+01
       25  1    1    2    0    0 -.30947134E+02 0.22933220E+02 0.20406193E+03 0.24238385E+03 0.12500000E+03 0.0000E+00 0.9000E+01
      -24  1    1    2    0    0 0.30947134E+02 -.22933220E+02 0.89418158E+02 0.12627938E+03 0.80419002E+02 0.0000E+00 0.9000E+01
#aMCatNLO 1  0  0  2  1 0.42196499D+03 0.00000000D+00  -5  5  0 0.00000000D+00 0.00000000D+00 0.00000000D+00 0.00000000D+00 0.00000000D+00
  <mgrwgt>
 0.2142140097D+00    3    2    0
 0.111559411172097D+03 0.000000000000000D+00 0.000000000000000D+00 0.111559411172097D+03
 0.111559411172097D+03 0.000000000000000D+00 0.000000000000000D+00 -.111559411172097D+03
 0.132081624290232D+03 -.309471341994145D+02 0.229332198804000D+02 0.183547755613230D+02
 0.910371980539626D+02 0.309471341994145D+02 -.229332198804000D+02 -.183547755613230D+02
 0.000000000000000D+00 0.000000000000000D+00 0.000000000000000D+00 0.000000000000000D+00
 0.467422100493069D+03 0.000000000000000D+00 0.000000000000000D+00 0.467422100493069D+03
 0.433246751071782D+03 0.000000000000000D+00 0.000000000000000D+00 -.433246751071782D+03
 0.266229579959613D+03 -.126942907614150D+03 -.196981698809891D+03 0.183547755613230D+02
 0.211092597365308D+03 -.418682500364659D+02 -.189744619320387D+03 -.183547755613230D+02
 0.423346674239930D+03 0.168811157650616D+03 0.386726318130279D+03 0.341753494212878D+02
0.211812117441D-03 0.000000000000D+00 0.000000000000D+00 0.290243441274D-02 0.000000000000D+00  5 1 -2 25 -24 21 0 0.50934101D-01 0.57833180D-02 0.12096452D+05 0.12096452D+05 0.12096452D+05 0.12586168D+01  1  2  2  2  5  2       -2 0.209675286720D+00 0.100000000000D+01
-.117644453347D-04 0.000000000000D+00 -.813414302384D-06 0.290243441274D-02 0.000000000000D+00  5 1 -2 25 -24 21 2 0.50934101D-01 0.57833180D-02 0.12096452D+05 0.12096452D+05 0.12096452D+05 0.12586168D+01  1  2  3  2  5  2       -2 -.184482415519D-01 0.100000000000D+01
0.146587893837D-04 0.000000000000D+00 0.000000000000D+00 0.290243441274D-02 0.000000000000D+00  5 1 -2 25 -24 21 2 0.50934101D-01 0.57833180D-02 0.12096452D+05 0.12096452D+05 0.12096452D+05 0.12586168D+01  1  2 15  2  5  2       -2 0.229869645116D-01 0.100000000000D+01
  </mgrwgt>
  </event>
  <event>
  4     66 0.47139866E-03 0.10605510E+03 0.75467711E-02 0.12551788E+00
        1 -1    0    0  501    0 0.00000000E+00 0.00000000E+00 0.95567136E+02 0.95567672E+02 0.32000000E+00 0.0000E+00 0.9000E+01
       -2 -1    0    0    0  501 0.00000000E+00 0.00000000E+00 -.11783782E+03 0.11783826E+03 0.32000000E+00 0.0000E+00 0.9000E+01
       25  1    1    2    0    0 0.41597648E+01 0.25500692E+02 -.97363873E+01 0.12801323E+03 0.12500000E+03 0.0000E+00 0.9000E+01
      -24  1    1    2    0    0 -.41597648E+01 -.25500692E+02 -.12534298E+02 0.85392702E+02 0.80419002E+02 0.0000E+00 0.9000E+01
#aMCatNLO 1  0  0  1  1 0.13393074D+02 0.00000000D+00  -5  5  0 0.00000000D+00 0.00000000D+00 0.00000000D+00 0.00000000D+00 0.00000000D+00
  <mgrwgt>
 0.1866646399D+00    4    2    0
 0.106120340598009D+03 0.000000000000000D+00 0.000000000000000D+00 0.106120340598009D+03
 0.106120340598009D+03 0.000000000000000D+00 0.000000000000000D+00 -.106120340598009D+03
 0.127694395096005D+03 0.415976477671828D+01 0.255006916976711D+02 0.364274880788461D+01
 0.845462861000126D+02 -.415976477671828D+01 -.255006916976711D+02 -.364274880788461D+01
 0.000000000000000D+00 0.000000000000000D+00 0.000000000000000D+00 -.000000000000000D+00
 0.106881683475858D+03 0.000000000000000D+00 0.000000000000000D+00 0.106881683475858D+03
 0.187825811807055D+03 0.000000000000000D+00 0.000000000000000D+00 -.187825811807055D+03
 0.126399115221663D+03 0.471412492574858D+00 0.183914240939581D+02 0.364274880788461D+01
 0.862637193269630D+02 -.663919635638947D+01 -.302797749432601D+02 -.364274880788461D+01
 0.820446607342863D+02 0.616778386381462D+01 0.118883508493020D+02 -.809441283311971D+02
0.244207193016D-03 0.000000000000D+00 0.000000000000D+00 0.312330466376D-02 0.000000000000D+00  5 1 -2 25 -24 21 0 0.14702711D-01 0.18128970D-01 0.11247684D+05 0.11247684D+05 0.11247684D+05 0.12623329D+01  1  2  2  1  5  1        1 0.188427630052D+00 0.100000000000D+01
-.135670600403D-04 0.000000000000D+00 -.937819922414D-06 0.312330466376D-02 0.000000000000D+00  5 1 -2 25 -24 21 2 0.14702711D-01 0.18128970D-01 0.11247684D+05 0.11247684D+05 0.11247684D+05 0.12623329D+01  1  2  3  1  5  1        1 -.166809087157D-01 0.100000000000D+01
0.168930067489D-04 0.000000000000D+00 0.000000000000D+00 0.312330466376D-02 0.000000000000D+00  5 1 -2 25 -24 21 2 0.14702711D-01 0.18128970D-01 0.11247684D+05 0.11247684D+05 0.11247684D+05 0.12623329D+01  1  2 15  1  5  1        1 0.207702112820D-01 0.100000000000D+01
-.475983702077D-05 0.000000000000D+00 0.000000000000D+00 0.312330466376D-02 0.000000000000D+00  5 1 -2 25 -24 21 2 0.14702711D-01 0.18128970D-01 0.11247684D+05 0.11247684D+05 0.11247684D+05 0.12623329D+01  1  2  4  1  5  1        1 -.585229273029D-02 0.100000000000D+01
  </mgrwgt>
  </event>
  <event>
  5     66 0.47139866E-03 0.14644209E+03 0.75467711E-02 0.11350726E+00
        3 -1    0    0  501    0 0.00000000E+00 0.00000000E+00 0.39772318E+03 0.39772350E+03 0.50000000E+00 0.0000E+00 0.9000E+01
       21 -1    0    0  502  501 0.00000000E+00 0.00000000E+00 -.12250492E+03 0.12250721E+03 0.75000000E+00 0.0000E+00 0.9000E+01
       25  1    1    2    0    0 -.10656038E+03 -.89104298E+01 0.12476373E+03 0.20645944E+03 0.12500000E+03 0.0000E+00 0.9000E+01
      -24  1    1    2    0    0 0.72948360E+02 -.10651932E+03 0.10682019E+03 0.18586446E+03 0.80419002E+02 0.0000E+00 0.9000E+01
        4  1    1    2  502    0 0.33612019E+02 0.11542975E+03 0.43634346E+02 0.12790681E+03 0.15500000E+01 0.0000E+00 0.9000E+01
#aMCatNLO 2  0  0  2  1 0.12022393D+03 0.00000000D+00  -5  5  0 0.00000000D+00 0.00000000D+00 0.00000000D+00 0.00000000D+00 0.00000000D+00
  <mgrwgt>
 0.9732487311D-02    1    2    0
 0.146486459853600D+03 0.000000000000000D+00 0.000000000000000D+00 0.146486459853600D+03
 0.146486459853600D+03 0.000000000000000D+00 0.000000000000000D+00 -.146486459853600D+03
 0.162115522182606D+03 -.885510762481332D+02 0.529367698929110D+02 0.358438574115789D+01
 0.130857397524594D+03 0.885510762481332D+02 -.529367698929110D+02 -.358438574115789D+01
 0.000000000000000D+00 0.000000000000000D+00 0.000000000000000D+00 -.000000000000000D+00
 0.201871261630952D+03 0.000000000000000D+00 0.000000000000000D+00 0.201871261630952D+03
 0.241349742706194D+03 0.000000000000000D+00 0.000000000000000D+00 -.241349742706194D+03
 0.164536798037194D+03 -.106560378790598D+03 -.891042979855984D+01 0.358438574115789D+01
 0.152144312686799D+03 0.729483601376139D+02 -.106519316842813D+03 -.358438574115789D+01
 0.126539893613154D+03 0.336120186529844D+02 0.115429746641373D+03 -.394784810752417D+02
0.202442529280D-04 0.000000000000D+00 0.000000000000D+00 0.243754991492D-02 0.137627547917D-06  5 3 21 25 -24 4 2 0.61187035D-01 0.18846696D-01 0.47703751D+05 0.47703751D+05 0.47703751D+05 0.11943091D+01  1  2  1  4  5  2       -4 0.973248731095D-02 0.100000000000D+01
  </mgrwgt>
  </event>
  <event>
  4     66 0.47139866E-03 0.16024826E+03 0.75467711E-02 0.10940405E+00
        1 -1    0    0  501    0 0.00000000E+00 0.00000000E+00 0.63893637E+03 0.63893645E+03 0.32000000E+00 0.0000E+00 0.9000E+01
       -2 -1    0    0    0  501 0.00000000E+00 0.00000000E+00 -.41925703E+02 0.41926924E+02 0.32000000E+00 0.0000E+00 0.9000E+01
       25  1    1    2    0    0 -.12180811E+03 -.54339633E+00 0.39301261E+03 0.43002491E+03 0.12500000E+03 0.0000E+00 0.9000E+01
      -24  1    1    2    0    0 0.12180811E+03 0.54339633E+00 0.20399806E+03 0.25083847E+03 0.80419002E+02 0.0000E+00 0.9000E+01
#aMCatNLO 1  0  0  1  1 0.19228189D+03 0.00000000D+00  -5  5  0 0.00000000D+00 0.00000000D+00 0.00000000D+00 0.00000000D+00 0.00000000D+00
  <mgrwgt>
 0.2291526987D+00    3    2    0
 0.163671314405652D+03 0.000000000000000D+00 0.000000000000000D+00 0.163671314405652D+03
 0.163671314405652D+03 0.000000000000000D+00 0.000000000000000D+00 -.163671314405652D+03
 0.177659385679602D+03 -.121808112717012D+03 -.543396326022100D+00 0.331714593710630D+02
 0.149683243131702D+03 0.121808112717012D+03 0.543396326022100D+00 -.331714593710630D+02
 0.000000000000000D+00 -.000000000000000D+00 0.000000000000000D+00 -.000000000000000D+00
 0.284311808226108D+03 0.000000000000000D+00 0.000000000000000D+00 0.284311808226108D+03
 0.287637506008899D+03 0.000000000000000D+00 0.000000000000000D+00 -.287637506008899D+03
 0.188125362392683D+03 -.964672225301648D+02 -.967464791911720D+02 0.331714593710630D+02
 0.191513308042729D+03 0.145445578141715D+03 -.891928768754251D+02 -.331714593710630D+02
 0.192310643799595D+03 -.489783556115506D+02 0.185939356066597D+03 -.332569778279055D+01
0.612866977652D-03 0.000000000000D+00 0.000000000000D+00 0.222706694792D-02 0.000000000000D+00  5 1 -2 25 -24 21 0 0.98298003D-01 0.64502082D-02 0.25679505D+05 0.25679505D+05 0.25679505D+05 0.12220509D+01  1  2  2  1  5  1        1 0.224604105376D+00 0.100000000000D+01
-.340296718584D-04 0.000000000000D+00 -.235357056576D-05 0.222706694792D-02 0.000000000000D+00  5 1 -2 25 -24 21 2 0.98298003D-01 0.64502082D-02 0.25679505D+05 0.25679505D+05 0.25679505D+05 0.12220509D+01  1  2  3  1  5  1        1 -.186246385383D-01 0.100000000000D+01
0.423405520562D-04 0.000000000000D+00 0.000000000000D+00 0.222706694792D-02 0.000000000000D+00  5 1 -2 25 -24 21 2 0.98298003D-01 0.64502082D-02 0.25679505D+05 0.25679505D+05 0.25679505D+05 0.12220509D+01  1  2 15  1  5  1        1 0.231732319031D-01 0.100000000000D+01
  </mgrwgt>
  </event>
  <event>
  4     66 0.47139866E-03 0.64369582E+02 0.75467711E-02 0.11648306E+00
        1 -1    0    0  501    0 0.00000000E+00 0.00000000E+00 0.56038324E+03 0.56038333E+03 0.32000000E+00 0.0000E+00 0.9000E+01
       -2 -1    0    0    0  501 0.00000000E+00 0.00000000E+00 -.25495326E+02 0.25497334E+02 0.32000000E+00 0.0000E+00 0.9000E+01
       25  1    1    2    0    0 0.59546518E+02 0.59261014E+01 0.32317627E+03 0.35163732E+03 0.12500000E+03 0.0000E+00 0.9000E+01
      -24  1    1    2    0    0 -.59546518E+02 -.59261014E+01 0.21171164E+03 0.23424334E+03 0.80419002E+02 0.0000E+00 0.9000E+01
#aMCatNLO 1  0  0  2  1 0.10524064D+03 0.00000000D+00  -5  5  0 0.00000000D+00 0.00000000D+00 0.00000000D+00 0.00000000D+00 0.00000000D+00
  <mgrwgt>
 0.1636412317D+00    7    2    0
 0.119531452968117D+03 0.000000000000000D+00 0.000000000000000D+00 0.119531452968117D+03
 0.119531452968117D+03 0.000000000000000D+00 0.000000000000000D+00 -.119531452968117D+03
 0.138684955703652D+03 0.595465175034139D+02 0.592610135171510D+01 0.525457082061633D+01
 0.100377950232581D+03 -.595465175034139D+02 -.592610135171510D+01 -.525457082061633D+01
 0.000000000000000D+00 -.000000000000000D+00 0.000000000000000D+00 -.000000000000000D+00
 0.158225121242186D+03 0.000000000000000D+00 0.000000000000000D+00 0.158225121242186D+03
 0.230836598948298D+03 0.000000000000000D+00 0.000000000000000D+00 -.230836598948298D+03
 0.168737776691239D+03 0.106436729789339D+03 -.386141077838784D+02 0.525457082061633D+01
 0.924645697103552D+02 -.301328608507830D+02 -.338656297710389D+02 -.525457082061633D+01
 0.127859373788890D+03 -.763038689385556D+02 0.724797375549172D+02 -.726114777061113D+02
0.196836241478D-03 0.000000000000D+00 0.000000000000D+00 0.278759067623D-02 0.000000000000D+00  5 1 -2 25 -24 21 0 0.86212968D-01 0.39225193D-02 0.14259429D+05 0.14259429D+05 0.14259429D+05 0.12503371D+01  1  2  2  2  5  2       -2 0.179258754631D+00 0.100000000000D+01
-.109353336457D-04 0.000000000000D+00 -.755902995449D-06 0.278759067623D-02 0.000000000000D+00  5 1 -2 25 -24 21 2 0.86212968D-01 0.39225193D-02 0.14259429D+05 0.14259429D+05 0.14259429D+05 0.12503371D+01  1  2  3  2  5  2       -2 -.155690319506D-01 0.100000000000D+01
0.136234391796D-04 0.000000000000D+00 0.000000000000D+00 0.278759067623D-02 0.000000000000D+00  5 1 -2 25 -24 21 2 0.86212968D-01 0.39225193D-02 0.14259429D+05 0.14259429D+05 0.14259429D+05 0.12503371D+01  1  2 15  2  5  2       -2 0.193961854972D-01 0.100000000000D+01
0.188911936666D-05 0.000000000000D+00 0.000000000000D+00 0.278759067623D-02 0.000000000000D+00  5 1 -2 25 -24 21 2 0.86212968D-01 0.77191860D-02 0.33527758D+05 0.33527758D+05 0.33527758D+05 0.12098633D+01  1  2 12  2  5  2       -2 0.924675382038D-03 0.100000000000D+01
-.444392544421D-04 0.000000000000D+00 -.566185617594D-04 0.278759067623D-02 0.000000000000D+00  5 1 -2 25 -24 21 2 0.86212968D-01 0.10012918D-01 0.14259429D+05 0.14259429D+05 0.14259429D+05 0.12503371D+01  1  2  5  2  5  2       -2 -.152569769972D-01 0.100000000000D+01
0.138500403937D-06 0.000000000000D+00 0.000000000000D+00 0.278759067623D-02 0.000000000000D+00  5 1 21 25 -24 2 2 0.86212968D-01 0.77191860D-02 0.33527758D+05 0.33527758D+05 0.33527758D+05 0.12098633D+01  1  2 12  4  5  2       -2 0.110949846551D-02 0.100000000000D+01
-.114392318899D-05 0.000000000000D+00 -.586051756219D-05 0.278759067623D-02 0.000000000000D+00  5 1 21 25 -24 2 2 0.86212968D-01 0.10012918D-01 0.14259429D+05 0.14259429D+05 0.14259429D+05 0.12503371D+01  1  2  5  4  5  2       -2 -.622187336012D-02 0.100000000000D+01
  </mgrwgt>
  </event>
  <event>
  4     66 0.47139866E-03 0.44915752E+02 0.75467711E-02 0.11820689E+00
        1 -1    0    0  501    0 0.00000000E+00 0.00000000E+00 0.23183438E+04 0.23183438E+04 0.32000000E+00 0.0000E+00 0.9000E+01
       -2 -1    0    0    0  501 0.00000000E+00 0.00000000E+00 -.11910986E+02 0.11915284E+02 0.32000000E+00 0.0000E+00 0.9000E+01
       25  1    1    2    0    0 0.62637585E+02 0.80546721E+02 0.69008340E+03 0.70869693E+03 0.12500000E+03 0.0000E+00 0.9000E+01
      -24  1    1    2    0    0 -.62637585E+02 -.80546721E+02 0.16163494E+04 0.16215621E+04 0.80419002E+02 0.0000E+00 0.9000E+01
#aMCatNLO 1  0  0  2  1 0.38323535D+02 0.00000000D+00  -5  5  0 0.00000000D+00 0.00000000D+00 0.00000000D+00 0.00000000D+00 0.00000000D+00
  <mgrwgt>
 0.2405062911D+00    9    2    0
 0.166189028561002D+03 0.000000000000000D+00 0.000000000000000D+00 0.166189028561002D+03
 0.166189028561002D+03 0.000000000000000D+00 0.000000000000000D+00 -.166189028561002D+03
 0.179965184732268D+03 0.626375850915108D+02 0.805467213678916D+02 -.796945815379333D+02
 0.152412872389736D+03 -.626375850915108D+02 -.805467213678916D+02 0.796945815379333D+02
 0.000000000000000D+00 0.000000000000000D+00 -.000000000000000D+00 -.000000000000000D+00
 0.179203336641489D+03 0.000000000000000D+00 0.000000000000000D+00 0.179203336641489D+03
 0.198110600640359D+03 0.000000000000000D+00 0.000000000000000D+00 -.198110600640359D+03
 0.182513960361803D+03 0.477797495633255D+02 0.951431286647088D+02 -.796945815379333D+02
 0.152066173770380D+03 -.751180261068186D+02 -.682858775890142D+02 0.796945815379333D+02
 0.427338031496654D+02 0.273382765434932D+02 -.268572510756946D+02 -.189072639988696D+02
0.130247024454D-02 0.000000000000D+00 0.000000000000D+00 0.180883066690D-02 0.000000000000D+00  5 1 -2 25 -24 21 0 0.35666860D+00 0.18327917D-02 0.21210225D+05 0.21210225D+05 0.21210225D+05 0.12310269D+01  1  2  2  2  5  2       -2 0.212091633790D+00 0.100000000000D+01
-.708263678847D-04 0.000000000000D+00 -.500182868734D-05 0.180883066690D-02 0.000000000000D+00  5 1 -2 25 -24 21 2 0.35666860D+00 0.18327917D-02 0.21210225D+05 0.21210225D+05 0.21210225D+05 0.12310269D+01  1  2  3  2  5  2       -2 -.174777601615D-01 0.100000000000D+01
0.899307334411D-04 0.000000000000D+00 0.000000000000D+00 0.180883066690D-02 0.000000000000D+00  5 1 -2 25 -24 21 2 0.35666860D+00 0.18327917D-02 0.21210225D+05 0.21210225D+05 0.21210225D+05 0.12310269D+01  1  2 15  2  5  2       -2 0.221921275533D-01 0.100000000000D+01
0.120525038856D-02 0.000000000000D+00 0.000000000000D+00 0.180883066690D-02 0.000000000000D+00  5 1 -2 25 -24 21 2 0.35666860D+00 0.22461261D-02 0.27560833D+05 0.27560833D+05 0.27560833D+05 0.12187828D+01  1  2 12  2  5  2       -2 0.216346726003D+00 0.100000000000D+01
-.122508244279D-02 0.000000000000D+00 0.000000000000D+00 0.180883066690D-02 0.000000000000D+00  5 1 -2 25 -24 21 2 0.35666860D+00 0.18327917D-02 0.21210225D+05 0.21210225D+05 0.21210225D+05 0.12310269D+01  1  2  4  2  5  2       -2 -.302312510900D+00 0.100000000000D+01
-.224688624362D-02 0.000000000000D+00 -.681438006098D-03 0.180883066690D-02 0.000000000000D+00  5 1 -2 25 -24 21 2 0.35666860D+00 0.23986765D-02 0.21210225D+05 0.21210225D+05 0.21210225D+05 0.12310269D+01  1  2  5  2  5  2       -2 -.374701860168D+00 0.100000000000D+01
0.236795032704D-02 0.000000000000D+00 0.657492068555D-03 0.180883066690D-02 0.000000000000D+00  5 1 -2 25 -24 21 2 0.35666860D+00 0.18327917D-02 0.21210225D+05 0.21210225D+05 0.21210225D+05 0.12310269D+01  1  2  6  2  5  2       -2 0.584337007903D+00 0.100000000000D+01
0.349341605781D-04 0.000000000000D+00 0.000000000000D+00 0.180883066690D-02 0.000000000000D+00  5 1 21 25 -24 2 2 0.35666860D+00 0.22461261D-02 0.27560833D+05 0.27560833D+05 0.27560833D+05 0.12187828D+01  1  2 12  4  5  2       -2 0.128179063099D+00 0.100000000000D+01
-.673909854835D-04 0.000000000000D+00 -.243407857579D-04 0.180883066690D-02 0.000000000000D+00  5 1 21 25 -24 2 2 0.35666860D+00 0.23986765D-02 0.21210225D+05 0.21210225D+05 0.21210225D+05 0.12310269D+01  1  2  5  4  5  2       -2 -.228148136061D+00 0.100000000000D+01
  </mgrwgt>
  </event>
  <event>
  4     66 0.47139866E-03 0.11000291E+03 0.75467711E-02 0.12294909E+00
        1 -1    0    0  501    0 0.00000000E+00 0.00000000E+00 0.10017462E+02 0.10022571E+02 0.32000000E+00 0.0000E+00 0.9000E+01
       -2 -1    0    0    0  501 0.00000000E+00 0.00000000E+00 -.12446587E+04 0.12446587E+04 0.32000000E+00 0.0000E+00 0.9000E+01
       25  1    1    2    0    0 0.38191252E+02 0.53967768E+01 -.62435193E+03 0.63790911E+03 0.12500000E+03 0.0000E+00 0.9000E+01
      -24  1    1    2    0    0 -.38191252E+02 -.53967768E+01 -.61028929E+03 0.61677219E+03 0.80419002E+02 0.0000E+00 0.9000E+01
#aMCatNLO 1  0  0  2  1 0.34520821D+02 0.00000000D+00  -5  5  0 0.00000000D+00 0.00000000D+00 0.00000000D+00 0.00000000D+00 0.00000000D+00
  <mgrwgt>
 0.1379423192D+00    4    2    0
 0.111676103132493D+03 0.000000000000000D+00 0.000000000000000D+00 0.111676103132493D+03
 0.111676103132493D+03 0.000000000000000D+00 0.000000000000000D+00 -.111676103132493D+03
 0.132176872296072D+03 0.381912520705612D+02 0.539677681740054D+01 0.189216446229776D+02
 0.911753339689127D+02 -.381912520705612D+02 -.539677681740054D+01 -.189216446229776D+02
 0.000000000000000D+00 0.000000000000000D+00 0.000000000000000D+00 0.000000000000000D+00
 0.136087342727215D+03 0.000000000000000D+00 0.000000000000000D+00 0.136087342727215D+03
 0.125907385421938D+03 0.000000000000000D+00 0.000000000000000D+00 -.125907385421938D+03
 0.127873088955948D+03 0.191817547729256D+02 -.747347127414548D+00 0.189216446229776D+02
 0.981311038139719D+02 -.520294399331284D+02 -.986946434132700D+01 -.189216446229776D+02
 0.359905353792335D+02 0.328476851602028D+02 0.106168114687415D+02 0.101799573052765D+02
0.206714378207D-02 0.000000000000D+00 0.000000000000D+00 0.289537740614D-02 0.000000000000D+00  5 1 -2 25 -24 21 0 0.15415442D-02 0.19148635D+00 0.12100641D+05 0.12100641D+05 0.12100641D+05 0.12585992D+01  1  2  2  2  5  2       -2 0.246347135551D+00 0.100000000000D+01
-.114809501408D-03 0.000000000000D+00 -.793837641460D-05 0.289537740614D-02 0.000000000000D+00  5 1 -2 25 -24 21 2 0.15415442D-02 0.19148635D+00 0.12100641D+05 0.12100641D+05 0.12100641D+05 0.12585992D+01  1  2  3  2  5  2       -2 -.216735268656D-01 0.100000000000D+01
0.143376948426D-03 0.000000000000D+00 0.000000000000D+00 0.289537740614D-02 0.000000000000D+00  5 1 -2 25 -24 21 2 0.15415442D-02 0.19148635D+00 0.12100641D+05 0.12100641D+05 0.12100641D+05 0.12585992D+01  1  2 15  2  5  2       -2 0.270664370588D-01 0.100000000000D+01
-.602811915471D-03 0.000000000000D+00 0.000000000000D+00 0.289537740614D-02 0.000000000000D+00  5 1 -2 25 -24 21 2 0.15415442D-02 0.19148635D+00 0.12100641D+05 0.12100641D+05 0.12100641D+05 0.12585992D+01  1  2  4  2  5  2       -2 -.113797726535D+00 0.100000000000D+01
  </mgrwgt>
  </event>
  <event>
  4     66 0.47139866E-03 0.13940316E+03 0.75467711E-02 0.10445242E+00
        1 -1    0    0  501    0 0.00000000E+00 0.00000000E+00 0.16429951E+03 0.16429982E+03 0.32000000E+00 0.0000E+00 0.9000E+01
       -2 -1    0    0    0  501 0.00000000E+00 0.00000000E+00 -.12497520E+03 0.12497561E+03 0.32000000E+00 0.0000E+00 0.9000E+01
       25  1    1    2    0    0 0.54109982E+02 0.75689915E+02 -.11405421E+02 0.15624320E+03 0.12500000E+03 0.0000E+00 0.9000E+01
      -24  1    1    2    0    0 -.54109982E+02 -.75689915E+02 0.50729727E+02 0.13303223E+03 0.80419002E+02 0.0000E+00 0.9000E+01
#aMCatNLO 1  0  0  1  1 0.34919109D+03 0.00000000D+00  -5  5  0 0.00000000D+00 0.00000000D+00 0.00000000D+00 0.00000000D+00 0.00000000D+00
  <mgrwgt>
 0.2294687750D+00    5    2    0
 0.143295039089063D+03 0.000000000000000D+00 0.000000000000000D+00 0.143295039089063D+03
 0.143295039089063D+03 0.000000000000000D+00 0.000000000000000D+00 -.143295039089063D+03
 0.159272186839338D+03 0.541099820069922D+02 0.756899149190714D+02 -.329511172395052D+02
 0.127317891338788D+03 -.541099820069922D+02 -.756899149190714D+02 0.329511172395052D+02
 0.000000000000000D+00 -.000000000000000D+00 0.000000000000000D+00 0.000000000000000D+00
 0.514572250988799D+03 0.000000000000000D+00 0.000000000000000D+00 0.514572250988799D+03
 0.331457828819204D+03 0.000000000000000D+00 0.000000000000000D+00 -.331457828819204D+03
 0.165510097089155D+03 0.687008253774306D+02 -.772205458643595D+02 -.329511172395052D+02
 0.286229087773540D+03 -.355313849063128D+02 -.270391603591180D+03 0.329511172395052D+02
 0.394290894945308D+03 -.331694404711179D+02 0.347612149455540D+03 0.183114422169595D+03
0.548168409285D-03 0.000000000000D+00 0.000000000000D+00 0.234990705743D-02 0.000000000000D+00  5 1 -2 25 -24 21 0 0.25276903D-01 0.19227009D-01 0.19433240D+05 0.19433240D+05 0.19433240D+05 0.12352029D+01  1  2  2  1  5  1        1 0.196381201339D+00 0.100000000000D+01
-.304257260546D-04 0.000000000000D+00 -.210511102771D-05 0.234990705743D-02 0.000000000000D+00  5 1 -2 25 -24 21 2 0.25276903D-01 0.19227009D-01 0.19433240D+05 0.19433240D+05 0.19433240D+05 0.12352029D+01  1  2  3  1  5  1        1 -.166304290074D-01 0.100000000000D+01
0.378823634360D-04 0.000000000000D+00 0.000000000000D+00 0.234990705743D-02 0.000000000000D+00  5 1 -2 25 -24 21 2 0.25276903D-01 0.19227009D-01 0.19433240D+05 0.19433240D+05 0.19433240D+05 0.12352029D+01  1  2 15  1  5  1        1 0.207061601299D-01 0.100000000000D+01
0.606714583374D-03 0.000000000000D+00 -.348949778167D-03 0.234990705743D-02 0.000000000000D+00  5 1 -2 25 -24 21 2 0.17843550D+00 0.19227009D-01 0.19433240D+05 0.19433240D+05 0.19433240D+05 0.12352029D+01  1  2  5  1  5  1        1 0.231111479192D-01 0.100000000000D+01
0.111478926809D-03 0.000000000000D+00 -.833329210211D-04 0.234990705743D-02 0.000000000000D+00  5 21 -2 25 -24 -1 2 0.17843550D+00 0.19227009D-01 0.19433240D+05 0.19433240D+05 0.19433240D+05 0.12352029D+01  1  2  5  3  5  1        1 0.590069458917D-02 0.100000000000D+01
  </mgrwgt>
  </event>
  <event>
  5     66 0.47139866E-03 0.12141414E+03 0.75467711E-02 0.11825380E+00
        3 -1    0    0  501    0 0.00000000E+00 0.00000000E+00 0.43208383E+03 0.43208412E+03 0.50000000E+00 0.0000E+00 0.9000E+01
       21 -1    0    0  502  501 0.00000000E+00 0.00000000E+00 -.73018400E+02 0.73022251E+02 0.75000000E+00 0.0000E+00 0.9000E+01
       25  1    1    2    0    0 -.20656179E+02 0.10592736E+03 0.26729899E+03 0.31419903E+03 0.12500000E+03 0.0000E+00 0.9000E+01
      -24  1    1    2    0    0 0.24568986E+02 -.28940689E+02 0.61274234E+02 0.10799512E+03 0.80419002E+02 0.0000E+00 0.9000E+01
        4  1    1    2  502    0 -.39128069E+01 -.76986675E+02 0.30492210E+02 0.82912216E+02 0.15500000E+01 0.0000E+00 0.9000E+01
#aMCatNLO 2  0  0  2  1 0.77086044D+02 0.00000000D+00  -5  5  0 0.00000000D+00 0.00000000D+00 0.00000000D+00 0.00000000D+00 0.00000000D+00
  <mgrwgt>
 0.9876014576D-02    2    2    0
 0.126831861778521D+03 0.000000000000000D+00 0.000000000000000D+00 0.126831861778521D+03
 0.126831861778521D+03 0.000000000000000D+00 0.000000000000000D+00 -.126831861778521D+03
 0.144882893903283D+03 -.230241687247709D+02 0.593358380961805D+02 0.362656713400835D+02
 0.108780829653760D+03 0.230241687247709D+02 -.593358380961805D+02 -.362656713400835D+02
 0.000000000000000D+00 -.000000000000000D+00 -.000000000000000D+00 -.000000000000000D+00
 0.152576277814413D+03 0.000000000000000D+00 0.000000000000000D+00 0.152576277814413D+03
 0.206773066289464D+03 0.000000000000000D+00 0.000000000000000D+00 -.206773066289464D+03
 0.169078334239743D+03 -.206561791830219D+02 0.105927364043000D+03 0.362656713400835D+02
 0.960396449663375D+02 0.245689860409252D+02 -.289406886245558D+02 -.362656713400835D+02
 0.942313648977963D+02 -.391280685790334D+01 -.769866754184442D+02 -.541967884750517D+02
-.246137959280D-05 0.000000000000D+00 0.000000000000D+00 0.247524988987D-02 0.000000000000D+00  5 3 21 25 -24 4 2 0.55256227D-01 0.11571533D-01 0.27416494D+05 0.27416494D+05 0.27416494D+05 0.12190246D+01  1  2 13  4  5  2       -4 -.366634049285D-02 0.100000000000D+01
0.126447397821D-04 0.000000000000D+00 0.000000000000D+00 0.247524988987D-02 0.273742973153D-06  5 3 21 25 -24 4 2 0.66472172D-01 0.11233482D-01 0.27416494D+05 0.27416494D+05 0.27416494D+05 0.12190246D+01  1  2  1  4  5  2       -4 0.135423550684D-01 0.100000000000D+01
  </mgrwgt>
  </event>
  <event>
  4     66 0.47139866E-03 0.41458244E+02 0.75467711E-02 0.12312662E+00
        1 -1    0    0  501    0 0.00000000E+00 0.00000000E+00 0.24822372E+04 0.24822372E+04 0.32000000E+00 0.0000E+00 0.9000E+01
       -2 -1    0    0    0  501 0.00000000E+00 0.00000000E+00 -.46639676E+01 0.46749325E+01 0.32000000E+00 0.0000E+00 0.9000E+01
       25  1    1    2    0    0 0.28349051E+02 0.22755691E+01 0.13251138E+04 0.13313003E+04 0.12500000E+03 0.0000E+00 0.9000E+01
      -24  1    1    2    0    0 -.28349051E+02 -.22755691E+01 0.11524594E+04 0.11556118E+04 0.80419002E+02 0.0000E+00 0.9000E+01
#aMCatNLO 1  0  0  1  2 0.38081442D+02 0.00000000D+00  -5  5  0 0.00000000D+00 0.00000000D+00 0.00000000D+00 0.00000000D+00 0.00000000D+00
  <mgrwgt>
 0.3829540018D+00    9    2    0
 0.107660269759252D+03 0.000000000000000D+00 0.000000000000000D+00 0.107660269759252D+03
 0.107660269759252D+03 0.000000000000000D+00 0.000000000000000D+00 -.107660269759252D+03
 0.128925737666094D+03 0.283490508140978D+02 0.227556910190159D+01 -.137112703987886D+02
 0.863948018524093D+02 -.283490508140978D+02 -.227556910190159D+01 0.137112703987886D+02
 0.000000000000000D+00 -.000000000000000D+00 -.000000000000000D+00 0.000000000000000D+00
 0.140758763655523D+03 0.000000000000000D+00 0.000000000000000D+00 0.140758763655523D+03
 0.120867043438619D+03 0.000000000000000D+00 0.000000000000000D+00 -.120867043438619D+03
 0.133031623885291D+03 0.362678399518514D+02 0.238549324634485D+02 -.137112703987886D+02
 0.856305150180062D+02 -.231488449386662D+02 0.118954272699784D+02 0.137112703987886D+02
 0.429636681908445D+02 -.131189950131852D+02 -.357503597334269D+02 0.198917202169037D+02
0.438533387444D-03 0.000000000000D+00 0.000000000000D+00 0.303712262832D-02 0.000000000000D+00  5 1 -2 25 -24 21 0 0.38188349D+00 0.71837852D-03 0.11394966D+05 0.11394966D+05 0.11394966D+05 0.12616659D+01  1  2  2  1  5  1        1 0.213508921356D+00 0.100000000000D+01
-.243608171422D-04 0.000000000000D+00 -.168408367628D-05 0.303712262832D-02 0.000000000000D+00  5 1 -2 25 -24 21 2 0.38188349D+00 0.71837852D-03 0.11394966D+05 0.11394966D+05 0.11394966D+05 0.12616659D+01  1  2  3  1  5  1        1 -.188796506742D-01 0.100000000000D+01
0.303274471423D-04 0.000000000000D+00 0.000000000000D+00 0.303712262832D-02 0.000000000000D+00  5 1 -2 25 -24 21 2 0.38188349D+00 0.71837852D-03 0.11394966D+05 0.11394966D+05 0.11394966D+05 0.12616659D+01  1  2 15  1  5  1        1 0.235037931833D-01 0.100000000000D+01
0.270750730574D-03 0.000000000000D+00 0.000000000000D+00 0.303712262832D-02 0.000000000000D+00  5 1 -2 25 -24 21 2 0.51709158D+00 0.71837852D-03 0.16247357D+05 0.16247357D+05 0.16247357D+05 0.12438870D+01  1  2 12  1  5  1        1 0.515072871441D-01 0.100000000000D+01
-.302995082727D-03 0.000000000000D+00 0.000000000000D+00 0.303712262832D-02 0.000000000000D+00  5 1 -2 25 -24 21 2 0.38188349D+00 0.71837852D-03 0.11394966D+05 0.11394966D+05 0.11394966D+05 0.12616659D+01  1  2  4  1  5  1        1 -.234821405395D+00 0.100000000000D+01
-.563539103577D-03 0.000000000000D+00 -.170051122163D-03 0.303712262832D-02 0.000000000000D+00  5 1 -2 25 -24 21 2 0.51568209D+00 0.71837852D-03 0.11394966D+05 0.11394966D+05 0.11394966D+05 0.12616659D+01  1  2  5  1  5  1        1 -.112382207185D+00 0.100000000000D+01
0.594968486013D-03 0.000000000000D+00 0.162657873111D-03 0.303712262832D-02 0.000000000000D+00  5 1 -2 25 -24 21 2 0.38188349D+00 0.71837852D-03 0.11394966D+05 0.11394966D+05 0.11394966D+05 0.12616659D+01  1  2  6  1  5  1        1 0.461101001354D+00 0.100000000000D+01
0.105440555080D-04 0.000000000000D+00 0.000000000000D+00 0.303712262832D-02 0.000000000000D+00  5 21 -2 25 -24 -1 2 0.51709158D+00 0.71837852D-03 0.16247357D+05 0.16247357D+05 0.16247357D+05 0.12438870D+01  1  2 12  3  5  1        1 0.670095452036D-03 0.100000000000D+01
-.179832105980D-04 0.000000000000D+00 -.657930420821D-05 0.303712262832D-02 0.000000000000D+00  5 21 -2 25 -24 -1 2 0.51568209D+00 0.71837852D-03 0.11394966D+05 0.11394966D+05 0.11394966D+05 0.12616659D+01  1  2  5  3  5  1        1 -.125383344867D-02 0.100000000000D+01
  </mgrwgt>
  </event>
  <event>
  4     66 0.47139866E-03 0.11803150E+03 0.75467711E-02 0.11900429E+00
        1 -1    0    0  501    0 0.00000000E+00 0.00000000E+00 0.13445969E+04 0.13445969E+04 0.32000000E+00 0.0000E+00 0.9000E+01
       -2 -1    0    0    0  501 0.00000000E+00 0.00000000E+00 -.10601076E+02 0.10605905E+02 0.32000000E+00 0.0000E+00 0.9000E+01
       25  1    1    2    0    0 0.45032390E+02 -.35123361E+02 0.67299695E+03 0.68688533E+03 0.12500000E+03 0.0000E+00 0.9000E+01
      -24  1    1    2    0    0 -.45032390E+02 0.35123361E+02 0.66099887E+03 0.66831751E+03 0.80419002E+02 0.0000E+00 0.9000E+01
#aMCatNLO 1  0  0  2  2 0.71049770D+02 0.00000000D+00  -5  5  0 0.00000000D+00 0.00000000D+00 0.00000000D+00 0.00000000D+00 0.00000000D+00
  <mgrwgt>
 0.1788526520D+00    7    2    0
 0.119404656716043D+03 0.000000000000000D+00 0.000000000000000D+00 0.119404656716043D+03
 0.119404656716043D+03 0.000000000000000D+00 0.000000000000000D+00 -.119404656716043D+03
 0.138578498627853D+03 0.450323899735094D+02 -.351233609612777D+02 -.178166677582401D+02
 0.100230814804233D+03 -.450323899735094D+02 0.351233609612777D+02 0.178166677582401D+02
 0.000000000000000D+00 0.000000000000000D+00 0.000000000000000D+00 -.000000000000000D+00
 0.155671662527785D+03 0.000000000000000D+00 0.000000000000000D+00 0.155671662527785D+03
 0.165163864947336D+03 0.000000000000000D+00 0.000000000000000D+00 -.165163864947336D+03
 0.134302522547461D+03 0.662151408515118D+01 -.452867471102074D+02 -.178166677582401D+02
 0.114851963589938D+03 -.753075548458737D+02 0.271126560709577D+02 0.178166677582401D+02
 0.716810413377227D+02 0.686860407607225D+02 0.181740910392497D+02 -.949220241955113D+01
0.217755304866D-03 0.000000000000D+00 0.000000000000D+00 0.274098491036D-02 0.000000000000D+00  5 1 -2 25 -24 21 0 0.20686144D+00 0.16313092D-02 0.13931435D+05 0.13931435D+05 0.13931435D+05 0.12514981D+01  1  2  2  2  5  2       -2 0.175695126862D+00 0.100000000000D+01
-.120955490735D-04 0.000000000000D+00 -.836237706973D-06 0.274098491036D-02 0.000000000000D+00  5 1 -2 25 -24 21 2 0.20686144D+00 0.16313092D-02 0.13931435D+05 0.13931435D+05 0.13931435D+05 0.12514981D+01  1  2  3  2  5  2       -2 -.152854056674D-01 0.100000000000D+01
0.150662229056D-04 0.000000000000D+00 0.000000000000D+00 0.274098491036D-02 0.000000000000D+00  5 1 -2 25 -24 21 2 0.20686144D+00 0.16313092D-02 0.13931435D+05 0.13931435D+05 0.13931435D+05 0.12514981D+01  1  2 15  2  5  2       -2 0.190395101196D-01 0.100000000000D+01
-.656363286182D-04 0.000000000000D+00 0.000000000000D+00 0.274098491036D-02 0.000000000000D+00  5 1 -2 25 -24 21 2 0.20686144D+00 0.16313092D-02 0.13931435D+05 0.13931435D+05 0.13931435D+05 0.12514981D+01  1  2  4  2  5  2       -2 -.829460410063D-01 0.100000000000D+01
-.784501697542D-04 0.000000000000D+00 -.673553635239D-04 0.274098491036D-02 0.000000000000D+00  5 1 -2 25 -24 21 2 0.20686144D+00 0.30266454D-02 0.13931435D+05 0.13931435D+05 0.13931435D+05 0.12514981D+01  1  2  5  2  5  2       -2 -.404314232559D-01 0.100000000000D+01
0.109570197419D-03 0.000000000000D+00 0.562623879935D-04 0.274098491036D-02 0.000000000000D+00  5 1 -2 25 -24 21 2 0.20686144D+00 0.16313092D-02 0.13931435D+05 0.13931435D+05 0.13931435D+05 0.12514981D+01  1  2  6  2  5  2       -2 0.138466216493D+00 0.100000000000D+01
-.155007011988D-05 0.000000000000D+00 -.453903894836D-05 0.274098491036D-02 0.000000000000D+00  5 1 21 25 -24 2 2 0.20686144D+00 0.30266454D-02 0.13931435D+05 0.13931435D+05 0.13931435D+05 0.12514981D+01  1  2  5  4  5  2       -2 -.156853315003D-01 0.100000000000D+01
  </mgrwgt>
  </event>
  <event>
  5     66 -.47139866E-03 0.12423886E+03 0.75467711E-02 0.12249389E+00
        1 -1    0    0  501    0 0.00000000E+00 0.00000000E+00 0.52243961E+03 0.52243970E+03 0.32000000E+00 0.0000E+00 0.9000E+01
       -2 -1    0    0    0  502 0.00000000E+00 0.00000000E+00 -.35401450E+02 0.35402897E+02 0.32000000E+00 0.0000E+00 0.9000E+01
       25  1    1    2    0    0 -.63597241E+02 -.12849072E+02 0.19957335E+03 0.24426263E+03 0.12500000E+03 0.0000E+00 0.9000E+01
      -24  1    1    2    0    0 0.72226878E+02 0.12129057E+01 0.27025197E+03 0.29106964E+03 0.80419002E+02 0.0000E+00 0.9000E+01
       21  1    1    2  501  502 -.86296362E+01 0.11636166E+02 0.17212839E+02 0.22510338E+02 0.75000000E+00 0.0000E+00 0.9000E+01
#aMCatNLO 2  0  0  2  1 0.14486925D+02 0.00000000D+00  -5  5  0 0.00000000D+00 0.00000000D+00 0.00000000D+00 0.00000000D+00 0.00000000D+00
  <mgrwgt>
 -.3072917736D-01    2    2    0
 0.128096577460504D+03 0.000000000000000D+00 0.000000000000000D+00 0.128096577460504D+03
 0.128096577460504D+03 0.000000000000000D+00 0.000000000000000D+00 -.128096577460504D+03
 0.145969389184246D+03 -.684800594543662D+02 -.626510000551313D+01 -.308754361567475D+02
 0.110223765736762D+03 0.684800594543662D+02 0.626510000551313D+01 0.308754361567475D+02
 0.000000000000000D+00 -.000000000000000D+00 0.000000000000000D+00 -.000000000000000D+00
 0.133362600071537D+03 0.000000000000000D+00 0.000000000000000D+00 0.133362600071537D+03
 0.138667486880384D+03 0.000000000000000D+00 0.000000000000000D+00 -.138667486880384D+03
 0.144180443606161D+03 -.635972413935636D+02 -.128490718625454D+02 -.308754361567475D+02
 0.112421979632539D+03 0.722268776282556D+02 0.121290573918609D+01 0.308754361567475D+02
 0.154276637132201D+02 -.862963623469200D+01 0.116361661233593D+02 -.530488680884762D+01
-.383352216010D-03 0.000000000000D+00 0.000000000000D+00 0.251242168096D-02 0.000000000000D+00  5 1 -2 25 -24 21 2 0.77196493D-01 0.55429880D-02 0.17347754D+05 0.17347754D+05 0.17347754D+05 0.12406868D+01  1  2 13  2  5  2       -2 -.373215924682D+00 0.100000000000D+01
0.361110528654D-03 0.000000000000D+00 0.000000000000D+00 0.251242168096D-02 0.986359201981D-04  5 1 -2 25 -24 21 2 0.80370024D-01 0.54461286D-02 0.17347754D+05 0.17347754D+05 0.17347754D+05 0.12406868D+01  1  2  1  2  5  2       -2 0.342486747324D+00 0.100000000000D+01
  </mgrwgt>
  </event>
  <event>
  4     66 0.47139866E-03 0.11777982E+03 0.75467711E-02 0.11175046E+00
        1 -1    0    0  501    0 0.00000000E+00 0.00000000E+00 0.31256337E+03 0.31256353E+03 0.32000000E+00 0.0000E+00 0.9000E+01
       -2 -1    0    0    0  501 0.00000000E+00 0.00000000E+00 -.51097364E+02 0.51098366E+02 0.32000000E+00 0.0000E+00 0.9000E+01
       25  1    1    2    0    0 -.56599186E+02 0.59988131E+00 0.84335247E+02 0.16106291E+03 0.12500000E+03 0.0000E+00 0.9000E+01
      -24  1    1    2    0    0 0.56599186E+02 -.59988131E+00 0.17713076E+03 0.20259899E+03 0.80419002E+02 0.0000E+00 0.9000E+01
#aMCatNLO 1  0  0  2  1 0.18823202D+03 0.00000000D+00  -5  5  0 0.00000000D+00 0.00000000D+00 0.00000000D+00 0.00000000D+00 0.00000000D+00
  <mgrwgt>
 0.1916721764D+00    5    2    0
 0.126377909644211D+03 0.000000000000000D+00 0.000000000000000D+00 0.126377909644211D+03
 0.126377909644211D+03 0.000000000000000D+00 0.000000000000000D+00 -.126377909644211D+03
 0.144493781459568D+03 -.565991860440734D+02 0.599881307019159D+00 -.452727861087802D+02
 0.108262037828853D+03 0.565991860440734D+02 -.599881307019159D+00 0.452727861087802D+02
 0.000000000000000D+00 0.000000000000000D+00 0.000000000000000D+00 -.000000000000000D+00
 0.192115521555132D+03 0.000000000000000D+00 0.000000000000000D+00 0.192115521555132D+03
 0.414004093773633D+03 0.000000000000000D+00 0.000000000000000D+00 -.414004093773633D+03
 0.222293854665998D+03 -.178147953453547D+03 -.179981680430992D+01 -.452727861087802D+02
 0.928518229590938D+02 -.100473949201958D+02 -.191566325919412D+01 0.452727861087802D+02
 0.290973937703674D+03 0.188195348373743D+03 0.371548006350403D+01 -.221888572218501D+03
0.270408657530D-03 0.000000000000D+00 0.000000000000D+00 0.237255347013D-02 0.000000000000D+00  5 1 -2 25 -24 21 0 0.48086762D-01 0.78612225D-02 0.13872086D+05 0.13872086D+05 0.13872086D+05 0.12517115D+01  1  2  2  2  5  2       -2 0.181129938427D+00 0.100000000000D+01
-.149320231379D-04 0.000000000000D+00 -.103844044515D-05 0.237255347013D-02 0.000000000000D+00  5 1 -2 25 -24 21 2 0.48086762D-01 0.78612225D-02 0.13872086D+05 0.13872086D+05 0.13872086D+05 0.12517115D+01  1  2  3  2  5  2       -2 -.156710023191D-01 0.100000000000D+01
0.187141619413D-04 0.000000000000D+00 0.000000000000D+00 0.237255347013D-02 0.000000000000D+00  5 1 -2 25 -24 21 2 0.48086762D-01 0.78612225D-02 0.13872086D+05 0.13872086D+05 0.13872086D+05 0.12517115D+01  1  2 15  2  5  2       -2 0.196403174891D-01 0.100000000000D+01
0.335882519975D-04 0.000000000000D+00 -.101819760298D-03 0.237255347013D-02 0.000000000000D+00  5 1 -2 25 -24 21 2 0.48086762D-01 0.38058874D-01 0.13872086D+05 0.13872086D+05 0.13872086D+05 0.12517115D+01  1  2  5  2  5  2       -2 0.252536112235D-02 0.100000000000D+01
0.417381439924D-05 0.000000000000D+00 -.195320518172D-04 0.237255347013D-02 0.000000000000D+00  5 1 21 25 -24 2 2 0.48086762D-01 0.38058874D-01 0.13872086D+05 0.13872086D+05 0.13872086D+05 0.12517115D+01  1  2  5  4  5  2       -2 0.404756170449D-02 0.100000000000D+01
  </mgrwgt>
  </event>
  <event>
  4     66 0.47139866E-03 0.69213252E+02 0.75467711E-02 0.12134486E+00
        1 -1    0    0  501    0 0.00000000E+00 0.00000000E+00 0.38815533E+02 0.38816852E+02 0.32000000E+00 0.0000E+00 0.9000E+01
       -2 -1    0    0    0  501 0.00000000E+00 0.00000000E+00 -.41537295E+03 0.41537307E+03 0.32000000E+00 0.0000E+00 0.9000E+01
       25  1    1    2    0    0 -.65467053E+02 -.31389366E+02 -.23548422E+03 0.27631331E+03 0.12500000E+03 0.0000E+00 0.9000E+01
      -24  1    1    2    0    0 0.65467053E+02 0.31389366E+02 -.14107320E+03 0.17787661E+03 0.80419002E+02 0.0000E+00 0.9000E+01
#aMCatNLO 1  0  0  2  1 0.25625930D+02 0.00000000D+00  -5  5  0 0.00000000D+00 0.00000000D+00 0.00000000D+00 0.00000000D+00 0.00000000D+00
  <mgrwgt>
 0.2165306146D+00    9    2    0
 0.126977359637135D+03 0.000000000000000D+00 0.000000000000000D+00 0.126977359637135D+03
 0.126977359637135D+03 0.000000000000000D+00 0.000000000000000D+00 -.126977359637135D+03
 0.145007707865748D+03 -.654670526836129D+02 -.313893659378042D+02 -.114458752143193D+02
 0.108947011408522D+03 0.654670526836129D+02 0.313893659378042D+02 0.114458752143193D+02
 0.000000000000000D+00 -.000000000000000D+00 0.000000000000000D+00 -.000000000000000D+00
 0.135779739341024D+03 0.000000000000000D+00 0.000000000000000D+00 0.135779739341024D+03
 0.147747341427776D+03 0.000000000000000D+00 0.000000000000000D+00 -.147747341427776D+03
 0.144917979611986D+03 -.577155192420191D+02 -.437507896388448D+02 -.114458752143193D+02
 0.110326389071916D+03 0.713296070211157D+02 0.220403102080845D+02 0.114458752143193D+02
 0.282827120848981D+02 -.136140877790966D+02 0.217104794307603D+02 -.119676020867520D+02
0.545014349468D-03 0.000000000000D+00 0.000000000000D+00 0.264566284645D-02 0.000000000000D+00  5 1 -2 25 -24 21 0 0.59717314D-02 0.63903642D-01 0.15989523D+05 0.15989523D+05 0.15989523D+05 0.12446720D+01  1  2  2  2  5  2       -2 0.137480876611D+00 0.100000000000D+01
-.302779365538D-04 0.000000000000D+00 -.209299860753D-05 0.264566284645D-02 0.000000000000D+00  5 1 -2 25 -24 21 2 0.59717314D-02 0.63903642D-01 0.15989523D+05 0.15989523D+05 0.15989523D+05 0.12446720D+01  1  2  3  2  5  2       -2 -.118323356057D-01 0.100000000000D+01
0.376362365534D-04 0.000000000000D+00 0.000000000000D+00 0.264566284645D-02 0.000000000000D+00  5 1 -2 25 -24 21 2 0.59717314D-02 0.63903642D-01 0.15989523D+05 0.15989523D+05 0.15989523D+05 0.12446720D+01  1  2 15  2  5  2       -2 0.147078907126D-01 0.100000000000D+01
0.609335745143D-03 0.000000000000D+00 0.000000000000D+00 0.264566284645D-02 0.000000000000D+00  5 1 -2 25 -24 21 2 0.59717314D-02 0.76296798D-01 0.19575123D+05 0.19575123D+05 0.19575123D+05 0.12348540D+01  1  2 12  2  5  2       -2 0.161925166619D+00 0.100000000000D+01
-.597676030621D-03 0.000000000000D+00 0.000000000000D+00 0.264566284645D-02 0.000000000000D+00  5 1 -2 25 -24 21 2 0.59717314D-02 0.63903642D-01 0.15989523D+05 0.15989523D+05 0.15989523D+05 0.12446720D+01  1  2  4  2  5  2       -2 -.233566226194D+00 0.100000000000D+01
-.136633742363D-02 0.000000000000D+00 -.335179684730D-03 0.264566284645D-02 0.000000000000D+00  5 1 -2 25 -24 21 2 0.59717314D-02 0.78451514D-01 0.15989523D+05 0.15989523D+05 0.15989523D+05 0.12446720D+01  1  2  5  2  5  2       -2 -.345180410690D+00 0.100000000000D+01
0.141220443973D-02 0.000000000000D+00 0.328251042084D-03 0.264566284645D-02 0.000000000000D+00  5 1 -2 25 -24 21 2 0.59717314D-02 0.63903642D-01 0.15989523D+05 0.15989523D+05 0.15989523D+05 0.12446720D+01  1  2  6  2  5  2       -2 0.551876342204D+00 0.100000000000D+01
0.158781599714D-04 0.000000000000D+00 0.000000000000D+00 0.264566284645D-02 0.000000000000D+00  5 1 21 25 -24 2 2 0.59717314D-02 0.76296798D-01 0.19575123D+05 0.19575123D+05 0.19575123D+05 0.12348540D+01  1  2 12  4  5  2       -2 0.509604677257D-01 0.100000000000D+01
-.358308119000D-04 0.000000000000D+00 -.977853351709D-05 0.264566284645D-02 0.000000000000D+00  5 1 21 25 -24 2 2 0.59717314D-02 0.78451514D-01 0.15989523D+05 0.15989523D+05 0.15989523D+05 0.12446720D+01  1  2  5  4  5  2       -2 -.109841156734D+00 0.100000000000D+01
  </mgrwgt>
  </event>
  <event>
  5     66 0.47139866E-03 0.13084258E+03 0.75467711E-02 0.12194188E+00
        1 -1    0    0  501    0 0.00000000E+00 0.00000000E+00 0.19448454E+03 0.19448480E+03 0.32000000E+00 0.0000E+00 0.9000E+01
       21 -1    0    0  502  501 0.00000000E+00 0.00000000E+00 -.10310363E+03 0.10310636E+03 0.75000000E+00 0.0000E+00 0.9000E+01
       25  1    1    2    0    0 0.80533773E+02 0.25859878E+02 0.76624593E+02 0.16926532E+03 0.12500000E+03 0.0000E+00 0.9000E+01
      -24  1    1    2    0    0 -.71310076E+02 -.27247405E+02 0.18893208E-01 0.11088176E+03 0.80419002E+02 0.0000E+00 0.9000E+01
        2  1    1    2  502    0 -.92236974E+01 0.13875271E+01 0.14737418E+02 0.17444074E+02 0.32000000E+00 0.0000E+00 0.9000E+01
#aMCatNLO 2  0  0  2  1 0.93274769D+01 0.00000000D+00  -5  5  0 0.00000000D+00 0.00000000D+00 0.00000000D+00 0.00000000D+00 0.00000000D+00
  <mgrwgt>
 0.4933790481D-01    1    2    0
 0.134648767430044D+03 0.000000000000000D+00 0.000000000000000D+00 0.134648767430044D+03
 0.134648767430044D+03 0.000000000000000D+00 0.000000000000000D+00 -.134648767430044D+03
 0.151651864117111D+03 0.752977490634517D+02 0.266475368650039D+02 0.315189729401246D+02
 0.117645670742978D+03 -.752977490634517D+02 -.266475368650039D+02 -.315189729401246D+02
 0.000000000000000D+00 -.000000000000000D+00 0.000000000000000D+00 0.000000000000000D+00
 0.146879772104111D+03 0.000000000000000D+00 0.000000000000000D+00 0.146879772104111D+03
 0.136519633093197D+03 0.000000000000000D+00 0.000000000000000D+00 -.136519633093197D+03
 0.154184524431202D+03 0.805337731583306D+02 0.258598781852903D+02 0.315189729401246D+02
 0.115274496771137D+03 -.713100757356440D+02 -.272474052864616D+02 -.315189729401246D+02
 0.139403839949703D+02 -.922369742268660D+01 0.138752710117132D+01 0.103601390109141D+02
0.554543369464D-05 0.000000000000D+00 0.000000000000D+00 0.243558868672D-02 0.616404822509D-06  5 1 21 25 -24 2 2 0.29920529D-01 0.15862116D-01 0.18378922D+05 0.18378922D+05 0.18378922D+05 0.12378881D+01  1  2  1  4  5  2       -2 0.493379048138D-01 0.100000000000D+01
  </mgrwgt>
  </event>
  <event>
  4     66 0.47139866E-03 0.12483483E+03 0.75467711E-02 0.98300629E-01
        1 -1    0    0  501    0 0.00000000E+00 0.00000000E+00 0.74746555E+02 0.74747240E+02 0.32000000E+00 0.0000E+00 0.9000E+01
       -2 -1    0    0    0  501 0.00000000E+00 0.00000000E+00 -.26343054E+03 0.26343073E+03 0.32000000E+00 0.0000E+00 0.9000E+01
       25  1    1    2    0    0 0.19368281E+02 0.67073421E+02 -.28751010E+02 0.14603285E+03 0.12500000E+03 0.0000E+00 0.9000E+01
      -24  1    1    2    0    0 -.19368281E+02 -.67073421E+02 -.15993297E+03 0.19214512E+03 0.80419002E+02 0.0000E+00 0.9000E+01
#aMCatNLO 1  0  0  1  2 0.61423880D+03 0.00000000D+00  -5  5  0 0.00000000D+00 0.00000000D+00 0.00000000D+00 0.00000000D+00 0.00000000D+00
  <mgrwgt>
 0.2248343263D+00    5    2    0
 0.140323461374386D+03 0.000000000000000D+00 0.000000000000000D+00 0.140323461374386D+03
 0.140323461374386D+03 0.000000000000000D+00 0.000000000000000D+00 -.140323461374386D+03
 0.156638951236050D+03 0.193682810180599D+02 0.670734211778573D+02 0.635357136281079D+02
 0.124007971512723D+03 -.193682810180599D+02 -.670734211778573D+02 -.635357136281079D+02
 0.000000000000000D+00 -.000000000000000D+00 -.000000000000000D+00 0.000000000000000D+00
 0.106439012695002D+04 0.000000000000000D+00 0.000000000000000D+00 0.106439012695002D+04
 0.467447805644486D+03 0.000000000000000D+00 0.000000000000000D+00 -.467447805644486D+03
 0.462179057995019D+03 0.397923113890645D+03 0.188692581132653D+03 0.635357136281079D+02
 0.213137164431299D+03 0.186876396233144D+03 -.812731274363401D+00 -.635357136281079D+02
 0.856521710168187D+03 -.584799510123789D+03 -.187879849858289D+03 0.596942321305534D+03
0.741843250922D-03 0.000000000000D+00 0.000000000000D+00 0.203602038165D-02 0.000000000000D+00  5 1 -2 25 -24 21 0 0.11499538D-01 0.40527843D-01 0.15583734D+05 0.15583734D+05 0.15583734D+05 0.12459368D+01  1  2  2  1  5  1        1 0.192351042933D+00 0.100000000000D+01
-.405280471870D-04 0.000000000000D+00 -.284887341535D-05 0.203602038165D-02 0.000000000000D+00  5 1 -2 25 -24 21 2 0.11499538D-01 0.40527843D-01 0.15583734D+05 0.15583734D+05 0.15583734D+05 0.12459368D+01  1  2  3  1  5  1        1 -.163128593144D-01 0.100000000000D+01
0.512242683601D-04 0.000000000000D+00 0.000000000000D+00 0.203602038165D-02 0.000000000000D+00  5 1 -2 25 -24 21 2 0.11499538D-01 0.40527843D-01 0.15583734D+05 0.15583734D+05 0.15583734D+05 0.12459368D+01  1  2 15  1  5  1        1 0.206181728764D-01 0.100000000000D+01
0.360503556299D-02 0.000000000000D+00 -.120516938223D-02 0.203602038165D-02 0.000000000000D+00  5 1 -2 25 -24 21 2 0.23006195D+00 0.40527843D-01 0.15583734D+05 0.15583734D+05 0.15583734D+05 0.12459368D+01  1  2  5  1  5  1        1 0.222983042764D-01 0.100000000000D+01
0.851166235651D-03 0.000000000000D+00 -.387604017127D-03 0.203602038165D-02 0.000000000000D+00  5 21 -2 25 -24 -1 2 0.23006195D+00 0.40527843D-01 0.15583734D+05 0.15583734D+05 0.15583734D+05 0.12459368D+01  1  2  5  3  5  1        1 0.587966556632D-02 0.100000000000D+01
  </mgrwgt>
  </event>
  <event>
  4     66 0.47139866E-03 0.63268779E+02 0.75467711E-02 0.12354225E+00
        1 -1    0    0  501    0 0.00000000E+00 0.00000000E+00 0.69666736E+02 0.69667471E+02 0.32000000E+00 0.0000E+00 0.9000E+01
       -2 -1    0    0    0  501 0.00000000E+00 0.00000000E+00 -.21704313E+03 0.21704337E+03 0.32000000E+00 0.0000E+00 0.9000E+01
       25  1    1    2    0    0 0.49844848E+02 0.43745877E+02 -.79235824E+02 0.16217745E+03 0.12500000E+03 0.0000E+00 0.9000E+01
      -24  1    1    2    0    0 -.49844848E+02 -.43745877E+02 -.68140574E+02 0.12453339E+03 0.80419002E+02 0.0000E+00 0.9000E+01
#aMCatNLO 1  0  0  2  1 0.37784987D+01 0.00000000D+00  -5  5  0 0.00000000D+00 0.00000000D+00 0.00000000D+00 0.00000000D+00 0.00000000D+00
  <mgrwgt>
 0.9331688753D-01   11    2    0
 0.122966767040587D+03 0.000000000000000D+00 0.000000000000000D+00 0.122966767040587D+03
 0.122966767040587D+03 0.000000000000000D+00 0.000000000000000D+00 -.122966767040587D+03
 0.141585179693916D+03 0.498448479451611D+02 0.437458769557339D+02 0.481170361264818D+01
 0.104348354387259D+03 -.498448479451611D+02 -.437458769557339D+02 -.481170361264818D+01
 0.000000000000000D+00 -.000000000000000D+00 0.000000000000000D+00 -.000000000000000D+00
 0.124236492249012D+03 0.000000000000000D+00 0.000000000000000D+00 0.124236492249012D+03
 0.125824831218610D+03 0.000000000000000D+00 0.000000000000000D+00 -.125824831218610D+03
 0.141305498014764D+03 0.507411653231300D+02 0.417663191961580D+02 0.481170361264818D+01
 0.104657060595944D+03 -.491826303455696D+02 -.452084146907153D+02 -.481170361264818D+01
 0.409876485691421D+01 -.155853497756038D+01 0.344209549455727D+01 -.158833896959823D+01
0.293616255555D-03 0.000000000000D+00 0.000000000000D+00 0.272590703084D-02 0.000000000000D+00  5 1 -2 25 -24 21 0 0.10718034D-01 0.33391326D-01 0.15097129D+05 0.15097129D+05 0.15097129D+05 0.12475031D+01  1  2  2  2  5  2       -2 0.119601502545D+00 0.100000000000D+01
-.163120020011D-04 0.000000000000D+00 -.112756373227D-05 0.272590703084D-02 0.000000000000D+00  5 1 -2 25 -24 21 2 0.10718034D-01 0.33391326D-01 0.15097129D+05 0.15097129D+05 0.15097129D+05 0.12475031D+01  1  2  3  2  5  2       -2 -.103406318034D-01 0.100000000000D+01
0.203047271038D-04 0.000000000000D+00 0.000000000000D+00 0.272590703084D-02 0.000000000000D+00  5 1 -2 25 -24 21 2 0.10718034D-01 0.33391326D-01 0.15097129D+05 0.15097129D+05 0.15097129D+05 0.12475031D+01  1  2 15  2  5  2       -2 0.128717313077D-01 0.100000000000D+01
0.278144462220D-04 0.000000000000D+00 0.000000000000D+00 0.272590703084D-02 0.000000000000D+00  5 1 -2 25 -24 21 2 0.10718034D-01 0.34336899D-01 0.15568606D+05 0.15568606D+05 0.15568606D+05 0.12459846D+01  1  2 12  2  5  2       -2 0.167302819430D-01 0.100000000000D+01
-.181498649861D-02 0.000000000000D+00 0.000000000000D+00 0.272590703084D-02 0.000000000000D+00  5 1 -2 25 -24 21 2 0.10718034D-01 0.33391326D-01 0.15097129D+05 0.15097129D+05 0.15097129D+05 0.12475031D+01  1  2  4  2  5  2       -2 -.115057042716D+01 0.100000000000D+01
-.833309557113D-02 0.000000000000D+00 -.106909831692D-02 0.272590703084D-02 0.000000000000D+00  5 1 -2 25 -24 21 2 0.10718034D-01 0.34484107D-01 0.15097129D+05 0.15097129D+05 0.15097129D+05 0.12475031D+01  1  2  5  2  5  2       -2 -.497987734000D+01 0.100000000000D+01
0.836374021888D-02 0.000000000000D+00 0.106854423249D-02 0.272590703084D-02 0.000000000000D+00  5 1 -2 25 -24 21 2 0.10718034D-01 0.33391326D-01 0.15097129D+05 0.15097129D+05 0.15097129D+05 0.12475031D+01  1  2  6  2  5  2       -2 0.530200757068D+01 0.100000000000D+01
0.178920041391D-02 0.000000000000D+00 0.000000000000D+00 0.272590703084D-02 0.158136812271D-02  5 1 -2 25 -24 21 2 0.10828706D-01 0.34167426D-01 0.15568606D+05 0.15568606D+05 0.15568606D+05 0.12459846D+01  1  2 11  2  5  2       -2 0.107142362566D+01 0.100000000000D+01
0.731397132034D-06 0.000000000000D+00 0.000000000000D+00 0.272590703084D-02 0.000000000000D+00  5 1 21 25 -24 2 2 0.10718034D-01 0.34336899D-01 0.15568606D+05 0.15568606D+05 0.15568606D+05 0.12459846D+01  1  2 12  4  5  2       -2 0.572733479271D-02 0.100000000000D+01
-.475715034408D-04 0.000000000000D+00 -.615442399480D-05 0.272590703084D-02 0.000000000000D+00  5 1 21 25 -24 2 2 0.10718034D-01 0.34484107D-01 0.15097129D+05 0.15097129D+05 0.15097129D+05 0.12475031D+01  1  2  5  4  5  2       -2 -.370170951962D+00 0.100000000000D+01
0.973180859622D-05 0.000000000000D+00 0.000000000000D+00 0.272590703084D-02 0.662192041765D-05  5 1 21 25 -24 2 2 0.10828706D-01 0.34167426D-01 0.15568606D+05 0.15568606D+05 0.15568606D+05 0.12459846D+01  1  2 11  4  5  2       -2 0.759141915256D-01 0.100000000000D+01
  </mgrwgt>
  </event>
  <event>
  4     66 0.47139866E-03 0.88559813E+02 0.75467711E-02 0.11642509E+00
        1 -1    0    0  501    0 0.00000000E+00 0.00000000E+00 0.22257491E+03 0.22257514E+03 0.32000000E+00 0.0000E+00 0.9000E+01
       -2 -1    0    0    0  501 0.00000000E+00 0.00000000E+00 -.11872433E+03 0.11872476E+03 0.32000000E+00 0.0000E+00 0.9000E+01
       25  1    1    2    0    0 0.84747735E+02 0.91153447E+02 0.46672540E+02 0.18246768E+03 0.12500000E+03 0.0000E+00 0.9000E+01
      -24  1    1    2    0    0 -.84747735E+02 -.91153447E+02 0.57178040E+02 0.15883222E+03 0.80419002E+02 0.0000E+00 0.9000E+01
#aMCatNLO 1  0  0  2  1 0.40355960D+02 0.00000000D+00  -5  5  0 0.00000000D+00 0.00000000D+00 0.00000000D+00 0.00000000D+00 0.00000000D+00
  <mgrwgt>
 0.2377810282D+00    9    2    0
 0.162558204772009D+03 0.000000000000000D+00 0.000000000000000D+00 0.162558204772009D+03
 0.162558204772009D+03 0.000000000000000D+00 0.000000000000000D+00 -.162558204772009D+03
 0.176642058703703D+03 0.847477345868785D+02 0.911534468006812D+02 -.928910769824827D+01
 0.148474350840315D+03 -.847477345868785D+02 -.911534468006812D+02 0.928910769824827D+01
 0.000000000000000D+00 0.000000000000000D+00 -.000000000000000D+00 -.000000000000000D+00
 0.169394693249051D+03 0.000000000000000D+00 0.000000000000000D+00 0.169394693249051D+03
 0.236654975388438D+03 0.000000000000000D+00 0.000000000000000D+00 -.236654975388438D+03
 0.170414946361022D+03 0.638850276149627D+02 0.961700039931148D+02 -.928910769824827D+01
 0.157196535868093D+03 -.103122589570871D+03 -.867351078452447D+02 0.928910769824827D+01
 0.784381864083736D+02 0.392375619559086D+02 -.943489614787004D+01 -.672602821393867D+02
0.698510472569D-03 0.000000000000D+00 0.000000000000D+00 0.231489005836D-02 0.000000000000D+00  5 1 -2 25 -24 21 0 0.34242345D-01 0.18265332D-01 0.26338228D+05 0.26338228D+05 0.26338228D+05 0.12208771D+01  1  2  2  2  5  2       -2 0.188128941914D+00 0.100000000000D+01
-.388060092560D-04 0.000000000000D+00 -.268246413670D-05 0.231489005836D-02 0.000000000000D+00  5 1 -2 25 -24 21 2 0.34242345D-01 0.18265332D-01 0.26338228D+05 0.26338228D+05 0.26338228D+05 0.12208771D+01  1  2  3  2  5  2       -2 -.155784969191D-01 0.100000000000D+01
0.482911459900D-04 0.000000000000D+00 0.000000000000D+00 0.231489005836D-02 0.000000000000D+00  5 1 -2 25 -24 21 2 0.34242345D-01 0.18265332D-01 0.26338228D+05 0.26338228D+05 0.26338228D+05 0.12208771D+01  1  2 15  2  5  2       -2 0.193862621653D-01 0.100000000000D+01
0.134400512704D-02 0.000000000000D+00 0.000000000000D+00 0.231489005836D-02 0.000000000000D+00  5 1 -2 25 -24 21 2 0.34242345D-01 0.26837923D-01 0.33752926D+05 0.33752926D+05 0.33752926D+05 0.12095622D+01  1  2 12  2  5  2       -2 0.273787381563D+00 0.100000000000D+01
-.134682731612D-02 0.000000000000D+00 0.000000000000D+00 0.231489005836D-02 0.000000000000D+00  5 1 -2 25 -24 21 2 0.34242345D-01 0.18265332D-01 0.26338228D+05 0.26338228D+05 0.26338228D+05 0.12208771D+01  1  2  4  2  5  2       -2 -.540677735150D+00 0.100000000000D+01
-.163034189808D-02 0.000000000000D+00 -.264447752820D-03 0.231489005836D-02 0.000000000000D+00  5 1 -2 25 -24 21 2 0.34242345D-01 0.27492032D-01 0.26338228D+05 0.26338228D+05 0.26338228D+05 0.12208771D+01  1  2  5  2  5  2       -2 -.323059458158D+00 0.100000000000D+01
0.162167233823D-02 0.000000000000D+00 0.243782932896D-03 0.231489005836D-02 0.000000000000D+00  5 1 -2 25 -24 21 2 0.34242345D-01 0.18265332D-01 0.26338228D+05 0.26338228D+05 0.26338228D+05 0.12208771D+01  1  2  6  2  5  2       -2 0.651013026314D+00 0.100000000000D+01
0.621886299338D-04 0.000000000000D+00 0.000000000000D+00 0.231489005836D-02 0.000000000000D+00  5 1 21 25 -24 2 2 0.34242345D-01 0.26837923D-01 0.33752926D+05 0.33752926D+05 0.33752926D+05 0.12095622D+01  1  2 12  4  5  2       -2 0.167500818964D+00 0.100000000000D+01
-.695718808922D-04 0.000000000000D+00 -.127929003214D-04 0.231489005836D-02 0.000000000000D+00  5 1 21 25 -24 2 2 0.34242345D-01 0.27492032D-01 0.26338228D+05 0.26338228D+05 0.26338228D+05 0.12208771D+01  1  2  5  4  5  2       -2 -.182719712472D+00 0.100000000000D+01
  </mgrwgt>
  </event>
  <event>
  4     66 0.47139866E-03 0.10700037E+03 0.75467711E-02 0.12154159E+00
        1 -1    0    0  501    0 0.00000000E+00 0.00000000E+00 0.60649182E+02 0.60650026E+02 0.32000000E+00 0.0000E+00 0.9000E+01
       -2 -1    0    0    0  501 0.00000000E+00 0.00000000E+00 -.30872734E+03 0.30872751E+03 0.32000000E+00 0.0000E+00 0.9000E+01
       25  1    1    2    0    0 -.11359687E+02 -.27050781E+02 -.25499268E+02 0.13090454E+03 0.12500000E+03 0.0000E+00 0.9000E+01
      -24  1    1    2    0    0 0.11359687E+02 0.27050781E+02 -.22257889E+03 0.23847299E+03 0.80419002E+02 0.0000E+00 0.9000E+01
#aMCatNLO 1  0  0  1  1 0.56603880D+02 0.00000000D+00  -5  5  0 0.00000000D+00 0.00000000D+00 0.00000000D+00 0.00000000D+00 0.00000000D+00
  <mgrwgt>
 0.1055209730D+00    4    2    0
 0.136836571528826D+03 0.000000000000000D+00 0.000000000000000D+00 0.136836571528826D+03
 0.136836571528826D+03 0.000000000000000D+00 0.000000000000000D+00 -.136836571528826D+03
 0.153567815127143D+03 -.113596866053995D+02 -.270507805862635D+02 0.842453953212010D+02
 0.120105327930509D+03 0.113596866053995D+02 0.270507805862635D+02 -.842453953212010D+02
 0.000000000000000D+00 -.000000000000000D+00 0.000000000000000D+00 -.000000000000000D+00
 0.160222216751158D+03 0.000000000000000D+00 0.000000000000000D+00 0.160222216751158D+03
 0.178826057178744D+03 0.000000000000000D+00 0.000000000000000D+00 -.178826057178744D+03
 0.161670799789974D+03 -.348962020733815D+01 -.583350959775762D+02 0.842453953212010D+02
 0.117794740928904D+03 0.172989632340549D+02 0.344155115296692D+01 -.842453953212010D+02
 0.595827332110235D+02 -.138093430267167D+02 0.548935448246093D+02 -.186038404275859D+02
0.763008372857D-03 0.000000000000D+00 0.000000000000D+00 0.167402247442D-02 0.000000000000D+00  5 1 -2 25 -24 21 0 0.93307210D-02 0.47496592D-01 0.11449080D+05 0.11449080D+05 0.11449080D+05 0.12614233D+01  1  2  2  1  5  1        1 0.190249822537D+00 0.100000000000D+01
-.392715448481D-04 0.000000000000D+00 -.293015305649D-05 0.167402247442D-02 0.000000000000D+00  5 1 -2 25 -24 21 2 0.93307210D-02 0.47496592D-01 0.11449080D+05 0.11449080D+05 0.11449080D+05 0.12614233D+01  1  2  3  1  5  1        1 -.155809745864D-01 0.100000000000D+01
0.524016354677D-04 0.000000000000D+00 0.000000000000D+00 0.167402247442D-02 0.000000000000D+00  5 1 -2 25 -24 21 2 0.93307210D-02 0.47496592D-01 0.11449080D+05 0.11449080D+05 0.11449080D+05 0.12614233D+01  1  2 15  1  5  1        1 0.207903344182D-01 0.100000000000D+01
-.226687515693D-03 0.000000000000D+00 0.000000000000D+00 0.167402247442D-02 0.000000000000D+00  5 1 -2 25 -24 21 2 0.93307210D-02 0.47496592D-01 0.11449080D+05 0.11449080D+05 0.11449080D+05 0.12614233D+01  1  2  4  1  5  1        1 -.899382093250D-01 0.100000000000D+01
  </mgrwgt>
  </event>
  <event>
  4     66 0.47139866E-03 0.10556442E+03 0.75467711E-02 0.11644942E+00
        3 -1    0    0  501    0 0.00000000E+00 0.00000000E+00 0.10023472E+02 0.10035935E+02 0.50000000E+00 0.0000E+00 0.9000E+01
       -4 -1    0    0    0  501 0.00000000E+00 0.00000000E+00 -.12942107E+04 0.12942117E+04 0.15500000E+01 0.0000E+00 0.9000E+01
       25  1    1    2    0    0 -.23089276E+02 0.59142994E+01 -.51448162E+03 0.52998531E+03 0.12500000E+03 0.0000E+00 0.9000E+01
      -24  1    1    2    0    0 0.23089276E+02 -.59142994E+01 -.76970565E+03 0.77426230E+03 0.80419002E+02 0.0000E+00 0.9000E+01
#aMCatNLO 1  0  0  1  1 0.12324071D+03 0.00000000D+00  -5  5  0 0.00000000D+00 0.00000000D+00 0.00000000D+00 0.00000000D+00 0.00000000D+00
  <mgrwgt>
 0.1333780580D+00    5    2    0
 0.113935144848665D+03 0.000000000000000D+00 0.000000000000000D+00 0.113935144848665D+03
 0.113935144848665D+03 0.000000000000000D+00 0.000000000000000D+00 -.113935144848665D+03
 0.134029436337462D+03 -.230892758399659D+02 0.591429940506229D+01 0.420808294674775D+02
 0.938408533598678D+02 0.230892758399659D+02 -.591429940506229D+01 -.420808294674775D+02
 0.000000000000000D+00 0.000000000000000D+00 -.000000000000000D+00 0.000000000000000D+00
 0.196528755569083D+03 0.000000000000000D+00 0.000000000000000D+00 0.196528755569083D+03
 0.186205598290308D+03 0.000000000000000D+00 0.000000000000000D+00 -.186205598290308D+03
 0.164822686557860D+03 -.889557518971340D+02 0.430998375854832D+02 0.420808294674775D+02
 0.942393560508907D+02 -.183632676118338D+02 0.174881236403817D+02 -.420808294674775D+02
 0.123672311250641D+03 0.107319019508968D+03 -.605879612258648D+02 0.103231572787753D+02
0.241895457719D-02 0.000000000000D+00 0.000000000000D+00 0.257413747369D-02 0.000000000000D+00  5 3 -4 25 -24 21 0 0.15431026D-02 0.19911037D+00 0.11143847D+05 0.11143847D+05 0.11143847D+05 0.12628091D+01  1  2  2  1  5  1        3 0.954621073230D-01 0.100000000000D+01
-.133434935280D-03 0.000000000000D+00 -.928942250177D-05 0.257413747369D-02 0.000000000000D+00  5 3 -4 25 -24 21 2 0.15431026D-02 0.19911037D+00 0.11143847D+05 0.11143847D+05 0.11143847D+05 0.12628091D+01  1  2  3  1  5  1        3 -.839746659503D-02 0.100000000000D+01
0.166652650613D-03 0.000000000000D+00 0.000000000000D+00 0.257413747369D-02 0.000000000000D+00  5 3 -4 25 -24 21 2 0.15431026D-02 0.19911037D+00 0.11143847D+05 0.11143847D+05 0.11143847D+05 0.12628091D+01  1  2 15  1  5  1        3 0.104879585212D-01 0.100000000000D+01
0.455750213161D-03 0.000000000000D+00 -.941322144001D-03 0.257413747369D-02 0.000000000000D+00  5 3 -4 25 -24 21 2 0.46494301D-02 0.19911037D+00 0.11143847D+05 0.11143847D+05 0.11143847D+05 0.12628091D+01  1  2  5  1  5  1        3 0.529554875600D-02 0.100000000000D+01
0.103916260292D-03 0.000000000000D+00 -.118227021044D-03 0.257413747369D-02 0.000000000000D+00  5 21 -4 25 -24 -3 2 0.46494301D-02 0.19911037D+00 0.11143847D+05 0.11143847D+05 0.11143847D+05 0.12628091D+01  1  2  5  3  5  1        3 0.305299099574D-01 0.100000000000D+01
  </mgrwgt>
  </event>
  <event>
  4     66 0.47139866E-03 0.13860723E+03 0.75467711E-02 0.11907673E+00
        1 -1    0    0  501    0 0.00000000E+00 0.00000000E+00 0.19268406E+02 0.19271063E+02 0.32000000E+00 0.0000E+00 0.9000E+01
       -2 -1    0    0    0  501 0.00000000E+00 0.00000000E+00 -.12959363E+04 0.12959363E+04 0.32000000E+00 0.0000E+00 0.9000E+01
       25  1    1    2    0    0 0.53432944E+02 -.10613296E+03 -.71396271E+03 0.73449781E+03 0.12500000E+03 0.0000E+00 0.9000E+01
      -24  1    1    2    0    0 -.53432944E+02 0.10613296E+03 -.56270514E+03 0.58070955E+03 0.80419002E+02 0.0000E+00 0.9000E+01
#aMCatNLO 1  0  0  2  1 0.41375882D+00 0.00000000D+00  -5  5  0 0.00000000D+00 0.00000000D+00 0.00000000D+00 0.00000000D+00 0.00000000D+00
  <mgrwgt>
 0.3230256181D+00    9    2    0
 0.158026576453438D+03 0.000000000000000D+00 0.000000000000000D+00 0.158026576453438D+03
 0.158026576453438D+03 0.000000000000000D+00 0.000000000000000D+00 -.158026576453438D+03
 0.172514304168542D+03 0.534329436012198D+02 -.106132964232090D+03 -.411091038273991D+01
 0.143538848738335D+03 -.534329436012198D+02 0.106132964232090D+03 0.411091038273991D+01
 0.000000000000000D+00 0.000000000000000D+00 0.000000000000000D+00 -.000000000000000D+00
 0.158075649994091D+03 0.000000000000000D+00 0.000000000000000D+00 0.158075649994091D+03
 0.158901267073835D+03 0.000000000000000D+00 0.000000000000000D+00 -.158901267073835D+03
 0.172625369117062D+03 0.533638990724130D+02 -.106348073581126D+03 -.411091038273991D+01
 0.143428054624461D+03 -.534903507791233D+02 0.105954111238490D+03 0.411091038273991D+01
 0.923493326402333D+00 0.126451706710300D+00 0.393962342635353D+00 -.825617079743972D+00
0.353155179579D-02 0.000000000000D+00 0.000000000000D+00 0.234911914311D-02 0.000000000000D+00  5 1 -2 25 -24 21 0 0.29645775D-02 0.19937502D+00 0.24955356D+05 0.24955356D+05 0.24955356D+05 0.12233809D+01  1  2  2  2  5  2       -2 0.153935567129D+00 0.100000000000D+01
-.196197294193D-03 0.000000000000D+00 -.135620887748D-04 0.234911914311D-02 0.000000000000D+00  5 1 -2 25 -24 21 2 0.29645775D-02 0.19937502D+00 0.24955356D+05 0.24955356D+05 0.24955356D+05 0.12233809D+01  1  2  3  2  5  2       -2 -.127994050429D-01 0.100000000000D+01
0.244352335866D-03 0.000000000000D+00 0.000000000000D+00 0.234911914311D-02 0.000000000000D+00  5 1 -2 25 -24 21 2 0.29645775D-02 0.19937502D+00 0.24955356D+05 0.24955356D+05 0.24955356D+05 0.12233809D+01  1  2 15  2  5  2       -2 0.159409156624D-01 0.100000000000D+01
-.585761657598D+00 0.000000000000D+00 0.000000000000D+00 0.234911914311D-02 0.000000000000D+00  5 1 -2 25 -24 21 2 0.29645775D-02 0.19937502D+00 0.24955356D+05 0.24955356D+05 0.24955356D+05 0.12233809D+01  1  2  4  2  5  2       -2 -.382135785563D+02 0.100000000000D+01
-.114003566918D+01 0.000000000000D+00 -.598552784515D-01 0.234911914311D-02 0.000000000000D+00  5 1 -2 25 -24 21 2 0.29645775D-02 0.20050507D+00 0.24955356D+05 0.24955356D+05 0.24955356D+05 0.12233809D+01  1  2  5  2  5  2       -2 -.731725648512D+02 0.100000000000D+01
0.114035671248D+01 0.000000000000D+00 0.598543224246D-01 0.234911914311D-02 0.000000000000D+00  5 1 -2 25 -24 21 2 0.29645775D-02 0.19937502D+00 0.24955356D+05 0.24955356D+05 0.24955356D+05 0.12233809D+01  1  2  6  2  5  2       -2 0.743939283997D+02 0.100000000000D+01
0.585770446597D+00 0.000000000000D+00 0.000000000000D+00 0.234911914311D-02 0.109509687342D+00  5 1 -2 25 -24 21 2 0.29654982D-02 0.20047857D+00 0.25020802D+05 0.25020802D+05 0.25020802D+05 0.12232589D+01  1  2 11  2  5  2       -2 0.375895466895D+02 0.100000000000D+01
-.119726115957D-02 0.000000000000D+00 -.628971684394D-04 0.234911914311D-02 0.000000000000D+00  5 1 21 25 -24 2 2 0.29645775D-02 0.20050507D+00 0.24955356D+05 0.24955356D+05 0.24955356D+05 0.12233809D+01  1  2  5  4  5  2       -2 -.878208309143D+00 0.100000000000D+01
0.609361986120D-03 0.000000000000D+00 0.000000000000D+00 0.234911914311D-02 0.112420338165D-03  5 1 21 25 -24 2 2 0.29654982D-02 0.20047857D+00 0.25020802D+05 0.25020802D+05 0.25020802D+05 0.12232589D+01  1  2 11  4  5  2       -2 0.446825167711D+00 0.100000000000D+01
  </mgrwgt>
  </event>
  <event>
  4     66 0.47139866E-03 0.63978964E+02 0.75467711E-02 0.12017472E+00
        1 -1    0    0  501    0 0.00000000E+00 0.00000000E+00 0.16523508E+04 0.16523509E+04 0.32000000E+00 0.0000E+00 0.9000E+01
       -2 -1    0    0    0  501 0.00000000E+00 0.00000000E+00 -.22268384E+02 0.22270683E+02 0.32000000E+00 0.0000E+00 0.9000E+01
       25  1    1    2    0    0 0.78597137E+02 -.59767955E+02 0.14203541E+04 0.14292588E+04 0.12500000E+03 0.0000E+00 0.9000E+01
      -24  1    1    2    0    0 -.78597137E+02 0.59767955E+02 0.20972832E+03 0.24536279E+03 0.80419002E+02 0.0000E+00 0.9000E+01
#aMCatNLO 1  0  0  1  2 0.11418014D+02 0.00000000D+00  -5  5  0 0.00000000D+00 0.00000000D+00 0.00000000D+00 0.00000000D+00 0.00000000D+00
  <mgrwgt>
 0.2998912297D+00    6    2    0
 0.191825789822637D+03 0.000000000000000D+00 0.000000000000000D+00 0.191825789822637D+03
 0.191825789822637D+03 0.000000000000000D+00 0.000000000000000D+00 -.191825789822637D+03
 0.203760816982042D+03 0.785971366913873D+02 -.597679548719066D+02 0.127058066298580D+03
 0.179890762663233D+03 -.785971366913873D+02 0.597679548719066D+02 -.127058066298580D+03
 0.000000000000000D+00 -.000000000000000D+00 0.000000000000000D+00 -.000000000000000D+00
 0.196448806940201D+03 0.000000000000000D+00 0.000000000000000D+00 0.196448806940201D+03
 0.199092781661878D+03 0.000000000000000D+00 0.000000000000000D+00 -.199092781661878D+03
 0.206229570476552D+03 0.846951939019277D+02 -.599049885846230D+02 0.127058066298580D+03
 0.177591879688709D+03 -.732800617756797D+02 0.596484711590888D+02 -.127058066298580D+03
 0.117201384368175D+02 -.114151321262480D+02 0.256517425534116D+00 -.264397472167650D+01
0.917467944262D-03 0.000000000000D+00 0.000000000000D+00 0.127919616264D-02 0.000000000000D+00  5 1 -2 25 -24 21 0 0.25420800D+00 0.34260844D-02 0.20540646D+05 0.20540646D+05 0.20540646D+05 0.12325528D+01  1  2  2  1  5  1        1 0.159289300556D+00 0.100000000000D+01
-.457042298769D-04 0.000000000000D+00 -.352331848082D-05 0.127919616264D-02 0.000000000000D+00  5 1 -2 25 -24 21 2 0.25420800D+00 0.34260844D-02 0.20540646D+05 0.20540646D+05 0.20540646D+05 0.12325528D+01  1  2  3  1  5  1        1 -.120548870860D-01 0.100000000000D+01
0.628879836325D-04 0.000000000000D+00 0.000000000000D+00 0.127919616264D-02 0.000000000000D+00  5 1 -2 25 -24 21 2 0.25420800D+00 0.34260844D-02 0.20540646D+05 0.20540646D+05 0.20540646D+05 0.12325528D+01  1  2 15  1  5  1        1 0.165872511975D-01 0.100000000000D+01
0.179996596632D-02 0.000000000000D+00 0.000000000000D+00 0.127919616264D-02 0.000000000000D+00  5 1 -2 25 -24 21 2 0.26500474D+00 0.34260844D-02 0.22191391D+05 0.22191391D+05 0.22191391D+05 0.12288857D+01  1  2 12  1  5  1        1 0.425512728336D+00 0.100000000000D+01
-.111418502638D-02 0.000000000000D+00 0.000000000000D+00 0.127919616264D-02 0.000000000000D+00  5 1 -2 25 -24 21 2 0.25420800D+00 0.34260844D-02 0.20540646D+05 0.20540646D+05 0.20540646D+05 0.12325528D+01  1  2  4  1  5  1        1 -.293875965575D+00 0.100000000000D+01
0.194862932567D-04 0.000000000000D+00 0.000000000000D+00 0.127919616264D-02 0.000000000000D+00  5 21 -2 25 -24 -1 2 0.26500474D+00 0.34260844D-02 0.22191391D+05 0.22191391D+05 0.22191391D+05 0.12288857D+01  1  2 12  3  5  1        1 0.443280223777D-02 0.100000000000D+01
  </mgrwgt>
  </event>
  <event>
  4     66 0.47139866E-03 0.14391275E+03 0.75467711E-02 0.10865927E+00
        1 -1    0    0  501    0 0.00000000E+00 0.00000000E+00 0.40195786E+03 0.40195798E+03 0.32000000E+00 0.0000E+00 0.9000E+01
       -2 -1    0    0    0  501 0.00000000E+00 0.00000000E+00 -.66536172E+02 0.66536941E+02 0.32000000E+00 0.0000E+00 0.9000E+01
       25  1    1    2    0    0 -.97465643E+02 -.20452422E+02 0.71329929E+02 0.17501661E+03 0.12500000E+03 0.0000E+00 0.9000E+01
      -24  1    1    2    0    0 0.97465643E+02 0.20452422E+02 0.26409175E+03 0.29347832E+03 0.80419002E+02 0.0000E+00 0.9000E+01
#aMCatNLO 1  0  0  1  2 0.23159279D+03 0.00000000D+00  -5  5  0 0.00000000D+00 0.00000000D+00 0.00000000D+00 0.00000000D+00 0.00000000D+00
  <mgrwgt>
 0.2443445943D+00    3    2    0
 0.163538824269026D+03 0.000000000000000D+00 0.000000000000000D+00 0.163538824269026D+03
 0.163538824269026D+03 0.000000000000000D+00 0.000000000000000D+00 -.163538824269026D+03
 0.177538227906912D+03 -.974656434937516D+02 -.204524218645939D+02 -.773108604695892D+02
 0.149539420631141D+03 0.974656434937516D+02 0.204524218645939D+02 0.773108604695892D+02
 0.000000000000000D+00 0.000000000000000D+00 0.000000000000000D+00 -.000000000000000D+00
 0.247520445785215D+03 0.000000000000000D+00 0.000000000000000D+00 0.247520445785215D+03
 0.484851952777514D+03 0.000000000000000D+00 0.000000000000000D+00 -.484851952777514D+03
 0.275353280071162D+03 -.196156804538016D+03 -.125459028104135D+03 -.773108604695892D+02
 0.125414741286890D+03 0.375494273677546D+02 -.432979530173470D+02 0.773108604695892D+02
 0.331604377204677D+03 0.158607377170261D+03 0.168756981121482D+03 -.237331506992300D+03
0.728056441075D-03 0.000000000000D+00 0.000000000000D+00 0.183590610527D-02 0.000000000000D+00  5 1 -2 25 -24 21 0 0.61839739D-01 0.10236403D-01 0.20710879D+05 0.20710879D+05 0.20710879D+05 0.12321596D+01  1  2  2  1  5  1        1 0.239032623889D+00 0.100000000000D+01
-.396438142678D-04 0.000000000000D+00 -.279592843539D-05 0.183590610527D-02 0.000000000000D+00  5 1 -2 25 -24 21 2 0.61839739D-01 0.10236403D-01 0.20710879D+05 0.20710879D+05 0.20710879D+05 0.12321596D+01  1  2  3  1  5  1        1 -.197606625086D-01 0.100000000000D+01
0.503006820841D-04 0.000000000000D+00 0.000000000000D+00 0.183590610527D-02 0.000000000000D+00  5 1 -2 25 -24 21 2 0.61839739D-01 0.10236403D-01 0.20710879D+05 0.20710879D+05 0.20710879D+05 0.12321596D+01  1  2 15  1  5  1        1 0.250726329182D-01 0.100000000000D+01
  </mgrwgt>
  </event>
  <event>
  4     66 0.47139866E-03 0.13162433E+03 0.75467711E-02 0.10657063E+00
        1 -1    0    0  501    0 0.00000000E+00 0.00000000E+00 0.15861903E+04 0.15861903E+04 0.32000000E+00 0.0000E+00 0.9000E+01
       -2 -1    0    0    0  501 0.00000000E+00 0.00000000E+00 -.10922351E+02 0.10927038E+02 0.32000000E+00 0.0000E+00 0.9000E+01
       25  1    1    2    0    0 -.78344112E+02 0.21061839E+02 0.88007966E+03 0.89260664E+03 0.12500000E+03 0.0000E+00 0.9000E+01
      -24  1    1    2    0    0 0.78344112E+02 -.21061839E+02 0.69518830E+03 0.70451075E+03 0.80419002E+02 0.0000E+00 0.9000E+01
#aMCatNLO 1  0  0  2  2 0.29199736D+03 0.00000000D+00  -5  5  0 0.00000000D+00 0.00000000D+00 0.00000000D+00 0.00000000D+00 0.00000000D+00
  <mgrwgt>
 0.2958032245D+00    3    2    0
 0.131638506493126D+03 0.000000000000000D+00 0.000000000000000D+00 0.131638506493126D+03
 0.131638506493126D+03 0.000000000000000D+00 0.000000000000000D+00 -.131638506493126D+03
 0.149030423739824D+03 -.783441115046129D+02 0.210618389420606D+02 -.191476708846377D+01
 0.114246589246428D+03 0.783441115046129D+02 -.210618389420606D+02 0.191476708846377D+01
 0.000000000000000D+00 -.000000000000000D+00 0.000000000000000D+00 0.000000000000000D+00
 0.373893370311524D+03 0.000000000000000D+00 0.000000000000000D+00 0.373893370311524D+03
 0.316796989687711D+03 0.000000000000000D+00 0.000000000000000D+00 -.316796989687711D+03
 0.161871531137828D+03 -.147814932417634D+02 -.101760668813867D+03 -.191476708846377D+01
 0.231291595015473D+03 0.148987963551540D+03 -.157567466039767D+03 0.191476708846377D+01
 0.297527233845934D+03 -.134206470309777D+03 0.259328134853634D+03 0.570963806238128D+02
0.535671559544D-03 0.000000000000D+00 0.000000000000D+00 0.259832848050D-02 0.000000000000D+00  5 1 -2 25 -24 21 0 0.24402964D+00 0.16807248D-02 0.17324965D+05 0.17324965D+05 0.17324965D+05 0.12407507D+01  1  2  2  2  5  2       -2 0.289744503280D+00 0.100000000000D+01
-.297595306662D-04 0.000000000000D+00 -.205711983421D-05 0.259832848050D-02 0.000000000000D+00  5 1 -2 25 -24 21 2 0.24402964D+00 0.16807248D-02 0.17324965D+05 0.17324965D+05 0.17324965D+05 0.12407507D+01  1  2  3  2  5  2       -2 -.247805970630D-01 0.100000000000D+01
0.370355740473D-04 0.000000000000D+00 0.000000000000D+00 0.259832848050D-02 0.000000000000D+00  5 1 -2 25 -24 21 2 0.24402964D+00 0.16807248D-02 0.17324965D+05 0.17324965D+05 0.17324965D+05 0.12407507D+01  1  2 15  2  5  2       -2 0.308393182593D-01 0.100000000000D+01
  </mgrwgt>
  </event>
  <event>
  4     66 0.47139866E-03 0.11090379E+03 0.75467711E-02 0.12566165E+00
        1 -1    0    0  501    0 0.00000000E+00 0.00000000E+00 0.93782034E+03 0.93782040E+03 0.32000000E+00 0.0000E+00 0.9000E+01
       -2 -1    0    0    0  501 0.00000000E+00 0.00000000E+00 -.18103602E+02 0.18106430E+02 0.32000000E+00 0.0000E+00 0.9000E+01
       25  1    1    2    0    0 0.57430851E+00 -.40980086E+02 0.27410977E+03 0.30404089E+03 0.12500000E+03 0.0000E+00 0.9000E+01
      -24  1    1    2    0    0 -.57430851E+00 0.40980086E+02 0.64560697E+03 0.65188594E+03 0.80419002E+02 0.0000E+00 0.9000E+01
#aMCatNLO 1  0  0  2  1 0.25533504D+01 0.00000000D+00  -5  5  0 0.00000000D+00 0.00000000D+00 0.00000000D+00 0.00000000D+00 0.00000000D+00
  <mgrwgt>
 0.2478718405D+00    6    2    0
 0.130304657668040D+03 0.000000000000000D+00 0.000000000000000D+00 0.130304657668040D+03
 0.130304657668040D+03 0.000000000000000D+00 0.000000000000000D+00 -.130304657668040D+03
 0.147874605299842D+03 0.574308512109493D+00 -.409800862838330D+02 -.675440714680914D+02
 0.112734710036238D+03 -.574308512109493D+00 0.409800862838330D+02 0.675440714680914D+02
 0.000000000000000D+00 -.000000000000000D+00 0.000000000000000D+00 0.000000000000000D+00
 0.133121340254878D+03 0.000000000000000D+00 0.000000000000000D+00 0.133121340254878D+03
 0.130890858683236D+03 0.000000000000000D+00 0.000000000000000D+00 -.130890858683236D+03
 0.148279012390610D+03 0.804595555721829D+00 -.424124574982381D+02 -.675440714680914D+02
 0.112342811020464D+03 -.399289758963895D+00 0.398914804289208D+02 0.675440714680914D+02
 0.339037552703910D+01 -.405305796757934D+00 0.252097706931737D+01 0.223048157164235D+01
0.264744533841D-03 0.000000000000D+00 0.000000000000D+00 0.199419199571D-02 0.000000000000D+00  5 1 -2 25 -24 21 0 0.14428027D+00 0.27853912D-02 0.12299650D+05 0.12299650D+05 0.12299650D+05 0.12577707D+01  1  2  2  2  5  2       -2 0.188085717274D+00 0.100000000000D+01
-.142432664129D-04 0.000000000000D+00 -.101668871878D-05 0.199419199571D-02 0.000000000000D+00  5 1 -2 25 -24 21 2 0.14428027D+00 0.27853912D-02 0.12299650D+05 0.12299650D+05 0.12299650D+05 0.12577707D+01  1  2  3  2  5  2       -2 -.160081570743D-01 0.100000000000D+01
0.181908575159D-04 0.000000000000D+00 0.000000000000D+00 0.199419199571D-02 0.000000000000D+00  5 1 -2 25 -24 21 2 0.14428027D+00 0.27853912D-02 0.12299650D+05 0.12299650D+05 0.12299650D+05 0.12577707D+01  1  2 15  2  5  2       -2 0.204448962750D-01 0.100000000000D+01
-.348329827309D-03 0.000000000000D+00 0.000000000000D+00 0.199419199571D-02 0.000000000000D+00  5 1 -2 25 -24 21 2 0.14428027D+00 0.27853912D-02 0.12299650D+05 0.12299650D+05 0.12299650D+05 0.12577707D+01  1  2  4  2  5  2       -2 -.391491560121D+00 0.100000000000D+01
0.348186116669D-03 0.000000000000D+00 0.000000000000D+00 0.199419199571D-02 0.257657357852D-02  5 1 -2 25 -24 21 2 0.14739906D+00 0.27979219D-02 0.12580471D+05 0.12580471D+05 0.12580471D+05 0.12566268D+01  1  2 11  2  5  2       -2 0.375059797084D+00 0.100000000000D+01
0.334349755478D-05 0.000000000000D+00 0.000000000000D+00 0.199419199571D-02 0.217017556383D-05  5 1 21 25 -24 2 2 0.14739906D+00 0.27979219D-02 0.12580471D+05 0.12580471D+05 0.12580471D+05 0.12566268D+01  1  2 11  4  5  2       -2 0.717811470619D-01 0.100000000000D+01
  </mgrwgt>
  </event>
  <event>
  4     66 0.47139866E-03 0.68762073E+02 0.75467711E-02 0.11371126E+00
        1 -1    0    0  501    0 0.00000000E+00 0.00000000E+00 0.34462666E+03 0.34462681E+03 0.32000000E+00 0.0000E+00 0.9000E+01
       -2 -1    0    0    0  501 0.00000000E+00 0.00000000E+00 -.71828753E+02 0.71829465E+02 0.32000000E+00 0.0000E+00 0.9000E+01
       25  1    1    2    0    0 0.25838179E+02 0.90987681E+02 0.55678443E+02 0.16634740E+03 0.12500000E+03 0.0000E+00 0.9000E+01
      -24  1    1    2    0    0 -.25838179E+02 -.90987681E+02 0.21711947E+03 0.25010887E+03 0.80419002E+02 0.0000E+00 0.9000E+01
#aMCatNLO 1  0  0  2  1 0.12707360D+03 0.00000000D+00  -5  5  0 0.00000000D+00 0.00000000D+00 0.00000000D+00 0.00000000D+00 0.00000000D+00
  <mgrwgt>
 0.1583806731D+00    7    2    0
 0.157334937895099D+03 0.000000000000000D+00 0.000000000000000D+00 0.157334937895099D+03
 0.157334937895099D+03 0.000000000000000D+00 0.000000000000000D+00 -.157334937895099D+03
 0.171886353124524D+03 0.258381790777165D+02 0.909876809234669D+02 -.705233919530668D+02
 0.142783522665675D+03 -.258381790777165D+02 -.909876809234669D+02 0.705233919530668D+02
 0.000000000000000D+00 -.000000000000000D+00 -.000000000000000D+00 -.000000000000000D+00
 0.193578427053474D+03 0.000000000000000D+00 0.000000000000000D+00 0.193578427053474D+03
 0.338597864606634D+03 0.000000000000000D+00 0.000000000000000D+00 -.338597864606634D+03
 0.221667329330607D+03 0.686085597224374D+02 0.154372023413605D+03 -.705233919530668D+02
 0.117692112763235D+03 0.246962891043563D+01 -.490364106841275D+02 0.705233919530668D+02
 0.192816849566265D+03 -.710781886328730D+02 -.105335612729478D+03 -.145019437553160D+03
0.542256108043D-03 0.000000000000D+00 0.000000000000D+00 0.191902742139D-02 0.000000000000D+00  5 1 -2 25 -24 21 0 0.53019553D-01 0.11050644D-01 0.19726769D+05 0.19726769D+05 0.19726769D+05 0.12344843D+01  1  2  2  2  5  2       -2 0.191123096742D+00 0.100000000000D+01
-.296533967857D-04 0.000000000000D+00 -.208240623420D-05 0.191902742139D-02 0.000000000000D+00  5 1 -2 25 -24 21 2 0.53019553D-01 0.11050644D-01 0.19726769D+05 0.19726769D+05 0.19726769D+05 0.12344843D+01  1  2  3  2  5  2       -2 -.159277450299D-01 0.100000000000D+01
0.374973578463D-04 0.000000000000D+00 0.000000000000D+00 0.191902742139D-02 0.000000000000D+00  5 1 -2 25 -24 21 2 0.53019553D-01 0.11050644D-01 0.19726769D+05 0.19726769D+05 0.19726769D+05 0.12344843D+01  1  2 15  2  5  2       -2 0.201409760706D-01 0.100000000000D+01
0.477778769222D-05 0.000000000000D+00 0.000000000000D+00 0.191902742139D-02 0.000000000000D+00  5 1 -2 25 -24 21 2 0.53019553D-01 0.23730135D-01 0.46536355D+05 0.46536355D+05 0.46536355D+05 0.11953819D+01  1  2 12  2  5  2       -2 0.685131209975D-03 0.100000000000D+01
-.198985264218D-03 0.000000000000D+00 -.155178985318D-03 0.191902742139D-02 0.000000000000D+00  5 1 -2 25 -24 21 2 0.53019553D-01 0.28769123D-01 0.19726769D+05 0.19726769D+05 0.19726769D+05 0.12344843D+01  1  2  5  2  5  2       -2 -.215323181022D-01 0.100000000000D+01
0.395213111157D-06 0.000000000000D+00 0.000000000000D+00 0.191902742139D-02 0.000000000000D+00  5 1 21 25 -24 2 2 0.53019553D-01 0.23730135D-01 0.46536355D+05 0.46536355D+05 0.46536355D+05 0.11953819D+01  1  2 12  4  5  2       -2 0.757125628898D-03 0.100000000000D+01
-.117617590249D-04 0.000000000000D+00 -.164546575570D-04 0.191902742139D-02 0.000000000000D+00  5 1 21 25 -24 2 2 0.53019553D-01 0.28769123D-01 0.19726769D+05 0.19726769D+05 0.19726769D+05 0.12344843D+01  1  2  5  4  5  2       -2 -.168655933989D-01 0.100000000000D+01
  </mgrwgt>
  </event>
  <event>
  4     66 0.47139866E-03 0.90458552E+02 0.75467711E-02 0.12379384E+00
        1 -1    0    0  501    0 0.00000000E+00 0.00000000E+00 0.49157112E+03 0.49157123E+03 0.32000000E+00 0.0000E+00 0.9000E+01
       -2 -1    0    0    0  501 0.00000000E+00 0.00000000E+00 -.50891041E+02 0.50892047E+02 0.32000000E+00 0.0000E+00 0.9000E+01
       25  1    1    2    0    0 -.25604725E+02 -.57179554E+02 0.66846434E+02 0.15497919E+03 0.12500000E+03 0.0000E+00 0.9000E+01
      -24  1    1    2    0    0 0.25604725E+02 0.57179554E+02 0.37383365E+03 0.38748408E+03 0.80419002E+02 0.0000E+00 0.9000E+01
#aMCatNLO 1  0  0  1  2 0.47185986D+01 0.00000000D+00  -5  5  0 0.00000000D+00 0.00000000D+00 0.00000000D+00 0.00000000D+00 0.00000000D+00
  <mgrwgt>
 0.2198687621D+00   11    2    0
 0.158167212704469D+03 0.000000000000000D+00 0.000000000000000D+00 0.158167212704469D+03
 0.158167212704469D+03 0.000000000000000D+00 0.000000000000000D+00 -.158167212704469D+03
 0.172642058484834D+03 -.256047252835965D+02 -.571795544539728D+02 -.101267847579958D+03
 0.143692366924104D+03 0.256047252835965D+02 0.571795544539728D+02 0.101267847579958D+03
 0.000000000000000D+00 0.000000000000000D+00 0.000000000000000D+00 0.000000000000000D+00
 0.170435229449495D+03 0.000000000000000D+00 0.000000000000000D+00 0.170435229449495D+03
 0.158639183604629D+03 0.000000000000000D+00 0.000000000000000D+00 -.158639183604629D+03
 0.173576777396793D+03 -.261655598570691D+02 -.596999512172701D+02 -.101267847579958D+03
 0.142792838514212D+03 0.251406523004236D+02 0.550940053454716D+02 0.101267847579958D+03
 0.127047971431187D+02 0.102490755664545D+01 0.460594587179846D+01 0.117960458448665D+02
0.336988722052D-03 0.000000000000D+00 0.000000000000D+00 0.146097964624D-02 0.000000000000D+00  5 1 -2 25 -24 21 0 0.75626412D-01 0.78294763D-02 0.14612508D+05 0.14612508D+05 0.14612508D+05 0.12491204D+01  1  2  2  1  5  1        1 0.128781219075D+00 0.100000000000D+01
-.170764667802D-04 0.000000000000D+00 -.129412542385D-05 0.146097964624D-02 0.000000000000D+00  5 1 -2 25 -24 21 2 0.75626412D-01 0.78294763D-02 0.14612508D+05 0.14612508D+05 0.14612508D+05 0.12491204D+01  1  2  3  1  5  1        1 -.101822508906D-01 0.100000000000D+01
0.230891494945D-04 0.000000000000D+00 0.000000000000D+00 0.146097964624D-02 0.000000000000D+00  5 1 -2 25 -24 21 2 0.75626412D-01 0.78294763D-02 0.14612508D+05 0.14612508D+05 0.14612508D+05 0.12491204D+01  1  2 15  1  5  1        1 0.137674564668D-01 0.100000000000D+01
0.228637074162D-02 0.000000000000D+00 0.000000000000D+00 0.146097964624D-02 0.000000000000D+00  5 1 -2 25 -24 21 2 0.81600089D-01 0.78294763D-02 0.15173759D+05 0.15173759D+05 0.15173759D+05 0.12472527D+01  1  2 12  1  5  1        1 0.123200102080D+01 0.100000000000D+01
-.863355119763D-02 0.000000000000D+00 0.000000000000D+00 0.146097964624D-02 0.000000000000D+00  5 1 -2 25 -24 21 2 0.75626412D-01 0.78294763D-02 0.14612508D+05 0.14612508D+05 0.14612508D+05 0.12491204D+01  1  2  4  1  5  1        1 -.514796096303D+01 0.100000000000D+01
-.112227956881D-01 0.000000000000D+00 -.662927887773D-03 0.146097964624D-02 0.000000000000D+00  5 1 -2 25 -24 21 2 0.81614606D-01 0.78294763D-02 0.14612508D+05 0.14612508D+05 0.14612508D+05 0.12491204D+01  1  2  5  1  5  1        1 -.605880599613D+01 0.100000000000D+01
0.112425749263D-01 0.000000000000D+00 0.661007774517D-03 0.146097964624D-02 0.000000000000D+00  5 1 -2 25 -24 21 2 0.75626412D-01 0.78294763D-02 0.14612508D+05 0.14612508D+05 0.14612508D+05 0.12491204D+01  1  2  6  1  5  1        1 0.670365363220D+01 0.100000000000D+01
0.633655211976D-02 0.000000000000D+00 0.000000000000D+00 0.146097964624D-02 0.545548794922D-03  5 1 -2 25 -24 21 2 0.81492268D-01 0.78528394D-02 0.15173759D+05 0.15173759D+05 0.15173759D+05 0.12472527D+01  1  2 11  1  5  1        1 0.340472506987D+01 0.100000000000D+01
0.325158517484D-04 0.000000000000D+00 0.000000000000D+00 0.146097964624D-02 0.000000000000D+00  5 21 -2 25 -24 -1 2 0.81600089D-01 0.78294763D-02 0.15173759D+05 0.15173759D+05 0.15173759D+05 0.12472527D+01  1  2 12  3  5  1        1 0.512423176249D-01 0.100000000000D+01
-.142514747625D-03 0.000000000000D+00 -.847921748825D-05 0.146097964624D-02 0.000000000000D+00  5 21 -2 25 -24 -1 2 0.81614606D-01 0.78294763D-02 0.14612508D+05 0.14612508D+05 0.14612508D+05 0.12491204D+01  1  2  5  3  5  1        1 -.225217635577D+00 0.100000000000D+01
0.812685505488D-04 0.000000000000D+00 0.000000000000D+00 0.146097964624D-02 0.694164059255D-05  5 21 -2 25 -24 -1 2 0.81492268D-01 0.78528394D-02 0.15173759D+05 0.15173759D+05 0.15173759D+05 0.12472527D+01  1  2 11  3  5  1        1 0.127864891682D+00 0.100000000000D+01
  </mgrwgt>
  </event>
  <event>
  4     66 0.47139866E-03 0.10571092E+03 0.75467711E-02 0.11982413E+00
        1 -1    0    0  501    0 0.00000000E+00 0.00000000E+00 0.37169014E+03 0.37169028E+03 0.32000000E+00 0.0000E+00 0.9000E+01
       -2 -1    0    0    0  501 0.00000000E+00 0.00000000E+00 -.36017517E+02 0.36018939E+02 0.32000000E+00 0.0000E+00 0.9000E+01
       25  1    1    2    0    0 -.98797805E+01 0.22363641E+02 0.11512370E+03 0.17168637E+03 0.12500000E+03 0.0000E+00 0.9000E+01
      -24  1    1    2    0    0 0.98797805E+01 -.22363641E+02 0.22054892E+03 0.23602285E+03 0.80419002E+02 0.0000E+00 0.9000E+01
#aMCatNLO 1  0  0  2  2 0.78453966D+02 0.00000000D+00  -5  5  0 0.00000000D+00 0.00000000D+00 0.00000000D+00 0.00000000D+00 0.00000000D+00
  <mgrwgt>
 0.1317930790D+00    4    2    0
 0.115705116569070D+03 0.000000000000000D+00 0.000000000000000D+00 0.115705116569070D+03
 0.115705116569070D+03 0.000000000000000D+00 0.000000000000000D+00 -.115705116569070D+03
 0.135492020375011D+03 -.987978050665495D+01 0.223636413929304D+02 -.462097940494343D+02
 0.959182127631293D+02 0.987978050665495D+01 -.223636413929304D+02 0.462097940494343D+02
 0.000000000000000D+00 0.000000000000000D+00 -.000000000000000D+00 0.000000000000000D+00
 0.163048204669550D+03 0.000000000000000D+00 0.000000000000000D+00 0.163048204669550D+03
 0.159819703323011D+03 0.000000000000000D+00 0.000000000000000D+00 -.159819703323011D+03
 0.147255631783556D+03 -.562042081555966D+02 0.276579647025108D+02 -.462097940494343D+02
 0.970919092474226D+02 -.217423509746597D+02 -.187496131944845D+02 0.462097940494343D+02
 0.785203669615833D+02 0.779465591302563D+02 -.890835150802622D+01 0.322850134653938D+01
0.222430318107D-03 0.000000000000D+00 0.000000000000D+00 0.247999795726D-02 0.000000000000D+00  5 1 -2 25 -24 21 0 0.57183219D-01 0.55412764D-02 0.11174798D+05 0.11174798D+05 0.11174798D+05 0.12626667D+01  1  2  2  2  5  2       -2 0.202790486852D+00 0.100000000000D+01
-.122346284201D-04 0.000000000000D+00 -.854190988778D-06 0.247999795726D-02 0.000000000000D+00  5 1 -2 25 -24 21 2 0.57183219D-01 0.55412764D-02 0.11174798D+05 0.11174798D+05 0.11174798D+05 0.12626667D+01  1  2  3  2  5  2       -2 -.177836872716D-01 0.100000000000D+01
0.152903935010D-04 0.000000000000D+00 0.000000000000D+00 0.247999795726D-02 0.000000000000D+00  5 1 -2 25 -24 21 2 0.57183219D-01 0.55412764D-02 0.11174798D+05 0.11174798D+05 0.11174798D+05 0.12626667D+01  1  2 15  2  5  2       -2 0.222254053776D-01 0.100000000000D+01
-.518997921992D-04 0.000000000000D+00 0.000000000000D+00 0.247999795726D-02 0.000000000000D+00  5 1 -2 25 -24 21 2 0.57183219D-01 0.55412764D-02 0.11174798D+05 0.11174798D+05 0.11174798D+05 0.12626667D+01  1  2  4  2  5  2       -2 -.754391259172D-01 0.100000000000D+01
  </mgrwgt>
  </event>
  <event>
  5     66 0.47139866E-03 0.17848830E+03 0.75467711E-02 0.11457299E+00
        3 -1    0    0  502    0 0.00000000E+00 0.00000000E+00 0.67248182E+03 0.67248201E+03 0.50000000E+00 0.0000E+00 0.9000E+01
       -4 -1    0    0    0  501 0.00000000E+00 0.00000000E+00 -.10031240E+03 0.10032438E+03 0.15500000E+01 0.0000E+00 0.9000E+01
       25  1    1    2    0    0 0.64523094E+02 -.10119824E+03 0.39741251E+02 0.17778830E+03 0.12500000E+03 0.0000E+00 0.9000E+01
      -24  1    1    2    0    0 -.94842649E+02 0.13991552E+03 0.27325992E+03 0.33122452E+03 0.80419002E+02 0.0000E+00 0.9000E+01
       21  1    1    2  502  501 0.30319555E+02 -.38717281E+02 0.25916825E+03 0.26379357E+03 0.75000000E+00 0.0000E+00 0.9000E+01
#aMCatNLO 2  0  0  1  2 0.49176246D+02 0.00000000D+00  -5  5  0 0.00000000D+00 0.00000000D+00 0.00000000D+00 0.00000000D+00 0.00000000D+00
  <mgrwgt>
 0.2721816553D-02    2    2    0
 0.199189616044845D+03 0.000000000000000D+00 0.000000000000000D+00 0.199189616044845D+03
 0.199189616044845D+03 0.000000000000000D+00 0.000000000000000D+00 -.199189616044845D+03
 0.210683418065589D+03 0.798820481008100D+02 -.120811221300515D+03 -.882383694709815D+02
 0.187695814024102D+03 -.798820481008100D+02 0.120811221300515D+03 0.882383694709815D+02
 0.000000000000000D+00 0.000000000000000D+00 -.000000000000000D+00 0.000000000000000D+00
 0.328385226853072D+03 0.000000000000000D+00 0.000000000000000D+00 0.328385226853072D+03
 0.205436413985262D+03 0.000000000000000D+00 0.000000000000000D+00 -.205436413985262D+03
 0.194461623301665D+03 0.645230944375362D+02 -.101198238000599D+03 -.882383694709815D+02
 0.206941311140146D+03 -.948426491210034D+02 0.139915518663388D+03 0.882383694709815D+02
 0.132418706396523D+03 0.303195546834673D+02 -.387172806627885D+02 0.122948812867810D+03
-.382456237853D-02 0.000000000000D+00 0.000000000000D+00 0.176174423218D-02 0.000000000000D+00  5 3 -4 25 -24 21 2 0.10389510D+00 0.14964240D-01 0.41953729D+05 0.41953729D+05 0.41953729D+05 0.11999028D+01  1  2 13  1  5  1        3 -.362041926117D-01 0.100000000000D+01
0.430017697300D-02 0.000000000000D+00 0.000000000000D+00 0.176174423218D-02 0.653139603566D-05  5 3 -4 25 -24 21 2 0.10345915D+00 0.15433535D-01 0.41953729D+05 0.41953729D+05 0.41953729D+05 0.11999028D+01  1  2  1  1  5  1        3 0.389260091646D-01 0.100000000000D+01
  </mgrwgt>
  </event>
  <event>
  4     66 0.47139866E-03 0.11012991E+03 0.75467711E-02 0.10471962E+00
        1 -1    0    0  501    0 0.00000000E+00 0.00000000E+00 0.12395747E+03 0.12395788E+03 0.32000000E+00 0.0000E+00 0.9000E+01
       -2 -1    0    0    0  501 0.00000000E+00 0.00000000E+00 -.10020494E+03 0.10020545E+03 0.32000000E+00 0.0000E+00 0.9000E+01
       25  1    1    2    0    0 0.32924524E+02 0.20751660E+02 0.30967377E+02 0.13453116E+03 0.12500000E+03 0.0000E+00 0.9000E+01
      -24  1    1    2    0    0 -.32924524E+02 -.20751660E+02 -.72148469E+01 0.89632169E+02 0.80419002E+02 0.0000E+00 0.9000E+01
#aMCatNLO 1  0  0  2  2 0.35940212D+03 0.00000000D+00  -5  5  0 0.00000000D+00 0.00000000D+00 0.00000000D+00 0.00000000D+00 0.00000000D+00
  <mgrwgt>
 0.1926189771D+00    5    2    0
 0.111450680894566D+03 0.000000000000000D+00 0.000000000000000D+00 0.111450680894566D+03
 0.111450680894566D+03 0.000000000000000D+00 0.000000000000000D+00 -.111450680894566D+03
 0.131992915298438D+03 0.329245239979614D+02 0.207516604376390D+02 0.168069627705097D+02
 0.909084464906933D+02 -.329245239979614D+02 -.207516604376390D+02 -.168069627705097D+02
 0.000000000000000D+00 -.000000000000000D+00 -.000000000000000D+00 -.000000000000000D+00
 0.242877542337048D+03 0.000000000000000D+00 0.000000000000000D+00 0.242877542337048D+03
 0.123918029867777D+04 0.000000000000000D+00 0.000000000000000D+00 -.123918029867777D+04
 0.312848538487392D+03 0.227635033360833D+03 0.173634747740596D+03 0.168069627705097D+02
 0.110063862168467D+03 0.550425938455507D+02 0.483184919699825D+02 -.168069627705097D+02
 0.105914544035896D+04 -.282677627206384D+03 -.221953239710578D+03 -.996302756340724D+03
0.259712397033D-03 0.000000000000D+00 0.000000000000D+00 0.291605202289D-02 0.000000000000D+00  5 1 -2 25 -24 21 0 0.19070451D-01 0.15416216D-01 0.12128598D+05 0.12128598D+05 0.12128598D+05 0.12584819D+01  1  2  2  2  5  2       -2 0.188307051721D+00 0.100000000000D+01
-.144259732820D-04 0.000000000000D+00 -.997363988450D-06 0.291605202289D-02 0.000000000000D+00  5 1 -2 25 -24 21 2 0.19070451D-01 0.15416216D-01 0.12128598D+05 0.12128598D+05 0.12128598D+05 0.12584819D+01  1  2  3  2  5  2       -2 -.165658217190D-01 0.100000000000D+01
0.179857694386D-04 0.000000000000D+00 0.000000000000D+00 0.291605202289D-02 0.000000000000D+00  5 1 -2 25 -24 21 2 0.19070451D-01 0.15416216D-01 0.12128598D+05 0.12128598D+05 0.12128598D+05 0.12584819D+01  1  2 15  2  5  2       -2 0.206536532527D-01 0.100000000000D+01
0.206700385221D-03 0.000000000000D+00 -.296276502493D-03 0.291605202289D-02 0.000000000000D+00  5 1 -2 25 -24 21 2 0.19070451D-01 0.28222437D+00 0.12128598D+05 0.12128598D+05 0.12128598D+05 0.12584819D+01  1  2  5  2  5  2       -2 0.388912908664D-03 0.100000000000D+01
-.734732949036D-05 0.000000000000D+00 -.939065369852D-04 0.291605202289D-02 0.000000000000D+00  5 1 21 25 -24 2 2 0.19070451D-01 0.28222437D+00 0.12128598D+05 0.12128598D+05 0.12128598D+05 0.12584819D+01  1  2  5  4  5  2       -2 -.164819113574D-03 0.100000000000D+01
  </mgrwgt>
  </event>
  <event>
  4     66 0.47139866E-03 0.10306507E+03 0.75467711E-02 0.12500231E+00
        1 -1    0    0  501    0 0.00000000E+00 0.00000000E+00 0.14178598E+03 0.14178634E+03 0.32000000E+00 0.0000E+00 0.9000E+01
       -2 -1    0    0    0  501 0.00000000E+00 0.00000000E+00 -.87365550E+02 0.87366136E+02 0.32000000E+00 0.0000E+00 0.9000E+01
       25  1    1    2    0    0 -.83501372E+01 0.13917881E+00 -.10138728E+02 0.12568826E+03 0.12500000E+03 0.0000E+00 0.9000E+01
      -24  1    1    2    0    0 0.83501372E+01 -.13917881E+00 0.64559160E+02 0.10346422E+03 0.80419002E+02 0.0000E+00 0.9000E+01
#aMCatNLO 1  0  0  1  1 0.24296867D+02 0.00000000D+00  -5  5  0 0.00000000D+00 0.00000000D+00 0.00000000D+00 0.00000000D+00 0.00000000D+00
  <mgrwgt>
 0.1685525831D+00    4    2    0
 0.111298332648382D+03 0.000000000000000D+00 0.000000000000000D+00 0.111298332648382D+03
 0.111298332648382D+03 0.000000000000000D+00 0.000000000000000D+00 -.111298332648382D+03
 0.131868685832740D+03 -.835013718508928D+01 0.139178814327731D+00 -.411655941473180D+02
 0.907279794640243D+02 0.835013718508928D+01 -.139178814327731D+00 0.411655941473180D+02
 0.000000000000000D+00 0.000000000000000D+00 -.000000000000000D+00 -.000000000000000D+00
 0.116189914302988D+03 0.000000000000000D+00 0.000000000000000D+00 0.116189914302988D+03
 0.146844931281783D+03 0.000000000000000D+00 0.000000000000000D+00 -.146844931281783D+03
 0.133520707385054D+03 -.220388922949363D+02 0.473923891734846D+01 -.411655941473180D+02
 0.903980571900185D+02 -.992323452512903D+00 0.300032365307784D+01 0.411655941473180D+02
 0.391160810096986D+02 0.230312157474492D+02 -.773956257042630D+01 -.306550169787950D+02
0.277734619550D-03 0.000000000000D+00 0.000000000000D+00 0.263379477206D-02 0.000000000000D+00  5 1 -2 25 -24 21 0 0.21813301D-01 0.13440927D-01 0.10622408D+05 0.10622408D+05 0.10622408D+05 0.12652785D+01  1  2  2  1  5  1        1 0.211025555275D+00 0.100000000000D+01
-.153188935530D-04 0.000000000000D+00 -.106657406828D-05 0.263379477206D-02 0.000000000000D+00  5 1 -2 25 -24 21 2 0.21813301D-01 0.13440927D-01 0.10622408D+05 0.10622408D+05 0.10622408D+05 0.12652785D+01  1  2  3  1  5  1        1 -.186339407882D-01 0.100000000000D+01
0.191205572951D-04 0.000000000000D+00 0.000000000000D+00 0.263379477206D-02 0.000000000000D+00  5 1 -2 25 -24 21 2 0.21813301D-01 0.13440927D-01 0.10622408D+05 0.10622408D+05 0.10622408D+05 0.12652785D+01  1  2 15  1  5  1        1 0.232582941609D-01 0.100000000000D+01
-.387185364929D-04 0.000000000000D+00 0.000000000000D+00 0.263379477206D-02 0.000000000000D+00  5 1 -2 25 -24 21 2 0.21813301D-01 0.13440927D-01 0.10622408D+05 0.10622408D+05 0.10622408D+05 0.12652785D+01  1  2  4  1  5  1        1 -.470973255293D-01 0.100000000000D+01
  </mgrwgt>
  </event>
  <event>
  4     66 0.47139866E-03 0.12031477E+03 0.75467711E-02 0.11674960E+00
        1 -1    0    0  501    0 0.00000000E+00 0.00000000E+00 0.23190835E+03 0.23190857E+03 0.32000000E+00 0.0000E+00 0.9000E+01
       -2 -1    0    0    0  501 0.00000000E+00 0.00000000E+00 -.65136699E+02 0.65137485E+02 0.32000000E+00 0.0000E+00 0.9000E+01
       25  1    1    2    0    0 -.29193416E+01 -.61506988E+02 0.66052278E+02 0.15420615E+03 0.12500000E+03 0.0000E+00 0.9000E+01
      -24  1    1    2    0    0 0.29193416E+01 0.61506988E+02 0.10071937E+03 0.14283991E+03 0.80419002E+02 0.0000E+00 0.9000E+01
#aMCatNLO 1  0  0  2  1 0.99958728D+02 0.00000000D+00  -5  5  0 0.00000000D+00 0.00000000D+00 0.00000000D+00 0.00000000D+00 0.00000000D+00
  <mgrwgt>
 0.1726375196D+00    3    2    0
 0.122906037860506D+03 0.000000000000000D+00 0.000000000000000D+00 0.122906037860506D+03
 0.122906037860506D+03 0.000000000000000D+00 0.000000000000000D+00 -.122906037860506D+03
 0.141533650069483D+03 -.291934155972765D+01 -.615069877280936D+02 -.248020565168425D+02
 0.104278425651529D+03 0.291934155972765D+01 0.615069877280936D+02 0.248020565168425D+02
 0.000000000000000D+00 -.000000000000000D+00 -.000000000000000D+00 0.000000000000000D+00
 0.183350766831865D+03 0.000000000000000D+00 0.000000000000000D+00 0.183350766831865D+03
 0.181976268830346D+03 0.000000000000000D+00 0.000000000000000D+00 -.181976268830346D+03
 0.128508531010525D+03 0.124052525833618D+02 -.109731601355993D+02 -.248020565168425D+02
 0.136850327470626D+03 0.166031307479486D+02 0.106630156223974D+03 0.248020565168425D+02
 0.999681771810592D+02 -.290083833313104D+02 -.956569960883742D+02 0.137449800151838D+01
0.254222414388D-03 0.000000000000D+00 0.000000000000D+00 0.263373380882D-02 0.000000000000D+00  5 1 -2 25 -24 21 0 0.35678285D-01 0.10021108D-01 0.14475645D+05 0.14475645D+05 0.14475645D+05 0.12495881D+01  1  2  2  2  5  2       -2 0.169011085060D+00 0.100000000000D+01
-.141156702851D-04 0.000000000000D+00 -.976281009549D-06 0.263373380882D-02 0.000000000000D+00  5 1 -2 25 -24 21 2 0.35678285D-01 0.10021108D-01 0.14475645D+05 0.14475645D+05 0.14475645D+05 0.12495881D+01  1  2  3  2  5  2       -2 -.146533394121D-01 0.100000000000D+01
0.176090415255D-04 0.000000000000D+00 0.000000000000D+00 0.263373380882D-02 0.000000000000D+00  5 1 -2 25 -24 21 2 0.35678285D-01 0.10021108D-01 0.14475645D+05 0.14475645D+05 0.14475645D+05 0.12495881D+01  1  2 15  2  5  2       -2 0.182797739663D-01 0.100000000000D+01
  </mgrwgt>
  </event>
  <event>
  4     66 -.47139866E-03 0.16806874E+03 0.75467711E-02 0.11732700E+00
        1 -1    0    0  501    0 0.00000000E+00 0.00000000E+00 0.96044832E+03 0.96044837E+03 0.32000000E+00 0.0000E+00 0.9000E+01
       -2 -1    0    0    0  501 0.00000000E+00 0.00000000E+00 -.36953090E+02 0.36954475E+02 0.32000000E+00 0.0000E+00 0.9000E+01
       25  1    1    2    0    0 0.13084764E+03 0.16292580E+02 0.26680381E+03 0.32279379E+03 0.12500000E+03 0.0000E+00 0.9000E+01
      -24  1    1    2    0    0 -.13084764E+03 -.16292580E+02 0.65669142E+03 0.67460906E+03 0.80419002E+02 0.0000E+00 0.9000E+01
#aMCatNLO 1  0  0  2  1 0.12741595D+02 0.00000000D+00  -5  5  0 0.00000000D+00 0.00000000D+00 0.00000000D+00 0.00000000D+00 0.00000000D+00
  <mgrwgt>
 -.3183753206D-01    4    2    0
 0.188393870778105D+03 0.000000000000000D+00 0.000000000000000D+00 0.188393870778105D+03
 0.188393870778105D+03 0.000000000000000D+00 0.000000000000000D+00 -.188393870778105D+03
 0.200546315026697D+03 0.130847642667131D+03 0.162925802227051D+02 -.848956459951211D+02
 0.176241426529513D+03 -.130847642667131D+03 -.162925802227051D+02 0.848956459951211D+02
 0.000000000000000D+00 -.000000000000000D+00 0.000000000000000D+00 0.000000000000000D+00
 0.197579273662141D+03 0.000000000000000D+00 0.000000000000000D+00 0.197579273662141D+03
 0.192972624369191D+03 0.000000000000000D+00 0.000000000000000D+00 -.192972624369191D+03
 0.204978820667448D+03 0.137645991209220D+03 0.154151651733091D+02 -.848956459951211D+02
 0.172024296600174D+03 -.125009208590669D+03 -.170461058608625D+02 0.848956459951211D+02
 0.135487807637093D+02 -.126367826185509D+02 0.163094068755340D+01 0.460664929294961D+01
0.700273249435D-03 0.000000000000D+00 0.000000000000D+00 0.177871841553D-02 0.000000000000D+00  5 1 -2 25 -24 21 0 0.14776139D+00 0.56852014D-02 0.28247101D+05 0.28247101D+05 0.28247101D+05 0.12176523D+01  1  2  2  2  5  2       -2 0.168200228496D+00 0.100000000000D+01
-.382875908376D-04 0.000000000000D+00 -.268923366401D-05 0.177871841553D-02 0.000000000000D+00  5 1 -2 25 -24 21 2 0.14776139D+00 0.56852014D-02 0.28247101D+05 0.28247101D+05 0.28247101D+05 0.12176523D+01  1  2  3  2  5  2       -2 -.136352672264D-01 0.100000000000D+01
0.483466484857D-04 0.000000000000D+00 0.000000000000D+00 0.177871841553D-02 0.000000000000D+00  5 1 -2 25 -24 21 2 0.14776139D+00 0.56852014D-02 0.28247101D+05 0.28247101D+05 0.28247101D+05 0.12176523D+01  1  2 15  2  5  2       -2 0.172175751250D-01 0.100000000000D+01
-.571761575187D-03 0.000000000000D+00 0.000000000000D+00 0.177871841553D-02 0.000000000000D+00  5 1 -2 25 -24 21 2 0.14776139D+00 0.56852014D-02 0.28247101D+05 0.28247101D+05 0.28247101D+05 0.12176523D+01  1  2  4  2  5  2       -2 -.203620068458D+00 0.100000000000D+01
  </mgrwgt>
  </event>
  <event>
  4     66 0.47139866E-03 0.60085267E+02 0.75467711E-02 0.12034036E+00
        1 -1    0    0  501    0 0.00000000E+00 0.00000000E+00 0.94789060E+03 0.94789066E+03 0.32000000E+00 0.0000E+00 0.9000E+01
       -2 -1    0    0    0  501 0.00000000E+00 0.00000000E+00 -.17933951E+02 0.17936806E+02 0.32000000E+00 0.0000E+00 0.9000E+01
       25  1    1    2    0    0 -.60605618E+02 -.45659093E+02 0.61084518E+03 0.62810400E+03 0.12500000E+03 0.0000E+00 0.9000E+01
      -24  1    1    2    0    0 0.60605618E+02 0.45659093E+02 0.31911147E+03 0.33772347E+03 0.80419002E+02 0.0000E+00 0.9000E+01
#aMCatNLO 1  0  0  2  1 0.36060435D+02 0.00000000D+00  -5  5  0 0.00000000D+00 0.00000000D+00 0.00000000D+00 0.00000000D+00 0.00000000D+00
  <mgrwgt>
 0.1987748890D+00    9    2    0
 0.130387224912391D+03 0.000000000000000D+00 0.000000000000000D+00 0.130387224912391D+03
 0.130387224912391D+03 0.000000000000000D+00 0.000000000000000D+00 -.130387224912391D+03
 0.147946046437626D+03 -.606056180200694D+02 -.456590932581280D+02 0.224775204098506D+02
 0.112828403387156D+03 0.606056180200694D+02 0.456590932581280D+02 -.224775204098506D+02
 0.000000000000000D+00 0.000000000000000D+00 0.000000000000000D+00 -.000000000000000D+00
 0.138758904585795D+03 0.000000000000000D+00 0.000000000000000D+00 0.138758904585795D+03
 0.177216339530254D+03 0.000000000000000D+00 0.000000000000000D+00 -.177216339530254D+03
 0.158137617667156D+03 -.677553550636233D+02 -.654712078540689D+02 0.224775204098506D+02
 0.105118281918455D+03 0.555146521431193D+02 0.315518892107991D+02 -.224775204098506D+02
 0.527193445304375D+02 0.122407029205040D+02 0.339193186432697D+02 -.384574349444586D+02
0.233737005998D-03 0.000000000000D+00 0.000000000000D+00 0.254676641730D-02 0.000000000000D+00  5 1 -2 25 -24 21 0 0.14582955D+00 0.27592932D-02 0.16485961D+05 0.16485961D+05 0.16485961D+05 0.12431728D+01  1  2  2  2  5  2       -2 0.166777713010D+00 0.100000000000D+01
-.129816562973D-04 0.000000000000D+00 -.897611647401D-06 0.254676641730D-02 0.000000000000D+00  5 1 -2 25 -24 21 2 0.14582955D+00 0.27592932D-02 0.16485961D+05 0.16485961D+05 0.16485961D+05 0.12431728D+01  1  2  3  2  5  2       -2 -.143154055040D-01 0.100000000000D+01
0.161666618021D-04 0.000000000000D+00 0.000000000000D+00 0.254676641730D-02 0.000000000000D+00  5 1 -2 25 -24 21 2 0.14582955D+00 0.27592932D-02 0.16485961D+05 0.16485961D+05 0.16485961D+05 0.12431728D+01  1  2 15  2  5  2       -2 0.178276418696D-01 0.100000000000D+01
0.283186811591D-03 0.000000000000D+00 0.000000000000D+00 0.254676641730D-02 0.000000000000D+00  5 1 -2 25 -24 21 2 0.14582955D+00 0.38148229D-02 0.21797482D+05 0.21797482D+05 0.21797482D+05 0.12297323D+01  1  2 12  2  5  2       -2 0.190713318562D+00 0.100000000000D+01
-.297546065413D-03 0.000000000000D+00 0.000000000000D+00 0.254676641730D-02 0.000000000000D+00  5 1 -2 25 -24 21 2 0.14582955D+00 0.27592932D-02 0.16485961D+05 0.16485961D+05 0.16485961D+05 0.12431728D+01  1  2  4  2  5  2       -2 -.328116265363D+00 0.100000000000D+01
-.403253063962D-03 0.000000000000D+00 -.961852100886D-04 0.254676641730D-02 0.000000000000D+00  5 1 -2 25 -24 21 2 0.14582955D+00 0.39939230D-02 0.16485961D+05 0.16485961D+05 0.16485961D+05 0.12431728D+01  1  2  5  2  5  2       -2 -.257902245878D+00 0.100000000000D+01
0.416256348478D-03 0.000000000000D+00 0.899634654356D-04 0.254676641730D-02 0.000000000000D+00  5 1 -2 25 -24 21 2 0.14582955D+00 0.27592932D-02 0.16485961D+05 0.16485961D+05 0.16485961D+05 0.12431728D+01  1  2  6  2  5  2       -2 0.459022969459D+00 0.100000000000D+01
0.115693429721D-04 0.000000000000D+00 0.000000000000D+00 0.254676641730D-02 0.000000000000D+00  5 1 21 25 -24 2 2 0.14582955D+00 0.38148229D-02 0.21797482D+05 0.21797482D+05 0.21797482D+05 0.12297323D+01  1  2 12  4  5  2       -2 0.145956179491D+00 0.100000000000D+01
-.151829401271D-04 0.000000000000D+00 -.432373039123D-05 0.254676641730D-02 0.000000000000D+00  5 1 21 25 -24 2 2 0.14582955D+00 0.39939230D-02 0.16485961D+05 0.16485961D+05 0.16485961D+05 0.12431728D+01  1  2  5  4  5  2       -2 -.181189016604D+00 0.100000000000D+01
  </mgrwgt>
  </event>
  <event>
  4     66 0.47139866E-03 0.13407570E+03 0.75467711E-02 0.11926757E+00
        3 -1    0    0  501    0 0.00000000E+00 0.00000000E+00 0.38868768E+03 0.38868800E+03 0.50000000E+00 0.0000E+00 0.9000E+01
       -4 -1    0    0    0  501 0.00000000E+00 0.00000000E+00 -.48190569E+02 0.48215489E+02 0.15500000E+01 0.0000E+00 0.9000E+01
       25  1    1    2    0    0 -.81226699E+02 0.24979797E+02 0.23471279E+03 0.27917174E+03 0.12500000E+03 0.0000E+00 0.9000E+01
      -24  1    1    2    0    0 0.81226699E+02 -.24979797E+02 0.10578433E+03 0.15773175E+03 0.80419002E+02 0.0000E+00 0.9000E+01
#aMCatNLO 1  0  0  1  1 0.41723749D+02 0.00000000D+00  -5  5  0 0.00000000D+00 0.00000000D+00 0.00000000D+00 0.00000000D+00 0.00000000D+00
  <mgrwgt>
 0.2713609946D-01    4    2    0
 0.136881680494213D+03 0.000000000000000D+00 0.000000000000000D+00 0.136881680494213D+03
 0.136881680494213D+03 0.000000000000000D+00 0.000000000000000D+00 -.136881680494213D+03
 0.153607410359169D+03 -.812266988213471D+02 0.249797966763670D+02 0.273581738031535D+02
 0.120155950629257D+03 0.812266988213471D+02 -.249797966763670D+02 -.273581738031535D+02
 0.000000000000000D+00 0.000000000000000D+00 -.000000000000000D+00 -.000000000000000D+00
 0.142553054639961D+03 0.000000000000000D+00 0.000000000000000D+00 0.142553054639961D+03
 0.244853258893420D+03 0.000000000000000D+00 0.000000000000000D+00 -.244853258893420D+03
 0.159588630303460D+03 -.819979144095190D+02 0.486970561818678D+02 0.273581738031535D+02
 0.117335996760493D+03 0.806418973931273D+02 -.699534791133017D+01 -.273581738031535D+02
 0.110481686469429D+03 0.135601701639168D+01 -.417017082705376D+02 -.102300204253459D+03
0.421098089056D-03 0.000000000000D+00 0.000000000000D+00 0.244399849860D-02 0.000000000000D+00  5 3 -4 25 -24 21 0 0.59800046D-01 0.74158754D-02 0.17976293D+05 0.17976293D+05 0.17976293D+05 0.12389594D+01  1  2  2  1  5  1        3 0.286575273805D-01 0.100000000000D+01
-.233821357138D-04 0.000000000000D+00 -.161712753965D-05 0.244399849860D-02 0.000000000000D+00  5 3 -4 25 -24 21 2 0.59800046D-01 0.74158754D-02 0.17976293D+05 0.17976293D+05 0.17976293D+05 0.12389594D+01  1  2  3  1  5  1        3 -.244260797813D-02 0.100000000000D+01
0.291251883630D-04 0.000000000000D+00 0.000000000000D+00 0.244399849860D-02 0.000000000000D+00  5 3 -4 25 -24 21 2 0.59800046D-01 0.74158754D-02 0.17976293D+05 0.17976293D+05 0.17976293D+05 0.12389594D+01  1  2 15  1  5  1        3 0.304255429576D-02 0.100000000000D+01
-.203070900889D-04 0.000000000000D+00 0.000000000000D+00 0.244399849860D-02 0.000000000000D+00  5 3 -4 25 -24 21 2 0.59800046D-01 0.74158754D-02 0.17976293D+05 0.17976293D+05 0.17976293D+05 0.12389594D+01  1  2  4  1  5  1        3 -.212137423505D-02 0.100000000000D+01
  </mgrwgt>
  </event>
  <event>
  5     66 0.47139866E-03 0.16114139E+03 0.75467711E-02 0.11718283E+00
        1 -1    0    0  501    0 0.00000000E+00 0.00000000E+00 0.18660930E+04 0.18660931E+04 0.32000000E+00 0.0000E+00 0.9000E+01
       21 -1    0    0  502  501 0.00000000E+00 0.00000000E+00 -.19446855E+02 0.19461312E+02 0.75000000E+00 0.0000E+00 0.9000E+01
       25  1    1    2    0    0 -.13267972E+03 0.40545063E+02 0.61046693E+03 0.63839069E+03 0.12500000E+03 0.0000E+00 0.9000E+01
      -24  1    1    2    0    0 0.10474111E+03 -.34304339E+02 0.10051843E+04 0.10144014E+04 0.80419002E+02 0.0000E+00 0.9000E+01
        2  1    1    2  502    0 0.27938609E+02 -.62407234E+01 0.23099495E+03 0.23276228E+03 0.32000000E+00 0.0000E+00 0.9000E+01
#aMCatNLO 2  0  0  2  2 0.28627129D+02 0.00000000D+00  -5  5  0 0.00000000D+00 0.00000000D+00 0.00000000D+00 0.00000000D+00 0.00000000D+00
  <mgrwgt>
 0.6137762643D-01    1    2    0
 0.173618315032635D+03 0.000000000000000D+00 0.000000000000000D+00 0.173618315032635D+03
 0.173618315032635D+03 0.000000000000000D+00 0.000000000000000D+00 -.173618315032635D+03
 0.186804976883241D+03 -.117243778440544D+03 0.370970944195199D+02 -.644111899514529D+02
 0.160431653182029D+03 0.117243778440544D+03 -.370970944195199D+02 0.644111899514529D+02
 0.000000000000000D+00 0.000000000000000D+00 -.000000000000000D+00 0.000000000000000D+00
 0.198924676486922D+03 0.000000000000000D+00 0.000000000000000D+00 0.198924676486922D+03
 0.182496183605942D+03 0.000000000000000D+00 0.000000000000000D+00 -.182496183605942D+03
 0.197538886228553D+03 -.132679719866069D+03 0.405450628032103D+02 -.644111899514529D+02
 0.150875794512840D+03 0.104741110935872D+03 -.343043394407653D+02 0.644111899514529D+02
 0.330061793514713D+02 0.279386089301973D+02 -.624072336244501D+01 0.164284928809804D+02
0.138773030168D-04 0.000000000000D+00 0.000000000000D+00 0.197120059322D-02 0.170549791486D-06  5 1 21 25 -24 2 2 0.28709116D+00 0.29929256D-02 0.30941773D+05 0.30941773D+05 0.30941773D+05 0.12134920D+01  1  2  1  4  5  2       -2 0.613776264270D-01 0.100000000000D+01
  </mgrwgt>
  </event>
  <event>
  4     66 0.47139866E-03 0.10830075E+03 0.75467711E-02 0.10792547E+00
        1 -1    0    0  501    0 0.00000000E+00 0.00000000E+00 0.66557436E+03 0.66557444E+03 0.32000000E+00 0.0000E+00 0.9000E+01
       -2 -1    0    0    0  501 0.00000000E+00 0.00000000E+00 -.26394249E+02 0.26396189E+02 0.32000000E+00 0.0000E+00 0.9000E+01
       25  1    1    2    0    0 0.31969497E+02 0.10381868E+02 0.55814943E+03 0.57296214E+03 0.12500000E+03 0.0000E+00 0.9000E+01
      -24  1    1    2    0    0 -.31969497E+02 -.10381868E+02 0.81030687E+02 0.11900849E+03 0.80419002E+02 0.0000E+00 0.9000E+01
#aMCatNLO 1  0  0  2  1 0.27549675D+03 0.00000000D+00  -5  5  0 0.00000000D+00 0.00000000D+00 0.00000000D+00 0.00000000D+00 0.00000000D+00
  <mgrwgt>
 0.2980184240D+00    5    2    0
 0.132544457445085D+03 0.000000000000000D+00 0.000000000000000D+00 0.132544457445085D+03
 0.132544457445085D+03 0.000000000000000D+00 0.000000000000000D+00 -.132544457445085D+03
 0.149817499679657D+03 0.319694974798312D+02 0.103818682802289D+02 0.754350797186769D+02
 0.115271415210514D+03 -.319694974798312D+02 -.103818682802289D+02 -.754350797186769D+02
 0.000000000000000D+00 -.000000000000000D+00 -.000000000000000D+00 -.000000000000000D+00
 0.269798510088223D+03 0.000000000000000D+00 0.000000000000000D+00 0.269798510088223D+03
 0.432454441681702D+03 0.000000000000000D+00 0.000000000000000D+00 -.432454441681702D+03
 0.235280782940477D+03 0.753919066742106D+02 0.168397315824653D+03 0.754350797186769D+02
 0.147041845701605D+03 -.239192139992563D+01 0.972518169126809D+02 -.754350797186769D+02
 0.319930323127843D+03 -.729999852742849D+02 -.265649132737334D+03 -.162655931593479D+03
0.342426220803D-03 0.000000000000D+00 0.000000000000D+00 0.184183190749D-02 0.000000000000D+00  5 1 -2 25 -24 21 0 0.10239621D+00 0.40608088D-02 0.11729053D+05 0.11729053D+05 0.11729053D+05 0.12601882D+01  1  2  2  2  5  2       -2 0.232966218294D+00 0.100000000000D+01
-.180798253067D-04 0.000000000000D+00 -.131500685078D-05 0.184183190749D-02 0.000000000000D+00  5 1 -2 25 -24 21 2 0.10239621D+00 0.40608088D-02 0.11729053D+05 0.11729053D+05 0.11729053D+05 0.12601882D+01  1  2  3  2  5  2       -2 -.195339905505D-01 0.100000000000D+01
0.234912986901D-04 0.000000000000D+00 0.000000000000D+00 0.184183190749D-02 0.000000000000D+00  5 1 -2 25 -24 21 2 0.10239621D+00 0.40608088D-02 0.11729053D+05 0.11729053D+05 0.11729053D+05 0.12601882D+01  1  2 15  2  5  2       -2 0.253807102031D-01 0.100000000000D+01
0.315345728010D-03 0.000000000000D+00 -.163728554693D-03 0.184183190749D-02 0.000000000000D+00  5 1 -2 25 -24 21 2 0.10239621D+00 0.27194234D-01 0.11729053D+05 0.11729053D+05 0.11729053D+05 0.12601882D+01  1  2  5  2  5  2       -2 0.167086176728D-01 0.100000000000D+01
0.594050807033D-04 0.000000000000D+00 -.381107605061D-04 0.184183190749D-02 0.000000000000D+00  5 1 21 25 -24 2 2 0.10239621D+00 0.27194234D-01 0.11729053D+05 0.11729053D+05 0.11729053D+05 0.12601882D+01  1  2  5  4  5  2       -2 0.424968683519D-01 0.100000000000D+01
  </mgrwgt>
  </event>
  <event>
  5     66 0.47139866E-03 0.14653964E+03 0.75467711E-02 0.11775757E+00
        1 -1    0    0  501    0 0.00000000E+00 0.00000000E+00 0.20219737E+04 0.20219738E+04 0.32000000E+00 0.0000E+00 0.9000E+01
       21 -1    0    0  502  501 0.00000000E+00 0.00000000E+00 -.15054997E+02 0.15073667E+02 0.75000000E+00 0.0000E+00 0.9000E+01
       25  1    1    2    0    0 -.11569244E+03 -.33942670E+02 0.95336479E+03 0.96905432E+03 0.12500000E+03 0.0000E+00 0.9000E+01
      -24  1    1    2    0    0 0.75938062E+02 0.53133382E+02 0.60808178E+03 0.62033895E+03 0.80419002E+02 0.0000E+00 0.9000E+01
        2  1    1    2  502    0 0.39754376E+02 -.19190712E+02 0.44547218E+03 0.44765417E+03 0.32000000E+00 0.0000E+00 0.9000E+01
#aMCatNLO 2  0  0  2  2 0.44144013D+02 0.00000000D+00  -5  5  0 0.00000000D+00 0.00000000D+00 0.00000000D+00 0.00000000D+00 0.00000000D+00
  <mgrwgt>
 0.7248317395D-01    1    2    0
 0.146719860016561D+03 0.000000000000000D+00 0.000000000000000D+00 0.146719860016561D+03
 0.146719860016561D+03 0.000000000000000D+00 0.000000000000000D+00 -.146719860016561D+03
 0.162324059823928D+03 -.930497715404026D+02 -.448730111363287D+02 0.722864341076423D+01
 0.131115660209194D+03 0.930497715404026D+02 0.448730111363287D+02 -.722864341076423D+01
 0.000000000000000D+00 0.000000000000000D+00 -.000000000000000D+00 0.000000000000000D+00
 0.190426921703498D+03 0.000000000000000D+00 0.000000000000000D+00 0.190426921703498D+03
 0.159954674271292D+03 0.000000000000000D+00 0.000000000000000D+00 -.159954674271292D+03
 0.173822030389170D+03 -.115692437609989D+03 -.339426699437787D+02 0.722864341076423D+01
 0.122919545961133D+03 0.759380617490239D+02 0.531333823237525D+02 -.722864341076423D+01
 0.536400196244868D+02 0.397543758609648D+02 -.191907123799738D+02 0.304722474322060D+02
0.134677031884D-04 0.000000000000D+00 0.000000000000D+00 0.243145252962D-02 0.177552525257D-06  5 1 21 25 -24 2 2 0.31107343D+00 0.23175849D-02 0.28988890D+05 0.28988890D+05 0.28988890D+05 0.12164642D+01  1  2  1  4  5  2       -2 0.724831739465D-01 0.100000000000D+01
  </mgrwgt>
  </event>
  <event>
  5     66 -.47139866E-03 0.12006231E+03 0.75467711E-02 0.12079687E+00
        1 -1    0    0  501    0 0.00000000E+00 0.00000000E+00 0.15365050E+04 0.15365050E+04 0.32000000E+00 0.0000E+00 0.9000E+01
       -2 -1    0    0    0  502 0.00000000E+00 0.00000000E+00 -.14014091E+02 0.14017744E+02 0.32000000E+00 0.0000E+00 0.9000E+01
       25  1    1    2    0    0 -.31141119E+02 -.69307230E+02 0.91917540E+03 0.93074255E+03 0.12500000E+03 0.0000E+00 0.9000E+01
      -24  1    1    2    0    0 0.47777147E+02 0.28526099E+02 0.42448176E+03 0.43560116E+03 0.80419002E+02 0.0000E+00 0.9000E+01
       21  1    1    2  501  502 -.16636028E+02 0.40781130E+02 0.17883375E+03 0.18417907E+03 0.75000000E+00 0.0000E+00 0.9000E+01
#aMCatNLO 2  0  0  2  1 0.44043819D+02 0.00000000D+00  -5  5  0 0.00000000D+00 0.00000000D+00 0.00000000D+00 0.00000000D+00 0.00000000D+00
  <mgrwgt>
 -.9804068228D-02    2    2    0
 0.122004815403000D+03 0.000000000000000D+00 0.000000000000000D+00 0.122004815403000D+03
 0.122004815403000D+03 0.000000000000000D+00 0.000000000000000D+00 -.122004815403000D+03
 0.140770025643637D+03 -.409006922615712D+02 -.453828630097938D+02 0.214179652924524D+02
 0.103239605162363D+03 0.409006922615712D+02 0.453828630097938D+02 -.214179652924524D+02
 0.000000000000000D+00 -.000000000000000D+00 0.000000000000000D+00 -.000000000000000D+00
 0.140580403315156D+03 0.000000000000000D+00 0.000000000000000D+00 0.140580403315156D+03
 0.153183993646430D+03 0.000000000000000D+00 0.000000000000000D+00 -.153183993646430D+03
 0.147841099140687D+03 -.311411188817999D+02 -.693072295842752D+02 0.214179652924524D+02
 0.100111634182024D+03 0.477771470196200D+02 0.285260990957700D+02 -.214179652924524D+02
 0.458116636388752D+02 -.166360281378202D+02 0.407811304885053D+02 -.126035903312749D+02
-.108693829018D-03 0.000000000000D+00 0.000000000000D+00 0.267282485180D-02 0.000000000000D+00  5 1 -2 25 -24 21 2 0.20514652D+00 0.22597415D-02 0.20753136D+05 0.20753136D+05 0.20753136D+05 0.12320626D+01  1  2 13  2  5  2       -2 -.851426085482D-01 0.100000000000D+01
0.122023014720D-03 0.000000000000D+00 0.000000000000D+00 0.267282485180D-02 0.115435557772D-04  5 1 -2 25 -24 21 2 0.23638067D+00 0.21562519D-02 0.20753136D+05 0.20753136D+05 0.20753136D+05 0.12320626D+01  1  2  1  2  5  2       -2 0.753385403201D-01 0.100000000000D+01
  </mgrwgt>
  </event>
  <event>
  5     66 0.47139866E-03 0.14187888E+03 0.75467711E-02 0.11377682E+00
        1 -1    0    0  501    0 0.00000000E+00 0.00000000E+00 0.22139185E+03 0.22139208E+03 0.32000000E+00 0.0000E+00 0.9000E+01
       21 -1    0    0  502  501 0.00000000E+00 0.00000000E+00 -.29856623E+03 0.29856717E+03 0.75000000E+00 0.0000E+00 0.9000E+01
       25  1    1    2    0    0 -.14120846E+03 -.50611060E+02 0.10233058E+02 0.19552755E+03 0.12500000E+03 0.0000E+00 0.9000E+01
      -24  1    1    2    0    0 0.65602418E+02 -.44546170E+02 0.64365741E+02 0.12999309E+03 0.80419002E+02 0.0000E+00 0.9000E+01
        2  1    1    2  502    0 0.75606044E+02 0.95157230E+02 -.15177318E+03 0.19443861E+03 0.32000000E+00 0.0000E+00 0.9000E+01
#aMCatNLO 2  0  0  2  1 0.12153671D+03 0.00000000D+00  -5  5  0 0.00000000D+00 0.00000000D+00 0.00000000D+00 0.00000000D+00 0.00000000D+00
  <mgrwgt>
 0.7148269006D-01    2    2    0
 0.146310915729886D+03 0.000000000000000D+00 0.000000000000000D+00 0.146310915729886D+03
 0.146310915729886D+03 0.000000000000000D+00 0.000000000000000D+00 -.146310915729886D+03
 0.161958729838535D+03 -.964979226698238D+02 0.566130752370890D+01 -.355208486447346D+02
 0.130663101621238D+03 0.964979226698238D+02 -.566130752370890D+01 0.355208486447346D+02
 0.000000000000000D+00 0.000000000000000D+00 0.000000000000000D+00 -.000000000000000D+00
 0.175322211152599D+03 0.000000000000000D+00 0.000000000000000D+00 0.175322211152599D+03
 0.377022159271822D+03 0.000000000000000D+00 0.000000000000000D+00 -.377022159271822D+03
 0.198464202965601D+03 -.141208462019103D+03 -.506110602984053D+02 -.355208486447346D+02
 0.118393349548387D+03 0.656024183977283D+02 -.445461701478742D+02 0.355208486447346D+02
 0.235486817910432D+03 0.756060436213747D+02 0.951572304462795D+02 -.201699948119223D+03
-.167570532418D-05 0.000000000000D+00 0.000000000000D+00 0.230961813854D-02 0.000000000000D+00  5 1 21 25 -24 2 2 0.28424247D-01 0.44923977D-01 0.46168143D+05 0.46168143D+05 0.46168143D+05 0.11957264D+01  1  2 13  4  5  2       -2 -.199238168613D-02 0.100000000000D+01
0.812407546753D-04 0.000000000000D+00 0.000000000000D+00 0.230961813854D-02 0.255965968198D-06  5 1 21 25 -24 2 2 0.34060355D-01 0.45933330D-01 0.46168143D+05 0.46168143D+05 0.46168143D+05 0.11957264D+01  1  2  1  4  5  2       -2 0.734750717443D-01 0.100000000000D+01
  </mgrwgt>
  </event>
  <event>
  4     66 0.47139866E-03 0.63492465E+02 0.75467711E-02 0.12317014E+00
        1 -1    0    0  501    0 0.00000000E+00 0.00000000E+00 0.12051368E+02 0.12055615E+02 0.32000000E+00 0.0000E+00 0.9000E+01
       -2 -1    0    0    0  501 0.00000000E+00 0.00000000E+00 -.12088708E+04 0.12088708E+04 0.32000000E+00 0.0000E+00 0.9000E+01
       25  1    1    2    0    0 0.13310145E+02 -.60199905E+02 -.64619577E+03 0.66105609E+03 0.12500000E+03 0.0000E+00 0.9000E+01
      -24  1    1    2    0    0 -.13310145E+02 0.60199905E+02 -.55062365E+03 0.55987035E+03 0.80419002E+02 0.0000E+00 0.9000E+01
#aMCatNLO 1  0  0  2  1 0.13276949D+02 0.00000000D+00  -5  5  0 0.00000000D+00 0.00000000D+00 0.00000000D+00 0.00000000D+00 0.00000000D+00
  <mgrwgt>
 0.3669312709D+00    6    2    0
 0.120711081643456D+03 0.000000000000000D+00 0.000000000000000D+00 0.120711081643456D+03
 0.120711081643456D+03 0.000000000000000D+00 0.000000000000000D+00 -.120711081643456D+03
 0.139677410005666D+03 0.133101450416310D+02 -.601999049777468D+02 0.914277559234712D+01
 0.101744753281246D+03 -.133101450416310D+02 0.601999049777468D+02 -.914277559234712D+01
 0.000000000000000D+00 0.000000000000000D+00 -.000000000000000D+00 0.000000000000000D+00
 0.128509876079501D+03 0.000000000000000D+00 0.000000000000000D+00 0.128509876079501D+03
 0.126679602771449D+03 0.000000000000000D+00 0.000000000000000D+00 -.126679602771449D+03
 0.136520375274888D+03 0.108297517633662D+02 -.530277191326219D+02 0.914277559234712D+01
 0.105266593564149D+03 -.151692097431032D+02 0.655754870089953D+02 -.914277559234712D+01
 0.134025100119128D+02 0.433945797973699D+01 -.125477678763734D+02 0.183027330805267D+01
0.244772588474D-02 0.000000000000D+00 0.000000000000D+00 0.275613670196D-02 0.000000000000D+00  5 1 -2 25 -24 21 0 0.18543866D-02 0.18598045D+00 0.14485446D+05 0.14485446D+05 0.14485446D+05 0.12495544D+01  1  2  2  2  5  2       -2 0.246088620553D+00 0.100000000000D+01
-.135983332447D-03 0.000000000000D+00 -.939991189843D-05 0.275613670196D-02 0.000000000000D+00  5 1 -2 25 -24 21 2 0.18543866D-02 0.18598045D+00 0.14485446D+05 0.14485446D+05 0.14485446D+05 0.12495544D+01  1  2  3  2  5  2       -2 -.213464071342D-01 0.100000000000D+01
0.169648770303D-03 0.000000000000D+00 0.000000000000D+00 0.275613670196D-02 0.000000000000D+00  5 1 -2 25 -24 21 2 0.18543866D-02 0.18598045D+00 0.14485446D+05 0.14485446D+05 0.14485446D+05 0.12495544D+01  1  2 15  2  5  2       -2 0.266311440935D-01 0.100000000000D+01
0.320952828540D-02 0.000000000000D+00 0.000000000000D+00 0.275613670196D-02 0.000000000000D+00  5 1 -2 25 -24 21 2 0.18543866D-02 0.20085599D+00 0.16174706D+05 0.16174706D+05 0.16174706D+05 0.12441067D+01  1  2 12  2  5  2       -2 0.403605712540D+00 0.100000000000D+01
-.222254222588D-02 0.000000000000D+00 0.000000000000D+00 0.275613670196D-02 0.000000000000D+00  5 1 -2 25 -24 21 2 0.18543866D-02 0.18598045D+00 0.14485446D+05 0.14485446D+05 0.14485446D+05 0.12495544D+01  1  2  4  2  5  2       -2 -.348890488069D+00 0.100000000000D+01
0.414093192203D-04 0.000000000000D+00 0.000000000000D+00 0.275613670196D-02 0.000000000000D+00  5 1 21 25 -24 2 2 0.18543866D-02 0.20085599D+00 0.16174706D+05 0.16174706D+05 0.16174706D+05 0.12441067D+01  1  2 12  4  5  2       -2 0.608426889035D-01 0.100000000000D+01
  </mgrwgt>
  </event>
  <event>
  4     66 0.47139866E-03 0.11579521E+03 0.75467711E-02 0.12027162E+00
        1 -1    0    0  501    0 0.00000000E+00 0.00000000E+00 0.22302265E+04 0.22302265E+04 0.32000000E+00 0.0000E+00 0.9000E+01
       -2 -1    0    0    0  501 0.00000000E+00 0.00000000E+00 -.62423686E+01 0.62505652E+01 0.32000000E+00 0.0000E+00 0.9000E+01
       25  1    1    2    0    0 -.45073610E+02 -.26864584E+02 0.10812230E+04 0.10896887E+04 0.12500000E+03 0.0000E+00 0.9000E+01
      -24  1    1    2    0    0 0.45073610E+02 0.26864584E+02 0.11427611E+04 0.11467883E+04 0.80419002E+02 0.0000E+00 0.9000E+01
#aMCatNLO 1  0  0  1  1 0.57658307D+02 0.00000000D+00  -5  5  0 0.00000000D+00 0.00000000D+00 0.00000000D+00 0.00000000D+00 0.00000000D+00
  <mgrwgt>
 0.1398657363D+00    4    2    0
 0.118030026427725D+03 0.000000000000000D+00 0.000000000000000D+00 0.118030026427725D+03
 0.118030026427725D+03 0.000000000000000D+00 0.000000000000000D+00 -.118030026427725D+03
 0.137427175447337D+03 -.450736100508711D+02 -.268645844657406D+02 -.225364666684520D+02
 0.986328774081122D+02 0.450736100508711D+02 0.268645844657406D+02 0.225364666684520D+02
 0.000000000000000D+00 -.000000000000000D+00 0.000000000000000D+00 -.000000000000000D+00
 0.145533841372780D+03 0.000000000000000D+00 0.000000000000000D+00 0.145533841372780D+03
 0.156080812546715D+03 0.000000000000000D+00 0.000000000000000D+00 -.156080812546715D+03
 0.135952366701306D+03 -.177054751085894D+02 -.451294785363981D+02 -.225364666684520D+02
 0.107047281205848D+03 0.656643327203681D+02 0.131227869632875D+02 0.225364666684520D+02
 0.586150060123421D+02 -.479588576117787D+02 0.320066915731106D+02 -.105469711739348D+02
0.531145698450D-03 0.000000000000D+00 0.000000000000D+00 0.273353156458D-02 0.000000000000D+00  5 1 -2 25 -24 21 0 0.34311240D+00 0.96099667D-03 0.13408532D+05 0.13408532D+05 0.13408532D+05 0.12534141D+01  1  2  2  1  5  1        1 0.248745837449D+00 0.100000000000D+01
-.294949841878D-04 0.000000000000D+00 -.203973933592D-05 0.273353156458D-02 0.000000000000D+00  5 1 -2 25 -24 21 2 0.34311240D+00 0.96099667D-03 0.13408532D+05 0.13408532D+05 0.13408532D+05 0.12534141D+01  1  2  3  1  5  1        1 -.217009850076D-01 0.100000000000D+01
0.368298702614D-04 0.000000000000D+00 0.000000000000D+00 0.273353156458D-02 0.000000000000D+00  5 1 -2 25 -24 21 2 0.34311240D+00 0.96099667D-03 0.13408532D+05 0.13408532D+05 0.13408532D+05 0.12534141D+01  1  2 15  1  5  1        1 0.270976399678D-01 0.100000000000D+01
-.155319729198D-03 0.000000000000D+00 0.000000000000D+00 0.273353156458D-02 0.000000000000D+00  5 1 -2 25 -24 21 2 0.34311240D+00 0.96099667D-03 0.13408532D+05 0.13408532D+05 0.13408532D+05 0.12534141D+01  1  2  4  1  5  1        1 -.114276756118D+00 0.100000000000D+01
  </mgrwgt>
  </event>
  <event>
  4     66 0.47139866E-03 0.89602396E+02 0.75467711E-02 0.11704600E+00
        1 -1    0    0  501    0 0.00000000E+00 0.00000000E+00 0.97626791E+03 0.97626797E+03 0.32000000E+00 0.0000E+00 0.9000E+01
       -2 -1    0    0    0  501 0.00000000E+00 0.00000000E+00 -.31599970E+02 0.31601590E+02 0.32000000E+00 0.0000E+00 0.9000E+01
       25  1    1    2    0    0 0.44771392E+02 0.13326996E+03 0.46587731E+03 0.50242614E+03 0.12500000E+03 0.0000E+00 0.9000E+01
      -24  1    1    2    0    0 -.44771392E+02 -.13326996E+03 0.47879063E+03 0.50544341E+03 0.80419002E+02 0.0000E+00 0.9000E+01
#aMCatNLO 1  0  0  1  2 0.44454917D+01 0.00000000D+00  -5  5  0 0.00000000D+00 0.00000000D+00 0.00000000D+00 0.00000000D+00 0.00000000D+00
  <mgrwgt>
 0.3149563811D+00   11    2    0
 0.175644185642580D+03 0.000000000000000D+00 0.000000000000000D+00 0.175644185642580D+03
 0.175644185642580D+03 0.000000000000000D+00 0.000000000000000D+00 -.175644185642580D+03
 0.188678753243162D+03 0.447713921639590D+02 0.133269958918167D+03 -.144676334984344D+02
 0.162609618041998D+03 -.447713921639590D+02 -.133269958918167D+03 0.144676334984344D+02
 0.000000000000000D+00 0.000000000000000D+00 0.000000000000000D+00 0.000000000000000D+00
 0.185528275038068D+03 0.000000000000000D+00 0.000000000000000D+00 0.185528275038068D+03
 0.176158815288406D+03 0.000000000000000D+00 0.000000000000000D+00 -.176158815288406D+03
 0.186917648683758D+03 0.438868041945897D+02 0.131064271973736D+03 -.144676334984344D+02
 0.164398849927817D+03 -.455415479885728D+02 -.135190313598934D+03 0.144676334984344D+02
 0.103705917148983D+02 0.165474379398314D+01 0.412604162519737D+01 0.936945974966165D+01
0.412236730728D-03 0.000000000000D+00 0.000000000000D+00 0.223889631596D-02 0.000000000000D+00  5 1 -2 25 -24 21 0 0.15019519D+00 0.48616626D-02 0.30640400D+05 0.30640400D+05 0.30640400D+05 0.12139368D+01  1  2  2  1  5  1        1 0.122217617597D+00 0.100000000000D+01
-.229017143451D-04 0.000000000000D+00 -.158309759042D-05 0.223889631596D-02 0.000000000000D+00  5 1 -2 25 -24 21 2 0.15019519D+00 0.48616626D-02 0.30640400D+05 0.30640400D+05 0.30640400D+05 0.12139368D+01  1  2  3  1  5  1        1 -.100056956516D-01 0.100000000000D+01
0.283941769431D-04 0.000000000000D+00 0.000000000000D+00 0.223889631596D-02 0.000000000000D+00  5 1 -2 25 -24 21 2 0.15019519D+00 0.48616626D-02 0.30640400D+05 0.30640400D+05 0.30640400D+05 0.12139368D+01  1  2 15  1  5  1        1 0.124053373685D-01 0.100000000000D+01
0.127188267574D-02 0.000000000000D+00 0.000000000000D+00 0.223889631596D-02 0.000000000000D+00  5 1 -2 25 -24 21 2 0.15886022D+00 0.48616626D-02 0.31428802D+05 0.31428802D+05 0.31428802D+05 0.12127833D+01  1  2 12  1  5  1        1 0.504150838420D+00 0.100000000000D+01
-.947339569245D-02 0.000000000000D+00 0.000000000000D+00 0.223889631596D-02 0.000000000000D+00  5 1 -2 25 -24 21 2 0.15019519D+00 0.48616626D-02 0.30640400D+05 0.30640400D+05 0.30640400D+05 0.12139368D+01  1  2  4  1  5  1        1 -.413890037476D+01 0.100000000000D+01
-.149542048924D-01 0.000000000000D+00 -.100215386975D-02 0.223889631596D-02 0.000000000000D+00  5 1 -2 25 -24 21 2 0.15885453D+00 0.48616626D-02 0.30640400D+05 0.30640400D+05 0.30640400D+05 0.12139368D+01  1  2  5  1  5  1        1 -.593771613775D+01 0.100000000000D+01
0.149883984663D-01 0.000000000000D+00 0.100058156747D-02 0.223889631596D-02 0.000000000000D+00  5 1 -2 25 -24 21 2 0.15019519D+00 0.48616626D-02 0.30640400D+05 0.30640400D+05 0.30640400D+05 0.12139368D+01  1  2  6  1  5  1        1 0.654838983225D+01 0.100000000000D+01
0.819579966573D-02 0.000000000000D+00 0.000000000000D+00 0.223889631596D-02 0.890032488438D-03  5 1 -2 25 -24 21 2 0.15864718D+00 0.48759070D-02 0.31428802D+05 0.31428802D+05 0.31428802D+05 0.12127833D+01  1  2 11  1  5  1        1 0.324188325633D+01 0.100000000000D+01
0.199000668327D-04 0.000000000000D+00 0.000000000000D+00 0.223889631596D-02 0.000000000000D+00  5 21 -2 25 -24 -1 2 0.15886022D+00 0.48616626D-02 0.31428802D+05 0.31428802D+05 0.31428802D+05 0.12127833D+01  1  2 12  3  5  1        1 0.119811827792D-01 0.100000000000D+01
-.143665848644D-03 0.000000000000D+00 -.970144389574D-05 0.223889631596D-02 0.000000000000D+00  5 21 -2 25 -24 -1 2 0.15885453D+00 0.48616626D-02 0.30640400D+05 0.30640400D+05 0.30640400D+05 0.12139368D+01  1  2  5  3  5  1        1 -.867355464641D-01 0.100000000000D+01
0.786037842340D-04 0.000000000000D+00 0.000000000000D+00 0.223889631596D-02 0.843198173159D-05  5 21 -2 25 -24 -1 2 0.15864718D+00 0.48759070D-02 0.31428802D+05 0.31428802D+05 0.31428802D+05 0.12127833D+01  1  2 11  3  5  1        1 0.472860709472D-01 0.100000000000D+01
  </mgrwgt>
  </event>
  <event>
  4     66 0.47139866E-03 0.24694314E+03 0.75467711E-02 0.10747598E+00
        1 -1    0    0  501    0 0.00000000E+00 0.00000000E+00 0.17909258E+03 0.17909287E+03 0.32000000E+00 0.0000E+00 0.9000E+01
       -2 -1    0    0    0  501 0.00000000E+00 0.00000000E+00 -.64446932E+03 0.64446940E+03 0.32000000E+00 0.0000E+00 0.9000E+01
       25  1    1    2    0    0 0.20298430E+03 -.93904929E+02 -.51999962E+03 0.57969420E+03 0.12500000E+03 0.0000E+00 0.9000E+01
      -24  1    1    2    0    0 -.20298430E+03 0.93904929E+02 0.54622881E+02 0.24386807E+03 0.80419002E+02 0.0000E+00 0.9000E+01
#aMCatNLO 1  0  0  2  1 0.13619910D+03 0.00000000D+00  -5  5  0 0.00000000D+00 0.00000000D+00 0.00000000D+00 0.00000000D+00 0.00000000D+00
  <mgrwgt>
 0.1143324140D+00    4    2    0
 0.339734936342948D+03 0.000000000000000D+00 0.000000000000000D+00 0.339734936342948D+03
 0.339734936342948D+03 0.000000000000000D+00 0.000000000000000D+00 -.339734936342948D+03
 0.346473854736364D+03 0.202984299352193D+03 -.939049287547774D+02 -.233234582744357D+03
 0.332996017949533D+03 -.202984299352193D+03 0.939049287547774D+02 0.233234582744357D+03
 0.000000000000000D+00 0.000000000000000D+00 -.000000000000000D+00 0.000000000000000D+00
 0.440780852985501D+03 0.000000000000000D+00 0.000000000000000D+00 0.440780852985501D+03
 0.395677959070751D+03 0.000000000000000D+00 0.000000000000000D+00 -.395677959070751D+03
 0.308838059128489D+03 0.147532087941523D+03 -.599321216538554D+02 -.233234582744357D+03
 0.384147874192574D+03 -.263668706086688D+03 0.131083241243649D+03 0.233234582744357D+03
 0.143472878735189D+03 0.116136618145165D+03 -.711511195897939D+02 0.451028939147508D+02
0.124231587959D-01 0.000000000000D+00 0.000000000000D+00 0.106415618603D-02 0.000000000000D+00  5 1 -2 25 -24 21 0 0.27552733D-01 0.99149155D-01 0.60980915D+05 0.60980915D+05 0.60980915D+05 0.11838357D+01  1  2  2  2  5  2       -2 0.162506010317D+00 0.100000000000D+01
-.604778394867D-03 0.000000000000D+00 -.477082008692D-04 0.106415618603D-02 0.000000000000D+00  5 1 -2 25 -24 21 2 0.27552733D-01 0.99149155D-01 0.60980915D+05 0.60980915D+05 0.60980915D+05 0.11838357D+01  1  2  3  2  5  2       -2 -.110870638521D-01 0.100000000000D+01
0.854198403577D-03 0.000000000000D+00 0.000000000000D+00 0.106415618603D-02 0.000000000000D+00  5 1 -2 25 -24 21 2 0.27552733D-01 0.99149155D-01 0.60980915D+05 0.60980915D+05 0.60980915D+05 0.11838357D+01  1  2 15  2  5  2       -2 0.156595412852D-01 0.100000000000D+01
-.287719871132D-02 0.000000000000D+00 0.000000000000D+00 0.106415618603D-02 0.000000000000D+00  5 1 -2 25 -24 21 2 0.27552733D-01 0.99149155D-01 0.60980915D+05 0.60980915D+05 0.60980915D+05 0.11838357D+01  1  2  4  2  5  2       -2 -.527460737657D-01 0.100000000000D+01
  </mgrwgt>
  </event>
  <event>
  4     66 0.47139866E-03 0.11705005E+03 0.75467711E-02 0.11163993E+00
        1 -1    0    0  501    0 0.00000000E+00 0.00000000E+00 0.96579033E+03 0.96579038E+03 0.32000000E+00 0.0000E+00 0.9000E+01
       -2 -1    0    0    0  501 0.00000000E+00 0.00000000E+00 -.20338340E+02 0.20340857E+02 0.32000000E+00 0.0000E+00 0.9000E+01
       25  1    1    2    0    0 0.38893656E+02 0.39044407E+02 0.79637303E+03 0.80800506E+03 0.12500000E+03 0.0000E+00 0.9000E+01
      -24  1    1    2    0    0 -.38893656E+02 -.39044407E+02 0.14907896E+03 0.17812618E+03 0.80419002E+02 0.0000E+00 0.9000E+01
#aMCatNLO 1  0  0  1  1 0.18881377D+03 0.00000000D+00  -5  5  0 0.00000000D+00 0.00000000D+00 0.00000000D+00 0.00000000D+00 0.00000000D+00
  <mgrwgt>
 0.1981425465D+00    5    2    0
 0.140156482011199D+03 0.000000000000000D+00 0.000000000000000D+00 0.140156482011199D+03
 0.140156482011199D+03 0.000000000000000D+00 0.000000000000000D+00 -.140156482011199D+03
 0.156491409790168D+03 0.388936557474323D+02 0.390444074174788D+02 0.763372722209310D+02
 0.123821554232229D+03 -.388936557474323D+02 -.390444074174788D+02 -.763372722209310D+02
 0.000000000000000D+00 0.000000000000000D+00 -.000000000000000D+00 0.000000000000000D+00
 0.273534146263371D+03 0.000000000000000D+00 0.000000000000000D+00 0.273534146263371D+03
 0.254236582286767D+03 0.000000000000000D+00 0.000000000000000D+00 -.254236582286767D+03
 0.171152331837767D+03 -.569373473774811D+02 0.678150428517784D+02 0.763372722209310D+02
 0.166821038453121D+03 -.123902363893280D+03 -.135228698038427D+02 -.763372722209310D+02
 0.189797358259251D+03 0.180839711270761D+03 -.542921730479357D+02 0.192975639766040D+02
0.331405395404D-03 0.000000000000D+00 0.000000000000D+00 0.183115598538D-02 0.000000000000D+00  5 1 -2 25 -24 21 0 0.14858333D+00 0.31291731D-02 0.13700714D+05 0.13700714D+05 0.13700714D+05 0.12523334D+01  1  2  2  1  5  1        1 0.189851329413D+00 0.100000000000D+01
-.176848446303D-04 0.000000000000D+00 -.127268397940D-05 0.183115598538D-02 0.000000000000D+00  5 1 -2 25 -24 21 2 0.14858333D+00 0.31291731D-02 0.13700714D+05 0.13700714D+05 0.13700714D+05 0.12523334D+01  1  2  3  1  5  1        1 -.158889506097D-01 0.100000000000D+01
0.227860126851D-04 0.000000000000D+00 0.000000000000D+00 0.183115598538D-02 0.000000000000D+00  5 1 -2 25 -24 21 2 0.14858333D+00 0.31291731D-02 0.13700714D+05 0.13700714D+05 0.13700714D+05 0.12523334D+01  1  2 15  1  5  1        1 0.204720956115D-01 0.100000000000D+01
0.404561453439D-04 0.000000000000D+00 -.106969981731D-03 0.183115598538D-02 0.000000000000D+00  5 1 -2 25 -24 21 2 0.39790021D+00 0.31291731D-02 0.13700714D+05 0.13700714D+05 0.13700714D+05 0.12523334D+01  1  2  5  1  5  1        1 0.319019868914D-02 0.100000000000D+01
0.107172680248D-04 0.000000000000D+00 -.117362044365D-04 0.183115598538D-02 0.000000000000D+00  5 21 -2 25 -24 -1 2 0.39790021D+00 0.31291731D-02 0.13700714D+05 0.13700714D+05 0.13700714D+05 0.12523334D+01  1  2  5  3  5  1        1 0.517873421745D-03 0.100000000000D+01
  </mgrwgt>
  </event>
  <event>
  4     66 0.47139866E-03 0.11968133E+03 0.75467711E-02 0.12425713E+00
        1 -1    0    0  501    0 0.00000000E+00 0.00000000E+00 0.13181145E+03 0.13181184E+03 0.32000000E+00 0.0000E+00 0.9000E+01
       -2 -1    0    0    0  501 0.00000000E+00 0.00000000E+00 -.13758696E+03 0.13758733E+03 0.32000000E+00 0.0000E+00 0.9000E+01
       25  1    1    2    0    0 0.55219494E+02 -.24377404E+02 0.57877212E+02 0.15039356E+03 0.12500000E+03 0.0000E+00 0.9000E+01
      -24  1    1    2    0    0 -.55219494E+02 0.24377404E+02 -.63652721E+02 0.11900561E+03 0.80419002E+02 0.0000E+00 0.9000E+01
#aMCatNLO 1  0  0  1  1 0.12618902D+01 0.00000000D+00  -5  5  0 0.00000000D+00 0.00000000D+00 0.00000000D+00 0.00000000D+00 0.00000000D+00
  <mgrwgt>
 0.2021170297D+00    6    2    0
 0.134668625590694D+03 0.000000000000000D+00 0.000000000000000D+00 0.134668625590694D+03
 0.134668625590694D+03 0.000000000000000D+00 0.000000000000000D+00 -.134668625590694D+03
 0.151669215010577D+03 0.552194942481155D+02 -.243774035420374D+02 0.611154680376069D+02
 0.117668036170811D+03 -.552194942481155D+02 0.243774035420374D+02 -.611154680376069D+02
 0.000000000000000D+00 0.000000000000000D+00 -.000000000000000D+00 -.000000000000000D+00
 0.134925793976124D+03 0.000000000000000D+00 0.000000000000000D+00 0.134925793976124D+03
 0.136227032520885D+03 0.000000000000000D+00 0.000000000000000D+00 -.136227032520885D+03
 0.151533386157557D+03 0.551542519168086D+02 -.236701327080496D+02 0.611154680376069D+02
 0.117806821091074D+03 -.552701631031740D+02 0.249266880733611D+02 -.611154680376069D+02
 0.181261924837799D+01 0.115911186365356D+00 -.125655536531149D+01 -.130123854476136D+01
0.445243404591D-03 0.000000000000D+00 0.000000000000D+00 0.208978419292D-02 0.000000000000D+00  5 1 -2 25 -24 21 0 0.20278743D-01 0.21167283D-01 0.14323620D+05 0.14323620D+05 0.14323620D+05 0.12501134D+01  1  2  2  1  5  1        1 0.177289784555D+00 0.100000000000D+01
-.243170893095D-04 0.000000000000D+00 -.170985190891D-05 0.208978419292D-02 0.000000000000D+00  5 1 -2 25 -24 21 2 0.20278743D-01 0.21167283D-01 0.14323620D+05 0.14323620D+05 0.14323620D+05 0.12501134D+01  1  2  3  1  5  1        1 -.151320110284D-01 0.100000000000D+01
0.307546935544D-04 0.000000000000D+00 0.000000000000D+00 0.208978419292D-02 0.000000000000D+00  5 1 -2 25 -24 21 2 0.20278743D-01 0.21167283D-01 0.14323620D+05 0.14323620D+05 0.14323620D+05 0.12501134D+01  1  2 15  1  5  1        1 0.191379961688D-01 0.100000000000D+01
-.134496791963D-02 0.000000000000D+00 0.000000000000D+00 0.208978419292D-02 0.000000000000D+00  5 1 -2 25 -24 21 2 0.20278743D-01 0.21167283D-01 0.14323620D+05 0.14323620D+05 0.14323620D+05 0.12501134D+01  1  2  4  1  5  1        1 -.836945126683D+00 0.100000000000D+01
0.134507580386D-02 0.000000000000D+00 0.000000000000D+00 0.208978419292D-02 0.109300878721D-01  5 1 -2 25 -24 21 2 0.20317468D-01 0.21412234D-01 0.14476721D+05 0.14476721D+05 0.14476721D+05 0.12495844D+01  1  2 11  1  5  1        1 0.818390150041D+00 0.100000000000D+01
0.763832600398D-05 0.000000000000D+00 0.000000000000D+00 0.208978419292D-02 0.392573166604D-05  5 21 -2 25 -24 -1 2 0.20317468D-01 0.21412234D-01 0.14476721D+05 0.14476721D+05 0.14476721D+05 0.12495844D+01  1  2 11  3  5  1        1 0.393762366550D-01 0.100000000000D+01
  </mgrwgt>
  </event>
  <event>
  4     66 0.47139866E-03 0.72186752E+02 0.75467711E-02 0.12468904E+00
        1 -1    0    0  501    0 0.00000000E+00 0.00000000E+00 0.41261744E+03 0.41261756E+03 0.32000000E+00 0.0000E+00 0.9000E+01
       -2 -1    0    0    0  501 0.00000000E+00 0.00000000E+00 -.29922500E+02 0.29924211E+02 0.32000000E+00 0.0000E+00 0.9000E+01
       25  1    1    2    0    0 -.14531614E+02 0.27168108E+02 0.17135279E+03 0.21432697E+03 0.12500000E+03 0.0000E+00 0.9000E+01
      -24  1    1    2    0    0 0.14531614E+02 -.27168108E+02 0.21134215E+03 0.22821480E+03 0.80419002E+02 0.0000E+00 0.9000E+01
#aMCatNLO 1  0  0  2  1 0.19653111D+02 0.00000000D+00  -5  5  0 0.00000000D+00 0.00000000D+00 0.00000000D+00 0.00000000D+00 0.00000000D+00
  <mgrwgt>
 0.1772725649D+00    9    2    0
 0.111116836147377D+03 0.000000000000000D+00 0.000000000000000D+00 0.111116836147377D+03
 0.111116836147377D+03 0.000000000000000D+00 0.000000000000000D+00 -.111116836147377D+03
 0.131720788624667D+03 -.145316140541527D+02 0.271681079706577D+02 -.278584324429789D+02
 0.905128836700871D+02 0.145316140541527D+02 -.271681079706577D+02 0.278584324429789D+02
 0.000000000000000D+00 0.000000000000000D+00 0.000000000000000D+00 -.000000000000000D+00
 0.114110823047317D+03 0.000000000000000D+00 0.000000000000000D+00 0.114110823047317D+03
 0.149264845665168D+03 0.000000000000000D+00 0.000000000000000D+00 -.149264845665168D+03
 0.130384961610343D+03 -.183161652484774D+02 0.162377352651491D+02 -.278584324429789D+02
 0.927160242165485D+02 0.118859674723612D+02 -.348091469475917D+02 0.278584324429789D+02
 0.402746828855938D+02 0.643019777611624D+01 0.185714116824426D+02 -.351540226178514D+02
0.142349443491D-03 0.000000000000D+00 0.000000000000D+00 0.282389422138D-02 0.000000000000D+00  5 1 -2 25 -24 21 0 0.63479747D-01 0.46036027D-02 0.11541222D+05 0.11541222D+05 0.11541222D+05 0.12610131D+01  1  2  2  2  5  2       -2 0.150448722818D+00 0.100000000000D+01
-.789735511577D-05 0.000000000000D+00 -.546659344475D-06 0.282389422138D-02 0.000000000000D+00  5 1 -2 25 -24 21 2 0.63479747D-01 0.46036027D-02 0.11541222D+05 0.11541222D+05 0.11541222D+05 0.12610131D+01  1  2  3  2  5  2       -2 -.132725257489D-01 0.100000000000D+01
0.984121283566D-05 0.000000000000D+00 0.000000000000D+00 0.282389422138D-02 0.000000000000D+00  5 1 -2 25 -24 21 2 0.63479747D-01 0.46036027D-02 0.11541222D+05 0.11541222D+05 0.11541222D+05 0.12610131D+01  1  2 15  2  5  2       -2 0.165394298277D-01 0.100000000000D+01
0.403511913190D-03 0.000000000000D+00 0.000000000000D+00 0.282389422138D-02 0.000000000000D+00  5 1 -2 25 -24 21 2 0.63479747D-01 0.62304856D-02 0.13860220D+05 0.13860220D+05 0.13860220D+05 0.12517543D+01  1  2 12  2  5  2       -2 0.427343710029D+00 0.100000000000D+01
-.401311856005D-03 0.000000000000D+00 0.000000000000D+00 0.282389422138D-02 0.000000000000D+00  5 1 -2 25 -24 21 2 0.63479747D-01 0.46036027D-02 0.11541222D+05 0.11541222D+05 0.11541222D+05 0.12610131D+01  1  2  4  2  5  2       -2 -.674456430550D+00 0.100000000000D+01
-.492632364933D-03 0.000000000000D+00 -.649022813937D-04 0.282389422138D-02 0.000000000000D+00  5 1 -2 25 -24 21 2 0.63479747D-01 0.63404961D-02 0.11541222D+05 0.11541222D+05 0.11541222D+05 0.12610131D+01  1  2  5  2  5  2       -2 -.512447962008D+00 0.100000000000D+01
0.491213552821D-03 0.000000000000D+00 0.617131459444D-04 0.282389422138D-02 0.000000000000D+00  5 1 -2 25 -24 21 2 0.63479747D-01 0.46036027D-02 0.11541222D+05 0.11541222D+05 0.11541222D+05 0.12610131D+01  1  2  6  2  5  2       -2 0.825547848927D+00 0.100000000000D+01
0.156959524810D-04 0.000000000000D+00 0.000000000000D+00 0.282389422138D-02 0.000000000000D+00  5 1 21 25 -24 2 2 0.63479747D-01 0.62304856D-02 0.13860220D+05 0.13860220D+05 0.13860220D+05 0.12517543D+01  1  2 12  4  5  2       -2 0.287113329497D+00 0.100000000000D+01
-.183481502978D-04 0.000000000000D+00 -.262906803498D-05 0.282389422138D-02 0.000000000000D+00  5 1 21 25 -24 2 2 0.63479747D-01 0.63404961D-02 0.11541222D+05 0.11541222D+05 0.11541222D+05 0.12610131D+01  1  2  5  4  5  2       -2 -.329543557859D+00 0.100000000000D+01
  </mgrwgt>
  </event>
  <event>
  4     66 0.47139866E-03 0.86004399E+02 0.75467711E-02 0.11611032E+00
        1 -1    0    0  501    0 0.00000000E+00 0.00000000E+00 0.22758627E+04 0.22758627E+04 0.32000000E+00 0.0000E+00 0.9000E+01
       -2 -1    0    0    0  501 0.00000000E+00 0.00000000E+00 -.76826154E+01 0.76892769E+01 0.32000000E+00 0.0000E+00 0.9000E+01
       25  1    1    2    0    0 -.20014385E+02 0.79320646E+02 0.13456168E+04 0.13538840E+04 0.12500000E+03 0.0000E+00 0.9000E+01
      -24  1    1    2    0    0 0.20014385E+02 -.79320646E+02 0.92256331E+03 0.92966802E+03 0.80419002E+02 0.0000E+00 0.9000E+01
#aMCatNLO 1  0  0  1  2 0.93923805D+02 0.00000000D+00  -5  5  0 0.00000000D+00 0.00000000D+00 0.00000000D+00 0.00000000D+00 0.00000000D+00
  <mgrwgt>
 0.2853098770D+00    7    2    0
 0.132258117106428D+03 0.000000000000000D+00 0.000000000000000D+00 0.132258117106428D+03
 0.132258117106428D+03 0.000000000000000D+00 0.000000000000000D+00 -.132258117106428D+03
 0.149568555675314D+03 -.200143848101975D+02 0.793206457681988D+02 0.730837891633739D+01
 0.114947678537542D+03 0.200143848101975D+02 -.793206457681988D+02 -.730837891633739D+01
 0.000000000000000D+00 -.000000000000000D+00 -.000000000000000D+00 0.000000000000000D+00
 0.338452997675639D+03 0.000000000000000D+00 0.000000000000000D+00 0.338452997675639D+03
 0.151480841533000D+03 0.000000000000000D+00 0.000000000000000D+00 -.151480841533000D+03
 0.183276013425657D+03 -.218314283731791D+01 0.133816735060189D+03 0.730837891633739D+01
 0.974204763651930D+02 0.313914307618047D+02 -.445499599684741D+02 -.730837891633739D+01
 0.209237349417789D+03 -.292082879244868D+02 -.892667750917146D+02 0.186972156142639D+03
0.856823300565D-03 0.000000000000D+00 0.000000000000D+00 0.258369964703D-02 0.000000000000D+00  5 1 -2 25 -24 21 0 0.35013324D+00 0.11824550D-02 0.17437863D+05 0.17437863D+05 0.17437863D+05 0.12404349D+01  1  2  2  1  5  1        1 0.279537067922D+00 0.100000000000D+01
-.476011543747D-04 0.000000000000D+00 -.329042708092D-05 0.258369964703D-02 0.000000000000D+00  5 1 -2 25 -24 21 2 0.35013324D+00 0.11824550D-02 0.17437863D+05 0.17437863D+05 0.17437863D+05 0.12404349D+01  1  2  3  1  5  1        1 -.238953585021D-01 0.100000000000D+01
0.592039452008D-04 0.000000000000D+00 0.000000000000D+00 0.258369964703D-02 0.000000000000D+00  5 1 -2 25 -24 21 2 0.35013324D+00 0.11824550D-02 0.17437863D+05 0.17437863D+05 0.17437863D+05 0.12404349D+01  1  2 15  1  5  1        1 0.297198568795D-01 0.100000000000D+01
0.170186230711D-03 0.000000000000D+00 0.000000000000D+00 0.258369964703D-02 0.000000000000D+00  5 1 -2 25 -24 21 2 0.88051537D+00 0.11824550D-02 0.35006410D+05 0.35006410D+05 0.35006410D+05 0.12079261D+01  1  2 12  1  5  1        1 0.350021874075D-04 0.100000000000D+01
-.735414316155D-03 0.000000000000D+00 -.209976558777D-03 0.258369964703D-02 0.000000000000D+00  5 1 -2 25 -24 21 2 0.90024998D+00 0.11824550D-02 0.17437863D+05 0.17437863D+05 0.17437863D+05 0.12404349D+01  1  2  5  1  5  1        1 -.866372350869D-04 0.100000000000D+01
0.172922537093D-04 0.000000000000D+00 0.000000000000D+00 0.258369964703D-02 0.000000000000D+00  5 21 -2 25 -24 -1 2 0.88051537D+00 0.11824550D-02 0.35006410D+05 0.35006410D+05 0.35006410D+05 0.12079261D+01  1  2 12  3  5  1        1 0.799850237417D-07 0.100000000000D+01
-.640477231369D-04 0.000000000000D+00 -.219284257624D-04 0.258369964703D-02 0.000000000000D+00  5 21 -2 25 -24 -1 2 0.90024998D+00 0.11824550D-02 0.17437863D+05 0.17437863D+05 0.17437863D+05 0.12404349D+01  1  2  5  3  5  1        1 -.134241503077D-06 0.100000000000D+01
  </mgrwgt>
  </event>
  <event>
  4     66 0.47139866E-03 0.10461318E+03 0.75467711E-02 0.12292693E+00
        1 -1    0    0  501    0 0.00000000E+00 0.00000000E+00 0.46575734E+03 0.46575745E+03 0.32000000E+00 0.0000E+00 0.9000E+01
       -2 -1    0    0    0  501 0.00000000E+00 0.00000000E+00 -.25601528E+02 0.25603528E+02 0.32000000E+00 0.0000E+00 0.9000E+01
       25  1    1    2    0    0 -.14879412E+02 -.12464339E+02 0.19330499E+03 0.23101640E+03 0.12500000E+03 0.0000E+00 0.9000E+01
      -24  1    1    2    0    0 0.14879412E+02 0.12464339E+02 0.24685082E+03 0.26034458E+03 0.80419002E+02 0.0000E+00 0.9000E+01
#aMCatNLO 1  0  0  2  2 0.43708930D+02 0.00000000D+00  -5  5  0 0.00000000D+00 0.00000000D+00 0.00000000D+00 0.00000000D+00 0.00000000D+00
  <mgrwgt>
 0.1926171344D+00    4    2    0
 0.109199899273908D+03 0.000000000000000D+00 0.000000000000000D+00 0.109199899273908D+03
 0.109199899273908D+03 0.000000000000000D+00 0.000000000000000D+00 -.109199899273908D+03
 0.130165541427705D+03 -.148794117794468D+02 -.124643394270862D+02 -.306808005585179D+02
 0.882342571201121D+02 0.148794117794468D+02 0.124643394270862D+02 0.306808005585179D+02
 0.000000000000000D+00 -.000000000000000D+00 -.000000000000000D+00 0.000000000000000D+00
 0.157285418344589D+03 0.000000000000000D+00 0.000000000000000D+00 0.157285418344589D+03
 0.121766384961206D+03 0.000000000000000D+00 0.000000000000000D+00 -.121766384961206D+03
 0.129129990875199D+03 0.947786535335139D+01 -.429104752491406D+01 -.306808005585179D+02
 0.936006593640211D+02 0.319603210179808D+02 0.181959840768513D+02 0.306808005585179D+02
 0.563211530665750D+02 -.414381863713322D+02 -.139049365519373D+02 0.355190333833834D+02
0.204217660436D-03 0.000000000000D+00 0.000000000000D+00 0.283349390933D-02 0.000000000000D+00  5 1 -2 25 -24 21 0 0.71655138D-01 0.39388589D-02 0.10943917D+05 0.10943917D+05 0.10943917D+05 0.12637403D+01  1  2  2  2  5  2       -2 0.232763854541D+00 0.100000000000D+01
-.113200256963D-04 0.000000000000D+00 -.784249587817D-06 0.283349390933D-02 0.000000000000D+00  5 1 -2 25 -24 21 2 0.71655138D-01 0.39388589D-02 0.10943917D+05 0.10943917D+05 0.10943917D+05 0.12637403D+01  1  2  3  2  5  2       -2 -.206056016844D-01 0.100000000000D+01
0.140325856793D-04 0.000000000000D+00 0.000000000000D+00 0.283349390933D-02 0.000000000000D+00  5 1 -2 25 -24 21 2 0.71655138D-01 0.39388589D-02 0.10943917D+05 0.10943917D+05 0.10943917D+05 0.12637403D+01  1  2 15  2  5  2       -2 0.255432168503D-01 0.100000000000D+01
-.247678200147D-04 0.000000000000D+00 0.000000000000D+00 0.283349390933D-02 0.000000000000D+00  5 1 -2 25 -24 21 2 0.71655138D-01 0.39388589D-02 0.10943917D+05 0.10943917D+05 0.10943917D+05 0.12637403D+01  1  2  4  2  5  2       -2 -.450843352752D-01 0.100000000000D+01
  </mgrwgt>
  </event>
  <event>
  4     66 0.47139866E-03 0.58639756E+02 0.75467711E-02 0.12372190E+00
        1 -1    0    0  501    0 0.00000000E+00 0.00000000E+00 0.15316043E+04 0.15316043E+04 0.32000000E+00 0.0000E+00 0.9000E+01
       -2 -1    0    0    0  501 0.00000000E+00 0.00000000E+00 -.10091016E+02 0.10096088E+02 0.32000000E+00 0.0000E+00 0.9000E+01
       25  1    1    2    0    0 0.15386992E+02 0.51577607E+02 0.11404644E+04 0.11485561E+04 0.12500000E+03 0.0000E+00 0.9000E+01
      -24  1    1    2    0    0 -.15386992E+02 -.51577607E+02 0.38104887E+03 0.39314433E+03 0.80419002E+02 0.0000E+00 0.9000E+01
#aMCatNLO 1  0  0  1  2 0.13871012D+02 0.00000000D+00  -5  5  0 0.00000000D+00 0.00000000D+00 0.00000000D+00 0.00000000D+00 0.00000000D+00
  <mgrwgt>
 0.4632518427D+00    9    2    0
 0.124335750463778D+03 0.000000000000000D+00 0.000000000000000D+00 0.124335750463778D+03
 0.124335750463778D+03 0.000000000000000D+00 0.000000000000000D+00 -.124335750463778D+03
 0.142749167384234D+03 0.153869918759021D+02 0.515776069208925D+02 0.430733761645982D+02
 0.105922333543322D+03 -.153869918759021D+02 -.515776069208925D+02 -.430733761645982D+02
 0.000000000000000D+00 0.000000000000000D+00 0.000000000000000D+00 0.000000000000000D+00
 0.140423420464301D+03 0.000000000000000D+00 0.000000000000000D+00 0.140423420464301D+03
 0.127555336721834D+03 0.000000000000000D+00 0.000000000000000D+00 -.127555336721834D+03
 0.140076639592581D+03 0.112081353080696D+02 0.448946202595461D+02 0.430733761645982D+02
 0.108981426612027D+03 -.185622749208850D+02 -.566556405626709D+02 -.430733761645982D+02
 0.189206909815275D+02 0.735413961281544D+01 0.117610203031249D+02 0.128680837424677D+02
0.316207874113D-03 0.000000000000D+00 0.000000000000D+00 0.242256774405D-02 0.000000000000D+00  5 1 -2 25 -24 21 0 0.23563182D+00 0.15528567D-02 0.13556470D+05 0.13556470D+05 0.13556470D+05 0.12528636D+01  1  2  2  1  5  1        1 0.206894624800D+00 0.100000000000D+01
-.174749755219D-04 0.000000000000D+00 -.121432149604D-05 0.242256774405D-02 0.000000000000D+00  5 1 -2 25 -24 21 2 0.23563182D+00 0.15528567D-02 0.13556470D+05 0.13556470D+05 0.13556470D+05 0.12528636D+01  1  2  3  1  5  1        1 -.179473648091D-01 0.100000000000D+01
0.218375626733D-04 0.000000000000D+00 0.000000000000D+00 0.242256774405D-02 0.000000000000D+00  5 1 -2 25 -24 21 2 0.23563182D+00 0.15528567D-02 0.13556470D+05 0.13556470D+05 0.13556470D+05 0.12528636D+01  1  2 15  1  5  1        1 0.224278828516D-01 0.100000000000D+01
0.953244230897D-03 0.000000000000D+00 0.000000000000D+00 0.242256774405D-02 0.000000000000D+00  5 1 -2 25 -24 21 2 0.26890703D+00 0.15528567D-02 0.15285471D+05 0.15285471D+05 0.15285471D+05 0.12468902D+01  1  2 12  1  5  1        1 0.707217846413D+00 0.100000000000D+01
-.965796523244D-03 0.000000000000D+00 0.000000000000D+00 0.242256774405D-02 0.000000000000D+00  5 1 -2 25 -24 21 2 0.23563182D+00 0.15528567D-02 0.13556470D+05 0.13556470D+05 0.13556470D+05 0.12528636D+01  1  2  4  1  5  1        1 -.991904252589D+00 0.100000000000D+01
-.186416707133D-02 0.000000000000D+00 -.305937332802D-03 0.242256774405D-02 0.000000000000D+00  5 1 -2 25 -24 21 2 0.26901180D+00 0.15528567D-02 0.13556470D+05 0.13556470D+05 0.13556470D+05 0.12528636D+01  1  2  5  1  5  1        1 -.139259522730D+01 0.100000000000D+01
0.189074686542D-02 0.000000000000D+00 0.303271892092D-03 0.242256774405D-02 0.000000000000D+00  5 1 -2 25 -24 21 2 0.23563182D+00 0.15528567D-02 0.13556470D+05 0.13556470D+05 0.13556470D+05 0.12528636D+01  1  2  6  1  5  1        1 0.194185815670D+01 0.100000000000D+01
0.195953670562D-04 0.000000000000D+00 0.000000000000D+00 0.242256774405D-02 0.000000000000D+00  5 21 -2 25 -24 -1 2 0.26890703D+00 0.15528567D-02 0.15285471D+05 0.15285471D+05 0.15285471D+05 0.12468902D+01  1  2 12  3  5  1        1 0.141102188403D-01 0.100000000000D+01
-.367181397957D-04 0.000000000000D+00 -.630434400359D-05 0.242256774405D-02 0.000000000000D+00  5 21 -2 25 -24 -1 2 0.26901180D+00 0.15528567D-02 0.13556470D+05 0.13556470D+05 0.13556470D+05 0.12528636D+01  1  2  5  3  5  1        1 -.268100422370D-01 0.100000000000D+01
  </mgrwgt>
  </event>
  <event>
  4     66 0.47139866E-03 0.54964682E+02 0.75467711E-02 0.12560600E+00
        1 -1    0    0  501    0 0.00000000E+00 0.00000000E+00 0.51747673E+03 0.51747682E+03 0.32000000E+00 0.0000E+00 0.9000E+01
       -2 -1    0    0    0  501 0.00000000E+00 0.00000000E+00 -.21797860E+02 0.21800209E+02 0.32000000E+00 0.0000E+00 0.9000E+01
       25  1    1    2    0    0 -.14721794E+02 0.11596535E+02 0.25078836E+03 0.28083984E+03 0.12500000E+03 0.0000E+00 0.9000E+01
      -24  1    1    2    0    0 0.14721794E+02 -.11596535E+02 0.24489050E+03 0.25843720E+03 0.80419002E+02 0.0000E+00 0.9000E+01
#aMCatNLO 1  0  0  2  1 0.15398330D+02 0.00000000D+00  -5  5  0 0.00000000D+00 0.00000000D+00 0.00000000D+00 0.00000000D+00 0.00000000D+00
  <mgrwgt>
 0.1680304758D+00    9    2    0
 0.106209912216192D+03 0.000000000000000D+00 0.000000000000000D+00 0.106209912216192D+03
 0.106209912216192D+03 0.000000000000000D+00 0.000000000000000D+00 -.106209912216192D+03
 0.127765772339183D+03 -.147217942246025D+02 0.115965351867439D+02 -.186515878117393D+02
 0.846540520932016D+02 0.147217942246025D+02 -.115965351867439D+02 0.186515878117393D+02
 0.000000000000000D+00 -.000000000000000D+00 -.000000000000000D+00 -.000000000000000D+00
 0.113878487941513D+03 0.000000000000000D+00 0.000000000000000D+00 0.113878487941513D+03
 0.114509991826140D+03 0.000000000000000D+00 0.000000000000000D+00 -.114509991826140D+03
 0.127561976252863D+03 -.659142242649855D+01 0.159915355120237D+02 -.186515878117393D+02
 0.854152299623495D+02 0.201372905902463D+02 -.866910346780251D+01 0.186515878117393D+02
 0.154112735524411D+02 -.135458681637477D+02 -.732243204422119D+01 -.631503884627520D+00
0.127660628835D-03 0.000000000000D+00 0.000000000000D+00 0.304379381977D-02 0.000000000000D+00  5 1 -2 25 -24 21 0 0.79611992D-01 0.33537053D-02 0.10917199D+05 0.10917199D+05 0.10917199D+05 0.12638661D+01  1  2  2  2  5  2       -2 0.160933223364D+00 0.100000000000D+01
-.708994632986D-05 0.000000000000D+00 -.490250428541D-06 0.304379381977D-02 0.000000000000D+00  5 1 -2 25 -24 21 2 0.79611992D-01 0.33537053D-02 0.10917199D+05 0.10917199D+05 0.10917199D+05 0.12638661D+01  1  2  3  2  5  2       -2 -.142768973982D-01 0.100000000000D+01
0.884198914326D-05 0.000000000000D+00 0.000000000000D+00 0.304379381977D-02 0.000000000000D+00  5 1 -2 25 -24 21 2 0.79611992D-01 0.33537053D-02 0.10917199D+05 0.10917199D+05 0.10917199D+05 0.12638661D+01  1  2 15  2  5  2       -2 0.178049544977D-01 0.100000000000D+01
0.147255806523D-03 0.000000000000D+00 0.000000000000D+00 0.304379381977D-02 0.000000000000D+00  5 1 -2 25 -24 21 2 0.79611992D-01 0.37280114D-02 0.12649872D+05 0.12649872D+05 0.12649872D+05 0.12563485D+01  1  2 12  2  5  2       -2 0.252313492621D+00 0.100000000000D+01
-.118810025101D-03 0.000000000000D+00 0.000000000000D+00 0.304379381977D-02 0.000000000000D+00  5 1 -2 25 -24 21 2 0.79611992D-01 0.33537053D-02 0.10917199D+05 0.10917199D+05 0.10917199D+05 0.12638661D+01  1  2  4  2  5  2       -2 -.239245610519D+00 0.100000000000D+01
-.471585899645D-03 0.000000000000D+00 -.113395654040D-03 0.304379381977D-02 0.000000000000D+00  5 1 -2 25 -24 21 2 0.79611992D-01 0.38783932D-02 0.10917199D+05 0.10917199D+05 0.10917199D+05 0.12638661D+01  1  2  5  2  5  2       -2 -.766968906184D+00 0.100000000000D+01
0.484132588660D-03 0.000000000000D+00 0.112208191210D-03 0.304379381977D-02 0.000000000000D+00  5 1 -2 25 -24 21 2 0.79611992D-01 0.33537053D-02 0.10917199D+05 0.10917199D+05 0.10917199D+05 0.12638661D+01  1  2  6  2  5  2       -2 0.974889085735D+00 0.100000000000D+01
0.251085142244D-05 0.000000000000D+00 0.000000000000D+00 0.304379381977D-02 0.000000000000D+00  5 1 21 25 -24 2 2 0.79611992D-01 0.37280114D-02 0.12649872D+05 0.12649872D+05 0.12649872D+05 0.12563485D+01  1  2 12  4  5  2       -2 0.815763714857D-01 0.100000000000D+01
-.974240651283D-05 0.000000000000D+00 -.252144917115D-05 0.304379381977D-02 0.000000000000D+00  5 1 21 25 -24 2 2 0.79611992D-01 0.38783932D-02 0.10917199D+05 0.10917199D+05 0.10917199D+05 0.12638661D+01  1  2  5  4  5  2       -2 -.298995237755D+00 0.100000000000D+01
  </mgrwgt>
  </event>
  <event>
  4     66 0.47139866E-03 0.51640859E+02 0.75467711E-02 0.12272072E+00
        1 -1    0    0  501    0 0.00000000E+00 0.00000000E+00 0.53947635E+03 0.53947644E+03 0.32000000E+00 0.0000E+00 0.9000E+01
       -2 -1    0    0    0  501 0.00000000E+00 0.00000000E+00 -.21289789E+02 0.21292193E+02 0.32000000E+00 0.0000E+00 0.9000E+01
       25  1    1    2    0    0 0.78273507E+01 0.24275465E+01 0.38606811E+03 0.40588268E+03 0.12500000E+03 0.0000E+00 0.9000E+01
      -24  1    1    2    0    0 -.78273507E+01 -.24275465E+01 0.13211845E+03 0.15488596E+03 0.80419002E+02 0.0000E+00 0.9000E+01
#aMCatNLO 1  0  0  1  2 0.48586331D+02 0.00000000D+00  -5  5  0 0.00000000D+00 0.00000000D+00 0.00000000D+00 0.00000000D+00 0.00000000D+00
  <mgrwgt>
 0.2923976492D+00    9    2    0
 0.107172936616140D+03 0.000000000000000D+00 0.000000000000000D+00 0.107172936616140D+03
 0.107172936616140D+03 0.000000000000000D+00 0.000000000000000D+00 -.107172936616140D+03
 0.128535102137529D+03 0.782735069731519D+01 0.242754653355507D+01 0.287943063884821D+02
 0.858107710947504D+02 -.782735069731519D+01 -.242754653355507D+01 -.287943063884821D+02
 0.000000000000000D+00 -.000000000000000D+00 0.000000000000000D+00 0.000000000000000D+00
 0.140158072823534D+03 0.000000000000000D+00 0.000000000000000D+00 0.140158072823534D+03
 0.129390576414217D+03 0.000000000000000D+00 0.000000000000000D+00 -.129390576414217D+03
 0.131965054555514D+03 0.189640434421757D+02 -.245158846417818D+02 0.287943063884821D+02
 0.878184409910966D+02 -.404494561336755D+00 -.203859492664004D+02 -.287943063884821D+02
 0.497651536911410D+02 -.185595488808389D+02 0.449018339081823D+02 0.107674964093165D+02
0.167068146171D-03 0.000000000000D+00 0.000000000000D+00 0.290799310572D-02 0.000000000000D+00  5 1 -2 25 -24 21 0 0.82996554D-01 0.32755444D-02 0.10619699D+05 0.10619699D+05 0.10619699D+05 0.12652917D+01  1  2  2  1  5  1        1 0.206235493880D+00 0.100000000000D+01
-.926421308825D-05 0.000000000000D+00 -.641585671352D-06 0.290799310572D-02 0.000000000000D+00  5 1 -2 25 -24 21 2 0.82996554D-01 0.32755444D-02 0.10619699D+05 0.10619699D+05 0.10619699D+05 0.12652917D+01  1  2  3  1  5  1        1 -.183087891945D-01 0.100000000000D+01
0.114795201680D-04 0.000000000000D+00 0.000000000000D+00 0.290799310572D-02 0.000000000000D+00  5 1 -2 25 -24 21 2 0.82996554D-01 0.32755444D-02 0.10619699D+05 0.10619699D+05 0.10619699D+05 0.12652917D+01  1  2 15  1  5  1        1 0.226868826103D-01 0.100000000000D+01
0.678323712999D-04 0.000000000000D+00 0.000000000000D+00 0.290799310572D-02 0.000000000000D+00  5 1 -2 25 -24 21 2 0.11494821D+00 0.32755444D-02 0.16943619D+05 0.16943619D+05 0.16943619D+05 0.12418349D+01  1  2 12  1  5  1        1 0.838019227737D-01 0.100000000000D+01
-.916599145924D-04 0.000000000000D+00 0.000000000000D+00 0.290799310572D-02 0.000000000000D+00  5 1 -2 25 -24 21 2 0.82996554D-01 0.32755444D-02 0.10619699D+05 0.10619699D+05 0.10619699D+05 0.12652917D+01  1  2  4  1  5  1        1 -.181146745856D+00 0.100000000000D+01
-.161176187761D-03 0.000000000000D+00 -.763812129815D-04 0.290799310572D-02 0.000000000000D+00  5 1 -2 25 -24 21 2 0.12566466D+00 0.32755444D-02 0.10619699D+05 0.10619699D+05 0.10619699D+05 0.12652917D+01  1  2  5  1  5  1        1 -.178600203722D+00 0.100000000000D+01
0.183018309307D-03 0.000000000000D+00 0.702499561892D-04 0.290799310572D-02 0.000000000000D+00  5 1 -2 25 -24 21 2 0.82996554D-01 0.32755444D-02 0.10619699D+05 0.10619699D+05 0.10619699D+05 0.12652917D+01  1  2  6  1  5  1        1 0.361697600424D+00 0.100000000000D+01
0.278208641380D-05 0.000000000000D+00 0.000000000000D+00 0.290799310572D-02 0.000000000000D+00  5 21 -2 25 -24 -1 2 0.11494821D+00 0.32755444D-02 0.16943619D+05 0.16943619D+05 0.16943619D+05 0.12418349D+01  1  2 12  3  5  1        1 0.725225518957D-02 0.100000000000D+01
-.514305580094D-05 0.000000000000D+00 -.373449891377D-05 0.290799310572D-02 0.000000000000D+00  5 21 -2 25 -24 -1 2 0.12566466D+00 0.32755444D-02 0.10619699D+05 0.10619699D+05 0.10619699D+05 0.12652917D+01  1  2  5  3  5  1        1 -.112207669376D-01 0.100000000000D+01
  </mgrwgt>
  </event>
  <event>
  4     66 0.47139866E-03 0.12492969E+03 0.75467711E-02 0.94437178E-01
        1 -1    0    0  501    0 0.00000000E+00 0.00000000E+00 0.21740476E+03 0.21740500E+03 0.32000000E+00 0.0000E+00 0.9000E+01
       -2 -1    0    0    0  501 0.00000000E+00 0.00000000E+00 -.10142389E+03 0.10142440E+03 0.32000000E+00 0.0000E+00 0.9000E+01
       25  1    1    2    0    0 -.67461947E+02 -.18602199E+02 -.21500017E+02 0.14485996E+03 0.12500000E+03 0.0000E+00 0.9000E+01
      -24  1    1    2    0    0 0.67461947E+02 0.18602199E+02 0.13748089E+03 0.17396944E+03 0.80419002E+02 0.0000E+00 0.9000E+01
#aMCatNLO 1  0  0  2  2 0.86835399D+03 0.00000000D+00  -5  5  0 0.00000000D+00 0.00000000D+00 0.00000000D+00 0.00000000D+00 0.00000000D+00
  <mgrwgt>
 0.2046581722D+00    5    2    0
 0.148492947600875D+03 0.000000000000000D+00 0.000000000000000D+00 0.148492947600875D+03
 0.148492947600875D+03 0.000000000000000D+00 0.000000000000000D+00 -.148492947600875D+03
 0.163910824667745D+03 -.674619465142875D+02 -.186021991578363D+02 -.796530125121186D+02
 0.133075070534006D+03 0.674619465142875D+02 0.186021991578363D+02 0.796530125121186D+02
 0.000000000000000D+00 0.000000000000000D+00 -.000000000000000D+00 -.000000000000000D+00
 0.567502909235507D+03 0.000000000000000D+00 0.000000000000000D+00 0.567502909235507D+03
 0.219412614297034D+04 0.000000000000000D+00 0.000000000000000D+00 -.219412614297034D+04
 0.568859100628059D+03 -.353957226011942D+03 0.419934942722131D+03 -.796530125121186D+02
 0.348876845001824D+03 -.120969570636377D+03 0.307033544750164D+03 0.796530125121186D+02
 0.184389310657596D+04 0.474926796648319D+03 -.726968487472295D+03 -.162662323373483D+04
0.561258110674D-03 0.000000000000D+00 0.000000000000D+00 0.178616571353D-02 0.000000000000D+00  5 1 -2 25 -24 21 0 0.33446944D-01 0.15603733D-01 0.15607426D+05 0.15607426D+05 0.15607426D+05 0.12458619D+01  1  2  2  2  5  2       -2 0.199436452644D+00 0.100000000000D+01
-.300491512275D-04 0.000000000000D+00 -.215537892764D-05 0.178616571353D-02 0.000000000000D+00  5 1 -2 25 -24 21 2 0.33446944D-01 0.15603733D-01 0.15607426D+05 0.15607426D+05 0.15607426D+05 0.12458619D+01  1  2  3  2  5  2       -2 -.165734892378D-01 0.100000000000D+01
0.384825643828D-04 0.000000000000D+00 0.000000000000D+00 0.178616571353D-02 0.000000000000D+00  5 1 -2 25 -24 21 2 0.33446944D-01 0.15603733D-01 0.15607426D+05 0.15607426D+05 0.15607426D+05 0.12458619D+01  1  2 15  2  5  2       -2 0.212249045511D-01 0.100000000000D+01
0.295908568618D-02 0.000000000000D+00 -.106300064844D-02 0.178616571353D-02 0.000000000000D+00  5 1 -2 25 -24 21 2 0.33446944D-01 0.48661227D+00 0.15607426D+05 0.15607426D+05 0.15607426D+05 0.12458619D+01  1  2  5  2  5  2       -2 0.147913836756D-03 0.100000000000D+01
0.691934467240D-03 0.000000000000D+00 -.361519737556D-03 0.178616571353D-02 0.000000000000D+00  5 1 21 25 -24 2 2 0.33446944D-01 0.48661227D+00 0.15607426D+05 0.15607426D+05 0.15607426D+05 0.12458619D+01  1  2  5  4  5  2       -2 0.422390405650D-03 0.100000000000D+01
  </mgrwgt>
  </event>
  <event>
  4     66 0.47139866E-03 0.12558581E+03 0.75467711E-02 0.11266668E+00
        1 -1    0    0  501    0 0.00000000E+00 0.00000000E+00 0.73755987E+03 0.73755994E+03 0.32000000E+00 0.0000E+00 0.9000E+01
       -2 -1    0    0    0  501 0.00000000E+00 0.00000000E+00 -.64838764E+02 0.64839554E+02 0.32000000E+00 0.0000E+00 0.9000E+01
       25  1    1    2    0    0 -.18041606E+03 0.20025416E+02 0.23737425E+03 0.32391744E+03 0.12500000E+03 0.0000E+00 0.9000E+01
      -24  1    1    2    0    0 0.18041606E+03 -.20025416E+02 0.43534686E+03 0.47848205E+03 0.80419002E+02 0.0000E+00 0.9000E+01
#aMCatNLO 1  0  0  1  2 0.39357256D+02 0.00000000D+00  -5  5  0 0.00000000D+00 0.00000000D+00 0.00000000D+00 0.00000000D+00 0.00000000D+00
  <mgrwgt>
 0.3636785941D+00    9    2    0
 0.218684281826274D+03 0.000000000000000D+00 0.000000000000000D+00 0.218684281826274D+03
 0.218684281826274D+03 0.000000000000000D+00 0.000000000000000D+00 -.218684281826274D+03
 0.229153465950015D+03 -.180416064550121D+03 0.200254162661901D+02 -.627322669167715D+02
 0.208215097702533D+03 0.180416064550121D+03 -.200254162661901D+02 0.627322669167715D+02
 0.000000000000000D+00 0.000000000000000D+00 -.000000000000000D+00 0.000000000000000D+00
 0.268778922942211D+03 0.000000000000000D+00 0.000000000000000D+00 0.268778922942211D+03
 0.227437041655547D+03 0.000000000000000D+00 0.000000000000000D+00 -.227437041655547D+03
 0.244432286784142D+03 -.197867210215521D+03 0.321772067080869D+02 -.627322669167715D+02
 0.194703516915899D+03 0.165568929908901D+03 -.968688192111026D+01 0.627322669167715D+02
 0.570801608977166D+02 0.322982803066195D+02 -.224903247869767D+02 0.413418812866632D+02
0.149145963917D-02 0.000000000000D+00 0.000000000000D+00 0.194945608989D-02 0.000000000000D+00  5 1 -2 25 -24 21 0 0.11347082D+00 0.99752606D-02 0.43877623D+05 0.43877623D+05 0.43877623D+05 0.11979410D+01  1  2  2  1  5  1        1 0.227116276851D+00 0.100000000000D+01
-.826721662533D-04 0.000000000000D+00 -.572759772474D-05 0.194945608989D-02 0.000000000000D+00  5 1 -2 25 -24 21 2 0.11347082D+00 0.99752606D-02 0.43877623D+05 0.43877623D+05 0.43877623D+05 0.11979410D+01  1  2  3  1  5  1        1 -.180662033569D-01 0.100000000000D+01
0.102645198023D-03 0.000000000000D+00 0.000000000000D+00 0.194945608989D-02 0.000000000000D+00  5 1 -2 25 -24 21 2 0.11347082D+00 0.99752606D-02 0.43877623D+05 0.43877623D+05 0.43877623D+05 0.11979410D+01  1  2 15  1  5  1        1 0.224308749261D-01 0.100000000000D+01
0.342520096873D-02 0.000000000000D+00 0.000000000000D+00 0.194945608989D-02 0.000000000000D+00  5 1 -2 25 -24 21 2 0.14136813D+00 0.99752606D-02 0.52882334D+05 0.52882334D+05 0.52882334D+05 0.11898787D+01  1  2 12  1  5  1        1 0.524790988500D+00 0.100000000000D+01
-.348931680839D-02 0.000000000000D+00 0.000000000000D+00 0.194945608989D-02 0.000000000000D+00  5 1 -2 25 -24 21 2 0.11347082D+00 0.99752606D-02 0.43877623D+05 0.43877623D+05 0.43877623D+05 0.11979410D+01  1  2  4  1  5  1        1 -.762514276498D+00 0.100000000000D+01
-.548308774385D-02 0.000000000000D+00 -.103588061101D-02 0.194945608989D-02 0.000000000000D+00  5 1 -2 25 -24 21 2 0.14253729D+00 0.99752606D-02 0.43877623D+05 0.43877623D+05 0.43877623D+05 0.11979410D+01  1  2  5  1  5  1        1 -.840207274467D+00 0.100000000000D+01
0.559944809510D-02 0.000000000000D+00 0.100951400189D-02 0.194945608989D-02 0.000000000000D+00  5 1 -2 25 -24 21 2 0.11347082D+00 0.99752606D-02 0.43877623D+05 0.43877623D+05 0.43877623D+05 0.11979410D+01  1  2  6  1  5  1        1 0.122363756216D+01 0.100000000000D+01
0.105319622007D-03 0.000000000000D+00 0.000000000000D+00 0.194945608989D-02 0.000000000000D+00  5 21 -2 25 -24 -1 2 0.14136813D+00 0.99752606D-02 0.52882334D+05 0.52882334D+05 0.52882334D+05 0.11898787D+01  1  2 12  3  5  1        1 0.268253714399D-01 0.100000000000D+01
-.158411462853D-03 0.000000000000D+00 -.327441901316D-04 0.194945608989D-02 0.000000000000D+00  5 21 -2 25 -24 -1 2 0.14253729D+00 0.99752606D-02 0.43877623D+05 0.43877623D+05 0.43877623D+05 0.11979410D+01  1  2  5  3  5  1        1 -.403347254079D-01 0.100000000000D+01
  </mgrwgt>
  </event>
  <event>
  4     66 0.47139866E-03 0.64869899E+02 0.75467711E-02 0.12303513E+00
        1 -1    0    0  501    0 0.00000000E+00 0.00000000E+00 0.11656354E+04 0.11656355E+04 0.32000000E+00 0.0000E+00 0.9000E+01
       -2 -1    0    0    0  501 0.00000000E+00 0.00000000E+00 -.10245546E+02 0.10250542E+02 0.32000000E+00 0.0000E+00 0.9000E+01
       25  1    1    2    0    0 -.62049907E+01 0.59460429E+01 0.87969330E+03 0.88857141E+03 0.12500000E+03 0.0000E+00 0.9000E+01
      -24  1    1    2    0    0 0.62049907E+01 -.59460429E+01 0.27569658E+03 0.28731460E+03 0.80419002E+02 0.0000E+00 0.9000E+01
#aMCatNLO 1  0  0  1  2 0.45165364D+02 0.00000000D+00  -5  5  0 0.00000000D+00 0.00000000D+00 0.00000000D+00 0.00000000D+00 0.00000000D+00
  <mgrwgt>
 0.3141403682D+00    9    2    0
 0.109295628233011D+03 0.000000000000000D+00 0.000000000000000D+00 0.109295628233011D+03
 0.109295628233011D+03 0.000000000000000D+00 0.000000000000000D+00 -.109295628233011D+03
 0.130242907171986D+03 -.620499068214435D+01 0.594604290443840D+01 0.355578055147321D+02
 0.883483492940359D+02 0.620499068214435D+01 -.594604290443840D+01 -.355578055147321D+02
 0.000000000000000D+00 0.000000000000000D+00 -.000000000000000D+00 0.000000000000000D+00
 0.162749030720546D+03 0.000000000000000D+00 0.000000000000000D+00 0.162749030720546D+03
 0.121575519822072D+03 0.000000000000000D+00 0.000000000000000D+00 -.121575519822072D+03
 0.134766942494413D+03 -.267813601167930D+02 0.235696840573543D+02 0.355578055147321D+02
 0.884415866366717D+02 -.752165019032635D+01 0.581081214910730D+01 -.355578055147321D+02
 0.611160214115333D+02 0.343030103071193D+02 -.293804962064616D+02 0.411735108984741D+02
0.221075453687D-03 0.000000000000D+00 0.000000000000D+00 0.276265106156D-02 0.000000000000D+00  5 1 -2 25 -24 21 0 0.17932892D+00 0.15766255D-02 0.10626722D+05 0.10626722D+05 0.10626722D+05 0.12652575D+01  1  2  2  1  5  1        1 0.244989702728D+00 0.100000000000D+01
-.122308773279D-04 0.000000000000D+00 -.848987952662D-06 0.276265106156D-02 0.000000000000D+00  5 1 -2 25 -24 21 2 0.17932892D+00 0.15766255D-02 0.10626722D+05 0.10626722D+05 0.10626722D+05 0.12652575D+01  1  2  3  1  5  1        1 -.216981541471D-01 0.100000000000D+01
0.152087019228D-04 0.000000000000D+00 0.000000000000D+00 0.276265106156D-02 0.000000000000D+00  5 1 -2 25 -24 21 2 0.17932892D+00 0.15766255D-02 0.10626722D+05 0.10626722D+05 0.10626722D+05 0.12652575D+01  1  2 15  1  5  1        1 0.269809556462D-01 0.100000000000D+01
0.161267281024D-03 0.000000000000D+00 0.000000000000D+00 0.276265106156D-02 0.000000000000D+00  5 1 -2 25 -24 21 2 0.27317081D+00 0.15766255D-02 0.16401353D+05 0.16401353D+05 0.16401353D+05 0.12434247D+01  1  2 12  1  5  1        1 0.111883941804D+00 0.100000000000D+01
-.211748215800D-03 0.000000000000D+00 0.000000000000D+00 0.276265106156D-02 0.000000000000D+00  5 1 -2 25 -24 21 2 0.17932892D+00 0.15766255D-02 0.10626722D+05 0.10626722D+05 0.10626722D+05 0.12652575D+01  1  2  4  1  5  1        1 -.375651337481D+00 0.100000000000D+01
-.270574428306D-03 0.000000000000D+00 -.866735692350D-04 0.276265106156D-02 0.000000000000D+00  5 1 -2 25 -24 21 2 0.27957744D+00 0.15766255D-02 0.10626722D+05 0.10626722D+05 0.10626722D+05 0.12652575D+01  1  2  5  1  5  1        1 -.181925518974D+00 0.100000000000D+01
0.288084844477D-03 0.000000000000D+00 0.787780817139D-04 0.276265106156D-02 0.000000000000D+00  5 1 -2 25 -24 21 2 0.17932892D+00 0.15766255D-02 0.10626722D+05 0.10626722D+05 0.10626722D+05 0.12652575D+01  1  2  6  1  5  1        1 0.511076122776D+00 0.100000000000D+01
0.797003205790D-05 0.000000000000D+00 0.000000000000D+00 0.276265106156D-02 0.000000000000D+00  5 21 -2 25 -24 -1 2 0.27317081D+00 0.15766255D-02 0.16401353D+05 0.16401353D+05 0.16401353D+05 0.12434247D+01  1  2 12  3  5  1        1 0.526427217446D-02 0.100000000000D+01
-.105276406827D-04 0.000000000000D+00 -.445893683363D-05 0.276265106156D-02 0.000000000000D+00  5 21 -2 25 -24 -1 2 0.27957744D+00 0.15766255D-02 0.10626722D+05 0.10626722D+05 0.10626722D+05 0.12652575D+01  1  2  5  3  5  1        1 -.677961637486D-02 0.100000000000D+01
  </mgrwgt>
  </event>
  <event>
  4     66 -.47139866E-03 0.78495138E+02 0.75467711E-02 0.11792198E+00
        1 -1    0    0  501    0 0.00000000E+00 0.00000000E+00 0.33462457E+03 0.33462472E+03 0.32000000E+00 0.0000E+00 0.9000E+01
       -2 -1    0    0    0  501 0.00000000E+00 0.00000000E+00 -.40248882E+02 0.40250154E+02 0.32000000E+00 0.0000E+00 0.9000E+01
       25  1    1    2    0    0 0.47212893E+02 0.22486982E+02 0.18636822E+03 0.23041882E+03 0.12500000E+03 0.0000E+00 0.9000E+01
      -24  1    1    2    0    0 -.47212893E+02 -.22486982E+02 0.10800747E+03 0.14445605E+03 0.80419002E+02 0.0000E+00 0.9000E+01
#aMCatNLO 1  0  0  2  1 0.89305990D+02 0.00000000D+00  -5  5  0 0.00000000D+00 0.00000000D+00 0.00000000D+00 0.00000000D+00 0.00000000D+00
  <mgrwgt>
 -.1640701363D+00    7    2    0
 0.116054003575198D+03 0.000000000000000D+00 0.000000000000000D+00 0.116054003575198D+03
 0.116054003575198D+03 0.000000000000000D+00 0.000000000000000D+00 -.116054003575198D+03
 0.135781423059903D+03 0.472128925174467D+02 0.224869820762497D+02 0.876774004010291D+01
 0.963265840904935D+02 -.472128925174467D+02 -.224869820762497D+02 -.876774004010291D+01
 0.000000000000000D+00 0.000000000000000D+00 -.000000000000000D+00 -.000000000000000D+00
 0.125318442963098D+03 0.000000000000000D+00 0.000000000000000D+00 0.125318442963098D+03
 0.217893757721577D+04 0.000000000000000D+00 0.000000000000000D+00 -.217893757721577D+04
 0.129139090408930D+03 -.121638297121156D+01 0.312017919149266D+02 0.876774004010291D+01
 0.119556882371088D+03 -.866778615899321D+02 -.153852920904781D+02 -.876774004010291D+01
 0.205556004739885D+04 0.878942445611436D+02 -.158164998244484D+02 -.205361913425267D+04
0.170375949617D-03 0.000000000000D+00 0.000000000000D+00 0.284969422685D-02 0.000000000000D+00  5 1 -2 25 -24 21 0 0.51480812D-01 0.61922453D-02 0.13389357D+05 0.13389357D+05 0.13389357D+05 0.12534859D+01  1  2  2  2  5  2       -2 0.150741187059D+00 0.100000000000D+01
-.946523052346D-05 0.000000000000D+00 -.654288507548D-06 0.284969422685D-02 0.000000000000D+00  5 1 -2 25 -24 21 2 0.51480812D-01 0.61922453D-02 0.13389357D+05 0.13389357D+05 0.13389357D+05 0.12534859D+01  1  2  3  2  5  2       -2 -.131581171374D-01 0.100000000000D+01
0.117759545946D-04 0.000000000000D+00 0.000000000000D+00 0.284969422685D-02 0.000000000000D+00  5 1 -2 25 -24 21 2 0.51480812D-01 0.61922453D-02 0.13389357D+05 0.13389357D+05 0.13389357D+05 0.12534859D+01  1  2 15  2  5  2       -2 0.163703767781D-01 0.100000000000D+01
0.119369455885D-02 0.000000000000D+00 0.000000000000D+00 0.284969422685D-02 0.000000000000D+00  5 1 -2 25 -24 21 2 0.51480812D-01 0.10899004D+00 0.28456663D+05 0.28456663D+05 0.28456663D+05 0.12173131D+01  1  2 12  2  5  2       -2 0.854903629209D-02 0.100000000000D+01
-.116855720642D-01 0.000000000000D+00 -.205231793601D-03 0.284969422685D-02 0.000000000000D+00  5 1 -2 25 -24 21 2 0.51480812D-01 0.11894374D+00 0.13389357D+05 0.13389357D+05 0.13389357D+05 0.12534859D+01  1  2  5  2  5  2       -2 -.732410519567D-01 0.100000000000D+01
0.375741203605D-03 0.000000000000D+00 0.000000000000D+00 0.284969422685D-02 0.000000000000D+00  5 1 21 25 -24 2 2 0.51480812D-01 0.10899004D+00 0.28456663D+05 0.28456663D+05 0.28456663D+05 0.12173131D+01  1  2 12  4  5  2       -2 0.315375611718D-01 0.100000000000D+01
-.378542748867D-02 0.000000000000D+00 -.655768450991D-04 0.284969422685D-02 0.000000000000D+00  5 1 21 25 -24 2 2 0.51480812D-01 0.11894374D+00 0.13389357D+05 0.13389357D+05 0.13389357D+05 0.12534859D+01  1  2  5  4  5  2       -2 -.284869128483D+00 0.100000000000D+01
  </mgrwgt>
  </event>
  <event>
  4     66 0.47139866E-03 0.11075968E+03 0.75467711E-02 0.11096340E+00
        1 -1    0    0  501    0 0.00000000E+00 0.00000000E+00 0.55982575E+03 0.55982584E+03 0.32000000E+00 0.0000E+00 0.9000E+01
       -2 -1    0    0    0  501 0.00000000E+00 0.00000000E+00 -.25123225E+02 0.25125263E+02 0.32000000E+00 0.0000E+00 0.9000E+01
       25  1    1    2    0    0 -.22733894E+02 0.33645701E+02 0.41382617E+03 0.43419577E+03 0.12500000E+03 0.0000E+00 0.9000E+01
      -24  1    1    2    0    0 0.22733894E+02 -.33645701E+02 0.12087635E+03 0.15075534E+03 0.80419002E+02 0.0000E+00 0.9000E+01
#aMCatNLO 1  0  0  1  1 0.20774795D+03 0.00000000D+00  -5  5  0 0.00000000D+00 0.00000000D+00 0.00000000D+00 0.00000000D+00 0.00000000D+00
  <mgrwgt>
 0.2289489265D+00    5    2    0
 0.118597011242931D+03 0.000000000000000D+00 0.000000000000000D+00 0.118597011242931D+03
 0.118597011242931D+03 0.000000000000000D+00 0.000000000000000D+00 -.118597011242931D+03
 0.137901426990118D+03 -.227338940101675D+02 0.336457010949914D+02 0.417485380207707D+02
 0.992925954957433D+02 0.227338940101675D+02 -.336457010949914D+02 -.417485380207707D+02
 0.000000000000000D+00 0.000000000000000D+00 0.000000000000000D+00 0.000000000000000D+00
 0.263062948497380D+03 0.000000000000000D+00 0.000000000000000D+00 0.263062948497380D+03
 0.260017046886160D+03 0.000000000000000D+00 0.000000000000000D+00 -.260017046886160D+03
 0.161694910061587D+03 -.585014589338022D+02 -.731770648193109D+02 0.417485380207707D+02
 0.153614804769865D+03 -.745967226533291D+01 -.123821262927396D+03 -.417485380207707D+02
 0.207770280552088D+03 0.659611311991351D+02 0.196998327746706D+03 0.304590161122016D+01
0.228422623295D-03 0.000000000000D+00 0.000000000000D+00 0.251055126338D-02 0.000000000000D+00  5 1 -2 25 -24 21 0 0.86127202D-01 0.38652753D-02 0.12267706D+05 0.12267706D+05 0.12267706D+05 0.12579026D+01  1  2  2  1  5  1        1 0.211739439974D+00 0.100000000000D+01
-.126180249782D-04 0.000000000000D+00 -.877203018511D-06 0.251055126338D-02 0.000000000000D+00  5 1 -2 25 -24 21 2 0.86127202D-01 0.38652753D-02 0.12267706D+05 0.12267706D+05 0.12267706D+05 0.12579026D+01  1  2  3  1  5  1        1 -.185075140293D-01 0.100000000000D+01
0.157706797932D-04 0.000000000000D+00 0.000000000000D+00 0.251055126338D-02 0.000000000000D+00  5 1 -2 25 -24 21 2 0.86127202D-01 0.38652753D-02 0.12267706D+05 0.12267706D+05 0.12267706D+05 0.12579026D+01  1  2 15  1  5  1        1 0.231316769486D-01 0.100000000000D+01
0.895384078764D-04 0.000000000000D+00 -.886991756360D-04 0.251055126338D-02 0.000000000000D+00  5 1 -2 25 -24 21 2 0.32074142D+00 0.38652753D-02 0.12267706D+05 0.12267706D+05 0.12267706D+05 0.12579026D+01  1  2  5  1  5  1        1 0.109719053604D-01 0.100000000000D+01
0.159477890437D-04 0.000000000000D+00 -.137789569908D-04 0.251055126338D-02 0.000000000000D+00  5 21 -2 25 -24 -1 2 0.32074142D+00 0.38652753D-02 0.12267706D+05 0.12267706D+05 0.12267706D+05 0.12579026D+01  1  2  5  3  5  1        1 0.161341819805D-02 0.100000000000D+01
  </mgrwgt>
  </event>
  <event>
  4     66 0.47139866E-03 0.58888072E+02 0.75467711E-02 0.12282710E+00
        1 -1    0    0  501    0 0.00000000E+00 0.00000000E+00 0.80907418E+03 0.80907425E+03 0.32000000E+00 0.0000E+00 0.9000E+01
       -2 -1    0    0    0  501 0.00000000E+00 0.00000000E+00 -.17632797E+02 0.17635700E+02 0.32000000E+00 0.0000E+00 0.9000E+01
       25  1    1    2    0    0 -.25037673E+02 -.40517538E+02 0.58495849E+03 0.60005832E+03 0.12500000E+03 0.0000E+00 0.9000E+01
      -24  1    1    2    0    0 0.25037673E+02 0.40517538E+02 0.20648290E+03 0.22665162E+03 0.80419002E+02 0.0000E+00 0.9000E+01
#aMCatNLO 1  0  0  2  1 0.29601022D+02 0.00000000D+00  -5  5  0 0.00000000D+00 0.00000000D+00 0.00000000D+00 0.00000000D+00 0.00000000D+00
  <mgrwgt>
 0.2557131091D+00    6    2    0
 0.119446501782630D+03 0.000000000000000D+00 0.000000000000000D+00 0.119446501782630D+03
 0.119446501782630D+03 0.000000000000000D+00 0.000000000000000D+00 -.119446501782630D+03
 0.138613626622952D+03 -.250376730708076D+02 -.405175376034183D+02 0.363343027911923D+02
 0.100279376942309D+03 0.250376730708076D+02 0.405175376034183D+02 -.363343027911923D+02
 0.000000000000000D+00 -.000000000000000D+00 -.000000000000000D+00 0.000000000000000D+00
 0.135467399303525D+03 0.000000000000000D+00 0.000000000000000D+00 0.135467399303525D+03
 0.134859793904201D+03 0.000000000000000D+00 0.000000000000000D+00 -.134859793904201D+03
 0.134825758190892D+03 -.956293447556926D+01 -.337839280818970D+02 0.363343027911923D+02
 0.105894177919402D+03 0.367056406128939D+02 0.455946855535859D+02 -.363343027911923D+02
 0.296072570974331D+02 -.271427061373247D+02 -.118107574716889D+02 0.607605399324112D+00
0.205312879324D-03 0.000000000000D+00 0.000000000000D+00 0.257066631422D-02 0.000000000000D+00  5 1 -2 25 -24 21 0 0.12447318D+00 0.27129661D-02 0.12908612D+05 0.12908612D+05 0.12908612D+05 0.12553260D+01  1  2  2  2  5  2       -2 0.191011436347D+00 0.100000000000D+01
-.113715396823D-04 0.000000000000D+00 -.788455516727D-06 0.257066631422D-02 0.000000000000D+00  5 1 -2 25 -24 21 2 0.12447318D+00 0.27129661D-02 0.12908612D+05 0.12908612D+05 0.12908612D+05 0.12553260D+01  1  2  3  2  5  2       -2 -.166715311000D-01 0.100000000000D+01
0.141818138626D-04 0.000000000000D+00 0.000000000000D+00 0.257066631422D-02 0.000000000000D+00  5 1 -2 25 -24 21 2 0.12447318D+00 0.27129661D-02 0.12908612D+05 0.12908612D+05 0.12908612D+05 0.12553260D+01  1  2 15  2  5  2       -2 0.207916040809D-01 0.100000000000D+01
0.129509562402D-03 0.000000000000D+00 0.000000000000D+00 0.257066631422D-02 0.000000000000D+00  5 1 -2 25 -24 21 2 0.12447318D+00 0.32225201D-02 0.16757843D+05 0.16757843D+05 0.16757843D+05 0.12423731D+01  1  2 12  2  5  2       -2 0.145683075456D+00 0.100000000000D+01
-.107057922345D-03 0.000000000000D+00 0.000000000000D+00 0.257066631422D-02 0.000000000000D+00  5 1 -2 25 -24 21 2 0.12447318D+00 0.27129661D-02 0.12908612D+05 0.12908612D+05 0.12908612D+05 0.12553260D+01  1  2  4  2  5  2       -2 -.156954953484D+00 0.100000000000D+01
0.329762550276D-05 0.000000000000D+00 0.000000000000D+00 0.257066631422D-02 0.000000000000D+00  5 1 21 25 -24 2 2 0.12447318D+00 0.32225201D-02 0.16757843D+05 0.16757843D+05 0.16757843D+05 0.12423731D+01  1  2 12  4  5  2       -2 0.718534778164D-01 0.100000000000D+01
  </mgrwgt>
  </event>
  <event>
  4     66 0.47139866E-03 0.14465204E+03 0.75467711E-02 0.10937431E+00
        1 -1    0    0  501    0 0.00000000E+00 0.00000000E+00 0.68546385E+03 0.68546393E+03 0.32000000E+00 0.0000E+00 0.9000E+01
       -2 -1    0    0    0  501 0.00000000E+00 0.00000000E+00 -.38656722E+02 0.38658047E+02 0.32000000E+00 0.0000E+00 0.9000E+01
       25  1    1    2    0    0 -.94609241E+02 0.34317609E+02 0.51661661E+03 0.54096796E+03 0.12500000E+03 0.0000E+00 0.9000E+01
      -24  1    1    2    0    0 0.94609241E+02 -.34317609E+02 0.13019052E+03 0.18315402E+03 0.80419002E+02 0.0000E+00 0.9000E+01
#aMCatNLO 1  0  0  2  1 0.20967940D+03 0.00000000D+00  -5  5  0 0.00000000D+00 0.00000000D+00 0.00000000D+00 0.00000000D+00 0.00000000D+00
  <mgrwgt>
 0.2057261363D+00    5    2    0
 0.162782960923903D+03 0.000000000000000D+00 0.000000000000000D+00 0.162782960923903D+03
 0.162782960923903D+03 0.000000000000000D+00 0.000000000000000D+00 -.162782960923903D+03
 0.176847369129855D+03 -.946092409942630D+02 0.343176089572676D+02 0.743060239960182D+02
 0.148718552717951D+03 0.946092409942630D+02 -.343176089572676D+02 -.743060239960182D+02
 0.000000000000000D+00 -.000000000000000D+00 0.000000000000000D+00 -.000000000000000D+00
 0.218645410533804D+03 0.000000000000000D+00 0.000000000000000D+00 0.218645410533804D+03
 0.632873597051754D+03 0.000000000000000D+00 0.000000000000000D+00 -.632873597051754D+03
 0.184051243509670D+03 -.872012607211048D+02 -.715850205281028D+02 0.743060239960182D+02
 0.203193664335732D+03 0.101832762145398D+03 -.137583257061147D+03 -.743060239960182D+02
 0.464274099740156D+03 -.146315014242936D+02 0.209168277589249D+03 -.414228186517950D+03
0.619405843119D-03 0.000000000000D+00 0.000000000000D+00 0.187232640207D-02 0.000000000000D+00  5 1 -2 25 -24 21 0 0.10545608D+00 0.59472957D-02 0.20924212D+05 0.20924212D+05 0.20924212D+05 0.12316720D+01  1  2  2  2  5  2       -2 0.231721665887D+00 0.100000000000D+01
-.338280095066D-04 0.000000000000D+00 -.237868153088D-05 0.187232640207D-02 0.000000000000D+00  5 1 -2 25 -24 21 2 0.10545608D+00 0.59472957D-02 0.20924212D+05 0.20924212D+05 0.20924212D+05 0.12316720D+01  1  2  3  2  5  2       -2 -.191980850838D-01 0.100000000000D+01
0.427058634973D-04 0.000000000000D+00 0.000000000000D+00 0.187232640207D-02 0.000000000000D+00  5 1 -2 25 -24 21 2 0.10545608D+00 0.59472957D-02 0.20924212D+05 0.20924212D+05 0.20924212D+05 0.12316720D+01  1  2 15  2  5  2       -2 0.242364482261D-01 0.100000000000D+01
-.188597933088D-03 0.000000000000D+00 -.243049364023D-03 0.187232640207D-02 0.000000000000D+00  5 1 -2 25 -24 21 2 0.10545608D+00 0.30528368D-01 0.20924212D+05 0.20924212D+05 0.20924212D+05 0.12316720D+01  1  2  5  2  5  2       -2 -.741213261321D-02 0.100000000000D+01
-.457791664715D-04 0.000000000000D+00 -.485228977904D-04 0.187232640207D-02 0.000000000000D+00  5 1 21 25 -24 2 2 0.10545608D+00 0.30528368D-01 0.20924212D+05 0.20924212D+05 0.20924212D+05 0.12316720D+01  1  2  5  4  5  2       -2 -.236217600722D-01 0.100000000000D+01
  </mgrwgt>
  </event>
  <event>
  4     66 0.47139866E-03 0.12920925E+03 0.75467711E-02 0.10956421E+00
        1 -1    0    0  501    0 0.00000000E+00 0.00000000E+00 0.41223577E+03 0.41223590E+03 0.32000000E+00 0.0000E+00 0.9000E+01
       -2 -1    0    0    0  501 0.00000000E+00 0.00000000E+00 -.42659611E+02 0.42660811E+02 0.32000000E+00 0.0000E+00 0.9000E+01
       25  1    1    2    0    0 -.76551234E+02 0.10138535E+02 0.25958425E+03 0.29828152E+03 0.12500000E+03 0.0000E+00 0.9000E+01
      -24  1    1    2    0    0 0.76551234E+02 -.10138535E+02 0.10999191E+03 0.15661519E+03 0.80419002E+02 0.0000E+00 0.9000E+01
#aMCatNLO 1  0  0  2  2 0.22043291D+03 0.00000000D+00  -5  5  0 0.00000000D+00 0.00000000D+00 0.00000000D+00 0.00000000D+00 0.00000000D+00
  <mgrwgt>
 0.1491070283D+00    5    2    0
 0.132612665419889D+03 0.000000000000000D+00 0.000000000000000D+00 0.132612665419889D+03
 0.132612665419889D+03 0.000000000000000D+00 0.000000000000000D+00 -.132612665419889D+03
 0.149876823440982D+03 -.765512340292336D+02 0.101385351155002D+02 0.295834561718651D+02
 0.115348507398795D+03 0.765512340292336D+02 -.101385351155002D+02 -.295834561718651D+02
 0.000000000000000D+00 -.000000000000000D+00 0.000000000000000D+00 -.000000000000000D+00
 0.179928911318004D+03 0.000000000000000D+00 0.000000000000000D+00 0.179928911318004D+03
 0.179341287338743D+04 0.000000000000000D+00 0.000000000000000D+00 -.179341287338743D+04
 0.182463315971090D+03 -.689822299376114D+02 -.109700194844529D+03 0.295834561718651D+02
 0.162406434945227D+03 0.828770672517546D+02 -.110294356165323D+03 -.295834561718651D+02
 0.162847203378912D+04 -.138948373141432D+02 0.219994551009852D+03 -.161348396206943D+04
0.351337079538D-03 0.000000000000D+00 0.000000000000D+00 0.247169940834D-02 0.000000000000D+00  5 1 -2 25 -24 21 0 0.63420990D-01 0.65631190D-02 0.16695030D+05 0.16695030D+05 0.16695030D+05 0.12425565D+01  1  2  2  2  5  2       -2 0.221038831072D+00 0.100000000000D+01
-.195026845748D-04 0.000000000000D+00 -.134922689460D-05 0.247169940834D-02 0.000000000000D+00  5 1 -2 25 -24 21 2 0.63420990D-01 0.65631190D-02 0.16695030D+05 0.16695030D+05 0.16695030D+05 0.12425565D+01  1  2  3  2  5  2       -2 -.189439832516D-01 0.100000000000D+01
0.242772467843D-04 0.000000000000D+00 0.000000000000D+00 0.247169940834D-02 0.000000000000D+00  5 1 -2 25 -24 21 2 0.63420990D-01 0.65631190D-02 0.16695030D+05 0.16695030D+05 0.16695030D+05 0.12425565D+01  1  2 15  2  5  2       -2 0.235817666390D-01 0.100000000000D+01
-.261175558397D-02 0.000000000000D+00 -.371407406268D-03 0.247169940834D-02 0.000000000000D+00  5 1 -2 25 -24 21 2 0.63420990D-01 0.10967276D+00 0.16695030D+05 0.16695030D+05 0.16695030D+05 0.12425565D+01  1  2  5  2  5  2       -2 -.149473760703D-01 0.100000000000D+01
-.901573966306D-03 0.000000000000D+00 -.115794212511D-03 0.247169940834D-02 0.000000000000D+00  5 1 21 25 -24 2 2 0.63420990D-01 0.10967276D+00 0.16695030D+05 0.16695030D+05 0.16695030D+05 0.12425565D+01  1  2  5  4  5  2       -2 -.616222100757D-01 0.100000000000D+01
  </mgrwgt>
  </event>
  <event>
  4     66 0.47139866E-03 0.16051248E+03 0.75467711E-02 0.11173676E+00
        1 -1    0    0  501    0 0.00000000E+00 0.00000000E+00 0.17581500E+04 0.17581500E+04 0.32000000E+00 0.0000E+00 0.9000E+01
       -2 -1    0    0    0  501 0.00000000E+00 0.00000000E+00 -.21548455E+02 0.21550831E+02 0.32000000E+00 0.0000E+00 0.9000E+01
       25  1    1    2    0    0 -.10042169E+03 -.69549084E+02 0.14227772E+04 0.14334719E+04 0.12500000E+03 0.0000E+00 0.9000E+01
      -24  1    1    2    0    0 0.10042169E+03 0.69549084E+02 0.31382435E+03 0.34622901E+03 0.80419002E+02 0.0000E+00 0.9000E+01
#aMCatNLO 1  0  0  2  2 0.13951918D+03 0.00000000D+00  -5  5  0 0.00000000D+00 0.00000000D+00 0.00000000D+00 0.00000000D+00 0.00000000D+00
  <mgrwgt>
 0.2390445845D+00    3    2    0
 0.194647262880954D+03 0.000000000000000D+00 0.000000000000000D+00 0.194647262880954D+03
 0.194647262880954D+03 0.000000000000000D+00 0.000000000000000D+00 -.194647262880954D+03
 0.206409288082447D+03 -.100421689946022D+03 -.695490835413877D+02 0.109809850986333D+03
 0.182885237679461D+03 0.100421689946022D+03 0.695490835413877D+02 -.109809850986333D+03
 0.000000000000000D+00 -.000000000000000D+00 0.000000000000000D+00 0.000000000000000D+00
 0.313257528562126D+03 0.000000000000000D+00 0.000000000000000D+00 0.313257528562126D+03
 0.252469685689987D+03 0.000000000000000D+00 0.000000000000000D+00 -.252469685689987D+03
 0.239711150617080D+03 -.911570885386917D+02 -.146521730694368D+03 0.109809850986333D+03
 0.173829452614426D+03 0.107829598517406D+03 0.800230915392385D+01 -.109809850986333D+03
 0.152186611020607D+03 -.166725099787144D+02 0.138519421540444D+03 0.607878428721389D+02
0.149798949364D-02 0.000000000000D+00 0.000000000000D+00 0.152160895391D-02 0.000000000000D+00  5 1 -2 25 -24 21 0 0.27048480D+00 0.33153320D-02 0.25764256D+05 0.25764256D+05 0.25764256D+05 0.12218980D+01  1  2  2  2  5  2       -2 0.233509308618D+00 0.100000000000D+01
-.794597156921D-04 0.000000000000D+00 -.575267408528D-05 0.152160895391D-02 0.000000000000D+00  5 1 -2 25 -24 21 2 0.27048480D+00 0.33153320D-02 0.25764256D+05 0.25764256D+05 0.25764256D+05 0.12218980D+01  1  2  3  2  5  2       -2 -.184932131488D-01 0.100000000000D+01
0.103243113688D-03 0.000000000000D+00 0.000000000000D+00 0.152160895391D-02 0.000000000000D+00  5 1 -2 25 -24 21 2 0.27048480D+00 0.33153320D-02 0.25764256D+05 0.25764256D+05 0.25764256D+05 0.12218980D+01  1  2 15  2  5  2       -2 0.240284890394D-01 0.100000000000D+01
  </mgrwgt>
  </event>
  <event>
  4     66 0.47139866E-03 0.65219824E+02 0.75467711E-02 0.12382870E+00
        3 -1    0    0  501    0 0.00000000E+00 0.00000000E+00 0.63863203E+03 0.63863223E+03 0.50000000E+00 0.0000E+00 0.9000E+01
       -4 -1    0    0    0  501 0.00000000E+00 0.00000000E+00 -.17738098E+02 0.17805691E+02 0.15500000E+01 0.0000E+00 0.9000E+01
       25  1    1    2    0    0 0.23584917E+02 -.10106867E+02 0.40503176E+03 0.42465765E+03 0.12500000E+03 0.0000E+00 0.9000E+01
      -24  1    1    2    0    0 -.23584917E+02 0.10106867E+02 0.21586218E+03 0.23178027E+03 0.80419002E+02 0.0000E+00 0.9000E+01
#aMCatNLO 1  0  0  2  1 0.31565635D+02 0.00000000D+00  -5  5  0 0.00000000D+00 0.00000000D+00 0.00000000D+00 0.00000000D+00 0.00000000D+00
  <mgrwgt>
 0.1633553290D-01    9    2    0
 0.106538097502329D+03 0.000000000000000D+00 0.000000000000000D+00 0.106538097502329D+03
 0.106538097502329D+03 0.000000000000000D+00 0.000000000000000D+00 -.106538097502329D+03
 0.128027555875258D+03 0.235849172561931D+02 -.101068670541335D+02 0.103758363403093D+02
 0.850486391293995D+02 -.235849172561931D+02 0.101068670541335D+02 -.103758363403093D+02
 0.000000000000000D+00 -.000000000000000D+00 -.000000000000000D+00 -.000000000000000D+00
 0.119488011260929D+03 0.000000000000000D+00 0.000000000000000D+00 0.119488011260929D+03
 0.128833662389754D+03 0.000000000000000D+00 0.000000000000000D+00 -.128833662389754D+03
 0.128344003565263D+03 0.257812634408157D+02 0.865168924514436D+01 0.103758363403093D+02
 0.870576078095951D+02 -.221104756307683D+02 0.226997799720407D+02 -.103758363403093D+02
 0.329200622758252D+02 -.367078781004737D+01 -.313514692171851D+02 -.934565112882526D+01
0.131101579361D-03 0.000000000000D+00 0.000000000000D+00 0.308865489805D-02 0.000000000000D+00  5 3 -4 25 -24 21 0 0.98256297D-01 0.27341527D-02 0.11238095D+05 0.11238095D+05 0.11238095D+05 0.12623767D+01  1  2  2  2  5  2       -4 0.144522955812D-01 0.100000000000D+01
-.728320230479D-05 0.000000000000D+00 -.503464584586D-06 0.308865489805D-02 0.000000000000D+00  5 3 -4 25 -24 21 2 0.98256297D-01 0.27341527D-02 0.11238095D+05 0.11238095D+05 0.11238095D+05 0.12623767D+01  1  2  3  2  5  2       -4 -.127946740579D-02 0.100000000000D+01
0.906587512046D-05 0.000000000000D+00 0.000000000000D+00 0.308865489805D-02 0.000000000000D+00  5 3 -4 25 -24 21 2 0.98256297D-01 0.27341527D-02 0.11238095D+05 0.11238095D+05 0.11238095D+05 0.12623767D+01  1  2 15  2  5  2       -4 0.159263621086D-02 0.100000000000D+01
0.863545438464D-04 0.000000000000D+00 0.000000000000D+00 0.308865489805D-02 0.000000000000D+00  5 3 -4 25 -24 21 2 0.98256297D-01 0.34443242D-02 0.15119976D+05 0.15119976D+05 0.15119976D+05 0.12474283D+01  1  2 12  2  5  2       -4 0.106248869128D-01 0.100000000000D+01
-.860745701890D-04 0.000000000000D+00 0.000000000000D+00 0.308865489805D-02 0.000000000000D+00  5 3 -4 25 -24 21 2 0.98256297D-01 0.27341527D-02 0.11238095D+05 0.11238095D+05 0.11238095D+05 0.12623767D+01  1  2  4  2  5  2       -4 -.151210418736D-01 0.100000000000D+01
-.182549047894D-03 0.000000000000D+00 -.619892157591D-04 0.308865489805D-02 0.000000000000D+00  5 3 -4 25 -24 21 2 0.98256297D-01 0.37123637D-02 0.11238095D+05 0.11238095D+05 0.11238095D+05 0.12623767D+01  1  2  5  2  5  2       -4 -.198848591548D-01 0.100000000000D+01
0.195102197571D-03 0.000000000000D+00 0.591987647109D-04 0.308865489805D-02 0.000000000000D+00  5 3 -4 25 -24 21 2 0.98256297D-01 0.27341527D-02 0.11238095D+05 0.11238095D+05 0.11238095D+05 0.12623767D+01  1  2  6  2  5  2       -4 0.342743332045D-01 0.100000000000D+01
0.275512858308D-05 0.000000000000D+00 0.000000000000D+00 0.308865489805D-02 0.000000000000D+00  5 3 21 25 -24 4 2 0.98256297D-01 0.34443242D-02 0.15119976D+05 0.15119976D+05 0.15119976D+05 0.12474283D+01  1  2 12  4  5  2       -4 0.972715996673D-02 0.100000000000D+01
-.572353576388D-05 0.000000000000D+00 -.242984382077D-05 0.308865489805D-02 0.000000000000D+00  5 3 21 25 -24 4 2 0.98256297D-01 0.37123637D-02 0.11238095D+05 0.11238095D+05 0.11238095D+05 0.12623767D+01  1  2  5  4  5  2       -4 -.180504105372D-01 0.100000000000D+01
  </mgrwgt>
  </event>
  <event>
  4     66 0.47139866E-03 0.11190501E+03 0.75467711E-02 0.11636281E+00
        1 -1    0    0  501    0 0.00000000E+00 0.00000000E+00 0.54569643E+03 0.54569652E+03 0.32000000E+00 0.0000E+00 0.9000E+01
       -2 -1    0    0    0  501 0.00000000E+00 0.00000000E+00 -.36214153E+02 0.36215567E+02 0.32000000E+00 0.0000E+00 0.9000E+01
       25  1    1    2    0    0 0.30771604E+02 0.30794414E+02 0.11002463E+03 0.17212091E+03 0.12500000E+03 0.0000E+00 0.9000E+01
      -24  1    1    2    0    0 -.30771604E+02 -.30794414E+02 0.39945764E+03 0.40979118E+03 0.80419002E+02 0.0000E+00 0.9000E+01
#aMCatNLO 1  0  0  1  1 0.11755862D+03 0.00000000D+00  -5  5  0 0.00000000D+00 0.00000000D+00 0.00000000D+00 0.00000000D+00 0.00000000D+00
  <mgrwgt>
 0.2301729439D+00    3    2    0
 0.140578706880929D+03 0.000000000000000D+00 0.000000000000000D+00 0.140578706880929D+03
 0.140578706880929D+03 0.000000000000000D+00 0.000000000000000D+00 -.140578706880929D+03
 0.156864573085023D+03 0.307716038189005D+02 0.307944136631065D+02 -.841802041735742D+02
 0.124292840676835D+03 -.307716038189005D+02 -.307944136631065D+02 0.841802041735742D+02
 0.000000000000000D+00 -.000000000000000D+00 0.000000000000000D+00 -.000000000000000D+00
 0.166857252189318D+03 0.000000000000000D+00 0.000000000000000D+00 0.166857252189318D+03
 0.390899803248647D+03 0.000000000000000D+00 0.000000000000000D+00 -.390899803248647D+03
 0.179806475226107D+03 0.967288032133342D+02 0.162049494737871D+02 -.841802041735742D+02
 0.124938535352001D+03 0.180552960483298D+02 -.415947252838051D+02 0.841802041735742D+02
 0.253012044859857D+03 -.114784099261664D+03 0.253897758100180D+02 -.224042551059329D+03
0.402819345523D-03 0.000000000000D+00 0.000000000000D+00 0.168821102056D-02 0.000000000000D+00  5 1 -2 25 -24 21 0 0.83953413D-01 0.55715242D-02 0.12522732D+05 0.12522732D+05 0.12522732D+05 0.12568596D+01  1  2  2  1  5  1        1 0.224265856659D+00 0.100000000000D+01
-.209629443685D-04 0.000000000000D+00 -.154693235158D-05 0.168821102056D-02 0.000000000000D+00  5 1 -2 25 -24 21 2 0.83953413D-01 0.55715242D-02 0.12522732D+05 0.12522732D+05 0.12522732D+05 0.12568596D+01  1  2  3  1  5  1        1 -.184365079473D-01 0.100000000000D+01
0.276795059821D-04 0.000000000000D+00 0.000000000000D+00 0.168821102056D-02 0.000000000000D+00  5 1 -2 25 -24 21 2 0.83953413D-01 0.55715242D-02 0.12522732D+05 0.12522732D+05 0.12522732D+05 0.12568596D+01  1  2 15  1  5  1        1 0.243435952052D-01 0.100000000000D+01
  </mgrwgt>
  </event>
  <event>
  5     66 -.47139866E-03 0.10568509E+03 0.75467711E-02 0.12506833E+00
        1 -1    0    0  502    0 0.00000000E+00 0.00000000E+00 0.23499159E+02 0.23501338E+02 0.32000000E+00 0.0000E+00 0.9000E+01
       -2 -1    0    0    0  501 0.00000000E+00 0.00000000E+00 -.61997780E+03 0.61997788E+03 0.32000000E+00 0.0000E+00 0.9000E+01
       25  1    1    2    0    0 0.77133107E+01 0.14346076E+02 -.41578826E+03 0.43447691E+03 0.12500000E+03 0.0000E+00 0.9000E+01
      -24  1    1    2    0    0 -.26375301E+02 -.16373947E+02 -.15072525E+03 0.17363490E+03 0.80419002E+02 0.0000E+00 0.9000E+01
       21  1    1    2  502  501 0.18661990E+02 0.20278709E+01 -.29965128E+02 0.35367408E+02 0.75000000E+00 0.0000E+00 0.9000E+01
#aMCatNLO 2  0  0  1  2 0.18771844D+02 0.00000000D+00  -5  5  0 0.00000000D+00 0.00000000D+00 0.00000000D+00 0.00000000D+00 0.00000000D+00
  <mgrwgt>
 -.3560965294D-01    2    2    0
 0.110124967632428D+03 0.000000000000000D+00 0.000000000000000D+00 0.110124967632428D+03
 0.110124967632428D+03 0.000000000000000D+00 0.000000000000000D+00 -.110124967632428D+03
 0.130914494845267D+03 0.187326482377594D+02 0.155434723438924D+02 -.303495192397924D+02
 0.893354404195896D+02 -.187326482377594D+02 -.155434723438924D+02 0.303495192397924D+02
 0.000000000000000D+00 0.000000000000000D+00 0.000000000000000D+00 0.000000000000000D+00
 0.124870569359385D+03 0.000000000000000D+00 0.000000000000000D+00 0.124870569359385D+03
 0.116664849159813D+03 0.000000000000000D+00 0.000000000000000D+00 -.116664849159813D+03
 0.129658776734951D+03 0.771331067196550D+01 0.143460762856945D+02 -.303495192397924D+02
 0.913896707227393D+02 -.263753008944033D+02 -.163739471442695D+02 0.303495192397924D+02
 0.204869710615086D+02 0.186619902224378D+02 0.202787085857503D+01 0.820572019957232D+01
-.864545003465D-03 0.000000000000D+00 0.000000000000D+00 0.281644968222D-02 0.000000000000D+00  5 1 -2 25 -24 21 2 0.37002819D-02 0.90029394D-01 0.13343914D+05 0.13343914D+05 0.13343914D+05 0.12536566D+01  1  2 13  1  5  1        1 -.312331875251D+00 0.100000000000D+01
0.844888230341D-03 0.000000000000D+00 0.000000000000D+00 0.281644968222D-02 0.676916054529D-04  5 1 -2 25 -24 21 2 0.36152209D-02 0.95375880D-01 0.13343914D+05 0.13343914D+05 0.13343914D+05 0.12536566D+01  1  2  1  1  5  1        1 0.276722222314D+00 0.100000000000D+01
  </mgrwgt>
  </event>
  <event>
  4     66 0.47139866E-03 0.15350283E+03 0.75467711E-02 0.11513782E+00
        1 -1    0    0  501    0 0.00000000E+00 0.00000000E+00 0.13592833E+02 0.13596599E+02 0.32000000E+00 0.0000E+00 0.9000E+01
       -2 -1    0    0    0  501 0.00000000E+00 0.00000000E+00 -.19405174E+04 0.19405174E+04 0.32000000E+00 0.0000E+00 0.9000E+01
       25  1    1    2    0    0 0.66040365E+02 0.91532121E+02 -.13650453E+04 0.13753956E+04 0.12500000E+03 0.0000E+00 0.9000E+01
      -24  1    1    2    0    0 -.66040365E+02 -.91532121E+02 -.56187927E+03 0.57871840E+03 0.80419002E+02 0.0000E+00 0.9000E+01
#aMCatNLO 1  0  0  1  2 0.79054419D+02 0.00000000D+00  -5  5  0 0.00000000D+00 0.00000000D+00 0.00000000D+00 0.00000000D+00 0.00000000D+00
  <mgrwgt>
 0.1741748833D+00    3    2    0
 0.162421780790256D+03 0.000000000000000D+00 0.000000000000000D+00 0.162421780790256D+03
 0.162421780790256D+03 0.000000000000000D+00 0.000000000000000D+00 -.162421780790256D+03
 0.176517464264900D+03 0.660403647359226D+02 0.915321212667522D+02 -.528578867574657D+02
 0.148326097315613D+03 -.660403647359226D+02 -.915321212667522D+02 0.528578867574657D+02
 0.000000000000000D+00 0.000000000000000D+00 0.000000000000000D+00 -.000000000000000D+00
 0.172317642290585D+03 0.000000000000000D+00 0.000000000000000D+00 0.172317642290585D+03
 0.470226733539775D+03 0.000000000000000D+00 0.000000000000000D+00 -.470226733539775D+03
 0.156101723768166D+03 0.561382041108710D+02 0.528894508397827D+02 -.528578867574657D+02
 0.178222880044140D+03 -.757618135942522D+02 -.129469573357227D+03 0.528578867574657D+02
 0.308219772018054D+03 0.196236094833812D+02 0.765801225174439D+02 -.297909091249190D+03
0.918669642615D-02 0.000000000000D+00 0.000000000000D+00 0.209477508483D-02 0.000000000000D+00  5 1 -2 25 -24 21 0 0.20914969D-02 0.29854143D+00 0.23563119D+05 0.23563119D+05 0.23563119D+05 0.12260634D+01  1  2  2  1  5  1        1 0.170649262546D+00 0.100000000000D+01
-.508392686984D-03 0.000000000000D+00 -.352793331891D-04 0.209477508483D-02 0.000000000000D+00  5 1 -2 25 -24 21 2 0.20914969D-02 0.29854143D+00 0.23563119D+05 0.23563119D+05 0.23563119D+05 0.12260634D+01  1  2  3  1  5  1        1 -.141961379178D-01 0.100000000000D+01
0.634652364570D-03 0.000000000000D+00 0.000000000000D+00 0.209477508483D-02 0.000000000000D+00  5 1 -2 25 -24 21 2 0.20914969D-02 0.29854143D+00 0.23563119D+05 0.23563119D+05 0.23563119D+05 0.12260634D+01  1  2 15  1  5  1        1 0.177217586484D-01 0.100000000000D+01
  </mgrwgt>
  </event>
  <event>
  5     66 0.47139866E-03 0.10727661E+03 0.75467711E-02 0.11453449E+00
       21 -1    0    0  501  502 0.00000000E+00 0.00000000E+00 0.13060941E+03 0.13061156E+03 0.75000000E+00 0.0000E+00 0.9000E+01
       -4 -1    0    0    0  501 0.00000000E+00 0.00000000E+00 -.37625131E+03 0.37625450E+03 0.15500000E+01 0.0000E+00 0.9000E+01
       25  1    1    2    0    0 -.12767318E+02 -.12003303E+03 -.28940899E+02 0.17616330E+03 0.12500000E+03 0.0000E+00 0.9000E+01
      -24  1    1    2    0    0 -.12448094E+02 -.28457406E+02 -.13270203E+03 0.15824609E+03 0.80419002E+02 0.0000E+00 0.9000E+01
       -3  1    1    2    0  502 0.25215413E+02 0.14849044E+03 -.83998966E+02 0.17245667E+03 0.50000000E+00 0.0000E+00 0.9000E+01
#aMCatNLO 2  0  0  1  2 0.15061616D+03 0.00000000D+00  -5  5  0 0.00000000D+00 0.00000000D+00 0.00000000D+00 0.00000000D+00 0.00000000D+00
  <mgrwgt>
 0.1618433939D-01    1    2    0
 0.125514915061386D+03 0.000000000000000D+00 0.000000000000000D+00 0.125514915061386D+03
 0.125514915061386D+03 0.000000000000000D+00 0.000000000000000D+00 -.125514915061386D+03
 0.143755344975932D+03 0.248909981406116D+01 -.301898764229725D+02 0.642103959871801D+02
 0.107274485146841D+03 -.248909981406116D+01 0.301898764229725D+02 -.642103959871801D+02
 0.000000000000000D+00 0.000000000000000D+00 0.000000000000000D+00 -.000000000000000D+00
 0.221317913400239D+03 0.000000000000000D+00 0.000000000000000D+00 0.221317913400239D+03
 0.222047690154937D+03 0.000000000000000D+00 0.000000000000000D+00 -.222047690154937D+03
 0.185253631526346D+03 -.127673183991693D+02 -.120033031377879D+03 0.642103959871801D+02
 0.107494045979152D+03 -.124480941391800D+02 -.284574061725424D+02 -.642103959871801D+02
 0.150617926049679D+03 0.252154125383493D+02 0.148490437550421D+03 -.729776754697181D+00
0.407707828268D-04 0.000000000000D+00 0.000000000000D+00 0.207098091556D-02 0.136316502342D-06  5 21 -4 25 -24 -3 2 0.20094129D-01 0.57885119D-01 0.42147053D+05 0.42147053D+05 0.42147053D+05 0.11997012D+01  1  2  1  3  5  1        3 0.161843393922D-01 0.100000000000D+01
  </mgrwgt>
  </event>
  <event>
  4     66 0.47139866E-03 0.22252345E+03 0.75467711E-02 0.10489806E+00
        1 -1    0    0  501    0 0.00000000E+00 0.00000000E+00 0.31528536E+03 0.31528552E+03 0.32000000E+00 0.0000E+00 0.9000E+01
       -2 -1    0    0    0  501 0.00000000E+00 0.00000000E+00 -.39445341E+03 0.39445354E+03 0.32000000E+00 0.0000E+00 0.9000E+01
       25  1    1    2    0    0 -.32432904E+03 -.66532135E+02 0.21273534E+02 0.35453267E+03 0.12500000E+03 0.0000E+00 0.9000E+01
      -24  1    1    2    0    0 0.32432904E+03 0.66532135E+02 -.10044159E+03 0.35520639E+03 0.80419002E+02 0.0000E+00 0.9000E+01
#aMCatNLO 1  0  0  1  2 0.72433745D+02 0.00000000D+00  -5  5  0 0.00000000D+00 0.00000000D+00 0.00000000D+00 0.00000000D+00 0.00000000D+00
  <mgrwgt>
 0.2399921814D+00    6    2    0
 0.352654916627676D+03 0.000000000000000D+00 0.000000000000000D+00 0.352654916627676D+03
 0.352654916627676D+03 0.000000000000000D+00 0.000000000000000D+00 -.352654916627676D+03
 0.359146945813886D+03 -.324329042719388D+03 -.665321347728191D+02 0.612019262665741D+02
 0.346162887441466D+03 0.324329042719388D+03 0.665321347728191D+02 -.612019262665741D+02
 0.000000000000000D+00 0.000000000000000D+00 0.000000000000000D+00 -.000000000000000D+00
 0.386623329748128D+03 0.000000000000000D+00 0.000000000000000D+00 0.386623329748128D+03
 0.395354176601466D+03 0.000000000000000D+00 0.000000000000000D+00 -.395354176601466D+03
 0.394790539924234D+03 -.360945834480714D+03 -.787845112058848D+02 0.612019262665741D+02
 0.314228929710553D+03 0.292255521894429D+03 0.557999861661728D+02 -.612019262665741D+02
 0.729580367148070D+02 0.686903125862848D+02 0.229845250397120D+02 -.873084685333852D+01
0.106099233774D-01 0.000000000000D+00 0.000000000000D+00 0.191858702832D-02 0.000000000000D+00  5 1 -2 25 -24 21 0 0.48505462D-01 0.60685163D-01 0.12061851D+06 0.12061851D+06 0.12061851D+06 0.11561661D+01  1  2  2  1  5  1        1 0.198598158786D+00 0.100000000000D+01
-.589272509100D-03 0.000000000000D+00 -.407448994264D-04 0.191858702832D-02 0.000000000000D+00  5 1 -2 25 -24 21 2 0.48505462D-01 0.60685163D-01 0.12061851D+06 0.12061851D+06 0.12061851D+06 0.11561661D+01  1  2  3  1  5  1        1 -.147441450201D-01 0.100000000000D+01
0.728863131186D-03 0.000000000000D+00 0.000000000000D+00 0.191858702832D-02 0.000000000000D+00  5 1 -2 25 -24 21 2 0.48505462D-01 0.60685163D-01 0.12061851D+06 0.12061851D+06 0.12061851D+06 0.11561661D+01  1  2 15  1  5  1        1 0.182368319243D-01 0.100000000000D+01
0.101071334601D-01 0.000000000000D+00 0.000000000000D+00 0.191858702832D-02 0.000000000000D+00  5 1 -2 25 -24 21 2 0.55817871D-01 0.60685163D-01 0.14848027D+06 0.14848027D+06 0.14848027D+06 0.11481237D+01  1  2 12  1  5  1        1 0.207775240748D+00 0.100000000000D+01
-.748035034930D-02 0.000000000000D+00 0.000000000000D+00 0.191858702832D-02 0.000000000000D+00  5 1 -2 25 -24 21 2 0.48505462D-01 0.60685163D-01 0.12061851D+06 0.12061851D+06 0.12061851D+06 0.11561661D+01  1  2  4  1  5  1        1 -.187165307474D+00 0.100000000000D+01
0.218487183568D-03 0.000000000000D+00 0.000000000000D+00 0.191858702832D-02 0.000000000000D+00  5 21 -2 25 -24 -1 2 0.55817871D-01 0.60685163D-01 0.14848027D+06 0.14848027D+06 0.14848027D+06 0.11481237D+01  1  2 12  3  5  1        1 0.172914024748D-01 0.100000000000D+01
  </mgrwgt>
  </event>
  <event>
  4     66 0.47139866E-03 0.14275945E+03 0.75467711E-02 0.11810505E+00
        1 -1    0    0  501    0 0.00000000E+00 0.00000000E+00 0.23834340E+03 0.23834361E+03 0.32000000E+00 0.0000E+00 0.9000E+01
       -2 -1    0    0    0  501 0.00000000E+00 0.00000000E+00 -.85827574E+02 0.85828171E+02 0.32000000E+00 0.0000E+00 0.9000E+01
       25  1    1    2    0    0 0.95140320E+02 -.23230566E+02 0.74955425E+02 0.17559799E+03 0.12500000E+03 0.0000E+00 0.9000E+01
      -24  1    1    2    0    0 -.95140320E+02 0.23230566E+02 0.77560399E+02 0.14857379E+03 0.80419002E+02 0.0000E+00 0.9000E+01
#aMCatNLO 1  0  0  2  2 0.44915817D+02 0.00000000D+00  -5  5  0 0.00000000D+00 0.00000000D+00 0.00000000D+00 0.00000000D+00 0.00000000D+00
  <mgrwgt>
 0.1747621448D+00    4    2    0
 0.143026456298330D+03 0.000000000000000D+00 0.000000000000000D+00 0.143026456298330D+03
 0.143026456298330D+03 0.000000000000000D+00 0.000000000000000D+00 -.143026456298330D+03
 0.159033606798039D+03 0.951403197595298D+02 -.232305661370769D+02 -.868034816113681D+01
 0.127019305798622D+03 -.951403197595298D+02 0.232305661370769D+02 0.868034816113681D+01
 0.000000000000000D+00 -.000000000000000D+00 0.000000000000000D+00 0.000000000000000D+00
 0.195920283497661D+03 0.000000000000000D+00 0.000000000000000D+00 0.195920283497661D+03
 0.154640905277025D+03 0.000000000000000D+00 0.000000000000000D+00 -.154640905277025D+03
 0.174555326521006D+03 0.114558189650875D+03 -.405664240052141D+02 -.868034816113681D+01
 0.115002438734568D+03 -.810524820741977D+02 0.106532467323793D+02 0.868034816113681D+01
 0.610034235191116D+02 -.335057075766770D+02 0.299131772728348D+02 0.412793782206355D+02
0.501678342333D-03 0.000000000000D+00 0.000000000000D+00 0.246241090337D-02 0.000000000000D+00  5 1 -2 25 -24 21 0 0.36668278D-01 0.13204305D-01 0.20380259D+05 0.20380259D+05 0.20380259D+05 0.12329265D+01  1  2  2  2  5  2       -2 0.210272242175D+00 0.100000000000D+01
-.278709006954D-04 0.000000000000D+00 -.192657692950D-05 0.246241090337D-02 0.000000000000D+00  5 1 -2 25 -24 21 2 0.36668278D-01 0.13204305D-01 0.20380259D+05 0.20380259D+05 0.20380259D+05 0.12329265D+01  1  2  3  2  5  2       -2 -.177575073816D-01 0.100000000000D+01
0.347148103890D-04 0.000000000000D+00 0.000000000000D+00 0.246241090337D-02 0.000000000000D+00  5 1 -2 25 -24 21 2 0.36668278D-01 0.13204305D-01 0.20380259D+05 0.20380259D+05 0.20380259D+05 0.12329265D+01  1  2 15  2  5  2       -2 0.221179971351D-01 0.100000000000D+01
-.625779930292D-04 0.000000000000D+00 0.000000000000D+00 0.246241090337D-02 0.000000000000D+00  5 1 -2 25 -24 21 2 0.36668278D-01 0.13204305D-01 0.20380259D+05 0.20380259D+05 0.20380259D+05 0.12329265D+01  1  2  4  2  5  2       -2 -.398705870789D-01 0.100000000000D+01
  </mgrwgt>
  </event>
  <event>
  4     66 0.47139866E-03 0.10723423E+03 0.75467711E-02 0.12100592E+00
        3 -1    0    0  501    0 0.00000000E+00 0.00000000E+00 0.10746891E+04 0.10746892E+04 0.50000000E+00 0.0000E+00 0.9000E+01
       -4 -1    0    0    0  501 0.00000000E+00 0.00000000E+00 -.10765676E+02 0.10876685E+02 0.15500000E+01 0.0000E+00 0.9000E+01
       25  1    1    2    0    0 -.27954720E+02 -.11288290E+02 0.58023913E+03 0.59431586E+03 0.12500000E+03 0.0000E+00 0.9000E+01
      -24  1    1    2    0    0 0.27954720E+02 0.11288290E+02 0.48368427E+03 0.49125002E+03 0.80419002E+02 0.0000E+00 0.9000E+01
#aMCatNLO 1  0  0  2  2 0.61717952D+02 0.00000000D+00  -5  5  0 0.00000000D+00 0.00000000D+00 0.00000000D+00 0.00000000D+00 0.00000000D+00
  <mgrwgt>
 0.1367835852D-01    3    2    0
 0.107842794027448D+03 0.000000000000000D+00 0.000000000000000D+00 0.107842794027448D+03
 0.107842794027448D+03 0.000000000000000D+00 0.000000000000000D+00 -.107842794027448D+03
 0.129072270062950D+03 -.279547199796780D+02 -.112882895351109D+02 -.112142342329955D+02
 0.866133179919447D+02 0.279547199796780D+02 0.112882895351109D+02 0.112142342329955D+02
 0.000000000000000D+00 -.000000000000000D+00 -.000000000000000D+00 0.000000000000000D+00
 0.186582023168324D+03 0.000000000000000D+00 0.000000000000000D+00 0.186582023168324D+03
 0.124968577118168D+03 0.000000000000000D+00 0.000000000000000D+00 -.124968577118168D+03
 0.126902568566602D+03 -.662863164905204D+01 0.175944338308959D+02 -.112142342329955D+02
 0.974395327978947D+02 0.432887558343821D+02 0.320557509096296D+02 0.112142342329955D+02
 0.872084989219951D+02 -.366601241853300D+02 -.496501847405255D+02 0.616134460501560D+02
0.194904944540D-03 0.000000000000D+00 0.000000000000D+00 0.304554479412D-02 0.000000000000D+00  5 3 -4 25 -24 21 0 0.16534533D+00 0.16648059D-02 0.11499179D+05 0.11499179D+05 0.11499179D+05 0.12611998D+01  1  2  2  2  5  2       -4 0.133868371212D-01 0.100000000000D+01
-.108276308512D-04 0.000000000000D+00 -.748486306684D-06 0.304554479412D-02 0.000000000000D+00  5 3 -4 25 -24 21 2 0.16534533D+00 0.16648059D-02 0.11499179D+05 0.11499179D+05 0.11499179D+05 0.12611998D+01  1  2  3  2  5  2       -4 -.118292261670D-02 0.100000000000D+01
0.134960100102D-04 0.000000000000D+00 0.000000000000D+00 0.304554479412D-02 0.000000000000D+00  5 3 -4 25 -24 21 2 0.16534533D+00 0.16648059D-02 0.11499179D+05 0.11499179D+05 0.11499179D+05 0.12611998D+01  1  2 15  2  5  2       -4 0.147444401233D-02 0.100000000000D+01
  </mgrwgt>
  </event>
  <event>
  4     66 0.47139866E-03 0.66121592E+02 0.75467711E-02 0.11929374E+00
        1 -1    0    0  501    0 0.00000000E+00 0.00000000E+00 0.81001448E+03 0.81001454E+03 0.32000000E+00 0.0000E+00 0.9000E+01
       -2 -1    0    0    0  501 0.00000000E+00 0.00000000E+00 -.24903962E+02 0.24906018E+02 0.32000000E+00 0.0000E+00 0.9000E+01
       25  1    1    2    0    0 0.67853802E+01 -.56291513E+02 0.66802046E+03 0.68197588E+03 0.12500000E+03 0.0000E+00 0.9000E+01
      -24  1    1    2    0    0 -.67853802E+01 0.56291513E+02 0.11709006E+03 0.15294468E+03 0.80419002E+02 0.0000E+00 0.9000E+01
#aMCatNLO 1  0  0  1  2 0.66768343D+02 0.00000000D+00  -5  5  0 0.00000000D+00 0.00000000D+00 0.00000000D+00 0.00000000D+00 0.00000000D+00
  <mgrwgt>
 0.1434519892D+00    7    2    0
 0.142033287259135D+03 0.000000000000000D+00 0.000000000000000D+00 0.142033287259135D+03
 0.142033287259135D+03 0.000000000000000D+00 0.000000000000000D+00 -.142033287259135D+03
 0.158152367902747D+03 0.678538015971252D+01 -.562915133543292D+02 0.785645951661021D+02
 0.125914206615523D+03 -.678538015971252D+01 0.562915133543292D+02 -.785645951661021D+02
 0.000000000000000D+00 0.000000000000000D+00 -.000000000000000D+00 0.000000000000000D+00
 0.296269916955840D+03 0.000000000000000D+00 0.000000000000000D+00 0.296269916955840D+03
 0.153315867756923D+03 0.000000000000000D+00 0.000000000000000D+00 -.153315867756923D+03
 0.150049156705321D+03 -.101075573963846D+02 -.248030461404059D+02 0.785645951661021D+02
 0.141758708794257D+03 -.214568904685149D+02 0.836392360226533D+02 -.785645951661021D+02
 0.157777919213185D+03 0.315644478648996D+02 -.588361898822474D+02 0.142954049198918D+03
0.347618187326D-03 0.000000000000D+00 0.000000000000D+00 0.179444942614D-02 0.000000000000D+00  5 1 -2 25 -24 21 0 0.12461777D+00 0.38315418D-02 0.13883340D+05 0.13883340D+05 0.13883340D+05 0.12516709D+01  1  2  2  1  5  1        1 0.194928327266D+00 0.100000000000D+01
-.184924372410D-04 0.000000000000D+00 -.133494536930D-05 0.179444942614D-02 0.000000000000D+00  5 1 -2 25 -24 21 2 0.12461777D+00 0.38315418D-02 0.13883340D+05 0.13883340D+05 0.13883340D+05 0.12516709D+01  1  2  3  1  5  1        1 -.162460191822D-01 0.100000000000D+01
0.238735452738D-04 0.000000000000D+00 0.000000000000D+00 0.179444942614D-02 0.000000000000D+00  5 1 -2 25 -24 21 2 0.12461777D+00 0.38315418D-02 0.13883340D+05 0.13883340D+05 0.13883340D+05 0.12516709D+01  1  2 15  1  5  1        1 0.209734427869D-01 0.100000000000D+01
0.308348902965D-03 0.000000000000D+00 0.000000000000D+00 0.179444942614D-02 0.000000000000D+00  5 1 -2 25 -24 21 2 0.25965646D+00 0.38315418D-02 0.24429987D+05 0.24429987D+05 0.24429987D+05 0.12243730D+01  1  2 12  1  5  1        1 0.644986013101D-01 0.100000000000D+01
-.573883317527D-03 0.000000000000D+00 -.115951821890D-03 0.179444942614D-02 0.000000000000D+00  5 1 -2 25 -24 21 2 0.26658443D+00 0.38315418D-02 0.13883340D+05 0.13883340D+05 0.13883340D+05 0.12516709D+01  1  2  5  1  5  1        1 -.117630403686D+00 0.100000000000D+01
0.244781154003D-04 0.000000000000D+00 0.000000000000D+00 0.179444942614D-02 0.000000000000D+00  5 21 -2 25 -24 -1 2 0.25965646D+00 0.38315418D-02 0.24429987D+05 0.24429987D+05 0.24429987D+05 0.12243730D+01  1  2 12  3  5  1        1 0.499473232704D-02 0.100000000000D+01
-.399851912905D-04 0.000000000000D+00 -.954186639356D-05 0.179444942614D-02 0.000000000000D+00  5 21 -2 25 -24 -1 2 0.26658443D+00 0.38315418D-02 0.13883340D+05 0.13883340D+05 0.13883340D+05 0.12516709D+01  1  2  5  3  5  1        1 -.806669159321D-02 0.100000000000D+01
  </mgrwgt>
  </event>
  <event>
  5     66 -.47139866E-03 0.11440812E+03 0.75467711E-02 0.12438449E+00
        1 -1    0    0  502    0 0.00000000E+00 0.00000000E+00 0.23389581E+03 0.23389603E+03 0.32000000E+00 0.0000E+00 0.9000E+01
       -2 -1    0    0    0  501 0.00000000E+00 0.00000000E+00 -.61498303E+02 0.61499135E+02 0.32000000E+00 0.0000E+00 0.9000E+01
       25  1    1    2    0    0 -.10679745E+01 -.45053237E+02 0.84457486E+02 0.15744523E+03 0.12500000E+03 0.0000E+00 0.9000E+01
      -24  1    1    2    0    0 -.57861174E+01 0.52410927E+02 0.78484206E+02 0.12412643E+03 0.80419002E+02 0.0000E+00 0.9000E+01
       21  1    1    2  502  501 0.68540919E+01 -.73576900E+01 0.94558161E+01 0.13823499E+02 0.75000000E+00 0.0000E+00 0.9000E+01
#aMCatNLO 2  0  0  1  2 0.10055555D+02 0.00000000D+00  -5  5  0 0.00000000D+00 0.00000000D+00 0.00000000D+00 0.00000000D+00 0.00000000D+00
  <mgrwgt>
 -.7891445255D-01    3    2    0
 0.114707773936500D+03 0.000000000000000D+00 0.000000000000000D+00 0.114707773936500D+03
 0.114707773936500D+03 0.000000000000000D+00 0.000000000000000D+00 -.114707773936500D+03
 0.134666717718939D+03 0.293043453274010D+01 -.493454256100566D+02 -.815882258687511D+01
 0.947488301540602D+02 -.293043453274010D+01 0.493454256100566D+02 0.815882258687511D+01
 0.000000000000000D+00 0.000000000000000D+00 -.000000000000000D+00 0.000000000000000D+00
 0.120817089324205D+03 0.000000000000000D+00 0.000000000000000D+00 0.120817089324205D+03
 0.119031573297048D+03 0.000000000000000D+00 0.000000000000000D+00 -.119031573297048D+03
 0.133125884552833D+03 -.106797449604906D+01 -.450532372027364D+02 -.815882258687511D+01
 0.965099309979427D+02 -.578611744159469D+01 0.524109271603269D+02 0.815882258687511D+01
 0.102128470704763D+02 0.685409193764376D+01 -.735768995759054D+01 0.178551602715697D+01
-.400979439693D-03 0.000000000000D+00 0.000000000000D+00 0.288130148927D-02 0.000000000000D+00  5 1 -2 25 -24 21 2 0.36594528D-01 0.91166295D-02 0.14291681D+05 0.14291681D+05 0.14291681D+05 0.12502246D+01  1  2 13  1  5  1        1 -.467880347313D+00 0.100000000000D+01
-.107007382893D-04 0.000000000000D+00 0.000000000000D+00 0.288130148927D-02 0.000000000000D+00  5 1 -2 25 -24 21 2 0.34160537D-01 0.91166295D-02 0.13089218D+05 0.13089218D+05 0.13089218D+05 0.12546258D+01  1  2  8  1  5  1        1 -.136414504520D-01 0.100000000000D+01
0.357948989644D-03 0.000000000000D+00 0.000000000000D+00 0.288130148927D-02 0.237995945079D-03  5 1 -2 25 -24 21 2 0.35979921D-01 0.94602721D-02 0.14291681D+05 0.14291681D+05 0.14291681D+05 0.12502246D+01  1  2  1  1  5  1        1 0.402607345220D+00 0.100000000000D+01
  </mgrwgt>
  </event>
  <event>
  5     66 0.47139866E-03 0.10699513E+03 0.75467711E-02 0.11989264E+00
        3 -1    0    0  501    0 0.00000000E+00 0.00000000E+00 0.13864615E+03 0.13864705E+03 0.50000000E+00 0.0000E+00 0.9000E+01
       21 -1    0    0  502  501 0.00000000E+00 0.00000000E+00 -.31495172E+03 0.31495261E+03 0.75000000E+00 0.0000E+00 0.9000E+01
       25  1    1    2    0    0 -.26681304E+02 0.12870601E+02 -.84175957E+02 0.15358430E+03 0.12500000E+03 0.0000E+00 0.9000E+01
      -24  1    1    2    0    0 0.17240468E+01 0.57846134E+02 0.70043556E+02 0.12133616E+03 0.80419002E+02 0.0000E+00 0.9000E+01
        4  1    1    2  502    0 0.24957257E+02 -.70716735E+02 -.16217317E+03 0.17867921E+03 0.15500000E+01 0.0000E+00 0.9000E+01
#aMCatNLO 2  0  0  2  1 0.74991475D+02 0.00000000D+00  -5  5  0 0.00000000D+00 0.00000000D+00 0.00000000D+00 0.00000000D+00 0.00000000D+00
  <mgrwgt>
 0.3746415146D-01    2    2    0
 0.132058519399385D+03 0.000000000000000D+00 0.000000000000000D+00 0.132058519399385D+03
 0.132058519399385D+03 0.000000000000000D+00 0.000000000000000D+00 -.132058519399385D+03
 0.149395121549856D+03 -.128353153819820D+02 -.263622000838966D+02 -.763818789286946D+02
 0.114721917248914D+03 0.128353153819820D+02 0.263622000838966D+02 0.763818789286946D+02
 0.000000000000000D+00 0.000000000000000D+00 -.000000000000000D+00 -.000000000000000D+00
 0.145963902641060D+03 0.000000000000000D+00 0.000000000000000D+00 0.145963902641060D+03
 0.299151022400366D+03 0.000000000000000D+00 0.000000000000000D+00 -.299151022400366D+03
 0.149454795110030D+03 -.266813039680274D+02 0.128706010453659D+02 -.763818789286946D+02
 0.125102178008278D+03 0.172404681379014D+01 0.578461340276992D+02 0.763818789286946D+02
 0.170557951923118D+03 0.249572571542373D+02 -.707167350730650D+02 -.153187119759306D+03
-.104575308761D-04 0.000000000000D+00 0.000000000000D+00 0.182249904401D-02 0.000000000000D+00  5 3 21 25 -24 4 2 0.19297821D-01 0.48153058D-01 0.22881292D+05 0.22881292D+05 0.22881292D+05 0.12274426D+01  1  2 13  4  5  2       -4 -.761100547346D-02 0.100000000000D+01
0.748771347665D-04 0.000000000000D+00 0.000000000000D+00 0.182249904401D-02 0.401545581993D-06  5 3 21 25 -24 4 2 0.21329827D-01 0.48453139D-01 0.22881292D+05 0.22881292D+05 0.22881292D+05 0.12274426D+01  1  2  1  4  5  2       -4 0.450751569321D-01 0.100000000000D+01
  </mgrwgt>
  </event>
  <event>
  4     66 0.47139866E-03 0.53529225E+02 0.75467711E-02 0.12229688E+00
        1 -1    0    0  501    0 0.00000000E+00 0.00000000E+00 0.20207726E+03 0.20207752E+03 0.32000000E+00 0.0000E+00 0.9000E+01
       -2 -1    0    0    0  501 0.00000000E+00 0.00000000E+00 -.71173248E+02 0.71173967E+02 0.32000000E+00 0.0000E+00 0.9000E+01
       25  1    1    2    0    0 0.54256101E+02 0.13713438E+02 0.48691586E+02 0.14535355E+03 0.12500000E+03 0.0000E+00 0.9000E+01
      -24  1    1    2    0    0 -.54256101E+02 -.13713438E+02 0.82212431E+02 0.12789794E+03 0.80419002E+02 0.0000E+00 0.9000E+01
#aMCatNLO 1  0  0  1  2 0.29368158D+02 0.00000000D+00  -5  5  0 0.00000000D+00 0.00000000D+00 0.00000000D+00 0.00000000D+00 0.00000000D+00
  <mgrwgt>
 0.2324483839D+00    9    2    0
 0.119927595009026D+03 0.000000000000000D+00 0.000000000000000D+00 0.119927595009026D+03
 0.119927595009026D+03 0.000000000000000D+00 0.000000000000000D+00 -.119927595009026D+03
 0.139017830340061D+03 0.542561007306087D+02 0.137134384603085D+02 -.238573739452492D+02
 0.100837359677991D+03 -.542561007306087D+02 -.137134384603085D+02 0.238573739452492D+02
 0.000000000000000D+00 0.000000000000000D+00 -.000000000000000D+00 0.000000000000000D+00
 0.137233350432542D+03 0.000000000000000D+00 0.000000000000000D+00 0.137233350432542D+03
 0.133962795452406D+03 0.000000000000000D+00 0.000000000000000D+00 -.133962795452406D+03
 0.138916789929573D+03 0.474273472705455D+02 0.292292142154535D+02 -.238573739452492D+02
 0.102729647861567D+03 -.592576687459278D+02 -.234925490855991D+01 0.238573739452492D+02
 0.295497080938075D+02 0.118303214753823D+02 -.268799593068935D+02 0.327055498013540D+01
0.191609510936D-03 0.000000000000D+00 0.000000000000D+00 0.268937051420D-02 0.000000000000D+00  5 1 -2 25 -24 21 0 0.31088885D-01 0.10949805D-01 0.13798013D+05 0.13798013D+05 0.13798013D+05 0.12519792D+01  1  2  2  1  5  1        1 0.131122120119D+00 0.100000000000D+01
-.106394011091D-04 0.000000000000D+00 -.735830973939D-06 0.268937051420D-02 0.000000000000D+00  5 1 -2 25 -24 21 2 0.31088885D-01 0.10949805D-01 0.13798013D+05 0.13798013D+05 0.13798013D+05 0.12519792D+01  1  2  3  1  5  1        1 -.114122248898D-01 0.100000000000D+01
0.132653624836D-04 0.000000000000D+00 0.000000000000D+00 0.268937051420D-02 0.000000000000D+00  5 1 -2 25 -24 21 2 0.31088885D-01 0.10949805D-01 0.13798013D+05 0.13798013D+05 0.13798013D+05 0.12519792D+01  1  2 15  1  5  1        1 0.142289305906D-01 0.100000000000D+01
0.178846699476D-03 0.000000000000D+00 0.000000000000D+00 0.268937051420D-02 0.000000000000D+00  5 1 -2 25 -24 21 2 0.37163099D-01 0.10949805D-01 0.17707891D+05 0.17707891D+05 0.17707891D+05 0.12396886D+01  1  2 12  1  5  1        1 0.152180022684D+00 0.100000000000D+01
-.158640199372D-03 0.000000000000D+00 0.000000000000D+00 0.268937051420D-02 0.000000000000D+00  5 1 -2 25 -24 21 2 0.31088885D-01 0.10949805D-01 0.13798013D+05 0.13798013D+05 0.13798013D+05 0.12519792D+01  1  2  4  1  5  1        1 -.170163490711D+00 0.100000000000D+01
-.453364118786D-03 0.000000000000D+00 -.140765382024D-03 0.268937051420D-02 0.000000000000D+00  5 1 -2 25 -24 21 2 0.39410083D-01 0.10949805D-01 0.13798013D+05 0.13798013D+05 0.13798013D+05 0.12519792D+01  1  2  5  1  5  1        1 -.362984768290D+00 0.100000000000D+01
0.477135446586D-03 0.000000000000D+00 0.136897053591D-03 0.268937051420D-02 0.000000000000D+00  5 1 -2 25 -24 21 2 0.31088885D-01 0.10949805D-01 0.13798013D+05 0.13798013D+05 0.13798013D+05 0.12519792D+01  1  2  6  1  5  1        1 0.511793564646D+00 0.100000000000D+01
0.468537190778D-05 0.000000000000D+00 0.000000000000D+00 0.268937051420D-02 0.000000000000D+00  5 21 -2 25 -24 -1 2 0.37163099D-01 0.10949805D-01 0.17707891D+05 0.17707891D+05 0.17707891D+05 0.12396886D+01  1  2 12  3  5  1        1 0.225497329444D-01 0.100000000000D+01
-.125933638752D-04 0.000000000000D+00 -.458164029839D-05 0.268937051420D-02 0.000000000000D+00  5 21 -2 25 -24 -1 2 0.39410083D-01 0.10949805D-01 0.13798013D+05 0.13798013D+05 0.13798013D+05 0.12519792D+01  1  2  5  3  5  1        1 -.548655032377D-01 0.100000000000D+01
  </mgrwgt>
  </event>
  <event>
  5     66 0.47139866E-03 0.10754903E+03 0.75467711E-02 0.12234699E+00
        1 -1    0    0  502    0 0.00000000E+00 0.00000000E+00 0.27294973E+04 0.27294973E+04 0.32000000E+00 0.0000E+00 0.9000E+01
       -2 -1    0    0    0  501 0.00000000E+00 0.00000000E+00 -.86839023E+01 0.86897963E+01 0.32000000E+00 0.0000E+00 0.9000E+01
       25  1    1    2    0    0 0.26581333E+02 -.48707220E+02 0.14102741E+04 0.14168899E+04 0.12500000E+03 0.0000E+00 0.9000E+01
      -24  1    1    2    0    0 0.81523841E+01 0.19131262E+02 0.11817343E+04 0.11846500E+04 0.80419002E+02 0.0000E+00 0.9000E+01
       21  1    1    2  502  501 -.34733717E+02 0.29575958E+02 0.12880497E+03 0.13664718E+03 0.75000000E+00 0.0000E+00 0.9000E+01
#aMCatNLO 2  0  0  1  2 0.45619824D+02 0.00000000D+00  -5  5  0 0.00000000D+00 0.00000000D+00 0.00000000D+00 0.00000000D+00 0.00000000D+00
  <mgrwgt>
 0.8761963754D-02    1    2    0
 0.108882033221225D+03 0.000000000000000D+00 0.000000000000000D+00 0.108882033221225D+03
 0.108882033221225D+03 0.000000000000000D+00 0.000000000000000D+00 -.108882033221225D+03
 0.129908881670645D+03 0.546269759713485D+01 -.307245818834310D+02 -.166576270809565D+02
 0.878551847718058D+02 -.546269759713485D+01 0.307245818834310D+02 0.166576270809565D+02
 0.000000000000000D+00 -.000000000000000D+00 0.000000000000000D+00 -.000000000000000D+00
 0.116930214733285D+03 0.000000000000000D+00 0.000000000000000D+00 0.116930214733285D+03
 0.202772400905512D+03 0.000000000000000D+00 0.000000000000000D+00 -.202772400905512D+03
 0.137773136301145D+03 0.265813327020021D+02 -.487072201841885D+02 -.166576270809565D+02
 0.847181152464223D+02 0.815238413133531D+01 0.191312621000940D+02 0.166576270809565D+02
 0.972113640912309D+02 -.347337168333374D+02 0.295759580840946D+02 -.858421861722269D+02
0.411656230268D-04 0.000000000000D+00 0.000000000000D+00 0.298337320018D-02 0.142462959102D-04  5 1 -2 25 -24 21 2 0.41991813D+00 0.13364239D-02 0.17615471D+05 0.17615471D+05 0.17615471D+05 0.12399426D+01  1  2  1  1  5  1        1 0.876196375354D-02 0.100000000000D+01
  </mgrwgt>
  </event>
  <event>
  4     66 0.47139866E-03 0.25702169E+03 0.75467711E-02 0.10172934E+00
        1 -1    0    0  501    0 0.00000000E+00 0.00000000E+00 0.10280315E+04 0.10280316E+04 0.32000000E+00 0.0000E+00 0.9000E+01
       -2 -1    0    0    0  501 0.00000000E+00 0.00000000E+00 -.64672645E+02 0.64673437E+02 0.32000000E+00 0.0000E+00 0.9000E+01
       25  1    1    2    0    0 0.16082750E+03 -.17096169E+03 0.45456755E+03 0.52664034E+03 0.12500000E+03 0.0000E+00 0.9000E+01
      -24  1    1    2    0    0 -.16082750E+03 0.17096169E+03 0.50879132E+03 0.56606467E+03 0.80419002E+02 0.0000E+00 0.9000E+01
#aMCatNLO 1  0  0  2  2 0.35107260D+03 0.00000000D+00  -5  5  0 0.00000000D+00 0.00000000D+00 0.00000000D+00 0.00000000D+00 0.00000000D+00
  <mgrwgt>
 0.2448199540D+00    5    2    0
 0.257848749851085D+03 0.000000000000000D+00 0.000000000000000D+00 0.257848749851085D+03
 0.257848749851085D+03 0.000000000000000D+00 0.000000000000000D+00 -.257848749851085D+03
 0.266727776849391D+03 0.160827502111500D+03 -.170961690433330D+03 -.206233341575067D+02
 0.248969722852778D+03 -.160827502111500D+03 0.170961690433330D+03 0.206233341575067D+02
 0.000000000000000D+00 0.000000000000000D+00 0.000000000000000D+00 -.000000000000000D+00
 0.345635618874008D+03 0.000000000000000D+00 0.000000000000000D+00 0.345635618874008D+03
 0.122604860021356D+04 0.000000000000000D+00 0.000000000000000D+00 -.122604860021356D+04
 0.365099047151699D+03 0.595543471473756D+02 -.337194709411574D+03 -.206233341575067D+02
 0.258756608520412D+03 -.242209053959693D+03 0.373793895989989D+02 0.206233341575067D+02
 0.947828563415457D+03 0.182654706812317D+03 0.299815319812575D+03 -.880412981339552D+03
0.313266387498D-02 0.000000000000D+00 0.000000000000D+00 0.203864090132D-02 0.000000000000D+00  5 1 -2 25 -24 21 0 0.15815876D+00 0.99497025D-02 0.66060148D+05 0.66060148D+05 0.66060148D+05 0.11804840D+01  1  2  2  2  5  2       -2 0.281214949196D+00 0.100000000000D+01
-.174034697884D-03 0.000000000000D+00 -.120302541293D-04 0.203864090132D-02 0.000000000000D+00  5 1 -2 25 -24 21 2 0.15815876D+00 0.99497025D-02 0.66060148D+05 0.66060148D+05 0.66060148D+05 0.11804840D+01  1  2  3  2  5  2       -2 -.217711160863D-01 0.100000000000D+01
0.215315942818D-03 0.000000000000D+00 0.000000000000D+00 0.203864090132D-02 0.000000000000D+00  5 1 -2 25 -24 21 2 0.15815876D+00 0.99497025D-02 0.66060148D+05 0.66060148D+05 0.66060148D+05 0.11804840D+01  1  2 15  2  5  2       -2 0.269352516672D-01 0.100000000000D+01
-.206116624172D-02 0.000000000000D+00 -.139557629859D-02 0.203864090132D-02 0.000000000000D+00  5 1 -2 25 -24 21 2 0.15815876D+00 0.61239334D-01 0.66060148D+05 0.66060148D+05 0.66060148D+05 0.11804840D+01  1  2  5  2  5  2       -2 -.994304578061D-02 0.100000000000D+01
-.555259984867D-03 0.000000000000D+00 -.310820898659D-03 0.203864090132D-02 0.000000000000D+00  5 1 21 25 -24 2 2 0.15815876D+00 0.61239334D-01 0.66060148D+05 0.66060148D+05 0.66060148D+05 0.11804840D+01  1  2  5  4  5  2       -2 -.316160850153D-01 0.100000000000D+01
  </mgrwgt>
  </event>
  <event>
  4     66 0.47139866E-03 0.11196811E+03 0.75467711E-02 0.10966292E+00
        1 -1    0    0  501    0 0.00000000E+00 0.00000000E+00 0.15265519E+04 0.15265520E+04 0.32000000E+00 0.0000E+00 0.9000E+01
       -2 -1    0    0    0  501 0.00000000E+00 0.00000000E+00 -.91736482E+01 0.91792278E+01 0.32000000E+00 0.0000E+00 0.9000E+01
       25  1    1    2    0    0 0.25381063E+02 0.35561830E+02 0.11278126E+04 0.11355594E+04 0.12500000E+03 0.0000E+00 0.9000E+01
      -24  1    1    2    0    0 -.25381063E+02 -.35561830E+02 0.38956562E+03 0.40017175E+03 0.80419002E+02 0.0000E+00 0.9000E+01
#aMCatNLO 1  0  0  1  2 0.23365477D+03 0.00000000D+00  -5  5  0 0.00000000D+00 0.00000000D+00 0.00000000D+00 0.00000000D+00 0.00000000D+00
  <mgrwgt>
 0.3867724405D+00    3    2    0
 0.118356919516193D+03 0.000000000000000D+00 0.000000000000000D+00 0.118356919516193D+03
 0.118356919516193D+03 0.000000000000000D+00 0.000000000000000D+00 -.118356919516193D+03
 0.137700495039837D+03 0.253810631911075D+02 0.355618303676760D+02 0.377833850575339D+02
 0.990133439925486D+02 -.253810631911075D+02 -.355618303676760D+02 -.377833850575339D+02
 0.000000000000000D+00 0.000000000000000D+00 -.000000000000000D+00 -.000000000000000D+00
 0.200189272527780D+03 0.000000000000000D+00 0.000000000000000D+00 0.200189272527780D+03
 0.569092820011878D+03 0.000000000000000D+00 0.000000000000000D+00 -.569092820011878D+03
 0.217672034108633D+03 -.253793336115139D+02 0.172291670350077D+03 0.377833850575339D+02
 0.114935833088609D+03 -.559409524156812D+02 0.467552716794868D+02 -.377833850575339D+02
 0.436674225342417D+03 0.813202860271951D+02 -.219046942029564D+03 -.368903547484098D+03
0.501732945647D-03 0.000000000000D+00 0.000000000000D+00 0.256839342726D-02 0.000000000000D+00  5 1 -2 25 -24 21 0 0.23485457D+00 0.14117623D-02 0.12536858D+05 0.12536858D+05 0.12536858D+05 0.12568025D+01  1  2  2  1  5  1        1 0.378555652064D+00 0.100000000000D+01
-.277696954566D-04 0.000000000000D+00 -.192678662060D-05 0.256839342726D-02 0.000000000000D+00  5 1 -2 25 -24 21 2 0.23485457D+00 0.14117623D-02 0.12536858D+05 0.12536858D+05 0.12536858D+05 0.12568025D+01  1  2  3  1  5  1        1 -.330949958809D-01 0.100000000000D+01
0.346643242881D-04 0.000000000000D+00 0.000000000000D+00 0.256839342726D-02 0.000000000000D+00  5 1 -2 25 -24 21 2 0.23485457D+00 0.14117623D-02 0.12536858D+05 0.12536858D+05 0.12536858D+05 0.12568025D+01  1  2 15  1  5  1        1 0.413117843269D-01 0.100000000000D+01
  </mgrwgt>
  </event>
  <event>
  5     66 0.47139866E-03 0.11217419E+03 0.75467711E-02 0.11033718E+00
        1 -1    0    0  501    0 0.00000000E+00 0.00000000E+00 0.54823003E+03 0.54823012E+03 0.32000000E+00 0.0000E+00 0.9000E+01
       21 -1    0    0  502  501 0.00000000E+00 0.00000000E+00 -.13682451E+03 0.13682657E+03 0.75000000E+00 0.0000E+00 0.9000E+01
       25  1    1    2    0    0 -.67455594E+02 0.69559874E+01 0.18496639E+03 0.23331568E+03 0.12500000E+03 0.0000E+00 0.9000E+01
      -24  1    1    2    0    0 -.14800844E+03 0.32346784E+02 0.10893445E+03 0.20319140E+03 0.80419002E+02 0.0000E+00 0.9000E+01
        2  1    1    2  502    0 0.21546403E+03 -.39302772E+02 0.11750467E+03 0.24854961E+03 0.32000000E+00 0.0000E+00 0.9000E+01
#aMCatNLO 2  0  0  2  2 0.21901931D+03 0.00000000D+00  -5  5  0 0.00000000D+00 0.00000000D+00 0.00000000D+00 0.00000000D+00 0.00000000D+00
  <mgrwgt>
 0.3866786547D-01    1    2    0
 0.118523488028402D+03 0.000000000000000D+00 0.000000000000000D+00 0.118523488028402D+03
 0.118523488028402D+03 0.000000000000000D+00 0.000000000000000D+00 -.118523488028402D+03
 0.137839878808757D+03 0.422275036130270D+02 -.130512948356107D+02 0.377005813183123D+02
 0.992070972480470D+02 -.422275036130270D+02 0.130512948356107D+02 -.377005813183123D+02
 0.000000000000000D+00 0.000000000000000D+00 -.000000000000000D+00 -.000000000000000D+00
 0.242242318834509D+03 0.000000000000000D+00 0.000000000000000D+00 0.242242318834509D+03
 0.309656794391214D+03 0.000000000000000D+00 0.000000000000000D+00 -.309656794391214D+03
 0.147122318985454D+03 -.674555939165452D+02 0.695598744142377D+01 0.377005813183123D+02
 0.175617091158089D+03 -.148008440501379D+03 0.323467844007538D+02 -.377005813183123D+02
 0.229159703082179D+03 0.215464034417925D+03 -.393027718421776D+02 -.674144755567051D+02
0.306290672279D-04 0.000000000000D+00 0.000000000000D+00 0.256700314515D-02 0.169780303639D-06  5 1 21 25 -24 2 2 0.84343211D-01 0.21050082D-01 0.70956131D+05 0.70956131D+05 0.70956131D+05 0.11775135D+01  1  2  1  4  5  2       -2 0.386678654677D-01 0.100000000000D+01
  </mgrwgt>
  </event>
  <event>
  4     66 0.47139866E-03 0.81139199E+02 0.75467711E-02 0.12318715E+00
        3 -1    0    0  501    0 0.00000000E+00 0.00000000E+00 0.18006266E+02 0.18013206E+02 0.50000000E+00 0.0000E+00 0.9000E+01
       -4 -1    0    0    0  501 0.00000000E+00 0.00000000E+00 -.92831639E+03 0.92831768E+03 0.15500000E+01 0.0000E+00 0.9000E+01
       25  1    1    2    0    0 -.84033951E+01 0.46628537E+02 -.74132858E+03 0.75328474E+03 0.12500000E+03 0.0000E+00 0.9000E+01
      -24  1    1    2    0    0 0.84033951E+01 -.46628537E+02 -.16898155E+03 0.19304615E+03 0.80419002E+02 0.0000E+00 0.9000E+01
#aMCatNLO 1  0  0  2  1 0.25796822D+02 0.00000000D+00  -5  5  0 0.00000000D+00 0.00000000D+00 0.00000000D+00 0.00000000D+00 0.00000000D+00
  <mgrwgt>
 0.6315507507D-01    9    2    0
 0.129303549038563D+03 0.000000000000000D+00 0.000000000000000D+00 0.129303549038563D+03
 0.129303549038563D+03 0.000000000000000D+00 0.000000000000000D+00 -.129303549038563D+03
 0.147009528715305D+03 -.840339510271447D+01 0.466285368413508D+02 -.611715950084549D+02
 0.111597569361821D+03 0.840339510271447D+01 -.466285368413508D+02 0.611715950084549D+02
 0.000000000000000D+00 -.000000000000000D+00 -.000000000000000D+00 -.000000000000000D+00
 0.134168585531722D+03 0.000000000000000D+00 0.000000000000000D+00 0.134168585531722D+03
 0.169338398552943D+03 0.000000000000000D+00 0.000000000000000D+00 -.169338398552943D+03
 0.149153310252039D+03 0.465163067676304D+01 0.534612780927420D+02 -.611715950084549D+02
 0.110737257492008D+03 0.182040402693164D+02 -.414990737785235D+02 0.611715950084549D+02
 0.436164163406187D+02 -.228556709460795D+02 -.119622043142185D+02 -.351698130212207D+02
0.125040074509D-02 0.000000000000D+00 0.000000000000D+00 0.211040555214D-02 0.000000000000D+00  5 3 -4 25 -24 21 0 0.27708281D-02 0.14281854D+00 0.12884122D+05 0.12884122D+05 0.12884122D+05 0.12554218D+01  1  2  2  2  5  2       -4 0.494423628978D-01 0.100000000000D+01
-.680329957722D-04 0.000000000000D+00 -.480186809921D-05 0.211040555214D-02 0.000000000000D+00  5 3 -4 25 -24 21 2 0.27708281D-02 0.14281854D+00 0.12884122D+05 0.12884122D+05 0.12884122D+05 0.12554218D+01  1  2  3  2  5  2       -4 -.423983451935D-02 0.100000000000D+01
0.859710483280D-04 0.000000000000D+00 0.000000000000D+00 0.211040555214D-02 0.000000000000D+00  5 3 -4 25 -24 21 2 0.27708281D-02 0.14281854D+00 0.12884122D+05 0.12884122D+05 0.12884122D+05 0.12554218D+01  1  2 15  2  5  2       -4 0.535773875939D-02 0.100000000000D+01
0.227808176111D-02 0.000000000000D+00 0.000000000000D+00 0.211040555214D-02 0.000000000000D+00  5 3 -4 25 -24 21 2 0.27708281D-02 0.18912016D+00 0.16146407D+05 0.16146407D+05 0.16146407D+05 0.12441927D+01  1  2 12  2  5  2       -4 0.679525155039D-01 0.100000000000D+01
-.232913750975D-02 0.000000000000D+00 0.000000000000D+00 0.211040555214D-02 0.000000000000D+00  5 3 -4 25 -24 21 2 0.27708281D-02 0.14281854D+00 0.12884122D+05 0.12884122D+05 0.12884122D+05 0.12554218D+01  1  2  4  2  5  2       -4 -.145152473474D+00 0.100000000000D+01
-.304446599204D-02 0.000000000000D+00 -.534576545481D-03 0.211040555214D-02 0.000000000000D+00  5 3 -4 25 -24 21 2 0.27708281D-02 0.19019606D+00 0.12884122D+05 0.12884122D+05 0.12884122D+05 0.12554218D+01  1  2  5  2  5  2       -4 -.895518548961D-01 0.100000000000D+01
0.309110729088D-02 0.000000000000D+00 0.513365819266D-03 0.211040555214D-02 0.000000000000D+00  5 3 -4 25 -24 21 2 0.27708281D-02 0.14281854D+00 0.12884122D+05 0.12884122D+05 0.12884122D+05 0.12554218D+01  1  2  6  2  5  2       -4 0.192638634329D+00 0.100000000000D+01
0.839415403416D-04 0.000000000000D+00 0.000000000000D+00 0.211040555214D-02 0.000000000000D+00  5 3 21 25 -24 4 2 0.27708281D-02 0.18912016D+00 0.16146407D+05 0.16146407D+05 0.16146407D+05 0.12441927D+01  1  2 12  4  5  2       -4 0.586786162570D-01 0.100000000000D+01
-.102669150805D-03 0.000000000000D+00 -.199858772079D-04 0.211040555214D-02 0.000000000000D+00  5 3 21 25 -24 4 2 0.27708281D-02 0.19019606D+00 0.12884122D+05 0.12884122D+05 0.12884122D+05 0.12554218D+01  1  2  5  4  5  2       -4 -.719706297863D-01 0.100000000000D+01
  </mgrwgt>
  </event>
  <event>
  4     66 0.47139866E-03 0.17247294E+03 0.75467711E-02 0.98016844E-01
        1 -1    0    0  501    0 0.00000000E+00 0.00000000E+00 0.99820229E+03 0.99820234E+03 0.32000000E+00 0.0000E+00 0.9000E+01
       -2 -1    0    0    0  501 0.00000000E+00 0.00000000E+00 -.36775207E+02 0.36776599E+02 0.32000000E+00 0.0000E+00 0.9000E+01
       25  1    1    2    0    0 -.18533118E+02 0.13613793E+03 0.28586003E+03 0.34090756E+03 0.12500000E+03 0.0000E+00 0.9000E+01
      -24  1    1    2    0    0 0.18533118E+02 -.13613793E+03 0.67556706E+03 0.69407138E+03 0.80419002E+02 0.0000E+00 0.9000E+01
#aMCatNLO 1  0  0  1  2 0.60712979D+03 0.00000000D+00  -5  5  0 0.00000000D+00 0.00000000D+00 0.00000000D+00 0.00000000D+00 0.00000000D+00
  <mgrwgt>
 0.2046403721D+00    5    2    0
 0.191598128876335D+03 0.000000000000000D+00 0.000000000000000D+00 0.191598128876335D+03
 0.191598128876335D+03 0.000000000000000D+00 0.000000000000000D+00 -.191598128876335D+03
 0.203547337487266D+03 -.185331182206438D+02 0.136137929687166D+03 -.832436557802867D+02
 0.179648920265404D+03 0.185331182206438D+02 -.136137929687166D+03 0.832436557802867D+02
 0.000000000000000D+00 0.000000000000000D+00 0.000000000000000D+00 0.000000000000000D+00
 0.765227904369326D+03 0.000000000000000D+00 0.000000000000000D+00 0.765227904369326D+03
 0.585804801210044D+03 0.000000000000000D+00 0.000000000000000D+00 -.585804801210044D+03
 0.339706319318672D+03 -.302110355618297D+03 0.396889176667647D+02 -.832436557802867D+02
 0.378239325350805D+03 -.272683342978404D+03 -.235185160080130D+03 0.832436557802867D+02
 0.633087060909893D+03 0.574793698596701D+03 0.195496242413365D+03 0.179423103159282D+03
0.882937767214D-03 0.000000000000D+00 0.000000000000D+00 0.179855782486D-02 0.000000000000D+00  5 1 -2 25 -24 21 0 0.15356969D+00 0.56578352D-02 0.29746915D+05 0.29746915D+05 0.29746915D+05 0.12152847D+01  1  2  2  1  5  1        1 0.200331573065D+00 0.100000000000D+01
-.483925627466D-04 0.000000000000D+00 -.339071350896D-05 0.179855782486D-02 0.000000000000D+00  5 1 -2 25 -24 21 2 0.15356969D+00 0.56578352D-02 0.29746915D+05 0.29746915D+05 0.29746915D+05 0.12152847D+01  1  2  3  1  5  1        1 -.162163841152D-01 0.100000000000D+01
0.608207334420D-04 0.000000000000D+00 0.000000000000D+00 0.179855782486D-02 0.000000000000D+00  5 1 -2 25 -24 21 2 0.15356969D+00 0.56578352D-02 0.29746915D+05 0.29746915D+05 0.29746915D+05 0.12152847D+01  1  2 15  1  5  1        1 0.203810734477D-01 0.100000000000D+01
0.579941020178D-03 0.000000000000D+00 -.381467510725D-03 0.179855782486D-02 0.000000000000D+00  5 1 -2 25 -24 21 2 0.77780182D+00 0.56578352D-02 0.29746915D+05 0.29746915D+05 0.29746915D+05 0.12152847D+01  1  2  5  1  5  1        1 0.142515523958D-03 0.100000000000D+01
0.102977587214D-03 0.000000000000D+00 -.754800087572D-04 0.179855782486D-02 0.000000000000D+00  5 21 -2 25 -24 -1 2 0.77780182D+00 0.56578352D-02 0.29746915D+05 0.29746915D+05 0.29746915D+05 0.12152847D+01  1  2  5  3  5  1        1 0.159414153063D-05 0.100000000000D+01
  </mgrwgt>
  </event>
  <event>
  5     66 0.47139866E-03 0.14592245E+03 0.75467711E-02 0.11519542E+00
        1 -1    0    0  501    0 0.00000000E+00 0.00000000E+00 0.48951485E+02 0.48952531E+02 0.32000000E+00 0.0000E+00 0.9000E+01
       21 -1    0    0  502  501 0.00000000E+00 0.00000000E+00 -.11479057E+04 0.11479060E+04 0.75000000E+00 0.0000E+00 0.9000E+01
       25  1    1    2    0    0 0.25703938E+02 -.96966615E+02 -.31207797E+03 0.35082884E+03 0.12500000E+03 0.0000E+00 0.9000E+01
      -24  1    1    2    0    0 -.10606444E+03 0.57605331E+02 -.17338960E+03 0.22605134E+03 0.80419002E+02 0.0000E+00 0.9000E+01
        2  1    1    2  502    0 0.80360500E+02 0.39361283E+02 -.61348668E+03 0.61997833E+03 0.32000000E+00 0.0000E+00 0.9000E+01
#aMCatNLO 2  0  0  2  1 0.89482516D+02 0.00000000D+00  -5  5  0 0.00000000D+00 0.00000000D+00 0.00000000D+00 0.00000000D+00 0.00000000D+00
  <mgrwgt>
 0.3169569263D-01    2    2    0
 0.149252188120175D+03 0.000000000000000D+00 0.000000000000000D+00 0.149252188120175D+03
 0.149252188120175D+03 0.000000000000000D+00 0.000000000000000D+00 -.149252188120175D+03
 0.164591635000270D+03 0.688878356892492D+02 -.758147597810072D+02 -.311768280211655D+02
 0.133912741240080D+03 -.688878356892492D+02 0.758147597810072D+02 0.311768280211655D+02
 0.000000000000000D+00 0.000000000000000D+00 0.000000000000000D+00 -.000000000000000D+00
 0.166878953418446D+03 0.000000000000000D+00 0.000000000000000D+00 0.166878953418446D+03
 0.336725378289479D+03 0.000000000000000D+00 0.000000000000000D+00 -.336725378289479D+03
 0.163279549820449D+03 0.257039377157348D+02 -.969666147187412D+02 -.311768280211655D+02
 0.148348406638624D+03 -.106064437892172D+03 0.576053314112856D+02 0.311768280211655D+02
 0.191976375248853D+03 0.803605001764376D+02 0.393612833074556D+02 -.169846424871033D+03
-.443393766968D-04 0.000000000000D+00 0.000000000000D+00 0.231919439722D-02 0.000000000000D+00  5 1 21 25 -24 2 2 0.67356119D-02 0.17547448D+00 0.38965440D+05 0.38965440D+05 0.38965440D+05 0.12031577D+01  1  2 13  4  5  2       -2 -.145663791528D-01 0.100000000000D+01
0.166910698354D-03 0.000000000000D+00 0.000000000000D+00 0.231919439722D-02 0.324108287263D-06  5 1 21 25 -24 2 2 0.75310914D-02 0.17660085D+00 0.38965440D+05 0.38965440D+05 0.38965440D+05 0.12031577D+01  1  2  1  4  5  2       -2 0.462620717835D-01 0.100000000000D+01
  </mgrwgt>
  </event>
  <event>
  4     66 0.47139866E-03 0.62148442E+02 0.75467711E-02 0.12518740E+00
        1 -1    0    0  501    0 0.00000000E+00 0.00000000E+00 0.44808841E+02 0.44809984E+02 0.32000000E+00 0.0000E+00 0.9000E+01
       -2 -1    0    0    0  501 0.00000000E+00 0.00000000E+00 -.27962342E+03 0.27962361E+03 0.32000000E+00 0.0000E+00 0.9000E+01
       25  1    1    2    0    0 0.35154542E+02 -.25577849E+02 -.14387327E+03 0.19548552E+03 0.12500000E+03 0.0000E+00 0.9000E+01
      -24  1    1    2    0    0 -.35154542E+02 0.25577849E+02 -.90941308E+02 0.12894807E+03 0.80419002E+02 0.0000E+00 0.9000E+01
#aMCatNLO 1  0  0  2  1 0.58261235D+01 0.00000000D+00  -5  5  0 0.00000000D+00 0.00000000D+00 0.00000000D+00 0.00000000D+00 0.00000000D+00
  <mgrwgt>
 0.1117377585D+00   11    2    0
 0.111936663128558D+03 0.000000000000000D+00 0.000000000000000D+00 0.111936663128558D+03
 0.111936663128558D+03 0.000000000000000D+00 0.000000000000000D+00 -.111936663128558D+03
 0.132389711731391D+03 0.351545415022516D+02 -.255778490829961D+02 -.345942486184271D+01
 0.914836145257244D+02 -.351545415022516D+02 0.255778490829961D+02 0.345942486184271D+01
 0.000000000000000D+00 0.000000000000000D+00 0.000000000000000D+00 -.000000000000000D+00
 0.112941323210707D+03 0.000000000000000D+00 0.000000000000000D+00 0.112941323210707D+03
 0.120752248130681D+03 0.000000000000000D+00 0.000000000000000D+00 -.120752248130681D+03
 0.132227742469219D+03 0.326544207291322D+02 -.279445355119071D+02 -.345942486184271D+01
 0.917213810492550D+02 -.368854727311078D+02 0.239392996606012D+02 0.345942486184271D+01
 0.974444782291374D+01 0.423105200197559D+01 0.400523585130598D+01 -.781092491997458D+01
0.228575809609D-03 0.000000000000D+00 0.000000000000D+00 0.295821902249D-02 0.000000000000D+00  5 1 -2 25 -24 21 0 0.68937698D-02 0.43019090D-01 0.12517435D+05 0.12517435D+05 0.12517435D+05 0.12568810D+01  1  2  2  2  5  2       -2 0.103596599099D+00 0.100000000000D+01
-.126986523166D-04 0.000000000000D+00 -.877791294290D-06 0.295821902249D-02 0.000000000000D+00  5 1 -2 25 -24 21 2 0.68937698D-02 0.43019090D-01 0.12517435D+05 0.12517435D+05 0.12517435D+05 0.12568810D+01  1  2  3  2  5  2       -2 -.909203730746D-02 0.100000000000D+01
0.158044130519D-04 0.000000000000D+00 0.000000000000D+00 0.295821902249D-02 0.000000000000D+00  5 1 -2 25 -24 21 2 0.68937698D-02 0.43019090D-01 0.12517435D+05 0.12517435D+05 0.12517435D+05 0.12568810D+01  1  2 15  2  5  2       -2 0.113157136291D-01 0.100000000000D+01
0.114144092874D-02 0.000000000000D+00 0.000000000000D+00 0.295821902249D-02 0.000000000000D+00  5 1 -2 25 -24 21 2 0.68937698D-02 0.46590900D-01 0.13186471D+05 0.13186471D+05 0.13186471D+05 0.12542533D+01  1  2 12  2  5  2       -2 0.699286588577D+00 0.100000000000D+01
-.162539908334D-02 0.000000000000D+00 0.000000000000D+00 0.295821902249D-02 0.000000000000D+00  5 1 -2 25 -24 21 2 0.68937698D-02 0.43019090D-01 0.12517435D+05 0.12517435D+05 0.12517435D+05 0.12568810D+01  1  2  4  2  5  2       -2 -.116376043196D+01 0.100000000000D+01
-.300376684981D-02 0.000000000000D+00 -.332037746385D-03 0.295821902249D-02 0.000000000000D+00  5 1 -2 25 -24 21 2 0.68937698D-02 0.46702276D-01 0.12517435D+05 0.12517435D+05 0.12517435D+05 0.12568810D+01  1  2  5  2  5  2       -2 -.183576101498D+01 0.100000000000D+01
0.302195812630D-02 0.000000000000D+00 0.330920518460D-03 0.295821902249D-02 0.000000000000D+00  5 1 -2 25 -24 21 2 0.68937698D-02 0.43019090D-01 0.12517435D+05 0.12517435D+05 0.12517435D+05 0.12568810D+01  1  2  6  2  5  2       -2 0.216367495864D+01 0.100000000000D+01
0.463441431237D-03 0.000000000000D+00 0.000000000000D+00 0.295821902249D-02 0.733332136430D-03  5 1 -2 25 -24 21 2 0.69556432D-02 0.46407064D-01 0.13186471D+05 0.13186471D+05 0.13186471D+05 0.12542533D+01  1  2 11  2  5  2       -2 0.282695483114D+00 0.100000000000D+01
0.160152793149D-04 0.000000000000D+00 0.000000000000D+00 0.295821902249D-02 0.000000000000D+00  5 1 21 25 -24 2 2 0.68937698D-02 0.46590900D-01 0.13186471D+05 0.13186471D+05 0.13186471D+05 0.12542533D+01  1  2 12  4  5  2       -2 0.124112038701D+00 0.100000000000D+01
-.403190901010D-04 0.000000000000D+00 -.454052098067D-05 0.295821902249D-02 0.000000000000D+00  5 1 21 25 -24 2 2 0.68937698D-02 0.46702276D-01 0.12517435D+05 0.12517435D+05 0.12517435D+05 0.12568810D+01  1  2  5  4  5  2       -2 -.312037820238D+00 0.100000000000D+01
0.618055937206D-05 0.000000000000D+00 0.000000000000D+00 0.295821902249D-02 0.940004133396D-05  5 1 21 25 -24 2 2 0.69556432D-02 0.46407064D-01 0.13186471D+05 0.13186471D+05 0.13186471D+05 0.12542533D+01  1  2 11  4  5  2       -2 0.477076812137D-01 0.100000000000D+01
  </mgrwgt>
  </event>
  <event>
  5     66 0.47139866E-03 0.10589293E+03 0.75467711E-02 0.12589951E+00
       21 -1    0    0  501  502 0.00000000E+00 0.00000000E+00 0.70615826E+03 0.70615865E+03 0.75000000E+00 0.0000E+00 0.9000E+01
       -2 -1    0    0    0  501 0.00000000E+00 0.00000000E+00 -.52038914E+02 0.52039898E+02 0.32000000E+00 0.0000E+00 0.9000E+01
       25  1    1    2    0    0 0.10788205E+02 -.19718377E+02 0.65048824E+03 0.66277081E+03 0.12500000E+03 0.0000E+00 0.9000E+01
      -24  1    1    2    0    0 -.54014203E+01 0.27568139E+02 0.66275281E+01 0.85441897E+02 0.80419002E+02 0.0000E+00 0.9000E+01
       -1  1    1    2    0  502 -.53867848E+01 -.78497614E+01 -.29964223E+01 0.99858475E+01 0.32000000E+00 0.0000E+00 0.9000E+01
#aMCatNLO 2  0  0  1  1 0.95203048D+01 0.00000000D+00  -5  5  0 0.00000000D+00 0.00000000D+00 0.00000000D+00 0.00000000D+00 0.00000000D+00
  <mgrwgt>
 0.6538677263D-02    1    2    0
 0.178836859207192D+03 0.000000000000000D+00 0.000000000000000D+00 0.178836859207192D+03
 0.178836859207192D+03 0.000000000000000D+00 0.000000000000000D+00 -.178836859207192D+03
 0.191638728025269D+03 0.790506480025411D+01 -.239197634457636D+02 0.143058578723352D+03
 0.166034990389115D+03 -.790506480025411D+01 0.239197634457636D+02 -.143058578723352D+03
 0.000000000000000D+00 -.000000000000000D+00 -.000000000000000D+00 -.000000000000000D+00
 0.179788996535722D+03 0.000000000000000D+00 0.000000000000000D+00 0.179788996535722D+03
 0.204394256440227D+03 0.000000000000000D+00 0.000000000000000D+00 -.204394256440227D+03
 0.191300697112660D+03 0.107882051200525D+02 -.197183772083784D+02 0.143058578723352D+03
 0.166499701221981D+03 -.540142032235701D+01 0.275681385805119D+02 -.143058578723352D+03
 0.263828546413073D+02 -.538678479769546D+01 -.784976137213353D+01 -.246052599045047D+02
0.814626518372D-05 0.000000000000D+00 0.000000000000D+00 0.892677624916D-03 0.904622024543D-07  5 21 -2 25 -24 -1 2 0.10863925D+00 0.80060502D-02 0.12288775D+05 0.12288775D+05 0.12288775D+05 0.12578156D+01  1  2  1  3  5  1        1 0.653867726250D-02 0.100000000000D+01
  </mgrwgt>
  </event>
  <event>
  4     66 0.47139866E-03 0.11470152E+03 0.75467711E-02 0.12457802E+00
        1 -1    0    0  501    0 0.00000000E+00 0.00000000E+00 0.35736119E+03 0.35736133E+03 0.32000000E+00 0.0000E+00 0.9000E+01
       -2 -1    0    0    0  501 0.00000000E+00 0.00000000E+00 -.45100827E+02 0.45101962E+02 0.32000000E+00 0.0000E+00 0.9000E+01
       25  1    1    2    0    0 -.26373672E+02 -.42581243E+02 0.93127769E+02 0.16372695E+03 0.12500000E+03 0.0000E+00 0.9000E+01
      -24  1    1    2    0    0 0.26373672E+02 0.42581243E+02 0.21913259E+03 0.23873634E+03 0.80419002E+02 0.0000E+00 0.9000E+01
#aMCatNLO 1  0  0  1  1 0.71902534D+01 0.00000000D+00  -5  5  0 0.00000000D+00 0.00000000D+00 0.00000000D+00 0.00000000D+00 0.00000000D+00
  <mgrwgt>
 0.1381668700D+00    6    2    0
 0.126954883088991D+03 0.000000000000000D+00 0.000000000000000D+00 0.126954883088991D+03
 0.126954883088991D+03 0.000000000000000D+00 0.000000000000000D+00 -.126954883088991D+03
 0.144988423475165D+03 -.263736719156417D+02 -.425812427489783D+02 -.537392792792435D+02
 0.108921342702816D+03 0.263736719156417D+02 0.425812427489783D+02 0.537392792792435D+02
 0.000000000000000D+00 0.000000000000000D+00 -.000000000000000D+00 -.000000000000000D+00
 0.127911888133506D+03 0.000000000000000D+00 0.000000000000000D+00 0.127911888133506D+03
 0.141269953601780D+03 0.000000000000000D+00 0.000000000000000D+00 -.141269953601780D+03
 0.144055272994599D+03 -.273559359502769D+02 -.386091220876644D+02 -.537392792792435D+02
 0.109956280098912D+03 0.256298549098034D+02 0.455891212754729D+02 0.537392792792435D+02
 0.151702886417754D+02 0.172608104047353D+01 -.697999918780852D+01 -.133580654682738D+02
0.289308922307D-03 0.000000000000D+00 0.000000000000D+00 0.224518657879D-02 0.000000000000D+00  5 1 -2 25 -24 21 0 0.54978743D-01 0.69386871D-02 0.13156438D+05 0.13156438D+05 0.13156438D+05 0.12543680D+01  1  2  2  1  5  1        1 0.198374955892D+00 0.100000000000D+01
-.158713963393D-04 0.000000000000D+00 -.111102243845D-05 0.224518657879D-02 0.000000000000D+00  5 1 -2 25 -24 21 2 0.54978743D-01 0.69386871D-02 0.13156438D+05 0.13156438D+05 0.13156438D+05 0.12543680D+01  1  2  3  1  5  1        1 -.171234026960D-01 0.100000000000D+01
0.199923657394D-04 0.000000000000D+00 0.000000000000D+00 0.224518657879D-02 0.000000000000D+00  5 1 -2 25 -24 21 2 0.54978743D-01 0.69386871D-02 0.13156438D+05 0.13156438D+05 0.13156438D+05 0.12543680D+01  1  2 15  1  5  1        1 0.215694524970D-01 0.100000000000D+01
-.620296770163D-04 0.000000000000D+00 0.000000000000D+00 0.224518657879D-02 0.000000000000D+00  5 1 -2 25 -24 21 2 0.54978743D-01 0.69386871D-02 0.13156438D+05 0.13156438D+05 0.13156438D+05 0.12543680D+01  1  2  4  1  5  1        1 -.669228539155D-01 0.100000000000D+01
0.188113952704D-05 0.000000000000D+00 0.000000000000D+00 0.224518657879D-02 0.364453533819D-03  5 1 -2 25 -24 21 2 0.55393181D-01 0.77210737D-02 0.14015730D+05 0.14015730D+05 0.14015730D+05 0.12511968D+01  1  2 11  1  5  1        1 0.170259222021D-02 0.100000000000D+01
0.151222904522D-06 0.000000000000D+00 0.000000000000D+00 0.224518657879D-02 0.534506737594D-06  5 21 -2 25 -24 -1 2 0.55393181D-01 0.77210737D-02 0.14015730D+05 0.14015730D+05 0.14015730D+05 0.12511968D+01  1  2 11  3  5  1        1 0.566125989167D-03 0.100000000000D+01
  </mgrwgt>
  </event>
  <event>
  4     66 0.47139866E-03 0.11187643E+03 0.75467711E-02 0.12083421E+00
        1 -1    0    0  501    0 0.00000000E+00 0.00000000E+00 0.25295774E+03 0.25295795E+03 0.32000000E+00 0.0000E+00 0.9000E+01
       -2 -1    0    0    0  501 0.00000000E+00 0.00000000E+00 -.54931440E+02 0.54932372E+02 0.32000000E+00 0.0000E+00 0.9000E+01
       25  1    1    2    0    0 -.28375046E+02 0.32922074E+02 0.16308987E+03 0.21002931E+03 0.12500000E+03 0.0000E+00 0.9000E+01
      -24  1    1    2    0    0 0.28375046E+02 -.32922074E+02 0.34936431E+02 0.97861005E+02 0.80419002E+02 0.0000E+00 0.9000E+01
#aMCatNLO 1  0  0  1  1 0.56908198D+02 0.00000000D+00  -5  5  0 0.00000000D+00 0.00000000D+00 0.00000000D+00 0.00000000D+00 0.00000000D+00
  <mgrwgt>
 0.1361086568D+00    4    2    0
 0.117879208910751D+03 0.000000000000000D+00 0.000000000000000D+00 0.117879208910751D+03
 0.117879208910751D+03 0.000000000000000D+00 0.000000000000000D+00 -.117879208910751D+03
 0.137301175112957D+03 -.283750458864681D+02 0.329220736615575D+02 0.365733034351932D+02
 0.984572427085455D+02 0.283750458864681D+02 -.329220736615575D+02 -.365733034351932D+02
 0.000000000000000D+00 0.000000000000000D+00 0.000000000000000D+00 -.000000000000000D+00
 0.140335026888968D+03 0.000000000000000D+00 0.000000000000000D+00 0.140335026888968D+03
 0.163720178356562D+03 0.000000000000000D+00 0.000000000000000D+00 -.163720178356562D+03
 0.146875621745344D+03 -.618335353881917D+02 0.280438164363551D+02 0.365733034351932D+02
 0.956539116371556D+02 0.552073092604754D+01 -.362542392417454D+02 -.365733034351932D+02
 0.615256718630300D+02 0.563128044621442D+02 0.821042280539031D+01 -.233851514675935D+02
0.273400299859D-03 0.000000000000D+00 0.000000000000D+00 0.259128082001D-02 0.000000000000D+00  5 1 -2 25 -24 21 0 0.38916663D-01 0.84510781D-02 0.12516336D+05 0.12516336D+05 0.12516336D+05 0.12568855D+01  1  2  2  1  5  1        1 0.211721958362D+00 0.100000000000D+01
-.151384583014D-04 0.000000000000D+00 -.104992913941D-05 0.259128082001D-02 0.000000000000D+00  5 1 -2 25 -24 21 2 0.38916663D-01 0.84510781D-02 0.12516336D+05 0.12516336D+05 0.12516336D+05 0.12568855D+01  1  2  3  1  5  1        1 -.185199572972D-01 0.100000000000D+01
0.189252500128D-04 0.000000000000D+00 0.000000000000D+00 0.259128082001D-02 0.000000000000D+00  5 1 -2 25 -24 21 2 0.38916663D-01 0.84510781D-02 0.12516336D+05 0.12516336D+05 0.12516336D+05 0.12568855D+01  1  2 15  1  5  1        1 0.231526100676D-01 0.100000000000D+01
-.655941055132D-04 0.000000000000D+00 0.000000000000D+00 0.259128082001D-02 0.000000000000D+00  5 1 -2 25 -24 21 2 0.38916663D-01 0.84510781D-02 0.12516336D+05 0.12516336D+05 0.12516336D+05 0.12568855D+01  1  2  4  1  5  1        1 -.802459543020D-01 0.100000000000D+01
  </mgrwgt>
  </event>
  <event>
  5     66 -.47139866E-03 0.19709471E+03 0.75467711E-02 0.11479753E+00
        1 -1    0    0  502    0 0.00000000E+00 0.00000000E+00 0.67428508E+03 0.67428516E+03 0.32000000E+00 0.0000E+00 0.9000E+01
       -2 -1    0    0    0  501 0.00000000E+00 0.00000000E+00 -.75648278E+02 0.75648955E+02 0.32000000E+00 0.0000E+00 0.9000E+01
       25  1    1    2    0    0 -.48373321E+02 0.16360952E+03 0.47659549E+03 0.52141760E+03 0.12500000E+03 0.0000E+00 0.9000E+01
      -24  1    1    2    0    0 0.53569036E+02 -.15510279E+03 0.11190963E+03 0.21428369E+03 0.80419002E+02 0.0000E+00 0.9000E+01
       21  1    1    2  502  501 -.51957153E+01 -.85067282E+01 0.10131685E+02 0.14232829E+02 0.75000000E+00 0.0000E+00 0.9000E+01
#aMCatNLO 2  0  0  1  2 0.99679428D+01 0.00000000D+00  -5  5  0 0.00000000D+00 0.00000000D+00 0.00000000D+00 0.00000000D+00 0.00000000D+00
  <mgrwgt>
 -.1855880283D+00    3    2    0
 0.220691382228503D+03 0.000000000000000D+00 0.000000000000000D+00 0.220691382228503D+03
 0.220691382228503D+03 0.000000000000000D+00 0.000000000000000D+00 -.220691382228503D+03
 0.231065353283870D+03 -.511078036874233D+02 0.159132462796298D+03 0.991516473631791D+02
 0.210317411173136D+03 0.511078036874233D+02 -.159132462796298D+03 -.991516473631791D+02
 0.000000000000000D+00 -.000000000000000D+00 -.000000000000000D+00 -.000000000000000D+00
 0.224795523827635D+03 0.000000000000000D+00 0.000000000000000D+00 0.224795523827635D+03
 0.226884204388384D+03 0.000000000000000D+00 0.000000000000000D+00 -.226884204388384D+03
 0.233589600717991D+03 -.483733209139848D+02 0.163609517487557D+03 0.991516473631791D+02
 0.207905704627855D+03 0.535690362552934D+02 -.155102789279501D+03 -.991516473631791D+02
 0.101844228701725D+02 -.519571534130862D+01 -.850672820805561D+01 -.208868056074956D+01
-.202471358588D-02 0.000000000000D+00 0.000000000000D+00 0.170275955063D-02 0.000000000000D+00  5 1 -2 25 -24 21 2 0.10512609D+00 0.11319896D-01 0.40846302D+05 0.40846302D+05 0.40846302D+05 0.12010780D+01  1  2 13  1  5  1        1 -.406239756290D+00 0.100000000000D+01
-.189192693229D-02 0.000000000000D+00 0.000000000000D+00 0.170275955063D-02 0.000000000000D+00  5 1 -2 25 -24 21 2 0.10183607D+00 0.11319896D-01 0.38846326D+05 0.38846326D+05 0.38846326D+05 0.12032931D+01  1  2  8  1  5  1        1 -.398609426969D+00 0.100000000000D+01
0.316527475784D-02 0.000000000000D+00 0.000000000000D+00 0.170275955063D-02 0.131905859240D-03  5 1 -2 25 -24 21 2 0.10372989D+00 0.11637543D-01 0.40846302D+05 0.40846302D+05 0.40846302D+05 0.12010780D+01  1  2  1  1  5  1        1 0.619261154974D+00 0.100000000000D+01
  </mgrwgt>
  </event>
  <event>
  4     66 0.47139866E-03 0.76195876E+02 0.75467711E-02 0.11982577E+00
        1 -1    0    0  501    0 0.00000000E+00 0.00000000E+00 0.74534781E+03 0.74534788E+03 0.32000000E+00 0.0000E+00 0.9000E+01
       -2 -1    0    0    0  501 0.00000000E+00 0.00000000E+00 -.30449849E+02 0.30451531E+02 0.32000000E+00 0.0000E+00 0.9000E+01
       25  1    1    2    0    0 -.51627027E+02 -.80801682E+02 0.52697255E+03 0.55001758E+03 0.12500000E+03 0.0000E+00 0.9000E+01
      -24  1    1    2    0    0 0.51627027E+02 0.80801682E+02 0.18792540E+03 0.22578183E+03 0.80419002E+02 0.0000E+00 0.9000E+01
#aMCatNLO 1  0  0  2  1 0.20335298D+02 0.00000000D+00  -5  5  0 0.00000000D+00 0.00000000D+00 0.00000000D+00 0.00000000D+00 0.00000000D+00
  <mgrwgt>
 0.1617958967D+00    9    2    0
 0.150653269033887D+03 0.000000000000000D+00 0.000000000000000D+00 0.150653269033887D+03
 0.150653269033887D+03 0.000000000000000D+00 0.000000000000000D+00 -.150653269033887D+03
 0.165850058496798D+03 -.516270268886880D+02 -.808016819868003D+02 0.518360896107152D+02
 0.135456479570975D+03 0.516270268886880D+02 0.808016819868003D+02 -.518360896107152D+02
 0.000000000000000D+00 -.000000000000000D+00 0.000000000000000D+00 -.000000000000000D+00
 0.155558123002747D+03 0.000000000000000D+00 0.000000000000000D+00 0.155558123002747D+03
 0.173656673492635D+03 0.000000000000000D+00 0.000000000000000D+00 -.173656673492635D+03
 0.169803426486498D+03 -.470471387652188D+02 -.911470800104512D+02 0.518360896107152D+02
 0.132188550637223D+03 0.552789606537048D+02 0.725524175208178D+02 -.518360896107152D+02
 0.272228193716624D+02 -.823182188848601D+01 0.185946624896335D+02 -.180985504898877D+02
0.384659888415D-03 0.000000000000D+00 0.000000000000D+00 0.214381552520D-02 0.000000000000D+00  5 1 -2 25 -24 21 0 0.11466903D+00 0.46847269D-02 0.19978003D+05 0.19978003D+05 0.19978003D+05 0.12338787D+01  1  2  2  2  5  2       -2 0.182560786375D+00 0.100000000000D+01
-.212642740998D-04 0.000000000000D+00 -.147719525479D-05 0.214381552520D-02 0.000000000000D+00  5 1 -2 25 -24 21 2 0.11466903D+00 0.46847269D-02 0.19978003D+05 0.19978003D+05 0.19978003D+05 0.12338787D+01  1  2  3  2  5  2       -2 -.153647701355D-01 0.100000000000D+01
0.265312864418D-04 0.000000000000D+00 0.000000000000D+00 0.214381552520D-02 0.000000000000D+00  5 1 -2 25 -24 21 2 0.11466903D+00 0.46847269D-02 0.19978003D+05 0.19978003D+05 0.19978003D+05 0.12338787D+01  1  2 15  2  5  2       -2 0.191705165040D-01 0.100000000000D+01
0.852635949137D-03 0.000000000000D+00 0.000000000000D+00 0.214381552520D-02 0.000000000000D+00  5 1 -2 25 -24 21 2 0.11466903D+00 0.54683445D-02 0.23048456D+05 0.23048456D+05 0.23048456D+05 0.12271002D+01  1  2 12  2  5  2       -2 0.484192514560D+00 0.100000000000D+01
-.863420321958D-03 0.000000000000D+00 0.000000000000D+00 0.214381552520D-02 0.000000000000D+00  5 1 -2 25 -24 21 2 0.11466903D+00 0.46847269D-02 0.19978003D+05 0.19978003D+05 0.19978003D+05 0.12338787D+01  1  2  4  2  5  2       -2 -.623875271497D+00 0.100000000000D+01
-.156539820630D-02 0.000000000000D+00 -.290636912198D-03 0.214381552520D-02 0.000000000000D+00  5 1 -2 25 -24 21 2 0.11466903D+00 0.55740535D-02 0.19978003D+05 0.19978003D+05 0.19978003D+05 0.12338787D+01  1  2  5  2  5  2       -2 -.870790562385D+00 0.100000000000D+01
0.159608010023D-02 0.000000000000D+00 0.286301200477D-03 0.214381552520D-02 0.000000000000D+00  5 1 -2 25 -24 21 2 0.11466903D+00 0.46847269D-02 0.19978003D+05 0.19978003D+05 0.19978003D+05 0.12338787D+01  1  2  6  2  5  2       -2 0.115326785870D+01 0.100000000000D+01
0.199366434548D-04 0.000000000000D+00 0.000000000000D+00 0.214381552520D-02 0.000000000000D+00  5 1 21 25 -24 2 2 0.11466903D+00 0.54683445D-02 0.23048456D+05 0.23048456D+05 0.23048456D+05 0.12271002D+01  1  2 12  4  5  2       -2 0.198667159120D+00 0.100000000000D+01
-.375460127729D-04 0.000000000000D+00 -.745767096567D-05 0.214381552520D-02 0.000000000000D+00  5 1 21 25 -24 2 2 0.11466903D+00 0.55740535D-02 0.19978003D+05 0.19978003D+05 0.19978003D+05 0.12338787D+01  1  2  5  4  5  2       -2 -.366032334504D+00 0.100000000000D+01
  </mgrwgt>
  </event>
  <event>
  5     66 -.47139866E-03 0.25197262E+03 0.75467711E-02 0.11102051E+00
        1 -1    0    0  501    0 0.00000000E+00 0.00000000E+00 0.27104153E+03 0.27104172E+03 0.32000000E+00 0.0000E+00 0.9000E+01
       -2 -1    0    0    0  502 0.00000000E+00 0.00000000E+00 -.27085335E+03 0.27085354E+03 0.32000000E+00 0.0000E+00 0.9000E+01
       25  1    1    2    0    0 -.22887797E+03 0.12859786E+02 -.86562081E+02 0.27507906E+03 0.12500000E+03 0.0000E+00 0.9000E+01
      -24  1    1    2    0    0 0.22907143E+03 -.69081155E+01 0.91105129E+02 0.25940086E+03 0.80419002E+02 0.0000E+00 0.9000E+01
       21  1    1    2  501  502 -.19346767E+00 -.59516708E+01 -.43548659E+01 0.74153336E+01 0.75000000E+00 0.0000E+00 0.9000E+01
#aMCatNLO 2  0  0  2  1 0.59548144D+01 0.00000000D+00  -5  5  0 0.00000000D+00 0.00000000D+00 0.00000000D+00 0.00000000D+00 0.00000000D+00
  <mgrwgt>
 -.8238797173D-01    3    2    0
 0.267213718398930D+03 0.000000000000000D+00 0.000000000000000D+00 0.267213718398930D+03
 0.267213718398930D+03 0.000000000000000D+00 0.000000000000000D+00 -.267213718398930D+03
 0.275781564485295D+03 -.228977805932468D+03 0.978838936556827D+01 -.889034483804669D+02
 0.258645872312565D+03 0.228977805932468D+03 -.978838936556827D+01 0.889034483804669D+02
 0.000000000000000D+00 -.000000000000000D+00 -.000000000000000D+00 -.000000000000000D+00
 0.268728732792572D+03 0.000000000000000D+00 0.000000000000000D+00 0.268728732792572D+03
 0.273146478295848D+03 0.000000000000000D+00 0.000000000000000D+00 -.273146478295848D+03
 0.275824800251754D+03 -.228877965728480D+03 0.128597863113727D+02 -.889034483804669D+02
 0.258635811035192D+03 0.229071433403226D+03 -.690811552552250D+01 0.889034483804669D+02
 0.741459980147474D+01 -.193467674745836D+00 -.595167078585018D+01 -.441774550327598D+01
-.327112733989D-02 0.000000000000D+00 0.000000000000D+00 0.182037297549D-02 0.000000000000D+00  5 1 -2 25 -24 21 2 0.41460732D-01 0.41780765D-01 0.65008427D+05 0.65008427D+05 0.65008427D+05 0.11811540D+01  1  2 13  2  5  2       -2 -.221322848895D+00 0.100000000000D+01
-.233756913861D-01 0.000000000000D+00 0.000000000000D+00 0.182037297549D-02 0.000000000000D+00  5 1 -2 25 -24 21 2 0.41460732D-01 0.40761844D-01 0.63490199D+05 0.63490199D+05 0.63490199D+05 0.11821427D+01  1  2  8  2  5  2       -2 -.166139201579D+01 0.100000000000D+01
0.266578009140D-01 0.000000000000D+00 0.000000000000D+00 0.182037297549D-02 0.382080063687D-03  5 1 -2 25 -24 21 2 0.41695800D-01 0.41666851D-01 0.65008427D+05 0.65008427D+05 0.65008427D+05 0.11811540D+01  1  2  1  2  5  2       -2 0.180032689296D+01 0.100000000000D+01
  </mgrwgt>
  </event>
  <event>
  4     66 0.47139866E-03 0.19822041E+03 0.75467711E-02 0.11210421E+00
        1 -1    0    0  501    0 0.00000000E+00 0.00000000E+00 0.67885337E+03 0.67885344E+03 0.32000000E+00 0.0000E+00 0.9000E+01
       -2 -1    0    0    0  501 0.00000000E+00 0.00000000E+00 -.59072204E+02 0.59073071E+02 0.32000000E+00 0.0000E+00 0.9000E+01
       25  1    1    2    0    0 0.16840013E+03 -.44746450E+01 0.27521980E+03 0.34604850E+03 0.12500000E+03 0.0000E+00 0.9000E+01
      -24  1    1    2    0    0 -.16840013E+03 0.44746450E+01 0.34456136E+03 0.39187801E+03 0.80419002E+02 0.0000E+00 0.9000E+01
#aMCatNLO 1  0  0  1  1 0.73224444D+02 0.00000000D+00  -5  5  0 0.00000000D+00 0.00000000D+00 0.00000000D+00 0.00000000D+00 0.00000000D+00
  <mgrwgt>
 0.2631118791D+00    4    2    0
 0.200254119637919D+03 0.000000000000000D+00 0.000000000000000D+00 0.200254119637919D+03
 0.200254119637919D+03 0.000000000000000D+00 0.000000000000000D+00 -.200254119637919D+03
 0.211686823322352D+03 0.168400133410334D+03 -.447464504037844D+01 -.284197781035163D+02
 0.188821415953486D+03 -.168400133410334D+03 0.447464504037844D+01 0.284197781035163D+02
 0.000000000000000D+00 -.000000000000000D+00 0.000000000000000D+00 -.000000000000000D+00
 0.218127211458678D+03 0.000000000000000D+00 0.000000000000000D+00 0.218127211458678D+03
 0.295677434612990D+03 0.000000000000000D+00 0.000000000000000D+00 -.295677434612990D+03
 0.237407050950105D+03 0.197003635753810D+03 -.334513311118259D+02 -.284197781035163D+02
 0.169739935886427D+03 -.145562791252756D+03 -.186606509964488D+02 0.284197781035163D+02
 0.106657659235136D+03 -.514408445010537D+02 0.521119821082747D+02 -.775502231543126D+02
0.158448371566D-02 0.000000000000D+00 0.000000000000D+00 0.212163127739D-02 0.000000000000D+00  5 1 -2 25 -24 21 0 0.10443905D+00 0.90881039D-02 0.39291333D+05 0.39291333D+05 0.39291333D+05 0.12027894D+01  1  2  2  1  5  1        1 0.315177249346D+00 0.100000000000D+01
-.880157214449D-04 0.000000000000D+00 -.608483467227D-05 0.212163127739D-02 0.000000000000D+00  5 1 -2 25 -24 21 2 0.10443905D+00 0.90881039D-02 0.39291333D+05 0.39291333D+05 0.39291333D+05 0.12027894D+01  1  2  3  1  5  1        1 -.253283283063D-01 0.100000000000D+01
0.109057326403D-03 0.000000000000D+00 0.000000000000D+00 0.212163127739D-02 0.000000000000D+00  5 1 -2 25 -24 21 2 0.10443905D+00 0.90881039D-02 0.39291333D+05 0.39291333D+05 0.39291333D+05 0.12027894D+01  1  2 15  1  5  1        1 0.313834815190D-01 0.100000000000D+01
-.201968315443D-03 0.000000000000D+00 0.000000000000D+00 0.212163127739D-02 0.000000000000D+00  5 1 -2 25 -24 21 2 0.10443905D+00 0.90881039D-02 0.39291333D+05 0.39291333D+05 0.39291333D+05 0.12027894D+01  1  2  4  1  5  1        1 -.581205234363D-01 0.100000000000D+01
  </mgrwgt>
  </event>
  <event>
  4     66 0.47139866E-03 0.45800275E+02 0.75467711E-02 0.12125536E+00
        1 -1    0    0  501    0 0.00000000E+00 0.00000000E+00 0.18195769E+03 0.18195797E+03 0.32000000E+00 0.0000E+00 0.9000E+01
       -2 -1    0    0    0  501 0.00000000E+00 0.00000000E+00 -.99492615E+02 0.99493129E+02 0.32000000E+00 0.0000E+00 0.9000E+01
       25  1    1    2    0    0 -.76856001E+02 -.28100500E+02 0.73122585E+02 0.16633820E+03 0.12500000E+03 0.0000E+00 0.9000E+01
      -24  1    1    2    0    0 0.76856001E+02 0.28100500E+02 0.93424913E+01 0.11511291E+03 0.80419002E+02 0.0000E+00 0.9000E+01
#aMCatNLO 1  0  0  2  1 0.16526898D+02 0.00000000D+00  -5  5  0 0.00000000D+00 0.00000000D+00 0.00000000D+00 0.00000000D+00 0.00000000D+00
  <mgrwgt>
 0.1392153087D+00    9    2    0
 0.134549464708151D+03 0.000000000000000D+00 0.000000000000000D+00 0.134549464708151D+03
 0.134549464708151D+03 0.000000000000000D+00 0.000000000000000D+00 -.134549464708151D+03
 0.151565110339840D+03 -.768560010082008D+02 -.281004997355222D+02 0.255048955294698D+02
 0.117533819076461D+03 0.768560010082008D+02 0.281004997355222D+02 -.255048955294698D+02
 0.000000000000000D+00 0.000000000000000D+00 0.000000000000000D+00 -.000000000000000D+00
 0.138076934371945D+03 0.000000000000000D+00 0.000000000000000D+00 0.138076934371945D+03
 0.155659884753208D+03 0.000000000000000D+00 0.000000000000000D+00 -.155659884753208D+03
 0.154178522349900D+03 -.780817537011994D+02 -.373999571787803D+02 0.255048955294698D+02
 0.115427434864419D+03 0.759220391726909D+02 0.210147813907361D+02 -.255048955294698D+02
 0.241308619108341D+02 0.215971452850849D+01 0.163851757880442D+02 -.175829503812638D+02
0.277792896081D-03 0.000000000000D+00 0.000000000000D+00 0.247989040174D-02 0.000000000000D+00  5 1 -2 25 -24 21 0 0.27993552D-01 0.15306617D-01 0.17442078D+05 0.17442078D+05 0.17442078D+05 0.12404231D+01  1  2  2  2  5  2       -2 0.127474131732D+00 0.100000000000D+01
-.154264390016D-04 0.000000000000D+00 -.106679786550D-05 0.247989040174D-02 0.000000000000D+00  5 1 -2 25 -24 21 2 0.27993552D-01 0.15306617D-01 0.17442078D+05 0.17442078D+05 0.17442078D+05 0.12404231D+01  1  2  3  2  5  2       -2 -.108919669577D-01 0.100000000000D+01
0.192076313159D-04 0.000000000000D+00 0.000000000000D+00 0.247989040174D-02 0.000000000000D+00  5 1 -2 25 -24 21 2 0.27993552D-01 0.15306617D-01 0.17442078D+05 0.17442078D+05 0.17442078D+05 0.12404231D+01  1  2 15  2  5  2       -2 0.135617095823D-01 0.100000000000D+01
0.753319925375D-03 0.000000000000D+00 0.000000000000D+00 0.247989040174D-02 0.000000000000D+00  5 1 -2 25 -24 21 2 0.27993552D-01 0.17887759D-01 0.19762119D+05 0.19762119D+05 0.19762119D+05 0.12343985D+01  1  2 12  2  5  2       -2 0.408631178087D+00 0.100000000000D+01
-.764580543026D-03 0.000000000000D+00 0.000000000000D+00 0.247989040174D-02 0.000000000000D+00  5 1 -2 25 -24 21 2 0.27993552D-01 0.15306617D-01 0.17442078D+05 0.17442078D+05 0.17442078D+05 0.12404231D+01  1  2  4  2  5  2       -2 -.539838520755D+00 0.100000000000D+01
-.130595756581D-02 0.000000000000D+00 -.212893777976D-03 0.247989040174D-02 0.000000000000D+00  5 1 -2 25 -24 21 2 0.27993552D-01 0.18124890D-01 0.17442078D+05 0.17442078D+05 0.17442078D+05 0.12404231D+01  1  2  5  2  5  2       -2 -.697406790833D+00 0.100000000000D+01
0.132596060896D-02 0.000000000000D+00 0.209889280932D-03 0.247989040174D-02 0.000000000000D+00  5 1 -2 25 -24 21 2 0.27993552D-01 0.15306617D-01 0.17442078D+05 0.17442078D+05 0.17442078D+05 0.12404231D+01  1  2  6  2  5  2       -2 0.936205636215D+00 0.100000000000D+01
0.177208771310D-04 0.000000000000D+00 0.000000000000D+00 0.247989040174D-02 0.000000000000D+00  5 1 21 25 -24 2 2 0.27993552D-01 0.17887759D-01 0.19762119D+05 0.19762119D+05 0.19762119D+05 0.12343985D+01  1  2 12  4  5  2       -2 0.136911254660D+00 0.100000000000D+01
-.309478070604D-04 0.000000000000D+00 -.534295900848D-05 0.247989040174D-02 0.000000000000D+00  5 1 21 25 -24 2 2 0.27993552D-01 0.18124890D-01 0.17442078D+05 0.17442078D+05 0.17442078D+05 0.12404231D+01  1  2  5  4  5  2       -2 -.235431323061D+00 0.100000000000D+01
  </mgrwgt>
  </event>
  <event>
  4     66 0.47139866E-03 0.22036828E+03 0.75467711E-02 0.10589540E+00
        1 -1    0    0  501    0 0.00000000E+00 0.00000000E+00 0.42319779E+03 0.42319791E+03 0.32000000E+00 0.0000E+00 0.9000E+01
       -2 -1    0    0    0  501 0.00000000E+00 0.00000000E+00 -.11477257E+03 0.11477301E+03 0.32000000E+00 0.0000E+00 0.9000E+01
       25  1    1    2    0    0 0.11014793E+03 0.15966039E+03 0.15772970E+03 0.27951327E+03 0.12500000E+03 0.0000E+00 0.9000E+01
      -24  1    1    2    0    0 -.11014793E+03 -.15966039E+03 0.15069552E+03 0.25845766E+03 0.80419002E+02 0.0000E+00 0.9000E+01
#aMCatNLO 1  0  0  1  1 0.22382425D+03 0.00000000D+00  -5  5  0 0.00000000D+00 0.00000000D+00 0.00000000D+00 0.00000000D+00 0.00000000D+00
  <mgrwgt>
 0.2824041978D+00    3    2    0
 0.220389768307324D+03 0.000000000000000D+00 0.000000000000000D+00 0.220389768307324D+03
 0.220389768307324D+03 0.000000000000000D+00 0.000000000000000D+00 -.220389768307324D+03
 0.230777936637420D+03 0.110147928860860D+03 0.159660391039708D+03 -.307397777083821D+01
 0.210001599977228D+03 -.110147928860860D+03 -.159660391039708D+03 0.307397777083821D+01
 0.000000000000000D+00 0.000000000000000D+00 0.000000000000000D+00 -.000000000000000D+00
 0.302588138511532D+03 0.000000000000000D+00 0.000000000000000D+00 0.302588138511532D+03
 0.473197289985726D+03 0.000000000000000D+00 0.000000000000000D+00 -.473197289985726D+03
 0.165645641143776D+03 0.844827629467506D+02 0.683131894693856D+02 -.307397777083821D+01
 0.328706353766673D+03 -.145024837770951D+03 -.283793936056401D+03 0.307397777083821D+01
 0.281433433586809D+03 0.605420748242005D+02 0.215480746587015D+03 -.170609151474193D+03
0.216058673252D-02 0.000000000000D+00 0.000000000000D+00 0.211259565475D-02 0.000000000000D+00  5 1 -2 25 -24 21 0 0.65107396D-01 0.17657362D-01 0.48562180D+05 0.48562180D+05 0.48562180D+05 0.11935388D+01  1  2  2  1  5  1        1 0.277145096043D+00 0.100000000000D+01
-.120032594864D-03 0.000000000000D+00 -.829722194843D-05 0.211259565475D-02 0.000000000000D+00  5 1 -2 25 -24 21 2 0.65107396D-01 0.17657362D-01 0.48562180D+05 0.48562180D+05 0.48562180D+05 0.11935388D+01  1  2  3  1  5  1        1 -.219334903148D-01 0.100000000000D+01
0.148813405326D-03 0.000000000000D+00 0.000000000000D+00 0.211259565475D-02 0.000000000000D+00  5 1 -2 25 -24 21 2 0.65107396D-01 0.17657362D-01 0.48562180D+05 0.48562180D+05 0.48562180D+05 0.11935388D+01  1  2 15  1  5  1        1 0.271925920467D-01 0.100000000000D+01
  </mgrwgt>
  </event>
  <event>
  4     66 0.47139866E-03 0.20968757E+03 0.75467711E-02 0.10908540E+00
        1 -1    0    0  501    0 0.00000000E+00 0.00000000E+00 0.20563964E+04 0.20563965E+04 0.32000000E+00 0.0000E+00 0.9000E+01
       -2 -1    0    0    0  501 0.00000000E+00 0.00000000E+00 -.58722678E+02 0.58723550E+02 0.32000000E+00 0.0000E+00 0.9000E+01
       25  1    1    2    0    0 -.18173177E+03 0.16897615E+03 0.16857519E+04 0.17084975E+04 0.12500000E+03 0.0000E+00 0.9000E+01
      -24  1    1    2    0    0 0.18173177E+03 -.16897615E+03 0.31192186E+03 0.40662248E+03 0.80419002E+02 0.0000E+00 0.9000E+01
#aMCatNLO 1  0  0  1  2 0.37939415D+02 0.00000000D+00  -5  5  0 0.00000000D+00 0.00000000D+00 0.00000000D+00 0.00000000D+00 0.00000000D+00
  <mgrwgt>
 0.3214614174D+00    9    2    0
 0.347502596681193D+03 0.000000000000000D+00 0.000000000000000D+00 0.347502596681193D+03
 0.347502596681193D+03 0.000000000000000D+00 0.000000000000000D+00 -.347502596681193D+03
 0.354090881296251D+03 -.181731768206259D+03 0.168976147699741D+03 0.219490268919463D+03
 0.340914312066136D+03 0.181731768206259D+03 -.168976147699741D+03 -.219490268919463D+03
 0.000000000000000D+00 -.000000000000000D+00 -.000000000000000D+00 0.000000000000000D+00
 0.369976920330201D+03 0.000000000000000D+00 0.000000000000000D+00 0.369976920330201D+03
 0.364408861241314D+03 0.000000000000000D+00 0.000000000000000D+00 -.364408861241314D+03
 0.344852061376127D+03 -.162671400254540D+03 0.169292591758332D+03 0.219490268919463D+03
 0.351187892927864D+03 0.200605587343688D+03 -.168662800762048D+03 -.219490268919463D+03
 0.383458272675243D+02 -.379341870891479D+02 -.629790996283790D+00 0.556805908888670D+01
0.508607658098D-02 0.000000000000D+00 0.000000000000D+00 0.120234621405D-02 0.000000000000D+00  5 1 -2 25 -24 21 0 0.31636875D+00 0.90343272D-02 0.72553238D+05 0.72553238D+05 0.72553238D+05 0.11765933D+01  1  2  2  1  5  1        1 0.108349473330D+00 0.100000000000D+01
-.260266919324D-03 0.000000000000D+00 -.195318732657D-04 0.120234621405D-02 0.000000000000D+00  5 1 -2 25 -24 21 2 0.31636875D+00 0.90343272D-02 0.72553238D+05 0.72553238D+05 0.72553238D+05 0.11765933D+01  1  2  3  1  5  1        1 -.767565840512D-02 0.100000000000D+01
0.349714085964D-03 0.000000000000D+00 0.000000000000D+00 0.120234621405D-02 0.000000000000D+00  5 1 -2 25 -24 21 2 0.31636875D+00 0.90343272D-02 0.72553238D+05 0.72553238D+05 0.72553238D+05 0.11765933D+01  1  2 15  1  5  1        1 0.103135883358D-01 0.100000000000D+01
0.955505909335D-02 0.000000000000D+00 0.000000000000D+00 0.120234621405D-02 0.000000000000D+00  5 1 -2 25 -24 21 2 0.34409234D+00 0.90343272D-02 0.83541268D+05 0.83541268D+05 0.83541268D+05 0.11708149D+01  1  2 12  1  5  1        1 0.211881507132D+00 0.100000000000D+01
-.816643973451D-02 0.000000000000D+00 0.000000000000D+00 0.120234621405D-02 0.000000000000D+00  5 1 -2 25 -24 21 2 0.31636875D+00 0.90343272D-02 0.72553238D+05 0.72553238D+05 0.72553238D+05 0.11765933D+01  1  2  4  1  5  1        1 -.240840449301D+00 0.100000000000D+01
-.325923043840D-01 0.000000000000D+00 -.667226243829D-02 0.120234621405D-02 0.000000000000D+00  5 1 -2 25 -24 21 2 0.34441325D+00 0.90343272D-02 0.72553238D+05 0.72553238D+05 0.72553238D+05 0.11765933D+01  1  2  5  1  5  1        1 -.731036051614D+00 0.100000000000D+01
0.330636705656D-01 0.000000000000D+00 0.664826855427D-02 0.120234621405D-02 0.000000000000D+00  5 1 -2 25 -24 21 2 0.31636875D+00 0.90343272D-02 0.72553238D+05 0.72553238D+05 0.72553238D+05 0.11765933D+01  1  2  6  1  5  1        1 0.975096802699D+00 0.100000000000D+01
0.133266030784D-03 0.000000000000D+00 0.000000000000D+00 0.120234621405D-02 0.000000000000D+00  5 21 -2 25 -24 -1 2 0.34409234D+00 0.90343272D-02 0.83541268D+05 0.83541268D+05 0.83541268D+05 0.11708149D+01  1  2 12  3  5  1        1 0.193368538148D-02 0.100000000000D+01
-.442828953728D-03 0.000000000000D+00 -.939703258492D-04 0.120234621405D-02 0.000000000000D+00  5 21 -2 25 -24 -1 2 0.34441325D+00 0.90343272D-02 0.72553238D+05 0.72553238D+05 0.72553238D+05 0.11765933D+01  1  2  5  3  5  1        1 -.656148019241D-02 0.100000000000D+01
  </mgrwgt>
  </event>
  <event>
  4     66 0.47139866E-03 0.11120671E+03 0.75467711E-02 0.12367075E+00
        1 -1    0    0  501    0 0.00000000E+00 0.00000000E+00 0.76687141E+02 0.76687808E+02 0.32000000E+00 0.0000E+00 0.9000E+01
       -2 -1    0    0    0  501 0.00000000E+00 0.00000000E+00 -.16288764E+03 0.16288795E+03 0.32000000E+00 0.0000E+00 0.9000E+01
       25  1    1    2    0    0 0.35732297E+02 -.21630166E+02 -.62757332E+02 0.14597309E+03 0.12500000E+03 0.0000E+00 0.9000E+01
      -24  1    1    2    0    0 -.35732297E+02 0.21630166E+02 -.23443164E+02 0.93602666E+02 0.80419002E+02 0.0000E+00 0.9000E+01
#aMCatNLO 1  0  0  1  2 0.24207450D+02 0.00000000D+00  -5  5  0 0.00000000D+00 0.00000000D+00 0.00000000D+00 0.00000000D+00 0.00000000D+00
  <mgrwgt>
 0.1852263709D+00    4    2    0
 0.111765400209357D+03 0.000000000000000D+00 0.000000000000000D+00 0.111765400209357D+03
 0.111765400209357D+03 0.000000000000000D+00 0.000000000000000D+00 -.111765400209357D+03
 0.132249789896316D+03 0.357322972313972D+02 -.216301663597085D+02 -.109702217588354D+02
 0.912810105223981D+02 -.357322972313972D+02 0.216301663597085D+02 0.109702217588354D+02
 0.000000000000000D+00 -.000000000000000D+00 0.000000000000000D+00 -.000000000000000D+00
 0.114903172302628D+03 0.000000000000000D+00 0.000000000000000D+00 0.114903172302628D+03
 0.171389487081174D+03 0.000000000000000D+00 0.000000000000000D+00 -.171389487081174D+03
 0.137513579764187D+03 0.490090576240468D+02 -.276179493251421D+02 -.109702217588354D+02
 0.873241825324590D+02 -.269420068518822D+02 0.176657692146931D+02 0.109702217588354D+02
 0.614548970871572D+02 -.220670507721647D+02 0.995218011044901D+01 -.564863147785458D+02
0.335480413384D-03 0.000000000000D+00 0.000000000000D+00 0.294085882775D-02 0.000000000000D+00  5 1 -2 25 -24 21 0 0.11798097D-01 0.25059712D-01 0.12366932D+05 0.12366932D+05 0.12366932D+05 0.12574939D+01  1  2  2  1  5  1        1 0.199456226280D+00 0.100000000000D+01
-.186372316545D-04 0.000000000000D+00 -.128833312142D-05 0.294085882775D-02 0.000000000000D+00  5 1 -2 25 -24 21 2 0.11798097D-01 0.25059712D-01 0.12366932D+05 0.12366932D+05 0.12366932D+05 0.12574939D+01  1  2  3  1  5  1        1 -.175215949531D-01 0.100000000000D+01
0.232354991092D-04 0.000000000000D+00 0.000000000000D+00 0.294085882775D-02 0.000000000000D+00  5 1 -2 25 -24 21 2 0.11798097D-01 0.25059712D-01 0.12366932D+05 0.12366932D+05 0.12366932D+05 0.12574939D+01  1  2 15  1  5  1        1 0.218446071537D-01 0.100000000000D+01
-.197341675251D-04 0.000000000000D+00 0.000000000000D+00 0.294085882775D-02 0.000000000000D+00  5 1 -2 25 -24 21 2 0.11798097D-01 0.25059712D-01 0.12366932D+05 0.12366932D+05 0.12366932D+05 0.12574939D+01  1  2  4  1  5  1        1 -.185528675354D-01 0.100000000000D+01
  </mgrwgt>
  </event>
  <event>
  4     66 0.47139866E-03 0.74606841E+02 0.75467711E-02 0.12415336E+00
        1 -1    0    0  501    0 0.00000000E+00 0.00000000E+00 0.20695172E+03 0.20695197E+03 0.32000000E+00 0.0000E+00 0.9000E+01
       -2 -1    0    0    0  501 0.00000000E+00 0.00000000E+00 -.96528964E+02 0.96529495E+02 0.32000000E+00 0.0000E+00 0.9000E+01
       25  1    1    2    0    0 0.39934472E+02 -.45345428E+02 -.18385824E+02 0.14005002E+03 0.12500000E+03 0.0000E+00 0.9000E+01
      -24  1    1    2    0    0 -.39934472E+02 0.45345428E+02 0.12880858E+03 0.16343144E+03 0.80419002E+02 0.0000E+00 0.9000E+01
#aMCatNLO 1  0  0  1  2 0.24644533D+01 0.00000000D+00  -5  5  0 0.00000000D+00 0.00000000D+00 0.00000000D+00 0.00000000D+00 0.00000000D+00
  <mgrwgt>
 0.1691831254D+00   11    2    0
 0.141339851291212D+03 0.000000000000000D+00 0.000000000000000D+00 0.141339851291212D+03
 0.141339851291212D+03 0.000000000000000D+00 0.000000000000000D+00 -.141339851291212D+03
 0.157538014728431D+03 0.399344722387518D+02 -.453454282784274D+02 -.744463306404945D+02
 0.125141687853992D+03 -.399344722387518D+02 0.453454282784274D+02 0.744463306404945D+02
 0.000000000000000D+00 -.000000000000000D+00 -.000000000000000D+00 0.000000000000000D+00
 0.144105188334528D+03 0.000000000000000D+00 0.000000000000000D+00 0.144105188334528D+03
 0.141895368016162D+03 0.000000000000000D+00 0.000000000000000D+00 -.141895368016162D+03
 0.157533587228809D+03 0.409470117863764D+02 -.444175324068029D+02 -.744463306404945D+02
 0.125156857926967D+03 -.391300926160190D+02 0.460825654429990D+02 0.744463306404945D+02
 0.331011119491490D+01 -.181691917035733D+01 -.166503303619610D+01 0.220982031836631D+01
0.325814690636D-03 0.000000000000D+00 0.000000000000D+00 0.186423944242D-02 0.000000000000D+00  5 1 -2 25 -24 21 0 0.31838787D-01 0.14850670D-01 0.14331337D+05 0.14331337D+05 0.14331337D+05 0.12500866D+01  1  2  2  1  5  1        1 0.133060120753D+00 0.100000000000D+01
-.174938870977D-04 0.000000000000D+00 -.125121420102D-05 0.186423944242D-02 0.000000000000D+00  5 1 -2 25 -24 21 2 0.31838787D-01 0.14850670D-01 0.14331337D+05 0.14331337D+05 0.14331337D+05 0.12500866D+01  1  2  3  1  5  1        1 -.111646157284D-01 0.100000000000D+01
0.224152855004D-04 0.000000000000D+00 0.000000000000D+00 0.186423944242D-02 0.000000000000D+00  5 1 -2 25 -24 21 2 0.31838787D-01 0.14850670D-01 0.14331337D+05 0.14331337D+05 0.14331337D+05 0.12500866D+01  1  2 15  1  5  1        1 0.143054569666D-01 0.100000000000D+01
0.267998027578D-05 0.000000000000D+00 0.000000000000D+00 0.186423944242D-02 0.000000000000D+00  5 1 -2 25 -24 21 2 0.32523538D-01 0.14850670D-01 0.14629558D+05 0.14629558D+05 0.14629558D+05 0.12490625D+01  1  2 12  1  5  1        1 0.166426906029D-02 0.100000000000D+01
-.714398211147D-02 0.000000000000D+00 0.000000000000D+00 0.186423944242D-02 0.000000000000D+00  5 1 -2 25 -24 21 2 0.31838787D-01 0.14850670D-01 0.14331337D+05 0.14331337D+05 0.14331337D+05 0.12500866D+01  1  2  4  1  5  1        1 -.455929631875D+01 0.100000000000D+01
-.208694021682D-01 0.000000000000D+00 -.219248891247D-02 0.186423944242D-02 0.000000000000D+00  5 1 -2 25 -24 21 2 0.32568516D-01 0.14850670D-01 0.14331337D+05 0.14331337D+05 0.14331337D+05 0.12500866D+01  1  2  5  1  5  1        1 -.129510026551D+02 0.100000000000D+01
0.209142784636D-01 0.000000000000D+00 0.219192609771D-02 0.186423944242D-02 0.000000000000D+00  5 1 -2 25 -24 21 2 0.31838787D-01 0.14850670D-01 0.14331337D+05 0.14331337D+05 0.14331337D+05 0.12500866D+01  1  2  6  1  5  1        1 0.133475128185D+02 0.100000000000D+01
0.714285935166D-02 0.000000000000D+00 0.000000000000D+00 0.186423944242D-02 0.255460684472D-02  5 1 -2 25 -24 21 2 0.32461718D-01 0.14909038D-01 0.14629558D+05 0.14629558D+05 0.14629558D+05 0.12490625D+01  1  2 11  1  5  1        1 0.441786102975D+01 0.100000000000D+01
0.126078595008D-06 0.000000000000D+00 0.000000000000D+00 0.186423944242D-02 0.000000000000D+00  5 21 -2 25 -24 -1 2 0.32523538D-01 0.14850670D-01 0.14629558D+05 0.14629558D+05 0.14629558D+05 0.12490625D+01  1  2 12  3  5  1        1 0.489815930690D-03 0.100000000000D+01
-.853231368944D-04 0.000000000000D+00 -.900695183041D-05 0.186423944242D-02 0.000000000000D+00  5 21 -2 25 -24 -1 2 0.32568516D-01 0.14850670D-01 0.14331337D+05 0.14331337D+05 0.14331337D+05 0.12500866D+01  1  2  5  3  5  1        1 -.331068476795D+00 0.100000000000D+01
0.275699115993D-04 0.000000000000D+00 0.000000000000D+00 0.186423944242D-02 0.903712625875D-05  5 21 -2 25 -24 -1 2 0.32461718D-01 0.14909038D-01 0.14629558D+05 0.14629558D+05 0.14629558D+05 0.12490625D+01  1  2 11  3  5  1        1 0.106821680766D+00 0.100000000000D+01
  </mgrwgt>
  </event>
  <event>
  5     66 0.47139866E-03 0.10593062E+03 0.75467711E-02 0.10529441E+00
        1 -1    0    0  501    0 0.00000000E+00 0.00000000E+00 0.15825929E+04 0.15825929E+04 0.32000000E+00 0.0000E+00 0.9000E+01
       21 -1    0    0  502  501 0.00000000E+00 0.00000000E+00 -.13792730E+03 0.13792933E+03 0.75000000E+00 0.0000E+00 0.9000E+01
       25  1    1    2    0    0 0.85945869E+02 0.14879941E+03 0.42570076E+03 0.47578787E+03 0.12500000E+03 0.0000E+00 0.9000E+01
      -24  1    1    2    0    0 0.12052495E+03 0.12668045E+03 0.82998940E+03 0.85201163E+03 0.80419002E+02 0.0000E+00 0.9000E+01
        2  1    1    2  502    0 -.20647082E+03 -.27547986E+03 0.18897544E+03 0.39272277E+03 0.32000000E+00 0.0000E+00 0.9000E+01
#aMCatNLO 2  0  0  2  2 0.34426640D+03 0.00000000D+00  -5  5  0 0.00000000D+00 0.00000000D+00 0.00000000D+00 0.00000000D+00 0.00000000D+00
  <mgrwgt>
 0.4502464440D-01    1    2    0
 0.130167562987985D+03 0.000000000000000D+00 0.000000000000000D+00 0.130167562987985D+03
 0.130167562987985D+03 0.000000000000000D+00 0.000000000000000D+00 -.130167562987985D+03
 0.147756015585955D+03 -.253415956029182D+02 0.316175677494670D+00 -.745958692360107D+02
 0.112579110390016D+03 0.253415956029182D+02 -.316175677494670D+00 0.745958692360107D+02
 0.000000000000000D+00 -.000000000000000D+00 -.000000000000000D+00 -.000000000000000D+00
 0.264400233292886D+03 0.000000000000000D+00 0.000000000000000D+00 0.264400233292886D+03
 0.825583558661233D+03 0.000000000000000D+00 0.000000000000000D+00 -.825583558661233D+03
 0.225205464797499D+03 0.859458693610221D+02 0.148799412657979D+03 -.745958692360107D+02
 0.206412109158011D+03 0.120524948405887D+03 0.126680448204806D+03 0.745958692360107D+02
 0.658366217998609D+03 -.206470817766909D+03 -.275479860862785D+03 -.561183325368348D+03
0.247625400434D-03 0.000000000000D+00 0.000000000000D+00 0.185736026299D-02 0.233815803172D-06  5 1 21 25 -24 2 2 0.24347596D+00 0.21219741D-01 0.14033269D+06 0.14033269D+06 0.14033269D+06 0.11502906D+01  1  2  1  4  5  2       -2 0.450246443994D-01 0.100000000000D+01
  </mgrwgt>
  </event>
  <event>
  5     66 0.47139866E-03 0.10565337E+03 0.75467711E-02 0.11234508E+00
        1 -1    0    0  501    0 0.00000000E+00 0.00000000E+00 0.34545931E+03 0.34545946E+03 0.32000000E+00 0.0000E+00 0.9000E+01
       21 -1    0    0  502  501 0.00000000E+00 0.00000000E+00 -.16872399E+03 0.16872566E+03 0.75000000E+00 0.0000E+00 0.9000E+01
       25  1    1    2    0    0 -.25413726E+02 0.91721813E+02 0.87967161E+02 0.18006102E+03 0.12500000E+03 0.0000E+00 0.9000E+01
      -24  1    1    2    0    0 0.15095339E+02 0.94818442E+02 -.44755837E+01 0.12532220E+03 0.80419002E+02 0.0000E+00 0.9000E+01
        2  1    1    2  502    0 0.10318387E+02 -.18654026E+03 0.93243741E+02 0.20880190E+03 0.32000000E+00 0.0000E+00 0.9000E+01
#aMCatNLO 2  0  0  2  1 0.18682542D+03 0.00000000D+00  -5  5  0 0.00000000D+00 0.00000000D+00 0.00000000D+00 0.00000000D+00 0.00000000D+00
  <mgrwgt>
 0.4595571074D-01    1    2    0
 0.113340557394649D+03 0.000000000000000D+00 0.000000000000000D+00 0.113340557394649D+03
 0.113340557394649D+03 0.000000000000000D+00 0.000000000000000D+00 -.113340557394649D+03
 0.133540264048954D+03 -.195503725716940D+02 -.142784133216627D+02 0.402729681993791D+02
 0.931408507403439D+02 0.195503725716940D+02 0.142784133216627D+02 -.402729681993791D+02
 0.000000000000000D+00 0.000000000000000D+00 -.000000000000000D+00 0.000000000000000D+00
 0.260953644871693D+03 0.000000000000000D+00 0.000000000000000D+00 0.260953644871693D+03
 0.223364092118305D+03 0.000000000000000D+00 0.000000000000000D+00 -.223364092118305D+03
 0.162190198388096D+03 -.254137255875154D+02 0.917218133125605D+02 0.402729681993791D+02
 0.131558101495983D+03 0.150953385234947D+02 0.948184417828600D+02 -.402729681993791D+02
 0.190569437105920D+03 0.103183870640206D+02 -.186540255095421D+03 0.375895527533878D+02
0.290154105646D-04 0.000000000000D+00 0.000000000000D+00 0.261249636746D-02 0.180989767611D-06  5 1 21 25 -24 2 2 0.53147696D-01 0.25957662D-01 0.55032068D+05 0.55032068D+05 0.55032068D+05 0.11881792D+01  1  2  1  4  5  2       -2 0.459557107437D-01 0.100000000000D+01
  </mgrwgt>
  </event>
  <event>
  4     66 0.47139866E-03 0.31702451E+02 0.75467711E-02 0.12188852E+00
        1 -1    0    0  501    0 0.00000000E+00 0.00000000E+00 0.78840020E+03 0.78840027E+03 0.32000000E+00 0.0000E+00 0.9000E+01
       -2 -1    0    0    0  501 0.00000000E+00 0.00000000E+00 -.19573848E+02 0.19576463E+02 0.32000000E+00 0.0000E+00 0.9000E+01
       25  1    1    2    0    0 0.57697701E+02 -.33772485E+02 0.38930433E+03 0.41430963E+03 0.12500000E+03 0.0000E+00 0.9000E+01
      -24  1    1    2    0    0 -.57697701E+02 0.33772485E+02 0.37952202E+03 0.39366710E+03 0.80419002E+02 0.0000E+00 0.9000E+01
#aMCatNLO 1  0  0  2  1 0.24338291D+02 0.00000000D+00  -5  5  0 0.00000000D+00 0.00000000D+00 0.00000000D+00 0.00000000D+00 0.00000000D+00
  <mgrwgt>
 0.1647201519D+00    7    2    0
 0.124230062303531D+03 0.000000000000000D+00 0.000000000000000D+00 0.124230062303531D+03
 0.124230062303531D+03 0.000000000000000D+00 0.000000000000000D+00 -.124230062303531D+03
 0.142659144354650D+03 0.576977011427656D+02 -.337724853608872D+02 -.160320299210554D+02
 0.105800980252413D+03 -.576977011427656D+02 0.337724853608872D+02 0.160320299210554D+02
 0.000000000000000D+00 0.000000000000000D+00 -.000000000000000D+00 -.000000000000000D+00
 0.125546151895385D+03 0.000000000000000D+00 0.000000000000000D+00 0.125546151895385D+03
 0.330078133641677D+03 0.000000000000000D+00 0.000000000000000D+00 -.330078133641677D+03
 0.137060328704180D+03 0.444314104090625D+02 -.304853651801933D+02 -.160320299210554D+02
 0.112588997237363D+03 -.680553101537653D+02 0.363388926775382D+02 0.160320299210554D+02
 0.205974959595518D+03 0.236238997447028D+02 -.585352749734494D+01 -.204531981746292D+03
0.194167982359D-03 0.000000000000D+00 0.000000000000D+00 0.266880485885D-02 0.000000000000D+00  5 1 -2 25 -24 21 0 0.12129255D+00 0.30115674D-02 0.15170196D+05 0.15170196D+05 0.15170196D+05 0.12472643D+01  1  2  2  2  5  2       -2 0.162023189855D+00 0.100000000000D+01
-.107861420931D-04 0.000000000000D+00 -.745656177863D-06 0.266880485885D-02 0.000000000000D+00  5 1 -2 25 -24 21 2 0.12129255D+00 0.30115674D-02 0.15170196D+05 0.15170196D+05 0.15170196D+05 0.12472643D+01  1  2  3  2  5  2       -2 -.140017621726D-01 0.100000000000D+01
0.134145490401D-04 0.000000000000D+00 0.000000000000D+00 0.266880485885D-02 0.000000000000D+00  5 1 -2 25 -24 21 2 0.12129255D+00 0.30115674D-02 0.15170196D+05 0.15170196D+05 0.15170196D+05 0.12472643D+01  1  2 15  2  5  2       -2 0.174137632984D-01 0.100000000000D+01
0.301039046841D-02 0.000000000000D+00 0.000000000000D+00 0.266880485885D-02 0.000000000000D+00  5 1 -2 25 -24 21 2 0.12129255D+00 0.79867591D-02 0.18482330D+05 0.18482330D+05 0.18482330D+05 0.12376172D+01  1  2 12  2  5  2       -2 0.894117690745D+00 0.100000000000D+01
-.300832024425D-02 0.000000000000D+00 -.562303758663D-04 0.266880485885D-02 0.000000000000D+00  5 1 -2 25 -24 21 2 0.12129255D+00 0.80577080D-02 0.15170196D+05 0.15170196D+05 0.15170196D+05 0.12472643D+01  1  2  5  2  5  2       -2 -.893179012972D+00 0.100000000000D+01
0.326450338173D-03 0.000000000000D+00 0.000000000000D+00 0.266880485885D-02 0.000000000000D+00  5 1 21 25 -24 2 2 0.12129255D+00 0.79867591D-02 0.18482330D+05 0.18482330D+05 0.18482330D+05 0.12376172D+01  1  2 12  4  5  2       -2 0.159352106828D+01 0.100000000000D+01
-.326404321153D-03 0.000000000000D+00 -.616276937732D-05 0.266880485885D-02 0.000000000000D+00  5 1 21 25 -24 2 2 0.12129255D+00 0.80577080D-02 0.15170196D+05 0.15170196D+05 0.15170196D+05 0.12472643D+01  1  2  5  4  5  2       -2 -.159517478518D+01 0.100000000000D+01
  </mgrwgt>
  </event>
  <event>
  5     66 0.47139866E-03 0.11483427E+03 0.75467711E-02 0.11934899E+00
       21 -1    0    0  501  502 0.00000000E+00 0.00000000E+00 0.33658247E+03 0.33658330E+03 0.75000000E+00 0.0000E+00 0.9000E+01
       -4 -1    0    0    0  501 0.00000000E+00 0.00000000E+00 -.86695046E+02 0.86708901E+02 0.15500000E+01 0.0000E+00 0.9000E+01
       25  1    1    2    0    0 -.20397734E+02 -.29337296E+02 0.57983858E+02 0.14235123E+03 0.12500000E+03 0.0000E+00 0.9000E+01
      -24  1    1    2    0    0 -.41478308E+02 0.63899244E+02 0.17654475E+03 0.20841983E+03 0.80419002E+02 0.0000E+00 0.9000E+01
       -3  1    1    2    0  502 0.61876042E+02 -.34561949E+02 0.15358817E+02 0.72521143E+02 0.50000000E+00 0.0000E+00 0.9000E+01
#aMCatNLO 2  0  0  1  1 0.70874346D+02 0.00000000D+00  -5  5  0 0.00000000D+00 0.00000000D+00 0.00000000D+00 0.00000000D+00 0.00000000D+00
  <mgrwgt>
 0.1244783704D-01    1    2    0
 0.125512448348229D+03 0.000000000000000D+00 0.000000000000000D+00 0.125512448348229D+03
 0.125512448348229D+03 0.000000000000000D+00 0.000000000000000D+00 -.125512448348229D+03
 0.143753236744416D+03 0.138184011305797D+02 -.484493179959484D+02 -.500170815863729D+02
 0.107271659952042D+03 -.138184011305797D+02 0.484493179959484D+02 0.500170815863729D+02
 0.000000000000000D+00 0.000000000000000D+00 -.000000000000000D+00 -.000000000000000D+00
 0.150000324743994D+03 0.000000000000000D+00 0.000000000000000D+00 0.150000324743994D+03
 0.194552046772752D+03 0.000000000000000D+00 0.000000000000000D+00 -.194552046772752D+03
 0.139296277408773D+03 -.203977336327311D+02 -.293372955838140D+02 -.500170815863729D+02
 0.121542123952829D+03 -.414783082292189D+02 0.638992444135164D+02 0.500170815863729D+02
 0.837139701551444D+02 0.618760418619500D+02 -.345619488297024D+02 -.445517220287573D+02
0.121651155045D-04 0.000000000000D+00 0.000000000000D+00 0.231339289149D-02 0.153993217744D-06  5 21 -4 25 -24 -3 2 0.51782807D-01 0.13338767D-01 0.24282148D+05 0.24282148D+05 0.24282148D+05 0.12246565D+01  1  2  1  3  5  1        3 0.124478370404D-01 0.100000000000D+01
  </mgrwgt>
  </event>
  <event>
  5     66 0.47139866E-03 0.11615378E+03 0.75467711E-02 0.12348257E+00
        1 -1    0    0  502    0 0.00000000E+00 0.00000000E+00 0.59894261E+03 0.59894270E+03 0.32000000E+00 0.0000E+00 0.9000E+01
       -2 -1    0    0    0  501 0.00000000E+00 0.00000000E+00 -.26259324E+02 0.26261274E+02 0.32000000E+00 0.0000E+00 0.9000E+01
       25  1    1    2    0    0 -.53507414E+02 -.58199790E+00 0.31464668E+03 0.34276947E+03 0.12500000E+03 0.0000E+00 0.9000E+01
      -24  1    1    2    0    0 0.51581877E+02 -.16667718E+02 0.22734692E+03 0.24716865E+03 0.80419002E+02 0.0000E+00 0.9000E+01
       21  1    1    2  502  501 0.19255372E+01 0.17249716E+02 0.30689697E+02 0.35265853E+02 0.75000000E+00 0.0000E+00 0.9000E+01
#aMCatNLO 2  0  0  1  1 0.17356855D+02 0.00000000D+00  -5  5  0 0.00000000D+00 0.00000000D+00 0.00000000D+00 0.00000000D+00 0.00000000D+00
  <mgrwgt>
 0.1650874858D+00    1    2    0
 0.116155790641077D+03 0.000000000000000D+00 0.000000000000000D+00 0.116155790641077D+03
 0.116155790641077D+03 0.000000000000000D+00 0.000000000000000D+00 -.116155790641077D+03
 0.135865923031134D+03 -.523823974083218D+02 0.949634146601210D+01 -.673039092153619D+00
 0.964456582510201D+02 0.523823974083218D+02 -.949634146601210D+01 0.673039092153619D+00
 0.000000000000000D+00 0.000000000000000D+00 0.000000000000000D+00 -.000000000000000D+00
 0.123258829237181D+03 0.000000000000000D+00 0.000000000000000D+00 0.123258829237181D+03
 0.127589121575514D+03 0.000000000000000D+00 0.000000000000000D+00 -.127589121575514D+03
 0.135973655748810D+03 -.535074140145432D+02 -.581997897414979D+00 -.673039092153619D+00
 0.969854204851364D+02 0.515818768339662D+02 -.166677182893807D+02 0.673039092153619D+00
 0.178888745787490D+02 0.192553718057694D+01 0.172497161867957D+02 -.433029233833316D+01
0.133008642290D-03 0.000000000000D+00 0.000000000000D+00 0.286137561530D-02 0.790899276467D-04  5 1 -2 25 -24 21 2 0.92139377D-01 0.40397985D-02 0.15664016D+05 0.15664016D+05 0.15664016D+05 0.12456837D+01  1  2  1  1  5  1        1 0.165087485771D+00 0.100000000000D+01
  </mgrwgt>
  </event>
  <event>
  5     66 0.47139866E-03 0.12690946E+03 0.75467711E-02 0.11213251E+00
        1 -1    0    0  501    0 0.00000000E+00 0.00000000E+00 0.14860904E+04 0.14860904E+04 0.32000000E+00 0.0000E+00 0.9000E+01
       21 -1    0    0  502  501 0.00000000E+00 0.00000000E+00 -.60244597E+02 0.60249266E+02 0.75000000E+00 0.0000E+00 0.9000E+01
       25  1    1    2    0    0 -.16978595E+03 0.57168008E+02 0.11432077E+04 0.11638918E+04 0.12500000E+03 0.0000E+00 0.9000E+01
      -24  1    1    2    0    0 0.33040223E+01 0.13868391E+01 0.76031748E+02 0.11072887E+03 0.80419002E+02 0.0000E+00 0.9000E+01
        2  1    1    2  502    0 0.16648193E+03 -.58554847E+02 0.20660637E+03 0.27171897E+03 0.32000000E+00 0.0000E+00 0.9000E+01
#aMCatNLO 2  0  0  2  1 0.17647919D+03 0.00000000D+00  -5  5  0 0.00000000D+00 0.00000000D+00 0.00000000D+00 0.00000000D+00 0.00000000D+00
  <mgrwgt>
 0.6477127459D-01    1    2    0
 0.163530046765494D+03 0.000000000000000D+00 0.000000000000000D+00 0.163530046765494D+03
 0.163530046765494D+03 0.000000000000000D+00 0.000000000000000D+00 -.163530046765494D+03
 0.177530201823791D+03 -.699884087152523D+02 0.220673220211016D+02 0.102501846343954D+03
 0.149529891707198D+03 0.699884087152523D+02 -.220673220211016D+02 -.102501846343954D+03
 0.000000000000000D+00 0.000000000000000D+00 -.000000000000000D+00 -.000000000000000D+00
 0.221457935892333D+03 0.000000000000000D+00 0.000000000000000D+00 0.221457935892333D+03
 0.404286615216682D+03 0.000000000000000D+00 0.000000000000000D+00 -.404286615216682D+03
 0.241302879719950D+03 -.169785953869875D+03 0.571680078865600D+02 0.102501846343954D+03
 0.130332974891437D+03 0.330402226818340D+01 0.138683907256910D+01 -.102501846343954D+03
 0.254108696497627D+03 0.166481931601692D+03 -.585548469591291D+02 -.182828679324350D+03
0.606457015594D-04 0.000000000000D+00 0.000000000000D+00 0.147195187137D-02 0.875080059337D-07  5 1 21 25 -24 2 2 0.22862956D+00 0.92687576D-02 0.56507968D+05 0.56507968D+05 0.56507968D+05 0.11870546D+01  1  2  1  4  5  2       -2 0.647712745868D-01 0.100000000000D+01
  </mgrwgt>
  </event>
  <event>
  4     66 0.47139866E-03 0.47387784E+02 0.75467711E-02 0.11441559E+00
        1 -1    0    0  501    0 0.00000000E+00 0.00000000E+00 0.21726901E+04 0.21726901E+04 0.32000000E+00 0.0000E+00 0.9000E+01
       -2 -1    0    0    0  501 0.00000000E+00 0.00000000E+00 -.90503000E+01 0.90559556E+01 0.32000000E+00 0.0000E+00 0.9000E+01
       25  1    1    2    0    0 -.33694933E+02 -.75297139E+02 0.15629063E+04 0.15700656E+04 0.12500000E+03 0.0000E+00 0.9000E+01
      -24  1    1    2    0    0 0.33694933E+02 0.75297139E+02 0.60073354E+03 0.61168048E+03 0.80419002E+02 0.0000E+00 0.9000E+01
#aMCatNLO 1  0  0  1  2 0.12185709D+03 0.00000000D+00  -5  5  0 0.00000000D+00 0.00000000D+00 0.00000000D+00 0.00000000D+00 0.00000000D+00
  <mgrwgt>
 0.3606888741D+00    7    2    0
 0.140248680333840D+03 0.000000000000000D+00 0.000000000000000D+00 0.140248680333840D+03
 0.140248680333840D+03 0.000000000000000D+00 0.000000000000000D+00 -.140248680333840D+03
 0.156572869666372D+03 -.336949333198055D+02 -.752971388120314D+02 0.456624120131447D+02
 0.123924491001308D+03 0.336949333198055D+02 0.752971388120314D+02 -.456624120131447D+02
 0.000000000000000D+00 0.000000000000000D+00 -.000000000000000D+00 0.000000000000000D+00
 0.394351489207258D+03 0.000000000000000D+00 0.000000000000000D+00 0.394351489207258D+03
 0.168287296678435D+03 0.000000000000000D+00 0.000000000000000D+00 -.168287296678435D+03
 0.170124827446857D+03 -.952103253734836D+02 -.465552895516723D+02 0.456624120131447D+02
 0.135698519799832D+03 -.151906616406426D+02 0.981379653832109D+02 -.456624120131447D+02
 0.256815438639003D+03 0.110400987014126D+03 -.515826758315387D+02 0.226064192528823D+03
0.117639689206D-02 0.000000000000D+00 0.000000000000D+00 0.225963233701D-02 0.000000000000D+00  5 1 -2 25 -24 21 0 0.33426045D+00 0.13927907D-02 0.17552493D+05 0.17552493D+05 0.17552493D+05 0.12401165D+01  1  2  2  1  5  1        1 0.353204291051D+00 0.100000000000D+01
-.650977386405D-04 0.000000000000D+00 -.451767381793D-05 0.225963233701D-02 0.000000000000D+00  5 1 -2 25 -24 21 2 0.33426045D+00 0.13927907D-02 0.17552493D+05 0.17552493D+05 0.17552493D+05 0.12401165D+01  1  2  3  1  5  1        1 -.300582005252D-01 0.100000000000D+01
0.813250053784D-04 0.000000000000D+00 0.000000000000D+00 0.225963233701D-02 0.000000000000D+00  5 1 -2 25 -24 21 2 0.33426045D+00 0.13927907D-02 0.17552493D+05 0.17552493D+05 0.17552493D+05 0.12401165D+01  1  2 15  1  5  1        1 0.375509713613D-01 0.100000000000D+01
0.106492198182D-04 0.000000000000D+00 0.000000000000D+00 0.225963233701D-02 0.000000000000D+00  5 1 -2 25 -24 21 2 0.91080236D+00 0.13927907D-02 0.42750622D+05 0.42750622D+05 0.42750622D+05 0.11990783D+01  1  2 12  1  5  1        1 0.549516646803D-06 0.100000000000D+01
-.753070611423D-03 0.000000000000D+00 -.299943022048D-03 0.225963233701D-02 0.000000000000D+00  5 1 -2 25 -24 21 2 0.94329015D+00 0.13927907D-02 0.17552493D+05 0.17552493D+05 0.17552493D+05 0.12401165D+01  1  2  5  1  5  1        1 -.873186578611D-05 0.100000000000D+01
0.119273129281D-05 0.000000000000D+00 0.000000000000D+00 0.225963233701D-02 0.000000000000D+00  5 21 -2 25 -24 -1 2 0.91080236D+00 0.13927907D-02 0.42750622D+05 0.42750622D+05 0.42750622D+05 0.11990783D+01  1  2 12  3  5  1        1 0.872988910971D-09 0.100000000000D+01
-.713059797930D-04 0.000000000000D+00 -.349969852049D-04 0.225963233701D-02 0.000000000000D+00  5 21 -2 25 -24 -1 2 0.94329015D+00 0.13927907D-02 0.17552493D+05 0.17552493D+05 0.17552493D+05 0.12401165D+01  1  2  5  3  5  1        1 -.631384596270D-08 0.100000000000D+01
  </mgrwgt>
  </event>
  <event>
  4     66 0.47139866E-03 0.12682692E+03 0.75467711E-02 0.11315792E+00
        1 -1    0    0  501    0 0.00000000E+00 0.00000000E+00 0.26110842E+03 0.26110861E+03 0.32000000E+00 0.0000E+00 0.9000E+01
       -2 -1    0    0    0  501 0.00000000E+00 0.00000000E+00 -.10816077E+03 0.10816124E+03 0.32000000E+00 0.0000E+00 0.9000E+01
       25  1    1    2    0    0 0.13116777E+03 0.90289921E+01 0.71976384E+02 0.19517199E+03 0.12500000E+03 0.0000E+00 0.9000E+01
      -24  1    1    2    0    0 -.13116777E+03 -.90289921E+01 0.80971260E+02 0.17409787E+03 0.80419002E+02 0.0000E+00 0.9000E+01
#aMCatNLO 1  0  0  1  2 0.96969578D+02 0.00000000D+00  -5  5  0 0.00000000D+00 0.00000000D+00 0.00000000D+00 0.00000000D+00 0.00000000D+00
  <mgrwgt>
 0.7917742047D-01    7    2    0
 0.168053001126320D+03 0.000000000000000D+00 0.000000000000000D+00 0.168053001126320D+03
 0.168053001126320D+03 0.000000000000000D+00 0.000000000000000D+00 -.168053001126320D+03
 0.181676358020056D+03 0.131167767557844D+03 0.902899208998991D+01 -.973617579760501D+01
 0.154429644232583D+03 -.131167767557844D+03 -.902899208998991D+01 0.973617579760501D+01
 0.000000000000000D+00 0.000000000000000D+00 -.000000000000000D+00 0.000000000000000D+00
 0.589753625921178D+03 0.000000000000000D+00 0.000000000000000D+00 0.589753625921178D+03
 0.180573980624268D+03 0.000000000000000D+00 0.000000000000000D+00 -.180573980624268D+03
 0.158535846977180D+03 0.905651964117615D+02 0.348104417741154D+02 -.973617579760501D+01
 0.191278880842253D+03 -.172426296143768D+03 0.171689714565047D+02 0.973617579760501D+01
 0.420512878726013D+03 0.818610997320063D+02 -.519794132306200D+02 0.409179645296910D+03
0.782469002774D-03 0.000000000000D+00 0.000000000000D+00 0.228360520325D-02 0.000000000000D+00  5 1 -2 25 -24 21 0 0.40170577D-01 0.16640170D-01 0.28146389D+05 0.28146389D+05 0.28146389D+05 0.12178163D+01  1  2  2  1  5  1        1 0.202122004962D+00 0.100000000000D+01
-.434703487978D-04 0.000000000000D+00 -.300488699947D-05 0.228360520325D-02 0.000000000000D+00  5 1 -2 25 -24 21 2 0.40170577D-01 0.16640170D-01 0.28146389D+05 0.28146389D+05 0.28146389D+05 0.12178163D+01  1  2  3  1  5  1        1 -.166534076686D-01 0.100000000000D+01
0.540186177678D-04 0.000000000000D+00 0.000000000000D+00 0.228360520325D-02 0.000000000000D+00  5 1 -2 25 -24 21 2 0.40170577D-01 0.16640170D-01 0.28146389D+05 0.28146389D+05 0.28146389D+05 0.12178163D+01  1  2 15  1  5  1        1 0.206944293814D-01 0.100000000000D+01
0.154868818989D-02 0.000000000000D+00 0.000000000000D+00 0.228360520325D-02 0.000000000000D+00  5 1 -2 25 -24 21 2 0.13778380D+00 0.16640170D-01 0.49781890D+05 0.49781890D+05 0.49781890D+05 0.11924698D+01  1  2 12  1  5  1        1 0.108046785661D+00 0.100000000000D+01
-.310723318346D-02 0.000000000000D+00 -.314000543492D-03 0.228360520325D-02 0.000000000000D+00  5 1 -2 25 -24 21 2 0.14469553D+00 0.16640170D-01 0.28146389D+05 0.28146389D+05 0.28146389D+05 0.12178163D+01  1  2  5  1  5  1        1 -.209871881171D+00 0.100000000000D+01
0.222558115427D-03 0.000000000000D+00 0.000000000000D+00 0.228360520325D-02 0.000000000000D+00  5 21 -2 25 -24 -1 2 0.13778380D+00 0.16640170D-01 0.49781890D+05 0.49781890D+05 0.49781890D+05 0.11924698D+01  1  2 12  3  5  1        1 0.265260051030D-01 0.100000000000D+01
-.459278371105D-03 0.000000000000D+00 -.472975551301D-04 0.228360520325D-02 0.000000000000D+00  5 21 -2 25 -24 -1 2 0.14469553D+00 0.16640170D-01 0.28146389D+05 0.28146389D+05 0.28146389D+05 0.12178163D+01  1  2  5  3  5  1        1 -.516865157945D-01 0.100000000000D+01
  </mgrwgt>
  </event>
  <event>
  4     66 0.47139866E-03 0.10588052E+03 0.75467711E-02 0.12225611E+00
        1 -1    0    0  501    0 0.00000000E+00 0.00000000E+00 0.48730819E+02 0.48731869E+02 0.32000000E+00 0.0000E+00 0.9000E+01
       -2 -1    0    0    0  501 0.00000000E+00 0.00000000E+00 -.24510513E+03 0.24510534E+03 0.32000000E+00 0.0000E+00 0.9000E+01
       25  1    1    2    0    0 -.21195335E+02 0.13523526E+02 -.81314855E+02 0.15122577E+03 0.12500000E+03 0.0000E+00 0.9000E+01
      -24  1    1    2    0    0 0.21195335E+02 -.13523526E+02 -.11505946E+03 0.14261144E+03 0.80419002E+02 0.0000E+00 0.9000E+01
#aMCatNLO 1  0  0  1  2 0.49407607D+02 0.00000000D+00  -5  5  0 0.00000000D+00 0.00000000D+00 0.00000000D+00 0.00000000D+00 0.00000000D+00
  <mgrwgt>
 0.1532710269D+00    4    2    0
 0.109290250709803D+03 0.000000000000000D+00 0.000000000000000D+00 0.109290250709803D+03
 0.109290250709803D+03 0.000000000000000D+00 0.000000000000000D+00 -.109290250709803D+03
 0.130238560339785D+03 -.211953346161277D+02 0.135235259990046D+02 0.265509817981278D+02
 0.883419410798202D+02 0.211953346161277D+02 -.135235259990046D+02 -.265509817981278D+02
 0.000000000000000D+00 0.000000000000000D+00 -.000000000000000D+00 -.000000000000000D+00
 0.124900091009821D+03 0.000000000000000D+00 0.000000000000000D+00 0.124900091009821D+03
 0.159530256878764D+03 0.000000000000000D+00 0.000000000000000D+00 -.159530256878764D+03
 0.138564547543160D+03 -.510815344058464D+02 0.161510384848920D+02 0.265509817981278D+02
 0.855304039257532D+02 0.186377375111595D+01 -.118239483376793D+02 -.265509817981278D+02
 0.603353964196720D+02 0.492177606547304D+02 -.432709014721272D+01 -.346301658689434D+02
0.395845964467D-03 0.000000000000D+00 0.000000000000D+00 0.288158676782D-02 0.000000000000D+00  5 1 -2 25 -24 21 0 0.74971459D-02 0.37708579D-01 0.11210685D+05 0.11210685D+05 0.11210685D+05 0.12625020D+01  1  2  2  1  5  1        1 0.204650026135D+00 0.100000000000D+01
-.219645803330D-04 0.000000000000D+00 -.152015273219D-05 0.288158676782D-02 0.000000000000D+00  5 1 -2 25 -24 21 2 0.74971459D-02 0.37708579D-01 0.11210685D+05 0.11210685D+05 0.11210685D+05 0.12625020D+01  1  2  3  1  5  1        1 -.180997539411D-01 0.100000000000D+01
0.274194684520D-04 0.000000000000D+00 0.000000000000D+00 0.288158676782D-02 0.000000000000D+00  5 1 -2 25 -24 21 2 0.74971459D-02 0.37708579D-01 0.11210685D+05 0.11210685D+05 0.11210685D+05 0.12625020D+01  1  2 15  1  5  1        1 0.225948151366D-01 0.100000000000D+01
-.678048050813D-04 0.000000000000D+00 0.000000000000D+00 0.288158676782D-02 0.000000000000D+00  5 1 -2 25 -24 21 2 0.74971459D-02 0.37708579D-01 0.11210685D+05 0.11210685D+05 0.11210685D+05 0.12625020D+01  1  2  4  1  5  1        1 -.558740603914D-01 0.100000000000D+01
  </mgrwgt>
  </event>
  <event>
  4     66 0.47139866E-03 0.10656149E+03 0.75467711E-02 0.11461247E+00
        1 -1    0    0  501    0 0.00000000E+00 0.00000000E+00 0.37101316E+04 0.37101317E+04 0.32000000E+00 0.0000E+00 0.9000E+01
       -2 -1    0    0    0  501 0.00000000E+00 0.00000000E+00 -.44712712E+01 0.44827075E+01 0.32000000E+00 0.0000E+00 0.9000E+01
       25  1    1    2    0    0 -.22047456E+02 0.16874451E+02 0.31382622E+04 0.31408733E+04 0.12500000E+03 0.0000E+00 0.9000E+01
      -24  1    1    2    0    0 0.22047456E+02 -.16874451E+02 0.56739822E+03 0.57374105E+03 0.80419002E+02 0.0000E+00 0.9000E+01
#aMCatNLO 1  0  0  1  2 0.14809314D+03 0.00000000D+00  -5  5  0 0.00000000D+00 0.00000000D+00 0.00000000D+00 0.00000000D+00 0.00000000D+00
  <mgrwgt>
 0.1657463075D+00    3    2    0
 0.128880840244584D+03 0.000000000000000D+00 0.000000000000000D+00 0.128880840244584D+03
 0.128880840244584D+03 0.000000000000000D+00 0.000000000000000D+00 -.128880840244584D+03
 0.146644892737279D+03 -.220474557175405D+02 0.168744506991845D+02 0.714764798791311D+02
 0.111116787751890D+03 0.220474557175405D+02 -.168744506991845D+02 -.714764798791311D+02
 0.000000000000000D+00 -.000000000000000D+00 0.000000000000000D+00 -.000000000000000D+00
 0.176148552583813D+03 0.000000000000000D+00 0.000000000000000D+00 0.176148552583813D+03
 0.347937039018636D+03 0.000000000000000D+00 0.000000000000000D+00 -.347937039018636D+03
 0.153390302608842D+03 0.326660335375420D+02 -.415647448138983D+02 0.714764798791311D+02
 0.143885096844122D+03 0.685488098562593D+02 -.665423070749001D+02 -.714764798791311D+02
 0.226810192149485D+03 -.101214843393801D+03 0.108107051888798D+03 -.171788486434823D+03
0.224484732610D-02 0.000000000000D+00 0.000000000000D+00 0.192069288810D-02 0.000000000000D+00  5 1 -2 25 -24 21 0 0.57079036D+00 0.68876865D-03 0.11355351D+05 0.11355351D+05 0.11355351D+05 0.12618444D+01  1  2  2  1  5  1        1 0.161762655867D+00 0.100000000000D+01
-.119230189957D-03 0.000000000000D+00 -.862080481411D-05 0.192069288810D-02 0.000000000000D+00  5 1 -2 25 -24 21 2 0.57079036D+00 0.68876865D-03 0.11355351D+05 0.11355351D+05 0.11355351D+05 0.12618444D+01  1  2  3  1  5  1        1 -.136801002140D-01 0.100000000000D+01
0.153950077131D-03 0.000000000000D+00 0.000000000000D+00 0.192069288810D-02 0.000000000000D+00  5 1 -2 25 -24 21 2 0.57079036D+00 0.68876865D-03 0.11355351D+05 0.11355351D+05 0.11355351D+05 0.12618444D+01  1  2 15  1  5  1        1 0.176637518053D-01 0.100000000000D+01
  </mgrwgt>
  </event>
  <event>
  4     66 0.47139866E-03 0.47933634E+02 0.75467711E-02 0.12145247E+00
        3 -1    0    0  501    0 0.00000000E+00 0.00000000E+00 0.25526264E+03 0.25526313E+03 0.50000000E+00 0.0000E+00 0.9000E+01
       -4 -1    0    0    0  501 0.00000000E+00 0.00000000E+00 -.56149126E+02 0.56170516E+02 0.15500000E+01 0.0000E+00 0.9000E+01
       25  1    1    2    0    0 -.42334001E+02 -.42003973E+02 0.10250323E+03 0.17230326E+03 0.12500000E+03 0.0000E+00 0.9000E+01
      -24  1    1    2    0    0 0.42334001E+02 0.42003973E+02 0.96610287E+02 0.13913039E+03 0.80419002E+02 0.0000E+00 0.9000E+01
#aMCatNLO 1  0  0  2  1 0.36810336D+02 0.00000000D+00  -5  5  0 0.00000000D+00 0.00000000D+00 0.00000000D+00 0.00000000D+00 0.00000000D+00
  <mgrwgt>
 0.2863601747D-01    9    2    0
 0.119733792936287D+03 0.000000000000000D+00 0.000000000000000D+00 0.119733792936287D+03
 0.119733792936287D+03 0.000000000000000D+00 0.000000000000000D+00 -.119733792936287D+03
 0.138854927874571D+03 -.423340007014371D+02 -.420039729020876D+02 -.995939958550697D+01
 0.100612657998002D+03 0.423340007014371D+02 0.420039729020876D+02 0.995939958550697D+01
 0.000000000000000D+00 0.000000000000000D+00 0.000000000000000D+00 -.000000000000000D+00
 0.129861160231106D+03 0.000000000000000D+00 0.000000000000000D+00 0.129861160231106D+03
 0.159983048974007D+03 0.000000000000000D+00 0.000000000000000D+00 -.159983048974007D+03
 0.147233828242014D+03 -.433350687623523D+02 -.638410710597585D+02 -.995939958550697D+01
 0.950464341394686D+02 0.416493597857115D+02 0.270693531063149D+02 0.995939958550697D+01
 0.475639468236316D+02 0.168570897664076D+01 0.367717179534436D+02 -.301218887429012D+02
0.199168138272D-03 0.000000000000D+00 0.000000000000D+00 0.277168275809D-02 0.000000000000D+00  5 3 -4 25 -24 21 0 0.39272859D-01 0.86400101D-02 0.14234377D+05 0.14234377D+05 0.14234377D+05 0.12504247D+01  1  2  2  2  5  2       -4 0.237083193337D-01 0.100000000000D+01
-.110647257543D-04 0.000000000000D+00 -.764858093140D-06 0.277168275809D-02 0.000000000000D+00  5 3 -4 25 -24 21 2 0.39272859D-01 0.86400101D-02 0.14234377D+05 0.14234377D+05 0.14234377D+05 0.12504247D+01  1  2  3  2  5  2       -4 -.205938089847D-02 0.100000000000D+01
0.137804465905D-04 0.000000000000D+00 0.000000000000D+00 0.277168275809D-02 0.000000000000D+00  5 3 -4 25 -24 21 2 0.39272859D-01 0.86400101D-02 0.14234377D+05 0.14234377D+05 0.14234377D+05 0.12504247D+01  1  2 15  2  5  2       -4 0.256483433129D-02 0.100000000000D+01
0.183115602496D-03 0.000000000000D+00 0.000000000000D+00 0.277168275809D-02 0.000000000000D+00  5 3 -4 25 -24 21 2 0.39272859D-01 0.11816366D-01 0.19353002D+05 0.19353002D+05 0.19353002D+05 0.12354014D+01  1  2 12  2  5  2       -4 0.201974371681D-01 0.100000000000D+01
-.197088861944D-03 0.000000000000D+00 0.000000000000D+00 0.277168275809D-02 0.000000000000D+00  5 3 -4 25 -24 21 2 0.39272859D-01 0.86400101D-02 0.14234377D+05 0.14234377D+05 0.14234377D+05 0.12504247D+01  1  2  4  2  5  2       -4 -.366824308709D-01 0.100000000000D+01
-.289413134602D-03 0.000000000000D+00 -.818612180780D-04 0.277168275809D-02 0.000000000000D+00  5 3 -4 25 -24 21 2 0.39272859D-01 0.12474817D-01 0.14234377D+05 0.14234377D+05 0.14234377D+05 0.12504247D+01  1  2  5  2  5  2       -4 -.290010054223D-01 0.100000000000D+01
0.303972469041D-03 0.000000000000D+00 0.766333295677D-04 0.277168275809D-02 0.000000000000D+00  5 3 -4 25 -24 21 2 0.39272859D-01 0.86400101D-02 0.14234377D+05 0.14234377D+05 0.14234377D+05 0.12504247D+01  1  2  6  2  5  2       -4 0.565757444246D-01 0.100000000000D+01
0.729980252782D-05 0.000000000000D+00 0.000000000000D+00 0.277168275809D-02 0.000000000000D+00  5 3 21 25 -24 4 2 0.39272859D-01 0.11816366D-01 0.19353002D+05 0.19353002D+05 0.19353002D+05 0.12354014D+01  1  2 12  4  5  2       -4 0.209130997604D-01 0.100000000000D+01
-.104644143678D-04 0.000000000000D+00 -.366185590829D-05 0.277168275809D-02 0.000000000000D+00  5 3 21 25 -24 4 2 0.39272859D-01 0.12474817D-01 0.14234377D+05 0.14234377D+05 0.14234377D+05 0.12504247D+01  1  2  5  4  5  2       -4 -.275806003545D-01 0.100000000000D+01
  </mgrwgt>
  </event>
  <event>
  4     66 0.47139866E-03 0.67709463E+02 0.75467711E-02 0.12387754E+00
        1 -1    0    0  501    0 0.00000000E+00 0.00000000E+00 0.10776026E+04 0.10776027E+04 0.32000000E+00 0.0000E+00 0.9000E+01
       -2 -1    0    0    0  501 0.00000000E+00 0.00000000E+00 -.10030256E+02 0.10035359E+02 0.32000000E+00 0.0000E+00 0.9000E+01
       25  1    1    2    0    0 0.14258101E+02 0.29670950E+01 0.67908046E+03 0.69064272E+03 0.12500000E+03 0.0000E+00 0.9000E+01
      -24  1    1    2    0    0 -.14258101E+02 -.29670950E+01 0.38849192E+03 0.39699532E+03 0.80419002E+02 0.0000E+00 0.9000E+01
#aMCatNLO 1  0  0  1  2 0.34836819D+02 0.00000000D+00  -5  5  0 0.00000000D+00 0.00000000D+00 0.00000000D+00 0.00000000D+00 0.00000000D+00
  <mgrwgt>
 0.2775060312D+00    9    2    0
 0.103978031667406D+03 0.000000000000000D+00 0.000000000000000D+00 0.103978031667406D+03
 0.103978031667406D+03 0.000000000000000D+00 0.000000000000000D+00 -.103978031667406D+03
 0.125996586689976D+03 0.142581009440136D+02 0.296709495614023D+01 0.616788152579857D+01
 0.819594766448350D+02 -.142581009440136D+02 -.296709495614023D+01 -.616788152579857D+01
 0.000000000000000D+00 0.000000000000000D+00 0.000000000000000D+00 0.000000000000000D+00
 0.127626717545214D+03 0.000000000000000D+00 0.000000000000000D+00 0.127626717545214D+03
 0.119093729645801D+03 0.000000000000000D+00 0.000000000000000D+00 -.119093729645801D+03
 0.125339820175381D+03 -.661586717029048D+01 0.180500987968113D+01 0.616788152579857D+01
 0.855139875286927D+02 -.281670916658513D+02 -.374142930684662D+01 -.616788152579857D+01
 0.358666394869407D+02 0.347829588361417D+02 0.193641942716549D+01 0.853298789941362D+01
0.116518169854D-03 0.000000000000D+00 0.000000000000D+00 0.318873471304D-02 0.000000000000D+00  5 1 -2 25 -24 21 0 0.16578542D+00 0.15435125D-02 0.10771595D+05 0.10771595D+05 0.10771595D+05 0.12645583D+01  1  2  2  1  5  1        1 0.153231601620D+00 0.100000000000D+01
-.647320484687D-05 0.000000000000D+00 -.447460452179D-06 0.318873471304D-02 0.000000000000D+00  5 1 -2 25 -24 21 2 0.16578542D+00 0.15435125D-02 0.10771595D+05 0.10771595D+05 0.10771595D+05 0.12645583D+01  1  2  3  1  5  1        1 -.136129345930D-01 0.100000000000D+01
0.807418686770D-05 0.000000000000D+00 0.000000000000D+00 0.318873471304D-02 0.000000000000D+00  5 1 -2 25 -24 21 2 0.16578542D+00 0.15435125D-02 0.10771595D+05 0.10771595D+05 0.10771595D+05 0.12645583D+01  1  2 15  1  5  1        1 0.169797465586D-01 0.100000000000D+01
0.800941977536D-04 0.000000000000D+00 0.000000000000D+00 0.318873471304D-02 0.000000000000D+00  5 1 -2 25 -24 21 2 0.21327930D+00 0.15435125D-02 0.15044991D+05 0.15044991D+05 0.15044991D+05 0.12476743D+01  1  2 12  1  5  1        1 0.102461537517D+00 0.100000000000D+01
-.819738574582D-04 0.000000000000D+00 0.000000000000D+00 0.318873471304D-02 0.000000000000D+00  5 1 -2 25 -24 21 2 0.16578542D+00 0.15435125D-02 0.10771595D+05 0.10771595D+05 0.10771595D+05 0.12645583D+01  1  2  4  1  5  1        1 -.172388297036D+00 0.100000000000D+01
-.188313592220D-03 0.000000000000D+00 -.628398012667D-04 0.318873471304D-02 0.000000000000D+00  5 1 -2 25 -24 21 2 0.22132837D+00 0.15435125D-02 0.10771595D+05 0.10771595D+05 0.10771595D+05 0.12645583D+01  1  2  5  1  5  1        1 -.226971643233D+00 0.100000000000D+01
0.200574649393D-03 0.000000000000D+00 0.603046976086D-04 0.318873471304D-02 0.000000000000D+00  5 1 -2 25 -24 21 2 0.16578542D+00 0.15435125D-02 0.10771595D+05 0.10771595D+05 0.10771595D+05 0.12645583D+01  1  2  6  1  5  1        1 0.421801819625D+00 0.100000000000D+01
0.272588639798D-05 0.000000000000D+00 0.000000000000D+00 0.318873471304D-02 0.000000000000D+00  5 21 -2 25 -24 -1 2 0.21327930D+00 0.15435125D-02 0.15044991D+05 0.15044991D+05 0.15044991D+05 0.12476743D+01  1  2 12  3  5  1        1 0.417247645879D-02 0.100000000000D+01
-.575554772665D-05 0.000000000000D+00 -.236403469569D-05 0.318873471304D-02 0.000000000000D+00  5 21 -2 25 -24 -1 2 0.22132837D+00 0.15435125D-02 0.10771595D+05 0.10771595D+05 0.10771595D+05 0.12645583D+01  1  2  5  3  5  1        1 -.816827568671D-02 0.100000000000D+01
  </mgrwgt>
  </event>
  <event>
  5     66 0.47139866E-03 0.11555491E+03 0.75467711E-02 0.11388335E+00
        1 -1    0    0  501    0 0.00000000E+00 0.00000000E+00 0.53857334E+03 0.53857343E+03 0.32000000E+00 0.0000E+00 0.9000E+01
       -2 -1    0    0    0  502 0.00000000E+00 0.00000000E+00 -.12512324E+03 0.12512365E+03 0.32000000E+00 0.0000E+00 0.9000E+01
       25  1    1    2    0    0 0.13078838E+03 0.22298489E+02 0.27799981E+03 0.33243302E+03 0.12500000E+03 0.0000E+00 0.9000E+01
      -24  1    1    2    0    0 0.18519846E+02 -.44472735E+02 0.15285976E+03 0.17931573E+03 0.80419002E+02 0.0000E+00 0.9000E+01
       21  1    1    2  501  502 -.14930822E+03 0.22174246E+02 -.17409471E+02 0.15194833E+03 0.75000000E+00 0.0000E+00 0.9000E+01
#aMCatNLO 2  0  0  2  2 0.15094583D+03 0.00000000D+00  -5  5  0 0.00000000D+00 0.00000000D+00 0.00000000D+00 0.00000000D+00 0.00000000D+00
  <mgrwgt>
 0.2375708224D-01    1    2    0
 0.115609447348972D+03 0.000000000000000D+00 0.000000000000000D+00 0.115609447348972D+03
 0.115609447348972D+03 0.000000000000000D+00 0.000000000000000D+00 -.115609447348972D+03
 0.135412725228993D+03 0.372825931586533D+02 0.361853350417528D+02 -.349798931177928D+01
 0.958061694689513D+02 -.372825931586533D+02 -.361853350417528D+02 0.349798931177928D+01
 0.000000000000000D+00 -.000000000000000D+00 0.000000000000000D+00 -.000000000000000D+00
 0.157769670413986D+03 0.000000000000000D+00 0.000000000000000D+00 0.157769670413986D+03
 0.427128086396095D+03 0.000000000000000D+00 0.000000000000000D+00 -.427128086396095D+03
 0.182318561044113D+03 0.130788375433528D+03 0.222984892633843D+02 -.349798931177928D+01
 0.938097051062534D+02 0.185198457256591D+02 -.444727354996762D+02 0.349798931177928D+01
 0.308769490659714D+03 -.149308221159187D+03 0.221742462362919D+02 -.269358415982109D+03
0.205700795011D-03 0.000000000000D+00 0.000000000000D+00 0.287120608753D-02 0.208084249891D-05  5 1 -2 25 -24 21 2 0.82857259D-01 0.19249718D-01 0.45576975D+05 0.45576975D+05 0.45576975D+05 0.11962861D+01  1  2  1  2  5  2       -2 0.237570822420D-01 0.100000000000D+01
  </mgrwgt>
  </event>
  <event>
  4     66 0.47139866E-03 0.10279023E+03 0.75467711E-02 0.11802999E+00
        1 -1    0    0  501    0 0.00000000E+00 0.00000000E+00 0.51384275E+03 0.51384285E+03 0.32000000E+00 0.0000E+00 0.9000E+01
       -2 -1    0    0    0  501 0.00000000E+00 0.00000000E+00 -.21347255E+02 0.21349653E+02 0.32000000E+00 0.0000E+00 0.9000E+01
       25  1    1    2    0    0 -.35109449E+01 -.18663297E+01 0.34781784E+03 0.36961881E+03 0.12500000E+03 0.0000E+00 0.9000E+01
      -24  1    1    2    0    0 0.35109449E+01 0.18663297E+01 0.14467765E+03 0.16557369E+03 0.80419002E+02 0.0000E+00 0.9000E+01
#aMCatNLO 1  0  0  2  2 0.10465409D+03 0.00000000D+00  -5  5  0 0.00000000D+00 0.00000000D+00 0.00000000D+00 0.00000000D+00 0.00000000D+00
  <mgrwgt>
 0.2552813846D+00    5    2    0
 0.104736815472578D+03 0.000000000000000D+00 0.000000000000000D+00 0.104736815472578D+03
 0.104736815472578D+03 0.000000000000000D+00 0.000000000000000D+00 -.104736815472578D+03
 0.126595853300655D+03 -.351094486679732D+01 -.186632971339808D+01 0.196392503030071D+02
 0.828777776445019D+02 0.351094486679732D+01 0.186632971339808D+01 -.196392503030071D+02
 0.000000000000000D+00 -.000000000000000D+00 0.000000000000000D+00 -.000000000000000D+00
 0.155194546738021D+03 0.000000000000000D+00 0.000000000000000D+00 0.155194546738021D+03
 0.188921606604724D+03 0.000000000000000D+00 0.000000000000000D+00 -.188921606604724D+03
 0.141616409715651D+03 0.233288168591452D+02 -.591631105693361D+02 0.196392503030071D+02
 0.925452431448987D+02 0.210653699564001D+02 -.356083713544120D+02 -.196392503030071D+02
 0.109954500482195D+03 -.443941868155453D+02 0.947714819237481D+02 -.337270598667038D+02
0.180769795716D-03 0.000000000000D+00 0.000000000000D+00 0.308012041957D-02 0.000000000000D+00  5 1 -2 25 -24 21 0 0.79052923D-01 0.32843852D-02 0.10565832D+05 0.10565832D+05 0.10565832D+05 0.12655546D+01  1  2  2  2  5  2       -2 0.236792207524D+00 0.100000000000D+01
-.100384689163D-04 0.000000000000D+00 -.694203613330D-06 0.308012041957D-02 0.000000000000D+00  5 1 -2 25 -24 21 2 0.79052923D-01 0.32843852D-02 0.10565832D+05 0.10565832D+05 0.10565832D+05 0.12655546D+01  1  2  3  2  5  2       -2 -.210606040713D-01 0.100000000000D+01
0.124183565762D-04 0.000000000000D+00 0.000000000000D+00 0.308012041957D-02 0.000000000000D+00  5 1 -2 25 -24 21 2 0.79052923D-01 0.32843852D-02 0.10565832D+05 0.10565832D+05 0.10565832D+05 0.12655546D+01  1  2 15  2  5  2       -2 0.260535837934D-01 0.100000000000D+01
-.788417078357D-05 0.000000000000D+00 -.523378841445D-04 0.308012041957D-02 0.000000000000D+00  5 1 -2 25 -24 21 2 0.79052923D-01 0.87896743D-02 0.10565832D+05 0.10565832D+05 0.10565832D+05 0.12655546D+01  1  2  5  2  5  2       -2 -.378297128962D-02 0.100000000000D+01
0.220962108503D-05 0.000000000000D+00 -.573773476773D-05 0.308012041957D-02 0.000000000000D+00  5 1 21 25 -24 2 2 0.79052923D-01 0.87896743D-02 0.10565832D+05 0.10565832D+05 0.10565832D+05 0.12655546D+01  1  2  5  4  5  2       -2 0.172791686178D-01 0.100000000000D+01
  </mgrwgt>
  </event>
  <event>
  4     66 0.47139866E-03 0.22146895E+03 0.75467711E-02 0.97964031E-01
        1 -1    0    0  501    0 0.00000000E+00 0.00000000E+00 0.59641104E+03 0.59641112E+03 0.32000000E+00 0.0000E+00 0.9000E+01
       -2 -1    0    0    0  501 0.00000000E+00 0.00000000E+00 -.46982380E+03 0.46982391E+03 0.32000000E+00 0.0000E+00 0.9000E+01
       25  1    1    2    0    0 -.50862770E+03 0.56705126E+02 0.14964217E+03 0.54766357E+03 0.12500000E+03 0.0000E+00 0.9000E+01
      -24  1    1    2    0    0 0.50862770E+03 -.56705126E+02 -.23054935E+02 0.51857146E+03 0.80419002E+02 0.0000E+00 0.9000E+01
#aMCatNLO 1  0  0  2  1 0.23979222D+03 0.00000000D+00  -5  5  0 0.00000000D+00 0.00000000D+00 0.00000000D+00 0.00000000D+00 0.00000000D+00
  <mgrwgt>
 0.1585219220D+00    9    2    0
 0.529346959276370D+03 0.000000000000000D+00 0.000000000000000D+00 0.529346959276370D+03
 0.529346959276370D+03 0.000000000000000D+00 0.000000000000000D+00 -.529346959276370D+03
 0.533671997838104D+03 -.508627701822207D+03 0.567051258671500D+02 0.852243563540662D+02
 0.525021920714635D+03 0.508627701822207D+03 -.567051258671500D+02 -.852243563540662D+02
 0.000000000000000D+00 0.000000000000000D+00 -.000000000000000D+00 -.000000000000000D+00
 0.626689517453501D+03 0.000000000000000D+00 0.000000000000000D+00 0.626689517453501D+03
 0.714021199332980D+03 0.000000000000000D+00 0.000000000000000D+00 -.714021199332980D+03
 0.662960515920723D+03 -.640713753114899D+03 0.781942537743506D+02 0.852243563540662D+02
 0.422550019716447D+03 0.404033321769685D+03 -.396886279907588D+02 -.852243563540662D+02
 0.255200181149311D+03 0.236680431345214D+03 -.385056257835919D+02 -.873316818794793D+02
0.223950231776D-01 0.000000000000D+00 0.000000000000D+00 0.188211190465D-02 0.000000000000D+00  5 1 -2 25 -24 21 0 0.91755559D-01 0.72280599D-01 0.27294451D+06 0.27294451D+06 0.27294451D+06 0.11255191D+01  1  2  2  2  5  2       -2 0.121747599151D+00 0.100000000000D+01
-.124390707791D-02 0.000000000000D+00 -.860027857471D-04 0.188211190465D-02 0.000000000000D+00  5 1 -2 25 -24 21 2 0.91755559D-01 0.72280599D-01 0.27294451D+06 0.27294451D+06 0.27294451D+06 0.11255191D+01  1  2  3  2  5  2       -2 -.856648266290D-02 0.100000000000D+01
0.154079897437D-02 0.000000000000D+00 0.000000000000D+00 0.188211190465D-02 0.000000000000D+00  5 1 -2 25 -24 21 2 0.91755559D-01 0.72280599D-01 0.27294451D+06 0.27294451D+06 0.27294451D+06 0.11255191D+01  1  2 15  2  5  2       -2 0.106111042660D-01 0.100000000000D+01
0.805946303314D-02 0.000000000000D+00 0.000000000000D+00 0.188211190465D-02 0.000000000000D+00  5 1 -2 25 -24 21 2 0.91755559D-01 0.10227521D+00 0.42975786D+06 0.42975786D+06 0.42975786D+06 0.11095280D+01  1  2 12  2  5  2       -2 0.241405790011D-01 0.100000000000D+01
-.108667956347D-01 0.000000000000D+00 0.000000000000D+00 0.188211190465D-02 0.000000000000D+00  5 1 -2 25 -24 21 2 0.91755559D-01 0.72280599D-01 0.27294451D+06 0.27294451D+06 0.27294451D+06 0.11255191D+01  1  2  4  2  5  2       -2 -.748369537069D-01 0.100000000000D+01
-.175035230132D-01 0.000000000000D+00 -.774945595505D-02 0.188211190465D-02 0.000000000000D+00  5 1 -2 25 -24 21 2 0.91755559D-01 0.11120332D+00 0.27294451D+06 0.27294451D+06 0.27294451D+06 0.11255191D+01  1  2  5  2  5  2       -2 -.448069307000D-01 0.100000000000D+01
0.196569588278D-01 0.000000000000D+00 0.708204180916D-02 0.188211190465D-02 0.000000000000D+00  5 1 -2 25 -24 21 2 0.91755559D-01 0.72280599D-01 0.27294451D+06 0.27294451D+06 0.27294451D+06 0.11255191D+01  1  2  6  2  5  2       -2 0.135372649608D+00 0.100000000000D+01
0.346083254436D-03 0.000000000000D+00 0.000000000000D+00 0.188211190465D-02 0.000000000000D+00  5 1 21 25 -24 2 2 0.91755559D-01 0.10227521D+00 0.42975786D+06 0.42975786D+06 0.42975786D+06 0.11095280D+01  1  2 12  4  5  2       -2 0.110561787203D-01 0.100000000000D+01
-.588413124014D-03 0.000000000000D+00 -.389700551385D-03 0.188211190465D-02 0.000000000000D+00  5 1 21 25 -24 2 2 0.91755559D-01 0.11120332D+00 0.27294451D+06 0.27294451D+06 0.27294451D+06 0.11255191D+01  1  2  5  4  5  2       -2 -.161958216681D-01 0.100000000000D+01
  </mgrwgt>
  </event>
  <event>
  4     66 0.47139866E-03 0.43346900E+02 0.75467711E-02 0.12120951E+00
        1 -1    0    0  501    0 0.00000000E+00 0.00000000E+00 0.48484777E+03 0.48484788E+03 0.32000000E+00 0.0000E+00 0.9000E+01
       -2 -1    0    0    0  501 0.00000000E+00 0.00000000E+00 -.27153610E+02 0.27155496E+02 0.32000000E+00 0.0000E+00 0.9000E+01
       25  1    1    2    0    0 -.17329783E+02 -.35050293E+02 0.19847608E+03 0.23779529E+03 0.12500000E+03 0.0000E+00 0.9000E+01
      -24  1    1    2    0    0 0.17329783E+02 0.35050293E+02 0.25921808E+03 0.27420808E+03 0.80419002E+02 0.0000E+00 0.9000E+01
#aMCatNLO 1  0  0  2  1 0.54627188D+02 0.00000000D+00  -5  5  0 0.00000000D+00 0.00000000D+00 0.00000000D+00 0.00000000D+00 0.00000000D+00
  <mgrwgt>
 0.2122525507D+00    9    2    0
 0.114742655927719D+03 0.000000000000000D+00 0.000000000000000D+00 0.114742655927719D+03
 0.114742655927719D+03 0.000000000000000D+00 0.000000000000000D+00 -.114742655927719D+03
 0.134695532152317D+03 -.173297825850670D+02 -.350502934568765D+02 -.314490372815600D+02
 0.947897797031216D+02 0.173297825850670D+02 0.350502934568765D+02 0.314490372815600D+02
 0.000000000000000D+00 -.000000000000000D+00 -.000000000000000D+00 -.000000000000000D+00
 0.139650795915019D+03 0.000000000000000D+00 0.000000000000000D+00 0.139650795915019D+03
 0.152324904164501D+03 0.000000000000000D+00 0.000000000000000D+00 -.152324904164501D+03
 0.132389682090604D+03 0.130372480149090D+02 -.272583224412675D+02 -.314490372815600D+02
 0.103507833930210D+03 0.398758067750421D+02 0.408354480648362D+02 0.314490372815600D+02
 0.560781840587060D+02 -.529130547899511D+02 -.135771256235687D+02 -.126741082494816D+02
0.168575376292D-03 0.000000000000D+00 0.000000000000D+00 0.270780726467D-02 0.000000000000D+00  5 1 -2 25 -24 21 0 0.74592118D-01 0.41776316D-02 0.12143310D+05 0.12143310D+05 0.12143310D+05 0.12584203D+01  1  2  2  2  5  2       -2 0.168008751248D+00 0.100000000000D+01
-.934669054223D-05 0.000000000000D+00 -.647373831876D-06 0.270780726467D-02 0.000000000000D+00  5 1 -2 25 -24 21 2 0.74592118D-01 0.41776316D-02 0.12143310D+05 0.12143310D+05 0.12143310D+05 0.12584203D+01  1  2  3  2  5  2       -2 -.147518693688D-01 0.100000000000D+01
0.116669854319D-04 0.000000000000D+00 0.000000000000D+00 0.270780726467D-02 0.000000000000D+00  5 1 -2 25 -24 21 2 0.74592118D-01 0.41776316D-02 0.12143310D+05 0.12143310D+05 0.12143310D+05 0.12584203D+01  1  2 15  2  5  2       -2 0.184139877363D-01 0.100000000000D+01
0.472433922107D-04 0.000000000000D+00 0.000000000000D+00 0.270780726467D-02 0.000000000000D+00  5 1 -2 25 -24 21 2 0.74592118D-01 0.58767012D-02 0.19858706D+05 0.19858706D+05 0.19858706D+05 0.12341652D+01  1  2 12  2  5  2       -2 0.437361789568D-01 0.100000000000D+01
-.692702178917D-04 0.000000000000D+00 0.000000000000D+00 0.270780726467D-02 0.000000000000D+00  5 1 -2 25 -24 21 2 0.74592118D-01 0.41776316D-02 0.12143310D+05 0.12143310D+05 0.12143310D+05 0.12584203D+01  1  2  4  2  5  2       -2 -.109329093637D+00 0.100000000000D+01
-.105598901273D-03 0.000000000000D+00 -.587380964640D-04 0.270780726467D-02 0.000000000000D+00  5 1 -2 25 -24 21 2 0.74592118D-01 0.67484612D-02 0.12143310D+05 0.12143310D+05 0.12143310D+05 0.12584203D+01  1  2  5  2  5  2       -2 -.812317164080D-01 0.100000000000D+01
0.125249478395D-03 0.000000000000D+00 0.525754828733D-04 0.270780726467D-02 0.000000000000D+00  5 1 -2 25 -24 21 2 0.74592118D-01 0.41776316D-02 0.12143310D+05 0.12143310D+05 0.12143310D+05 0.12584203D+01  1  2  6  2  5  2       -2 0.197681086739D+00 0.100000000000D+01
0.200393663573D-05 0.000000000000D+00 0.000000000000D+00 0.270780726467D-02 0.000000000000D+00  5 1 21 25 -24 2 2 0.74592118D-01 0.58767012D-02 0.19858706D+05 0.19858706D+05 0.19858706D+05 0.12341652D+01  1  2 12  4  5  2       -2 0.322052749040D-01 0.100000000000D+01
-.323720948081D-05 0.000000000000D+00 -.320513077080D-05 0.270780726467D-02 0.000000000000D+00  5 1 21 25 -24 2 2 0.74592118D-01 0.67484612D-02 0.12143310D+05 0.12143310D+05 0.12143310D+05 0.12584203D+01  1  2  5  4  5  2       -2 -.424800494415D-01 0.100000000000D+01
  </mgrwgt>
  </event>
  <event>
  4     66 0.47139866E-03 0.11645373E+03 0.75467711E-02 0.11368971E+00
        1 -1    0    0  501    0 0.00000000E+00 0.00000000E+00 0.85849068E+01 0.85908687E+01 0.32000000E+00 0.0000E+00 0.9000E+01
       -2 -1    0    0    0  501 0.00000000E+00 0.00000000E+00 -.17555169E+04 0.17555170E+04 0.32000000E+00 0.0000E+00 0.9000E+01
       25  1    1    2    0    0 0.64813773E+01 0.53477649E+02 -.12820912E+04 0.12892962E+04 0.12500000E+03 0.0000E+00 0.9000E+01
      -24  1    1    2    0    0 -.64813773E+01 -.53477649E+02 -.46484081E+03 0.47481160E+03 0.80419002E+02 0.0000E+00 0.9000E+01
#aMCatNLO 1  0  0  1  1 0.15308697D+03 0.00000000D+00  -5  5  0 0.00000000D+00 0.00000000D+00 0.00000000D+00 0.00000000D+00 0.00000000D+00
  <mgrwgt>
 0.1119451807D+00    5    2    0
 0.122785315482031D+03 0.000000000000000D+00 0.000000000000000D+00 0.122785315482031D+03
 0.122785315482031D+03 0.000000000000000D+00 0.000000000000000D+00 -.122785315482031D+03
 0.141431242337531D+03 0.648137730759069D+01 0.534776485553256D+02 -.384178234980469D+02
 0.104139388626532D+03 -.648137730759069D+01 -.534776485553256D+02 0.384178234980469D+02
 0.000000000000000D+00 -.000000000000000D+00 0.000000000000000D+00 0.000000000000000D+00
 0.433718319155876D+03 0.000000000000000D+00 0.000000000000000D+00 0.433718319155876D+03
 0.164960828091592D+03 0.000000000000000D+00 0.000000000000000D+00 -.164960828091592D+03
 0.133393684379389D+03 0.774407960283370D+01 -.251589964244609D+02 -.384178234980469D+02
 0.155985917976003D+03 -.528621344228331D+01 -.127908238349065D+03 0.384178234980469D+02
 0.309299544892076D+03 -.245786616055039D+01 0.153067234773526D+03 0.268757491064284D+03
0.282064005341D-02 0.000000000000D+00 0.000000000000D+00 0.249971342127D-02 0.000000000000D+00  5 1 -2 25 -24 21 0 0.13212157D-02 0.27007999D+00 0.13561471D+05 0.13561471D+05 0.13561471D+05 0.12528451D+01  1  2  2  1  5  1        1 0.143781468007D+00 0.100000000000D+01
-.156168177043D-03 0.000000000000D+00 -.108320004967D-04 0.249971342127D-02 0.000000000000D+00  5 1 -2 25 -24 21 2 0.13212157D-02 0.27007999D+00 0.13561471D+05 0.13561471D+05 0.13561471D+05 0.12528451D+01  1  2  3  1  5  1        1 -.124951810990D-01 0.100000000000D+01
0.195021466176D-03 0.000000000000D+00 0.000000000000D+00 0.249971342127D-02 0.000000000000D+00  5 1 -2 25 -24 21 2 0.13212157D-02 0.27007999D+00 0.13561471D+05 0.13561471D+05 0.13561471D+05 0.12528451D+01  1  2 15  1  5  1        1 0.156038738762D-01 0.100000000000D+01
-.905514661966D-03 0.000000000000D+00 -.142445822010D-02 0.249971342127D-02 0.000000000000D+00  5 1 -2 25 -24 21 2 0.65997800D-02 0.27007999D+00 0.13561471D+05 0.13561471D+05 0.13561471D+05 0.12528451D+01  1  2  5  1  5  1        1 -.791567822916D-02 0.100000000000D+01
-.217703791185D-03 0.000000000000D+00 -.279231718541D-03 0.249971342127D-02 0.000000000000D+00  5 21 -2 25 -24 -1 2 0.65997800D-02 0.27007999D+00 0.13561471D+05 0.13561471D+05 0.13561471D+05 0.12528451D+01  1  2  5  3  5  1        1 -.270293018448D-01 0.100000000000D+01
  </mgrwgt>
  </event>
  <event>
  4     66 0.47139866E-03 0.15843944E+03 0.75467711E-02 0.11319975E+00
        1 -1    0    0  501    0 0.00000000E+00 0.00000000E+00 0.58921737E+02 0.58922606E+02 0.32000000E+00 0.0000E+00 0.9000E+01
       -2 -1    0    0    0  501 0.00000000E+00 0.00000000E+00 -.42625282E+03 0.42625294E+03 0.32000000E+00 0.0000E+00 0.9000E+01
       25  1    1    2    0    0 -.20891920E+02 0.11759795E+03 -.20584883E+03 0.26882055E+03 0.12500000E+03 0.0000E+00 0.9000E+01
      -24  1    1    2    0    0 0.20891920E+02 -.11759795E+03 -.16148226E+03 0.21635500E+03 0.80419002E+02 0.0000E+00 0.9000E+01
#aMCatNLO 1  0  0  2  2 0.10974981D+03 0.00000000D+00  -5  5  0 0.00000000D+00 0.00000000D+00 0.00000000D+00 0.00000000D+00 0.00000000D+00
  <mgrwgt>
 0.1946879199D+00    3    2    0
 0.158479641490637D+03 0.000000000000000D+00 0.000000000000000D+00 0.158479641490637D+03
 0.158479641490637D+03 0.000000000000000D+00 0.000000000000000D+00 -.158479641490637D+03
 0.172925951375447D+03 -.208919196241731D+02 0.117597946247325D+03 -.355462964760526D+01
 0.144033331605826D+03 0.208919196241731D+02 -.117597946247325D+03 0.355462964760526D+01
 0.000000000000000D+00 -.000000000000000D+00 0.000000000000000D+00 0.000000000000000D+00
 0.273503732351286D+03 0.000000000000000D+00 0.000000000000000D+00 0.273503732351286D+03
 0.196174999938624D+03 0.000000000000000D+00 0.000000000000000D+00 -.196174999938624D+03
 0.151094535631822D+03 0.206132518262425D+02 0.822618815431068D+02 -.355462964760526D+01
 0.184327896890018D+03 0.629531152364227D+02 -.153407390655159D+03 0.355462964760526D+01
 0.134256299768071D+03 -.835663670626652D+02 0.711455091120521D+02 0.773287324126617D+02
0.138339262774D-02 0.000000000000D+00 0.000000000000D+00 0.234649684947D-02 0.000000000000D+00  5 1 -2 25 -24 21 0 0.90649587D-02 0.65577433D-01 0.25103055D+05 0.25103055D+05 0.25103055D+05 0.12231061D+01  1  2  2  2  5  2       -2 0.190804417905D+00 0.100000000000D+01
-.768551399701D-04 0.000000000000D+00 -.531259194615D-05 0.234649684947D-02 0.000000000000D+00  5 1 -2 25 -24 21 2 0.90649587D-02 0.65577433D-01 0.25103055D+05 0.25103055D+05 0.25103055D+05 0.12231061D+01  1  2  3  2  5  2       -2 -.158578455665D-01 0.100000000000D+01
0.956765546464D-04 0.000000000000D+00 0.000000000000D+00 0.234649684947D-02 0.000000000000D+00  5 1 -2 25 -24 21 2 0.90649587D-02 0.65577433D-01 0.25103055D+05 0.25103055D+05 0.25103055D+05 0.12231061D+01  1  2 15  2  5  2       -2 0.197413475339D-01 0.100000000000D+01
  </mgrwgt>
  </event>
  <event>
  4     66 0.47139866E-03 0.77218239E+02 0.75467711E-02 0.12444908E+00
        1 -1    0    0  501    0 0.00000000E+00 0.00000000E+00 0.85884534E+02 0.85885131E+02 0.32000000E+00 0.0000E+00 0.9000E+01
       -2 -1    0    0    0  501 0.00000000E+00 0.00000000E+00 -.18787876E+03 0.18787903E+03 0.32000000E+00 0.0000E+00 0.9000E+01
       25  1    1    2    0    0 0.16206730E+02 0.55219707E+02 -.88184504E+01 0.13789358E+03 0.12500000E+03 0.0000E+00 0.9000E+01
      -24  1    1    2    0    0 -.16206730E+02 -.55219707E+02 -.93175770E+02 0.13587058E+03 0.80419002E+02 0.0000E+00 0.9000E+01
#aMCatNLO 1  0  0  1  2 0.18054074D+01 0.00000000D+00  -5  5  0 0.00000000D+00 0.00000000D+00 0.00000000D+00 0.00000000D+00 0.00000000D+00
  <mgrwgt>
 0.1675599578D+00    8    2    0
 0.127027549451412D+03 0.000000000000000D+00 0.000000000000000D+00 0.127027549451412D+03
 0.127027549451412D+03 0.000000000000000D+00 0.000000000000000D+00 -.127027549451412D+03
 0.145050773714925D+03 0.162067301736888D+02 0.552197067761392D+02 0.458568733772040D+02
 0.109004325187898D+03 -.162067301736888D+02 -.552197067761392D+02 -.458568733772040D+02
 0.000000000000000D+00 0.000000000000000D+00 -.000000000000000D+00 -.000000000000000D+00
 0.127845730972395D+03 0.000000000000000D+00 0.000000000000000D+00 0.127845730972395D+03
 0.128030634025095D+03 0.000000000000000D+00 0.000000000000000D+00 -.128030634025095D+03
 0.144946676995956D+03 0.151765126041048D+02 0.552391147776161D+02 0.458568733772040D+02
 0.109114836764778D+03 -.169815997194582D+02 -.552051092098264D+02 -.458568733772040D+02
 0.181485123675556D+01 0.180508711535341D+01 -.340055677896407D-01 -.184903052699556D+00
0.373713878619D-03 0.000000000000D+00 0.000000000000D+00 0.235864722162D-02 0.000000000000D+00  5 1 -2 25 -24 21 0 0.13213072D-01 0.28904491D-01 0.13983133D+05 0.13983133D+05 0.13983133D+05 0.12513131D+01  1  2  2  1  5  1        1 0.149798854379D+00 0.100000000000D+01
-.206324686574D-04 0.000000000000D+00 -.143515969502D-05 0.235864722162D-02 0.000000000000D+00  5 1 -2 25 -24 21 2 0.13213072D-01 0.28904491D-01 0.13983133D+05 0.13983133D+05 0.13983133D+05 0.12513131D+01  1  2  3  1  5  1        1 -.129494834954D-01 0.100000000000D+01
0.258744212740D-04 0.000000000000D+00 0.000000000000D+00 0.235864722162D-02 0.000000000000D+00  5 1 -2 25 -24 21 2 0.13213072D-01 0.28904491D-01 0.13983133D+05 0.13983133D+05 0.13983133D+05 0.12513131D+01  1  2 15  1  5  1        1 0.162394717182D-01 0.100000000000D+01
0.874154705109D-07 0.000000000000D+00 0.000000000000D+00 0.235864722162D-02 0.000000000000D+00  5 1 -2 25 -24 21 2 0.13349974D-01 0.28904491D-01 0.14198877D+05 0.14198877D+05 0.14198877D+05 0.12505492D+01  1  2 12  1  5  1        1 0.540967963990D-04 0.100000000000D+01
-.351241538204D-02 0.000000000000D+00 0.000000000000D+00 0.235864722162D-02 0.000000000000D+00  5 1 -2 25 -24 21 2 0.13213072D-01 0.28904491D-01 0.13983133D+05 0.13983133D+05 0.13983133D+05 0.12513131D+01  1  2  4  1  5  1        1 -.220448487157D+01 0.100000000000D+01
0.351255980963D-02 0.000000000000D+00 0.000000000000D+00 0.235864722162D-02 0.603584586498D-02  5 1 -2 25 -24 21 2 0.13298177D-01 0.29132738D-01 0.14198877D+05 0.14198877D+05 0.14198877D+05 0.12505492D+01  1  2 11  1  5  1        1 0.215430911018D+01 0.100000000000D+01
0.625586256442D-08 0.000000000000D+00 0.000000000000D+00 0.235864722162D-02 0.000000000000D+00  5 21 -2 25 -24 -1 2 0.13349974D-01 0.28904491D-01 0.14198877D+05 0.14198877D+05 0.14198877D+05 0.12505492D+01  1  2 12  3  5  1        1 0.410230344894D-04 0.100000000000D+01
0.991402119167D-05 0.000000000000D+00 0.000000000000D+00 0.235864722162D-02 0.723081420934D-05  5 21 -2 25 -24 -1 2 0.13298177D-01 0.29132738D-01 0.14198877D+05 0.14198877D+05 0.14198877D+05 0.12505492D+01  1  2 11  3  5  1        1 0.645517567790D-01 0.100000000000D+01
  </mgrwgt>
  </event>
  <event>
  5     66 0.47139866E-03 0.12885080E+03 0.75467711E-02 0.12193939E+00
        1 -1    0    0  501    0 0.00000000E+00 0.00000000E+00 0.54047318E+03 0.54047328E+03 0.32000000E+00 0.0000E+00 0.9000E+01
       21 -1    0    0  502  501 0.00000000E+00 0.00000000E+00 -.40292949E+02 0.40299929E+02 0.75000000E+00 0.0000E+00 0.9000E+01
       25  1    1    2    0    0 0.76396139E+02 -.30845347E+02 0.35118616E+03 0.38176501E+03 0.12500000E+03 0.0000E+00 0.9000E+01
      -24  1    1    2    0    0 -.63656792E+02 0.34499671E+02 0.96906697E+02 0.14526024E+03 0.80419002E+02 0.0000E+00 0.9000E+01
        2  1    1    2  502    0 -.12739347E+02 -.36543235E+01 0.52087375E+02 0.53747950E+02 0.32000000E+00 0.0000E+00 0.9000E+01
#aMCatNLO 2  0  0  2  2 0.13253114D+02 0.00000000D+00  -5  5  0 0.00000000D+00 0.00000000D+00 0.00000000D+00 0.00000000D+00 0.00000000D+00
  <mgrwgt>
 0.6891025081D-01    1    2    0
 0.138557538781057D+03 0.000000000000000D+00 0.000000000000000D+00 0.138557538781057D+03
 0.138557538781057D+03 0.000000000000000D+00 0.000000000000000D+00 -.138557538781057D+03
 0.155080970357198D+03 0.692037459388231D+02 -.329085087678261D+02 0.505270122374451D+02
 0.122034107204915D+03 -.692037459388231D+02 0.329085087678261D+02 -.505270122374451D+02
 0.000000000000000D+00 -.000000000000000D+00 -.000000000000000D+00 0.000000000000000D+00
 0.153770037758576D+03 0.000000000000000D+00 0.000000000000000D+00 0.153770037758576D+03
 0.141632797921420D+03 0.000000000000000D+00 0.000000000000000D+00 -.141632797921420D+03
 0.158005646796720D+03 0.763961386740324D+02 -.308453472942828D+02 0.505270122374451D+02
 0.119426166902477D+03 -.636567917536883D+02 0.344996707902024D+02 -.505270122374451D+02
 0.179710219807993D+02 -.127393469203441D+02 -.365432349591954D+01 0.121372398371565D+02
0.538659211237D-05 0.000000000000D+00 0.000000000000D+00 0.221545055739D-02 0.446651654429D-06  5 1 21 25 -24 2 2 0.83149440D-01 0.61993980D-02 0.18383730D+05 0.18383730D+05 0.18383730D+05 0.12378754D+01  1  2  1  4  5  2       -2 0.689102508082D-01 0.100000000000D+01
  </mgrwgt>
  </event>
  <event>
  4     66 0.47139866E-03 0.75146568E+02 0.75467711E-02 0.12401313E+00
        1 -1    0    0  501    0 0.00000000E+00 0.00000000E+00 0.83856253E+03 0.83856259E+03 0.32000000E+00 0.0000E+00 0.9000E+01
       -2 -1    0    0    0  501 0.00000000E+00 0.00000000E+00 -.15432033E+02 0.15435350E+02 0.32000000E+00 0.0000E+00 0.9000E+01
       25  1    1    2    0    0 -.44520241E+02 -.17567034E+02 0.49647775E+03 0.51420406E+03 0.12500000E+03 0.0000E+00 0.9000E+01
      -24  1    1    2    0    0 0.44520241E+02 0.17567034E+02 0.32665274E+03 0.33979388E+03 0.80419002E+02 0.0000E+00 0.9000E+01
#aMCatNLO 1  0  0  1  2 0.15661115D+02 0.00000000D+00  -5  5  0 0.00000000D+00 0.00000000D+00 0.00000000D+00 0.00000000D+00 0.00000000D+00
  <mgrwgt>
 0.3930130548D+00    9    2    0
 0.113763644922236D+03 0.000000000000000D+00 0.000000000000000D+00 0.113763644922236D+03
 0.113763644922236D+03 0.000000000000000D+00 0.000000000000000D+00 -.113763644922236D+03
 0.133888228773011D+03 -.445202413208434D+02 -.175670339030137D+02 0.322571489106446D+01
 0.936390610714606D+02 0.445202413208434D+02 0.175670339030137D+02 -.322571489106446D+01
 0.000000000000000D+00 0.000000000000000D+00 0.000000000000000D+00 0.000000000000000D+00
 0.122251523035157D+03 0.000000000000000D+00 0.000000000000000D+00 0.122251523035157D+03
 0.121493566658356D+03 0.000000000000000D+00 0.000000000000000D+00 -.121493566658356D+03
 0.137398885928867D+03 -.537692553053313D+02 -.187594190167383D+02 0.322571489106446D+01
 0.906667584203136D+02 0.382366878104778D+02 0.167569566688763D+02 -.322571489106446D+01
 0.156794453443327D+02 0.155325674948535D+02 0.200246234786193D+01 0.757956376800880D+00
0.139554419775D-03 0.000000000000D+00 0.000000000000D+00 0.291378672720D-02 0.000000000000D+00  5 1 -2 25 -24 21 0 0.12900988D+00 0.23744187D-02 0.12931425D+05 0.12931425D+05 0.12931425D+05 0.12552369D+01  1  2  2  1  5  1        1 0.149303248333D+00 0.100000000000D+01
-.775302169612D-05 0.000000000000D+00 -.535925717460D-06 0.291378672720D-02 0.000000000000D+00  5 1 -2 25 -24 21 2 0.12900988D+00 0.23744187D-02 0.12931425D+05 0.12931425D+05 0.12931425D+05 0.12552369D+01  1  2  3  1  5  1        1 -.130691722825D-01 0.100000000000D+01
0.965617318923D-05 0.000000000000D+00 0.000000000000D+00 0.291378672720D-02 0.000000000000D+00  5 1 -2 25 -24 21 2 0.12900988D+00 0.23744187D-02 0.12931425D+05 0.12931425D+05 0.12931425D+05 0.12552369D+01  1  2 15  1  5  1        1 0.162772910933D-01 0.100000000000D+01
0.219453867855D-03 0.000000000000D+00 0.000000000000D+00 0.291378672720D-02 0.000000000000D+00  5 1 -2 25 -24 21 2 0.14271362D+00 0.23744187D-02 0.14839076D+05 0.14839076D+05 0.14839076D+05 0.12483569D+01  1  2 12  1  5  1        1 0.313710700371D+00 0.100000000000D+01
-.177447787048D-03 0.000000000000D+00 0.000000000000D+00 0.291378672720D-02 0.000000000000D+00  5 1 -2 25 -24 21 2 0.12900988D+00 0.23744187D-02 0.12931425D+05 0.12931425D+05 0.12931425D+05 0.12552369D+01  1  2  4  1  5  1        1 -.299121528481D+00 0.100000000000D+01
-.762805209002D-03 0.000000000000D+00 -.167059662228D-03 0.291378672720D-02 0.000000000000D+00  5 1 -2 25 -24 21 2 0.14562800D+00 0.23744187D-02 0.12931425D+05 0.12931425D+05 0.12931425D+05 0.12552369D+01  1  2  5  1  5  1        1 -.106259326916D+01 0.100000000000D+01
0.778544087320D-03 0.000000000000D+00 0.165840792074D-03 0.291378672720D-02 0.000000000000D+00  5 1 -2 25 -24 21 2 0.12900988D+00 0.23744187D-02 0.12931425D+05 0.12931425D+05 0.12931425D+05 0.12552369D+01  1  2  6  1  5  1        1 0.131238208863D+01 0.100000000000D+01
0.359367872356D-05 0.000000000000D+00 0.000000000000D+00 0.291378672720D-02 0.000000000000D+00  5 21 -2 25 -24 -1 2 0.14271362D+00 0.23744187D-02 0.14839076D+05 0.14839076D+05 0.14839076D+05 0.12483569D+01  1  2 12  3  5  1        1 0.887206326710D-02 0.100000000000D+01
-.138048757495D-04 0.000000000000D+00 -.319561749809D-05 0.291378672720D-02 0.000000000000D+00  5 21 -2 25 -24 -1 2 0.14562800D+00 0.23744187D-02 0.12931425D+05 0.12931425D+05 0.12931425D+05 0.12552369D+01  1  2  5  3  5  1        1 -.327483670171D-01 0.100000000000D+01
  </mgrwgt>
  </event>
  <event>
  4     66 0.47139866E-03 0.11716741E+03 0.75467711E-02 0.11778134E+00
        3 -1    0    0  501    0 0.00000000E+00 0.00000000E+00 0.30126283E+03 0.30126324E+03 0.50000000E+00 0.0000E+00 0.9000E+01
       -4 -1    0    0    0  501 0.00000000E+00 0.00000000E+00 -.49849055E+02 0.49873147E+02 0.15500000E+01 0.0000E+00 0.9000E+01
       25  1    1    2    0    0 -.25935104E+01 0.55291756E+02 0.94000335E+02 0.16590650E+03 0.12500000E+03 0.0000E+00 0.9000E+01
      -24  1    1    2    0    0 0.25935104E+01 -.55291756E+02 0.15741344E+03 0.18522989E+03 0.80419002E+02 0.0000E+00 0.9000E+01
#aMCatNLO 1  0  0  1  2 0.89667384D+02 0.00000000D+00  -5  5  0 0.00000000D+00 0.00000000D+00 0.00000000D+00 0.00000000D+00 0.00000000D+00
  <mgrwgt>
 0.4191156197D-01    6    2    0
 0.122564145310239D+03 0.000000000000000D+00 0.000000000000000D+00 0.122564145310239D+03
 0.122564145310239D+03 0.000000000000000D+00 0.000000000000000D+00 -.122564145310239D+03
 0.141243719223248D+03 -.259351041131012D+01 0.552917561621343D+02 -.355089231640328D+02
 0.103884571397230D+03 0.259351041131012D+01 -.552917561621343D+02 0.355089231640328D+02
 0.000000000000000D+00 0.000000000000000D+00 -.000000000000000D+00 0.000000000000000D+00
 0.193399535914866D+03 0.000000000000000D+00 0.000000000000000D+00 0.193399535914866D+03
 0.162466956752951D+03 0.000000000000000D+00 0.000000000000000D+00 -.162466956752951D+03
 0.163854067628945D+03 -.446178997838201D+02 0.892833404010112D+02 -.355089231640328D+02
 0.971595692829334D+02 -.250984546343030D+02 -.328930068491047D+02 0.355089231640328D+02
 0.948528557559380D+02 0.697163544181231D+02 -.563903335519065D+02 0.309325791619152D+02
0.231159120903D-03 0.000000000000D+00 0.000000000000D+00 0.253661341960D-02 0.000000000000D+00  5 3 -4 25 -24 21 0 0.46350013D-01 0.76709705D-02 0.13728203D+05 0.13728203D+05 0.13728203D+05 0.12522330D+01  1  2  2  1  5  1        3 0.242094500735D-01 0.100000000000D+01
-.128105114029D-04 0.000000000000D+00 -.887711889861D-06 0.253661341960D-02 0.000000000000D+00  5 3 -4 25 -24 21 2 0.46350013D-01 0.76709705D-02 0.13728203D+05 0.13728203D+05 0.13728203D+05 0.12522330D+01  1  2  3  1  5  1        3 -.210383008787D-02 0.100000000000D+01
0.159981343635D-04 0.000000000000D+00 0.000000000000D+00 0.253661341960D-02 0.000000000000D+00  5 3 -4 25 -24 21 2 0.46350013D-01 0.76709705D-02 0.13728203D+05 0.13728203D+05 0.13728203D+05 0.12522330D+01  1  2 15  1  5  1        3 0.262732340382D-02 0.100000000000D+01
-.892770197202D-04 0.000000000000D+00 -.858399156629D-04 0.253661341960D-02 0.000000000000D+00  5 3 -4 25 -24 21 2 0.92605610D-01 0.76709705D-02 0.13728203D+05 0.13728203D+05 0.13728203D+05 0.12522330D+01  1  2  5  1  5  1        3 -.346010021027D-02 0.100000000000D+01
0.132733285075D-03 0.000000000000D+00 0.687139091864D-04 0.253661341960D-02 0.000000000000D+00  5 3 -4 25 -24 21 2 0.46350013D-01 0.76709705D-02 0.13728203D+05 0.13728203D+05 0.13728203D+05 0.12522330D+01  1  2  6  1  5  1        3 0.217983708863D-01 0.100000000000D+01
-.154004752805D-05 0.000000000000D+00 -.642881350412D-05 0.253661341960D-02 0.000000000000D+00  5 21 -4 25 -24 -3 2 0.92605610D-01 0.76709705D-02 0.13728203D+05 0.13728203D+05 0.13728203D+05 0.12522330D+01  1  2  5  3  5  1        3 -.115965209373D-02 0.100000000000D+01
  </mgrwgt>
  </event>
  <event>
  4     66 0.47139866E-03 0.53977393E+02 0.75467711E-02 0.12020689E+00
        1 -1    0    0  501    0 0.00000000E+00 0.00000000E+00 0.70528253E+03 0.70528260E+03 0.32000000E+00 0.0000E+00 0.9000E+01
       -2 -1    0    0    0  501 0.00000000E+00 0.00000000E+00 -.19710198E+02 0.19712795E+02 0.32000000E+00 0.0000E+00 0.9000E+01
       25  1    1    2    0    0 -.39377026E+02 0.36598042E+02 0.34228274E+03 0.36833740E+03 0.12500000E+03 0.0000E+00 0.9000E+01
      -24  1    1    2    0    0 0.39377026E+02 -.36598042E+02 0.34328959E+03 0.35665800E+03 0.80419002E+02 0.0000E+00 0.9000E+01
#aMCatNLO 1  0  0  2  1 0.57550615D+02 0.00000000D+00  -5  5  0 0.00000000D+00 0.00000000D+00 0.00000000D+00 0.00000000D+00 0.00000000D+00
  <mgrwgt>
 0.1961297439D+00    9    2    0
 0.117907701903783D+03 0.000000000000000D+00 0.000000000000000D+00 0.117907701903783D+03
 0.117907701903783D+03 0.000000000000000D+00 0.000000000000000D+00 -.117907701903783D+03
 0.137324974689539D+03 -.393770258273537D+02 0.365980421498837D+02 -.185251672399968D+02
 0.984904291180272D+02 0.393770258273537D+02 -.365980421498837D+02 0.185251672399968D+02
 0.000000000000000D+00 -.000000000000000D+00 -.000000000000000D+00 -.000000000000000D+00
 0.136271299518879D+03 0.000000000000000D+00 0.000000000000000D+00 0.136271299518879D+03
 0.176928429423413D+03 0.000000000000000D+00 0.000000000000000D+00 -.176928429423413D+03
 0.132681978513900D+03 -.706719000893364D+01 0.398293914900882D+02 -.185251672399968D+02
 0.110054458685240D+03 0.643321279302894D+02 -.341022494393220D+02 0.185251672399968D+02
 0.704632917431519D+02 -.572649379213558D+02 -.572714205076623D+01 -.406571299045340D+02
0.182133324630D-03 0.000000000000D+00 0.000000000000D+00 0.276456985287D-02 0.000000000000D+00  5 1 -2 25 -24 21 0 0.10850521D+00 0.30325435D-02 0.13549221D+05 0.13549221D+05 0.13549221D+05 0.12528904D+01  1  2  2  2  5  2       -2 0.176299289897D+00 0.100000000000D+01
-.101164834446D-04 0.000000000000D+00 -.699439923385D-06 0.276456985287D-02 0.000000000000D+00  5 1 -2 25 -24 21 2 0.10850521D+00 0.30325435D-02 0.13549221D+05 0.13549221D+05 0.13549221D+05 0.12528904D+01  1  2  3  2  5  2       -2 -.153715230437D-01 0.100000000000D+01
0.126101278519D-04 0.000000000000D+00 0.000000000000D+00 0.276456985287D-02 0.000000000000D+00  5 1 -2 25 -24 21 2 0.10850521D+00 0.30325435D-02 0.13549221D+05 0.13549221D+05 0.13549221D+05 0.12528904D+01  1  2 15  2  5  2       -2 0.191604989937D-01 0.100000000000D+01
0.719403570874D-04 0.000000000000D+00 0.000000000000D+00 0.276456985287D-02 0.000000000000D+00  5 1 -2 25 -24 21 2 0.10850521D+00 0.46917635D-02 0.22114231D+05 0.22114231D+05 0.22114231D+05 0.12290502D+01  1  2 12  2  5  2       -2 0.558849189750D-01 0.100000000000D+01
-.110652065797D-03 0.000000000000D+00 0.000000000000D+00 0.276456985287D-02 0.000000000000D+00  5 1 -2 25 -24 21 2 0.10850521D+00 0.30325435D-02 0.13549221D+05 0.13549221D+05 0.13549221D+05 0.12528904D+01  1  2  4  2  5  2       -2 -.168130634380D+00 0.100000000000D+01
-.132769171785D-03 0.000000000000D+00 -.590810588529D-04 0.276456985287D-02 0.000000000000D+00  5 1 -2 25 -24 21 2 0.10850521D+00 0.52635706D-02 0.13549221D+05 0.13549221D+05 0.13549221D+05 0.12528904D+01  1  2  5  2  5  2       -2 -.891652142411D-01 0.100000000000D+01
0.149938265281D-03 0.000000000000D+00 0.511118725823D-04 0.276456985287D-02 0.000000000000D+00  5 1 -2 25 -24 21 2 0.10850521D+00 0.30325435D-02 0.13549221D+05 0.13549221D+05 0.13549221D+05 0.12528904D+01  1  2  6  2  5  2       -2 0.227824175517D+00 0.100000000000D+01
0.365288445353D-05 0.000000000000D+00 0.000000000000D+00 0.276456985287D-02 0.000000000000D+00  5 1 21 25 -24 2 2 0.10850521D+00 0.46917635D-02 0.22114231D+05 0.22114231D+05 0.22114231D+05 0.12290502D+01  1  2 12  4  5  2       -2 0.512222209327D-01 0.100000000000D+01
-.514880783071D-05 0.000000000000D+00 -.360700145637D-05 0.276456985287D-02 0.000000000000D+00  5 1 21 25 -24 2 2 0.10850521D+00 0.52635706D-02 0.13549221D+05 0.13549221D+05 0.13549221D+05 0.12528904D+01  1  2  5  4  5  2       -2 -.615939887566D-01 0.100000000000D+01
  </mgrwgt>
  </event>
  <event>
  5     66 0.47139866E-03 0.12879675E+03 0.75467711E-02 0.12213683E+00
        1 -1    0    0  501    0 0.00000000E+00 0.00000000E+00 0.46926934E+03 0.46926945E+03 0.32000000E+00 0.0000E+00 0.9000E+01
       -2 -1    0    0    0  502 0.00000000E+00 0.00000000E+00 -.40396878E+02 0.40398145E+02 0.32000000E+00 0.0000E+00 0.9000E+01
       25  1    1    2    0    0 0.36357048E+01 0.71821366E+02 0.18049210E+03 0.23102797E+03 0.12500000E+03 0.0000E+00 0.9000E+01
      -24  1    1    2    0    0 0.27667797E+01 -.80210441E+02 0.20926250E+03 0.23811632E+03 0.80419002E+02 0.0000E+00 0.9000E+01
       21  1    1    2  501  502 -.64024845E+01 0.83890753E+01 0.39117862E+02 0.40523302E+02 0.75000000E+00 0.0000E+00 0.9000E+01
#aMCatNLO 2  0  0  2  1 0.10553122D+02 0.00000000D+00  -5  5  0 0.00000000D+00 0.00000000D+00 0.00000000D+00 0.00000000D+00 0.00000000D+00
  <mgrwgt>
 0.9583350266D-01    1    2    0
 0.130457223761122D+03 0.000000000000000D+00 0.000000000000000D+00 0.130457223761122D+03
 0.130457223761122D+03 0.000000000000000D+00 0.000000000000000D+00 -.130457223761122D+03
 0.148006623828071D+03 0.339962086345424D-01 0.765406284399491D+02 -.205546038458433D+02
 0.112907823694174D+03 -.339962086345424D-01 -.765406284399491D+02 0.205546038458433D+02
 0.000000000000000D+00 -.000000000000000D+00 0.000000000000000D+00 0.000000000000000D+00
 0.142660033263085D+03 0.000000000000000D+00 0.000000000000000D+00 0.142660033263085D+03
 0.132865623295113D+03 0.000000000000000D+00 0.000000000000000D+00 -.132865623295113D+03
 0.145667493629811D+03 0.363570482062928D+01 0.718213659824766D+02 -.205546038458433D+02
 0.115460286045127D+03 0.276677968088851D+01 -.802104412791116D+02 0.205546038458433D+02
 0.143978768832595D+02 -.640248450151778D+01 0.838907529663496D+01 0.979440996797214D+01
0.107492730326D-03 0.000000000000D+00 0.000000000000D+00 0.255715951623D-02 0.188755932461D-03  5 1 -2 25 -24 21 2 0.72190147D-01 0.62145589D-02 0.18006834D+05 0.18006834D+05 0.18006834D+05 0.12388772D+01  1  2  1  2  5  2       -2 0.958335026641D-01 0.100000000000D+01
  </mgrwgt>
  </event>
  <event>
  4     66 0.47139866E-03 0.63854727E+02 0.75467711E-02 0.12061500E+00
        1 -1    0    0  501    0 0.00000000E+00 0.00000000E+00 0.11891598E+04 0.11891599E+04 0.32000000E+00 0.0000E+00 0.9000E+01
       -2 -1    0    0    0  501 0.00000000E+00 0.00000000E+00 -.14699499E+02 0.14702982E+02 0.32000000E+00 0.0000E+00 0.9000E+01
       25  1    1    2    0    0 -.49626380E+02 0.63802476E+02 0.72889350E+03 0.74393835E+03 0.12500000E+03 0.0000E+00 0.9000E+01
      -24  1    1    2    0    0 0.49626380E+02 -.63802476E+02 0.44556684E+03 0.45992452E+03 0.80419002E+02 0.0000E+00 0.9000E+01
#aMCatNLO 1  0  0  1  2 0.26704737D+02 0.00000000D+00  -5  5  0 0.00000000D+00 0.00000000D+00 0.00000000D+00 0.00000000D+00 0.00000000D+00
  <mgrwgt>
 0.3372063050D+00    9    2    0
 0.132220179728380D+03 0.000000000000000D+00 0.000000000000000D+00 0.132220179728380D+03
 0.132220179728380D+03 0.000000000000000D+00 0.000000000000000D+00 -.132220179728380D+03
 0.149535585108335D+03 -.496263801856584D+02 0.638024764811025D+02 0.142252451029495D+02
 0.114904774348426D+03 0.496263801856584D+02 -.638024764811025D+02 -.142252451029495D+02
 0.000000000000000D+00 0.000000000000000D+00 0.000000000000000D+00 0.000000000000000D+00
 0.150241689596014D+03 0.000000000000000D+00 0.000000000000000D+00 0.150241689596014D+03
 0.143169085592758D+03 0.000000000000000D+00 0.000000000000000D+00 -.143169085592758D+03
 0.147511365663257D+03 -.575933598138525D+02 0.511395180555343D+02 0.142252451029495D+02
 0.118273973813053D+03 0.433723845411828D+02 -.737427663444557D+02 -.142252451029495D+02
 0.276254357124622D+02 0.142209752726697D+02 0.226032482889214D+02 0.707260400325585D+01
0.236826715672D-03 0.000000000000D+00 0.000000000000D+00 0.256456471075D-02 0.000000000000D+00  5 1 -2 25 -24 21 0 0.18294794D+00 0.22617326D-02 0.17276244D+05 0.17276244D+05 0.17276244D+05 0.12408877D+01  1  2  2  1  5  1        1 0.152179175728D+00 0.100000000000D+01
-.131564782267D-04 0.000000000000D+00 -.909476946088D-06 0.256456471075D-02 0.000000000000D+00  5 1 -2 25 -24 21 2 0.18294794D+00 0.22617326D-02 0.17276244D+05 0.17276244D+05 0.17276244D+05 0.12408877D+01  1  2  3  1  5  1        1 -.130175475548D-01 0.100000000000D+01
0.163527189685D-04 0.000000000000D+00 0.000000000000D+00 0.256456471075D-02 0.000000000000D+00  5 1 -2 25 -24 21 2 0.18294794D+00 0.22617326D-02 0.17276244D+05 0.17276244D+05 0.17276244D+05 0.12408877D+01  1  2 15  1  5  1        1 0.161800364167D-01 0.100000000000D+01
0.286430916183D-03 0.000000000000D+00 0.000000000000D+00 0.256456471075D-02 0.000000000000D+00  5 1 -2 25 -24 21 2 0.21461713D+00 0.22617326D-02 0.21162102D+05 0.21162102D+05 0.21162102D+05 0.12311347D+01  1  2 12  1  5  1        1 0.203762047377D+00 0.100000000000D+01
-.265174600914D-03 0.000000000000D+00 0.000000000000D+00 0.256456471075D-02 0.000000000000D+00  5 1 -2 25 -24 21 2 0.18294794D+00 0.22617326D-02 0.17276244D+05 0.17276244D+05 0.17276244D+05 0.12408877D+01  1  2  4  1  5  1        1 -.262374392163D+00 0.100000000000D+01
-.769734324635D-03 0.000000000000D+00 -.189703199960D-03 0.256456471075D-02 0.000000000000D+00  5 1 -2 25 -24 21 2 0.21812551D+00 0.22617326D-02 0.17276244D+05 0.17276244D+05 0.17276244D+05 0.12408877D+01  1  2  5  1  5  1        1 -.535803574991D+00 0.100000000000D+01
0.793687637710D-03 0.000000000000D+00 0.186806787788D-03 0.256456471075D-02 0.000000000000D+00  5 1 -2 25 -24 21 2 0.18294794D+00 0.22617326D-02 0.17276244D+05 0.17276244D+05 0.17276244D+05 0.12408877D+01  1  2  6  1  5  1        1 0.785306401117D+00 0.100000000000D+01
0.687017704293D-05 0.000000000000D+00 0.000000000000D+00 0.256456471075D-02 0.000000000000D+00  5 21 -2 25 -24 -1 2 0.21461713D+00 0.22617326D-02 0.21162102D+05 0.21162102D+05 0.21162102D+05 0.12311347D+01  1  2 12  3  5  1        1 0.572108525497D-02 0.100000000000D+01
-.181876446207D-04 0.000000000000D+00 -.491294082791D-05 0.256456471075D-02 0.000000000000D+00  5 21 -2 25 -24 -1 2 0.21812551D+00 0.22617326D-02 0.17276244D+05 0.17276244D+05 0.17276244D+05 0.12408877D+01  1  2  5  3  5  1        1 -.147469262064D-01 0.100000000000D+01
  </mgrwgt>
  </event>
  <event>
  4     66 0.47139866E-03 0.65746628E+02 0.75467711E-02 0.11904026E+00
        3 -1    0    0  501    0 0.00000000E+00 0.00000000E+00 0.83279423E+02 0.83280924E+02 0.50000000E+00 0.0000E+00 0.9000E+01
       -4 -1    0    0    0  501 0.00000000E+00 0.00000000E+00 -.25123919E+03 0.25124397E+03 0.15500000E+01 0.0000E+00 0.9000E+01
       25  1    1    2    0    0 -.88393293E+02 0.21891058E+02 -.43623607E+02 0.16068793E+03 0.12500000E+03 0.0000E+00 0.9000E+01
      -24  1    1    2    0    0 0.88393293E+02 -.21891058E+02 -.12433616E+03 0.17383696E+03 0.80419002E+02 0.0000E+00 0.9000E+01
#aMCatNLO 1  0  0  1  2 0.38310028D+02 0.00000000D+00  -5  5  0 0.00000000D+00 0.00000000D+00 0.00000000D+00 0.00000000D+00 0.00000000D+00
  <mgrwgt>
 0.4733881629D-01    9    2    0
 0.144651670168871D+03 0.000000000000000D+00 0.000000000000000D+00 0.144651670168871D+03
 0.144651670168871D+03 0.000000000000000D+00 0.000000000000000D+00 -.144651670168871D+03
 0.160478974538980D+03 -.883932933678990D+02 0.218910582985367D+02 0.428475031154574D+02
 0.128824365798761D+03 0.883932933678990D+02 -.218910582985367D+02 -.428475031154574D+02
 0.000000000000000D+00 0.000000000000000D+00 0.000000000000000D+00 0.000000000000000D+00
 0.191662297918363D+03 0.000000000000000D+00 0.000000000000000D+00 0.191662297918363D+03
 0.153934791773965D+03 0.000000000000000D+00 0.000000000000000D+00 -.153934791773965D+03
 0.165900302043359D+03 -.100232692786309D+03 0.392542884969626D+01 0.428475031154574D+02
 0.125928553625075D+03 0.791521381154949D+02 -.359139968849096D+02 -.428475031154574D+02
 0.537682340238943D+02 0.210805546708138D+02 0.319885680352133D+02 0.377275061443985D+02
0.594329918490D-03 0.000000000000D+00 0.000000000000D+00 0.225991412172D-02 0.000000000000D+00  5 3 -4 25 -24 21 0 0.12812702D-01 0.38652667D-01 0.19063752D+05 0.19063752D+05 0.19063752D+05 0.12361249D+01  1  2  2  1  5  1        3 0.368801948405D-01 0.100000000000D+01
-.329313128640D-04 0.000000000000D+00 -.228238337766D-05 0.225991412172D-02 0.000000000000D+00  5 3 -4 25 -24 21 2 0.12812702D-01 0.38652667D-01 0.19063752D+05 0.19063752D+05 0.19063752D+05 0.12361249D+01  1  2  3  1  5  1        3 -.312247801789D-02 0.100000000000D+01
0.411362215976D-04 0.000000000000D+00 0.000000000000D+00 0.225991412172D-02 0.000000000000D+00  5 3 -4 25 -24 21 2 0.12812702D-01 0.38652667D-01 0.19063752D+05 0.19063752D+05 0.19063752D+05 0.12361249D+01  1  2 15  1  5  1        3 0.390045025559D-02 0.100000000000D+01
0.931819455439D-03 0.000000000000D+00 0.000000000000D+00 0.225991412172D-02 0.000000000000D+00  5 3 -4 25 -24 21 2 0.17287982D-01 0.38652667D-01 0.25121710D+05 0.25121710D+05 0.25121710D+05 0.12230716D+01  1  2 12  1  5  1        3 0.529696544890D-01 0.100000000000D+01
-.980978462657D-03 0.000000000000D+00 0.000000000000D+00 0.225991412172D-02 0.000000000000D+00  5 3 -4 25 -24 21 2 0.12812702D-01 0.38652667D-01 0.19063752D+05 0.19063752D+05 0.19063752D+05 0.12361249D+01  1  2  4  1  5  1        3 -.930143203921D-01 0.100000000000D+01
-.138102612442D-02 0.000000000000D+00 -.336383477736D-03 0.225991412172D-02 0.000000000000D+00  5 3 -4 25 -24 21 2 0.17977235D-01 0.38652667D-01 0.19063752D+05 0.19063752D+05 0.19063752D+05 0.12361249D+01  1  2  5  1  5  1        3 -.733028595123D-01 0.100000000000D+01
0.143053312749D-02 0.000000000000D+00 0.317973251394D-03 0.225991412172D-02 0.000000000000D+00  5 3 -4 25 -24 21 2 0.12812702D-01 0.38652667D-01 0.19063752D+05 0.19063752D+05 0.19063752D+05 0.12361249D+01  1  2  6  1  5  1        3 0.135640150846D+00 0.100000000000D+01
0.359828006712D-04 0.000000000000D+00 0.000000000000D+00 0.225991412172D-02 0.000000000000D+00  5 21 -4 25 -24 -3 2 0.17287982D-01 0.38652667D-01 0.25121710D+05 0.25121710D+05 0.25121710D+05 0.12230716D+01  1  2 12  3  5  1        3 0.440188283967D-01 0.100000000000D+01
-.491953273522D-04 0.000000000000D+00 -.141905970479D-04 0.225991412172D-02 0.000000000000D+00  5 21 -4 25 -24 -3 2 0.17977235D-01 0.38652667D-01 0.19063752D+05 0.19063752D+05 0.19063752D+05 0.12361249D+01  1  2  5  3  5  1        3 -.566308046147D-01 0.100000000000D+01
  </mgrwgt>
  </event>
  <event>
  4     66 0.47139866E-03 0.11014152E+03 0.75467711E-02 0.12351824E+00
        1 -1    0    0  501    0 0.00000000E+00 0.00000000E+00 0.13596707E+03 0.13596745E+03 0.32000000E+00 0.0000E+00 0.9000E+01
       -2 -1    0    0    0  501 0.00000000E+00 0.00000000E+00 -.10670335E+03 0.10670383E+03 0.32000000E+00 0.0000E+00 0.9000E+01
       25  1    1    2    0    0 -.51654323E+02 0.22143348E+02 -.90348454E+01 0.13735037E+03 0.12500000E+03 0.0000E+00 0.9000E+01
      -24  1    1    2    0    0 0.51654323E+02 -.22143348E+02 0.38298569E+02 0.10532091E+03 0.80419002E+02 0.0000E+00 0.9000E+01
#aMCatNLO 1  0  0  1  2 0.14298994D+02 0.00000000D+00  -5  5  0 0.00000000D+00 0.00000000D+00 0.00000000D+00 0.00000000D+00 0.00000000D+00
  <mgrwgt>
 0.1719992229D+00    9    2    0
 0.120450181791759D+03 0.000000000000000D+00 0.000000000000000D+00 0.120450181791759D+03
 0.120450181791759D+03 0.000000000000000D+00 0.000000000000000D+00 -.120450181791759D+03
 0.139457591970396D+03 -.516543232929647D+02 0.221433483585206D+02 -.257861002635255D+02
 0.101442771613122D+03 0.516543232929647D+02 -.221433483585206D+02 0.257861002635255D+02
 0.000000000000000D+00 0.000000000000000D+00 -.000000000000000D+00 0.000000000000000D+00
 0.146229805286031D+03 0.000000000000000D+00 0.000000000000000D+00 0.146229805286031D+03
 0.122661399626960D+03 0.000000000000000D+00 0.000000000000000D+00 -.122661399626960D+03
 0.142083681869611D+03 -.548259982553709D+02 0.298656927280524D+02 -.257861002635255D+02
 0.992406774580125D+02 0.493935440398669D+02 -.166388385512893D+02 0.257861002635255D+02
 0.275668455853667D+02 0.543245421550404D+01 -.132268541767631D+02 0.235684056590714D+02
0.226747172276D-03 0.000000000000D+00 0.000000000000D+00 0.266467110055D-02 0.000000000000D+00  5 1 -2 25 -24 21 0 0.20918077D-01 0.16415966D-01 0.13825482D+05 0.13825482D+05 0.13825482D+05 0.12518797D+01  1  2  2  1  5  1        1 0.132621922518D+00 0.100000000000D+01
-.125881679193D-04 0.000000000000D+00 -.870768845440D-06 0.266467110055D-02 0.000000000000D+00  5 1 -2 25 -24 21 2 0.20918077D-01 0.16415966D-01 0.13825482D+05 0.13825482D+05 0.13825482D+05 0.12518797D+01  1  2  3  1  5  1        1 -.115388145054D-01 0.100000000000D+01
0.156928059388D-04 0.000000000000D+00 0.000000000000D+00 0.266467110055D-02 0.000000000000D+00  5 1 -2 25 -24 21 2 0.20918077D-01 0.16415966D-01 0.13825482D+05 0.13825482D+05 0.13825482D+05 0.12518797D+01  1  2 15  1  5  1        1 0.143846489782D-01 0.100000000000D+01
0.113824848409D-02 0.000000000000D+00 0.000000000000D+00 0.266467110055D-02 0.000000000000D+00  5 1 -2 25 -24 21 2 0.25559527D-01 0.16415966D-01 0.15606914D+05 0.15606914D+05 0.15606914D+05 0.12458635D+01  1  2 12  1  5  1        1 0.806764029114D+00 0.100000000000D+01
-.114603912335D-02 0.000000000000D+00 0.000000000000D+00 0.266467110055D-02 0.000000000000D+00  5 1 -2 25 -24 21 2 0.20918077D-01 0.16415966D-01 0.13825482D+05 0.13825482D+05 0.13825482D+05 0.12518797D+01  1  2  4  1  5  1        1 -.105050496189D+01 0.100000000000D+01
-.154721029389D-02 0.000000000000D+00 -.187867295468D-03 0.266467110055D-02 0.000000000000D+00  5 1 -2 25 -24 21 2 0.25760803D-01 0.16415966D-01 0.13825482D+05 0.13825482D+05 0.13825482D+05 0.12518797D+01  1  2  5  1  5  1        1 -.109211872819D+01 0.100000000000D+01
0.155646346438D-02 0.000000000000D+00 0.183866276566D-03 0.266467110055D-02 0.000000000000D+00  5 1 -2 25 -24 21 2 0.20918077D-01 0.16415966D-01 0.13825482D+05 0.13825482D+05 0.13825482D+05 0.12518797D+01  1  2  6  1  5  1        1 0.142671620804D+01 0.100000000000D+01
0.326225461725D-04 0.000000000000D+00 0.000000000000D+00 0.266467110055D-02 0.000000000000D+00  5 21 -2 25 -24 -1 2 0.25559527D-01 0.16415966D-01 0.15606914D+05 0.15606914D+05 0.15606914D+05 0.12458635D+01  1  2 12  3  5  1        1 0.169994721936D+00 0.100000000000D+01
-.433448691303D-04 0.000000000000D+00 -.554460327730D-05 0.266467110055D-02 0.000000000000D+00  5 21 -2 25 -24 -1 2 0.25760803D-01 0.16415966D-01 0.13825482D+05 0.13825482D+05 0.13825482D+05 0.12518797D+01  1  2  5  3  5  1        1 -.224319803123D+00 0.100000000000D+01
  </mgrwgt>
  </event>
  <event>
  4     66 0.47139866E-03 0.15724354E+03 0.75467711E-02 0.10047935E+00
        1 -1    0    0  501    0 0.00000000E+00 0.00000000E+00 0.24140679E+03 0.24140700E+03 0.32000000E+00 0.0000E+00 0.9000E+01
       -2 -1    0    0    0  501 0.00000000E+00 0.00000000E+00 -.14290390E+03 0.14290426E+03 0.32000000E+00 0.0000E+00 0.9000E+01
       25  1    1    2    0    0 -.20715970E+01 -.11784363E+03 0.15447795E+03 0.23104080E+03 0.12500000E+03 0.0000E+00 0.9000E+01
      -24  1    1    2    0    0 0.20715970E+01 0.11784363E+03 -.55975059E+02 0.15327047E+03 0.80419002E+02 0.0000E+00 0.9000E+01
#aMCatNLO 1  0  0  2  1 0.49074218D+03 0.00000000D+00  -5  5  0 0.00000000D+00 0.00000000D+00 0.00000000D+00 0.00000000D+00 0.00000000D+00
  <mgrwgt>
 0.2239274093D+00    5    2    0
 0.185736594803659D+03 0.000000000000000D+00 0.000000000000000D+00 0.185736594803659D+03
 0.185736594803659D+03 0.000000000000000D+00 0.000000000000000D+00 -.185736594803659D+03
 0.198062900310807D+03 -.207159699284294D+01 -.117843634767262D+03 0.985520101787292D+02
 0.173410289296510D+03 0.207159699284294D+01 0.117843634767262D+03 -.985520101787292D+02
 0.000000000000000D+00 0.000000000000000D+00 -.000000000000000D+00 -.000000000000000D+00
 0.408620482211983D+03 0.000000000000000D+00 0.000000000000000D+00 0.408620482211983D+03
 0.904567744224951D+03 0.000000000000000D+00 0.000000000000000D+00 -.904567744224951D+03
 0.240910733653612D+03 -.180671695563770D+03 0.763028841957787D+01 0.985520101787292D+02
 0.374572991150056D+03 -.220879989003571D+03 0.274476304063290D+03 -.985520101787292D+02
 0.697704501633266D+03 0.401551684567340D+03 -.282106592482868D+03 -.495947262012969D+03
0.117701697549D-02 0.000000000000D+00 0.000000000000D+00 0.162349647865D-02 0.000000000000D+00  5 1 -2 25 -24 21 0 0.37139550D-01 0.21985260D-01 0.24725532D+05 0.24725532D+05 0.24725532D+05 0.12238120D+01  1  2  2  2  5  2       -2 0.208861777457D+00 0.100000000000D+01
-.631848965287D-04 0.000000000000D+00 -.452005510156D-05 0.162349647865D-02 0.000000000000D+00  5 1 -2 25 -24 21 2 0.37139550D-01 0.21985260D-01 0.24725532D+05 0.24725532D+05 0.24725532D+05 0.12238120D+01  1  2  3  2  5  2       -2 -.167926381961D-01 0.100000000000D+01
0.810487372711D-04 0.000000000000D+00 0.000000000000D+00 0.162349647865D-02 0.000000000000D+00  5 1 -2 25 -24 21 2 0.37139550D-01 0.21985260D-01 0.24725532D+05 0.24725532D+05 0.24725532D+05 0.12238120D+01  1  2 15  2  5  2       -2 0.215403078270D-01 0.100000000000D+01
0.134023967663D-02 0.000000000000D+00 -.698480037503D-03 0.162349647865D-02 0.000000000000D+00  5 1 -2 25 -24 21 2 0.37139550D-01 0.19608262D+00 0.24725532D+05 0.24725532D+05 0.24725532D+05 0.12238120D+01  1  2  5  2  5  2       -2 0.324282826505D-02 0.100000000000D+01
0.255473822672D-03 0.000000000000D+00 -.183945808499D-03 0.162349647865D-02 0.000000000000D+00  5 1 21 25 -24 2 2 0.37139550D-01 0.19608262D+00 0.24725532D+05 0.24725532D+05 0.24725532D+05 0.12238120D+01  1  2  5  4  5  2       -2 0.707513396513D-02 0.100000000000D+01
  </mgrwgt>
  </event>
  <event>
  4     66 0.47139866E-03 0.14302197E+03 0.75467711E-02 0.10293263E+00
        1 -1    0    0  501    0 0.00000000E+00 0.00000000E+00 0.74961759E+02 0.74962442E+02 0.32000000E+00 0.0000E+00 0.9000E+01
       -2 -1    0    0    0  501 0.00000000E+00 0.00000000E+00 -.33148837E+03 0.33148852E+03 0.32000000E+00 0.0000E+00 0.9000E+01
       25  1    1    2    0    0 0.66502806E+02 -.72407161E+02 -.22509536E+03 0.27560541E+03 0.12500000E+03 0.0000E+00 0.9000E+01
      -24  1    1    2    0    0 -.66502806E+02 0.72407161E+02 -.31431248E+02 0.13084556E+03 0.80419002E+02 0.0000E+00 0.9000E+01
#aMCatNLO 1  0  0  1  1 0.39913733D+03 0.00000000D+00  -5  5  0 0.00000000D+00 0.00000000D+00 0.00000000D+00 0.00000000D+00 0.00000000D+00
  <mgrwgt>
 0.2251431520D+00    3    2    0
 0.157636041476825D+03 0.000000000000000D+00 0.000000000000000D+00 0.157636041476825D+03
 0.157636041476825D+03 0.000000000000000D+00 0.000000000000000D+00 -.157636041476825D+03
 0.172159661773037D+03 0.665028062275968D+02 -.724071608446808D+02 -.659433769538221D+02
 0.143112421180613D+03 -.665028062275968D+02 0.724071608446808D+02 0.659433769538221D+02
 0.000000000000000D+00 -.000000000000000D+00 -.000000000000000D+00 -.000000000000000D+00
 0.343696505392049D+03 0.000000000000000D+00 0.000000000000000D+00 0.343696505392049D+03
 0.699914347950106D+03 0.000000000000000D+00 0.000000000000000D+00 -.699914347950106D+03
 0.196307982327079D+03 0.869143848711955D+02 0.104924661847044D+03 -.659433769538221D+02
 0.312324591178122D+03 -.412734854342625D+02 0.291594589689597D+03 0.659433769538221D+02
 0.534978279836955D+03 -.456408994369330D+02 -.396519251536641D+03 -.356217842558057D+03
0.132263495567D-02 0.000000000000D+00 0.000000000000D+00 0.197347327370D-02 0.000000000000D+00  5 1 -2 25 -24 21 0 0.11532643D-01 0.50998275D-01 0.20455283D+05 0.20455283D+05 0.20455283D+05 0.12327513D+01  1  2  2  1  5  1        1 0.220371757837D+00 0.100000000000D+01
-.726340695063D-04 0.000000000000D+00 -.507926648755D-05 0.197347327370D-02 0.000000000000D+00  5 1 -2 25 -24 21 2 0.11532643D-01 0.50998275D-01 0.20455283D+05 0.20455283D+05 0.20455283D+05 0.12327513D+01  1  2  3  1  5  1        1 -.183910808607D-01 0.100000000000D+01
0.914783006051D-04 0.000000000000D+00 0.000000000000D+00 0.197347327370D-02 0.000000000000D+00  5 1 -2 25 -24 21 2 0.11532643D-01 0.50998275D-01 0.20455283D+05 0.20455283D+05 0.20455283D+05 0.12327513D+01  1  2 15  1  5  1        1 0.231624750598D-01 0.100000000000D+01
  </mgrwgt>
  </event>
  <event>
  4     66 0.47139866E-03 0.10324293E+03 0.75467711E-02 0.10462449E+00
        1 -1    0    0  501    0 0.00000000E+00 0.00000000E+00 0.53217905E+03 0.53217914E+03 0.32000000E+00 0.0000E+00 0.9000E+01
       -2 -1    0    0    0  501 0.00000000E+00 0.00000000E+00 -.20485674E+02 0.20488174E+02 0.32000000E+00 0.0000E+00 0.9000E+01
       25  1    1    2    0    0 0.57451226E+01 -.84695769E+01 0.26920338E+03 0.29698519E+03 0.12500000E+03 0.0000E+00 0.9000E+01
      -24  1    1    2    0    0 -.57451226E+01 0.84695769E+01 0.24248999E+03 0.25568213E+03 0.80419002E+02 0.0000E+00 0.9000E+01
#aMCatNLO 1  0  0  1  1 0.36584642D+03 0.00000000D+00  -5  5  0 0.00000000D+00 0.00000000D+00 0.00000000D+00 0.00000000D+00 0.00000000D+00
  <mgrwgt>
 0.2432021495D+00    5    2    0
 0.104416300509818D+03 0.000000000000000D+00 0.000000000000000D+00 0.104416300509818D+03
 0.104416300509818D+03 0.000000000000000D+00 0.000000000000000D+00 -.104416300509818D+03
 0.126342436565482D+03 0.574512264701160D+01 -.846957686996628D+01 -.152535605914588D+02
 0.824901644541537D+02 -.574512264701160D+01 0.846957686996628D+01 0.152535605914588D+02
 0.000000000000000D+00 -.000000000000000D+00 -.000000000000000D+00 0.000000000000000D+00
 0.547667505289886D+03 0.000000000000000D+00 0.000000000000000D+00 0.547667505289886D+03
 0.309905368260566D+03 0.000000000000000D+00 0.000000000000000D+00 -.309905368260566D+03
 0.263098313235272D+03 0.230284144958332D+03 0.182281073438196D+02 -.152535605914588D+02
 0.158155365126880D+03 0.133003356969876D+03 0.249667676737040D+02 0.152535605914588D+02
 0.436319195188300D+03 -.363287501928208D+03 -.431948750175235D+02 0.237762137029319D+03
0.178158096661D-03 0.000000000000D+00 0.000000000000D+00 0.312698308301D-02 0.000000000000D+00  5 1 -2 25 -24 21 0 0.81873899D-01 0.31518419D-02 0.10659103D+05 0.10659103D+05 0.10659103D+05 0.12651003D+01  1  2  2  1  5  1        1 0.236888914878D+00 0.100000000000D+01
-.989613511940D-05 0.000000000000D+00 -.684174001284D-06 0.312698308301D-02 0.000000000000D+00  5 1 -2 25 -24 21 2 0.81873899D-01 0.31518419D-02 0.10659103D+05 0.10659103D+05 0.10659103D+05 0.12651003D+01  1  2  3  1  5  1        1 -.210598236303D-01 0.100000000000D+01
0.122386196878D-04 0.000000000000D+00 0.000000000000D+00 0.312698308301D-02 0.000000000000D+00  5 1 -2 25 -24 21 2 0.81873899D-01 0.31518419D-02 0.10659103D+05 0.10659103D+05 0.10659103D+05 0.12651003D+01  1  2 15  1  5  1        1 0.260448315422D-01 0.100000000000D+01
0.202062717392D-03 0.000000000000D+00 -.114604165833D-03 0.312698308301D-02 0.000000000000D+00  5 1 -2 25 -24 21 2 0.63057180D+00 0.31518419D-02 0.10659103D+05 0.10659103D+05 0.10659103D+05 0.12651003D+01  1  2  5  1  5  1        1 0.128561400982D-02 0.100000000000D+01
0.373034234845D-04 0.000000000000D+00 -.284662913054D-04 0.312698308301D-02 0.000000000000D+00  5 21 -2 25 -24 -1 2 0.63057180D+00 0.31518419D-02 0.10659103D+05 0.10659103D+05 0.10659103D+05 0.12651003D+01  1  2  5  3  5  1        1 0.426126778316D-04 0.100000000000D+01
  </mgrwgt>
  </event>
  <event>
  4     66 0.47139866E-03 0.92515596E+02 0.75467711E-02 0.11704161E+00
        1 -1    0    0  501    0 0.00000000E+00 0.00000000E+00 0.10950560E+03 0.10950606E+03 0.32000000E+00 0.0000E+00 0.9000E+01
       -2 -1    0    0    0  501 0.00000000E+00 0.00000000E+00 -.14229119E+03 0.14229155E+03 0.32000000E+00 0.0000E+00 0.9000E+01
       25  1    1    2    0    0 0.30270226E+02 0.29708508E+02 0.37110905E+02 0.13711711E+03 0.12500000E+03 0.0000E+00 0.9000E+01
      -24  1    1    2    0    0 -.30270226E+02 -.29708508E+02 -.69896498E+02 0.11468051E+03 0.80419002E+02 0.0000E+00 0.9000E+01
#aMCatNLO 1  0  0  1  2 0.10849725D+03 0.00000000D+00  -5  5  0 0.00000000D+00 0.00000000D+00 0.00000000D+00 0.00000000D+00 0.00000000D+00
  <mgrwgt>
 0.1266377246D+00    7    2    0
 0.124827023675489D+03 0.000000000000000D+00 0.000000000000000D+00 0.124827023675489D+03
 0.124827023675489D+03 0.000000000000000D+00 0.000000000000000D+00 -.124827023675489D+03
 0.143167972165611D+03 0.302702262202311D+02 0.297085084613949D+02 0.554363254877911D+02
 0.106486075185367D+03 -.302702262202311D+02 -.297085084613949D+02 -.554363254877911D+02
 0.000000000000000D+00 -.000000000000000D+00 -.000000000000000D+00 0.000000000000000D+00
 0.309232921158668D+03 0.000000000000000D+00 0.000000000000000D+00 0.309232921158668D+03
 0.153104006666386D+03 0.000000000000000D+00 0.000000000000000D+00 -.153104006666386D+03
 0.173000639772784D+03 0.916725672897869D+02 0.531711913041631D+02 0.554363254877911D+02
 0.992103011020695D+02 0.967756928084104D+01 -.144439038912259D+02 -.554363254877911D+02
 0.190125986950200D+03 -.101350136570628D+03 -.387272874129372D+02 0.156128914492283D+03
0.380186979594D-03 0.000000000000D+00 0.000000000000D+00 0.223271966171D-02 0.000000000000D+00  5 1 -2 25 -24 21 0 0.16847079D-01 0.21891016D-01 0.12423068D+05 0.12423068D+05 0.12423068D+05 0.12572644D+01  1  2  2  1  5  1        1 0.180097133103D+00 0.100000000000D+01
-.207919915545D-04 0.000000000000D+00 -.146001810717D-05 0.223271966171D-02 0.000000000000D+00  5 1 -2 25 -24 21 2 0.16847079D-01 0.21891016D-01 0.12423068D+05 0.12423068D+05 0.12423068D+05 0.12572644D+01  1  2  3  1  5  1        1 -.155689333121D-01 0.100000000000D+01
0.261440538159D-04 0.000000000000D+00 0.000000000000D+00 0.223271966171D-02 0.000000000000D+00  5 1 -2 25 -24 21 2 0.16847079D-01 0.21891016D-01 0.12423068D+05 0.12423068D+05 0.12423068D+05 0.12572644D+01  1  2 15  1  5  1        1 0.195765292278D-01 0.100000000000D+01
0.350050779379D-06 0.000000000000D+00 0.000000000000D+00 0.223271966171D-02 0.000000000000D+00  5 1 -2 25 -24 21 2 0.40933933D-01 0.21891016D-01 0.31444566D+05 0.31444566D+05 0.31444566D+05 0.12127606D+01  1  2 12  1  5  1        1 0.818559623155D-04 0.100000000000D+01
-.211220107799D-03 0.000000000000D+00 -.144721128594D-03 0.223271966171D-02 0.000000000000D+00  5 1 -2 25 -24 21 2 0.49626636D-01 0.21891016D-01 0.12423068D+05 0.12423068D+05 0.12423068D+05 0.12572644D+01  1  2  5  1  5  1        1 -.412573364162D-01 0.100000000000D+01
0.340602200468D-07 0.000000000000D+00 0.000000000000D+00 0.223271966171D-02 0.000000000000D+00  5 21 -2 25 -24 -1 2 0.40933933D-01 0.21891016D-01 0.31444566D+05 0.31444566D+05 0.31444566D+05 0.12127606D+01  1  2 12  3  5  1        1 0.413148670803D-04 0.100000000000D+01
-.183940964851D-04 0.000000000000D+00 -.177278048466D-04 0.223271966171D-02 0.000000000000D+00  5 21 -2 25 -24 -1 2 0.49626636D-01 0.21891016D-01 0.12423068D+05 0.12423068D+05 0.12423068D+05 0.12572644D+01  1  2  5  3  5  1        1 -.163328388227D-01 0.100000000000D+01
  </mgrwgt>
  </event>
  <event>
  4     66 0.47139866E-03 0.64914650E+02 0.75467711E-02 0.12674561E+00
        3 -1    0    0  501    0 0.00000000E+00 0.00000000E+00 0.69908269E+02 0.69910057E+02 0.50000000E+00 0.0000E+00 0.9000E+01
       -4 -1    0    0    0  501 0.00000000E+00 0.00000000E+00 -.17461241E+03 0.17461929E+03 0.15500000E+01 0.0000E+00 0.9000E+01
       25  1    1    2    0    0 -.10787639E+02 0.32975799E+01 -.10450883E+03 0.16332281E+03 0.12500000E+03 0.0000E+00 0.9000E+01
      -24  1    1    2    0    0 0.10787639E+02 -.32975799E+01 -.19531811E+00 0.81206535E+02 0.80419002E+02 0.0000E+00 0.9000E+01
#aMCatNLO 1  0  0  2  1 0.59171899D+01 0.00000000D+00  -5  5  0 0.00000000D+00 0.00000000D+00 0.00000000D+00 0.00000000D+00 0.00000000D+00
  <mgrwgt>
 0.7347355735D-01    8    2    0
 0.110489416929004D+03 0.000000000000000D+00 0.000000000000000D+00 0.110489416929004D+03
 0.110489416929004D+03 0.000000000000000D+00 0.000000000000000D+00 -.110489416929004D+03
 0.131210369894829D+03 -.107876389994441D+02 0.329757992245268D+01 -.382611288308461D+02
 0.897684639631782D+02 0.107876389994441D+02 -.329757992245268D+01 0.382611288308461D+02
 0.000000000000000D+00 -.000000000000000D+00 -.000000000000000D+00 0.000000000000000D+00
 0.113778607829482D+03 0.000000000000000D+00 0.000000000000000D+00 0.113778607829482D+03
 0.113222682101467D+03 0.000000000000000D+00 0.000000000000000D+00 -.113222682101467D+03
 0.131075010307729D+03 -.794206764900039D+01 0.535424217041291D+01 -.382611288308461D+02
 0.899830321832916D+02 0.127377885168848D+02 -.188809184555983D+01 0.382611288308461D+02
 0.594324743992796D+01 -.479572086788445D+01 -.346615032485308D+01 0.555925728014814D+00
0.220715014967D-03 0.000000000000D+00 0.000000000000D+00 0.269620013311D-02 0.000000000000D+00  5 3 -4 25 -24 21 0 0.10755785D-01 0.26864115D-01 0.10682696D+05 0.10682696D+05 0.10682696D+05 0.12649861D+01  1  2  2  2  5  2       -4 0.346515303620D-01 0.100000000000D+01
-.121955592865D-04 0.000000000000D+00 -.847603773072D-06 0.269620013311D-02 0.000000000000D+00  5 3 -4 25 -24 21 2 0.10755785D-01 0.26864115D-01 0.10682696D+05 0.10682696D+05 0.10682696D+05 0.12649861D+01  1  2  3  2  5  2       -4 -.306382379102D-02 0.100000000000D+01
0.151947554030D-04 0.000000000000D+00 0.000000000000D+00 0.269620013311D-02 0.000000000000D+00  5 3 -4 25 -24 21 2 0.10755785D-01 0.26864115D-01 0.10682696D+05 0.10682696D+05 0.10682696D+05 0.12649861D+01  1  2 15  2  5  2       -4 0.381729546050D-02 0.100000000000D+01
0.256990139367D-03 0.000000000000D+00 0.000000000000D+00 0.269620013311D-02 0.000000000000D+00  5 3 -4 25 -24 21 2 0.10755785D-01 0.27917844D-01 0.11313200D+05 0.11313200D+05 0.11313200D+05 0.12620350D+01  1  2 12  2  5  2       -4 0.602036211486D-01 0.100000000000D+01
-.287883674986D-03 0.000000000000D+00 0.000000000000D+00 0.269620013311D-02 0.000000000000D+00  5 3 -4 25 -24 21 2 0.10755785D-01 0.26864115D-01 0.10682696D+05 0.10682696D+05 0.10682696D+05 0.12649861D+01  1  2  4  2  5  2       -4 -.723234442758D-01 0.100000000000D+01
0.106905430461D-03 0.000000000000D+00 0.000000000000D+00 0.269620013311D-02 0.654659048017D-03  5 3 -4 25 -24 21 2 0.11075977D-01 0.27528674D-01 0.11313200D+05 0.11313200D+05 0.11313200D+05 0.12620350D+01  1  2 11  2  5  2       -4 0.244890995196D-01 0.100000000000D+01
0.320239073664D-05 0.000000000000D+00 0.000000000000D+00 0.269620013311D-02 0.000000000000D+00  5 3 21 25 -24 4 2 0.10755785D-01 0.27917844D-01 0.11313200D+05 0.11313200D+05 0.11313200D+05 0.12620350D+01  1  2 12  4  5  2       -4 0.191723363188D-01 0.100000000000D+01
0.111427399226D-05 0.000000000000D+00 0.000000000000D+00 0.269620013311D-02 0.294708860440D-05  5 3 21 25 -24 4 2 0.11075977D-01 0.27528674D-01 0.11313200D+05 0.11313200D+05 0.11313200D+05 0.12620350D+01  1  2 11  4  5  2       -4 0.652694260977D-02 0.100000000000D+01
  </mgrwgt>
  </event>
  <event>
  4     66 0.47139866E-03 0.10620542E+03 0.75467711E-02 0.11944702E+00
        1 -1    0    0  501    0 0.00000000E+00 0.00000000E+00 0.22290403E+03 0.22290426E+03 0.32000000E+00 0.0000E+00 0.9000E+01
       -2 -1    0    0    0  501 0.00000000E+00 0.00000000E+00 -.50996015E+02 0.50997019E+02 0.32000000E+00 0.0000E+00 0.9000E+01
       25  1    1    2    0    0 -.24291094E+02 -.10398049E+02 0.91478421E+02 0.15713522E+03 0.12500000E+03 0.0000E+00 0.9000E+01
      -24  1    1    2    0    0 0.24291094E+02 0.10398049E+02 0.80429597E+02 0.11676606E+03 0.80419002E+02 0.0000E+00 0.9000E+01
#aMCatNLO 1  0  0  1  1 0.82214800D+02 0.00000000D+00  -5  5  0 0.00000000D+00 0.00000000D+00 0.00000000D+00 0.00000000D+00 0.00000000D+00
  <mgrwgt>
 0.1848617135D+00    3    2    0
 0.106617946208665D+03 0.000000000000000D+00 0.000000000000000D+00 0.106617946208665D+03
 0.106617946208665D+03 0.000000000000000D+00 0.000000000000000D+00 -.106617946208665D+03
 0.128091310617004D+03 -.242910939373829D+02 -.103980493582198D+02 -.917644704943350D+01
 0.851445818003255D+02 0.242910939373829D+02 0.103980493582198D+02 0.917644704943350D+01
 0.000000000000000D+00 0.000000000000000D+00 -.000000000000000D+00 -.000000000000000D+00
 0.148162757756375D+03 0.000000000000000D+00 0.000000000000000D+00 0.148162757756375D+03
 0.164123171969942D+03 0.000000000000000D+00 0.000000000000000D+00 -.164123171969942D+03
 0.136732233937263D+03 -.412110399964358D+02 0.358907620347550D+02 -.917644704943350D+01
 0.918040197185930D+02 0.129856006967265D+02 0.413270985700109D+02 0.917644704943350D+01
 0.837496760704617D+02 0.282254392997092D+02 -.772178606047660D+02 -.159604142135671D+02
0.179141482475D-03 0.000000000000D+00 0.000000000000D+00 0.309151798038D-02 0.000000000000D+00  5 1 -2 25 -24 21 0 0.34293023D-01 0.78456357D-02 0.11279590D+05 0.11279590D+05 0.11279590D+05 0.12621876D+01  1  2  2  1  5  1        1 0.180904094582D+00 0.100000000000D+01
-.995212272032D-05 0.000000000000D+00 -.687950461739D-06 0.309151798038D-02 0.000000000000D+00  5 1 -2 25 -24 21 2 0.34293023D-01 0.78456357D-02 0.11279590D+05 0.11279590D+05 0.11279590D+05 0.12621876D+01  1  2  3  1  5  1        1 -.160109011464D-01 0.100000000000D+01
0.124121159775D-04 0.000000000000D+00 0.000000000000D+00 0.309151798038D-02 0.000000000000D+00  5 1 -2 25 -24 21 2 0.34293023D-01 0.78456357D-02 0.11279590D+05 0.11279590D+05 0.11279590D+05 0.12621876D+01  1  2 15  1  5  1        1 0.199685200353D-01 0.100000000000D+01
  </mgrwgt>
  </event>
  <event>
  4     66 0.47139866E-03 0.12250065E+03 0.75467711E-02 0.10548463E+00
        1 -1    0    0  501    0 0.00000000E+00 0.00000000E+00 0.20289400E+03 0.20289426E+03 0.32000000E+00 0.0000E+00 0.9000E+01
       -2 -1    0    0    0  501 0.00000000E+00 0.00000000E+00 -.77968136E+02 0.77968793E+02 0.32000000E+00 0.0000E+00 0.9000E+01
       25  1    1    2    0    0 -.66262170E+01 -.65312195E+02 0.40020782E+02 0.14675235E+03 0.12500000E+03 0.0000E+00 0.9000E+01
      -24  1    1    2    0    0 0.66262170E+01 0.65312195E+02 0.84905086E+02 0.13411070E+03 0.80419002E+02 0.0000E+00 0.9000E+01
#aMCatNLO 1  0  0  1  1 0.32910900D+03 0.00000000D+00  -5  5  0 0.00000000D+00 0.00000000D+00 0.00000000D+00 0.00000000D+00 0.00000000D+00
  <mgrwgt>
 0.2239583115D+00    5    2    0
 0.125775176065245D+03 0.000000000000000D+00 0.000000000000000D+00 0.125775176065245D+03
 0.125775176065245D+03 0.000000000000000D+00 0.000000000000000D+00 -.125775176065245D+03
 0.143977861865658D+03 -.662621696257592D+01 -.653121951723610D+02 -.281963671053363D+02
 0.107572490264831D+03 0.662621696257592D+01 0.653121951723610D+02 0.281963671053363D+02
 0.000000000000000D+00 -.000000000000000D+00 -.000000000000000D+00 0.000000000000000D+00
 0.466850206662120D+03 0.000000000000000D+00 0.000000000000000D+00 0.466850206662120D+03
 0.311371266792807D+03 0.000000000000000D+00 0.000000000000000D+00 -.311371266792807D+03
 0.153114647053464D+03 0.385133356573462D+02 0.744364359766953D+02 -.281963671053363D+02
 0.261119965233797D+03 0.626445008166438D+02 0.238740553088124D+03 0.281963671053363D+02
 0.363986861167666D+03 -.101157836473990D+03 -.313176989064819D+03 0.155478939869313D+03
0.330451347701D-03 0.000000000000D+00 0.000000000000D+00 0.256501946439D-02 0.000000000000D+00  5 1 -2 25 -24 21 0 0.31214532D-01 0.11995168D-01 0.15006409D+05 0.15006409D+05 0.15006409D+05 0.12478014D+01  1  2  2  1  5  1        1 0.195318330976D+00 0.100000000000D+01
-.183428752219D-04 0.000000000000D+00 -.126902018501D-05 0.256501946439D-02 0.000000000000D+00  5 1 -2 25 -24 21 2 0.31214532D-01 0.11995168D-01 0.15006409D+05 0.15006409D+05 0.15006409D+05 0.12478014D+01  1  2  3  1  5  1        1 -.168808307110D-01 0.100000000000D+01
0.228567867425D-04 0.000000000000D+00 0.000000000000D+00 0.256501946439D-02 0.000000000000D+00  5 1 -2 25 -24 21 2 0.31214532D-01 0.11995168D-01 0.15006409D+05 0.15006409D+05 0.15006409D+05 0.12478014D+01  1  2 15  1  5  1        1 0.210349546038D-01 0.100000000000D+01
0.403483727074D-03 0.000000000000D+00 -.216985818707D-03 0.256501946439D-02 0.000000000000D+00  5 1 -2 25 -24 21 2 0.23079785D+00 0.11995168D-01 0.15006409D+05 0.15006409D+05 0.15006409D+05 0.12478014D+01  1  2  5  1  5  1        1 0.202460009095D-01 0.100000000000D+01
0.757246933014D-04 0.000000000000D+00 -.529374650196D-04 0.256501946439D-02 0.000000000000D+00  5 21 -2 25 -24 -1 2 0.23079785D+00 0.11995168D-01 0.15006409D+05 0.15006409D+05 0.15006409D+05 0.12478014D+01  1  2  5  3  5  1        1 0.423985568971D-02 0.100000000000D+01
  </mgrwgt>
  </event>
  <event>
  5     66 0.47139866E-03 0.12376159E+03 0.75467711E-02 0.10931256E+00
        1 -1    0    0  501    0 0.00000000E+00 0.00000000E+00 0.69893271E+03 0.69893278E+03 0.32000000E+00 0.0000E+00 0.9000E+01
       -2 -1    0    0    0  502 0.00000000E+00 0.00000000E+00 -.13983299E+03 0.13983335E+03 0.32000000E+00 0.0000E+00 0.9000E+01
       25  1    1    2    0    0 -.18510995E+03 0.12748579E+03 0.33994191E+03 0.42626731E+03 0.12500000E+03 0.0000E+00 0.9000E+01
      -24  1    1    2    0    0 -.91848889E+01 -.19150883E+01 0.15098151E+03 0.17132035E+03 0.80419002E+02 0.0000E+00 0.9000E+01
       21  1    1    2  501  502 0.19429484E+03 -.12557070E+03 0.68176305E+02 0.24117847E+03 0.75000000E+00 0.0000E+00 0.9000E+01
#aMCatNLO 2  0  0  2  1 0.23134063D+03 0.00000000D+00  -5  5  0 0.00000000D+00 0.00000000D+00 0.00000000D+00 0.00000000D+00 0.00000000D+00
  <mgrwgt>
 0.1201443647D-01    1    2    0
 0.125086694191520D+03 0.000000000000000D+00 0.000000000000000D+00 0.125086694191520D+03
 0.125086694191520D+03 0.000000000000000D+00 0.000000000000000D+00 -.125086694191520D+03
 0.143389568259820D+03 -.531943901512701D+02 0.422301554094221D+02 -.179593740500065D+02
 0.106783820123219D+03 0.531943901512701D+02 -.422301554094221D+02 0.179593740500065D+02
 0.000000000000000D+00 0.000000000000000D+00 -.000000000000000D+00 -.000000000000000D+00
 0.218790145232462D+03 0.000000000000000D+00 0.000000000000000D+00 0.218790145232462D+03
 0.446700636157433D+03 0.000000000000000D+00 0.000000000000000D+00 -.446700636157433D+03
 0.257809733738119D+03 -.185109951832426D+03 0.127485785193678D+03 -.179593740500065D+02
 0.829324111411312D+02 -.918488888196572D+01 -.191508831884944D+01 0.179593740500065D+02
 0.324748636510644D+03 0.194294840714392D+03 -.125570696874829D+03 -.227910490924972D+03
0.189406257730D-03 0.000000000000D+00 0.000000000000D+00 0.264561164767D-02 0.791468480288D-06  5 1 -2 25 -24 21 2 0.10752796D+00 0.21512764D-01 0.81079297D+05 0.81079297D+05 0.81079297D+05 0.11720333D+01  1  2  1  2  5  2       -2 0.120144364728D-01 0.100000000000D+01
  </mgrwgt>
  </event>
  <event>
  5     66 0.47139866E-03 0.12034411E+03 0.75467711E-02 0.12301261E+00
        1 -1    0    0  501    0 0.00000000E+00 0.00000000E+00 0.30307295E+03 0.30307312E+03 0.32000000E+00 0.0000E+00 0.9000E+01
       -2 -1    0    0    0  502 0.00000000E+00 0.00000000E+00 -.62302719E+02 0.62303541E+02 0.32000000E+00 0.0000E+00 0.9000E+01
       25  1    1    2    0    0 -.67119479E+02 -.20234017E+02 0.18704137E+03 0.23563513E+03 0.12500000E+03 0.0000E+00 0.9000E+01
      -24  1    1    2    0    0 0.54197472E+02 0.11813729E+02 0.31444351E+02 0.10262989E+03 0.80419002E+02 0.0000E+00 0.9000E+01
       21  1    1    2  501  502 0.12922007E+02 0.84202875E+01 0.22284517E+02 0.27111653E+02 0.75000000E+00 0.0000E+00 0.9000E+01
#aMCatNLO 2  0  0  2  1 0.15423343D+02 0.00000000D+00  -5  5  0 0.00000000D+00 0.00000000D+00 0.00000000D+00 0.00000000D+00 0.00000000D+00
  <mgrwgt>
 0.1453853877D+00    1    2    0
 0.128888837380471D+03 0.000000000000000D+00 0.000000000000000D+00 0.128888837380471D+03
 0.128888837380471D+03 0.000000000000000D+00 0.000000000000000D+00 -.128888837380471D+03
 0.146651787671109D+03 -.596805417342766D+02 -.153866279857694D+02 0.456424303106521D+02
 0.111125887089834D+03 0.596805417342766D+02 0.153866279857694D+02 -.456424303106521D+02
 0.000000000000000D+00 0.000000000000000D+00 0.000000000000000D+00 0.000000000000000D+00
 0.140566377533848D+03 0.000000000000000D+00 0.000000000000000D+00 0.140566377533848D+03
 0.134314550422051D+03 0.000000000000000D+00 0.000000000000000D+00 -.134314550422051D+03
 0.150408348614856D+03 -.671194789899621D+02 -.202340166180983D+02 0.456424303106521D+02
 0.107830318346417D+03 0.541974718941171D+02 0.118137291293984D+02 -.456424303106521D+02
 0.166422609946251D+02 0.129220070958450D+02 0.842028748869996D+01 0.625182711179656D+01
0.182722608692D-03 0.000000000000D+00 0.000000000000D+00 0.234464600033D-02 0.816830177085D-04  5 1 -2 25 -24 21 2 0.46623795D-01 0.95845159D-02 0.16439517D+05 0.16439517D+05 0.16439517D+05 0.12433109D+01  1  2  1  2  5  2       -2 0.145385387748D+00 0.100000000000D+01
  </mgrwgt>
  </event>
  <event>
  4     66 0.47139866E-03 0.12460860E+03 0.75467711E-02 0.12302113E+00
        1 -1    0    0  501    0 0.00000000E+00 0.00000000E+00 0.34423617E+02 0.34425105E+02 0.32000000E+00 0.0000E+00 0.9000E+01
       -2 -1    0    0    0  501 0.00000000E+00 0.00000000E+00 -.77670670E+03 0.77670677E+03 0.32000000E+00 0.0000E+00 0.9000E+01
       25  1    1    2    0    0 -.22006751E+02 -.65836676E+02 -.14197490E+03 0.20149599E+03 0.12500000E+03 0.0000E+00 0.9000E+01
      -24  1    1    2    0    0 0.22006751E+02 0.65836676E+02 -.60030819E+03 0.60963588E+03 0.80419002E+02 0.0000E+00 0.9000E+01
#aMCatNLO 1  0  0  1  1 0.68551820D+01 0.00000000D+00  -5  5  0 0.00000000D+00 0.00000000D+00 0.00000000D+00 0.00000000D+00 0.00000000D+00
  <mgrwgt>
 0.9407140413D-01    6    2    0
 0.163516617477205D+03 0.000000000000000D+00 0.000000000000000D+00 0.163516617477205D+03
 0.163516617477205D+03 0.000000000000000D+00 0.000000000000000D+00 -.163516617477205D+03
 0.177517922339853D+03 -.220067509861918D+02 -.658366761840448D+02 0.105208591530954D+03
 0.149515312614557D+03 0.220067509861918D+02 0.658366761840448D+02 -.105208591530954D+03
 0.000000000000000D+00 -.000000000000000D+00 -.000000000000000D+00 -.000000000000000D+00
 0.164557817935292D+03 0.000000000000000D+00 0.000000000000000D+00 0.164557817935292D+03
 0.175239208578836D+03 0.000000000000000D+00 0.000000000000000D+00 -.175239208578836D+03
 0.176593495380237D+03 -.185901928717178D+02 -.643880393215637D+02 0.105208591530954D+03
 0.150511579915744D+03 0.249014876790513D+02 0.670640582861339D+02 -.105208591530954D+03
 0.126919512181457D+02 -.631129480733352D+01 -.267601896457015D+01 -.106813906435434D+02
0.214129572890D-02 0.000000000000D+00 0.000000000000D+00 0.142669301724D-02 0.000000000000D+00  5 1 -2 25 -24 21 0 0.52960606D-02 0.11949346D+00 0.15527302D+05 0.15527302D+05 0.15527302D+05 0.12461156D+01  1  2  2  1  5  1        1 0.157230079239D+00 0.100000000000D+01
-.108280577940D-03 0.000000000000D+00 -.822313941508D-05 0.142669301724D-02 0.000000000000D+00  5 1 -2 25 -24 21 2 0.52960606D-02 0.11949346D+00 0.15527302D+05 0.15527302D+05 0.15527302D+05 0.12461156D+01  1  2  3  1  5  1        1 -.123459982708D-01 0.100000000000D+01
0.146874514406D-03 0.000000000000D+00 0.000000000000D+00 0.142669301724D-02 0.000000000000D+00  5 1 -2 25 -24 21 2 0.52960606D-02 0.11949346D+00 0.15527302D+05 0.15527302D+05 0.15527302D+05 0.12461156D+01  1  2 15  1  5  1        1 0.167464242930D-01 0.100000000000D+01
-.651963646293D-03 0.000000000000D+00 0.000000000000D+00 0.142669301724D-02 0.000000000000D+00  5 1 -2 25 -24 21 2 0.52960606D-02 0.11949346D+00 0.15527302D+05 0.15527302D+05 0.15527302D+05 0.12461156D+01  1  2  4  1  5  1        1 -.743359723679D-01 0.100000000000D+01
0.418409094677D-04 0.000000000000D+00 0.000000000000D+00 0.142669301724D-02 0.251152377267D-03  5 1 -2 25 -24 21 2 0.53297835D-02 0.12806001D+00 0.16425069D+05 0.16425069D+05 0.16425069D+05 0.12433540D+01  1  2 11  1  5  1        1 0.398694752255D-02 0.100000000000D+01
0.192257435980D-05 0.000000000000D+00 0.000000000000D+00 0.142669301724D-02 0.311319472814D-06  5 21 -2 25 -24 -1 2 0.53297835D-02 0.12806001D+00 0.16425069D+05 0.16425069D+05 0.16425069D+05 0.12433540D+01  1  2 11  3  5  1        1 0.278992371479D-02 0.100000000000D+01
  </mgrwgt>
  </event>
  <event>
  4     66 0.47139866E-03 0.10457334E+03 0.75467711E-02 0.10712291E+00
        1 -1    0    0  501    0 0.00000000E+00 0.00000000E+00 0.92077880E+03 0.92077885E+03 0.32000000E+00 0.0000E+00 0.9000E+01
       -2 -1    0    0    0  501 0.00000000E+00 0.00000000E+00 -.16948281E+02 0.16951302E+02 0.32000000E+00 0.0000E+00 0.9000E+01
       25  1    1    2    0    0 -.18935390E+02 0.31998280E+01 0.26566173E+03 0.29422771E+03 0.12500000E+03 0.0000E+00 0.9000E+01
      -24  1    1    2    0    0 0.18935390E+02 -.31998280E+01 0.63816878E+03 0.64350244E+03 0.80419002E+02 0.0000E+00 0.9000E+01
#aMCatNLO 1  0  0  2  1 0.29665991D+03 0.00000000D+00  -5  5  0 0.00000000D+00 0.00000000D+00 0.00000000D+00 0.00000000D+00 0.00000000D+00
  <mgrwgt>
 0.3009534752D+00    5    2    0
 0.124928221654836D+03 0.000000000000000D+00 0.000000000000000D+00 0.124928221654836D+03
 0.124928221654836D+03 0.000000000000000D+00 0.000000000000000D+00 -.124928221654836D+03
 0.143254313078220D+03 -.189353904328711D+02 0.319982802861415D+01 -.672904919379756D+02
 0.106602130231451D+03 0.189353904328711D+02 -.319982802861415D+01 0.672904919379756D+02
 0.000000000000000D+00 0.000000000000000D+00 -.000000000000000D+00 -.000000000000000D+00
 0.304826119303991D+03 0.000000000000000D+00 0.000000000000000D+00 0.304826119303991D+03
 0.392329807630845D+03 0.000000000000000D+00 0.000000000000000D+00 -.392329807630845D+03
 0.226688349304687D+03 -.228543122152834D+02 0.175249187782413D+03 -.672904919379756D+02
 0.161171605949968D+03 0.160987769946699D+02 0.121333794485058D+03 0.672904919379756D+02
 0.309295971680181D+03 0.675553522061356D+01 -.296582982267471D+03 -.875036883268538D+02
0.276452750490D-03 0.000000000000D+00 0.000000000000D+00 0.201198070210D-02 0.000000000000D+00  5 1 -2 25 -24 21 0 0.14165851D+00 0.26076646D-02 0.10935583D+05 0.10935583D+05 0.10935583D+05 0.12637795D+01  1  2  2  2  5  2       -2 0.221870245570D+00 0.100000000000D+01
-.147678213024D-04 0.000000000000D+00 -.106165135356D-05 0.201198070210D-02 0.000000000000D+00  5 1 -2 25 -24 21 2 0.14165851D+00 0.26076646D-02 0.10935583D+05 0.10935583D+05 0.10935583D+05 0.12637795D+01  1  2  3  2  5  2       -2 -.189294145555D-01 0.100000000000D+01
0.189959835471D-04 0.000000000000D+00 0.000000000000D+00 0.201198070210D-02 0.000000000000D+00  5 1 -2 25 -24 21 2 0.14165851D+00 0.26076646D-02 0.10935583D+05 0.10935583D+05 0.10935583D+05 0.12637795D+01  1  2 15  2  5  2       -2 0.243490789934D-01 0.100000000000D+01
0.392423453490D-03 0.000000000000D+00 -.158071776366D-03 0.201198070210D-02 0.000000000000D+00  5 1 -2 25 -24 21 2 0.14165851D+00 0.21741100D-01 0.10935583D+05 0.10935583D+05 0.10935583D+05 0.12637795D+01  1  2  5  2  5  2       -2 0.190414259378D-01 0.100000000000D+01
0.805993188871D-04 0.000000000000D+00 -.405704182433D-04 0.201198070210D-02 0.000000000000D+00  5 1 21 25 -24 2 2 0.14165851D+00 0.21741100D-01 0.10935583D+05 0.10935583D+05 0.10935583D+05 0.12637795D+01  1  2  5  4  5  2       -2 0.546221392540D-01 0.100000000000D+01
  </mgrwgt>
  </event>
  <event>
  4     66 0.47139866E-03 0.91969124E+02 0.75467711E-02 0.12065856E+00
        1 -1    0    0  501    0 0.00000000E+00 0.00000000E+00 0.24487224E+02 0.24489315E+02 0.32000000E+00 0.0000E+00 0.9000E+01
       -2 -1    0    0    0  501 0.00000000E+00 0.00000000E+00 -.86474627E+03 0.86474633E+03 0.32000000E+00 0.0000E+00 0.9000E+01
       25  1    1    2    0    0 0.65305626E+02 -.17210198E+01 -.22672795E+03 0.26701751E+03 0.12500000E+03 0.0000E+00 0.9000E+01
      -24  1    1    2    0    0 -.65305626E+02 0.17210198E+01 -.61353110E+03 0.62221814E+03 0.80419002E+02 0.0000E+00 0.9000E+01
#aMCatNLO 1  0  0  1  2 0.41519686D+02 0.00000000D+00  -5  5  0 0.00000000D+00 0.00000000D+00 0.00000000D+00 0.00000000D+00 0.00000000D+00
  <mgrwgt>
 0.1697434470D+00    6    2    0
 0.145520417191540D+03 0.000000000000000D+00 0.000000000000000D+00 0.145520417191540D+03
 0.145520417191540D+03 0.000000000000000D+00 0.000000000000000D+00 -.145520417191540D+03
 0.161253233627833D+03 0.653056263438504D+02 -.172101982965723D+01 0.781653287207055D+02
 0.129787600755246D+03 -.653056263438504D+02 0.172101982965723D+01 -.781653287207055D+02
 0.000000000000000D+00 0.000000000000000D+00 0.000000000000000D+00 -.000000000000000D+00
 0.166296582596589D+03 0.000000000000000D+00 0.000000000000000D+00 0.166296582596589D+03
 0.169320583917829D+03 0.000000000000000D+00 0.000000000000000D+00 -.169320583917829D+03
 0.155528231397920D+03 0.471992909166330D+02 -.150478930324519D+02 0.781653287207055D+02
 0.138459271093400D+03 -.806378612604309D+02 -.956402188792742D+01 -.781653287207055D+02
 0.416296640230973D+02 0.334385703437979D+02 0.246119149203793D+02 -.302400132123961D+01
0.151940467834D-02 0.000000000000D+00 0.000000000000D+00 0.180601325149D-02 0.000000000000D+00  5 1 -2 25 -24 21 0 0.37674306D-02 0.13303805D+00 0.14963607D+05 0.14963607D+05 0.14963607D+05 0.12479428D+01  1  2  2  1  5  1        1 0.136805471998D+00 0.100000000000D+01
-.813173511226D-04 0.000000000000D+00 -.583491403328D-05 0.180601325149D-02 0.000000000000D+00  5 1 -2 25 -24 21 2 0.37674306D-02 0.13303805D+00 0.14963607D+05 0.14963607D+05 0.14963607D+05 0.12479428D+01  1  2  3  1  5  1        1 -.114025662527D-01 0.100000000000D+01
0.104200186422D-03 0.000000000000D+00 0.000000000000D+00 0.180601325149D-02 0.000000000000D+00  5 1 -2 25 -24 21 2 0.37674306D-02 0.13303805D+00 0.14963607D+05 0.14963607D+05 0.14963607D+05 0.12479428D+01  1  2 15  1  5  1        1 0.146112670029D-01 0.100000000000D+01
0.976196977532D-03 0.000000000000D+00 0.000000000000D+00 0.180601325149D-02 0.000000000000D+00  5 1 -2 25 -24 21 2 0.45701766D-02 0.13303805D+00 0.21063303D+05 0.21063303D+05 0.21063303D+05 0.12313570D+01  1  2 12  1  5  1        1 0.103081606813D+00 0.100000000000D+01
-.849327859604D-03 0.000000000000D+00 0.000000000000D+00 0.180601325149D-02 0.000000000000D+00  5 1 -2 25 -24 21 2 0.37674306D-02 0.13303805D+00 0.14963607D+05 0.14963607D+05 0.14963607D+05 0.12479428D+01  1  2  4  1  5  1        1 -.119095335198D+00 0.100000000000D+01
0.271973854713D-04 0.000000000000D+00 0.000000000000D+00 0.180601325149D-02 0.000000000000D+00  5 21 -2 25 -24 -1 2 0.45701766D-02 0.13303805D+00 0.21063303D+05 0.21063303D+05 0.21063303D+05 0.12313570D+01  1  2 12  3  5  1        1 0.457430026412D-01 0.100000000000D+01
  </mgrwgt>
  </event>
  <event>
  4     66 0.47139866E-03 0.17157071E+03 0.75467711E-02 0.10815602E+00
        3 -1    0    0  501    0 0.00000000E+00 0.00000000E+00 0.67802521E+03 0.67802540E+03 0.50000000E+00 0.0000E+00 0.9000E+01
       -4 -1    0    0    0  501 0.00000000E+00 0.00000000E+00 -.45222785E+02 0.45249340E+02 0.15500000E+01 0.0000E+00 0.9000E+01
       25  1    1    2    0    0 0.50211644E+01 0.13617361E+03 0.41238430E+03 0.45194499E+03 0.12500000E+03 0.0000E+00 0.9000E+01
      -24  1    1    2    0    0 -.50211644E+01 -.13617361E+03 0.22041813E+03 0.27132975E+03 0.80419002E+02 0.0000E+00 0.9000E+01
#aMCatNLO 1  0  0  1  2 0.21213719D+03 0.00000000D+00  -5  5  0 0.00000000D+00 0.00000000D+00 0.00000000D+00 0.00000000D+00 0.00000000D+00
  <mgrwgt>
 0.1730985160D-01    5    2    0
 0.175133828667026D+03 0.000000000000000D+00 0.000000000000000D+00 0.175133828667026D+03
 0.175133828667026D+03 0.000000000000000D+00 0.000000000000000D+00 -.175133828667026D+03
 0.188206380262755D+03 0.502116439072330D+01 0.136173608951856D+03 0.350453663812672D+02
 0.162061277071296D+03 -.502116439072330D+01 -.136173608951856D+03 -.350453663812672D+02
 0.000000000000000D+00 -.000000000000000D+00 -.000000000000000D+00 0.000000000000000D+00
 0.382638342778698D+03 0.000000000000000D+00 0.000000000000000D+00 0.382638342778698D+03
 0.267994465404944D+03 0.000000000000000D+00 0.000000000000000D+00 -.267994465404944D+03
 0.266575151076904D+03 0.112450524580586D+03 0.203872541035883D+03 0.350453663812672D+02
 0.142924076088971D+03 0.670230570638552D+02 -.907733864551350D+02 -.350453663812672D+02
 0.241133581017767D+03 -.179473581644441D+03 -.113099154580748D+03 0.114643877373754D+03
0.719737704573D-03 0.000000000000D+00 0.000000000000D+00 0.217093771240D-02 0.000000000000D+00  5 3 -4 25 -24 21 0 0.10431363D+00 0.69594084D-02 0.29436509D+05 0.29436509D+05 0.29436509D+05 0.12157636D+01  1  2  2  1  5  1        3 0.168812125601D-01 0.100000000000D+01
-.399648873261D-04 0.000000000000D+00 -.276398229685D-05 0.217093771240D-02 0.000000000000D+00  5 3 -4 25 -24 21 2 0.10431363D+00 0.69594084D-02 0.29436509D+05 0.29436509D+05 0.29436509D+05 0.12157636D+01  1  2  3  1  5  1        3 -.138549919202D-02 0.100000000000D+01
0.496051817539D-04 0.000000000000D+00 0.000000000000D+00 0.217093771240D-02 0.000000000000D+00  5 3 -4 25 -24 21 2 0.10431363D+00 0.69594084D-02 0.29436509D+05 0.29436509D+05 0.29436509D+05 0.12157636D+01  1  2 15  1  5  1        3 0.171970806971D-02 0.100000000000D+01
-.617703470451D-04 0.000000000000D+00 -.246206109338D-03 0.217093771240D-02 0.000000000000D+00  5 3 -4 25 -24 21 2 0.29066609D+00 0.69594084D-02 0.29436509D+05 0.29436509D+05 0.29436509D+05 0.12157636D+01  1  2  5  1  5  1        3 -.133336142134D-03 0.100000000000D+01
0.672051597760D-05 0.000000000000D+00 -.283083247867D-04 0.217093771240D-02 0.000000000000D+00  5 21 -4 25 -24 -3 2 0.29066609D+00 0.69594084D-02 0.29436509D+05 0.29436509D+05 0.29436509D+05 0.12157636D+01  1  2  5  3  5  1        3 0.227766306436D-03 0.100000000000D+01
  </mgrwgt>
  </event>
  <event>
  4     66 0.47139866E-03 0.33555883E+02 0.75467711E-02 0.12310326E+00
        1 -1    0    0  501    0 0.00000000E+00 0.00000000E+00 0.38115876E+02 0.38117219E+02 0.32000000E+00 0.0000E+00 0.9000E+01
       -2 -1    0    0    0  501 0.00000000E+00 0.00000000E+00 -.35535037E+03 0.35535052E+03 0.32000000E+00 0.0000E+00 0.9000E+01
       25  1    1    2    0    0 0.15952445E+02 0.45290053E+02 -.14471791E+03 0.19716476E+03 0.12500000E+03 0.0000E+00 0.9000E+01
      -24  1    1    2    0    0 -.15952445E+02 -.45290053E+02 -.17251659E+03 0.19630298E+03 0.80419002E+02 0.0000E+00 0.9000E+01
#aMCatNLO 1  0  0  2  1 0.26106223D+02 0.00000000D+00  -5  5  0 0.00000000D+00 0.00000000D+00 0.00000000D+00 0.00000000D+00 0.00000000D+00
  <mgrwgt>
 0.1693281055D+00    9    2    0
 0.116382057660025D+03 0.000000000000000D+00 0.000000000000000D+00 0.116382057660025D+03
 0.116382057660025D+03 0.000000000000000D+00 0.000000000000000D+00 -.116382057660025D+03
 0.136053870114959D+03 0.159524452812834D+02 0.452900533626765D+02 0.240829011792964D+02
 0.967102452050904D+02 -.159524452812834D+02 -.452900533626765D+02 -.240829011792964D+02
 0.000000000000000D+00 0.000000000000000D+00 0.000000000000000D+00 -.000000000000000D+00
 0.119006269887330D+03 0.000000000000000D+00 0.000000000000000D+00 0.119006269887330D+03
 0.207047840823338D+03 0.000000000000000D+00 0.000000000000000D+00 -.207047840823338D+03
 0.131967694607224D+03 0.575430593198616D+01 0.343128875785005D+02 0.240829011792964D+02
 0.102255848758415D+03 -.235230448863132D+02 -.534389640711534D+02 -.240829011792964D+02
 0.918305673450298D+02 0.177687389543270D+02 0.191260764926530D+02 -.880415709360085D+02
0.408217699915D-03 0.000000000000D+00 0.000000000000D+00 0.275183274562D-02 0.000000000000D+00  5 1 -2 25 -24 21 0 0.58640953D-02 0.54669403D-01 0.12946927D+05 0.12946927D+05 0.12946927D+05 0.12551765D+01  1  2  2  2  5  2       -2 0.144069116244D+00 0.100000000000D+01
-.226647128858D-04 0.000000000000D+00 -.156766345386D-05 0.275183274562D-02 0.000000000000D+00  5 1 -2 25 -24 21 2 0.58640953D-02 0.54669403D-01 0.12946927D+05 0.12946927D+05 0.12946927D+05 0.12551765D+01  1  2  3  2  5  2       -2 -.126019833601D-01 0.100000000000D+01
0.282466325993D-04 0.000000000000D+00 0.000000000000D+00 0.275183274562D-02 0.000000000000D+00  5 1 -2 25 -24 21 2 0.58640953D-02 0.54669403D-01 0.12946927D+05 0.12946927D+05 0.12946927D+05 0.12551765D+01  1  2 15  2  5  2       -2 0.157056299716D-01 0.100000000000D+01
0.169042470974D-02 0.000000000000D+00 0.000000000000D+00 0.275183274562D-02 0.000000000000D+00  5 1 -2 25 -24 21 2 0.58640953D-02 0.97438033D-01 0.16286519D+05 0.16286519D+05 0.16286519D+05 0.12437689D+01  1  2 12  2  5  2       -2 0.269811811944D+00 0.100000000000D+01
-.151273888575D-02 0.000000000000D+00 0.000000000000D+00 0.275183274562D-02 0.000000000000D+00  5 1 -2 25 -24 21 2 0.58640953D-02 0.54669403D-01 0.12946927D+05 0.12946927D+05 0.12946927D+05 0.12551765D+01  1  2  4  2  5  2       -2 -.841109718110D+00 0.100000000000D+01
-.174742338470D-02 0.000000000000D+00 -.122221274327D-03 0.275183274562D-02 0.000000000000D+00  5 1 -2 25 -24 21 2 0.58640953D-02 0.98171221D-01 0.12946927D+05 0.12946927D+05 0.12946927D+05 0.12551765D+01  1  2  5  2  5  2       -2 -.277546982513D+00 0.100000000000D+01
0.156192174799D-02 0.000000000000D+00 0.103903006406D-03 0.275183274562D-02 0.000000000000D+00  5 1 -2 25 -24 21 2 0.58640953D-02 0.54669403D-01 0.12946927D+05 0.12946927D+05 0.12946927D+05 0.12551765D+01  1  2  6  2  5  2       -2 0.868456264027D+00 0.100000000000D+01
0.107390454655D-03 0.000000000000D+00 0.000000000000D+00 0.275183274562D-02 0.000000000000D+00  5 1 21 25 -24 2 2 0.58640953D-02 0.97438033D-01 0.16286519D+05 0.16286519D+05 0.16286519D+05 0.12437689D+01  1  2 12  4  5  2       -2 0.205865467395D+00 0.100000000000D+01
-.105778907859D-03 0.000000000000D+00 -.785138708241D-05 0.275183274562D-02 0.000000000000D+00  5 1 21 25 -24 2 2 0.58640953D-02 0.98171221D-01 0.12946927D+05 0.12946927D+05 0.12946927D+05 0.12551765D+01  1  2  5  4  5  2       -2 -.203321500124D+00 0.100000000000D+01
  </mgrwgt>
  </event>
  <event>
  4     66 0.47139866E-03 0.80179212E+02 0.75467711E-02 0.11610959E+00
        1 -1    0    0  501    0 0.00000000E+00 0.00000000E+00 0.19591249E+04 0.19591249E+04 0.32000000E+00 0.0000E+00 0.9000E+01
       -2 -1    0    0    0  501 0.00000000E+00 0.00000000E+00 -.15429519E+02 0.15432837E+02 0.32000000E+00 0.0000E+00 0.9000E+01
       25  1    1    2    0    0 -.33004108E+02 0.13371585E+03 0.93335004E+03 0.95170189E+03 0.12500000E+03 0.0000E+00 0.9000E+01
      -24  1    1    2    0    0 0.33004108E+02 -.13371585E+03 0.10103453E+04 0.10228558E+04 0.80419002E+02 0.0000E+00 0.9000E+01
#aMCatNLO 1  0  0  1  2 0.27654367D+02 0.00000000D+00  -5  5  0 0.00000000D+00 0.00000000D+00 0.00000000D+00 0.00000000D+00 0.00000000D+00
  <mgrwgt>
 0.2499679831D+00    9    2    0
 0.173872526252214D+03 0.000000000000000D+00 0.000000000000000D+00 0.173872526252214D+03
 0.173872526252214D+03 0.000000000000000D+00 0.000000000000000D+00 -.173872526252214D+03
 0.187039908476168D+03 -.330041076624460D+02 0.133715852381588D+03 -.197415060733585D+02
 0.160705144028260D+03 0.330041076624460D+02 -.133715852381588D+03 0.197415060733585D+02
 0.000000000000000D+00 -.000000000000000D+00 -.000000000000000D+00 0.000000000000000D+00
 0.286491585079490D+03 0.000000000000000D+00 0.000000000000000D+00 0.286491585079490D+03
 0.176127456377351D+03 0.000000000000000D+00 0.000000000000000D+00 -.176127456377351D+03
 0.197266554958782D+03 -.291792043500875D+02 0.148485489785222D+03 -.197415060733585D+02
 0.151576368950224D+03 0.361121651817074D+02 -.121714272513984D+03 0.197415060733585D+02
 0.113776117547836D+03 -.693296083161992D+01 -.267712172712379D+02 0.110364128702139D+03
0.104259638511D-02 0.000000000000D+00 0.000000000000D+00 0.223418543736D-02 0.000000000000D+00  5 1 -2 25 -24 21 0 0.30140408D+00 0.23740293D-02 0.29839651D+05 0.29839651D+05 0.29839651D+05 0.12151428D+01  1  2  2  1  5  1        1 0.197667596864D+00 0.100000000000D+01
-.579190223284D-04 0.000000000000D+00 -.400384464074D-05 0.223418543736D-02 0.000000000000D+00  5 1 -2 25 -24 21 2 0.30140408D+00 0.23740293D-02 0.29839651D+05 0.29839651D+05 0.29839651D+05 0.12151428D+01  1  2  3  1  5  1        1 -.162141839026D-01 0.100000000000D+01
0.719054415340D-04 0.000000000000D+00 0.000000000000D+00 0.223418543736D-02 0.000000000000D+00  5 1 -2 25 -24 21 2 0.30140408D+00 0.23740293D-02 0.29839651D+05 0.29839651D+05 0.29839651D+05 0.12151428D+01  1  2 15  1  5  1        1 0.201296224584D-01 0.100000000000D+01
0.672244238439D-02 0.000000000000D+00 0.000000000000D+00 0.223418543736D-02 0.000000000000D+00  5 1 -2 25 -24 21 2 0.49748821D+00 0.23740293D-02 0.35009387D+05 0.35009387D+05 0.35009387D+05 0.12079222D+01  1  2 12  1  5  1        1 0.261089615203D+00 0.100000000000D+01
-.606988203710D-02 0.000000000000D+00 0.000000000000D+00 0.223418543736D-02 0.000000000000D+00  5 1 -2 25 -24 21 2 0.30140408D+00 0.23740293D-02 0.29839651D+05 0.29839651D+05 0.29839651D+05 0.12151428D+01  1  2  4  1  5  1        1 -.169923765389D+01 0.100000000000D+01
-.688547076062D-02 0.000000000000D+00 -.324321432703D-03 0.223418543736D-02 0.000000000000D+00  5 1 -2 25 -24 21 2 0.49788219D+00 0.23740293D-02 0.29839651D+05 0.29839651D+05 0.29839651D+05 0.12151428D+01  1  2  5  1  5  1        1 -.270826807517D+00 0.100000000000D+01
0.627774334270D-02 0.000000000000D+00 0.287359990710D-03 0.223418543736D-02 0.000000000000D+00  5 1 -2 25 -24 21 2 0.30140408D+00 0.23740293D-02 0.29839651D+05 0.29839651D+05 0.29839651D+05 0.12151428D+01  1  2  6  1  5  1        1 0.175742754211D+01 0.100000000000D+01
0.379701572367D-03 0.000000000000D+00 0.000000000000D+00 0.223418543736D-02 0.000000000000D+00  5 21 -2 25 -24 -1 2 0.49748821D+00 0.23740293D-02 0.35009387D+05 0.35009387D+05 0.35009387D+05 0.12079222D+01  1  2 12  3  5  1        1 0.508397607901D-02 0.100000000000D+01
-.374706064696D-03 0.000000000000D+00 -.183415060473D-04 0.223418543736D-02 0.000000000000D+00  5 21 -2 25 -24 -1 2 0.49788219D+00 0.23740293D-02 0.29839651D+05 0.29839651D+05 0.29839651D+05 0.12151428D+01  1  2  5  3  5  1        1 -.515172425730D-02 0.100000000000D+01
  </mgrwgt>
  </event>
  <event>
  4     66 0.47139866E-03 0.13327575E+03 0.75467711E-02 0.10661116E+00
        1 -1    0    0  501    0 0.00000000E+00 0.00000000E+00 0.15670865E+04 0.15670865E+04 0.32000000E+00 0.0000E+00 0.9000E+01
       -2 -1    0    0    0  501 0.00000000E+00 0.00000000E+00 -.13789146E+02 0.13792859E+02 0.32000000E+00 0.0000E+00 0.9000E+01
       25  1    1    2    0    0 -.25509416E+02 0.79753878E+02 0.52761637E+03 0.54864875E+03 0.12500000E+03 0.0000E+00 0.9000E+01
      -24  1    1    2    0    0 0.25509416E+02 -.79753878E+02 0.10256810E+04 0.10322306E+04 0.80419002E+02 0.0000E+00 0.9000E+01
#aMCatNLO 1  0  0  2  2 0.28947006D+03 0.00000000D+00  -5  5  0 0.00000000D+00 0.00000000D+00 0.00000000D+00 0.00000000D+00 0.00000000D+00
  <mgrwgt>
 0.2207217128D+00    5    2    0
 0.147009337189674D+03 0.000000000000000D+00 0.000000000000000D+00 0.147009337189674D+03
 0.147009337189674D+03 0.000000000000000D+00 0.000000000000000D+00 -.147009337189674D+03
 0.162582810651794D+03 -.255094158320649D+02 0.797538781917425D+02 -.616178459273022D+02
 0.131435863727553D+03 0.255094158320649D+02 -.797538781917425D+02 0.616178459273022D+02
 0.000000000000000D+00 -.000000000000000D+00 -.000000000000000D+00 -.000000000000000D+00
 0.226774611371582D+03 0.000000000000000D+00 0.000000000000000D+00 0.226774611371582D+03
 0.122946713300490D+04 0.000000000000000D+00 0.000000000000000D+00 -.122946713300490D+04
 0.211680572735189D+03 0.126909793001359D+03 0.963369626733645D+02 -.616178459273022D+02
 0.200920807032150D+03 0.160862066014585D+03 -.650276212457351D+02 0.616178459273022D+02
 0.104364036460914D+04 -.287771859015943D+03 -.313093414276294D+02 -.100269252163332D+04
0.647531667911D-03 0.000000000000D+00 0.000000000000D+00 0.204503706427D-02 0.000000000000D+00  5 1 -2 25 -24 21 0 0.24109052D+00 0.21216952D-02 0.17762427D+05 0.17762427D+05 0.17762427D+05 0.12395395D+01  1  2  2  2  5  2       -2 0.257164778701D+00 0.100000000000D+01
-.355532611513D-04 0.000000000000D+00 -.248669210378D-05 0.204503706427D-02 0.000000000000D+00  5 1 -2 25 -24 21 2 0.24109052D+00 0.21216952D-02 0.17762427D+05 0.17762427D+05 0.17762427D+05 0.12395395D+01  1  2  3  2  5  2       -2 -.216945489209D-01 0.100000000000D+01
0.447027695441D-04 0.000000000000D+00 0.000000000000D+00 0.204503706427D-02 0.000000000000D+00  5 1 -2 25 -24 21 2 0.24109052D+00 0.21216952D-02 0.17762427D+05 0.17762427D+05 0.17762427D+05 0.12395395D+01  1  2 15  2  5  2       -2 0.272775658089D-01 0.100000000000D+01
-.515883270115D-03 0.000000000000D+00 -.570719749118D-03 0.204503706427D-02 0.000000000000D+00  5 1 -2 25 -24 21 2 0.24109052D+00 0.28956678D-01 0.17762427D+05 0.17762427D+05 0.17762427D+05 0.12395395D+01  1  2  5  2  5  2       -2 -.523981317807D-02 0.100000000000D+01
-.272952483981D-03 0.000000000000D+00 -.170487670991D-03 0.204503706427D-02 0.000000000000D+00  5 1 21 25 -24 2 2 0.24109052D+00 0.28956678D-01 0.17762427D+05 0.17762427D+05 0.17762427D+05 0.12395395D+01  1  2  5  4  5  2       -2 -.367862695906D-01 0.100000000000D+01
  </mgrwgt>
  </event>
  <event>
  4     66 0.47139866E-03 0.57669691E+02 0.75467711E-02 0.12313878E+00
        1 -1    0    0  501    0 0.00000000E+00 0.00000000E+00 0.93705888E+03 0.93705893E+03 0.32000000E+00 0.0000E+00 0.9000E+01
       -2 -1    0    0    0  501 0.00000000E+00 0.00000000E+00 -.17362838E+02 0.17365786E+02 0.32000000E+00 0.0000E+00 0.9000E+01
       25  1    1    2    0    0 0.41784247E+02 0.54041946E+02 0.41350810E+03 0.43735615E+03 0.12500000E+03 0.0000E+00 0.9000E+01
      -24  1    1    2    0    0 -.41784247E+02 -.54041946E+02 0.50618795E+03 0.51706857E+03 0.80419002E+02 0.0000E+00 0.9000E+01
#aMCatNLO 1  0  0  1  2 0.66869407D+01 0.00000000D+00  -5  5  0 0.00000000D+00 0.00000000D+00 0.00000000D+00 0.00000000D+00 0.00000000D+00
  <mgrwgt>
 0.3091100722D+00   11    2    0
 0.127559532069631D+03 0.000000000000000D+00 0.000000000000000D+00 0.127559532069631D+03
 0.127559532069631D+03 0.000000000000000D+00 0.000000000000000D+00 -.127559532069631D+03
 0.145507591099493D+03 0.417842472230915D+02 0.540419455860273D+02 -.296817093317377D+02
 0.109611473039768D+03 -.417842472230915D+02 -.540419455860273D+02 0.296817093317377D+02
 0.000000000000000D+00 0.000000000000000D+00 0.000000000000000D+00 0.000000000000000D+00
 0.139188643436473D+03 0.000000000000000D+00 0.000000000000000D+00 0.139188643436473D+03
 0.128568254329310D+03 0.000000000000000D+00 0.000000000000000D+00 -.128568254329310D+03
 0.143774820042402D+03 0.391966726281126D+02 0.512719793284386D+02 -.296817093317377D+02
 0.111431864946921D+03 -.437614366536757D+02 -.561585021553362D+02 0.296817093317377D+02
 0.125502127764602D+02 0.456476402556306D+01 0.488652282689753D+01 0.106203891071636D+02
0.203870127143D-03 0.000000000000D+00 0.000000000000D+00 0.252934623396D-02 0.000000000000D+00  5 1 -2 25 -24 21 0 0.14416314D+00 0.26714368D-02 0.15371572D+05 0.15371572D+05 0.15371572D+05 0.12466129D+01  1  2  2  1  5  1        1 0.155098007147D+00 0.100000000000D+01
-.113149754115D-04 0.000000000000D+00 -.782914968467D-06 0.252934623396D-02 0.000000000000D+00  5 1 -2 25 -24 21 2 0.14416314D+00 0.26714368D-02 0.15371572D+05 0.15371572D+05 0.15371572D+05 0.12466129D+01  1  2  3  1  5  1        1 -.133773300515D-01 0.100000000000D+01
0.141033723037D-04 0.000000000000D+00 0.000000000000D+00 0.252934623396D-02 0.000000000000D+00  5 1 -2 25 -24 21 2 0.14416314D+00 0.26714368D-02 0.15371572D+05 0.15371572D+05 0.15371572D+05 0.12466129D+01  1  2 15  1  5  1        1 0.166739616556D-01 0.100000000000D+01
0.180248035635D-02 0.000000000000D+00 0.000000000000D+00 0.252934623396D-02 0.000000000000D+00  5 1 -2 25 -24 21 2 0.15784465D+00 0.26714368D-02 0.16227015D+05 0.16227015D+05 0.16227015D+05 0.12439484D+01  1  2 12  1  5  1        1 0.182766358501D+01 0.100000000000D+01
-.198614068037D-02 0.000000000000D+00 0.000000000000D+00 0.252934623396D-02 0.000000000000D+00  5 1 -2 25 -24 21 2 0.14416314D+00 0.26714368D-02 0.15371572D+05 0.15371572D+05 0.15371572D+05 0.12466129D+01  1  2  4  1  5  1        1 -.234814999094D+01 0.100000000000D+01
-.316485443117D-02 0.000000000000D+00 -.313802107522D-03 0.252934623396D-02 0.000000000000D+00  5 1 -2 25 -24 21 2 0.15788782D+00 0.26714368D-02 0.15371572D+05 0.15371572D+05 0.15371572D+05 0.12466129D+01  1  2  5  1  5  1        1 -.321706496131D+01 0.100000000000D+01
0.318151989568D-02 0.000000000000D+00 0.312509001088D-03 0.252934623396D-02 0.000000000000D+00  5 1 -2 25 -24 21 2 0.14416314D+00 0.26714368D-02 0.15371572D+05 0.15371572D+05 0.15371572D+05 0.12466129D+01  1  2  6  1  5  1        1 0.376140823661D+01 0.100000000000D+01
0.152992134530D-03 0.000000000000D+00 0.000000000000D+00 0.252934623396D-02 0.468775374344D-03  5 1 -2 25 -24 21 2 0.15730593D+00 0.26925621D-02 0.16227015D+05 0.16227015D+05 0.16227015D+05 0.12439484D+01  1  2 11  1  5  1        1 0.154250021340D+00 0.100000000000D+01
0.271651353052D-04 0.000000000000D+00 0.000000000000D+00 0.252934623396D-02 0.000000000000D+00  5 21 -2 25 -24 -1 2 0.15784465D+00 0.26714368D-02 0.16227015D+05 0.16227015D+05 0.16227015D+05 0.12439484D+01  1  2 12  3  5  1        1 0.431648974570D-01 0.100000000000D+01
-.464641338387D-04 0.000000000000D+00 -.469290289036D-05 0.252934623396D-02 0.000000000000D+00  5 21 -2 25 -24 -1 2 0.15788782D+00 0.26714368D-02 0.15371572D+05 0.15371572D+05 0.15371572D+05 0.12466129D+01  1  2  5  3  5  1        1 -.741487302277D-01 0.100000000000D+01
0.226646148050D-05 0.000000000000D+00 0.000000000000D+00 0.252934623396D-02 0.676147867728D-05  5 21 -2 25 -24 -1 2 0.15730593D+00 0.26925621D-02 0.16227015D+05 0.16227015D+05 0.16227015D+05 0.12439484D+01  1  2 11  3  5  1        1 0.359237549474D-02 0.100000000000D+01
  </mgrwgt>
  </event>
  <event>
  4     66 0.47139866E-03 0.11401790E+03 0.75467711E-02 0.11908227E+00
        1 -1    0    0  501    0 0.00000000E+00 0.00000000E+00 0.54573363E+03 0.54573373E+03 0.32000000E+00 0.0000E+00 0.9000E+01
       -2 -1    0    0    0  501 0.00000000E+00 0.00000000E+00 -.25245858E+02 0.25247886E+02 0.32000000E+00 0.0000E+00 0.9000E+01
       25  1    1    2    0    0 -.48052629E+02 0.69363455E+01 0.37032924E+03 0.39386027E+03 0.12500000E+03 0.0000E+00 0.9000E+01
      -24  1    1    2    0    0 0.48052629E+02 -.69363455E+01 0.15015854E+03 0.17712134E+03 0.80419002E+02 0.0000E+00 0.9000E+01
#aMCatNLO 1  0  0  1  1 0.76027862D+02 0.00000000D+00  -5  5  0 0.00000000D+00 0.00000000D+00 0.00000000D+00 0.00000000D+00 0.00000000D+00
  <mgrwgt>
 0.2844926337D+00    3    2    0
 0.117380235674556D+03 0.000000000000000D+00 0.000000000000000D+00 0.117380235674556D+03
 0.117380235674556D+03 0.000000000000000D+00 0.000000000000000D+00 -.117380235674556D+03
 0.136884762976367D+03 -.480526289994382D+02 0.693634546363117D+01 0.274821813717118D+02
 0.978757083727453D+02 0.480526289994382D+02 -.693634546363117D+01 -.274821813717118D+02
 0.000000000000000D+00 0.000000000000000D+00 -.000000000000000D+00 -.000000000000000D+00
 0.124652572509034D+03 0.000000000000000D+00 0.000000000000000D+00 0.124652572509034D+03
 0.126093159209116D+04 0.000000000000000D+00 0.000000000000000D+00 -.126093159209116D+04
 0.150228102506662D+03 -.602296056720532D+02 0.506024415457740D+02 0.274821813717118D+02
 0.965363897656914D+02 0.398072597787901D+02 0.226311813783373D+02 -.274821813717118D+02
 0.113881967232784D+04 0.204223458932631D+02 -.732336229241113D+02 -.113627901958212D+04
0.291951730887D-03 0.000000000000D+00 0.000000000000D+00 0.270195321374D-02 0.000000000000D+00  5 1 -2 25 -24 21 0 0.83959184D-01 0.38841414D-02 0.13000081D+05 0.13000081D+05 0.13000081D+05 0.12549700D+01  1  2  2  1  5  1        1 0.278491934003D+00 0.100000000000D+01
-.162028833375D-04 0.000000000000D+00 -.112117151926D-05 0.270195321374D-02 0.000000000000D+00  5 1 -2 25 -24 21 2 0.83959184D-01 0.38841414D-02 0.13000081D+05 0.13000081D+05 0.13000081D+05 0.12549700D+01  1  2  3  1  5  1        1 -.243422415178D-01 0.100000000000D+01
0.201971185251D-04 0.000000000000D+00 0.000000000000D+00 0.270195321374D-02 0.000000000000D+00  5 1 -2 25 -24 21 2 0.83959184D-01 0.38841414D-02 0.13000081D+05 0.13000081D+05 0.13000081D+05 0.12549700D+01  1  2 15  1  5  1        1 0.303429412447D-01 0.100000000000D+01
  </mgrwgt>
  </event>
  <event>
  4     66 0.47139866E-03 0.71618403E+02 0.75467711E-02 0.11473702E+00
        1 -1    0    0  501    0 0.00000000E+00 0.00000000E+00 0.70406425E+03 0.70406432E+03 0.32000000E+00 0.0000E+00 0.9000E+01
       -2 -1    0    0    0  501 0.00000000E+00 0.00000000E+00 -.54491587E+02 0.54492527E+02 0.32000000E+00 0.0000E+00 0.9000E+01
       25  1    1    2    0    0 0.82428353E+02 -.12956575E+03 0.22363422E+03 0.29869547E+03 0.12500000E+03 0.0000E+00 0.9000E+01
      -24  1    1    2    0    0 -.82428353E+02 0.12956575E+03 0.42593844E+03 0.45986138E+03 0.80419002E+02 0.0000E+00 0.9000E+01
#aMCatNLO 1  0  0  2  1 0.32818933D+02 0.00000000D+00  -5  5  0 0.00000000D+00 0.00000000D+00 0.00000000D+00 0.00000000D+00 0.00000000D+00
  <mgrwgt>
 0.1919540631D+00    9    2    0
 0.195872311978096D+03 0.000000000000000D+00 0.000000000000000D+00 0.195872311978096D+03
 0.195872311978096D+03 0.000000000000000D+00 0.000000000000000D+00 -.195872311978096D+03
 0.207560773651349D+03 0.824283531031689D+02 -.129565753698244D+03 -.622475447873386D+02
 0.184183850304843D+03 -.824283531031689D+02 0.129565753698244D+03 0.622475447873386D+02
 0.000000000000000D+00 -.000000000000000D+00 -.000000000000000D+00 -.000000000000000D+00
 0.204590560840917D+03 0.000000000000000D+00 0.000000000000000D+00 0.204590560840917D+03
 0.230082830151939D+03 0.000000000000000D+00 0.000000000000000D+00 -.230082830151939D+03
 0.204233256222140D+03 0.933031977340534D+02 -.116215228811231D+03 -.622475447873386D+02
 0.188883689193548D+03 -.725762152999138D+02 0.141660750491034D+03 0.622475447873386D+02
 0.415564455771686D+02 -.207269824341396D+02 -.254455216798032D+02 -.254922693110227D+02
0.799229376721D-03 0.000000000000D+00 0.000000000000D+00 0.196759985157D-02 0.000000000000D+00  5 1 -2 25 -24 21 0 0.10831765D+00 0.83833990D-02 0.34475790D+05 0.34475790D+05 0.34475790D+05 0.12086106D+01  1  2  2  2  5  2       -2 0.170944535394D+00 0.100000000000D+01
-.442473610556D-04 0.000000000000D+00 -.306925124853D-05 0.196759985157D-02 0.000000000000D+00  5 1 -2 25 -24 21 2 0.10831765D+00 0.83833990D-02 0.34475790D+05 0.34475790D+05 0.34475790D+05 0.12086106D+01  1  2  3  2  5  2       -2 -.138243250310D-01 0.100000000000D+01
0.551228836759D-04 0.000000000000D+00 0.000000000000D+00 0.196759985157D-02 0.000000000000D+00  5 1 -2 25 -24 21 2 0.10831765D+00 0.83833990D-02 0.34475790D+05 0.34475790D+05 0.34475790D+05 0.12086106D+01  1  2 15  2  5  2       -2 0.172221945536D-01 0.100000000000D+01
0.133301831521D-02 0.000000000000D+00 0.000000000000D+00 0.196759985157D-02 0.000000000000D+00  5 1 -2 25 -24 21 2 0.10831765D+00 0.10011161D-01 0.41141405D+05 0.41141405D+05 0.41141405D+05 0.12007614D+01  1  2 12  2  5  2       -2 0.311418729741D+00 0.100000000000D+01
-.134817090735D-02 0.000000000000D+00 0.000000000000D+00 0.196759985157D-02 0.000000000000D+00  5 1 -2 25 -24 21 2 0.10831765D+00 0.83833990D-02 0.34475790D+05 0.34475790D+05 0.34475790D+05 0.12086106D+01  1  2  4  2  5  2       -2 -.421212754294D+00 0.100000000000D+01
-.247458926934D-02 0.000000000000D+00 -.524547877864D-03 0.196759985157D-02 0.000000000000D+00  5 1 -2 25 -24 21 2 0.10831765D+00 0.10273803D-01 0.34475790D+05 0.34475790D+05 0.34475790D+05 0.12086106D+01  1  2  5  2  5  2       -2 -.561427137083D+00 0.100000000000D+01
0.253923558319D-02 0.000000000000D+00 0.513886936599D-03 0.196759985157D-02 0.000000000000D+00  5 1 -2 25 -24 21 2 0.10831765D+00 0.83833990D-02 0.34475790D+05 0.34475790D+05 0.34475790D+05 0.12086106D+01  1  2  6  2  5  2       -2 0.793340375446D+00 0.100000000000D+01
0.347655892927D-04 0.000000000000D+00 0.000000000000D+00 0.196759985157D-02 0.000000000000D+00  5 1 21 25 -24 2 2 0.10831765D+00 0.10011161D-01 0.41141405D+05 0.41141405D+05 0.41141405D+05 0.12007614D+01  1  2 12  4  5  2       -2 0.126206734785D+00 0.100000000000D+01
-.655042649589D-04 0.000000000000D+00 -.152027041814D-04 0.196759985157D-02 0.000000000000D+00  5 1 21 25 -24 2 2 0.10831765D+00 0.10273803D-01 0.34475790D+05 0.34475790D+05 0.34475790D+05 0.12086106D+01  1  2  5  4  5  2       -2 -.230714290419D+00 0.100000000000D+01
  </mgrwgt>
  </event>
  <event>
  5     66 0.47139866E-03 0.13880345E+03 0.75467711E-02 0.11744950E+00
        1 -1    0    0  502    0 0.00000000E+00 0.00000000E+00 0.23560381E+02 0.23562554E+02 0.32000000E+00 0.0000E+00 0.9000E+01
       -2 -1    0    0    0  501 0.00000000E+00 0.00000000E+00 -.13687948E+04 0.13687948E+04 0.32000000E+00 0.0000E+00 0.9000E+01
       25  1    1    2    0    0 -.12724652E+03 0.10316053E+02 -.51677327E+03 0.54678854E+03 0.12500000E+03 0.0000E+00 0.9000E+01
      -24  1    1    2    0    0 0.67846544E+02 0.84284666E+01 -.46706368E+03 0.47884223E+03 0.80419002E+02 0.0000E+00 0.9000E+01
       21  1    1    2  502  501 0.59399973E+02 -.18744519E+02 -.36139745E+03 0.36672659E+03 0.75000000E+00 0.0000E+00 0.9000E+01
#aMCatNLO 2  0  0  1  1 0.62287348D+02 0.00000000D+00  -5  5  0 0.00000000D+00 0.00000000D+00 0.00000000D+00 0.00000000D+00 0.00000000D+00
  <mgrwgt>
 0.1922570058D-01    1    2    0
 0.141512932380525D+03 0.000000000000000D+00 0.000000000000000D+00 0.141512932380525D+03
 0.141512932380525D+03 0.000000000000000D+00 0.000000000000000D+00 -.141512932380525D+03
 0.157691284230737D+03 -.921508097018854D+02 -.758904396993800D+00 0.273713985346401D+02
 0.125334580530313D+03 0.921508097018854D+02 0.758904396993800D+00 -.273713985346401D+02
 0.000000000000000D+00 0.000000000000000D+00 -.000000000000000D+00 -.000000000000000D+00
 0.163373688625733D+03 0.000000000000000D+00 0.000000000000000D+00 0.163373688625733D+03
 0.197400962577397D+03 0.000000000000000D+00 0.000000000000000D+00 -.197400962577397D+03
 0.180754779564808D+03 -.127246516392496D+03 0.103160527215889D+02 0.273713985346401D+02
 0.109044036683184D+03 0.678465435744326D+02 0.842846658968715D+01 -.273713985346401D+02
 0.709758349551385D+02 0.593999728180633D+02 -.187445193112761D+02 -.340272739516640D+02
0.462561524768D-03 0.000000000000D+00 0.000000000000D+00 0.240150026512D-02 0.507665045575D-05  5 1 -2 25 -24 21 2 0.36248024D-02 0.21058156D+00 0.30017395D+05 0.30017395D+05 0.30017395D+05 0.12148720D+01  1  2  1  1  5  1        1 0.192257005750D-01 0.100000000000D+01
  </mgrwgt>
  </event>
  <event>
  5     66 0.47139866E-03 0.10456802E+03 0.75467711E-02 0.12402763E+00
       21 -1    0    0  501  502 0.00000000E+00 0.00000000E+00 0.14206612E+03 0.14206810E+03 0.75000000E+00 0.0000E+00 0.9000E+01
       -4 -1    0    0    0  501 0.00000000E+00 0.00000000E+00 -.11394914E+03 0.11395969E+03 0.15500000E+01 0.0000E+00 0.9000E+01
       25  1    1    2    0    0 -.63845982E+01 -.37923536E+01 0.24294992E+02 0.12755545E+03 0.12500000E+03 0.0000E+00 0.9000E+01
      -24  1    1    2    0    0 -.14596889E+02 0.27815212E+02 0.25358525E+02 0.89983476E+02 0.80419002E+02 0.0000E+00 0.9000E+01
       -3  1    1    2    0  502 0.20981488E+02 -.24022859E+02 -.21536537E+02 0.38488868E+02 0.50000000E+00 0.0000E+00 0.9000E+01
#aMCatNLO 2  0  0  1  1 0.31895463D+02 0.00000000D+00  -5  5  0 0.00000000D+00 0.00000000D+00 0.00000000D+00 0.00000000D+00 0.00000000D+00
  <mgrwgt>
 0.2094004862D-01    1    2    0
 0.104690484362955D+03 0.000000000000000D+00 0.000000000000000D+00 0.104690484362955D+03
 0.104690484362955D+03 0.000000000000000D+00 0.000000000000000D+00 -.104690484362955D+03
 0.126559195978329D+03 0.616299568278670D+01 -.181587837628322D+02 -.495036798125749D+01
 0.828217727475797D+02 -.616299568278670D+01 0.181587837628322D+02 0.495036798125749D+01
 0.000000000000000D+00 0.000000000000000D+00 -.000000000000000D+00 -.000000000000000D+00
 0.112615681596865D+03 0.000000000000000D+00 0.000000000000000D+00 0.112615681596865D+03
 0.143759101305985D+03 0.000000000000000D+00 0.000000000000000D+00 -.143759101305985D+03
 0.125318199730128D+03 -.638459821844389D+01 -.379235362793657D+01 -.495036798125749D+01
 0.864781898216820D+02 -.145968893707756D+02 0.278152123488534D+02 0.495036798125749D+01
 0.445783933510407D+02 0.209814875892195D+02 -.240228587209169D+02 -.311434197091201D+02
0.596164707367D-05 0.000000000000D+00 0.000000000000D+00 0.316759085623D-02 0.420902667844D-06  5 21 -4 25 -24 -3 2 0.21857029D-01 0.17531391D-01 0.14817247D+05 0.14817247D+05 0.14817247D+05 0.12484299D+01  1  2  1  3  5  1        3 0.209400486187D-01 0.100000000000D+01
  </mgrwgt>
  </event>
  <event>
  5     66 0.47139866E-03 0.11714882E+03 0.75467711E-02 0.12280821E+00
        1 -1    0    0  501    0 0.00000000E+00 0.00000000E+00 0.29124950E+03 0.29124968E+03 0.32000000E+00 0.0000E+00 0.9000E+01
       -2 -1    0    0    0  502 0.00000000E+00 0.00000000E+00 -.59271184E+02 0.59272048E+02 0.32000000E+00 0.0000E+00 0.9000E+01
       25  1    1    2    0    0 -.64662847E+02 0.16887590E+02 0.97803515E+02 0.17221208E+03 0.12500000E+03 0.0000E+00 0.9000E+01
      -24  1    1    2    0    0 0.48095920E+02 0.73015022E-01 0.10808423E+03 0.14304769E+03 0.80419002E+02 0.0000E+00 0.9000E+01
       21  1    1    2  501  502 0.16566927E+02 -.16960605E+02 0.26090571E+02 0.35261956E+02 0.75000000E+00 0.0000E+00 0.9000E+01
#aMCatNLO 2  0  0  2  1 0.23709180D+02 0.00000000D+00  -5  5  0 0.00000000D+00 0.00000000D+00 0.00000000D+00 0.00000000D+00 0.00000000D+00
  <mgrwgt>
 0.1033637234D+00    1    2    0
 0.118782187708920D+03 0.000000000000000D+00 0.000000000000000D+00 0.118782187708920D+03
 0.118782187708920D+03 0.000000000000000D+00 0.000000000000000D+00 -.118782187708920D+03
 0.138056508678809D+03 -.548850526859159D+02 0.687744697198105D+01 -.193631429110569D+02
 0.995078667390309D+02 0.548850526859159D+02 -.687744697198105D+01 0.193631429110569D+02
 0.000000000000000D+00 0.000000000000000D+00 -.000000000000000D+00 0.000000000000000D+00
 0.133419522158126D+03 0.000000000000000D+00 0.000000000000000D+00 0.133419522158126D+03
 0.129376458495624D+03 0.000000000000000D+00 0.000000000000000D+00 -.129376458495624D+03
 0.143060846551714D+03 -.646628472536090D+02 0.168875900517382D+02 -.193631429110569D+02
 0.956836982459215D+02 0.480959200042844D+02 0.730150222947676D-01 0.193631429110569D+02
 0.240514358561141D+02 0.165669272493246D+02 -.169606050740330D+02 0.404306366250233D+01
0.114531797914D-03 0.000000000000D+00 0.000000000000D+00 0.274262690653D-02 0.405265720520D-04  5 1 -2 25 -24 21 2 0.44805697D-01 0.91183170D-02 0.16790662D+05 0.16790662D+05 0.16790662D+05 0.12422775D+01  1  2  1  2  5  2       -2 0.103363723386D+00 0.100000000000D+01
  </mgrwgt>
  </event>
  <event>
  4     66 0.47139866E-03 0.67213018E+02 0.75467711E-02 0.12404642E+00
        1 -1    0    0  501    0 0.00000000E+00 0.00000000E+00 0.66950525E+03 0.66950533E+03 0.32000000E+00 0.0000E+00 0.9000E+01
       -2 -1    0    0    0  501 0.00000000E+00 0.00000000E+00 -.24546015E+02 0.24548100E+02 0.32000000E+00 0.0000E+00 0.9000E+01
       25  1    1    2    0    0 0.55336999E+02 -.28566617E+02 0.48317355E+03 0.50295121E+03 0.12500000E+03 0.0000E+00 0.9000E+01
      -24  1    1    2    0    0 -.55336999E+02 0.28566617E+02 0.16178568E+03 0.19110222E+03 0.80419002E+02 0.0000E+00 0.9000E+01
#aMCatNLO 1  0  0  2  1 0.18588006D+01 0.00000000D+00  -5  5  0 0.00000000D+00 0.00000000D+00 0.00000000D+00 0.00000000D+00 0.00000000D+00
  <mgrwgt>
 0.2019252891D+00    8    2    0
 0.128196864007675D+03 0.000000000000000D+00 0.000000000000000D+00 0.128196864007675D+03
 0.128196864007675D+03 0.000000000000000D+00 0.000000000000000D+00 -.128196864007675D+03
 0.146055694090058D+03 0.553369985703116D+02 -.285666174120825D+02 0.427671688914474D+02
 0.110338033925293D+03 -.553369985703116D+02 0.285666174120825D+02 -.427671688914474D+02
 0.000000000000000D+00 -.000000000000000D+00 -.000000000000000D+00 0.000000000000000D+00
 0.129472770980202D+03 0.000000000000000D+00 0.000000000000000D+00 0.129472770980202D+03
 0.128879022017315D+03 0.000000000000000D+00 0.000000000000000D+00 -.128879022017315D+03
 0.146370604106411D+03 0.563383723256058D+02 -.282189796978493D+02 0.427671688914474D+02
 0.110029861777106D+03 -.545823789323830D+02 0.288285917694671D+02 -.427671688914474D+02
 0.195132711400045D+01 -.175599339322280D+01 -.609612071617736D+00 0.593748962886767D+00
0.198740813807D-03 0.000000000000D+00 0.000000000000D+00 0.238688503132D-02 0.000000000000D+00  5 1 -2 25 -24 21 0 0.10300097D+00 0.37764763D-02 0.14564456D+05 0.14564456D+05 0.14564456D+05 0.12492840D+01  1  2  2  2  5  2       -2 0.150298352573D+00 0.100000000000D+01
-.109921859927D-04 0.000000000000D+00 -.763217054678D-06 0.238688503132D-02 0.000000000000D+00  5 1 -2 25 -24 21 2 0.10300097D+00 0.37764763D-02 0.14564456D+05 0.14564456D+05 0.14564456D+05 0.12492840D+01  1  2  3  2  5  2       -2 -.129739916490D-01 0.100000000000D+01
0.137437468417D-04 0.000000000000D+00 0.000000000000D+00 0.238688503132D-02 0.000000000000D+00  5 1 -2 25 -24 21 2 0.10300097D+00 0.37764763D-02 0.14564456D+05 0.14564456D+05 0.14564456D+05 0.12492840D+01  1  2 15  2  5  2       -2 0.162216375223D-01 0.100000000000D+01
0.413728199174D-07 0.000000000000D+00 0.000000000000D+00 0.238688503132D-02 0.000000000000D+00  5 1 -2 25 -24 21 2 0.10300097D+00 0.38152224D-02 0.14789028D+05 0.14789028D+05 0.14789028D+05 0.12485244D+01  1  2 12  2  5  2       -2 0.480650016030D-04 0.100000000000D+01
-.954567949157D-03 0.000000000000D+00 0.000000000000D+00 0.238688503132D-02 0.000000000000D+00  5 1 -2 25 -24 21 2 0.10300097D+00 0.37764763D-02 0.14564456D+05 0.14564456D+05 0.14564456D+05 0.12492840D+01  1  2  4  2  5  2       -2 -.112666912742D+01 0.100000000000D+01
0.954612413496D-03 0.000000000000D+00 0.000000000000D+00 0.238688503132D-02 0.574366720889D-02  5 1 -2 25 -24 21 2 0.10402611D+00 0.37965716D-02 0.14789028D+05 0.14789028D+05 0.14789028D+05 0.12485244D+01  1  2 11  2  5  2       -2 0.110166295283D+01 0.100000000000D+01
0.254506011197D-08 0.000000000000D+00 0.000000000000D+00 0.238688503132D-02 0.000000000000D+00  5 1 21 25 -24 2 2 0.10300097D+00 0.38152224D-02 0.14789028D+05 0.14789028D+05 0.14789028D+05 0.12485244D+01  1  2 12  4  5  2       -2 0.557075429724D-04 0.100000000000D+01
0.336741585293D-05 0.000000000000D+00 0.000000000000D+00 0.238688503132D-02 0.570853147827D-05  5 1 21 25 -24 2 2 0.10402611D+00 0.37965716D-02 0.14789028D+05 0.14789028D+05 0.14789028D+05 0.12485244D+01  1  2 11  4  5  2       -2 0.732816926533D-01 0.100000000000D+01
  </mgrwgt>
  </event>
  <event>
  4     66 0.47139866E-03 0.74514627E+02 0.75467711E-02 0.11950389E+00
        1 -1    0    0  501    0 0.00000000E+00 0.00000000E+00 0.17452881E+04 0.17452882E+04 0.32000000E+00 0.0000E+00 0.9000E+01
       -2 -1    0    0    0  501 0.00000000E+00 0.00000000E+00 -.13265227E+02 0.13269086E+02 0.32000000E+00 0.0000E+00 0.9000E+01
       25  1    1    2    0    0 0.84898667E+02 0.26539825E+02 0.56733770E+03 0.58771525E+03 0.12500000E+03 0.0000E+00 0.9000E+01
      -24  1    1    2    0    0 -.84898667E+02 -.26539825E+02 0.11646852E+04 0.11708420E+04 0.80419002E+02 0.0000E+00 0.9000E+01
#aMCatNLO 1  0  0  2  1 0.33764412D+02 0.00000000D+00  -5  5  0 0.00000000D+00 0.00000000D+00 0.00000000D+00 0.00000000D+00 0.00000000D+00
  <mgrwgt>
 0.2329460903D+00    9    2    0
 0.152167873866468D+03 0.000000000000000D+00 0.000000000000000D+00 0.152167873866468D+03
 0.152167873866468D+03 0.000000000000000D+00 0.000000000000000D+00 -.152167873866468D+03
 0.167213401895705D+03 0.848986667311232D+02 0.265398247244051D+02 -.665069610222125D+02
 0.137122345837231D+03 -.848986667311232D+02 -.265398247244051D+02 0.665069610222125D+02
 0.000000000000000D+00 -.000000000000000D+00 0.000000000000000D+00 -.000000000000000D+00
 0.168342523484129D+03 0.000000000000000D+00 0.000000000000000D+00 0.168342523484129D+03
 0.171801624165993D+03 0.000000000000000D+00 0.000000000000000D+00 -.171801624165993D+03
 0.170949850519105D+03 0.951664924907199D+02 0.109093645602339D+02 -.665069610222125D+02
 0.135253158690880D+03 -.766283883915764D+02 -.391294672796533D+02 0.665069610222125D+02
 0.339411384401368D+02 -.185381040991435D+02 0.282201027194194D+02 -.345910068186334D+01
0.586697945772D-03 0.000000000000D+00 0.000000000000D+00 0.197359952955D-02 0.000000000000D+00  5 1 -2 25 -24 21 0 0.26850617D+00 0.20411032D-02 0.18677621D+05 0.18677621D+05 0.18677621D+05 0.12371102D+01  1  2  2  2  5  2       -2 0.189669177944D+00 0.100000000000D+01
-.321368363919D-04 0.000000000000D+00 -.225307459288D-05 0.197359952955D-02 0.000000000000D+00  5 1 -2 25 -24 21 2 0.26850617D+00 0.20411032D-02 0.18677621D+05 0.18677621D+05 0.18677621D+05 0.12371102D+01  1  2  3  2  5  2       -2 -.159001806604D-01 0.100000000000D+01
0.405139308991D-04 0.000000000000D+00 0.000000000000D+00 0.197359952955D-02 0.000000000000D+00  5 1 -2 25 -24 21 2 0.26850617D+00 0.20411032D-02 0.18677621D+05 0.18677621D+05 0.18677621D+05 0.12371102D+01  1  2 15  2  5  2       -2 0.200448735122D-01 0.100000000000D+01
0.430266786803D-03 0.000000000000D+00 0.000000000000D+00 0.197359952955D-02 0.000000000000D+00  5 1 -2 25 -24 21 2 0.26850617D+00 0.24005204D-02 0.23873139D+05 0.23873139D+05 0.23873139D+05 0.12254510D+01  1  2 12  2  5  2       -2 0.165118470023D+00 0.100000000000D+01
-.378000130037D-03 0.000000000000D+00 0.000000000000D+00 0.197359952955D-02 0.000000000000D+00  5 1 -2 25 -24 21 2 0.26850617D+00 0.20411032D-02 0.18677621D+05 0.18677621D+05 0.18677621D+05 0.12371102D+01  1  2  4  2  5  2       -2 -.187021220258D+00 0.100000000000D+01
-.102701843995D-02 0.000000000000D+00 -.338964008223D-03 0.197359952955D-02 0.000000000000D+00  5 1 -2 25 -24 21 2 0.26850617D+00 0.25901047D-02 0.18677621D+05 0.18677621D+05 0.18677621D+05 0.12371102D+01  1  2  5  2  5  2       -2 -.359062194640D+00 0.100000000000D+01
0.108619405827D-02 0.000000000000D+00 0.329569337409D-03 0.197359952955D-02 0.000000000000D+00  5 1 -2 25 -24 21 2 0.26850617D+00 0.20411032D-02 0.18677621D+05 0.18677621D+05 0.18677621D+05 0.12371102D+01  1  2  6  2  5  2       -2 0.537410762784D+00 0.100000000000D+01
0.104512018515D-04 0.000000000000D+00 0.000000000000D+00 0.197359952955D-02 0.000000000000D+00  5 1 21 25 -24 2 2 0.26850617D+00 0.24005204D-02 0.23873139D+05 0.23873139D+05 0.23873139D+05 0.12254510D+01  1  2 12  4  5  2       -2 0.812690778622D-01 0.100000000000D+01
-.282902799951D-04 0.000000000000D+00 -.110684557240D-04 0.197359952955D-02 0.000000000000D+00  5 1 21 25 -24 2 2 0.26850617D+00 0.25901047D-02 0.18677621D+05 0.18677621D+05 0.18677621D+05 0.12371102D+01  1  2  5  4  5  2       -2 -.198582676248D+00 0.100000000000D+01
  </mgrwgt>
  </event>
  <event>
  4     66 0.47139866E-03 0.50368813E+02 0.75467711E-02 0.12537075E+00
        1 -1    0    0  501    0 0.00000000E+00 0.00000000E+00 0.10496024E+02 0.10500901E+02 0.32000000E+00 0.0000E+00 0.9000E+01
       -2 -1    0    0    0  501 0.00000000E+00 0.00000000E+00 -.11045911E+04 0.11045912E+04 0.32000000E+00 0.0000E+00 0.9000E+01
       25  1    1    2    0    0 0.65728110E+01 0.23425814E+02 -.75994422E+03 0.77054019E+03 0.12500000E+03 0.0000E+00 0.9000E+01
      -24  1    1    2    0    0 -.65728110E+01 -.23425814E+02 -.33415090E+03 0.34455190E+03 0.80419002E+02 0.0000E+00 0.9000E+01
#aMCatNLO 1  0  0  2  1 0.15665472D+02 0.00000000D+00  -5  5  0 0.00000000D+00 0.00000000D+00 0.00000000D+00 0.00000000D+00 0.00000000D+00
  <mgrwgt>
 0.3799305111D+00    9    2    0
 0.107687323770244D+03 0.000000000000000D+00 0.000000000000000D+00 0.107687323770244D+03
 0.107687323770244D+03 0.000000000000000D+00 0.000000000000000D+00 -.107687323770244D+03
 0.128947449207960D+03 0.657281096499167D+01 0.234258137092395D+02 -.202601595580588D+02
 0.864271983325275D+02 -.657281096499167D+01 -.234258137092395D+02 0.202601595580588D+02
 0.000000000000000D+00 -.000000000000000D+00 -.000000000000000D+00 -.000000000000000D+00
 0.111514780752587D+03 0.000000000000000D+00 0.000000000000000D+00 0.111514780752587D+03
 0.125288274645930D+03 0.000000000000000D+00 0.000000000000000D+00 -.125288274645930D+03
 0.131044335727301D+03 0.102235885235751D+02 0.321344378913372D+02 -.202601595580588D+02
 0.848992815185113D+02 -.416706238340853D+01 -.176871019040340D+02 0.202601595580588D+02
 0.208594381527047D+02 -.605652614016658D+01 -.144473359873032D+02 -.137734938933432D+02
0.150034498726D-02 0.000000000000D+00 0.000000000000D+00 0.298720694652D-02 0.000000000000D+00  5 1 -2 25 -24 21 0 0.16151516D-02 0.16993748D+00 0.11168773D+05 0.11168773D+05 0.11168773D+05 0.12626944D+01  1  2  2  2  5  2       -2 0.231073916492D+00 0.100000000000D+01
-.833167054687D-04 0.000000000000D+00 -.576171980100D-05 0.298720694652D-02 0.000000000000D+00  5 1 -2 25 -24 21 2 0.16151516D-02 0.16993748D+00 0.11168773D+05 0.11168773D+05 0.11168773D+05 0.12626944D+01  1  2  3  2  5  2       -2 -.204591868651D-01 0.100000000000D+01
0.103852526549D-03 0.000000000000D+00 0.000000000000D+00 0.298720694652D-02 0.000000000000D+00  5 1 -2 25 -24 21 2 0.16151516D-02 0.16993748D+00 0.11168773D+05 0.11168773D+05 0.11168773D+05 0.12626944D+01  1  2 15  2  5  2       -2 0.255019474800D-01 0.100000000000D+01
0.280074909608D-02 0.000000000000D+00 0.000000000000D+00 0.298720694652D-02 0.000000000000D+00  5 1 -2 25 -24 21 2 0.16151516D-02 0.20039245D+00 0.12948233D+05 0.12948233D+05 0.12948233D+05 0.12551714D+01  1  2 12  2  5  2       -2 0.434462204033D+00 0.100000000000D+01
-.283456043885D-02 0.000000000000D+00 0.000000000000D+00 0.298720694652D-02 0.000000000000D+00  5 1 -2 25 -24 21 2 0.16151516D-02 0.16993748D+00 0.11168773D+05 0.11168773D+05 0.11168773D+05 0.12626944D+01  1  2  4  2  5  2       -2 -.696052506786D+00 0.100000000000D+01
-.532209309720D-02 0.000000000000D+00 -.970170442940D-03 0.298720694652D-02 0.000000000000D+00  5 1 -2 25 -24 21 2 0.16151516D-02 0.20119092D+00 0.11168773D+05 0.11168773D+05 0.11168773D+05 0.12626944D+01  1  2  5  2  5  2       -2 -.822102763264D+00 0.100000000000D+01
0.542209177599D-02 0.000000000000D+00 0.956507116287D-03 0.298720694652D-02 0.000000000000D+00  5 1 -2 25 -24 21 2 0.16151516D-02 0.16993748D+00 0.11168773D+05 0.11168773D+05 0.11168773D+05 0.12626944D+01  1  2  6  2  5  2       -2 0.133144473513D+01 0.100000000000D+01
0.689151755374D-04 0.000000000000D+00 0.000000000000D+00 0.298720694652D-02 0.000000000000D+00  5 1 21 25 -24 2 2 0.16151516D-02 0.20039245D+00 0.12948233D+05 0.12948233D+05 0.12948233D+05 0.12551714D+01  1  2 12  4  5  2       -2 0.126378128620D+00 0.100000000000D+01
-.125143752542D-03 0.000000000000D+00 -.243279850822D-04 0.298720694652D-02 0.000000000000D+00  5 1 21 25 -24 2 2 0.16151516D-02 0.20119092D+00 0.11168773D+05 0.11168773D+05 0.11168773D+05 0.12626944D+01  1  2  5  4  5  2       -2 -.230315963729D+00 0.100000000000D+01
  </mgrwgt>
  </event>
  <event>
  4     66 0.47139866E-03 0.11075208E+03 0.75467711E-02 0.11555238E+00
        1 -1    0    0  501    0 0.00000000E+00 0.00000000E+00 0.21381624E+03 0.21381648E+03 0.32000000E+00 0.0000E+00 0.9000E+01
       -2 -1    0    0    0  501 0.00000000E+00 0.00000000E+00 -.61326467E+02 0.61327302E+02 0.32000000E+00 0.0000E+00 0.9000E+01
       25  1    1    2    0    0 0.22746750E+02 -.33612851E+02 0.12394117E+03 0.18064787E+03 0.12500000E+03 0.0000E+00 0.9000E+01
      -24  1    1    2    0    0 -.22746750E+02 0.33612851E+02 0.28548597E+02 0.94495908E+02 0.80419002E+02 0.0000E+00 0.9000E+01
#aMCatNLO 1  0  0  1  1 0.12982221D+03 0.00000000D+00  -5  5  0 0.00000000D+00 0.00000000D+00 0.00000000D+00 0.00000000D+00 0.00000000D+00
  <mgrwgt>
 0.1612935810D+00    5    2    0
 0.114510882091958D+03 0.000000000000000D+00 0.000000000000000D+00 0.114510882091958D+03
 0.114510882091958D+03 0.000000000000000D+00 0.000000000000000D+00 -.114510882091958D+03
 0.134504143601976D+03 0.227467497104875D+02 -.336128507029069D+02 0.286203824456208D+02
 0.945176205819402D+02 -.227467497104875D+02 0.336128507029069D+02 -.286203824456208D+02
 0.000000000000000D+00 0.000000000000000D+00 0.000000000000000D+00 0.000000000000000D+00
 0.430429401501475D+03 0.000000000000000D+00 0.000000000000000D+00 0.430429401501475D+03
 0.145730223177391D+03 0.000000000000000D+00 0.000000000000000D+00 -.145730223177391D+03
 0.153729241258789D+03 -.417916512337921D+02 -.737699885713866D+02 0.286203824456208D+02
 0.109528757434436D+03 -.684348193350742D+02 0.518478177006718D+01 -.286203824456208D+02
 0.312901625985640D+03 0.110226470568866D+03 0.685852068013194D+02 0.284699178324084D+03
0.257738058603D-03 0.000000000000D+00 0.000000000000D+00 0.274414740209D-02 0.000000000000D+00  5 1 -2 25 -24 21 0 0.32894888D-01 0.94349237D-02 0.12266023D+05 0.12266023D+05 0.12266023D+05 0.12579096D+01  1  2  2  1  5  1        1 0.206793270472D+00 0.100000000000D+01
-.142993878901D-04 0.000000000000D+00 -.989782009026D-06 0.274414740209D-02 0.000000000000D+00  5 1 -2 25 -24 21 2 0.32894888D-01 0.94349237D-02 0.12266023D+05 0.12266023D+05 0.12266023D+05 0.12579096D+01  1  2  3  1  5  1        1 -.181540766636D-01 0.100000000000D+01
0.178300681149D-04 0.000000000000D+00 0.000000000000D+00 0.274414740209D-02 0.000000000000D+00  5 1 -2 25 -24 21 2 0.32894888D-01 0.94349237D-02 0.12266023D+05 0.12266023D+05 0.12266023D+05 0.12579096D+01  1  2 15  1  5  1        1 0.226365230429D-01 0.100000000000D+01
-.209346780751D-03 0.000000000000D+00 -.115550292090D-03 0.274414740209D-02 0.000000000000D+00  5 1 -2 25 -24 21 2 0.14340969D+00 0.94349237D-02 0.12266023D+05 0.12266023D+05 0.12266023D+05 0.12579096D+01  1  2  5  1  5  1        1 -.381508572708D-01 0.100000000000D+01
-.375105944832D-04 0.000000000000D+00 -.205081263433D-04 0.274414740209D-02 0.000000000000D+00  5 21 -2 25 -24 -1 2 0.14340969D+00 0.94349237D-02 0.12266023D+05 0.12266023D+05 0.12266023D+05 0.12579096D+01  1  2  5  3  5  1        1 -.118312786048D-01 0.100000000000D+01
  </mgrwgt>
  </event>
  <event>
  4     66 0.47139866E-03 0.86570200E+02 0.75467711E-02 0.12011696E+00
        1 -1    0    0  501    0 0.00000000E+00 0.00000000E+00 0.22263402E+04 0.22263402E+04 0.32000000E+00 0.0000E+00 0.9000E+01
       -2 -1    0    0    0  501 0.00000000E+00 0.00000000E+00 -.16026948E+02 0.16030142E+02 0.32000000E+00 0.0000E+00 0.9000E+01
       25  1    1    2    0    0 -.95989708E+02 0.22531883E+02 0.19045206E+04 0.19111634E+04 0.12500000E+03 0.0000E+00 0.9000E+01
      -24  1    1    2    0    0 0.95989708E+02 -.22531883E+02 0.30579262E+03 0.33120696E+03 0.80419002E+02 0.0000E+00 0.9000E+01
#aMCatNLO 1  0  0  2  1 0.12570599D+02 0.00000000D+00  -5  5  0 0.00000000D+00 0.00000000D+00 0.00000000D+00 0.00000000D+00 0.00000000D+00
  <mgrwgt>
 0.2674551955D+00    6    2    0
 0.188904857276882D+03 0.000000000000000D+00 0.000000000000000D+00 0.188904857276882D+03
 0.188904857276882D+03 0.000000000000000D+00 0.000000000000000D+00 -.188904857276882D+03
 0.201024429237129D+03 -.959897080516532D+02 0.225318834051571D+02 0.122735941469841D+03
 0.176785285316635D+03 0.959897080516532D+02 -.225318834051571D+02 -.122735941469841D+03
 0.000000000000000D+00 0.000000000000000D+00 -.000000000000000D+00 0.000000000000000D+00
 0.196521216700002D+03 0.000000000000000D+00 0.000000000000000D+00 0.196521216700002D+03
 0.194268431622767D+03 0.000000000000000D+00 0.000000000000000D+00 -.194268431622767D+03
 0.204076473395285D+03 -.101187107905613D+03 0.268191136815936D+02 0.122735941469841D+03
 0.173942309695407D+03 0.914899117311568D+02 -.188200922085777D+02 -.122735941469841D+03
 0.127708652320766D+02 0.969719617445581D+01 -.799902147301597D+01 0.225278507723476D+01
0.108291044042D-02 0.000000000000D+00 0.000000000000D+00 0.132121407344D-02 0.000000000000D+00  5 1 -2 25 -24 21 0 0.34251413D+00 0.24659317D-02 0.20512285D+05 0.20512285D+05 0.20512285D+05 0.12326186D+01  1  2  2  2  5  2       -2 0.131197384757D+00 0.100000000000D+01
-.545550506330D-04 0.000000000000D+00 -.415866122807D-05 0.132121407344D-02 0.000000000000D+00  5 1 -2 25 -24 21 2 0.34251413D+00 0.24659317D-02 0.20512285D+05 0.20512285D+05 0.20512285D+05 0.12326186D+01  1  2  3  2  5  2       -2 -.100421118464D-01 0.100000000000D+01
0.742830283518D-04 0.000000000000D+00 0.000000000000D+00 0.132121407344D-02 0.000000000000D+00  5 1 -2 25 -24 21 2 0.34251413D+00 0.24659317D-02 0.20512285D+05 0.20512285D+05 0.20512285D+05 0.12326186D+01  1  2 15  2  5  2       -2 0.136734998931D-01 0.100000000000D+01
0.154017936678D-02 0.000000000000D+00 0.000000000000D+00 0.132121407344D-02 0.000000000000D+00  5 1 -2 25 -24 21 2 0.34251413D+00 0.25840005D-02 0.22330657D+05 0.22330657D+05 0.22330657D+05 0.12285904D+01  1  2 12  2  5  2       -2 0.262821638277D+00 0.100000000000D+01
-.100757647368D-02 0.000000000000D+00 0.000000000000D+00 0.132121407344D-02 0.000000000000D+00  5 1 -2 25 -24 21 2 0.34251413D+00 0.24659317D-02 0.20512285D+05 0.20512285D+05 0.20512285D+05 0.12326186D+01  1  2  4  2  5  2       -2 -.185467624446D+00 0.100000000000D+01
0.161689491270D-04 0.000000000000D+00 0.000000000000D+00 0.132121407344D-02 0.000000000000D+00  5 1 21 25 -24 2 2 0.34251413D+00 0.25840005D-02 0.22330657D+05 0.22330657D+05 0.22330657D+05 0.12285904D+01  1  2 12  4  5  2       -2 0.552724089085D-01 0.100000000000D+01
  </mgrwgt>
  </event>
  <event>
  4     66 0.47139866E-03 0.56092769E+02 0.75467711E-02 0.12484123E+00
        1 -1    0    0  501    0 0.00000000E+00 0.00000000E+00 0.95942594E+02 0.95943128E+02 0.32000000E+00 0.0000E+00 0.9000E+01
       -2 -1    0    0    0  501 0.00000000E+00 0.00000000E+00 -.13025356E+03 0.13025395E+03 0.32000000E+00 0.0000E+00 0.9000E+01
       25  1    1    2    0    0 -.13537023E+02 0.37992597E+02 -.36088749E+02 0.13621338E+03 0.12500000E+03 0.0000E+00 0.9000E+01
      -24  1    1    2    0    0 0.13537023E+02 -.37992597E+02 0.17777869E+01 0.89983692E+02 0.80419002E+02 0.0000E+00 0.9000E+01
#aMCatNLO 1  0  0  1  2 0.12030697D+02 0.00000000D+00  -5  5  0 0.00000000D+00 0.00000000D+00 0.00000000D+00 0.00000000D+00 0.00000000D+00
  <mgrwgt>
 0.1444433199D+00    9    2    0
 0.111789842528325D+03 0.000000000000000D+00 0.000000000000000D+00 0.111789842528325D+03
 0.111789842528325D+03 0.000000000000000D+00 0.000000000000000D+00 -.111789842528325D+03
 0.132269753400614D+03 -.135370232990245D+02 0.379925966924034D+02 -.156076667516101D+02
 0.913099316560351D+02 0.135370232990245D+02 -.379925966924034D+02 0.156076667516101D+02
 0.000000000000000D+00 -.000000000000000D+00 -.000000000000000D+00 0.000000000000000D+00
 0.126883320148900D+03 0.000000000000000D+00 0.000000000000000D+00 0.126883320148900D+03
 0.114374887000478D+03 0.000000000000000D+00 0.000000000000000D+00 -.114374887000478D+03
 0.132489622814437D+03 -.686378226864345D+01 0.404696106362690D+02 -.156076667516101D+02
 0.914135108108609D+02 0.181425545210506D+02 -.362830877740338D+02 0.156076667516101D+02
 0.173550735240804D+02 -.112787722524071D+02 -.418652286223517D+01 0.125084331484224D+02
0.190797937578D-03 0.000000000000D+00 0.000000000000D+00 0.291556919664D-02 0.000000000000D+00  5 1 -2 25 -24 21 0 0.14760470D-01 0.20039080D-01 0.12244730D+05 0.12244730D+05 0.12244730D+05 0.12579978D+01  1  2  2  1  5  1        1 0.124327707990D+00 0.100000000000D+01
-.105985458074D-04 0.000000000000D+00 -.732714318551D-06 0.291556919664D-02 0.000000000000D+00  5 1 -2 25 -24 21 2 0.14760470D-01 0.20039080D-01 0.12244730D+05 0.12244730D+05 0.12244730D+05 0.12579978D+01  1  2  3  1  5  1        1 -.109295002131D-01 0.100000000000D+01
0.132140443574D-04 0.000000000000D+00 0.000000000000D+00 0.291556919664D-02 0.000000000000D+00  5 1 -2 25 -24 21 2 0.14760470D-01 0.20039080D-01 0.12244730D+05 0.12244730D+05 0.12244730D+05 0.12579978D+01  1  2 15  1  5  1        1 0.136266713607D-01 0.100000000000D+01
0.756047581845D-03 0.000000000000D+00 0.000000000000D+00 0.291556919664D-02 0.000000000000D+00  5 1 -2 25 -24 21 2 0.16908832D-01 0.20039080D-01 0.13650306D+05 0.13650306D+05 0.13650306D+05 0.12525179D+01  1  2 12  1  5  1        1 0.651883305748D+00 0.100000000000D+01
-.767606737219D-03 0.000000000000D+00 0.000000000000D+00 0.291556919664D-02 0.000000000000D+00  5 1 -2 25 -24 21 2 0.14760470D-01 0.20039080D-01 0.12244730D+05 0.12244730D+05 0.12244730D+05 0.12579978D+01  1  2  4  1  5  1        1 -.791576330416D+00 0.100000000000D+01
-.137823919767D-02 0.000000000000D+00 -.215980722117D-03 0.291556919664D-02 0.000000000000D+00  5 1 -2 25 -24 21 2 0.17103345D-01 0.20039080D-01 0.12244730D+05 0.12244730D+05 0.12244730D+05 0.12579978D+01  1  2  5  1  5  1        1 -.117668879066D+01 0.100000000000D+01
0.139719107220D-02 0.000000000000D+00 0.213657952972D-03 0.291556919664D-02 0.000000000000D+00  5 1 -2 25 -24 21 2 0.14760470D-01 0.20039080D-01 0.12244730D+05 0.12244730D+05 0.12244730D+05 0.12579978D+01  1  2  6  1  5  1        1 0.144082031619D+01 0.100000000000D+01
0.159088117919D-04 0.000000000000D+00 0.000000000000D+00 0.291556919664D-02 0.000000000000D+00  5 21 -2 25 -24 -1 2 0.16908832D-01 0.20039080D-01 0.13650306D+05 0.13650306D+05 0.13650306D+05 0.12525179D+01  1  2 12  3  5  1        1 0.128925151507D+00 0.100000000000D+01
-.295317562094D-04 0.000000000000D+00 -.485527234947D-05 0.291556919664D-02 0.000000000000D+00  5 21 -2 25 -24 -1 2 0.17103345D-01 0.20039080D-01 0.12244730D+05 0.12244730D+05 0.12244730D+05 0.12579978D+01  1  2  5  3  5  1        1 -.235945211617D+00 0.100000000000D+01
  </mgrwgt>
  </event>
  <event>
  4     66 0.47139866E-03 0.30412445E+02 0.75467711E-02 0.12662666E+00
        1 -1    0    0  501    0 0.00000000E+00 0.00000000E+00 0.61093684E+01 0.61177432E+01 0.32000000E+00 0.0000E+00 0.9000E+01
       -2 -1    0    0    0  501 0.00000000E+00 0.00000000E+00 -.18781495E+04 0.18781495E+04 0.32000000E+00 0.0000E+00 0.9000E+01
       25  1    1    2    0    0 -.44843423E+01 0.17822513E+02 -.13297583E+04 0.13357470E+04 0.12500000E+03 0.0000E+00 0.9000E+01
      -24  1    1    2    0    0 0.44843423E+01 -.17822513E+02 -.54228175E+03 0.54852025E+03 0.80419002E+02 0.0000E+00 0.9000E+01
#aMCatNLO 1  0  0  2  1 0.50535403D+01 0.00000000D+00  -5  5  0 0.00000000D+00 0.00000000D+00 0.00000000D+00 0.00000000D+00 0.00000000D+00
  <mgrwgt>
 0.1177130405D+00    8    2    0
 0.107155134259161D+03 0.000000000000000D+00 0.000000000000000D+00 0.107155134259161D+03
 0.107155134259161D+03 0.000000000000000D+00 0.000000000000000D+00 -.107155134259161D+03
 0.128520848811580D+03 -.448434234843074D+01 0.178225125059699D+02 -.235554091648961D+02
 0.857894197067423D+02 0.448434234843074D+01 -.178225125059699D+02 0.235554091648961D+02
 0.000000000000000D+00 -.000000000000000D+00 0.000000000000000D+00 0.000000000000000D+00
 0.109914085920495D+03 0.000000000000000D+00 0.000000000000000D+00 0.109914085920495D+03
 0.109524306607201D+03 0.000000000000000D+00 0.000000000000000D+00 -.109524306607201D+03
 0.128128151089277D+03 -.419619110823957D+01 0.148107319472765D+02 -.235554091648961D+02
 0.862416916166825D+02 0.467748932386591D+01 -.198413006437552D+02 0.235554091648961D+02
 0.506854982173672D+01 -.481298215626332D+00 0.503056869647863D+01 0.389779313293486D+00
0.147717285376D-02 0.000000000000D+00 0.000000000000D+00 0.296982438053D-02 0.000000000000D+00  5 1 -2 25 -24 21 0 0.94054914D-03 0.28894672D+00 0.10903119D+05 0.10903119D+05 0.10903119D+05 0.12639326D+01  1  2  2  2  5  2       -2 0.940360429299D-01 0.100000000000D+01
-.819983520391D-04 0.000000000000D+00 -.567273270697D-05 0.296982438053D-02 0.000000000000D+00  5 1 -2 25 -24 21 2 0.94054914D-03 0.28894672D+00 0.10903119D+05 0.10903119D+05 0.10903119D+05 0.12639326D+01  1  2  3  2  5  2       -2 -.833903883228D-02 0.100000000000D+01
0.101583880163D-03 0.000000000000D+00 0.000000000000D+00 0.296982438053D-02 0.000000000000D+00  5 1 -2 25 -24 21 2 0.94054914D-03 0.28894672D+00 0.10903119D+05 0.10903119D+05 0.10903119D+05 0.12639326D+01  1  2 15  2  5  2       -2 0.103308408077D-01 0.100000000000D+01
0.784363708112D-03 0.000000000000D+00 0.000000000000D+00 0.296982438053D-02 0.000000000000D+00  5 1 -2 25 -24 21 2 0.94054914D-03 0.29896744D+00 0.11444754D+05 0.11444754D+05 0.11444754D+05 0.12614426D+01  1  2 12  2  5  2       -2 0.697860162339D-01 0.100000000000D+01
-.239655595519D-02 0.000000000000D+00 0.000000000000D+00 0.296982438053D-02 0.000000000000D+00  5 1 -2 25 -24 21 2 0.94054914D-03 0.28894672D+00 0.10903119D+05 0.10903119D+05 0.10903119D+05 0.12639326D+01  1  2  4  2  5  2       -2 -.243724083192D+00 0.100000000000D+01
0.183797561549D-02 0.000000000000D+00 0.000000000000D+00 0.296982438053D-02 0.987469349853D-03  5 1 -2 25 -24 21 2 0.96476571D-03 0.29533525D+00 0.11444754D+05 0.11444754D+05 0.11444754D+05 0.12614426D+01  1  2 11  2  5  2       -2 0.165517031172D+00 0.100000000000D+01
0.112371558765D-04 0.000000000000D+00 0.000000000000D+00 0.296982438053D-02 0.000000000000D+00  5 1 21 25 -24 2 2 0.94054914D-03 0.29896744D+00 0.11444754D+05 0.11444754D+05 0.11444754D+05 0.12614426D+01  1  2 12  4  5  2       -2 0.120263946801D-01 0.100000000000D+01
0.167088660244D-04 0.000000000000D+00 0.000000000000D+00 0.296982438053D-02 0.398381564683D-05  5 1 21 25 -24 2 2 0.96476571D-03 0.29533525D+00 0.11444754D+05 0.11444754D+05 0.11444754D+05 0.12614426D+01  1  2 11  4  5  2       -2 0.180798367132D-01 0.100000000000D+01
  </mgrwgt>
  </event>
  <event>
  5     66 0.47139866E-03 0.11035355E+03 0.75467711E-02 0.11887998E+00
        3 -1    0    0  501    0 0.00000000E+00 0.00000000E+00 0.22771522E+03 0.22771577E+03 0.50000000E+00 0.0000E+00 0.9000E+01
       -4 -1    0    0    0  502 0.00000000E+00 0.00000000E+00 -.16642436E+03 0.16643157E+03 0.15500000E+01 0.0000E+00 0.9000E+01
       25  1    1    2    0    0 0.83692335E+02 -.17203569E+02 0.35003344E+02 0.15540465E+03 0.12500000E+03 0.0000E+00 0.9000E+01
      -24  1    1    2    0    0 -.95588616E+01 -.22846576E+02 0.97234632E+02 0.12858899E+03 0.80419002E+02 0.0000E+00 0.9000E+01
       21  1    1    2  501  502 -.74133473E+02 0.40050145E+02 -.70947108E+02 0.11015371E+03 0.75000000E+00 0.0000E+00 0.9000E+01
#aMCatNLO 2  0  0  2  1 0.84260228D+02 0.00000000D+00  -5  5  0 0.00000000D+00 0.00000000D+00 0.00000000D+00 0.00000000D+00 0.00000000D+00
  <mgrwgt>
 0.8284460309D-02    2    2    0
 0.118390999124301D+03 0.000000000000000D+00 0.000000000000000D+00 0.118390999124301D+03
 0.118390999124301D+03 0.000000000000000D+00 0.000000000000000D+00 -.118390999124301D+03
 0.137729006475718D+03 0.389010039425221D+02 0.699466696122772D+01 -.422145206197329D+02
 0.990529917728838D+02 -.389010039425221D+02 -.699466696122772D+01 0.422145206197329D+02
 0.000000000000000D+00 -.000000000000000D+00 0.000000000000000D+00 -.000000000000000D+00
 0.137499724825529D+03 0.000000000000000D+00 0.000000000000000D+00 0.137499724825529D+03
 0.275625595501956D+03 0.000000000000000D+00 0.000000000000000D+00 -.275625595501956D+03
 0.157185989980976D+03 0.836923347559437D+02 -.172035693460616D+02 -.422145206197329D+02
 0.941414869642220D+02 -.955886158825580D+01 -.228465758363688D+02 0.422145206197329D+02
 0.161797843382287D+03 -.741334731676879D+02 0.400501451824304D+02 -.138125870676427D+03
-.268207288349D-04 0.000000000000D+00 0.000000000000D+00 0.250659440885D-02 0.000000000000D+00  5 3 -4 25 -24 21 2 0.30164797D-01 0.25340700D-01 0.25570811D+05 0.25570811D+05 0.25570811D+05 0.12222479D+01  1  2 13  2  5  2       -4 -.125617422898D-02 0.100000000000D+01
0.274936767552D-03 0.000000000000D+00 0.000000000000D+00 0.250659440885D-02 0.412788064297D-05  5 3 -4 25 -24 21 2 0.35033502D-01 0.25604194D-01 0.25570811D+05 0.25570811D+05 0.25570811D+05 0.12222479D+01  1  2  1  2  5  2       -4 0.954063453799D-02 0.100000000000D+01
  </mgrwgt>
  </event>
  <event>
  4     66 0.47139866E-03 0.68221171E+02 0.75467711E-02 0.12036232E+00
        1 -1    0    0  501    0 0.00000000E+00 0.00000000E+00 0.82398939E+03 0.82398945E+03 0.32000000E+00 0.0000E+00 0.9000E+01
       -2 -1    0    0    0  501 0.00000000E+00 0.00000000E+00 -.20955249E+02 0.20957692E+02 0.32000000E+00 0.0000E+00 0.9000E+01
       25  1    1    2    0    0 0.35324128E+02 0.72611604E+02 0.44745094E+03 0.47154807E+03 0.12500000E+03 0.0000E+00 0.9000E+01
      -24  1    1    2    0    0 -.35324128E+02 -.72611604E+02 0.35558320E+03 0.37339907E+03 0.80419002E+02 0.0000E+00 0.9000E+01
#aMCatNLO 1  0  0  1  2 0.30401668D+02 0.00000000D+00  -5  5  0 0.00000000D+00 0.00000000D+00 0.00000000D+00 0.00000000D+00 0.00000000D+00
  <mgrwgt>
 0.2624298193D+00    9    2    0
 0.131407614106073D+03 0.000000000000000D+00 0.000000000000000D+00 0.131407614106073D+03
 0.131407614106073D+03 0.000000000000000D+00 0.000000000000000D+00 -.131407614106073D+03
 0.148830090170202D+03 0.353241283905634D+02 0.726116042529424D+02 -.227081952863296D+01
 0.113985138041944D+03 -.353241283905634D+02 -.726116042529424D+02 0.227081952863296D+01
 0.000000000000000D+00 -.000000000000000D+00 0.000000000000000D+00 0.000000000000000D+00
 0.198880145134435D+03 0.000000000000000D+00 0.000000000000000D+00 0.198880145134435D+03
 0.135753530363200D+03 0.000000000000000D+00 0.000000000000000D+00 -.135753530363200D+03
 0.149755605845130D+03 0.507477630756073D+02 0.649711428522867D+02 -.227081952863296D+01
 0.114812165466988D+03 -.235054576593852D+02 -.784662616908672D+02 0.227081952863296D+01
 0.700659041855175D+02 -.272423054162222D+02 0.134951188385805D+02 0.631266147712356D+02
0.279145144146D-03 0.000000000000D+00 0.000000000000D+00 0.260117813630D-02 0.000000000000D+00  5 1 -2 25 -24 21 0 0.12676779D+00 0.32240771D-02 0.17262712D+05 0.17262712D+05 0.17262712D+05 0.12409259D+01  1  2  2  1  5  1        1 0.197898497660D+00 0.100000000000D+01
-.155080631280D-04 0.000000000000D+00 -.107199085412D-05 0.260117813630D-02 0.000000000000D+00  5 1 -2 25 -24 21 2 0.12676779D+00 0.32240771D-02 0.17262712D+05 0.17262712D+05 0.17262712D+05 0.12409259D+01  1  2  3  1  5  1        1 -.169301832561D-01 0.100000000000D+01
0.193027956046D-04 0.000000000000D+00 0.000000000000D+00 0.260117813630D-02 0.000000000000D+00  5 1 -2 25 -24 21 2 0.12676779D+00 0.32240771D-02 0.17262712D+05 0.17262712D+05 0.17262712D+05 0.12409259D+01  1  2 15  1  5  1        1 0.210729002225D-01 0.100000000000D+01
0.833435985044D-03 0.000000000000D+00 0.000000000000D+00 0.260117813630D-02 0.000000000000D+00  5 1 -2 25 -24 21 2 0.19308714D+00 0.32240771D-02 0.21745891D+05 0.21745891D+05 0.21745891D+05 0.12298445D+01  1  2 12  1  5  1        1 0.436174393414D+00 0.100000000000D+01
-.811390238980D-03 0.000000000000D+00 0.000000000000D+00 0.260117813630D-02 0.000000000000D+00  5 1 -2 25 -24 21 2 0.12676779D+00 0.32240771D-02 0.17262712D+05 0.17262712D+05 0.17262712D+05 0.12409259D+01  1  2  4  1  5  1        1 -.885796332188D+00 0.100000000000D+01
-.949335118058D-03 0.000000000000D+00 -.119283515534D-03 0.260117813630D-02 0.000000000000D+00  5 1 -2 25 -24 21 2 0.19431989D+00 0.32240771D-02 0.17262712D+05 0.17262712D+05 0.17262712D+05 0.12409259D+01  1  2  5  1  5  1        1 -.498119897226D+00 0.100000000000D+01
0.924745558185D-03 0.000000000000D+00 0.109171648912D-03 0.260117813630D-02 0.000000000000D+00  5 1 -2 25 -24 21 2 0.12676779D+00 0.32240771D-02 0.17262712D+05 0.17262712D+05 0.17262712D+05 0.12409259D+01  1  2  6  1  5  1        1 0.100954655885D+01 0.100000000000D+01
0.411828383552D-04 0.000000000000D+00 0.000000000000D+00 0.260117813630D-02 0.000000000000D+00  5 21 -2 25 -24 -1 2 0.19308714D+00 0.32240771D-02 0.21745891D+05 0.21745891D+05 0.21745891D+05 0.12298445D+01  1  2 12  3  5  1        1 0.277340996906D-01 0.100000000000D+01
-.429946130023D-04 0.000000000000D+00 -.596041448476D-05 0.260117813630D-02 0.000000000000D+00  5 21 -2 25 -24 -1 2 0.19431989D+00 0.32240771D-02 0.17262712D+05 0.17262712D+05 0.17262712D+05 0.12409259D+01  1  2  5  3  5  1        1 -.291502178199D-01 0.100000000000D+01
  </mgrwgt>
  </event>
  <event>
  4     66 0.47139866E-03 0.64688242E+02 0.75467711E-02 0.12388564E+00
        1 -1    0    0  501    0 0.00000000E+00 0.00000000E+00 0.44688977E+03 0.44688988E+03 0.32000000E+00 0.0000E+00 0.9000E+01
       -2 -1    0    0    0  501 0.00000000E+00 0.00000000E+00 -.41141501E+02 0.41142746E+02 0.32000000E+00 0.0000E+00 0.9000E+01
       25  1    1    2    0    0 -.26414026E+02 -.52946058E+02 0.11256862E+03 0.17831904E+03 0.12500000E+03 0.0000E+00 0.9000E+01
      -24  1    1    2    0    0 0.26414026E+02 0.52946058E+02 0.29317964E+03 0.30971359E+03 0.80419002E+02 0.0000E+00 0.9000E+01
#aMCatNLO 1  0  0  2  1 0.69304205D+01 0.00000000D+00  -5  5  0 0.00000000D+00 0.00000000D+00 0.00000000D+00 0.00000000D+00 0.00000000D+00
  <mgrwgt>
 0.1434945120D+00   11    2    0
 0.135595160757325D+03 0.000000000000000D+00 0.000000000000000D+00 0.135595160757325D+03
 0.135595160757325D+03 0.000000000000000D+00 0.000000000000000D+00 -.135595160757325D+03
 0.152479583465483D+03 -.264140262987450D+02 -.529460578353490D+02 -.642186697790633D+02
 0.118710738049166D+03 0.264140262987450D+02 0.529460578353490D+02 0.642186697790633D+02
 0.000000000000000D+00 0.000000000000000D+00 -.000000000000000D+00 -.000000000000000D+00
 0.136014293224427D+03 0.000000000000000D+00 0.000000000000000D+00 0.136014293224427D+03
 0.167671704293427D+03 0.000000000000000D+00 0.000000000000000D+00 -.167671704293427D+03
 0.151986857453944D+03 -.290399568384316D+02 -.500764235679343D+02 -.642186697790633D+02
 0.119292004994027D+03 0.243613249580028D+02 0.551892634415661D+02 0.642186697790633D+02
 0.324071350698829D+02 0.467863188042881D+01 -.511283987363187D+01 -.316574110690004D+02
0.277060731807D-03 0.000000000000D+00 0.000000000000D+00 0.203817095476D-02 0.000000000000D+00  5 1 -2 25 -24 21 0 0.68752376D-01 0.63295663D-02 0.14177381D+05 0.14177381D+05 0.14177381D+05 0.12506247D+01  1  2  2  2  5  2       -2 0.165399634315D+00 0.100000000000D+01
-.150761191258D-04 0.000000000000D+00 -.106398616191D-05 0.203817095476D-02 0.000000000000D+00  5 1 -2 25 -24 21 2 0.68752376D-01 0.63295663D-02 0.14177381D+05 0.14177381D+05 0.14177381D+05 0.12506247D+01  1  2  3  2  5  2       -2 -.140767743471D-01 0.100000000000D+01
0.191107600149D-04 0.000000000000D+00 0.000000000000D+00 0.203817095476D-02 0.000000000000D+00  5 1 -2 25 -24 21 2 0.68752376D-01 0.63295663D-02 0.14177381D+05 0.14177381D+05 0.14177381D+05 0.12506247D+01  1  2 15  2  5  2       -2 0.178439725826D-01 0.100000000000D+01
0.585088499977D-02 0.000000000000D+00 0.000000000000D+00 0.203817095476D-02 0.000000000000D+00  5 1 -2 25 -24 21 2 0.68752376D-01 0.78351451D-02 0.15032601D+05 0.15032601D+05 0.15032601D+05 0.12477151D+01  1  2 12  2  5  2       -2 0.393244766143D+01 0.100000000000D+01
-.605851565870D-02 0.000000000000D+00 0.000000000000D+00 0.203817095476D-02 0.000000000000D+00  5 1 -2 25 -24 21 2 0.68752376D-01 0.63295663D-02 0.14177381D+05 0.14177381D+05 0.14177381D+05 0.12506247D+01  1  2  4  2  5  2       -2 -.565691721420D+01 0.100000000000D+01
-.648636456759D-02 0.000000000000D+00 -.174091855918D-03 0.203817095476D-02 0.000000000000D+00  5 1 -2 25 -24 21 2 0.68752376D-01 0.78436308D-02 0.14177381D+05 0.14177381D+05 0.14177381D+05 0.12506247D+01  1  2  5  2  5  2       -2 -.436570586244D+01 0.100000000000D+01
0.638032794031D-02 0.000000000000D+00 0.170163294347D-03 0.203817095476D-02 0.000000000000D+00  5 1 -2 25 -24 21 2 0.68752376D-01 0.63295663D-02 0.14177381D+05 0.14177381D+05 0.14177381D+05 0.12506247D+01  1  2  6  2  5  2       -2 0.595739765168D+01 0.100000000000D+01
0.305595441587D-03 0.000000000000D+00 0.000000000000D+00 0.203817095476D-02 0.360045534032D-03  5 1 -2 25 -24 21 2 0.68964894D-01 0.78268956D-02 0.15032601D+05 0.15032601D+05 0.15032601D+05 0.12477151D+01  1  2 11  2  5  2       -2 0.204919546947D+00 0.100000000000D+01
0.175911756187D-03 0.000000000000D+00 0.000000000000D+00 0.203817095476D-02 0.000000000000D+00  5 1 21 25 -24 2 2 0.68752376D-01 0.78351451D-02 0.15032601D+05 0.15032601D+05 0.15032601D+05 0.12477151D+01  1  2 12  4  5  2       -2 0.195634630566D+01 0.100000000000D+01
-.193507724160D-03 0.000000000000D+00 -.525431612913D-05 0.203817095476D-02 0.000000000000D+00  5 1 21 25 -24 2 2 0.68752376D-01 0.78436308D-02 0.14177381D+05 0.14177381D+05 0.14177381D+05 0.12506247D+01  1  2  5  4  5  2       -2 -.215665180637D+01 0.100000000000D+01
0.923545559270D-05 0.000000000000D+00 0.000000000000D+00 0.203817095476D-02 0.108621802223D-04  5 1 21 25 -24 2 2 0.68964894D-01 0.78268956D-02 0.15032601D+05 0.15032601D+05 0.15032601D+05 0.12477151D+01  1  2 11  4  5  2       -2 0.102491396731D+00 0.100000000000D+01
  </mgrwgt>
  </event>
  <event>
  4     66 0.47139866E-03 0.89995584E+02 0.75467711E-02 0.12038816E+00
        1 -1    0    0  501    0 0.00000000E+00 0.00000000E+00 0.56978742E+03 0.56978751E+03 0.32000000E+00 0.0000E+00 0.9000E+01
       -2 -1    0    0    0  501 0.00000000E+00 0.00000000E+00 -.32948477E+02 0.32950031E+02 0.32000000E+00 0.0000E+00 0.9000E+01
       25  1    1    2    0    0 -.76666348E+02 0.33317071E+02 0.37137894E+03 0.40066828E+03 0.12500000E+03 0.0000E+00 0.9000E+01
      -24  1    1    2    0    0 0.76666348E+02 -.33317071E+02 0.16546001E+03 0.20206926E+03 0.80419002E+02 0.0000E+00 0.9000E+01
#aMCatNLO 1  0  0  2  1 0.26891724D+02 0.00000000D+00  -5  5  0 0.00000000D+00 0.00000000D+00 0.00000000D+00 0.00000000D+00 0.00000000D+00
  <mgrwgt>
 0.1941237228D+00    9    2    0
 0.137018695644322D+03 0.000000000000000D+00 0.000000000000000D+00 0.137018695644322D+03
 0.137018695644322D+03 0.000000000000000D+00 0.000000000000000D+00 -.137018695644322D+03
 0.153727700212212D+03 -.766663484462542D+02 0.333170710996119D+02 0.319288208644917D+02
 0.120309691076432D+03 0.766663484462542D+02 -.333170710996119D+02 -.319288208644917D+02
 0.000000000000000D+00 0.000000000000000D+00 0.000000000000000D+00 -.000000000000000D+00
 0.143297830747595D+03 0.000000000000000D+00 0.000000000000000D+00 0.143297830747595D+03
 0.169840470630672D+03 0.000000000000000D+00 0.000000000000000D+00 -.169840470630672D+03
 0.160079764799165D+03 -.907709734872713D+02 0.272343876107463D+02 0.319288208644917D+02
 0.115273928957502D+03 0.660776308506940D+02 -.378835035641030D+02 -.319288208644917D+02
 0.377846076215986D+02 0.246933426365773D+02 0.106491159533567D+02 -.265426398830773D+02
0.280111931394D-03 0.000000000000D+00 0.000000000000D+00 0.240988540149D-02 0.000000000000D+00  5 1 -2 25 -24 21 0 0.87659730D-01 0.50691229D-02 0.17738371D+05 0.17738371D+05 0.17738371D+05 0.12396052D+01  1  2  2  2  5  2       -2 0.171434322796D+00 0.100000000000D+01
-.155465403870D-04 0.000000000000D+00 -.107570357172D-05 0.240988540149D-02 0.000000000000D+00  5 1 -2 25 -24 21 2 0.87659730D-01 0.50691229D-02 0.17738371D+05 0.17738371D+05 0.17738371D+05 0.12396052D+01  1  2  3  2  5  2       -2 -.146206504700D-01 0.100000000000D+01
0.193675137353D-04 0.000000000000D+00 0.000000000000D+00 0.240988540149D-02 0.000000000000D+00  5 1 -2 25 -24 21 2 0.87659730D-01 0.50691229D-02 0.17738371D+05 0.17738371D+05 0.17738371D+05 0.12396052D+01  1  2 15  2  5  2       -2 0.182140618908D-01 0.100000000000D+01
0.459498060282D-03 0.000000000000D+00 0.000000000000D+00 0.240988540149D-02 0.000000000000D+00  5 1 -2 25 -24 21 2 0.87659730D-01 0.63796862D-02 0.21685335D+05 0.21685335D+05 0.21685335D+05 0.12299765D+01  1  2 12  2  5  2       -2 0.301986532776D+00 0.100000000000D+01
-.469178737067D-03 0.000000000000D+00 0.000000000000D+00 0.240988540149D-02 0.000000000000D+00  5 1 -2 25 -24 21 2 0.87659730D-01 0.50691229D-02 0.17738371D+05 0.17738371D+05 0.17738371D+05 0.12396052D+01  1  2  4  2  5  2       -2 -.441236323443D+00 0.100000000000D+01
-.728897160192D-03 0.000000000000D+00 -.150863960153D-03 0.240988540149D-02 0.000000000000D+00  5 1 -2 25 -24 21 2 0.87659730D-01 0.65645874D-02 0.17738371D+05 0.17738371D+05 0.17738371D+05 0.12396052D+01  1  2  5  2  5  2       -2 -.463667977414D+00 0.100000000000D+01
0.747679018966D-03 0.000000000000D+00 0.145959247092D-03 0.240988540149D-02 0.000000000000D+00  5 1 -2 25 -24 21 2 0.87659730D-01 0.50691229D-02 0.17738371D+05 0.17738371D+05 0.17738371D+05 0.12396052D+01  1  2  6  2  5  2       -2 0.703150239729D+00 0.100000000000D+01
0.146148684054D-04 0.000000000000D+00 0.000000000000D+00 0.240988540149D-02 0.000000000000D+00  5 1 21 25 -24 2 2 0.87659730D-01 0.63796862D-02 0.21685335D+05 0.21685335D+05 0.21685335D+05 0.12299765D+01  1  2 12  4  5  2       -2 0.164043522785D+00 0.100000000000D+01
-.226138843592D-04 0.000000000000D+00 -.523323086608D-05 0.240988540149D-02 0.000000000000D+00  5 1 21 25 -24 2 2 0.87659730D-01 0.65645874D-02 0.17738371D+05 0.17738371D+05 0.17738371D+05 0.12396052D+01  1  2  5  4  5  2       -2 -.245180005873D+00 0.100000000000D+01
  </mgrwgt>
  </event>
  <event>
  4     66 0.47139866E-03 0.11942604E+03 0.75467711E-02 0.10853374E+00
        1 -1    0    0  501    0 0.00000000E+00 0.00000000E+00 0.15001190E+03 0.15001224E+03 0.32000000E+00 0.0000E+00 0.9000E+01
       -2 -1    0    0    0  501 0.00000000E+00 0.00000000E+00 -.13803000E+03 0.13803037E+03 0.32000000E+00 0.0000E+00 0.9000E+01
       25  1    1    2    0    0 -.77276270E+01 -.59365478E+02 -.72972467E+02 0.15663319E+03 0.12500000E+03 0.0000E+00 0.9000E+01
      -24  1    1    2    0    0 0.77276270E+01 0.59365478E+02 0.84954365E+02 0.13140942E+03 0.80419002E+02 0.0000E+00 0.9000E+01
#aMCatNLO 1  0  0  2  1 0.25246830D+03 0.00000000D+00  -5  5  0 0.00000000D+00 0.00000000D+00 0.00000000D+00 0.00000000D+00 0.00000000D+00
  <mgrwgt>
 0.2104513446D+00    3    2    0
 0.143896649243834D+03 0.000000000000000D+00 0.000000000000000D+00 0.143896649243834D+03
 0.143896649243834D+03 0.000000000000000D+00 0.000000000000000D+00 -.143896649243834D+03
 0.159806998952728D+03 -.772762698014789D+01 -.593654781151284D+02 -.795569023007749D+02
 0.127986299534941D+03 0.772762698014789D+01 0.593654781151284D+02 0.795569023007749D+02
 0.000000000000000D+00 0.000000000000000D+00 -.000000000000000D+00 0.000000000000000D+00
 0.356006890271987D+03 0.000000000000000D+00 0.000000000000000D+00 0.356006890271987D+03
 0.288237236273258D+03 0.000000000000000D+00 0.000000000000000D+00 -.288237236273258D+03
 0.162193030638011D+03 -.265782120979911D+02 0.603810990751398D+02 -.795569023007749D+02
 0.220645346084627D+03 -.126820311148476D+02 0.189015920434077D+03 0.795569023007749D+02
 0.261405749822607D+03 0.392602432128387D+02 -.249397019509217D+03 0.677696539987285D+02
0.610833934274D-03 0.000000000000D+00 0.000000000000D+00 0.178025464941D-02 0.000000000000D+00  5 1 -2 25 -24 21 0 0.23078809D-01 0.21235440D-01 0.14262580D+05 0.14262580D+05 0.14262580D+05 0.12503261D+01  1  2  2  2  5  2       -2 0.205485719361D+00 0.100000000000D+01
-.325016620097D-04 0.000000000000D+00 -.234576314388D-05 0.178025464941D-02 0.000000000000D+00  5 1 -2 25 -24 21 2 0.23078809D-01 0.21235440D-01 0.14262580D+05 0.14262580D+05 0.14262580D+05 0.12503261D+01  1  2  3  2  5  2       -2 -.170927000935D-01 0.100000000000D+01
0.419437672871D-04 0.000000000000D+00 0.000000000000D+00 0.178025464941D-02 0.000000000000D+00  5 1 -2 25 -24 21 2 0.23078809D-01 0.21235440D-01 0.14262580D+05 0.14262580D+05 0.14262580D+05 0.12503261D+01  1  2 15  2  5  2       -2 0.220583253502D-01 0.100000000000D+01
  </mgrwgt>
  </event>
  <event>
  5     66 0.47139866E-03 0.10779042E+03 0.75467711E-02 0.12379182E+00
        1 -1    0    0  501    0 0.00000000E+00 0.00000000E+00 0.62221060E+03 0.62221069E+03 0.32000000E+00 0.0000E+00 0.9000E+01
       21 -1    0    0  502  501 0.00000000E+00 0.00000000E+00 -.13021604E+03 0.13021820E+03 0.75000000E+00 0.0000E+00 0.9000E+01
       25  1    1    2    0    0 0.64163410E+01 0.28158987E+02 0.25986723E+03 0.28981041E+03 0.12500000E+03 0.0000E+00 0.9000E+01
      -24  1    1    2    0    0 -.33758187E+02 -.19017283E+02 0.33970838E+03 0.35124105E+03 0.80419002E+02 0.0000E+00 0.9000E+01
        2  1    1    2  502    0 0.27341846E+02 -.91417040E+01 -.10758104E+03 0.11137742E+03 0.32000000E+00 0.0000E+00 0.9000E+01
#aMCatNLO 2  0  0  2  1 0.28829626D+02 0.00000000D+00  -5  5  0 0.00000000D+00 0.00000000D+00 0.00000000D+00 0.00000000D+00 0.00000000D+00
  <mgrwgt>
 0.9501379948D-01    2    2    0
 0.112499902219981D+03 0.000000000000000D+00 0.000000000000000D+00 0.112499902219981D+03
 0.112499902219981D+03 0.000000000000000D+00 0.000000000000000D+00 -.112499902219981D+03
 0.132850551120374D+03 0.224512205488311D+02 0.227977501592068D+02 -.316302737347176D+02
 0.921492533195878D+02 -.224512205488311D+02 -.227977501592068D+02 0.316302737347176D+02
 0.000000000000000D+00 0.000000000000000D+00 -.000000000000000D+00 -.000000000000000D+00
 0.113766667552146D+03 0.000000000000000D+00 0.000000000000000D+00 0.113766667552146D+03
 0.712182074461186D+03 0.000000000000000D+00 0.000000000000000D+00 -.712182074461186D+03
 0.132134674535396D+03 0.641634101053784D+01 0.281589873056246D+02 -.316302737347176D+02
 0.947046062484872D+02 -.337581872750871D+02 -.190172833411463D+02 0.316302737347176D+02
 0.599109461229449D+03 0.273418462645493D+02 -.914170396447837D+01 -.598415406909040D+03
-.158062336705D-02 0.000000000000D+00 0.000000000000D+00 0.274939231337D-02 0.000000000000D+00  5 1 21 25 -24 2 2 0.94658971D-01 0.19901798D-01 0.15176889D+05 0.15176889D+05 0.15176889D+05 0.12472425D+01  1  2 13  4  5  2       -2 -.220038929439D+01 0.100000000000D+01
0.169482851072D-02 0.000000000000D+00 0.000000000000D+00 0.274939231337D-02 0.202472237798D-04  5 1 21 25 -24 2 2 0.95724845D-01 0.20033401D-01 0.15176889D+05 0.15176889D+05 0.15176889D+05 0.12472425D+01  1  2  1  4  5  2       -2 0.229540309387D+01 0.100000000000D+01
  </mgrwgt>
  </event>
  <event>
  4     66 0.47139866E-03 0.13575286E+03 0.75467711E-02 0.12057423E+00
        1 -1    0    0  501    0 0.00000000E+00 0.00000000E+00 0.24486556E+03 0.24486577E+03 0.32000000E+00 0.0000E+00 0.9000E+01
       -2 -1    0    0    0  501 0.00000000E+00 0.00000000E+00 -.77279499E+02 0.77280162E+02 0.32000000E+00 0.0000E+00 0.9000E+01
       25  1    1    2    0    0 0.38576717E+02 -.78606556E+02 0.68092115E+02 0.16711879E+03 0.12500000E+03 0.0000E+00 0.9000E+01
      -24  1    1    2    0    0 -.38576717E+02 0.78606556E+02 0.99493951E+02 0.15502715E+03 0.80419002E+02 0.0000E+00 0.9000E+01
#aMCatNLO 1  0  0  2  1 0.19424327D+02 0.00000000D+00  -5  5  0 0.00000000D+00 0.00000000D+00 0.00000000D+00 0.00000000D+00 0.00000000D+00
  <mgrwgt>
 0.1890029004D+00    4    2    0
 0.137561726306253D+03 0.000000000000000D+00 0.000000000000000D+00 0.137561726306253D+03
 0.137561726306253D+03 0.000000000000000D+00 0.000000000000000D+00 -.137561726306253D+03
 0.154204771380508D+03 0.385767167076313D+02 -.786065558818112D+02 -.220671207223266D+02
 0.120918681231997D+03 -.385767167076313D+02 0.786065558818112D+02 0.220671207223266D+02
 0.000000000000000D+00 0.000000000000000D+00 0.000000000000000D+00 0.000000000000000D+00
 0.172704301266811D+03 0.000000000000000D+00 0.000000000000000D+00 0.172704301266811D+03
 0.140614659135435D+03 0.000000000000000D+00 0.000000000000000D+00 -.140614659135435D+03
 0.159949199392459D+03 0.378551433666308D+02 -.896592253480179D+02 -.220671207223266D+02
 0.115859101150484D+03 -.391205663845526D+02 0.702761612056724D+02 0.220671207223266D+02
 0.375106598593028D+02 0.126542301792183D+01 0.193830641423455D+02 0.320896421313754D+02
0.452382601718D-03 0.000000000000D+00 0.000000000000D+00 0.246876507262D-02 0.000000000000D+00  5 1 -2 25 -24 21 0 0.37671692D-01 0.11889221D-01 0.18428840D+05 0.18428840D+05 0.18428840D+05 0.12377571D+01  1  2  2  2  5  2       -2 0.216364834494D+00 0.100000000000D+01
-.251270128253D-04 0.000000000000D+00 -.173726830567D-05 0.246876507262D-02 0.000000000000D+00  5 1 -2 25 -24 21 2 0.37671692D-01 0.11889221D-01 0.18428840D+05 0.18428840D+05 0.18428840D+05 0.12377571D+01  1  2  3  2  5  2       -2 -.184116406695D-01 0.100000000000D+01
0.312908401093D-04 0.000000000000D+00 0.000000000000D+00 0.246876507262D-02 0.000000000000D+00  5 1 -2 25 -24 21 2 0.37671692D-01 0.11889221D-01 0.18428840D+05 0.18428840D+05 0.18428840D+05 0.12377571D+01  1  2 15  2  5  2       -2 0.229281414526D-01 0.100000000000D+01
-.435056199230D-04 0.000000000000D+00 0.000000000000D+00 0.246876507262D-02 0.000000000000D+00  5 1 -2 25 -24 21 2 0.37671692D-01 0.11889221D-01 0.18428840D+05 0.18428840D+05 0.18428840D+05 0.12377571D+01  1  2  4  2  5  2       -2 -.318784348421D-01 0.100000000000D+01
  </mgrwgt>
  </event>
  <event>
  4     66 0.47139866E-03 0.14985927E+03 0.75467711E-02 0.11195653E+00
        1 -1    0    0  501    0 0.00000000E+00 0.00000000E+00 0.39926283E+03 0.39926296E+03 0.32000000E+00 0.0000E+00 0.9000E+01
       -2 -1    0    0    0  501 0.00000000E+00 0.00000000E+00 -.57512105E+02 0.57512995E+02 0.32000000E+00 0.0000E+00 0.9000E+01
       25  1    1    2    0    0 -.19155580E+02 0.10619865E+03 0.15421942E+03 0.22595070E+03 0.12500000E+03 0.0000E+00 0.9000E+01
      -24  1    1    2    0    0 0.19155580E+02 -.10619865E+03 0.18753130E+03 0.23082525E+03 0.80419002E+02 0.0000E+00 0.9000E+01
#aMCatNLO 1  0  0  2  1 0.14691111D+03 0.00000000D+00  -5  5  0 0.00000000D+00 0.00000000D+00 0.00000000D+00 0.00000000D+00 0.00000000D+00
  <mgrwgt>
 0.2893955409D+00    3    2    0
 0.151534412943226D+03 0.000000000000000D+00 0.000000000000000D+00 0.151534412943226D+03
 0.151534412943226D+03 0.000000000000000D+00 0.000000000000000D+00 -.151534412943226D+03
 0.166642835953814D+03 -.191555802847278D+02 0.106198653671740D+03 -.223549653767291D+02
 0.136425989932638D+03 0.191555802847278D+02 -.106198653671740D+03 0.223549653767291D+02
 0.000000000000000D+00 -.000000000000000D+00 0.000000000000000D+00 0.000000000000000D+00
 0.414713719994454D+03 0.000000000000000D+00 0.000000000000000D+00 0.414713719994454D+03
 0.190305351415833D+03 0.000000000000000D+00 0.000000000000000D+00 -.190305351415833D+03
 0.147927887703070D+03 0.398625226047264D+02 0.645669789821789D+02 -.223549653767291D+02
 0.188871143405382D+03 0.801861156816845D+02 -.149249908649133D+03 0.223549653767291D+02
 0.268220040301835D+03 -.120048638286411D+03 0.846829296669539D+02 0.224408368578621D+03
0.680174503689D-03 0.000000000000D+00 0.000000000000D+00 0.234945706945D-02 0.000000000000D+00  5 1 -2 25 -24 21 0 0.61425129D-01 0.88480944D-02 0.22457802D+05 0.22457802D+05 0.22457802D+05 0.12283225D+01  1  2  2  2  5  2       -2 0.283592491310D+00 0.100000000000D+01
-.377817952647D-04 0.000000000000D+00 -.261204918822D-05 0.234945706945D-02 0.000000000000D+00  5 1 -2 25 -24 21 2 0.61425129D-01 0.88480944D-02 0.22457802D+05 0.22457802D+05 0.22457802D+05 0.12283225D+01  1  2  3  2  5  2       -2 -.237674077347D-01 0.100000000000D+01
0.470065973772D-04 0.000000000000D+00 0.000000000000D+00 0.234945706945D-02 0.000000000000D+00  5 1 -2 25 -24 21 2 0.61425129D-01 0.88480944D-02 0.22457802D+05 0.22457802D+05 0.22457802D+05 0.12283225D+01  1  2 15  2  5  2       -2 0.295704573659D-01 0.100000000000D+01
  </mgrwgt>
  </event>
  <event>
  5     66 0.47139866E-03 0.15441518E+03 0.75467711E-02 0.10976637E+00
        1 -1    0    0  502    0 0.00000000E+00 0.00000000E+00 0.34209372E+04 0.34209373E+04 0.32000000E+00 0.0000E+00 0.9000E+01
       -2 -1    0    0    0  501 0.00000000E+00 0.00000000E+00 -.36446209E+02 0.36447614E+02 0.32000000E+00 0.0000E+00 0.9000E+01
       25  1    1    2    0    0 -.18659524E+03 -.13025198E+03 0.88826746E+03 0.92543365E+03 0.12500000E+03 0.0000E+00 0.9000E+01
      -24  1    1    2    0    0 0.59940676E+02 -.13956271E+02 0.17038484E+03 0.19820664E+03 0.80419002E+02 0.0000E+00 0.9000E+01
       21  1    1    2  502  501 0.12665456E+03 0.14420825E+03 0.23258387E+04 0.23337446E+04 0.75000000E+00 0.0000E+00 0.9000E+01
#aMCatNLO 2  0  0  1  1 0.19193071D+03 0.00000000D+00  -5  5  0 0.00000000D+00 0.00000000D+00 0.00000000D+00 0.00000000D+00 0.00000000D+00
  <mgrwgt>
 0.7195196942D-02    1    2    0
 0.162007261245576D+03 0.000000000000000D+00 0.000000000000000D+00 0.162007261245576D+03
 0.162007261245576D+03 0.000000000000000D+00 0.000000000000000D+00 -.162007261245576D+03
 0.176139010611655D+03 -.106995421092127D+03 -.396200280445136D+02 0.488076254526179D+02
 0.147875511879497D+03 0.106995421092127D+03 0.396200280445136D+02 -.488076254526179D+02
 0.000000000000000D+00 0.000000000000000D+00 0.000000000000000D+00 0.000000000000000D+00
 0.590343302192659D+03 0.000000000000000D+00 0.000000000000000D+00 0.590343302192659D+03
 0.211203027803772D+03 0.000000000000000D+00 0.000000000000000D+00 -.211203027803772D+03
 0.264179001789475D+03 -.186595235700758D+03 -.130251981550912D+03 0.488076254526179D+02
 0.112414689466602D+03 0.599406761394776D+02 -.139562708171367D+02 -.488076254526179D+02
 0.424952638740354D+03 0.126654559561280D+03 0.144208252368049D+03 0.379140274388887D+03
0.100645428078D-02 0.000000000000D+00 0.000000000000D+00 0.212975694327D-02 0.951950761063D-06  5 1 -2 25 -24 21 2 0.52629740D+00 0.56072103D-02 0.76404778D+05 0.76404778D+05 0.76404778D+05 0.11744637D+01  1  2  1  1  5  1        1 0.719519694151D-02 0.100000000000D+01
  </mgrwgt>
  </event>
  <event>
  5     66 0.47139866E-03 0.12532475E+03 0.75467711E-02 0.11618158E+00
        3 -1    0    0  501    0 0.00000000E+00 0.00000000E+00 0.33971333E+02 0.33975013E+02 0.50000000E+00 0.0000E+00 0.9000E+01
       21 -1    0    0  502  501 0.00000000E+00 0.00000000E+00 -.12959547E+04 0.12959549E+04 0.75000000E+00 0.0000E+00 0.9000E+01
       25  1    1    2    0    0 0.19592474E+02 0.12535019E+03 -.35072644E+03 0.39335807E+03 0.12500000E+03 0.0000E+00 0.9000E+01
      -24  1    1    2    0    0 -.34407485E+02 -.22068824E+02 -.63292795E+03 0.63932457E+03 0.80419002E+02 0.0000E+00 0.9000E+01
        4  1    1    2  502    0 0.14815011E+02 -.10328137E+03 -.27832898E+03 0.29724729E+03 0.15500000E+01 0.0000E+00 0.9000E+01
#aMCatNLO 2  0  0  2  1 0.10433852D+03 0.00000000D+00  -5  5  0 0.00000000D+00 0.00000000D+00 0.00000000D+00 0.00000000D+00 0.00000000D+00
  <mgrwgt>
 0.1892691928D-01    1    2    0
 0.148299497733489D+03 0.000000000000000D+00 0.000000000000000D+00 0.148299497733489D+03
 0.148299497733489D+03 0.000000000000000D+00 0.000000000000000D+00 -.148299497733489D+03
 0.163737486711184D+03 0.282836286347359D+02 0.647606794247937D+02 0.786832593769897D+02
 0.132861508755793D+03 -.282836286347359D+02 -.647606794247937D+02 -.786832593769897D+02
 0.000000000000000D+00 0.000000000000000D+00 -.000000000000000D+00 0.000000000000000D+00
 0.217863259821466D+03 0.000000000000000D+00 0.000000000000000D+00 0.217863259821466D+03
 0.202078588564635D+03 0.000000000000000D+00 0.000000000000000D+00 -.202078588564635D+03
 0.194711559319588D+03 0.195924743791599D+02 0.125350193355179D+03 0.786832593769897D+02
 0.119704550084774D+03 -.344074852927832D+02 -.220688243064252D+02 -.786832593769897D+02
 0.105525738981739D+03 0.148150109136232D+02 -.103281369048754D+03 0.157846712568315D+02
0.913486403351D-04 0.000000000000D+00 0.000000000000D+00 0.180128968569D-02 0.108963384480D-06  5 3 21 25 -24 4 2 0.52265162D-02 0.19937251D+00 0.34718026D+05 0.34718026D+05 0.34718026D+05 0.12082966D+01  1  2  1  4  5  2       -4 0.189269192826D-01 0.100000000000D+01
  </mgrwgt>
  </event>
  <event>
  4     66 0.47139866E-03 0.12667675E+03 0.75467711E-02 0.97966213E-01
        1 -1    0    0  501    0 0.00000000E+00 0.00000000E+00 0.35796736E+03 0.35796750E+03 0.32000000E+00 0.0000E+00 0.9000E+01
       -2 -1    0    0    0  501 0.00000000E+00 0.00000000E+00 -.51014352E+02 0.51015355E+02 0.32000000E+00 0.0000E+00 0.9000E+01
       25  1    1    2    0    0 0.34833349E+02 0.64141765E+02 0.24329147E+03 0.28309586E+03 0.12500000E+03 0.0000E+00 0.9000E+01
      -24  1    1    2    0    0 -.34833349E+02 -.64141765E+02 0.63661537E+02 0.12588699E+03 0.80419002E+02 0.0000E+00 0.9000E+01
#aMCatNLO 1  0  0  1  1 0.63152894D+03 0.00000000D+00  -5  5  0 0.00000000D+00 0.00000000D+00 0.00000000D+00 0.00000000D+00 0.00000000D+00
  <mgrwgt>
 0.2231190347D+00    5    2    0
 0.135135884674636D+03 0.000000000000000D+00 0.000000000000000D+00 0.135135884674636D+03
 0.135135884674636D+03 0.000000000000000D+00 0.000000000000000D+00 -.135135884674636D+03
 0.152077691189757D+03 0.348333489827051D+02 0.641417645484764D+02 0.466379244485005D+02
 0.118194078159516D+03 -.348333489827051D+02 -.641417645484764D+02 -.466379244485005D+02
 0.000000000000000D+00 -.000000000000000D+00 -.000000000000000D+00 0.000000000000000D+00
 0.890676507837185D+03 0.000000000000000D+00 0.000000000000000D+00 0.890676507837185D+03
 0.525675976467105D+03 0.000000000000000D+00 0.000000000000000D+00 -.525675976467105D+03
 0.479181718612965D+03 0.450087383255177D+03 0.961060398233019D+02 0.466379244485005D+02
 0.207750320821234D+03 0.179578863371597D+03 -.476373349407432D+02 -.466379244485005D+02
 0.729420444870092D+03 -.629666246626773D+03 -.484687048825587D+02 0.365000531370081D+03
0.380672853633D-03 0.000000000000D+00 0.000000000000D+00 0.228309825773D-02 0.000000000000D+00  5 1 -2 25 -24 21 0 0.55071990D-01 0.78484500D-02 0.16046998D+05 0.16046998D+05 0.16046998D+05 0.12444958D+01  1  2  2  1  5  1        1 0.217116892173D+00 0.100000000000D+01
-.210410448397D-04 0.000000000000D+00 -.146188399141D-05 0.228309825773D-02 0.000000000000D+00  5 1 -2 25 -24 21 2 0.55071990D-01 0.78484500D-02 0.16046998D+05 0.16046998D+05 0.16046998D+05 0.12444958D+01  1  2  3  1  5  1        1 -.185864253252D-01 0.100000000000D+01
0.262697205261D-04 0.000000000000D+00 0.000000000000D+00 0.228309825773D-02 0.000000000000D+00  5 1 -2 25 -24 21 2 0.55071990D-01 0.78484500D-02 0.16046998D+05 0.16046998D+05 0.16046998D+05 0.12444958D+01  1  2 15  1  5  1        1 0.232051308569D-01 0.100000000000D+01
0.895537168351D-03 0.000000000000D+00 -.355018101708D-03 0.228309825773D-02 0.000000000000D+00  5 1 -2 25 -24 21 2 0.63264037D+00 0.78484500D-02 0.16046998D+05 0.16046998D+05 0.16046998D+05 0.12444958D+01  1  2  5  1  5  1        1 0.133490929475D-02 0.100000000000D+01
0.191170470406D-03 0.000000000000D+00 -.101454983099D-03 0.228309825773D-02 0.000000000000D+00  5 21 -2 25 -24 -1 2 0.63264037D+00 0.78484500D-02 0.16046998D+05 0.16046998D+05 0.16046998D+05 0.12444958D+01  1  2  5  3  5  1        1 0.485277163133D-04 0.100000000000D+01
  </mgrwgt>
  </event>
  <event>
  4     66 0.47139866E-03 0.18157879E+03 0.75467711E-02 0.11192568E+00
        1 -1    0    0  501    0 0.00000000E+00 0.00000000E+00 0.78679741E+03 0.78679748E+03 0.32000000E+00 0.0000E+00 0.9000E+01
       -2 -1    0    0    0  501 0.00000000E+00 0.00000000E+00 -.42588202E+02 0.42589405E+02 0.32000000E+00 0.0000E+00 0.9000E+01
       25  1    1    2    0    0 0.13866368E+03 -.53442571E+02 0.44994709E+03 0.49006236E+03 0.12500000E+03 0.0000E+00 0.9000E+01
      -24  1    1    2    0    0 -.13866368E+03 0.53442571E+02 0.29426212E+03 0.33932453E+03 0.80419002E+02 0.0000E+00 0.9000E+01
#aMCatNLO 1  0  0  1  1 0.10387754D+03 0.00000000D+00  -5  5  0 0.00000000D+00 0.00000000D+00 0.00000000D+00 0.00000000D+00 0.00000000D+00
  <mgrwgt>
 0.2111604085D+00    4    2    0
 0.183054126141792D+03 0.000000000000000D+00 0.000000000000000D+00 0.183054126141792D+03
 0.183054126141792D+03 0.000000000000000D+00 0.000000000000000D+00 -.183054126141792D+03
 0.195561060891976D+03 0.138663683041877D+03 -.534425707545100D+02 0.231387807285947D+02
 0.170547191391607D+03 -.138663683041877D+03 0.534425707545100D+02 -.231387807285947D+02
 0.000000000000000D+00 -.000000000000000D+00 -.000000000000000D+00 -.000000000000000D+00
 0.221250880524910D+03 0.000000000000000D+00 0.000000000000000D+00 0.221250880524910D+03
 0.277382035277457D+03 0.000000000000000D+00 0.000000000000000D+00 -.277382035277457D+03
 0.188147769674565D+03 0.138705358239106D+03 -.604621261202780D-01 0.231387807285947D+02
 0.192412075604760D+03 -.138624261486175D+03 0.103937971107619D+03 -.231387807285947D+02
 0.118073070523041D+03 -.810967529312166D-01 -.103877508981499D+03 -.561311547525471D+02
0.105845883641D-02 0.000000000000D+00 0.000000000000D+00 0.218820949594D-02 0.000000000000D+00  5 1 -2 25 -24 21 0 0.12104585D+00 0.65521286D-02 0.32970858D+05 0.32970858D+05 0.32970858D+05 0.12106178D+01  1  2  2  1  5  1        1 0.281136183982D+00 0.100000000000D+01
-.587985868476D-04 0.000000000000D+00 -.406476063043D-05 0.218820949594D-02 0.000000000000D+00  5 1 -2 25 -24 21 2 0.12104585D+00 0.65521286D-02 0.32970858D+05 0.32970858D+05 0.32970858D+05 0.12106178D+01  1  2  3  1  5  1        1 -.228888383354D-01 0.100000000000D+01
0.729474133098D-04 0.000000000000D+00 0.000000000000D+00 0.218820949594D-02 0.000000000000D+00  5 1 -2 25 -24 21 2 0.12104585D+00 0.65521286D-02 0.32970858D+05 0.32970858D+05 0.32970858D+05 0.12106178D+01  1  2 15  1  5  1        1 0.283966271938D-01 0.100000000000D+01
-.193907914742D-03 0.000000000000D+00 0.000000000000D+00 0.218820949594D-02 0.000000000000D+00  5 1 -2 25 -24 21 2 0.12104585D+00 0.65521286D-02 0.32970858D+05 0.32970858D+05 0.32970858D+05 0.12106178D+01  1  2  4  1  5  1        1 -.754835643241D-01 0.100000000000D+01
  </mgrwgt>
  </event>
  <event>
  4     66 0.47139866E-03 0.39525799E+02 0.75467711E-02 0.12542570E+00
        1 -1    0    0  501    0 0.00000000E+00 0.00000000E+00 0.32561180E+03 0.32561195E+03 0.32000000E+00 0.0000E+00 0.9000E+01
       -2 -1    0    0    0  501 0.00000000E+00 0.00000000E+00 -.41169729E+02 0.41170972E+02 0.32000000E+00 0.0000E+00 0.9000E+01
       25  1    1    2    0    0 -.15930511E+02 -.47219927E+01 0.24530017E+03 0.27581379E+03 0.12500000E+03 0.0000E+00 0.9000E+01
      -24  1    1    2    0    0 0.15930511E+02 0.47219927E+01 0.39141904E+02 0.90969132E+02 0.80419002E+02 0.0000E+00 0.9000E+01
#aMCatNLO 1  0  0  2  1 0.18036994D+02 0.00000000D+00  -5  5  0 0.00000000D+00 0.00000000D+00 0.00000000D+00 0.00000000D+00 0.00000000D+00
  <mgrwgt>
 0.1646830250D+00    9    2    0
 0.115782581620347D+03 0.000000000000000D+00 0.000000000000000D+00 0.115782581620347D+03
 0.115782581620347D+03 0.000000000000000D+00 0.000000000000000D+00 -.115782581620347D+03
 0.135556246876098D+03 -.159305112471464D+02 -.472199266031514D+01 0.497435188125449D+02
 0.960089163645964D+02 0.159305112471464D+02 0.472199266031514D+01 -.497435188125449D+02
 0.000000000000000D+00 0.000000000000000D+00 0.000000000000000D+00 -.000000000000000D+00
 0.120659223612535D+03 0.000000000000000D+00 0.000000000000000D+00 0.120659223612535D+03
 0.134103756101058D+03 0.000000000000000D+00 0.000000000000000D+00 -.134103756101058D+03
 0.136743089463879D+03 -.196117607053390D+02 -.146503820533445D+02 0.497435188125449D+02
 0.955234771668937D+02 0.133411603901402D+02 -.226152852603596D+01 -.497435188125449D+02
 0.224964130828204D+02 0.627060031519877D+01 0.169119105793804D+02 -.134445324885235D+02
0.182452833162D-03 0.000000000000D+00 0.000000000000D+00 0.241692091616D-02 0.000000000000D+00  5 1 -2 25 -24 21 0 0.50094230D-01 0.63339121D-02 0.10838584D+05 0.10838584D+05 0.10838584D+05 0.12642386D+01  1  2  2  2  5  2       -2 0.160007427729D+00 0.100000000000D+01
-.999706018249D-05 0.000000000000D+00 -.700666920277D-06 0.241692091616D-02 0.000000000000D+00  5 1 -2 25 -24 21 2 0.50094230D-01 0.63339121D-02 0.10838584D+05 0.10838584D+05 0.10838584D+05 0.12642386D+01  1  2  3  2  5  2       -2 -.140126380416D-01 0.100000000000D+01
0.125200890330D-04 0.000000000000D+00 0.000000000000D+00 0.241692091616D-02 0.000000000000D+00  5 1 -2 25 -24 21 2 0.50094230D-01 0.63339121D-02 0.10838584D+05 0.10838584D+05 0.10838584D+05 0.12642386D+01  1  2 15  2  5  2       -2 0.175491067040D-01 0.100000000000D+01
0.320256787980D-03 0.000000000000D+00 0.000000000000D+00 0.241692091616D-02 0.000000000000D+00  5 1 -2 25 -24 21 2 0.50094230D-01 0.74547018D-02 0.12877817D+05 0.12877817D+05 0.12877817D+05 0.12554465D+01  1  2 12  2  5  2       -2 0.347833073547D+00 0.100000000000D+01
-.323255382833D-03 0.000000000000D+00 0.000000000000D+00 0.241692091616D-02 0.000000000000D+00  5 1 -2 25 -24 21 2 0.50094230D-01 0.63339121D-02 0.10838584D+05 0.10838584D+05 0.10838584D+05 0.12642386D+01  1  2  4  2  5  2       -2 -.453099270382D+00 0.100000000000D+01
-.608329574104D-03 0.000000000000D+00 -.129053215098D-03 0.241692091616D-02 0.000000000000D+00  5 1 -2 25 -24 21 2 0.50094230D-01 0.76362619D-02 0.10838584D+05 0.10838584D+05 0.10838584D+05 0.12642386D+01  1  2  5  2  5  2       -2 -.641771666657D+00 0.100000000000D+01
0.623748445172D-03 0.000000000000D+00 0.126829431822D-03 0.241692091616D-02 0.000000000000D+00  5 1 -2 25 -24 21 2 0.50094230D-01 0.63339121D-02 0.10838584D+05 0.10838584D+05 0.10838584D+05 0.12642386D+01  1  2  6  2  5  2       -2 0.874293145354D+00 0.100000000000D+01
0.780703647948D-05 0.000000000000D+00 0.000000000000D+00 0.241692091616D-02 0.000000000000D+00  5 1 21 25 -24 2 2 0.50094230D-01 0.74547018D-02 0.12877817D+05 0.12877817D+05 0.12877817D+05 0.12554465D+01  1  2 12  4  5  2       -2 0.141925279090D+00 0.100000000000D+01
-.152047450665D-04 0.000000000000D+00 -.350624931496D-05 0.241692091616D-02 0.000000000000D+00  5 1 21 25 -24 2 2 0.50094230D-01 0.76362619D-02 0.10838584D+05 0.10838584D+05 0.10838584D+05 0.12642386D+01  1  2  5  4  5  2       -2 -.268041432339D+00 0.100000000000D+01
  </mgrwgt>
  </event>
  <event>
  4     66 0.47139866E-03 0.32514199E+03 0.75467711E-02 0.10435525E+00
        1 -1    0    0  501    0 0.00000000E+00 0.00000000E+00 0.48637181E+03 0.48637192E+03 0.32000000E+00 0.0000E+00 0.9000E+01
       -2 -1    0    0    0  501 0.00000000E+00 0.00000000E+00 -.23941357E+03 0.23941379E+03 0.32000000E+00 0.0000E+00 0.9000E+01
       25  1    1    2    0    0 0.23363819E+03 -.20033468E+03 0.23602594E+03 0.40749728E+03 0.12500000E+03 0.0000E+00 0.9000E+01
      -24  1    1    2    0    0 -.23363819E+03 0.20033468E+03 0.10932299E+02 0.31828842E+03 0.80419002E+02 0.0000E+00 0.9000E+01
#aMCatNLO 1  0  0  1  1 0.13679976D+03 0.00000000D+00  -5  5  0 0.00000000D+00 0.00000000D+00 0.00000000D+00 0.00000000D+00 0.00000000D+00
  <mgrwgt>
 0.2756806356D+00    3    2    0
 0.341239108031377D+03 0.000000000000000D+00 0.000000000000000D+00 0.341239108031377D+03
 0.341239108031377D+03 0.000000000000000D+00 0.000000000000000D+00 -.341239108031377D+03
 0.347948321475919D+03 0.233638190342653D+03 -.200334682223781D+03 0.103548276323733D+03
 0.334529894586836D+03 -.233638190342653D+03 0.200334682223781D+03 -.103548276323733D+03
 0.000000000000000D+00 -.000000000000000D+00 -.000000000000000D+00 -.000000000000000D+00
 0.361638417537088D+03 0.000000000000000D+00 0.000000000000000D+00 0.361638417537088D+03
 0.691744473670294D+03 0.000000000000000D+00 0.000000000000000D+00 -.691744473670294D+03
 0.355774668449155D+03 0.279868473071788D+03 -.147993266606817D+03 0.103548276323733D+03
 0.340278986320194D+03 -.189307387172809D+03 0.250525528058352D+03 -.103548276323733D+03
 0.357329236438033D+03 -.905610858989784D+02 -.102532261451536D+03 -.330106056133206D+03
0.939276910797D-02 0.000000000000D+00 0.000000000000D+00 0.180328009519D-02 0.000000000000D+00  5 1 -2 25 -24 21 0 0.74826458D-01 0.36832882D-01 0.10571732D+06 0.10571732D+06 0.10571732D+06 0.11613600D+01  1  2  2  1  5  1        1 0.270805204931D+00 0.100000000000D+01
-.520339071871D-03 0.000000000000D+00 -.360707065475D-04 0.180328009519D-02 0.000000000000D+00  5 1 -2 25 -24 21 2 0.74826458D-01 0.36832882D-01 0.10571732D+06 0.10571732D+06 0.10571732D+06 0.11613600D+01  1  2  3  1  5  1        1 -.202340841979D-01 0.100000000000D+01
0.645715492412D-03 0.000000000000D+00 0.000000000000D+00 0.180328009519D-02 0.000000000000D+00  5 1 -2 25 -24 21 2 0.74826458D-01 0.36832882D-01 0.10571732D+06 0.10571732D+06 0.10571732D+06 0.11613600D+01  1  2 15  1  5  1        1 0.251095148292D-01 0.100000000000D+01
  </mgrwgt>
  </event>
  <event>
  4     66 0.47139866E-03 0.10323283E+03 0.75467711E-02 0.10883023E+00
        1 -1    0    0  501    0 0.00000000E+00 0.00000000E+00 0.95256172E+02 0.95256709E+02 0.32000000E+00 0.0000E+00 0.9000E+01
       -2 -1    0    0    0  501 0.00000000E+00 0.00000000E+00 -.13528131E+03 0.13528168E+03 0.32000000E+00 0.0000E+00 0.9000E+01
       25  1    1    2    0    0 -.16153455E+01 0.10007064E+02 0.23453441E+02 0.12758454E+03 0.12500000E+03 0.0000E+00 0.9000E+01
      -24  1    1    2    0    0 0.16153455E+01 -.10007064E+02 -.63478576E+02 0.10295385E+03 0.80419002E+02 0.0000E+00 0.9000E+01
#aMCatNLO 1  0  0  2  1 0.25787357D+03 0.00000000D+00  -5  5  0 0.00000000D+00 0.00000000D+00 0.00000000D+00 0.00000000D+00 0.00000000D+00
  <mgrwgt>
 0.2300920493D+00    5    2    0
 0.113518654353741D+03 0.000000000000000D+00 0.000000000000000D+00 0.113518654353741D+03
 0.113518654353741D+03 0.000000000000000D+00 0.000000000000000D+00 -.113518654353741D+03
 0.133686670125608D+03 -.161534551698849D+01 0.100070637863427D+02 0.463073979241983D+02
 0.933506385818746D+02 0.161534551698849D+01 -.100070637863427D+02 -.463073979241983D+02
 0.000000000000000D+00 -.000000000000000D+00 -.000000000000000D+00 -.000000000000000D+00
 0.282825639012276D+03 0.000000000000000D+00 0.000000000000000D+00 0.282825639012276D+03
 0.321509687863152D+03 0.000000000000000D+00 0.000000000000000D+00 -.321509687863152D+03
 0.212079206514204D+03 0.588530512919067D+02 0.154092612044889D+03 0.463073979241983D+02
 0.131497159744515D+03 0.409372879334458D+02 0.836902050460397D+02 -.463073979241983D+02
 0.260758960616708D+03 -.997903392253525D+02 -.237782817090928D+03 -.386840488508760D+02
0.329963157479D-03 0.000000000000D+00 0.000000000000D+00 0.250893973714D-02 0.000000000000D+00  5 1 -2 25 -24 21 0 0.14654866D-01 0.20812579D-01 0.10657017D+05 0.10657017D+05 0.10657017D+05 0.12651104D+01  1  2  2  2  5  2       -2 0.202408360551D+00 0.100000000000D+01
-.181302193730D-04 0.000000000000D+00 -.126714540601D-05 0.250893973714D-02 0.000000000000D+00  5 1 -2 25 -24 21 2 0.14654866D-01 0.20812579D-01 0.10657017D+05 0.10657017D+05 0.10657017D+05 0.12651104D+01  1  2  3  2  5  2       -2 -.178001202464D-01 0.100000000000D+01
0.226783744210D-04 0.000000000000D+00 0.000000000000D+00 0.250893973714D-02 0.000000000000D+00  5 1 -2 25 -24 21 2 0.14654866D-01 0.20812579D-01 0.10657017D+05 0.10657017D+05 0.10657017D+05 0.12651104D+01  1  2 15  2  5  2       -2 0.222654664779D-01 0.100000000000D+01
0.291052048681D-03 0.000000000000D+00 -.147679124548D-03 0.250893973714D-02 0.000000000000D+00  5 1 -2 25 -24 21 2 0.14654866D-01 0.13077497D+00 0.10657017D+05 0.10657017D+05 0.10657017D+05 0.12651104D+01  1  2  5  2  5  2       -2 0.709367368183D-02 0.100000000000D+01
0.547711951395D-04 0.000000000000D+00 -.332607287194D-04 0.250893973714D-02 0.000000000000D+00  5 1 21 25 -24 2 2 0.14654866D-01 0.13077497D+00 0.10657017D+05 0.10657017D+05 0.10657017D+05 0.12651104D+01  1  2  5  4  5  2       -2 0.161246687947D-01 0.100000000000D+01
  </mgrwgt>
  </event>
  <event>
  4     66 0.47139866E-03 0.69719300E+02 0.75467711E-02 0.11784447E+00
        1 -1    0    0  501    0 0.00000000E+00 0.00000000E+00 0.58220247E+03 0.58220256E+03 0.32000000E+00 0.0000E+00 0.9000E+01
       -2 -1    0    0    0  501 0.00000000E+00 0.00000000E+00 -.31204215E+02 0.31205855E+02 0.32000000E+00 0.0000E+00 0.9000E+01
       25  1    1    2    0    0 -.50386366E+02 0.65296631E+01 0.15209783E+03 0.20332283E+03 0.12500000E+03 0.0000E+00 0.9000E+01
      -24  1    1    2    0    0 0.50386366E+02 -.65296631E+01 0.39890043E+03 0.41008559E+03 0.80419002E+02 0.0000E+00 0.9000E+01
#aMCatNLO 1  0  0  1  2 0.91099038D+02 0.00000000D+00  -5  5  0 0.00000000D+00 0.00000000D+00 0.00000000D+00 0.00000000D+00 0.00000000D+00
  <mgrwgt>
 0.3069249509D+00    8    2    0
 0.134787614870407D+03 0.000000000000000D+00 0.000000000000000D+00 0.134787614870407D+03
 0.134787614870407D+03 0.000000000000000D+00 0.000000000000000D+00 -.134787614870407D+03
 0.151773196324672D+03 -.503863660563312D+02 0.652966308192499D+01 -.694887094302468D+02
 0.117802033416142D+03 0.503863660563312D+02 -.652966308192499D+01 0.694887094302468D+02
 0.000000000000000D+00 -.000000000000000D+00 -.000000000000000D+00 0.000000000000000D+00
 0.226324106018273D+03 0.000000000000000D+00 0.000000000000000D+00 0.226324106018273D+03
 0.166961369605701D+03 0.000000000000000D+00 0.000000000000000D+00 -.166961369605701D+03
 0.156839062449289D+03 -.341279302922352D+02 0.545902477156767D+02 -.694887094302468D+02
 0.127712935049593D+03 0.633206848671983D+02 0.317046992459916D+02 0.694887094302468D+02
 0.108733478125091D+03 -.291927545749631D+02 -.862949469616683D+02 0.593627364125722D+02
0.268834754368D-03 0.000000000000D+00 0.000000000000D+00 0.195178039079D-02 0.000000000000D+00  5 1 -2 25 -24 21 0 0.89569744D-01 0.48007814D-02 0.13231384D+05 0.13231384D+05 0.13231384D+05 0.12540823D+01  1  2  2  1  5  1        1 0.171890350909D+00 0.100000000000D+01
-.144789118398D-04 0.000000000000D+00 -.103239624259D-05 0.195178039079D-02 0.000000000000D+00  5 1 -2 25 -24 21 2 0.89569744D-01 0.48007814D-02 0.13231384D+05 0.13231384D+05 0.13231384D+05 0.12540823D+01  1  2  3  1  5  1        1 -.145597545243D-01 0.100000000000D+01
0.184603399287D-04 0.000000000000D+00 0.000000000000D+00 0.195178039079D-02 0.000000000000D+00  5 1 -2 25 -24 21 2 0.89569744D-01 0.48007814D-02 0.13231384D+05 0.13231384D+05 0.13231384D+05 0.12540823D+01  1  2 15  1  5  1        1 0.185634128290D-01 0.100000000000D+01
0.138599061786D-04 0.000000000000D+00 0.000000000000D+00 0.195178039079D-02 0.000000000000D+00  5 1 -2 25 -24 21 2 0.15513136D+00 0.48007814D-02 0.28706167D+05 0.28706167D+05 0.28706167D+05 0.12169130D+01  1  2 12  1  5  1        1 0.586702899492D-02 0.100000000000D+01
-.132019709698D-03 0.000000000000D+00 -.967854144056D-04 0.195178039079D-02 0.000000000000D+00  5 1 -2 25 -24 21 2 0.17292833D+00 0.48007814D-02 0.13231384D+05 0.13231384D+05 0.13231384D+05 0.12540823D+01  1  2  5  1  5  1        1 -.486548149435D-01 0.100000000000D+01
0.174321553960D-03 0.000000000000D+00 0.790532094167D-04 0.195178039079D-02 0.000000000000D+00  5 1 -2 25 -24 21 2 0.89569744D-01 0.48007814D-02 0.13231384D+05 0.13231384D+05 0.13231384D+05 0.12540823D+01  1  2  6  1  5  1        1 0.175294874507D+00 0.100000000000D+01
0.843413800940D-06 0.000000000000D+00 0.000000000000D+00 0.195178039079D-02 0.000000000000D+00  5 21 -2 25 -24 -1 2 0.15513136D+00 0.48007814D-02 0.28706167D+05 0.28706167D+05 0.28706167D+05 0.12169130D+01  1  2 12  3  5  1        1 0.556626572255D-03 0.100000000000D+01
-.379726756380D-05 0.000000000000D+00 -.690620903877D-05 0.195178039079D-02 0.000000000000D+00  5 21 -2 25 -24 -1 2 0.17292833D+00 0.48007814D-02 0.13231384D+05 0.13231384D+05 0.13231384D+05 0.12540823D+01  1  2  5  3  5  1        1 -.203277341978D-02 0.100000000000D+01
  </mgrwgt>
  </event>
  <event>
  4     66 0.47139866E-03 0.12328765E+03 0.75467711E-02 0.11335474E+00
        1 -1    0    0  501    0 0.00000000E+00 0.00000000E+00 0.12207516E+03 0.12207558E+03 0.32000000E+00 0.0000E+00 0.9000E+01
       -2 -1    0    0    0  501 0.00000000E+00 0.00000000E+00 -.14269635E+03 0.14269670E+03 0.32000000E+00 0.0000E+00 0.9000E+01
       25  1    1    2    0    0 -.66279305E+02 0.10277764E+02 0.35123958E+02 0.14614127E+03 0.12500000E+03 0.0000E+00 0.9000E+01
      -24  1    1    2    0    0 0.66279305E+02 -.10277764E+02 -.55745148E+02 0.11863101E+03 0.80419002E+02 0.0000E+00 0.9000E+01
#aMCatNLO 1  0  0  1  2 0.15136873D+03 0.00000000D+00  -5  5  0 0.00000000D+00 0.00000000D+00 0.00000000D+00 0.00000000D+00 0.00000000D+00
  <mgrwgt>
 0.1998798245D+00    3    2    0
 0.131984020698700D+03 0.000000000000000D+00 0.000000000000000D+00 0.131984020698700D+03
 0.131984020698700D+03 0.000000000000000D+00 0.000000000000000D+00 -.131984020698700D+03
 0.149330408536314D+03 -.662793052335561D+02 0.102777643404523D+02 0.466475312480930D+02
 0.114637632861086D+03 0.662793052335561D+02 -.102777643404523D+02 -.466475312480930D+02
 0.000000000000000D+00 -.000000000000000D+00 -.000000000000000D+00 -.000000000000000D+00
 0.211794709212060D+03 0.000000000000000D+00 0.000000000000000D+00 0.211794709212060D+03
 0.248172669389717D+03 0.000000000000000D+00 0.000000000000000D+00 -.248172669389717D+03
 0.163966595707717D+03 -.362570206014863D+02 0.881446583380943D+02 0.466475312480930D+02
 0.140322113984273D+03 0.907113106016943D+02 0.530899771710800D+02 -.466475312480930D+02
 0.155678668909788D+03 -.544542900002080D+02 -.141234635509174D+03 -.363779601776568D+02
0.473391914072D-03 0.000000000000D+00 0.000000000000D+00 0.230640381533D-02 0.000000000000D+00  5 1 -2 25 -24 21 0 0.18780853D-01 0.21953344D-01 0.15199843D+05 0.15199843D+05 0.15199843D+05 0.12471678D+01  1  2  2  1  5  1        1 0.195624279303D+00 0.100000000000D+01
-.261509923390D-04 0.000000000000D+00 -.181794959699D-05 0.230640381533D-02 0.000000000000D+00  5 1 -2 25 -24 21 2 0.18780853D-01 0.21953344D-01 0.15199843D+05 0.15199843D+05 0.15199843D+05 0.12471678D+01  1  2  3  1  5  1        1 -.168089224961D-01 0.100000000000D+01
0.327716861625D-04 0.000000000000D+00 0.000000000000D+00 0.230640381533D-02 0.000000000000D+00  5 1 -2 25 -24 21 2 0.18780853D-01 0.21953344D-01 0.15199843D+05 0.15199843D+05 0.15199843D+05 0.12471678D+01  1  2 15  1  5  1        1 0.210644676741D-01 0.100000000000D+01
  </mgrwgt>
  </event>
  <event>
  4     66 0.47139866E-03 0.12847688E+03 0.75467711E-02 0.10628418E+00
        1 -1    0    0  501    0 0.00000000E+00 0.00000000E+00 0.76859734E+03 0.76859741E+03 0.32000000E+00 0.0000E+00 0.9000E+01
       -2 -1    0    0    0  501 0.00000000E+00 0.00000000E+00 -.24282208E+02 0.24284317E+02 0.32000000E+00 0.0000E+00 0.9000E+01
       25  1    1    2    0    0 0.48953886E+02 -.58148658E+02 0.55145382E+03 0.57052964E+03 0.12500000E+03 0.0000E+00 0.9000E+01
      -24  1    1    2    0    0 -.48953886E+02 0.58148658E+02 0.19286131E+03 0.22235209E+03 0.80419002E+02 0.0000E+00 0.9000E+01
#aMCatNLO 1  0  0  1  2 0.30214428D+03 0.00000000D+00  -5  5  0 0.00000000D+00 0.00000000D+00 0.00000000D+00 0.00000000D+00 0.00000000D+00
  <mgrwgt>
 0.3000166035D+00    3    2    0
 0.136616627309084D+03 0.000000000000000D+00 0.000000000000000D+00 0.136616627309084D+03
 0.136616627309084D+03 0.000000000000000D+00 0.000000000000000D+00 -.136616627309084D+03
 0.153374807162460D+03 0.489538863346792D+02 -.581486579157027D+02 0.460552067355671D+02
 0.119858447455707D+03 -.489538863346792D+02 0.581486579157027D+02 -.460552067355671D+02
 0.000000000000000D+00 -.000000000000000D+00 -.000000000000000D+00 -.000000000000000D+00
 0.281174055737357D+03 0.000000000000000D+00 0.000000000000000D+00 0.281174055737357D+03
 0.498206151571281D+03 0.000000000000000D+00 0.000000000000000D+00 -.498206151571281D+03
 0.188286222514121D+03 0.103787653951938D+03 0.832690963583369D+02 0.460552067355671D+02
 0.219080414717000D+03 0.544299592733679D+01 0.198439673165628D+03 -.460552067355671D+02
 0.372013570077518D+03 -.109230649879274D+03 -.281708769523965D+03 -.217032095833924D+03
0.464463600684D-03 0.000000000000D+00 0.000000000000D+00 0.227939137261D-02 0.000000000000D+00  5 1 -2 25 -24 21 0 0.11824591D+00 0.37358916D-02 0.16506308D+05 0.16506308D+05 0.16506308D+05 0.12431125D+01  1  2  2  1  5  1        1 0.293736541666D+00 0.100000000000D+01
-.256851426718D-04 0.000000000000D+00 -.178366252270D-05 0.227939137261D-02 0.000000000000D+00  5 1 -2 25 -24 21 2 0.11824591D+00 0.37358916D-02 0.16506308D+05 0.16506308D+05 0.16506308D+05 0.12431125D+01  1  2  3  1  5  1        1 -.251020453286D-01 0.100000000000D+01
0.321110845591D-04 0.000000000000D+00 0.000000000000D+00 0.227939137261D-02 0.000000000000D+00  5 1 -2 25 -24 21 2 0.11824591D+00 0.37358916D-02 0.16506308D+05 0.16506308D+05 0.16506308D+05 0.12431125D+01  1  2 15  1  5  1        1 0.313821071758D-01 0.100000000000D+01
  </mgrwgt>
  </event>
  <event>
  4     66 0.47139866E-03 0.40551808E+02 0.75467711E-02 0.12152120E+00
        1 -1    0    0  501    0 0.00000000E+00 0.00000000E+00 0.65041350E+01 0.65120022E+01 0.32000000E+00 0.0000E+00 0.9000E+01
       -2 -1    0    0    0  501 0.00000000E+00 0.00000000E+00 -.19336431E+04 0.19336431E+04 0.32000000E+00 0.0000E+00 0.9000E+01
       25  1    1    2    0    0 0.25659831E+02 0.33022686E+02 -.12629296E+04 0.12697894E+04 0.12500000E+03 0.0000E+00 0.9000E+01
      -24  1    1    2    0    0 -.25659831E+02 -.33022686E+02 -.66420934E+03 0.67036572E+03 0.80419002E+02 0.0000E+00 0.9000E+01
#aMCatNLO 1  0  0  2  1 0.49322403D+02 0.00000000D+00  -5  5  0 0.00000000D+00 0.00000000D+00 0.00000000D+00 0.00000000D+00 0.00000000D+00
  <mgrwgt>
 0.1573795939D+00    9    2    0
 0.112179914585411D+03 0.000000000000000D+00 0.000000000000000D+00 0.112179914585411D+03
 0.112179914585411D+03 0.000000000000000D+00 0.000000000000000D+00 -.112179914585411D+03
 0.132588612701011D+03 0.256598312300121D+02 0.330226856156300D+02 -.143462717790084D+02
 0.917712164698123D+02 -.256598312300121D+02 -.330226856156300D+02 0.143462717790084D+02
 0.000000000000000D+00 0.000000000000000D+00 0.000000000000000D+00 -.000000000000000D+00
 0.133289970629159D+03 0.000000000000000D+00 0.000000000000000D+00 0.133289970629159D+03
 0.147855447810993D+03 0.000000000000000D+00 0.000000000000000D+00 -.147855447810993D+03
 0.127145809328012D+03 0.163215408976924D+01 0.182367044376267D+02 -.143462717790084D+02
 0.102571478697812D+03 -.436382089035363D+02 -.440860918841678D+02 0.143462717790084D+02
 0.514281304143279D+02 0.420060548137670D+02 0.258493874465411D+02 -.145654771818338D+02
0.189800755317D-02 0.000000000000D+00 0.000000000000D+00 0.291361981754D-02 0.000000000000D+00  5 1 -2 25 -24 21 0 0.10012434D-02 0.29748416D+00 0.12371347D+05 0.12371347D+05 0.12371347D+05 0.12574758D+01  1  2  2  2  5  2       -2 0.993366497616D-01 0.100000000000D+01
-.105435525236D-03 0.000000000000D+00 -.728884876105D-05 0.291361981754D-02 0.000000000000D+00  5 1 -2 25 -24 21 2 0.10012434D-02 0.29748416D+00 0.12371347D+05 0.12371347D+05 0.12371347D+05 0.12574758D+01  1  2  3  2  5  2       -2 -.872565107088D-02 0.100000000000D+01
0.131439048941D-03 0.000000000000D+00 0.000000000000D+00 0.291361981754D-02 0.000000000000D+00  5 1 -2 25 -24 21 2 0.10012434D-02 0.29748416D+00 0.12371347D+05 0.12371347D+05 0.12371347D+05 0.12574758D+01  1  2 15  2  5  2       -2 0.108776550938D-01 0.100000000000D+01
0.610161912675D-03 0.000000000000D+00 0.000000000000D+00 0.291361981754D-02 0.000000000000D+00  5 1 -2 25 -24 21 2 0.10012434D-02 0.41282516D+00 0.19212662D+05 0.19212662D+05 0.19212662D+05 0.12357509D+01  1  2 12  2  5  2       -2 0.996711046427D-02 0.100000000000D+01
-.777492722299D-03 0.000000000000D+00 0.000000000000D+00 0.291361981754D-02 0.000000000000D+00  5 1 -2 25 -24 21 2 0.10012434D-02 0.29748416D+00 0.12371347D+05 0.12371347D+05 0.12371347D+05 0.12574758D+01  1  2  4  2  5  2       -2 -.643438745123D-01 0.100000000000D+01
-.154292292695D-02 0.000000000000D+00 -.579118647547D-03 0.291361981754D-02 0.000000000000D+00  5 1 -2 25 -24 21 2 0.10012434D-02 0.41965613D+00 0.12371347D+05 0.12371347D+05 0.12371347D+05 0.12574758D+01  1  2  5  2  5  2       -2 -.236583772641D-01 0.100000000000D+01
0.167473427460D-02 0.000000000000D+00 0.546451774801D-03 0.291361981754D-02 0.000000000000D+00  5 1 -2 25 -24 21 2 0.10012434D-02 0.29748416D+00 0.12371347D+05 0.12371347D+05 0.12371347D+05 0.12574758D+01  1  2  6  2  5  2       -2 0.138597942997D+00 0.100000000000D+01
0.251347899730D-04 0.000000000000D+00 0.000000000000D+00 0.291361981754D-02 0.000000000000D+00  5 1 21 25 -24 2 2 0.10012434D-02 0.41282516D+00 0.19212662D+05 0.19212662D+05 0.19212662D+05 0.12357509D+01  1  2 12  4  5  2       -2 0.494776864426D-02 0.100000000000D+01
-.498628229331D-04 0.000000000000D+00 -.247109845879D-04 0.291361981754D-02 0.000000000000D+00  5 1 21 25 -24 2 2 0.10012434D-02 0.41965613D+00 0.12371347D+05 0.12371347D+05 0.12371347D+05 0.12574758D+01  1  2  5  4  5  2       -2 -.961963025562D-02 0.100000000000D+01
  </mgrwgt>
  </event>
  <event>
  4     66 0.47139866E-03 0.40550020E+02 0.75467711E-02 0.11931901E+00
        1 -1    0    0  501    0 0.00000000E+00 0.00000000E+00 0.87929191E+02 0.87929773E+02 0.32000000E+00 0.0000E+00 0.9000E+01
       -2 -1    0    0    0  501 0.00000000E+00 0.00000000E+00 -.24586185E+03 0.24586206E+03 0.32000000E+00 0.0000E+00 0.9000E+01
       25  1    1    2    0    0 -.82242979E+02 0.61189410E+02 -.10721303E+03 0.19397857E+03 0.12500000E+03 0.0000E+00 0.9000E+01
      -24  1    1    2    0    0 0.82242979E+02 -.61189410E+02 -.50719627E+02 0.13981326E+03 0.80419002E+02 0.0000E+00 0.9000E+01
#aMCatNLO 1  0  0  2  1 0.19551311D+02 0.00000000D+00  -5  5  0 0.00000000D+00 0.00000000D+00 0.00000000D+00 0.00000000D+00 0.00000000D+00
  <mgrwgt>
 0.1794391572D+00    9    2    0
 0.147032531877306D+03 0.000000000000000D+00 0.000000000000000D+00 0.147032531877306D+03
 0.147032531877306D+03 0.000000000000000D+00 0.000000000000000D+00 -.147032531877306D+03
 0.162603548591606D+03 -.822429787461625D+02 0.611894100282391D+02 -.175174930266042D+02
 0.131461515163006D+03 0.822429787461625D+02 -.611894100282391D+02 0.175174930266042D+02
 0.000000000000000D+00 -.000000000000000D+00 0.000000000000000D+00 -.000000000000000D+00
 0.149241376459037D+03 0.000000000000000D+00 0.000000000000000D+00 0.149241376459037D+03
 0.198074673170189D+03 0.000000000000000D+00 0.000000000000000D+00 -.198074673170189D+03
 0.156153595471626D+03 -.734832130270169D+02 0.552476263744000D+02 -.175174930266042D+02
 0.138560699191578D+03 0.896634597636542D+02 -.662227515840514D+02 0.175174930266042D+02
 0.526017549660210D+02 -.161802467366372D+02 0.109751252096514D+02 -.488332967111512D+02
0.568626406352D-03 0.000000000000D+00 0.000000000000D+00 0.240266492725D-02 0.000000000000D+00  5 1 -2 25 -24 21 0 0.13527629D-01 0.37824961D-01 0.21308171D+05 0.21308171D+05 0.21308171D+05 0.12308082D+01  1  2  2  2  5  2       -2 0.136956357141D+00 0.100000000000D+01
-.315883476334D-04 0.000000000000D+00 -.218367512316D-05 0.240266492725D-02 0.000000000000D+00  5 1 -2 25 -24 21 2 0.13527629D-01 0.37824961D-01 0.21308171D+05 0.21308171D+05 0.21308171D+05 0.12308082D+01  1  2  3  2  5  2       -2 -.115255815630D-01 0.100000000000D+01
0.393406095548D-04 0.000000000000D+00 0.000000000000D+00 0.240266492725D-02 0.000000000000D+00  5 1 -2 25 -24 21 2 0.13527629D-01 0.37824961D-01 0.21308171D+05 0.21308171D+05 0.21308171D+05 0.12308082D+01  1  2 15  2  5  2       -2 0.143541349305D-01 0.100000000000D+01
0.279613420684D-02 0.000000000000D+00 0.000000000000D+00 0.240266492725D-02 0.000000000000D+00  5 1 -2 25 -24 21 2 0.13527629D-01 0.51168023D-01 0.24362238D+05 0.24362238D+05 0.24362238D+05 0.12245027D+01  1  2 12  2  5  2       -2 0.565006033176D+00 0.100000000000D+01
-.273149848697D-02 0.000000000000D+00 0.000000000000D+00 0.240266492725D-02 0.000000000000D+00  5 1 -2 25 -24 21 2 0.13527629D-01 0.37824961D-01 0.21308171D+05 0.21308171D+05 0.21308171D+05 0.12308082D+01  1  2  4  2  5  2       -2 -.996636765118D+00 0.100000000000D+01
-.317189261861D-02 0.000000000000D+00 -.259028920284D-03 0.240266492725D-02 0.000000000000D+00  5 1 -2 25 -24 21 2 0.13527629D-01 0.51387653D-01 0.21308171D+05 0.21308171D+05 0.21308171D+05 0.12308082D+01  1  2  5  2  5  2       -2 -.640281926971D+00 0.100000000000D+01
0.311554853533D-02 0.000000000000D+00 0.247325998207D-03 0.240266492725D-02 0.000000000000D+00  5 1 -2 25 -24 21 2 0.13527629D-01 0.37824961D-01 0.21308171D+05 0.21308171D+05 0.21308171D+05 0.12308082D+01  1  2  6  2  5  2       -2 0.113676439091D+01 0.100000000000D+01
0.108643143802D-03 0.000000000000D+00 0.000000000000D+00 0.240266492725D-02 0.000000000000D+00  5 1 21 25 -24 2 2 0.13527629D-01 0.51168023D-01 0.24362238D+05 0.24362238D+05 0.24362238D+05 0.12245027D+01  1  2 12  4  5  2       -2 0.271128316705D+00 0.100000000000D+01
-.118500640780D-03 0.000000000000D+00 -.101673043006D-04 0.240266492725D-02 0.000000000000D+00  5 1 21 25 -24 2 2 0.13527629D-01 0.51387653D-01 0.21308171D+05 0.21308171D+05 0.21308171D+05 0.12308082D+01  1  2  5  4  5  2       -2 -.296325802050D+00 0.100000000000D+01
  </mgrwgt>
  </event>
  <event>
  4     66 0.47139866E-03 0.53974060E+02 0.75467711E-02 0.12341962E+00
        1 -1    0    0  501    0 0.00000000E+00 0.00000000E+00 0.16404176E+02 0.16407297E+02 0.32000000E+00 0.0000E+00 0.9000E+01
       -2 -1    0    0    0  501 0.00000000E+00 0.00000000E+00 -.10461951E+04 0.10461951E+04 0.32000000E+00 0.0000E+00 0.9000E+01
       25  1    1    2    0    0 0.45190414E+02 -.23373448E+02 -.33245369E+03 0.35880210E+03 0.12500000E+03 0.0000E+00 0.9000E+01
      -24  1    1    2    0    0 -.45190414E+02 0.23373448E+02 -.69733722E+03 0.70380033E+03 0.80419002E+02 0.0000E+00 0.9000E+01
#aMCatNLO 1  0  0  2  1 0.20481333D+02 0.00000000D+00  -5  5  0 0.00000000D+00 0.00000000D+00 0.00000000D+00 0.00000000D+00 0.00000000D+00
  <mgrwgt>
 0.1939743978D+00    9    2    0
 0.131010123498257D+03 0.000000000000000D+00 0.000000000000000D+00 0.131010123498257D+03
 0.131010123498257D+03 0.000000000000000D+00 0.000000000000000D+00 -.131010123498257D+03
 0.148485460138466D+03 0.451904138195177D+02 -.233734477903731D+02 0.619228577323711D+02
 0.113534786858049D+03 -.451904138195177D+02 0.233734477903731D+02 -.619228577323711D+02
 0.000000000000000D+00 -.000000000000000D+00 0.000000000000000D+00 -.000000000000000D+00
 0.134863942413291D+03 0.000000000000000D+00 0.000000000000000D+00 0.134863942413291D+03
 0.161770367437608D+03 0.000000000000000D+00 0.000000000000000D+00 -.161770367437608D+03
 0.152712663207456D+03 0.533968004763114D+02 -.317883452394671D+02 0.619228577323711D+02
 0.110106846760251D+03 -.390971164986676D+02 0.171253298029828D+02 -.619228577323711D+02
 0.338147998831912D+02 -.142996839776438D+02 0.146630154364843D+02 -.269064250243172D+02
0.136405219546D-02 0.000000000000D+00 0.000000000000D+00 0.209072301015D-02 0.000000000000D+00  5 1 -2 25 -24 21 0 0.25239632D-02 0.16095333D+00 0.13238671D+05 0.13238671D+05 0.13238671D+05 0.12540546D+01  1  2  2  2  5  2       -2 0.131317374105D+00 0.100000000000D+01
-.742277098623D-04 0.000000000000D+00 -.523831959375D-05 0.209072301015D-02 0.000000000000D+00  5 1 -2 25 -24 21 2 0.25239632D-02 0.16095333D+00 0.13238671D+05 0.13238671D+05 0.13238671D+05 0.12540546D+01  1  2  3  2  5  2       -2 -.112380285466D-01 0.100000000000D+01
0.935348748279D-04 0.000000000000D+00 0.000000000000D+00 0.209072301015D-02 0.000000000000D+00  5 1 -2 25 -24 21 2 0.25239632D-02 0.16095333D+00 0.13238671D+05 0.13238671D+05 0.13238671D+05 0.12540546D+01  1  2 15  2  5  2       -2 0.141611211685D-01 0.100000000000D+01
0.301967384720D-02 0.000000000000D+00 0.000000000000D+00 0.209072301015D-02 0.000000000000D+00  5 1 -2 25 -24 21 2 0.25239632D-02 0.20072589D+00 0.15765381D+05 0.15765381D+05 0.15765381D+05 0.12453661D+01  1  2 12  2  5  2       -2 0.248190834952D+00 0.100000000000D+01
-.306725220408D-02 0.000000000000D+00 0.000000000000D+00 0.209072301015D-02 0.000000000000D+00  5 1 -2 25 -24 21 2 0.25239632D-02 0.16095333D+00 0.13238671D+05 0.13238671D+05 0.13238671D+05 0.12540546D+01  1  2  4  2  5  2       -2 -.464380052855D+00 0.100000000000D+01
-.431079963084D-02 0.000000000000D+00 -.697995270558D-03 0.209072301015D-02 0.000000000000D+00  5 1 -2 25 -24 21 2 0.25239632D-02 0.20133098D+00 0.13238671D+05 0.13238671D+05 0.13238671D+05 0.12540546D+01  1  2  5  2  5  2       -2 -.354801206828D+00 0.100000000000D+01
0.437412829273D-02 0.000000000000D+00 0.680867380309D-03 0.209072301015D-02 0.000000000000D+00  5 1 -2 25 -24 21 2 0.25239632D-02 0.16095333D+00 0.13238671D+05 0.13238671D+05 0.13238671D+05 0.12540546D+01  1  2  6  2  5  2       -2 0.662240269995D+00 0.100000000000D+01
0.931696678096D-04 0.000000000000D+00 0.000000000000D+00 0.209072301015D-02 0.000000000000D+00  5 1 21 25 -24 2 2 0.25239632D-02 0.20072589D+00 0.15765381D+05 0.15765381D+05 0.15765381D+05 0.12453661D+01  1  2 12  4  5  2       -2 0.895969237472D-01 0.100000000000D+01
-.124631987079D-03 0.000000000000D+00 -.217565302451D-04 0.209072301015D-02 0.000000000000D+00  5 1 21 25 -24 2 2 0.25239632D-02 0.20133098D+00 0.13238671D+05 0.13238671D+05 0.13238671D+05 0.12540546D+01  1  2  5  4  5  2       -2 -.121112837967D+00 0.100000000000D+01
  </mgrwgt>
  </event>
  <event>
  4     66 0.47139866E-03 0.50101406E+02 0.75467711E-02 0.11686177E+00
        1 -1    0    0  501    0 0.00000000E+00 0.00000000E+00 0.34407042E+03 0.34407057E+03 0.32000000E+00 0.0000E+00 0.9000E+01
       -2 -1    0    0    0  501 0.00000000E+00 0.00000000E+00 -.56406836E+02 0.56407744E+02 0.32000000E+00 0.0000E+00 0.9000E+01
       25  1    1    2    0    0 0.27668503E+02 0.88622080E+02 0.15568077E+03 0.22018383E+03 0.12500000E+03 0.0000E+00 0.9000E+01
      -24  1    1    2    0    0 -.27668503E+02 -.88622080E+02 0.13198281E+03 0.18029448E+03 0.80419002E+02 0.0000E+00 0.9000E+01
#aMCatNLO 1  0  0  2  1 0.70905762D+02 0.00000000D+00  -5  5  0 0.00000000D+00 0.00000000D+00 0.00000000D+00 0.00000000D+00 0.00000000D+00
  <mgrwgt>
 0.2057960947D+00    9    2    0
 0.139313083432896D+03 0.000000000000000D+00 0.000000000000000D+00 0.139313083432896D+03
 0.139313083432896D+03 0.000000000000000D+00 0.000000000000000D+00 -.139313083432896D+03
 0.155746902532953D+03 0.276685030551457D+02 0.886220803800952D+02 -.356068201339729D+01
 0.122879264332839D+03 -.276685030551457D+02 -.886220803800952D+02 0.356068201339729D+01
 0.000000000000000D+00 0.000000000000000D+00 -.000000000000000D+00 -.000000000000000D+00
 0.157752458724287D+03 0.000000000000000D+00 0.000000000000000D+00 0.157752458724287D+03
 0.233538544084942D+03 0.000000000000000D+00 0.000000000000000D+00 -.233538544084942D+03
 0.169011137401569D+03 -.442454328485285D+01 0.113611220951507D+03 -.356068201339729D+01
 0.118495676443036D+03 -.515215142421710D+02 -.700490149475025D+02 0.356068201339729D+01
 0.103784188964624D+03 0.559460575270238D+02 -.435622060040041D+02 -.757860853606549D+02
0.390836772527D-03 0.000000000000D+00 0.000000000000D+00 0.250663164996D-02 0.000000000000D+00  5 1 -2 25 -24 21 0 0.52933992D-01 0.86780561D-02 0.19395278D+05 0.19395278D+05 0.19395278D+05 0.12352967D+01  1  2  2  2  5  2       -2 0.201635752907D+00 0.100000000000D+01
-.217131511308D-04 0.000000000000D+00 -.150091611619D-05 0.250663164996D-02 0.000000000000D+00  5 1 -2 25 -24 21 2 0.52933992D-01 0.86780561D-02 0.19395278D+05 0.19395278D+05 0.19395278D+05 0.12352967D+01  1  2  3  2  5  2       -2 -.170937577833D-01 0.100000000000D+01
0.270474823421D-04 0.000000000000D+00 0.000000000000D+00 0.250663164996D-02 0.000000000000D+00  5 1 -2 25 -24 21 2 0.52933992D-01 0.86780561D-02 0.19395278D+05 0.19395278D+05 0.19395278D+05 0.12352967D+01  1  2 15  2  5  2       -2 0.212932295740D-01 0.100000000000D+01
0.184894137509D-03 0.000000000000D+00 0.000000000000D+00 0.250663164996D-02 0.000000000000D+00  5 1 -2 25 -24 21 2 0.52933992D-01 0.14794678D-01 0.32098584D+05 0.32098584D+05 0.32098584D+05 0.12118285D+01  1  2 12  2  5  2       -2 0.604970822729D-01 0.100000000000D+01
-.290910119715D-03 0.000000000000D+00 0.000000000000D+00 0.250663164996D-02 0.000000000000D+00  5 1 -2 25 -24 21 2 0.52933992D-01 0.86780561D-02 0.19395278D+05 0.19395278D+05 0.19395278D+05 0.12352967D+01  1  2  4  2  5  2       -2 -.229020057621D+00 0.100000000000D+01
-.318643728846D-03 0.000000000000D+00 -.118926697480D-03 0.250663164996D-02 0.000000000000D+00  5 1 -2 25 -24 21 2 0.52933992D-01 0.16354988D-01 0.19395278D+05 0.19395278D+05 0.19395278D+05 0.12352967D+01  1  2  5  2  5  2       -2 -.910740669850D-01 0.100000000000D+01
0.343202174483D-03 0.000000000000D+00 0.984800942027D-04 0.250663164996D-02 0.000000000000D+00  5 1 -2 25 -24 21 2 0.52933992D-01 0.86780561D-02 0.19395278D+05 0.19395278D+05 0.19395278D+05 0.12352967D+01  1  2  6  2  5  2       -2 0.270187169332D+00 0.100000000000D+01
0.109834432677D-04 0.000000000000D+00 0.000000000000D+00 0.250663164996D-02 0.000000000000D+00  5 1 21 25 -24 2 2 0.52933992D-01 0.14794678D-01 0.32098584D+05 0.32098584D+05 0.32098584D+05 0.12118285D+01  1  2 12  4  5  2       -2 0.523563828806D-01 0.100000000000D+01
-.152378385449D-04 0.000000000000D+00 -.819802440703D-05 0.250663164996D-02 0.000000000000D+00  5 1 21 25 -24 2 2 0.52933992D-01 0.16354988D-01 0.19395278D+05 0.19395278D+05 0.19395278D+05 0.12352967D+01  1  2  5  4  5  2       -2 -.629856398570D-01 0.100000000000D+01
  </mgrwgt>
  </event>
  <event>
  4     66 0.47139866E-03 0.11260230E+03 0.75467711E-02 0.10351611E+00
        1 -1    0    0  501    0 0.00000000E+00 0.00000000E+00 0.94994570E+02 0.94995109E+02 0.32000000E+00 0.0000E+00 0.9000E+01
       -2 -1    0    0    0  501 0.00000000E+00 0.00000000E+00 -.13592167E+03 0.13592205E+03 0.32000000E+00 0.0000E+00 0.9000E+01
       25  1    1    2    0    0 -.45083517E+02 0.37472884E+01 -.88439149E+01 0.13322830E+03 0.12500000E+03 0.0000E+00 0.9000E+01
      -24  1    1    2    0    0 0.45083517E+02 -.37472884E+01 -.32083189E+02 0.97688856E+02 0.80419002E+02 0.0000E+00 0.9000E+01
#aMCatNLO 1  0  0  2  1 0.39613820D+03 0.00000000D+00  -5  5  0 0.00000000D+00 0.00000000D+00 0.00000000D+00 0.00000000D+00 0.00000000D+00
  <mgrwgt>
 0.2433147450D+00    3    2    0
 0.113630658492384D+03 0.000000000000000D+00 0.000000000000000D+00 0.113630658492384D+03
 0.113630658492384D+03 0.000000000000000D+00 0.000000000000000D+00 -.113630658492384D+03
 0.133778794935339D+03 -.450835168979515D+02 0.374728844845048D+01 0.150066754395419D+02
 0.934825220494294D+02 0.450835168979515D+02 -.374728844845048D+01 -.150066754395419D+02
 0.000000000000000D+00 -.000000000000000D+00 -.000000000000000D+00 0.000000000000000D+00
 0.100331204710746D+04 0.000000000000000D+00 0.000000000000000D+00 0.100331204710746D+04
 0.278972604488271D+03 0.000000000000000D+00 0.000000000000000D+00 -.278972604488271D+03
 0.271654806784694D+03 -.340035635742364D+02 0.238306297452952D+03 0.150066754395419D+02
 0.185043323511189D+03 0.526952524698614D+02 0.157390678507610D+03 -.150066754395419D+02
 0.825586521299850D+03 -.186916888956250D+02 -.395696975960562D+03 0.724339442619193D+03
0.387248786499D-03 0.000000000000D+00 0.000000000000D+00 0.287571050057D-02 0.000000000000D+00  5 1 -2 25 -24 21 0 0.14614620D-01 0.20911097D-01 0.12679278D+05 0.12679278D+05 0.12679278D+05 0.12562311D+01  1  2  2  2  5  2       -2 0.238162341710D+00 0.100000000000D+01
-.215116595319D-04 0.000000000000D+00 -.148713730511D-05 0.287571050057D-02 0.000000000000D+00  5 1 -2 25 -24 21 2 0.14614620D-01 0.20911097D-01 0.12679278D+05 0.12679278D+05 0.12679278D+05 0.12562311D+01  1  2  3  2  5  2       -2 -.208783435242D-01 0.100000000000D+01
0.268203538945D-04 0.000000000000D+00 0.000000000000D+00 0.287571050057D-02 0.000000000000D+00  5 1 -2 25 -24 21 2 0.14614620D-01 0.20911097D-01 0.12679278D+05 0.12679278D+05 0.12679278D+05 0.12562311D+01  1  2 15  2  5  2       -2 0.260307467780D-01 0.100000000000D+01
  </mgrwgt>
  </event>
  <event>
  5     66 0.47139866E-03 0.11516761E+03 0.75467711E-02 0.12179208E+00
        1 -1    0    0  501    0 0.00000000E+00 0.00000000E+00 0.12816323E+04 0.12816323E+04 0.32000000E+00 0.0000E+00 0.9000E+01
       -2 -1    0    0    0  502 0.00000000E+00 0.00000000E+00 -.15960509E+02 0.15963717E+02 0.32000000E+00 0.0000E+00 0.9000E+01
       25  1    1    2    0    0 0.49516331E+02 -.29647603E+01 0.67773591E+03 0.69094980E+03 0.12500000E+03 0.0000E+00 0.9000E+01
      -24  1    1    2    0    0 -.45330259E+02 -.36386244E+02 0.50617104E+03 0.51580532E+03 0.80419002E+02 0.0000E+00 0.9000E+01
       21  1    1    2  501  502 -.41860718E+01 0.39351005E+02 0.81764843E+02 0.90840943E+02 0.75000000E+00 0.0000E+00 0.9000E+01
#aMCatNLO 2  0  0  2  1 0.39573031D+02 0.00000000D+00  -5  5  0 0.00000000D+00 0.00000000D+00 0.00000000D+00 0.00000000D+00 0.00000000D+00
  <mgrwgt>
 0.5860989890D-02    2    2    0
 0.115169679807487D+03 0.000000000000000D+00 0.000000000000000D+00 0.115169679807487D+03
 0.115169679807487D+03 0.000000000000000D+00 0.000000000000000D+00 -.115169679807487D+03
 0.135048575148989D+03 0.470849612053864D+02 0.198912370904310D+02 -.680268382089388D+00
 0.952907844659844D+02 -.470849612053864D+02 -.198912370904310D+02 0.680268382089388D+00
 0.000000000000000D+00 -.000000000000000D+00 0.000000000000000D+00 -.000000000000000D+00
 0.125291638489772D+03 0.000000000000000D+00 0.000000000000000D+00 0.125291638489772D+03
 0.163273555509504D+03 0.000000000000000D+00 0.000000000000000D+00 -.163273555509504D+03
 0.134484644513346D+03 0.495163310549726D+02 -.296476030461341D+01 -.680268382089388D+00
 0.992293801855585D+02 -.453302592652590D+02 -.363862442072868D+02 0.680268382089388D+00
 0.548511693003711D+02 -.418607178971362D+01 0.393510045119002D+02 -.379819170197311D+02
-.177328374405D-03 0.000000000000D+00 0.000000000000D+00 0.288319543947D-02 0.000000000000D+00  5 1 -2 25 -24 21 2 0.18124174D+00 0.25070152D-02 0.18670900D+05 0.18670900D+05 0.18670900D+05 0.12371275D+01  1  2 13  2  5  2       -2 -.152979641515D+00 0.100000000000D+01
0.210038426371D-03 0.000000000000D+00 0.000000000000D+00 0.288319543947D-02 0.160098234743D-04  5 1 -2 25 -24 21 2 0.19717060D+00 0.24556648D-02 0.18670900D+05 0.18670900D+05 0.18670900D+05 0.12371275D+01  1  2  1  2  5  2       -2 0.158840631405D+00 0.100000000000D+01
  </mgrwgt>
  </event>
  <event>
  4     66 0.47139866E-03 0.73518886E+02 0.75467711E-02 0.12588614E+00
        1 -1    0    0  501    0 0.00000000E+00 0.00000000E+00 0.59502114E+03 0.59502122E+03 0.32000000E+00 0.0000E+00 0.9000E+01
       -2 -1    0    0    0  501 0.00000000E+00 0.00000000E+00 -.26824551E+02 0.26826460E+02 0.32000000E+00 0.0000E+00 0.9000E+01
       25  1    1    2    0    0 -.20856037E+02 0.27931861E+02 0.16863809E+03 0.21278855E+03 0.12500000E+03 0.0000E+00 0.9000E+01
      -24  1    1    2    0    0 0.20856037E+02 -.27931861E+02 0.39955850E+03 0.40905913E+03 0.80419002E+02 0.0000E+00 0.9000E+01
#aMCatNLO 1  0  0  1  2 0.44666359D+01 0.00000000D+00  -5  5  0 0.00000000D+00 0.00000000D+00 0.00000000D+00 0.00000000D+00 0.00000000D+00
  <mgrwgt>
 0.2483953618D+00   11    2    0
 0.126339997974502D+03 0.000000000000000D+00 0.000000000000000D+00 0.126339997974502D+03
 0.126339997974502D+03 0.000000000000000D+00 0.000000000000000D+00 -.126339997974502D+03
 0.144461305938029D+03 -.208560366554970D+02 0.279318613164609D+02 -.634736620319288D+02
 0.108218690010975D+03 0.208560366554970D+02 -.279318613164609D+02 0.634736620319288D+02
 0.000000000000000D+00 0.000000000000000D+00 -.000000000000000D+00 0.000000000000000D+00
 0.140878327363055D+03 0.000000000000000D+00 0.000000000000000D+00 0.140878327363055D+03
 0.126703275119289D+03 0.000000000000000D+00 0.000000000000000D+00 -.126703275119289D+03
 0.145097004165251D+03 -.225841583292618D+02 0.298192997661935D+02 -.634736620319288D+02
 0.107622467164282D+03 0.195678685429258D+02 -.265249360621242D+02 0.634736620319288D+02
 0.148621311528105D+02 0.301628978633604D+01 -.329436370406931D+01 0.141750522437660D+02
0.191988441867D-03 0.000000000000D+00 0.000000000000D+00 0.208172158875D-02 0.000000000000D+00  5 1 -2 25 -24 21 0 0.91541867D-01 0.41270074D-02 0.11817738D+05 0.11817738D+05 0.11817738D+05 0.12598039D+01  1  2  2  1  5  1        1 0.148706887479D+00 0.100000000000D+01
-.103730756635D-04 0.000000000000D+00 -.737286168488D-06 0.208172158875D-02 0.000000000000D+00  5 1 -2 25 -24 21 2 0.91541867D-01 0.41270074D-02 0.11817738D+05 0.11817738D+05 0.11817738D+05 0.12598039D+01  1  2  3  1  5  1        1 -.127517390418D-01 0.100000000000D+01
0.131773300941D-04 0.000000000000D+00 0.000000000000D+00 0.208172158875D-02 0.000000000000D+00  5 1 -2 25 -24 21 2 0.91541867D-01 0.41270074D-02 0.11817738D+05 0.11817738D+05 0.11817738D+05 0.12598039D+01  1  2 15  1  5  1        1 0.161990406779D-01 0.100000000000D+01
0.107889545389D-02 0.000000000000D+00 0.000000000000D+00 0.208172158875D-02 0.000000000000D+00  5 1 -2 25 -24 21 2 0.10219852D+00 0.41270074D-02 0.12304972D+05 0.12304972D+05 0.12304972D+05 0.12577487D+01  1  2 12  1  5  1        1 0.113846911367D+01 0.100000000000D+01
-.518581838895D-02 0.000000000000D+00 0.000000000000D+00 0.208172158875D-02 0.000000000000D+00  5 1 -2 25 -24 21 2 0.91541867D-01 0.41270074D-02 0.11817738D+05 0.11817738D+05 0.11817738D+05 0.12598039D+01  1  2  4  1  5  1        1 -.637498510174D+01 0.100000000000D+01
-.599772743457D-02 0.000000000000D+00 -.261747205570D-03 0.208172158875D-02 0.000000000000D+00  5 1 -2 25 -24 21 2 0.10221022D+00 0.41270074D-02 0.11817738D+05 0.11817738D+05 0.11817738D+05 0.12598039D+01  1  2  5  1  5  1        1 -.634069064837D+01 0.100000000000D+01
0.599172154079D-02 0.000000000000D+00 0.260164868020D-03 0.208172158875D-02 0.000000000000D+00  5 1 -2 25 -24 21 2 0.91541867D-01 0.41270074D-02 0.11817738D+05 0.11817738D+05 0.11817738D+05 0.12598039D+01  1  2  6  1  5  1        1 0.736569094623D+01 0.100000000000D+01
0.412469025056D-02 0.000000000000D+00 0.000000000000D+00 0.208172158875D-02 0.885107404699D-03  5 1 -2 25 -24 21 2 0.10207587D+00 0.41388742D-02 0.12304972D+05 0.12304972D+05 0.12304972D+05 0.12577487D+01  1  2 11  1  5  1        1 0.434124086230D+01 0.100000000000D+01
0.190348731273D-04 0.000000000000D+00 0.000000000000D+00 0.208172158875D-02 0.000000000000D+00  5 21 -2 25 -24 -1 2 0.10219852D+00 0.41270074D-02 0.12304972D+05 0.12304972D+05 0.12304972D+05 0.12577487D+01  1  2 12  3  5  1        1 0.478664510697D-01 0.100000000000D+01
-.104876232728D-03 0.000000000000D+00 -.462207633965D-05 0.208172158875D-02 0.000000000000D+00  5 21 -2 25 -24 -1 2 0.10221022D+00 0.41270074D-02 0.11817738D+05 0.11817738D+05 0.11817738D+05 0.12598039D+01  1  2  5  3  5  1        1 -.264518897768D+00 0.100000000000D+01
0.729443590656D-04 0.000000000000D+00 0.000000000000D+00 0.208172158875D-02 0.155864418696D-04  5 21 -2 25 -24 -1 2 0.10207587D+00 0.41388742D-02 0.12304972D+05 0.12304972D+05 0.12304972D+05 0.12577487D+01  1  2 11  3  5  1        1 0.183168447315D+00 0.100000000000D+01
  </mgrwgt>
  </event>
  <event>
  4     66 0.47139866E-03 0.14191237E+03 0.75467711E-02 0.11927132E+00
        1 -1    0    0  501    0 0.00000000E+00 0.00000000E+00 0.22183009E+04 0.22183010E+04 0.32000000E+00 0.0000E+00 0.9000E+01
       -2 -1    0    0    0  501 0.00000000E+00 0.00000000E+00 -.10264486E+02 0.10269472E+02 0.32000000E+00 0.0000E+00 0.9000E+01
       25  1    1    2    0    0 -.71911258E+02 0.64668790E+02 0.15919236E+04 0.15997496E+04 0.12500000E+03 0.0000E+00 0.9000E+01
      -24  1    1    2    0    0 0.71911258E+02 -.64668790E+02 0.61611289E+03 0.62882080E+03 0.80419002E+02 0.0000E+00 0.9000E+01
#aMCatNLO 1  0  0  2  2 0.27661801D+02 0.00000000D+00  -5  5  0 0.00000000D+00 0.00000000D+00 0.00000000D+00 0.00000000D+00 0.00000000D+00
  <mgrwgt>
 0.3518053108D+00    3    2    0
 0.150914878233644D+03 0.000000000000000D+00 0.000000000000000D+00 0.150914878233644D+03
 0.150914878233644D+03 0.000000000000000D+00 0.000000000000000D+00 -.150914878233644D+03
 0.166085324237403D+03 -.719112577801139D+02 0.646687901345239D+02 0.510495202138294D+02
 0.135744432229885D+03 0.719112577801139D+02 -.646687901345239D+02 -.510495202138294D+02
 0.000000000000000D+00 -.000000000000000D+00 0.000000000000000D+00 0.000000000000000D+00
 0.302228101008128D+03 0.000000000000000D+00 0.000000000000000D+00 0.302228101008128D+03
 0.152816863870604D+03 0.000000000000000D+00 0.000000000000000D+00 -.152816863870604D+03
 0.159373627773315D+03 -.571984514181249D+02 0.624278533263259D+02 0.510495202138294D+02
 0.143721039191229D+03 0.845448674580109D+02 -.665930403591954D+02 -.510495202138294D+02
 0.151950297914189D+03 -.273464160398860D+02 0.416518703286955D+01 0.149411237137524D+03
0.147068869444D-02 0.000000000000D+00 0.000000000000D+00 0.215059892254D-02 0.000000000000D+00  5 1 -2 25 -24 21 0 0.34127745D+00 0.15795370D-02 0.20139122D+05 0.20139122D+05 0.20139122D+05 0.12334948D+01  1  2  2  2  5  2       -2 0.344500362171D+00 0.100000000000D+01
-.813291183947D-04 0.000000000000D+00 -.564783182786D-05 0.215059892254D-02 0.000000000000D+00  5 1 -2 25 -24 21 2 0.34127745D+00 0.15795370D-02 0.20139122D+05 0.20139122D+05 0.20139122D+05 0.12334948D+01  1  2  3  2  5  2       -2 -.289860878703D-01 0.100000000000D+01
0.101825331517D-03 0.000000000000D+00 0.000000000000D+00 0.215059892254D-02 0.000000000000D+00  5 1 -2 25 -24 21 2 0.34127745D+00 0.15795370D-02 0.20139122D+05 0.20139122D+05 0.20139122D+05 0.12334948D+01  1  2 15  2  5  2       -2 0.362910365319D-01 0.100000000000D+01
  </mgrwgt>
  </event>
  <event>
  4     66 0.47139866E-03 0.11213080E+03 0.75467711E-02 0.12555020E+00
        1 -1    0    0  501    0 0.00000000E+00 0.00000000E+00 0.24492245E+03 0.24492266E+03 0.32000000E+00 0.0000E+00 0.9000E+01
       -2 -1    0    0    0  501 0.00000000E+00 0.00000000E+00 -.95430184E+02 0.95430721E+02 0.32000000E+00 0.0000E+00 0.9000E+01
       25  1    1    2    0    0 -.13810174E+02 0.41873240E+02 0.19670913E+03 0.23719943E+03 0.12500000E+03 0.0000E+00 0.9000E+01
      -24  1    1    2    0    0 0.13810174E+02 -.41873240E+02 -.47216862E+02 0.10315395E+03 0.80419002E+02 0.0000E+00 0.9000E+01
#aMCatNLO 1  0  0  2  2 0.12588240D+01 0.00000000D+00  -5  5  0 0.00000000D+00 0.00000000D+00 0.00000000D+00 0.00000000D+00 0.00000000D+00
  <mgrwgt>
 0.1632968338D+00    6    2    0
 0.152882704356144D+03 0.000000000000000D+00 0.000000000000000D+00 0.152882704356144D+03
 0.152882704356144D+03 0.000000000000000D+00 0.000000000000000D+00 -.152882704356144D+03
 0.167857884322048D+03 -.138101744479623D+02 0.418732398469558D+02 0.102991165618757D+03
 0.137907524390240D+03 0.138101744479623D+02 -.418732398469558D+02 -.102991165618757D+03
 0.000000000000000D+00 -.000000000000000D+00 0.000000000000000D+00 0.000000000000000D+00
 0.154010568378447D+03 0.000000000000000D+00 0.000000000000000D+00 0.154010568378447D+03
 0.153235651503483D+03 0.000000000000000D+00 0.000000000000000D+00 -.153235651503483D+03
 0.167684512993158D+03 -.137788179538628D+02 0.411832475411616D+02 0.102991165618757D+03
 0.138083486972421D+03 0.138359658549158D+02 -.424407737140090D+02 -.102991165618757D+03
 0.147821991635041D+01 -.571479010529772D-01 0.125752617284734D+01 0.774916874964130D+00
0.383764914718D-03 0.000000000000D+00 0.000000000000D+00 0.139349431120D-02 0.000000000000D+00  5 1 -2 25 -24 21 0 0.37680434D-01 0.14681624D-01 0.12573317D+05 0.12573317D+05 0.12573317D+05 0.12566556D+01  1  2  2  2  5  2       -2 0.129239529723D+00 0.100000000000D+01
-.188290569759D-04 0.000000000000D+00 -.147375832014D-05 0.139349431120D-02 0.000000000000D+00  5 1 -2 25 -24 21 2 0.37680434D-01 0.14681624D-01 0.12573317D+05 0.12573317D+05 0.12573317D+05 0.12566556D+01  1  2  3  2  5  2       -2 -.100136218848D-01 0.100000000000D+01
0.263601270271D-04 0.000000000000D+00 0.000000000000D+00 0.139349431120D-02 0.000000000000D+00  5 1 -2 25 -24 21 2 0.37680434D-01 0.14681624D-01 0.12573317D+05 0.12573317D+05 0.12573317D+05 0.12566556D+01  1  2 15  2  5  2       -2 0.140187766824D-01 0.100000000000D+01
-.194987761103D-02 0.000000000000D+00 0.000000000000D+00 0.139349431120D-02 0.000000000000D+00  5 1 -2 25 -24 21 2 0.37680434D-01 0.14681624D-01 0.12573317D+05 0.12573317D+05 0.12573317D+05 0.12566556D+01  1  2  4  2  5  2       -2 -.103697902362D+01 0.100000000000D+01
0.194993122385D-02 0.000000000000D+00 0.000000000000D+00 0.139349431120D-02 0.739968256151D-02  5 1 -2 25 -24 21 2 0.37958415D-01 0.14715518D-01 0.12719913D+05 0.12719913D+05 0.12719913D+05 0.12560694D+01  1  2 11  2  5  2       -2 0.102320831431D+01 0.100000000000D+01
0.562916215963D-05 0.000000000000D+00 0.000000000000D+00 0.139349431120D-02 0.319265888221D-05  5 1 21 25 -24 2 2 0.37958415D-01 0.14715518D-01 0.12719913D+05 0.12719913D+05 0.12719913D+05 0.12560694D+01  1  2 11  4  5  2       -2 0.438228585619D-01 0.100000000000D+01
  </mgrwgt>
  </event>
  <event>
  4     66 0.47139866E-03 0.15950160E+03 0.75467711E-02 0.11188770E+00
        1 -1    0    0  501    0 0.00000000E+00 0.00000000E+00 0.21371502E+03 0.21371526E+03 0.32000000E+00 0.0000E+00 0.9000E+01
       -2 -1    0    0    0  501 0.00000000E+00 0.00000000E+00 -.11939705E+03 0.11939747E+03 0.32000000E+00 0.0000E+00 0.9000E+01
       25  1    1    2    0    0 0.11005098E+03 0.49894535E+02 0.42319830E+02 0.17893197E+03 0.12500000E+03 0.0000E+00 0.9000E+01
      -24  1    1    2    0    0 -.11005098E+03 -.49894535E+02 0.51998145E+02 0.15418076E+03 0.80419002E+02 0.0000E+00 0.9000E+01
#aMCatNLO 1  0  0  1  2 0.13600365D+03 0.00000000D+00  -5  5  0 0.00000000D+00 0.00000000D+00 0.00000000D+00 0.00000000D+00 0.00000000D+00
  <mgrwgt>
 0.2756229888D+00    3    2    0
 0.159740581302364D+03 0.000000000000000D+00 0.000000000000000D+00 0.159740581302364D+03
 0.159740581302364D+03 0.000000000000000D+00 0.000000000000000D+00 -.159740581302364D+03
 0.174072856750102D+03 0.110050983488205D+03 0.498945347079813D+02 -.869918942743650D+01
 0.145408305854625D+03 -.110050983488205D+03 -.498945347079813D+02 0.869918942743650D+01
 0.000000000000000D+00 -.000000000000000D+00 0.000000000000000D+00 -.000000000000000D+00
 0.193211959916058D+03 0.000000000000000D+00 0.000000000000000D+00 0.193211959916058D+03
 0.409550112166329D+03 0.000000000000000D+00 0.000000000000000D+00 -.409550112166329D+03
 0.219552925390327D+03 0.179983155456899D+03 0.104343137068870D+02 -.869918942743650D+01
 0.127672084334609D+03 -.615350943506934D+02 -.772703140315215D+02 0.869918942743650D+01
 0.255537062357451D+03 -.118448061106206D+03 0.668360003246345D+02 -.216338152250271D+03
0.963237855805D-03 0.000000000000D+00 0.000000000000D+00 0.233298699839D-02 0.000000000000D+00  5 1 -2 25 -24 21 0 0.32879285D-01 0.18368828D-01 0.25440761D+05 0.25440761D+05 0.25440761D+05 0.12224847D+01  1  2  2  1  5  1        1 0.270112447180D+00 0.100000000000D+01
-.535130683708D-04 0.000000000000D+00 -.369908699264D-05 0.233298699839D-02 0.000000000000D+00  5 1 -2 25 -24 21 2 0.32879285D-01 0.18368828D-01 0.25440761D+05 0.25440761D+05 0.25440761D+05 0.12224847D+01  1  2  3  1  5  1        1 -.224263085167D-01 0.100000000000D+01
0.666621779946D-04 0.000000000000D+00 0.000000000000D+00 0.233298699839D-02 0.000000000000D+00  5 1 -2 25 -24 21 2 0.32879285D-01 0.18368828D-01 0.25440761D+05 0.25440761D+05 0.25440761D+05 0.12224847D+01  1  2 15  1  5  1        1 0.279368501119D-01 0.100000000000D+01
  </mgrwgt>
  </event>
  <event>
  4     66 0.47139866E-03 0.17826756E+03 0.75467711E-02 0.10539909E+00
        1 -1    0    0  501    0 0.00000000E+00 0.00000000E+00 0.11930800E+04 0.11930801E+04 0.32000000E+00 0.0000E+00 0.9000E+01
       -2 -1    0    0    0  501 0.00000000E+00 0.00000000E+00 -.29321764E+02 0.29323510E+02 0.32000000E+00 0.0000E+00 0.9000E+01
       25  1    1    2    0    0 -.14015315E+03 -.35429474E+02 0.43539984E+03 0.47549571E+03 0.12500000E+03 0.0000E+00 0.9000E+01
      -24  1    1    2    0    0 0.14015315E+03 0.35429474E+02 0.72835843E+03 0.74690787E+03 0.80419002E+02 0.0000E+00 0.9000E+01
#aMCatNLO 1  0  0  2  1 0.29028489D+03 0.00000000D+00  -5  5  0 0.00000000D+00 0.00000000D+00 0.00000000D+00 0.00000000D+00 0.00000000D+00
  <mgrwgt>
 0.2575235979D+00    5    2    0
 0.187040916301299D+03 0.000000000000000D+00 0.000000000000000D+00 0.187040916301299D+03
 0.187040916301299D+03 0.000000000000000D+00 0.000000000000000D+00 -.187040916301299D+03
 0.199281264866099D+03 -.140153148353219D+03 -.354294743472642D+02 -.564789330705658D+02
 0.174800567736500D+03 0.140153148353219D+03 0.354294743472642D+02 0.564789330705658D+02
 0.000000000000000D+00 0.000000000000000D+00 0.000000000000000D+00 -.000000000000000D+00
 0.332524586198303D+03 0.000000000000000D+00 0.000000000000000D+00 0.332524586198303D+03
 0.456707905311100D+03 0.000000000000000D+00 0.000000000000000D+00 -.456707905311100D+03
 0.364022565271865D+03 -.330515627707438D+03 -.667606020604775D+02 -.564789330705658D+02
 0.109477736877495D+03 0.440843485375309D+02 0.196178299176935D+02 0.564789330705658D+02
 0.315732189360044D+03 0.286431279169908D+03 0.471427721427840D+02 -.124183319112797D+03
0.930159747491D-03 0.000000000000D+00 0.000000000000D+00 0.201632927801D-02 0.000000000000D+00  5 1 -2 25 -24 21 0 0.18355091D+00 0.45111782D-02 0.31779324D+05 0.31779324D+05 0.31779324D+05 0.12122808D+01  1  2  2  2  5  2       -2 0.215894142656D+00 0.100000000000D+01
-.515305291073D-04 0.000000000000D+00 -.357205834705D-05 0.201632927801D-02 0.000000000000D+00  5 1 -2 25 -24 21 2 0.18355091D+00 0.45111782D-02 0.31779324D+05 0.31779324D+05 0.31779324D+05 0.12122808D+01  1  2  3  2  5  2       -2 -.175773906021D-01 0.100000000000D+01
0.640895297167D-04 0.000000000000D+00 0.000000000000D+00 0.201632927801D-02 0.000000000000D+00  5 1 -2 25 -24 21 2 0.18355091D+00 0.45111782D-02 0.31779324D+05 0.31779324D+05 0.31779324D+05 0.12122808D+01  1  2 15  2  5  2       -2 0.218613454364D-01 0.100000000000D+01
0.363742845572D-03 0.000000000000D+00 -.339689509193D-03 0.201632927801D-02 0.000000000000D+00  5 1 -2 25 -24 21 2 0.18355091D+00 0.20719303D-01 0.31779324D+05 0.31779324D+05 0.31779324D+05 0.12122808D+01  1  2  5  2  5  2       -2 0.110394920870D-01 0.100000000000D+01
0.629302260954D-04 0.000000000000D+00 -.627299886659D-04 0.201632927801D-02 0.000000000000D+00  5 1 21 25 -24 2 2 0.18355091D+00 0.20719303D-01 0.31779324D+05 0.31779324D+05 0.31779324D+05 0.12122808D+01  1  2  5  4  5  2       -2 0.263060083537D-01 0.100000000000D+01
  </mgrwgt>
  </event>
  <event>
  5     66 0.47139866E-03 0.10637349E+03 0.75467711E-02 0.12354521E+00
        1 -1    0    0  502    0 0.00000000E+00 0.00000000E+00 0.19957061E+03 0.19957087E+03 0.32000000E+00 0.0000E+00 0.9000E+01
       -2 -1    0    0    0  501 0.00000000E+00 0.00000000E+00 -.11938862E+03 0.11938904E+03 0.32000000E+00 0.0000E+00 0.9000E+01
       25  1    1    2    0    0 0.14959124E+02 0.37238780E+01 0.62014437E+02 0.14038673E+03 0.12500000E+03 0.0000E+00 0.9000E+01
      -24  1    1    2    0    0 -.13555800E+02 -.37497500E+02 -.49807207E+02 0.10265377E+03 0.80419002E+02 0.0000E+00 0.9000E+01
       21  1    1    2  502  501 -.14033242E+01 0.33773622E+02 0.67974768E+02 0.75919421E+02 0.75000000E+00 0.0000E+00 0.9000E+01
#aMCatNLO 2  0  0  1  2 0.33802764D+02 0.00000000D+00  -5  5  0 0.00000000D+00 0.00000000D+00 0.00000000D+00 0.00000000D+00 0.00000000D+00
  <mgrwgt>
 0.2508553191D-01    2    2    0
 0.120184273802834D+03 0.000000000000000D+00 0.000000000000000D+00 0.120184273802834D+03
 0.120184273802834D+03 0.000000000000000D+00 0.000000000000000D+00 -.120184273802834D+03
 0.139233737921270D+03 0.141554217809921D+02 0.230664828232442D+02 0.550326737483849D+02
 0.101134809684399D+03 -.141554217809921D+02 -.230664828232442D+02 -.550326737483849D+02
 0.000000000000000D+00 -.000000000000000D+00 0.000000000000000D+00 0.000000000000000D+00
 0.189783777727647D+03 0.000000000000000D+00 0.000000000000000D+00 0.189783777727647D+03
 0.125542102320457D+03 0.000000000000000D+00 0.000000000000000D+00 -.125542102320457D+03
 0.137445399515553D+03 0.149591243276287D+02 0.372387801147896D+01 0.550326737483849D+02
 0.105288334270735D+03 -.135558001108568D+02 -.374974996845642D+02 -.550326737483849D+02
 0.725921462618152D+02 -.140332421677188D+01 0.337736216730852D+02 0.642416754071895D+02
-.789194184615D-03 0.000000000000D+00 0.000000000000D+00 0.227551600793D-02 0.000000000000D+00  5 1 -2 25 -24 21 2 0.30927869D-01 0.17583387D-01 0.15563904D+05 0.15563904D+05 0.15563904D+05 0.12459995D+01  1  2 13  1  5  1        1 -.393888601526D+00 0.100000000000D+01
0.894555072896D-03 0.000000000000D+00 0.000000000000D+00 0.227551600793D-02 0.181592106709D-04  5 1 -2 25 -24 21 2 0.30702764D-01 0.18367257D-01 0.15563904D+05 0.15563904D+05 0.15563904D+05 0.12459995D+01  1  2  1  1  5  1        1 0.418974133433D+00 0.100000000000D+01
  </mgrwgt>
  </event>
  <event>
  4     66 0.47139866E-03 0.72684604E+02 0.75467711E-02 0.11717196E+00
        1 -1    0    0  501    0 0.00000000E+00 0.00000000E+00 0.11183380E+03 0.11183426E+03 0.32000000E+00 0.0000E+00 0.9000E+01
       -2 -1    0    0    0  501 0.00000000E+00 0.00000000E+00 -.29576018E+03 0.29576035E+03 0.32000000E+00 0.0000E+00 0.9000E+01
       25  1    1    2    0    0 0.74937901E+02 0.75201862E+02 0.18756577E+02 0.16506913E+03 0.12500000E+03 0.0000E+00 0.9000E+01
      -24  1    1    2    0    0 -.74937901E+02 -.75201862E+02 -.20268296E+03 0.24252548E+03 0.80419002E+02 0.0000E+00 0.9000E+01
#aMCatNLO 1  0  0  2  1 0.50177965D+02 0.00000000D+00  -5  5  0 0.00000000D+00 0.00000000D+00 0.00000000D+00 0.00000000D+00 0.00000000D+00
  <mgrwgt>
 0.1399762185D+00    9    2    0
 0.181868393883472D+03 0.000000000000000D+00 0.000000000000000D+00 0.181868393883472D+03
 0.181868393883472D+03 0.000000000000000D+00 0.000000000000000D+00 -.181868393883472D+03
 0.194456870432478D+03 0.749379005503430D+02 0.752018622124763D+02 0.104486675893513D+03
 0.169279917334467D+03 -.749379005503430D+02 -.752018622124763D+02 -.104486675893513D+03
 0.000000000000000D+00 -.000000000000000D+00 0.000000000000000D+00 -.000000000000000D+00
 0.188428141767413D+03 0.000000000000000D+00 0.000000000000000D+00 0.188428141767413D+03
 0.313714455481849D+03 0.000000000000000D+00 0.000000000000000D+00 -.313714455481849D+03
 0.188246381081398D+03 0.802871386230094D+02 0.494793888674541D+02 0.104486675893513D+03
 0.178935152972014D+03 -.700707213346157D+02 -.986062958797159D+02 -.104486675893513D+03
 0.134961063195850D+03 -.102164172883937D+02 0.491269070122618D+02 -.125286313714436D+03
0.115296519811D-02 0.000000000000D+00 0.000000000000D+00 0.153436758198D-02 0.000000000000D+00  5 1 -2 25 -24 21 0 0.17205248D-01 0.45501615D-01 0.22079724D+05 0.22079724D+05 0.22079724D+05 0.12291240D+01  1  2  2  2  5  2       -2 0.143011658708D+00 0.100000000000D+01
-.608734265193D-04 0.000000000000D+00 -.442768994347D-05 0.153436758198D-02 0.000000000000D+00  5 1 -2 25 -24 21 2 0.17205248D-01 0.45501615D-01 0.22079724D+05 0.22079724D+05 0.22079724D+05 0.12291240D+01  1  2  3  2  5  2       -2 -.114070770720D-01 0.100000000000D+01
0.793815388141D-04 0.000000000000D+00 0.000000000000D+00 0.153436758198D-02 0.000000000000D+00  5 1 -2 25 -24 21 2 0.17205248D-01 0.45501615D-01 0.22079724D+05 0.22079724D+05 0.22079724D+05 0.12291240D+01  1  2 15  2  5  2       -2 0.148753139608D-01 0.100000000000D+01
0.271616943211D-02 0.000000000000D+00 0.000000000000D+00 0.153436758198D-02 0.000000000000D+00  5 1 -2 25 -24 21 2 0.17205248D-01 0.78781982D-01 0.30980164D+05 0.30980164D+05 0.30980164D+05 0.12134357D+01  1  2 12  2  5  2       -2 0.160600230475D+00 0.100000000000D+01
-.273428377202D-02 0.000000000000D+00 0.000000000000D+00 0.153436758198D-02 0.000000000000D+00  5 1 -2 25 -24 21 2 0.17205248D-01 0.45501615D-01 0.22079724D+05 0.22079724D+05 0.22079724D+05 0.12291240D+01  1  2  4  2  5  2       -2 -.512377691015D+00 0.100000000000D+01
-.299941161038D-02 0.000000000000D+00 -.354470582828D-03 0.153436758198D-02 0.000000000000D+00  5 1 -2 25 -24 21 2 0.17205248D-01 0.79939739D-01 0.22079724D+05 0.22079724D+05 0.22079724D+05 0.12291240D+01  1  2  5  2  5  2       -2 -.175814527002D+00 0.100000000000D+01
0.279344559154D-02 0.000000000000D+00 0.304782771885D-03 0.153436758198D-02 0.000000000000D+00  5 1 -2 25 -24 21 2 0.17205248D-01 0.45501615D-01 0.22079724D+05 0.22079724D+05 0.22079724D+05 0.12291240D+01  1  2  6  2  5  2       -2 0.523464029892D+00 0.100000000000D+01
0.165206692072D-03 0.000000000000D+00 0.000000000000D+00 0.153436758198D-02 0.000000000000D+00  5 1 21 25 -24 2 2 0.17205248D-01 0.78781982D-01 0.30980164D+05 0.30980164D+05 0.30980164D+05 0.12134357D+01  1  2 12  4  5  2       -2 0.116100597145D+00 0.100000000000D+01
-.168374005956D-03 0.000000000000D+00 -.220401311282D-04 0.153436758198D-02 0.000000000000D+00  5 1 21 25 -24 2 2 0.17205248D-01 0.79939739D-01 0.22079724D+05 0.22079724D+05 0.22079724D+05 0.12291240D+01  1  2  5  4  5  2       -2 -.118476316608D+00 0.100000000000D+01
  </mgrwgt>
  </event>
  <event>
  5     66 0.47139866E-03 0.14058254E+03 0.75467711E-02 0.11336220E+00
       21 -1    0    0  501  502 0.00000000E+00 0.00000000E+00 0.13018319E+03 0.13018535E+03 0.75000000E+00 0.0000E+00 0.9000E+01
       -2 -1    0    0    0  501 0.00000000E+00 0.00000000E+00 -.37517762E+03 0.37517776E+03 0.32000000E+00 0.0000E+00 0.9000E+01
       25  1    1    2    0    0 0.80718518E+02 -.10661145E+03 -.10946734E+03 0.21328286E+03 0.12500000E+03 0.0000E+00 0.9000E+01
      -24  1    1    2    0    0 0.48245708E+02 0.85629625E+02 -.80137974E+02 0.15016455E+03 0.80419002E+02 0.0000E+00 0.9000E+01
       -1  1    1    2    0  502 -.12896423E+03 0.20981821E+02 -.55389113E+02 0.14191570E+03 0.32000000E+00 0.0000E+00 0.9000E+01
#aMCatNLO 2  0  0  1  2 0.13065990D+03 0.00000000D+00  -5  5  0 0.00000000D+00 0.00000000D+00 0.00000000D+00 0.00000000D+00 0.00000000D+00
  <mgrwgt>
 0.2863622040D-01    1    2    0
 0.140598573172212D+03 0.000000000000000D+00 0.000000000000000D+00 0.140598573172212D+03
 0.140598573172212D+03 0.000000000000000D+00 0.000000000000000D+00 -.140598573172212D+03
 0.156882138216667D+03 0.657215308954465D+01 -.945482108249171D+02 0.210901043338960D+01
 0.124315008127756D+03 -.657215308954465D+01 0.945482108249171D+02 -.210901043338960D+01
 0.000000000000000D+00 -.000000000000000D+00 0.000000000000000D+00 0.000000000000000D+00
 0.232201036685803D+03 0.000000000000000D+00 0.000000000000000D+00 0.232201036685803D+03
 0.210344941727479D+03 0.000000000000000D+00 0.000000000000000D+00 -.210344941727479D+03
 0.183059901206270D+03 0.807185182213327D+02 -.106611445543119D+03 0.210901043338960D+01
 0.127010806270475D+03 0.482457083113240D+02 0.856296248948692D+02 -.210901043338960D+01
 0.132475270936538D+03 -.128964226532657D+03 0.209818206482502D+02 0.218560949583241D+02
0.376130741910D-04 0.000000000000D+00 0.000000000000D+00 0.249420998864D-02 0.135084415561D-06  5 21 -2 25 -24 -1 2 0.20028342D-01 0.57719759D-01 0.48554330D+05 0.48554330D+05 0.48554330D+05 0.11935457D+01  1  2  1  3  5  1        1 0.286362203994D-01 0.100000000000D+01
  </mgrwgt>
  </event>
  <event>
  4     66 0.47139866E-03 0.11056690E+03 0.75467711E-02 0.12560979E+00
        1 -1    0    0  501    0 0.00000000E+00 0.00000000E+00 0.83235194E+03 0.83235200E+03 0.32000000E+00 0.0000E+00 0.9000E+01
       -2 -1    0    0    0  501 0.00000000E+00 0.00000000E+00 -.16959589E+02 0.16962608E+02 0.32000000E+00 0.0000E+00 0.9000E+01
       25  1    1    2    0    0 0.35002066E+02 0.19558682E+02 0.32070607E+03 0.34653293E+03 0.12500000E+03 0.0000E+00 0.9000E+01
      -24  1    1    2    0    0 -.35002066E+02 -.19558682E+02 0.49468628E+03 0.50278168E+03 0.80419002E+02 0.0000E+00 0.9000E+01
#aMCatNLO 1  0  0  2  1 0.37033443D+01 0.00000000D+00  -5  5  0 0.00000000D+00 0.00000000D+00 0.00000000D+00 0.00000000D+00 0.00000000D+00
  <mgrwgt>
 0.2946192782D+00    6    2    0
 0.118817737626466D+03 0.000000000000000D+00 0.000000000000000D+00 0.118817737626466D+03
 0.118817737626466D+03 0.000000000000000D+00 0.000000000000000D+00 -.118817737626466D+03
 0.138086291776225D+03 0.350020658628624D+02 0.195586824384954D+02 -.428385025778280D+02
 0.995491834767075D+02 -.350020658628624D+02 -.195586824384954D+02 0.428385025778280D+02
 0.000000000000000D+00 0.000000000000000D+00 0.000000000000000D+00 0.000000000000000D+00
 0.122490374940760D+03 0.000000000000000D+00 0.000000000000000D+00 0.122490374940760D+03
 0.119769424029943D+03 0.000000000000000D+00 0.000000000000000D+00 -.119769424029943D+03
 0.137502529315681D+03 0.329111309820757D+02 0.190700215673638D+02 -.428385025778280D+02
 0.100161800902143D+03 -.365173038963192D+02 -.199128003711984D+02 0.428385025778280D+02
 0.459546875287971D+01 0.360617291424352D+01 0.842778803834593D+00 0.272095091081727D+01
0.242892494787D-03 0.000000000000D+00 0.000000000000D+00 0.249176702334D-02 0.000000000000D+00  5 1 -2 25 -24 21 0 0.12805438D+00 0.26094045D-02 0.12225038D+05 0.12225038D+05 0.12225038D+05 0.12580795D+01  1  2  2  2  5  2       -2 0.228704570937D+00 0.100000000000D+01
-.134090457029D-04 0.000000000000D+00 -.932771135043D-06 0.249176702334D-02 0.000000000000D+00  5 1 -2 25 -24 21 2 0.12805438D+00 0.26094045D-02 0.12225038D+05 0.12225038D+05 0.12225038D+05 0.12580795D+01  1  2  3  2  5  2       -2 -.199836498793D-01 0.100000000000D+01
0.168022882362D-04 0.000000000000D+00 0.000000000000D+00 0.249176702334D-02 0.000000000000D+00  5 1 -2 25 -24 21 2 0.12805438D+00 0.26094045D-02 0.12225038D+05 0.12225038D+05 0.12225038D+05 0.12580795D+01  1  2 15  2  5  2       -2 0.250406369493D-01 0.100000000000D+01
-.249734448735D-03 0.000000000000D+00 0.000000000000D+00 0.249176702334D-02 0.000000000000D+00  5 1 -2 25 -24 21 2 0.12805438D+00 0.26094045D-02 0.12225038D+05 0.12225038D+05 0.12225038D+05 0.12580795D+01  1  2  4  2  5  2       -2 -.372182025244D+00 0.100000000000D+01
0.245474623686D-03 0.000000000000D+00 0.000000000000D+00 0.249176702334D-02 0.153039456458D-02  5 1 -2 25 -24 21 2 0.13201252D+00 0.26303048D-02 0.12645130D+05 0.12645130D+05 0.12645130D+05 0.12563675D+01  1  2 11  2  5  2       -2 0.344564416463D+00 0.100000000000D+01
0.312975072531D-05 0.000000000000D+00 0.000000000000D+00 0.249176702334D-02 0.230762283523D-05  5 1 21 25 -24 2 2 0.13201252D+00 0.26303048D-02 0.12645130D+05 0.12645130D+05 0.12645130D+05 0.12563675D+01  1  2 11  4  5  2       -2 0.884753289611D-01 0.100000000000D+01
  </mgrwgt>
  </event>
  <event>
  4     66 0.47139866E-03 0.13276923E+03 0.75467711E-02 0.11694990E+00
        1 -1    0    0  501    0 0.00000000E+00 0.00000000E+00 0.18640159E+04 0.18640159E+04 0.32000000E+00 0.0000E+00 0.9000E+01
       -2 -1    0    0    0  501 0.00000000E+00 0.00000000E+00 -.98271016E+01 0.98323103E+01 0.32000000E+00 0.0000E+00 0.9000E+01
       25  1    1    2    0    0 0.66342548E+02 0.49775242E+02 0.12239375E+04 0.12330965E+04 0.12500000E+03 0.0000E+00 0.9000E+01
      -24  1    1    2    0    0 -.66342548E+02 -.49775242E+02 0.63025128E+03 0.64075174E+03 0.80419002E+02 0.0000E+00 0.9000E+01
#aMCatNLO 1  0  0  2  1 0.79308863D+02 0.00000000D+00  -5  5  0 0.00000000D+00 0.00000000D+00 0.00000000D+00 0.00000000D+00 0.00000000D+00
  <mgrwgt>
 0.2499030270D+00    4    2    0
 0.135361662156874D+03 0.000000000000000D+00 0.000000000000000D+00 0.135361662156874D+03
 0.135361662156874D+03 0.000000000000000D+00 0.000000000000000D+00 -.135361662156874D+03
 0.152275210460928D+03 0.663425480380448D+02 0.497752422607478D+02 0.261501682331782D+02
 0.118448113852819D+03 -.663425480380448D+02 -.497752422607478D+02 -.261501682331782D+02
 0.000000000000000D+00 0.000000000000000D+00 -.000000000000000D+00 0.000000000000000D+00
 0.229558958515679D+03 0.000000000000000D+00 0.000000000000000D+00 0.229558958515679D+03
 0.158816911293061D+03 0.000000000000000D+00 0.000000000000000D+00 -.158816911293061D+03
 0.143817901060444D+03 0.253945584723295D+02 0.610726924803831D+02 0.261501682331782D+02
 0.138283169533674D+03 -.101847021138710D+03 -.399796449265875D+02 -.261501682331782D+02
 0.106274799214621D+03 0.764524626663806D+02 -.210930475537957D+02 0.707420472226180D+02
0.659439715048D-03 0.000000000000D+00 0.000000000000D+00 0.246719673265D-02 0.000000000000D+00  5 1 -2 25 -24 21 0 0.28677208D+00 0.15122646D-02 0.17627668D+05 0.17627668D+05 0.17627668D+05 0.12399090D+01  1  2  2  2  5  2       -2 0.276348696737D+00 0.100000000000D+01
-.366188828660D-04 0.000000000000D+00 -.253242214025D-05 0.246719673265D-02 0.000000000000D+00  5 1 -2 25 -24 21 2 0.28677208D+00 0.15122646D-02 0.17627668D+05 0.17627668D+05 0.17627668D+05 0.12399090D+01  1  2  3  2  5  2       -2 -.235921230488D-01 0.100000000000D+01
0.456681768558D-04 0.000000000000D+00 0.000000000000D+00 0.246719673265D-02 0.000000000000D+00  5 1 -2 25 -24 21 2 0.28677208D+00 0.15122646D-02 0.17627668D+05 0.17627668D+05 0.17627668D+05 0.12399090D+01  1  2 15  2  5  2       -2 0.294222314683D-01 0.100000000000D+01
-.500973539152D-04 0.000000000000D+00 0.000000000000D+00 0.246719673265D-02 0.000000000000D+00  5 1 -2 25 -24 21 2 0.28677208D+00 0.15122646D-02 0.17627668D+05 0.17627668D+05 0.17627668D+05 0.12399090D+01  1  2  4  2  5  2       -2 -.322757781091D-01 0.100000000000D+01
  </mgrwgt>
  </event>
  <event>
  4     66 0.47139866E-03 0.10795762E+03 0.75467711E-02 0.11403755E+00
        1 -1    0    0  501    0 0.00000000E+00 0.00000000E+00 0.20317651E+03 0.20317676E+03 0.32000000E+00 0.0000E+00 0.9000E+01
       -2 -1    0    0    0  501 0.00000000E+00 0.00000000E+00 -.69427492E+02 0.69428230E+02 0.32000000E+00 0.0000E+00 0.9000E+01
       25  1    1    2    0    0 -.28182240E+02 -.16255275E+02 0.13363498E+03 0.18585419E+03 0.12500000E+03 0.0000E+00 0.9000E+01
      -24  1    1    2    0    0 0.28182240E+02 0.16255275E+02 0.11403940E+00 0.86750802E+02 0.80419002E+02 0.0000E+00 0.9000E+01
#aMCatNLO 1  0  0  2  1 0.15746102D+03 0.00000000D+00  -5  5  0 0.00000000D+00 0.00000000D+00 0.00000000D+00 0.00000000D+00 0.00000000D+00
  <mgrwgt>
 0.1999605513D+00    5    2    0
 0.118769400647741D+03 0.000000000000000D+00 0.000000000000000D+00 0.118769400647741D+03
 0.118769400647741D+03 0.000000000000000D+00 0.000000000000000D+00 -.118769400647741D+03
 0.138045796747421D+03 -.281822404934359D+02 -.162552754002931D+02 0.487151859491569D+02
 0.994930045480621D+02 0.281822404934359D+02 0.162552754002931D+02 -.487151859491569D+02
 0.000000000000000D+00 0.000000000000000D+00 0.000000000000000D+00 -.000000000000000D+00
 0.189003537426796D+03 0.000000000000000D+00 0.000000000000000D+00 0.189003537426796D+03
 0.275769261668456D+03 0.000000000000000D+00 0.000000000000000D+00 -.275769261668456D+03
 0.187042504956165D+03 -.118143036835930D+03 -.550359170487784D+02 0.487151859491569D+02
 0.979463611223115D+02 -.264546150070085D+02 -.729778771284374D+01 -.487151859491569D+02
 0.179783933016776D+03 0.144597651842939D+03 0.623337047616222D+02 -.867657242416595D+02
0.252035844267D-03 0.000000000000D+00 0.000000000000D+00 0.240011752089D-02 0.000000000000D+00  5 1 -2 25 -24 21 0 0.31258001D-01 0.10681229D-01 0.11654848D+05 0.11654848D+05 0.11654848D+05 0.12605123D+01  1  2  2  2  5  2       -2 0.177022081047D+00 0.100000000000D+01
-.138469034085D-04 0.000000000000D+00 -.967884004547D-06 0.240011752089D-02 0.000000000000D+00  5 1 -2 25 -24 21 2 0.31258001D-01 0.10681229D-01 0.11654848D+05 0.11654848D+05 0.11654848D+05 0.12605123D+01  1  2  3  2  5  2       -2 -.154529697196D-01 0.100000000000D+01
0.173213044615D-04 0.000000000000D+00 0.000000000000D+00 0.240011752089D-02 0.000000000000D+00  5 1 -2 25 -24 21 2 0.31258001D-01 0.10681229D-01 0.11654848D+05 0.11654848D+05 0.11654848D+05 0.12605123D+01  1  2 15  2  5  2       -2 0.193303575140D-01 0.100000000000D+01
0.410335364522D-04 0.000000000000D+00 -.798251302072D-04 0.240011752089D-02 0.000000000000D+00  5 1 -2 25 -24 21 2 0.31258001D-01 0.38411754D-01 0.11654848D+05 0.11654848D+05 0.11654848D+05 0.12605123D+01  1  2  5  2  5  2       -2 0.521667979182D-02 0.100000000000D+01
0.841718595003D-05 0.000000000000D+00 -.120056512837D-04 0.240011752089D-02 0.000000000000D+00  5 1 21 25 -24 2 2 0.31258001D-01 0.38411754D-01 0.11654848D+05 0.11654848D+05 0.11654848D+05 0.12605123D+01  1  2  5  4  5  2       -2 0.138444026428D-01 0.100000000000D+01
  </mgrwgt>
  </event>
  <event>
  4     66 0.47139866E-03 0.17937232E+03 0.75467711E-02 0.10875461E+00
        1 -1    0    0  501    0 0.00000000E+00 0.00000000E+00 0.11728905E+04 0.11728906E+04 0.32000000E+00 0.0000E+00 0.9000E+01
       -2 -1    0    0    0  501 0.00000000E+00 0.00000000E+00 -.27574657E+02 0.27576513E+02 0.32000000E+00 0.0000E+00 0.9000E+01
       25  1    1    2    0    0 0.95039088E+02 0.11071948E+03 0.65644297E+03 0.68398362E+03 0.12500000E+03 0.0000E+00 0.9000E+01
      -24  1    1    2    0    0 -.95039088E+02 -.11071948E+03 0.48887289E+03 0.51648345E+03 0.80419002E+02 0.0000E+00 0.9000E+01
#aMCatNLO 1  0  0  2  1 0.18658131D+03 0.00000000D+00  -5  5  0 0.00000000D+00 0.00000000D+00 0.00000000D+00 0.00000000D+00 0.00000000D+00
  <mgrwgt>
 0.2235824063D+00    3    2    0
 0.179842136055936D+03 0.000000000000000D+00 0.000000000000000D+00 0.179842136055936D+03
 0.179842136055936D+03 0.000000000000000D+00 0.000000000000000D+00 -.179842136055936D+03
 0.192572445323923D+03 0.950390880023644D+02 0.110719476952642D+03 0.129582357227945D+02
 0.167111826787950D+03 -.950390880023644D+02 -.110719476952642D+03 -.129582357227945D+02
 0.000000000000000D+00 0.000000000000000D+00 0.000000000000000D+00 0.000000000000000D+00
 0.325532233670375D+03 0.000000000000000D+00 0.000000000000000D+00 0.325532233670375D+03
 0.273394663246730D+03 0.000000000000000D+00 0.000000000000000D+00 -.273394663246730D+03
 0.141534032572492D+03 0.367904878559349D+02 0.537161661560662D+02 0.129582357227945D+02
 0.263663897011306D+03 -.170141142432303D+03 -.184215934195719D+03 -.129582357227945D+02
 0.193728967333307D+03 0.133350654576368D+03 0.130499768039652D+03 0.521375704236458D+02
0.833921358241D-03 0.000000000000D+00 0.000000000000D+00 0.222388314558D-02 0.000000000000D+00  5 1 -2 25 -24 21 0 0.18044484D+00 0.42424011D-02 0.32174428D+05 0.32174428D+05 0.32174428D+05 0.12117218D+01  1  2  2  2  5  2       -2 0.219250461119D+00 0.100000000000D+01
-.463285789136D-04 0.000000000000D+00 -.320247759218D-05 0.222388314558D-02 0.000000000000D+00  5 1 -2 25 -24 21 2 0.18044484D+00 0.42424011D-02 0.32174428D+05 0.32174428D+05 0.32174428D+05 0.12117218D+01  1  2  3  2  5  2       -2 -.178842291945D-01 0.100000000000D+01
0.575503578073D-04 0.000000000000D+00 0.000000000000D+00 0.222388314558D-02 0.000000000000D+00  5 1 -2 25 -24 21 2 0.18044484D+00 0.42424011D-02 0.32174428D+05 0.32174428D+05 0.32174428D+05 0.12117218D+01  1  2 15  2  5  2       -2 0.222161744087D-01 0.100000000000D+01
  </mgrwgt>
  </event>
  <event>
  4     66 0.47139866E-03 0.13160593E+03 0.75467711E-02 0.11278543E+00
        1 -1    0    0  501    0 0.00000000E+00 0.00000000E+00 0.35457271E+04 0.35457271E+04 0.32000000E+00 0.0000E+00 0.9000E+01
       -2 -1    0    0    0  501 0.00000000E+00 0.00000000E+00 -.48804389E+01 0.48909185E+01 0.32000000E+00 0.0000E+00 0.9000E+01
       25  1    1    2    0    0 0.81064482E+02 -.22783071E+01 0.19804311E+04 0.19860285E+04 0.12500000E+03 0.0000E+00 0.9000E+01
      -24  1    1    2    0    0 -.81064482E+02 0.22783071E+01 0.15604156E+04 0.15645896E+04 0.80419002E+02 0.0000E+00 0.9000E+01
#aMCatNLO 1  0  0  2  1 0.15241294D+03 0.00000000D+00  -5  5  0 0.00000000D+00 0.00000000D+00 0.00000000D+00 0.00000000D+00 0.00000000D+00
  <mgrwgt>
 0.1536996354D+00    5    2    0
 0.131618139740801D+03 0.000000000000000D+00 0.000000000000000D+00 0.131618139740801D+03
 0.131618139740801D+03 0.000000000000000D+00 0.000000000000000D+00 -.131618139740801D+03
 0.149012748234099D+03 0.810644817176450D+02 -.227830709281708D+01 -.177714853606951D+01
 0.114223531247503D+03 -.810644817176450D+02 0.227830709281708D+01 0.177714853606951D+01
 0.000000000000000D+00 -.000000000000000D+00 -.000000000000000D+00 -.000000000000000D+00
 0.181847359982619D+03 0.000000000000000D+00 0.000000000000000D+00 0.181847359982619D+03
 0.347234231134943D+03 0.000000000000000D+00 0.000000000000000D+00 -.347234231134943D+03
 0.204184743790088D+03 0.147639813043349D+03 0.653126093815707D+02 -.177714853606951D+01
 0.999912634164569D+02 -.406864460529857D+02 0.432722966331458D+02 0.177714853606951D+01
 0.224905583911017D+03 -.106953366990363D+03 -.108584906014717D+03 -.165386871152324D+03
0.167192852961D-02 0.000000000000D+00 0.000000000000D+00 0.259866425712D-02 0.000000000000D+00  5 1 -2 25 -24 21 0 0.54549729D+00 0.75164399D-03 0.17320120D+05 0.17320120D+05 0.17320120D+05 0.12407643D+01  1  2  2  2  5  2       -2 0.140839791537D+00 0.100000000000D+01
-.928849173392D-04 0.000000000000D+00 -.642064578258D-05 0.259866425712D-02 0.000000000000D+00  5 1 -2 25 -24 21 2 0.54549729D+00 0.75164399D-03 0.17320120D+05 0.17320120D+05 0.17320120D+05 0.12407643D+01  1  2  3  2  5  2       -2 -.120456838313D-01 0.100000000000D+01
0.115332014727D-03 0.000000000000D+00 0.000000000000D+00 0.259866425712D-02 0.000000000000D+00  5 1 -2 25 -24 21 2 0.54549729D+00 0.75164399D-03 0.17320120D+05 0.17320120D+05 0.17320120D+05 0.12407643D+01  1  2 15  2  5  2       -2 0.149567122932D-01 0.100000000000D+01
0.324902359490D-03 0.000000000000D+00 -.702060000343D-03 0.259866425712D-02 0.000000000000D+00  5 1 -2 25 -24 21 2 0.54549729D+00 0.42170975D-02 0.17320120D+05 0.17320120D+05 0.17320120D+05 0.12407643D+01  1  2  5  2  5  2       -2 0.345959752584D-02 0.100000000000D+01
0.330007213615D-04 0.000000000000D+00 -.148261181407D-03 0.259866425712D-02 0.000000000000D+00  5 1 21 25 -24 2 2 0.54549729D+00 0.42170975D-02 0.17320120D+05 0.17320120D+05 0.17320120D+05 0.12407643D+01  1  2  5  4  5  2       -2 0.648921783240D-02 0.100000000000D+01
  </mgrwgt>
  </event>
  <event>
  5     66 0.47139866E-03 0.13991431E+03 0.75467711E-02 0.11812932E+00
        1 -1    0    0  501    0 0.00000000E+00 0.00000000E+00 0.48380127E+03 0.48380137E+03 0.32000000E+00 0.0000E+00 0.9000E+01
       21 -1    0    0  502  501 0.00000000E+00 0.00000000E+00 -.73969521E+02 0.73973323E+02 0.75000000E+00 0.0000E+00 0.9000E+01
       25  1    1    2    0    0 -.22483789E+02 0.67940141E+02 0.89864666E+02 0.16977056E+03 0.12500000E+03 0.0000E+00 0.9000E+01
      -24  1    1    2    0    0 0.81607963E+01 -.11482081E+03 0.30655000E+03 0.33718027E+03 0.80419002E+02 0.0000E+00 0.9000E+01
        2  1    1    2  502    0 0.14322992E+02 0.46880667E+02 0.13417079E+02 0.50823867E+02 0.32000000E+00 0.0000E+00 0.9000E+01
#aMCatNLO 2  0  0  2  1 0.49019844D+02 0.00000000D+00  -5  5  0 0.00000000D+00 0.00000000D+00 0.00000000D+00 0.00000000D+00 0.00000000D+00
  <mgrwgt>
 0.3060402183D-01    2    2    0
 0.156086201152958D+03 0.000000000000000D+00 0.000000000000000D+00 0.156086201152958D+03
 0.156086201152958D+03 0.000000000000000D+00 0.000000000000000D+00 -.156086201152958D+03
 0.170754032098269D+03 -.149507339520806D+02 0.925966250500044D+02 -.688061048269683D+02
 0.141418370207648D+03 0.149507339520806D+02 -.925966250500044D+02 0.688061048269683D+02
 0.000000000000000D+00 0.000000000000000D+00 0.000000000000000D+00 -.000000000000000D+00
 0.169234234535930D+03 0.000000000000000D+00 0.000000000000000D+00 0.169234234535930D+03
 0.211467126640707D+03 0.000000000000000D+00 0.000000000000000D+00 -.211467126640707D+03
 0.159626638117878D+03 -.224837885986702D+02 0.679401411950736D+02 -.688061048269683D+02
 0.156371073637116D+03 0.816079629564177D+01 -.114820808473095D+03 0.688061048269683D+02
 0.647036494216433D+02 0.143229923030284D+02 0.468806672780214D+02 -.422328921047772D+02
-.154913390043D-04 0.000000000000D+00 0.000000000000D+00 0.194095893840D-02 0.000000000000D+00  5 1 21 25 -24 2 2 0.68648447D-01 0.11638098D-01 0.27801457D+05 0.27801457D+05 0.27801457D+05 0.12183829D+01  1  2 13  4  5  2       -2 -.826405353062D-01 0.100000000000D+01
0.226539637698D-04 0.000000000000D+00 0.000000000000D+00 0.194095893840D-02 0.298976892478D-06  5 1 21 25 -24 2 2 0.74431098D-01 0.11380201D-01 0.27801457D+05 0.27801457D+05 0.27801457D+05 0.12183829D+01  1  2  1  4  5  2       -2 0.113244557138D+00 0.100000000000D+01
  </mgrwgt>
  </event>
  <event>
  4     66 0.47139866E-03 0.15714231E+03 0.75467711E-02 0.92362823E-01
        1 -1    0    0  501    0 0.00000000E+00 0.00000000E+00 0.74884676E+02 0.74885360E+02 0.32000000E+00 0.0000E+00 0.9000E+01
       -2 -1    0    0    0  501 0.00000000E+00 0.00000000E+00 -.35476812E+03 0.35476826E+03 0.32000000E+00 0.0000E+00 0.9000E+01
       25  1    1    2    0    0 0.88296890E+01 -.11739633E+03 -.95186234E+02 0.19632952E+03 0.12500000E+03 0.0000E+00 0.9000E+01
      -24  1    1    2    0    0 -.88296890E+01 0.11739633E+03 -.18469721E+03 0.23332410E+03 0.80419002E+02 0.0000E+00 0.9000E+01
#aMCatNLO 1  0  0  2  1 0.10460788D+04 0.00000000D+00  -5  5  0 0.00000000D+00 0.00000000D+00 0.00000000D+00 0.00000000D+00 0.00000000D+00
  <mgrwgt>
 0.2361355283D+00    3    2    0
 0.162993477283621D+03 0.000000000000000D+00 0.000000000000000D+00 0.162993477283621D+03
 0.162993477283621D+03 0.000000000000000D+00 0.000000000000000D+00 -.162993477283621D+03
 0.177039720419005D+03 0.882968899443345D+01 -.117396329973763D+03 0.431068545244529D+02
 0.148947234148238D+03 -.882968899443345D+01 0.117396329973763D+03 -.431068545244529D+02
 0.000000000000000D+00 0.000000000000000D+00 -.000000000000000D+00 0.000000000000000D+00
 0.129281946582687D+04 0.000000000000000D+00 0.000000000000000D+00 0.129281946582687D+04
 0.915069876744346D+03 0.000000000000000D+00 0.000000000000000D+00 -.915069876744346D+03
 0.283322133308179D+03 -.202940354611094D+03 0.146981096694876D+03 0.431068545244529D+02
 0.812373198483456D+03 -.451044586447561D+03 0.669465143072607D+03 -.431068545244529D+02
 0.111219401077958D+04 0.653984941058655D+03 -.816446239767483D+03 0.377749589082522D+03
0.158199287300D-02 0.000000000000D+00 0.000000000000D+00 0.216889786910D-02 0.000000000000D+00  5 1 -2 25 -24 21 0 0.11520783D-01 0.54579774D-01 0.24693707D+05 0.24693707D+05 0.24693707D+05 0.12238720D+01  1  2  2  2  5  2       -2 0.231389413990D+00 0.100000000000D+01
-.877456738243D-04 0.000000000000D+00 -.607526918060D-05 0.216889786910D-02 0.000000000000D+00  5 1 -2 25 -24 21 2 0.11520783D-01 0.54579774D-01 0.24693707D+05 0.24693707D+05 0.24693707D+05 0.12238720D+01  1  2  3  2  5  2       -2 -.192236879023D-01 0.100000000000D+01
0.109409102615D-03 0.000000000000D+00 0.000000000000D+00 0.216889786910D-02 0.000000000000D+00  5 1 -2 25 -24 21 2 0.11520783D-01 0.54579774D-01 0.24693707D+05 0.24693707D+05 0.24693707D+05 0.12238720D+01  1  2 15  2  5  2       -2 0.239698021642D-01 0.100000000000D+01
  </mgrwgt>
  </event>
  <event>
  4     66 0.47139866E-03 0.79641156E+02 0.75467711E-02 0.11457797E+00
        1 -1    0    0  501    0 0.00000000E+00 0.00000000E+00 0.21405662E+03 0.21405686E+03 0.32000000E+00 0.0000E+00 0.9000E+01
       -2 -1    0    0    0  501 0.00000000E+00 0.00000000E+00 -.20699010E+03 0.20699035E+03 0.32000000E+00 0.0000E+00 0.9000E+01
       25  1    1    2    0    0 0.16764491E+03 -.11000913E+02 -.68086050E+02 0.22019661E+03 0.12500000E+03 0.0000E+00 0.9000E+01
      -24  1    1    2    0    0 -.16764491E+03 0.11000913E+02 0.75152569E+02 0.20085059E+03 0.80419002E+02 0.0000E+00 0.9000E+01
#aMCatNLO 1  0  0  2  1 0.13577681D+02 0.00000000D+00  -5  5  0 0.00000000D+00 0.00000000D+00 0.00000000D+00 0.00000000D+00 0.00000000D+00
  <mgrwgt>
 0.2270200075D+00    9    2    0
 0.210493949365230D+03 0.000000000000000D+00 0.000000000000000D+00 0.210493949365230D+03
 0.210493949365230D+03 0.000000000000000D+00 0.000000000000000D+00 -.210493949365230D+03
 0.221370490084388D+03 0.167644911269034D+03 -.110009127768777D+02 -.717917650143490D+02
 0.199617408646071D+03 -.167644911269034D+03 0.110009127768777D+02 0.717917650143490D+02
 0.000000000000000D+00 0.000000000000000D+00 0.000000000000000D+00 -.000000000000000D+00
 0.216605375800255D+03 0.000000000000000D+00 0.000000000000000D+00 0.216605375800255D+03
 0.218282258508259D+03 0.000000000000000D+00 0.000000000000000D+00 -.218282258508259D+03
 0.216821625722272D+03 0.161341792218213D+03 -.141910514334954D+02 -.717917650143490D+02
 0.204385169452353D+03 -.173456235240267D+03 0.805968176136205D+01 0.717917650143490D+02
 0.136808391338885D+02 0.121144430220533D+02 0.613136967213333D+01 -.167688270800442D+01
0.130947211695D-02 0.000000000000D+00 0.000000000000D+00 0.189796184503D-02 0.000000000000D+00  5 1 -2 25 -24 21 0 0.32931825D-01 0.31844668D-01 0.39138019D+05 0.39138019D+05 0.39138019D+05 0.12029622D+01  1  2  2  2  5  2       -2 0.140895689506D+00 0.100000000000D+01
-.724080912581D-04 0.000000000000D+00 -.502871772101D-05 0.189796184503D-02 0.000000000000D+00  5 1 -2 25 -24 21 2 0.32931825D-01 0.31844668D-01 0.39138019D+05 0.39138019D+05 0.39138019D+05 0.12029622D+01  1  2  3  2  5  2       -2 -.112743763868D-01 0.100000000000D+01
0.901527226939D-04 0.000000000000D+00 0.000000000000D+00 0.189796184503D-02 0.000000000000D+00  5 1 -2 25 -24 21 2 0.32931825D-01 0.31844668D-01 0.39138019D+05 0.39138019D+05 0.39138019D+05 0.12029622D+01  1  2 15  2  5  2       -2 0.140373224910D-01 0.100000000000D+01
0.263357058171D-02 0.000000000000D+00 0.000000000000D+00 0.189796184503D-02 0.000000000000D+00  5 1 -2 25 -24 21 2 0.32931825D-01 0.33470038D-01 0.41928792D+05 0.41928792D+05 0.41928792D+05 0.11999289D+01  1  2 12  2  5  2       -2 0.372562476097D+00 0.100000000000D+01
-.219716562248D-02 0.000000000000D+00 0.000000000000D+00 0.189796184503D-02 0.000000000000D+00  5 1 -2 25 -24 21 2 0.32931825D-01 0.31844668D-01 0.39138019D+05 0.39138019D+05 0.39138019D+05 0.12029622D+01  1  2  4  2  5  2       -2 -.342111935029D+00 0.100000000000D+01
-.145373693370D-01 0.000000000000D+00 -.248602023656D-02 0.189796184503D-02 0.000000000000D+00  5 1 -2 25 -24 21 2 0.32931825D-01 0.33912072D-01 0.39138019D+05 0.39138019D+05 0.39138019D+05 0.12029622D+01  1  2  5  2  5  2       -2 -.201614342440D+01 0.100000000000D+01
0.146696225672D-01 0.000000000000D+00 0.248111030217D-02 0.189796184503D-02 0.000000000000D+00  5 1 -2 25 -24 21 2 0.32931825D-01 0.31844668D-01 0.39138019D+05 0.39138019D+05 0.39138019D+05 0.12029622D+01  1  2  6  2  5  2       -2 0.228414868285D+01 0.100000000000D+01
0.308025744699D-04 0.000000000000D+00 0.000000000000D+00 0.189796184503D-02 0.000000000000D+00  5 1 21 25 -24 2 2 0.32931825D-01 0.33470038D-01 0.41928792D+05 0.41928792D+05 0.41928792D+05 0.11999289D+01  1  2 12  4  5  2       -2 0.555806653540D-01 0.100000000000D+01
-.152984704829D-03 0.000000000000D+00 -.267440620033D-04 0.189796184503D-02 0.000000000000D+00  5 1 21 25 -24 2 2 0.32931825D-01 0.33912072D-01 0.39138019D+05 0.39138019D+05 0.39138019D+05 0.12029622D+01  1  2  5  4  5  2       -2 -.270675092933D+00 0.100000000000D+01
  </mgrwgt>
  </event>
  <event>
  5     66 -.47139866E-03 0.11921927E+03 0.75467711E-02 0.12312653E+00
        1 -1    0    0  502    0 0.00000000E+00 0.00000000E+00 0.31574410E+03 0.31574427E+03 0.32000000E+00 0.0000E+00 0.9000E+01
       -2 -1    0    0    0  501 0.00000000E+00 0.00000000E+00 -.52024265E+02 0.52025249E+02 0.32000000E+00 0.0000E+00 0.9000E+01
       25  1    1    2    0    0 0.63836703E+02 -.50996621E+01 0.16361432E+03 0.21562879E+03 0.12500000E+03 0.0000E+00 0.9000E+01
      -24  1    1    2    0    0 -.56201172E+02 -.89219851E+01 0.84271021E+02 0.12964179E+03 0.80419002E+02 0.0000E+00 0.9000E+01
       21  1    1    2  502  501 -.76355315E+01 0.14021647E+02 0.15834500E+02 0.22498929E+02 0.75000000E+00 0.0000E+00 0.9000E+01
#aMCatNLO 2  0  0  1  2 0.15965836D+02 0.00000000D+00  -5  5  0 0.00000000D+00 0.00000000D+00 0.00000000D+00 0.00000000D+00 0.00000000D+00
  <mgrwgt>
 -.9341895093D-01    2    2    0
 0.119905929874562D+03 0.000000000000000D+00 0.000000000000000D+00 0.119905929874562D+03
 0.119905929874562D+03 0.000000000000000D+00 0.000000000000000D+00 -.119905929874562D+03
 0.138999614513865D+03 0.593837949151418D+02 0.307751713206545D+01 0.126485819276874D+02
 0.100812245235258D+03 -.593837949151418D+02 -.307751713206545D+01 -.126485819276874D+02
 0.000000000000000D+00 -.000000000000000D+00 0.000000000000000D+00 -.000000000000000D+00
 0.127928811746879D+03 0.000000000000000D+00 0.000000000000000D+00 0.127928811746879D+03
 0.128386325429448D+03 0.000000000000000D+00 0.000000000000000D+00 -.128386325429448D+03
 0.141018147264709D+03 0.638367032360753D+02 -.509966206125105D+01 0.126485819276874D+02
 0.993245996767736D+02 -.562011717259068D+02 -.892198511736699D+01 -.126485819276874D+02
 0.159723902348447D+02 -.763553151016846D+01 0.140216471786180D+02 -.457513682569491D+00
-.308945714085D-03 0.000000000000D+00 0.000000000000D+00 0.275826676266D-02 0.000000000000D+00  5 1 -2 25 -24 21 2 0.50075868D-01 0.74746258D-02 0.16247520D+05 0.16247520D+05 0.16247520D+05 0.12438865D+01  1  2 13  1  5  1        1 -.330879578773D+00 0.100000000000D+01
0.237172184856D-03 0.000000000000D+00 0.000000000000D+00 0.275826676266D-02 0.896756116707D-04  5 1 -2 25 -24 21 2 0.48572769D-01 0.80032717D-02 0.16247520D+05 0.16247520D+05 0.16247520D+05 0.12438865D+01  1  2  1  1  5  1        1 0.237460627839D+00 0.100000000000D+01
  </mgrwgt>
  </event>
  <event>
  5     66 0.47139866E-03 0.13791983E+03 0.75467711E-02 0.11379940E+00
       21 -1    0    0  501  502 0.00000000E+00 0.00000000E+00 0.38531684E+03 0.38531757E+03 0.75000000E+00 0.0000E+00 0.9000E+01
       -2 -1    0    0    0  501 0.00000000E+00 0.00000000E+00 -.12321148E+03 0.12321190E+03 0.32000000E+00 0.0000E+00 0.9000E+01
       25  1    1    2    0    0 0.77552299E+02 0.16386137E+02 0.92453233E+02 0.17451494E+03 0.12500000E+03 0.0000E+00 0.9000E+01
      -24  1    1    2    0    0 -.24385030E+02 -.13051571E+03 0.57929964E+02 0.16568669E+03 0.80419002E+02 0.0000E+00 0.9000E+01
       -1  1    1    2    0  502 -.53167269E+02 0.11412958E+03 0.11172216E+03 0.16832784E+03 0.32000000E+00 0.0000E+00 0.9000E+01
#aMCatNLO 2  0  0  1  1 0.12590599D+03 0.00000000D+00  -5  5  0 0.00000000D+00 0.00000000D+00 0.00000000D+00 0.00000000D+00 0.00000000D+00
  <mgrwgt>
 0.1704698310D-01    1    2    0
 0.138987159675809D+03 0.000000000000000D+00 0.000000000000000D+00 0.138987159675809D+03
 0.138987159675809D+03 0.000000000000000D+00 0.000000000000000D+00 -.138987159675809D+03
 0.155459515947767D+03 0.497937086011405D+02 0.759731000720275D+02 0.170685602176734D+02
 0.122514803403852D+03 -.497937086011405D+02 -.759731000720275D+02 -.170685602176734D+02
 0.000000000000000D+00 -.000000000000000D+00 0.000000000000000D+00 0.000000000000000D+00
 0.239679217320231D+03 0.000000000000000D+00 0.000000000000000D+00 0.239679217320231D+03
 0.198080020340586D+03 0.000000000000000D+00 0.000000000000000D+00 -.198080020340586D+03
 0.148993960445316D+03 0.775522986547454D+02 0.163861366600269D+02 0.170685602176734D+02
 0.156165081559908D+03 -.243850295000121D+02 -.130515712972123D+03 -.170685602176734D+02
 0.132600195655593D+03 -.531672691547333D+02 0.114129576312096D+03 0.415991969796452D+02
0.245839423203D-04 0.000000000000D+00 0.000000000000D+00 0.247750631354D-02 0.144727780315D-06  5 21 -2 25 -24 -1 2 0.59279549D-01 0.18955683D-01 0.46042118D+05 0.46042118D+05 0.46042118D+05 0.11958451D+01  1  2  1  3  5  1        1 0.170469831028D-01 0.100000000000D+01
  </mgrwgt>
  </event>
  <event>
  4     66 0.47139866E-03 0.12156836E+03 0.75467711E-02 0.11618123E+00
        1 -1    0    0  501    0 0.00000000E+00 0.00000000E+00 0.22723590E+04 0.22723591E+04 0.32000000E+00 0.0000E+00 0.9000E+01
       -2 -1    0    0    0  501 0.00000000E+00 0.00000000E+00 -.68172374E+01 0.68247436E+01 0.32000000E+00 0.0000E+00 0.9000E+01
       25  1    1    2    0    0 0.45069932E+01 0.63773912E+02 0.10571473E+04 0.10664299E+04 0.12500000E+03 0.0000E+00 0.9000E+01
      -24  1    1    2    0    0 -.45069932E+01 -.63773912E+02 0.12083945E+04 0.12127539E+04 0.80419002E+02 0.0000E+00 0.9000E+01
#aMCatNLO 1  0  0  1  1 0.10737245D+03 0.00000000D+00  -5  5  0 0.00000000D+00 0.00000000D+00 0.00000000D+00 0.00000000D+00 0.00000000D+00
  <mgrwgt>
 0.2407223063D+00    3    2    0
 0.124498155686561D+03 0.000000000000000D+00 0.000000000000000D+00 0.124498155686561D+03
 0.124498155686561D+03 0.000000000000000D+00 0.000000000000000D+00 -.124498155686561D+03
 0.142887552692340D+03 0.450699318305190D+01 0.637739123397647D+02 -.265410593559127D+02
 0.106108758680783D+03 -.450699318305190D+01 -.637739123397647D+02 0.265410593559127D+02
 0.000000000000000D+00 0.000000000000000D+00 -.000000000000000D+00 -.000000000000000D+00
 0.182452713476763D+03 0.000000000000000D+00 0.000000000000000D+00 0.182452713476763D+03
 0.197070718008539D+03 0.000000000000000D+00 0.000000000000000D+00 -.197070718008539D+03
 0.178601711072215D+03 -.281077196166230D+02 0.121569319584105D+03 -.265410593559127D+02
 0.925587694043112D+02 -.246615834024690D+02 -.280586584073241D+02 0.265410593559127D+02
 0.108362951008776D+03 0.527693030190920D+02 -.935106611767807D+02 -.146180045317756D+02
0.606400093485D-03 0.000000000000D+00 0.000000000000D+00 0.259635561444D-02 0.000000000000D+00  5 1 -2 25 -24 21 0 0.34959428D+00 0.10493849D-02 0.14778867D+05 0.14778867D+05 0.14778867D+05 0.12485585D+01  1  2  2  1  5  1        1 0.235678931332D+00 0.100000000000D+01
-.336656646726D-04 0.000000000000D+00 -.232873602779D-05 0.259635561444D-02 0.000000000000D+00  5 1 -2 25 -24 21 2 0.34959428D+00 0.10493849D-02 0.14778867D+05 0.14778867D+05 0.14778867D+05 0.12485585D+01  1  2  3  1  5  1        1 -.203970097104D-01 0.100000000000D+01
0.419898540347D-04 0.000000000000D+00 0.000000000000D+00 0.259635561444D-02 0.000000000000D+00  5 1 -2 25 -24 21 2 0.34959428D+00 0.10493849D-02 0.14778867D+05 0.14778867D+05 0.14778867D+05 0.12485585D+01  1  2 15  1  5  1        1 0.254403847009D-01 0.100000000000D+01
  </mgrwgt>
  </event>
  <event>
  4     66 0.47139866E-03 0.61847401E+02 0.75467711E-02 0.11962474E+00
        1 -1    0    0  501    0 0.00000000E+00 0.00000000E+00 0.60599559E+03 0.60599568E+03 0.32000000E+00 0.0000E+00 0.9000E+01
       -2 -1    0    0    0  501 0.00000000E+00 0.00000000E+00 -.95220174E+02 0.95220711E+02 0.32000000E+00 0.0000E+00 0.9000E+01
       25  1    1    2    0    0 -.67464170E+02 0.85527481E+02 -.70758909E+01 0.16595612E+03 0.12500000E+03 0.0000E+00 0.9000E+01
      -24  1    1    2    0    0 0.67464170E+02 -.85527481E+02 0.51785131E+03 0.53526027E+03 0.80419002E+02 0.0000E+00 0.9000E+01
#aMCatNLO 1  0  0  1  2 0.55271893D+01 0.00000000D+00  -5  5  0 0.00000000D+00 0.00000000D+00 0.00000000D+00 0.00000000D+00 0.00000000D+00
  <mgrwgt>
 0.6826571767D-01   11    2    0
 0.240214953332695D+03 0.000000000000000D+00 0.000000000000000D+00 0.240214953332695D+03
 0.240214953332695D+03 0.000000000000000D+00 0.000000000000000D+00 -.240214953332695D+03
 0.249745775538573D+03 -.674641698450570D+02 0.855274810257487D+02 -.186766132304203D+03
 0.230684131126816D+03 0.674641698450570D+02 -.855274810257487D+02 0.186766132304203D+03
 0.000000000000000D+00 -.000000000000000D+00 0.000000000000000D+00 0.000000000000000D+00
 0.293702055615054D+03 0.000000000000000D+00 0.000000000000000D+00 0.293702055615054D+03
 0.240373682983843D+03 0.000000000000000D+00 0.000000000000000D+00 -.240373682983843D+03
 0.248699061874188D+03 -.671493465617898D+02 0.826776902045221D+02 -.186766132304203D+03
 0.231762637993823D+03 0.677562563494464D+02 -.881714577690661D+02 0.186766132304203D+03
 0.536140387308859D+02 -.606909787656619D+00 0.549376756454400D+01 0.533283726312115D+02
0.582979382808D-03 0.000000000000D+00 0.000000000000D+00 0.862881336779D-03 0.000000000000D+00  5 1 -2 25 -24 21 0 0.93230139D-01 0.14649305D-01 0.22681377D+05 0.22681377D+05 0.22681377D+05 0.12278557D+01  1  2  2  1  5  1        1 0.630274822726D-01 0.100000000000D+01
-.238039160773D-04 0.000000000000D+00 -.223879433198D-05 0.862881336779D-03 0.000000000000D+00  5 1 -2 25 -24 21 2 0.93230139D-01 0.14649305D-01 0.22681377D+05 0.22681377D+05 0.22681377D+05 0.12278557D+01  1  2  3  1  5  1        1 -.387989372282D-02 0.100000000000D+01
0.397304466888D-04 0.000000000000D+00 0.000000000000D+00 0.862881336779D-03 0.000000000000D+00  5 1 -2 25 -24 21 2 0.93230139D-01 0.14649305D-01 0.22681377D+05 0.22681377D+05 0.22681377D+05 0.12278557D+01  1  2 15  1  5  1        1 0.647582146619D-02 0.100000000000D+01
0.435752349494D-01 0.000000000000D+00 0.000000000000D+00 0.862881336779D-03 0.000000000000D+00  5 1 -2 25 -24 21 2 0.11401542D+00 0.14649305D-01 0.23559560D+05 0.23559560D+05 0.23559560D+05 0.12260705D+01  1  2 12  1  5  1        1 0.532695480306D+01 0.100000000000D+01
-.695907787111D-01 0.000000000000D+00 0.000000000000D+00 0.862881336779D-03 0.000000000000D+00  5 1 -2 25 -24 21 2 0.93230139D-01 0.14649305D-01 0.22681377D+05 0.22681377D+05 0.22681377D+05 0.12278557D+01  1  2  4  1  5  1        1 -.113428741981D+02 0.100000000000D+01
-.715042127335D-01 0.000000000000D+00 -.460576035460D-03 0.862881336779D-03 0.000000000000D+00  5 1 -2 25 -24 21 2 0.11401943D+00 0.14649305D-01 0.22681377D+05 0.22681377D+05 0.22681377D+05 0.12278557D+01  1  2  5  1  5  1        1 -.876604355344D+01 0.100000000000D+01
0.701794310831D-01 0.000000000000D+00 0.451399575984D-03 0.862881336779D-03 0.000000000000D+00  5 1 -2 25 -24 21 2 0.93230139D-01 0.14649305D-01 0.22681377D+05 0.22681377D+05 0.22681377D+05 0.12278557D+01  1  2  6  1  5  1        1 0.114388209590D+02 0.100000000000D+01
0.274430122737D-01 0.000000000000D+00 0.000000000000D+00 0.862881336779D-03 0.231805416020D-03  5 1 -2 25 -24 21 2 0.11398909D+00 0.14658985D-01 0.23559560D+05 0.23559560D+05 0.23559560D+05 0.12260705D+01  1  2 11  1  5  1        1 0.335234923772D+01 0.100000000000D+01
0.125301474816D-02 0.000000000000D+00 0.000000000000D+00 0.862881336779D-03 0.000000000000D+00  5 21 -2 25 -24 -1 2 0.11401542D+00 0.14649305D-01 0.23559560D+05 0.23559560D+05 0.23559560D+05 0.12260705D+01  1  2 12  3  5  1        1 0.322359265940D+00 0.100000000000D+01
-.205102926555D-02 0.000000000000D+00 -.132457267160D-04 0.862881336779D-03 0.000000000000D+00  5 21 -2 25 -24 -1 2 0.11401943D+00 0.14649305D-01 0.22681377D+05 0.22681377D+05 0.22681377D+05 0.12278557D+01  1  2  5  3  5  1        1 -.529778325563D+00 0.100000000000D+01
0.781129842820D-03 0.000000000000D+00 0.000000000000D+00 0.862881336779D-03 0.659681123007D-05  5 21 -2 25 -24 -1 2 0.11398909D+00 0.14658985D-01 0.23559560D+05 0.23559560D+05 0.23559560D+05 0.12260705D+01  1  2 11  3  5  1        1 0.200854119108D+00 0.100000000000D+01
  </mgrwgt>
  </event>
  <event>
  5     66 0.47139866E-03 0.10404304E+03 0.75467711E-02 0.12548082E+00
       21 -1    0    0  501  502 0.00000000E+00 0.00000000E+00 0.50326015E+03 0.50326071E+03 0.75000000E+00 0.0000E+00 0.9000E+01
       -4 -1    0    0    0  501 0.00000000E+00 0.00000000E+00 -.25559647E+02 0.25606602E+02 0.15500000E+01 0.0000E+00 0.9000E+01
       25  1    1    2    0    0 -.65982876E+01 -.56760609E+01 0.27536310E+03 0.30253197E+03 0.12500000E+03 0.0000E+00 0.9000E+01
      -24  1    1    2    0    0 0.22481300E+02 -.17163741E+01 0.17418059E+03 0.19316948E+03 0.80419002E+02 0.0000E+00 0.9000E+01
       -3  1    1    2    0  502 -.15883013E+02 0.73924350E+01 0.28156809E+02 0.33165858E+02 0.50000000E+00 0.0000E+00 0.9000E+01
#aMCatNLO 2  0  0  1  2 0.17519081D+02 0.00000000D+00  -5  5  0 0.00000000D+00 0.00000000D+00 0.00000000D+00 0.00000000D+00 0.00000000D+00
  <mgrwgt>
 0.8774967003D-02    1    2    0
 0.104071466201355D+03 0.000000000000000D+00 0.000000000000000D+00 0.104071466201355D+03
 0.104071466201355D+03 0.000000000000000D+00 0.000000000000000D+00 -.104071466201355D+03
 0.126070253140494D+03 -.161731271940466D+02 -.121964071318721D+01 0.237721690304785D+01
 0.820726792622170D+02 0.161731271940466D+02 0.121964071318721D+01 -.237721690304785D+01
 0.000000000000000D+00 -.000000000000000D+00 0.000000000000000D+00 -.000000000000000D+00
 0.111211551793165D+03 0.000000000000000D+00 0.000000000000000D+00 0.111211551793165D+03
 0.115769703077894D+03 0.000000000000000D+00 0.000000000000000D+00 -.115769703077894D+03
 0.125325201881278D+03 -.659828756371572D+01 -.567606092333368D+01 0.237721690304785D+01
 0.835537068259011D+02 0.224813004472490D+02 -.171637407766368D+01 -.237721690304785D+01
 0.181023461638798D+02 -.158830128835333D+02 0.739243500099736D+01 -.455815128472908D+01
0.264805112707D-05 0.000000000000D+00 0.000000000000D+00 0.319333442387D-02 0.107724141372D-05  5 21 -4 25 -24 -3 2 0.77425926D-01 0.39357880D-02 0.12807632D+05 0.12807632D+05 0.12807632D+05 0.12557223D+01  1  2  1  3  5  1        3 0.877496700284D-02 0.100000000000D+01
  </mgrwgt>
  </event>
  <event>
  4     66 0.47139866E-03 0.96974255E+02 0.75467711E-02 0.10848461E+00
        1 -1    0    0  501    0 0.00000000E+00 0.00000000E+00 0.10306672E+03 0.10306721E+03 0.32000000E+00 0.0000E+00 0.9000E+01
       -2 -1    0    0    0  501 0.00000000E+00 0.00000000E+00 -.38571061E+03 0.38571074E+03 0.32000000E+00 0.0000E+00 0.9000E+01
       25  1    1    2    0    0 0.11307467E+02 -.16437634E+03 -.99036429E+02 0.22930472E+03 0.12500000E+03 0.0000E+00 0.9000E+01
      -24  1    1    2    0    0 -.11307467E+02 0.16437634E+03 -.18360746E+03 0.25947323E+03 0.80419002E+02 0.0000E+00 0.9000E+01
#aMCatNLO 1  0  0  2  1 0.17425958D+03 0.00000000D+00  -5  5  0 0.00000000D+00 0.00000000D+00 0.00000000D+00 0.00000000D+00 0.00000000D+00
  <mgrwgt>
 0.1691898695D+00    7    2    0
 0.199384251492095D+03 0.000000000000000D+00 0.000000000000000D+00 0.199384251492095D+03
 0.199384251492095D+03 0.000000000000000D+00 0.000000000000000D+00 -.199384251492095D+03
 0.210866833462709D+03 0.113074673085752D+02 -.164376344783062D+03 0.411385453487988D+02
 0.187901669521482D+03 -.113074673085752D+02 0.164376344783062D+03 -.411385453487988D+02
 0.000000000000000D+00 -.000000000000000D+00 -.000000000000000D+00 -.000000000000000D+00
 0.266888359450931D+03 0.000000000000000D+00 0.000000000000000D+00 0.266888359450931D+03
 0.371585527872594D+03 0.000000000000000D+00 0.000000000000000D+00 -.371585527872594D+03
 0.225589820083466D+03 0.101718732186790D+03 -.152403039780011D+03 0.411385453487988D+02
 0.209591428299499D+03 0.710325622507468D+02 0.175280763487988D+03 -.411385453487988D+02
 0.203292638940560D+03 -.172751294437537D+03 -.228777237079773D+02 -.104697168421663D+03
0.216275673011D-02 0.000000000000D+00 0.000000000000D+00 0.207793005090D-02 0.000000000000D+00  5 1 -2 25 -24 21 0 0.15856466D-01 0.59340142D-01 0.38055816D+05 0.38055816D+05 0.38055816D+05 0.12042039D+01  1  2  2  2  5  2       -2 0.176695074222D+00 0.100000000000D+01
-.120083537887D-03 0.000000000000D+00 -.830555531054D-05 0.207793005090D-02 0.000000000000D+00  5 1 -2 25 -24 21 2 0.15856466D-01 0.59340142D-01 0.38055816D+05 0.38055816D+05 0.38055816D+05 0.12042039D+01  1  2  3  2  5  2       -2 -.142265734449D-01 0.100000000000D+01
0.149271062307D-03 0.000000000000D+00 0.000000000000D+00 0.207793005090D-02 0.000000000000D+00  5 1 -2 25 -24 21 2 0.15856466D-01 0.59340142D-01 0.38055816D+05 0.38055816D+05 0.38055816D+05 0.12042039D+01  1  2 15  2  5  2       -2 0.176844867204D-01 0.100000000000D+01
0.151793687969D-04 0.000000000000D+00 0.000000000000D+00 0.207793005090D-02 0.000000000000D+00  5 1 -2 25 -24 21 2 0.15856466D-01 0.11353917D+00 0.90474960D+05 0.90474960D+05 0.90474960D+05 0.11675863D+01  1  2 12  2  5  2       -2 0.400504981668D-03 0.100000000000D+01
-.531132706667D-03 0.000000000000D+00 -.586902818249D-03 0.207793005090D-02 0.000000000000D+00  5 1 -2 25 -24 21 2 0.15856466D-01 0.13736531D+00 0.38055816D+05 0.38055816D+05 0.38055816D+05 0.12042039D+01  1  2  5  2  5  2       -2 -.936945953626D-02 0.100000000000D+01
0.106932508707D-05 0.000000000000D+00 0.000000000000D+00 0.207793005090D-02 0.000000000000D+00  5 1 21 25 -24 2 2 0.15856466D-01 0.11353917D+00 0.90474960D+05 0.90474960D+05 0.90474960D+05 0.11675863D+01  1  2 12  4  5  2       -2 0.315392106987D-03 0.100000000000D+01
-.114387503601D-04 0.000000000000D+00 -.536510217826D-04 0.207793005090D-02 0.000000000000D+00  5 1 21 25 -24 2 2 0.15856466D-01 0.13736531D+00 0.38055816D+05 0.38055816D+05 0.38055816D+05 0.12042039D+01  1  2  5  4  5  2       -2 -.230955553241D-02 0.100000000000D+01
  </mgrwgt>
  </event>
  <event>
  4     66 0.47139866E-03 0.10288387E+03 0.75467711E-02 0.11817668E+00
        1 -1    0    0  501    0 0.00000000E+00 0.00000000E+00 0.12798744E+04 0.12798744E+04 0.32000000E+00 0.0000E+00 0.9000E+01
       -2 -1    0    0    0  501 0.00000000E+00 0.00000000E+00 -.10539033E+02 0.10543890E+02 0.32000000E+00 0.0000E+00 0.9000E+01
       25  1    1    2    0    0 0.34867693E+01 -.46913834E+01 0.44843381E+03 0.46556637E+03 0.12500000E+03 0.0000E+00 0.9000E+01
      -24  1    1    2    0    0 -.34867693E+01 0.46913834E+01 0.82090151E+03 0.82485191E+03 0.80419002E+02 0.0000E+00 0.9000E+01
#aMCatNLO 1  0  0  1  2 0.10258979D+03 0.00000000D+00  -5  5  0 0.00000000D+00 0.00000000D+00 0.00000000D+00 0.00000000D+00 0.00000000D+00
  <mgrwgt>
 0.3365212375D+00    6    2    0
 0.116154197765630D+03 0.000000000000000D+00 0.000000000000000D+00 0.116154197765630D+03
 0.116154197765630D+03 0.000000000000000D+00 0.000000000000000D+00 -.116154197765630D+03
 0.135864600449714D+03 0.348676928303941D+01 -.469138343354276D+01 -.529152437092270D+02
 0.964437950815452D+02 -.348676928303941D+01 0.469138343354276D+01 0.529152437092270D+02
 0.000000000000000D+00 0.000000000000000D+00 0.000000000000000D+00 0.000000000000000D+00
 0.184200382307685D+03 0.000000000000000D+00 0.000000000000000D+00 0.184200382307685D+03
 0.172956236036864D+03 0.000000000000000D+00 0.000000000000000D+00 -.172956236036864D+03
 0.148097808804904D+03 -.498269346507635D+02 -.320189715530586D+02 -.529152437092270D+02
 0.105854659830668D+03 -.414681343509234D+02 -.147771401205675D+02 0.529152437092270D+02
 0.103204149708977D+03 0.912950690016869D+02 0.467961116736261D+02 0.112441462708212D+02
0.233297547229D-03 0.000000000000D+00 0.000000000000D+00 0.235337925028D-02 0.000000000000D+00  5 1 -2 25 -24 21 0 0.19690412D+00 0.16217664D-02 0.10585091D+05 0.10585091D+05 0.10585091D+05 0.12654605D+01  1  2  2  1  5  1        1 0.207983007034D+00 0.100000000000D+01
-.127290391732D-04 0.000000000000D+00 -.895924010015D-06 0.235337925028D-02 0.000000000000D+00  5 1 -2 25 -24 21 2 0.19690412D+00 0.16217664D-02 0.10585091D+05 0.10585091D+05 0.10585091D+05 0.12654605D+01  1  2  3  1  5  1        1 -.181723238720D-01 0.100000000000D+01
0.160597439898D-04 0.000000000000D+00 0.000000000000D+00 0.235337925028D-02 0.000000000000D+00  5 1 -2 25 -24 21 2 0.19690412D+00 0.16217664D-02 0.10585091D+05 0.10585091D+05 0.10585091D+05 0.12654605D+01  1  2 15  1  5  1        1 0.229273290084D-01 0.100000000000D+01
-.553249299987D-04 0.000000000000D+00 -.739054299598D-04 0.235337925028D-02 0.000000000000D+00  5 1 -2 25 -24 21 2 0.38208550D+00 0.16217664D-02 0.10585091D+05 0.10585091D+05 0.10585091D+05 0.12654605D+01  1  2  5  1  5  1        1 -.135073636024D-01 0.100000000000D+01
0.961281065027D-04 0.000000000000D+00 0.601883496893D-04 0.235337925028D-02 0.000000000000D+00  5 1 -2 25 -24 21 2 0.19690412D+00 0.16217664D-02 0.10585091D+05 0.10585091D+05 0.10585091D+05 0.12654605D+01  1  2  6  1  5  1        1 0.137235109485D+00 0.100000000000D+01
0.339552032018D-06 0.000000000000D+00 -.531171569656D-05 0.235337925028D-02 0.000000000000D+00  5 21 -2 25 -24 -1 2 0.38208550D+00 0.16217664D-02 0.10585091D+05 0.10585091D+05 0.10585091D+05 0.12654605D+01  1  2  5  3  5  1        1 0.554794673254D-04 0.100000000000D+01
  </mgrwgt>
  </event>
  <event>
  5     66 -.47139866E-03 0.10421221E+03 0.75467711E-02 0.12593475E+00
        1 -1    0    0  502    0 0.00000000E+00 0.00000000E+00 0.73845972E+03 0.73845979E+03 0.32000000E+00 0.0000E+00 0.9000E+01
       -2 -1    0    0    0  501 0.00000000E+00 0.00000000E+00 -.16669639E+02 0.16672710E+02 0.32000000E+00 0.0000E+00 0.9000E+01
       25  1    1    2    0    0 -.10986595E+02 0.88789148E+01 0.38620828E+03 0.40617900E+03 0.12500000E+03 0.0000E+00 0.9000E+01
      -24  1    1    2    0    0 0.50828931E+01 -.19923854E+02 0.29714372E+03 0.30851969E+03 0.80419002E+02 0.0000E+00 0.9000E+01
       21  1    1    2  502  501 0.59037021E+01 0.11044939E+02 0.38438084E+02 0.40433812E+02 0.75000000E+00 0.0000E+00 0.9000E+01
#aMCatNLO 2  0  0  1  2 0.12523752D+02 0.00000000D+00  -5  5  0 0.00000000D+00 0.00000000D+00 0.00000000D+00 0.00000000D+00 0.00000000D+00
  <mgrwgt>
 -.1027909574D+00    2    2    0
 0.104483750829318D+03 0.000000000000000D+00 0.000000000000000D+00 0.104483750829318D+03
 0.104483750829318D+03 0.000000000000000D+00 0.000000000000000D+00 -.104483750829318D+03
 0.126395732292802D+03 -.742432619513671D+01 0.155433843968490D+02 -.735960079581360D+01
 0.825717693658328D+02 0.742432619513671D+01 -.155433843968490D+02 0.735960079581360D+01
 0.000000000000000D+00 0.000000000000000D+00 0.000000000000000D+00 -.000000000000000D+00
 0.110565154544962D+03 0.000000000000000D+00 0.000000000000000D+00 0.110565154544962D+03
 0.111324017370333D+03 0.000000000000000D+00 0.000000000000000D+00 -.111324017370333D+03
 0.126010730197589D+03 -.109865951535739D+02 0.887891479783888D+01 -.735960079581360D+01
 0.833317192063503D+02 0.508289308916140D+01 -.199238536805985D+02 0.735960079581360D+01
 0.125467225113562D+02 0.590370206441246D+01 0.110449388827596D+02 -.758862825371049D+00
-.183397058485D-03 0.000000000000D+00 0.000000000000D+00 0.316750298315D-02 0.000000000000D+00  5 1 -2 25 -24 21 2 0.11690253D+00 0.24069650D-02 0.12246242D+05 0.12246242D+05 0.12246242D+05 0.12579915D+01  1  2 13  1  5  1        1 -.352055745226D+00 0.100000000000D+01
0.136568854807D-03 0.000000000000D+00 0.000000000000D+00 0.316750298315D-02 0.171065183442D-03  5 1 -2 25 -24 21 2 0.11359796D+00 0.25645425D-02 0.12246242D+05 0.12246242D+05 0.12246242D+05 0.12579915D+01  1  2  1  1  5  1        1 0.249264787864D+00 0.100000000000D+01
  </mgrwgt>
  </event>
  <event>
  5     66 0.47139866E-03 0.11142197E+03 0.75467711E-02 0.12519021E+00
        3 -1    0    0  501    0 0.00000000E+00 0.00000000E+00 0.49140650E+02 0.49143194E+02 0.50000000E+00 0.0000E+00 0.9000E+01
       -4 -1    0    0    0  502 0.00000000E+00 0.00000000E+00 -.28532886E+03 0.28533307E+03 0.15500000E+01 0.0000E+00 0.9000E+01
       25  1    1    2    0    0 -.30013398E+02 0.24373070E+02 -.17355494E+03 0.21735033E+03 0.12500000E+03 0.0000E+00 0.9000E+01
      -24  1    1    2    0    0 0.33318368E+02 -.30160737E+02 -.59882754E+02 0.10987695E+03 0.80419002E+02 0.0000E+00 0.9000E+01
       21  1    1    2  501  502 -.33049700E+01 0.57876674E+01 -.27505213E+01 0.72489853E+01 0.75000000E+00 0.0000E+00 0.9000E+01
#aMCatNLO 2  0  0  2  2 0.66648272D+01 0.00000000D+00  -5  5  0 0.00000000D+00 0.00000000D+00 0.00000000D+00 0.00000000D+00 0.00000000D+00
  <mgrwgt>
 0.3647468083D-01    2    2    0
 0.114608156165303D+03 0.000000000000000D+00 0.000000000000000D+00 0.114608156165303D+03
 0.114608156165303D+03 0.000000000000000D+00 0.000000000000000D+00 -.114608156165303D+03
 0.134584448324695D+03 -.319455411191900D+02 0.277566410451251D+02 -.264012312469844D+02
 0.946318640059101D+02 0.319455411191900D+02 -.277566410451251D+02 0.264012312469844D+02
 0.000000000000000D+00 -.000000000000000D+00 0.000000000000000D+00 0.000000000000000D+00
 0.120136822278226D+03 0.000000000000000D+00 0.000000000000000D+00 0.120136822278226D+03
 0.116682965203125D+03 0.000000000000000D+00 0.000000000000000D+00 -.116682965203125D+03
 0.133479869735841D+03 -.300133981933255D+02 0.243730700206008D+02 -.264012312469844D+02
 0.958333173241966D+02 0.333183681906668D+02 -.301607374701621D+02 0.264012312469844D+02
 0.750660042131326D+01 -.330496999734135D+01 0.578766744956123D+01 0.345385707510071D+01
-.748104185991D-04 0.000000000000D+00 0.000000000000D+00 0.276517058713D-02 0.000000000000D+00  5 3 -4 25 -24 21 2 0.72115360D-02 0.43109855D-01 0.12414856D+05 0.12414856D+05 0.12414856D+05 0.12572979D+01  1  2  8  2  5  2       -4 -.146326242948D-01 0.100000000000D+01
0.291775890339D-03 0.000000000000D+00 0.000000000000D+00 0.276517058713D-02 0.523004208604D-03  5 3 -4 25 -24 21 2 0.75594185D-02 0.43890294D-01 0.13182781D+05 0.13182781D+05 0.13182781D+05 0.12542673D+01  1  2  1  2  5  2       -4 0.511073051235D-01 0.100000000000D+01
  </mgrwgt>
  </event>
  <event>
  4     66 0.47139866E-03 0.10910655E+03 0.75467711E-02 0.12073488E+00
        1 -1    0    0  501    0 0.00000000E+00 0.00000000E+00 0.22426321E+03 0.22426344E+03 0.32000000E+00 0.0000E+00 0.9000E+01
       -2 -1    0    0    0  501 0.00000000E+00 0.00000000E+00 -.55970977E+02 0.55971892E+02 0.32000000E+00 0.0000E+00 0.9000E+01
       25  1    1    2    0    0 -.34377061E+02 -.10800870E+02 0.68217395E+02 0.14689130E+03 0.12500000E+03 0.0000E+00 0.9000E+01
      -24  1    1    2    0    0 0.34377061E+02 0.10800870E+02 0.10007484E+03 0.13334403E+03 0.80419002E+02 0.0000E+00 0.9000E+01
#aMCatNLO 1  0  0  1  1 0.62068300D+02 0.00000000D+00  -5  5  0 0.00000000D+00 0.00000000D+00 0.00000000D+00 0.00000000D+00 0.00000000D+00
  <mgrwgt>
 0.2010235572D+00    3    2    0
 0.112037453954729D+03 0.000000000000000D+00 0.000000000000000D+00 0.112037453954729D+03
 0.112037453954729D+03 0.000000000000000D+00 0.000000000000000D+00 -.112037453954729D+03
 0.132472102642234D+03 -.343770606801285D+02 -.108008699143856D+02 -.250083363409451D+02
 0.916028052672247D+02 0.343770606801285D+02 0.108008699143856D+02 0.250083363409451D+02
 0.000000000000000D+00 -.000000000000000D+00 0.000000000000000D+00 -.000000000000000D+00
 0.119648537079527D+03 0.000000000000000D+00 0.000000000000000D+00 0.119648537079527D+03
 0.400168213444191D+03 0.000000000000000D+00 0.000000000000000D+00 -.400168213444191D+03
 0.128005518693823D+03 0.102372902078438D+01 -.115735866707320D+02 -.250083363409451D+02
 0.104506928633424D+03 0.610297896650958D+02 0.102191029407377D+02 0.250083363409451D+02
 0.287304303196470D+03 -.620535186858802D+02 0.135448372999434D+01 -.280519676364664D+03
0.225947157386D-03 0.000000000000D+00 0.000000000000D+00 0.283354243205D-02 0.000000000000D+00  5 1 -2 25 -24 21 0 0.34502120D-01 0.86110075D-02 0.11904238D+05 0.11904238D+05 0.11904238D+05 0.12594321D+01  1  2  2  1  5  1        1 0.196715743728D+00 0.100000000000D+01
-.125418952642D-04 0.000000000000D+00 -.867696577616D-06 0.283354243205D-02 0.000000000000D+00  5 1 -2 25 -24 21 2 0.34502120D-01 0.86110075D-02 0.11904238D+05 0.11904238D+05 0.11904238D+05 0.12594321D+01  1  2  3  1  5  1        1 -.173198823201D-01 0.100000000000D+01
0.156613244067D-04 0.000000000000D+00 0.000000000000D+00 0.283354243205D-02 0.000000000000D+00  5 1 -2 25 -24 21 2 0.34502120D-01 0.86110075D-02 0.11904238D+05 0.11904238D+05 0.11904238D+05 0.12594321D+01  1  2 15  1  5  1        1 0.216276958137D-01 0.100000000000D+01
  </mgrwgt>
  </event>
  <event>
  4     66 0.47139866E-03 0.13402905E+03 0.75467711E-02 0.10430540E+00
        1 -1    0    0  501    0 0.00000000E+00 0.00000000E+00 0.88923454E+03 0.88923459E+03 0.32000000E+00 0.0000E+00 0.9000E+01
       -2 -1    0    0    0  501 0.00000000E+00 0.00000000E+00 -.20357380E+02 0.20359895E+02 0.32000000E+00 0.0000E+00 0.9000E+01
       25  1    1    2    0    0 0.69626836E+02 0.48595965E+02 0.44972697E+03 0.47443525E+03 0.12500000E+03 0.0000E+00 0.9000E+01
      -24  1    1    2    0    0 -.69626836E+02 -.48595965E+02 0.41915019E+03 0.43515924E+03 0.80419002E+02 0.0000E+00 0.9000E+01
#aMCatNLO 1  0  0  2  1 0.35746197D+03 0.00000000D+00  -5  5  0 0.00000000D+00 0.00000000D+00 0.00000000D+00 0.00000000D+00 0.00000000D+00
  <mgrwgt>
 0.2818747704D+00    5    2    0
 0.134549825555064D+03 0.000000000000000D+00 0.000000000000000D+00 0.134549825555064D+03
 0.134549825555064D+03 0.000000000000000D+00 0.000000000000000D+00 -.134549825555064D+03
 0.151565425552780D+03 0.696268359096961D+02 0.485959651991636D+02 -.117309040811489D+02
 0.117534225557349D+03 -.696268359096961D+02 -.485959651991636D+02 0.117309040811489D+02
 0.000000000000000D+00 0.000000000000000D+00 0.000000000000000D+00 -.000000000000000D+00
 0.340878816063005D+03 0.000000000000000D+00 0.000000000000000D+00 0.340878816063005D+03
 0.496365564140623D+03 0.000000000000000D+00 0.000000000000000D+00 -.496365564140623D+03
 0.151866818109546D+03 -.804482752966017D+02 0.287922096053610D+02 -.117309040811489D+02
 0.295563265207453D+03 -.273941483283039D+03 -.755571135754163D+02 0.117309040811489D+02
 0.389814296886629D+03 0.354389758579640D+03 0.467649039700553D+02 -.155486748077618D+03
0.345071835414D-03 0.000000000000D+00 0.000000000000D+00 0.254467681181D-02 0.000000000000D+00  5 1 -2 25 -24 21 0 0.13680551D+00 0.31321025D-02 0.17963787D+05 0.17963787D+05 0.17963787D+05 0.12389931D+01  1  2  2  2  5  2       -2 0.227037344765D+00 0.100000000000D+01
-.191703069878D-04 0.000000000000D+00 -.132516670749D-05 0.254467681181D-02 0.000000000000D+00  5 1 -2 25 -24 21 2 0.13680551D+00 0.31321025D-02 0.17963787D+05 0.17963787D+05 0.17963787D+05 0.12389931D+01  1  2  3  2  5  2       -2 -.193621968253D-01 0.100000000000D+01
0.238289325893D-04 0.000000000000D+00 0.000000000000D+00 0.254467681181D-02 0.000000000000D+00  5 1 -2 25 -24 21 2 0.13680551D+00 0.31321025D-02 0.17963787D+05 0.17963787D+05 0.17963787D+05 0.12389931D+01  1  2 15  2  5  2       -2 0.240674540697D-01 0.100000000000D+01
0.535639188779D-03 0.000000000000D+00 -.232062695807D-03 0.254467681181D-02 0.000000000000D+00  5 1 -2 25 -24 21 2 0.13680551D+00 0.31598650D-01 0.17963787D+05 0.17963787D+05 0.17963787D+05 0.12389931D+01  1  2  5  2  5  2       -2 0.135927136727D-01 0.100000000000D+01
0.109805448528D-03 0.000000000000D+00 -.637698335790D-04 0.254467681181D-02 0.000000000000D+00  5 1 21 25 -24 2 2 0.13680551D+00 0.31598650D-01 0.17963787D+05 0.17963787D+05 0.17963787D+05 0.12389931D+01  1  2  5  4  5  2       -2 0.365394547126D-01 0.100000000000D+01
  </mgrwgt>
  </event>
  <event>
  4     66 -.47139866E-03 0.96811460E+02 0.75467711E-02 0.12571604E+00
        1 -1    0    0  501    0 0.00000000E+00 0.00000000E+00 0.10994359E+02 0.10999014E+02 0.32000000E+00 0.0000E+00 0.9000E+01
       -2 -1    0    0    0  501 0.00000000E+00 0.00000000E+00 -.16657663E+04 0.16657663E+04 0.32000000E+00 0.0000E+00 0.9000E+01
       25  1    1    2    0    0 0.17849345E+02 -.39435342E+02 -.46377046E+03 0.48226734E+03 0.12500000E+03 0.0000E+00 0.9000E+01
      -24  1    1    2    0    0 -.17849345E+02 0.39435342E+02 -.11910014E+04 0.11944980E+04 0.80419002E+02 0.0000E+00 0.9000E+01
#aMCatNLO 1  0  0  1  1 0.11008365D+00 0.00000000D+00  -5  5  0 0.00000000D+00 0.00000000D+00 0.00000000D+00 0.00000000D+00 0.00000000D+00
  <mgrwgt>
 -.2849586023D+00    9    2    0
 0.135343860996707D+03 0.000000000000000D+00 0.000000000000000D+00 0.135343860996707D+03
 0.135343860996707D+03 0.000000000000000D+00 0.000000000000000D+00 -.135343860996707D+03
 0.152259633862556D+03 0.178493447255491D+02 -.394353418937847D+02 0.753939706246361D+02
 0.118428088130858D+03 -.178493447255491D+02 0.394353418937847D+02 -.753939706246361D+02
 0.000000000000000D+00 0.000000000000000D+00 -.000000000000000D+00 0.000000000000000D+00
 0.135460394214580D+03 0.000000000000000D+00 0.000000000000000D+00 0.135460394214580D+03
 0.135369872443564D+03 0.000000000000000D+00 0.000000000000000D+00 -.135369872443564D+03
 0.152246899281334D+03 0.177919519459949D+02 -.394121044881355D+02 0.753939706246361D+02
 0.118440845096561D+03 -.178939893061681D+02 0.394534177604345D+02 -.753939706246361D+02
 0.142522280247886D+00 0.102037360173190D+00 -.413132722990145D-01 0.905217710160994D-01
0.972190199852D-03 0.000000000000D+00 0.000000000000D+00 0.184452281549D-02 0.000000000000D+00  5 1 -2 25 -24 21 0 0.16918003D-02 0.25627209D+00 0.12500547D+05 0.12500547D+05 0.12500547D+05 0.12569494D+01  1  2  2  1  5  1        1 0.420316160113D-01 0.100000000000D+01
-.516135210425D-04 0.000000000000D+00 -.373346635099D-05 0.184452281549D-02 0.000000000000D+00  5 1 -2 25 -24 21 2 0.16918003D-02 0.25627209D+00 0.12500547D+05 0.12500547D+05 0.12500547D+05 0.12569494D+01  1  2  3  1  5  1        1 -.352552601415D-02 0.100000000000D+01
0.669315061913D-04 0.000000000000D+00 0.000000000000D+00 0.184452281549D-02 0.000000000000D+00  5 1 -2 25 -24 21 2 0.16918003D-02 0.25627209D+00 0.12500547D+05 0.12500547D+05 0.12500547D+05 0.12569494D+01  1  2 15  1  5  1        1 0.457184012014D-02 0.100000000000D+01
-.429198399065D+00 0.000000000000D+00 0.000000000000D+00 0.184452281549D-02 0.000000000000D+00  5 1 -2 25 -24 21 2 0.16918003D-02 0.25627209D+00 0.12500547D+05 0.12500547D+05 0.12500547D+05 0.12569494D+01  1  2  4  1  5  1        1 -.293169326675D+02 0.100000000000D+01
-.217330095567D+01 0.000000000000D+00 -.141597346695D+00 0.184452281549D-02 0.000000000000D+00  5 1 -2 25 -24 21 2 0.16936077D-02 0.25627209D+00 0.12500547D+05 0.12500547D+05 0.12500547D+05 0.12569494D+01  1  2  5  1  5  1        1 -.148230009115D+03 0.100000000000D+01
0.217345098623D+01 0.000000000000D+00 0.141597265980D+00 0.184452281549D-02 0.000000000000D+00  5 1 -2 25 -24 21 2 0.16918003D-02 0.25627209D+00 0.12500547D+05 0.12500547D+05 0.12500547D+05 0.12569494D+01  1  2  6  1  5  1        1 0.148460284004D+03 0.100000000000D+01
0.429198551244D+00 0.000000000000D+00 0.000000000000D+00 0.184452281549D-02 0.128244234276D+01  5 1 -2 25 -24 21 2 0.16932570D-02 0.25632135D+00 0.12513068D+05 0.12513068D+05 0.12513068D+05 0.12568987D+01  1  2 11  1  5  1        1 0.292611713994D+02 0.100000000000D+01
-.434340031057D-03 0.000000000000D+00 -.283025487716D-04 0.184452281549D-02 0.000000000000D+00  5 21 -2 25 -24 -1 2 0.16936077D-02 0.25627209D+00 0.12500547D+05 0.12500547D+05 0.12500547D+05 0.12569494D+01  1  2  5  3  5  1        1 -.609912462160D+00 0.100000000000D+01
0.764863638334D-04 0.000000000000D+00 0.000000000000D+00 0.184452281549D-02 0.206728951783D-03  5 21 -2 25 -24 -1 2 0.16932570D-02 0.25632135D+00 0.12513068D+05 0.12513068D+05 0.12513068D+05 0.12568987D+01  1  2 11  3  5  1        1 0.107362308112D+00 0.100000000000D+01
  </mgrwgt>
  </event>
  <event>
  4     66 0.47139866E-03 0.68237557E+02 0.75467711E-02 0.12006379E+00
        1 -1    0    0  501    0 0.00000000E+00 0.00000000E+00 0.38560324E+02 0.38561652E+02 0.32000000E+00 0.0000E+00 0.9000E+01
       -2 -1    0    0    0  501 0.00000000E+00 0.00000000E+00 -.37726539E+03 0.37726552E+03 0.32000000E+00 0.0000E+00 0.9000E+01
       25  1    1    2    0    0 -.33728409E+02 0.48036608E+02 -.16080978E+03 0.21196675E+03 0.12500000E+03 0.0000E+00 0.9000E+01
      -24  1    1    2    0    0 0.33728409E+02 -.48036608E+02 -.17789529E+03 0.20386042E+03 0.80419002E+02 0.0000E+00 0.9000E+01
#aMCatNLO 1  0  0  2  1 0.55582712D+02 0.00000000D+00  -5  5  0 0.00000000D+00 0.00000000D+00 0.00000000D+00 0.00000000D+00 0.00000000D+00
  <mgrwgt>
 0.1241247104D+00    7    2    0
 0.120614177089373D+03 0.000000000000000D+00 0.000000000000000D+00 0.120614177089373D+03
 0.120614177089373D+03 0.000000000000000D+00 0.000000000000000D+00 -.120614177089373D+03
 0.139595743491065D+03 -.337284085440407D+02 0.480366080142726D+02 0.204169132924794D+02
 0.101632610687681D+03 0.337284085440407D+02 -.480366080142726D+02 -.204169132924794D+02
 0.000000000000000D+00 -.000000000000000D+00 0.000000000000000D+00 -.000000000000000D+00
 0.130051983571126D+03 0.000000000000000D+00 0.000000000000000D+00 0.130051983571126D+03
 0.246812006566063D+03 0.000000000000000D+00 0.000000000000000D+00 -.246812006566063D+03
 0.130026478688330D+03 -.112646063997479D+02 0.271687955999702D+02 0.204169132924794D+02
 0.117522621033574D+03 0.519875109447224D+02 -.649984527324325D+02 -.204169132924794D+02
 0.129314890415285D+03 -.407229045449744D+02 0.378296571324623D+02 -.116760022994938D+03
0.460291779097D-03 0.000000000000D+00 0.000000000000D+00 0.270291767715D-02 0.000000000000D+00  5 1 -2 25 -24 21 0 0.59324701D-02 0.58040941D-01 0.14120014D+05 0.14120014D+05 0.14120014D+05 0.12508269D+01  1  2  2  2  5  2       -2 0.142159339622D+00 0.100000000000D+01
-.255648419382D-04 0.000000000000D+00 -.176764162934D-05 0.270291767715D-02 0.000000000000D+00  5 1 -2 25 -24 21 2 0.59324701D-02 0.58040941D-01 0.14120014D+05 0.14120014D+05 0.14120014D+05 0.12508269D+01  1  2  3  2  5  2       -2 -.123532072006D-01 0.100000000000D+01
0.318678884849D-04 0.000000000000D+00 0.000000000000D+00 0.270291767715D-02 0.000000000000D+00  5 1 -2 25 -24 21 2 0.59324701D-02 0.58040941D-01 0.14120014D+05 0.14120014D+05 0.14120014D+05 0.12508269D+01  1  2 15  2  5  2       -2 0.153989072356D-01 0.100000000000D+01
0.482584757687D-03 0.000000000000D+00 0.000000000000D+00 0.270291767715D-02 0.000000000000D+00  5 1 -2 25 -24 21 2 0.59324701D-02 0.11874853D+00 0.22459786D+05 0.22459786D+05 0.22459786D+05 0.12283184D+01  1  2 12  2  5  2       -2 0.468726362165D-01 0.100000000000D+01
-.663114638134D-03 0.000000000000D+00 -.126806950514D-03 0.270291767715D-02 0.000000000000D+00  5 1 -2 25 -24 21 2 0.59324701D-02 0.12334850D+00 0.14120014D+05 0.14120014D+05 0.14120014D+05 0.12508269D+01  1  2  5  2  5  2       -2 -.603686252627D-01 0.100000000000D+01
0.373570917109D-04 0.000000000000D+00 0.000000000000D+00 0.270291767715D-02 0.000000000000D+00  5 1 21 25 -24 2 2 0.59324701D-02 0.11874853D+00 0.22459786D+05 0.22459786D+05 0.22459786D+05 0.12283184D+01  1  2 12  4  5  2       -2 0.427335459679D-01 0.100000000000D+01
-.461860316190D-04 0.000000000000D+00 -.103422818181D-04 0.270291767715D-02 0.000000000000D+00  5 1 21 25 -24 2 2 0.59324701D-02 0.12334850D+00 0.14120014D+05 0.14120014D+05 0.14120014D+05 0.12508269D+01  1  2  5  4  5  2       -2 -.503178861977D-01 0.100000000000D+01
  </mgrwgt>
  </event>
  <event>
  4     66 0.47139866E-03 0.28611417E+03 0.75467711E-02 0.10255807E+00
        1 -1    0    0  501    0 0.00000000E+00 0.00000000E+00 0.11015210E+04 0.11015211E+04 0.32000000E+00 0.0000E+00 0.9000E+01
       -2 -1    0    0    0  501 0.00000000E+00 0.00000000E+00 -.75251259E+02 0.75251940E+02 0.32000000E+00 0.0000E+00 0.9000E+01
       25  1    1    2    0    0 0.26338110E+03 -.38854027E+02 0.59286910E+03 0.66181418E+03 0.12500000E+03 0.0000E+00 0.9000E+01
      -24  1    1    2    0    0 -.26338110E+03 0.38854027E+02 0.43340065E+03 0.51495882E+03 0.80419002E+02 0.0000E+00 0.9000E+01
#aMCatNLO 1  0  0  1  1 0.27830780D+03 0.00000000D+00  -5  5  0 0.00000000D+00 0.00000000D+00 0.00000000D+00 0.00000000D+00 0.00000000D+00
  <mgrwgt>
 0.3044705184D+00    3    2    0
 0.287908441586044D+03 0.000000000000000D+00 0.000000000000000D+00 0.287908441586044D+03
 0.287908441586044D+03 0.000000000000000D+00 0.000000000000000D+00 -.287908441586044D+03
 0.295860434930855D+03 0.263381103245111D+03 -.388540267081452D+02 0.320804616460820D+02
 0.279956448241232D+03 -.263381103245111D+03 0.388540267081452D+02 -.320804616460820D+02
 0.000000000000000D+00 -.000000000000000D+00 -.000000000000000D+00 -.000000000000000D+00
 0.374536563794097D+03 0.000000000000000D+00 0.000000000000000D+00 0.374536563794097D+03
 0.673365835091733D+03 0.000000000000000D+00 0.000000000000000D+00 -.673365835091733D+03
 0.380157164847506D+03 0.345434869134930D+03 0.924124729200630D+02 0.320804616460820D+02
 0.259389795144926D+03 -.197916253804992D+03 0.143582207572277D+03 -.320804616460820D+02
 0.408355438893398D+03 -.147518615329938D+03 -.235994680492340D+03 -.298829271297635D+03
0.481691292474D-02 0.000000000000D+00 0.000000000000D+00 0.199487803317D-02 0.000000000000D+00  5 1 -2 25 -24 21 0 0.16946483D+00 0.11577173D-01 0.81861319D+05 0.81861319D+05 0.81861319D+05 0.11716419D+01  1  2  2  1  5  1        1 0.299053990578D+00 0.100000000000D+01
-.267593557370D-03 0.000000000000D+00 -.184982139533D-04 0.199487803317D-02 0.000000000000D+00  5 1 -2 25 -24 21 2 0.16946483D+00 0.11577173D-01 0.81861319D+05 0.81861319D+05 0.81861319D+05 0.11716419D+01  1  2  3  1  5  1        1 -.228058496745D-01 0.100000000000D+01
0.331148652297D-03 0.000000000000D+00 0.000000000000D+00 0.199487803317D-02 0.000000000000D+00  5 1 -2 25 -24 21 2 0.16946483D+00 0.11577173D-01 0.81861319D+05 0.81861319D+05 0.81861319D+05 0.11716419D+01  1  2 15  1  5  1        1 0.282223774683D-01 0.100000000000D+01
  </mgrwgt>
  </event>
  <event>
  4     66 0.47139866E-03 0.26098659E+03 0.75467711E-02 0.10271691E+00
        1 -1    0    0  501    0 0.00000000E+00 0.00000000E+00 0.17694431E+04 0.17694432E+04 0.32000000E+00 0.0000E+00 0.9000E+01
       -2 -1    0    0    0  501 0.00000000E+00 0.00000000E+00 -.64069582E+02 0.64070381E+02 0.32000000E+00 0.0000E+00 0.9000E+01
       25  1    1    2    0    0 0.17142269E+03 0.16661064E+03 0.29089052E+03 0.39672048E+03 0.12500000E+03 0.0000E+00 0.9000E+01
      -24  1    1    2    0    0 -.17142269E+03 -.16661064E+03 0.14144830E+04 0.14367931E+04 0.80419002E+02 0.0000E+00 0.9000E+01
#aMCatNLO 1  0  0  2  1 0.31303002D+03 0.00000000D+00  -5  5  0 0.00000000D+00 0.00000000D+00 0.00000000D+00 0.00000000D+00 0.00000000D+00
  <mgrwgt>
 0.2109648479D+00    3    2    0
 0.336702005588692D+03 0.000000000000000D+00 0.000000000000000D+00 0.336702005588692D+03
 0.336702005588692D+03 0.000000000000000D+00 0.000000000000000D+00 -.336702005588692D+03
 0.343501626539581D+03 0.171422694119469D+03 0.166610638245616D+03 -.212658229559896D+03
 0.329902384637803D+03 -.171422694119469D+03 -.166610638245616D+03 0.212658229559896D+03
 0.000000000000000D+00 -.000000000000000D+00 -.000000000000000D+00 0.000000000000000D+00
 0.677043652029029D+03 0.000000000000000D+00 0.000000000000000D+00 0.677043652029029D+03
 0.451425058389691D+03 0.000000000000000D+00 0.000000000000000D+00 -.451425058389691D+03
 0.467870999280163D+03 0.199774951361133D+03 0.343721861650558D+03 -.212658229559896D+03
 0.274733039003806D+03 -.150294573052789D+03 -.346272360610304D+02 0.212658229559896D+03
 0.385864672134752D+03 -.494803783083435D+02 -.309094625589528D+03 0.225618593639338D+03
0.721435915093D-02 0.000000000000D+00 0.000000000000D+00 0.120663460453D-02 0.000000000000D+00  5 1 -2 25 -24 21 0 0.27222208D+00 0.98569224D-02 0.68114000D+05 0.68114000D+05 0.68114000D+05 0.11792091D+01  1  2  2  2  5  2       -2 0.205910865696D+00 0.100000000000D+01
-.369177545162D-03 0.000000000000D+00 -.277050387239D-04 0.120663460453D-02 0.000000000000D+00  5 1 -2 25 -24 21 2 0.27222208D+00 0.98569224D-02 0.68114000D+05 0.68114000D+05 0.68114000D+05 0.11792091D+01  1  2  3  2  5  2       -2 -.146520514238D-01 0.100000000000D+01
0.496519218516D-03 0.000000000000D+00 0.000000000000D+00 0.120663460453D-02 0.000000000000D+00  5 1 -2 25 -24 21 2 0.27222208D+00 0.98569224D-02 0.68114000D+05 0.68114000D+05 0.68114000D+05 0.11792091D+01  1  2 15  2  5  2       -2 0.197060336360D-01 0.100000000000D+01
  </mgrwgt>
  </event>
  <event>
  4     66 0.47139866E-03 0.10481978E+03 0.75467711E-02 0.12632249E+00
        1 -1    0    0  501    0 0.00000000E+00 0.00000000E+00 0.50622431E+03 0.50622441E+03 0.32000000E+00 0.0000E+00 0.9000E+01
       -2 -1    0    0    0  501 0.00000000E+00 0.00000000E+00 -.23220800E+02 0.23223005E+02 0.32000000E+00 0.0000E+00 0.9000E+01
       25  1    1    2    0    0 -.52016638E+01 0.19775825E+02 0.35482668E+03 0.37675604E+03 0.12500000E+03 0.0000E+00 0.9000E+01
      -24  1    1    2    0    0 0.52016638E+01 -.19775825E+02 0.12817683E+03 0.15269138E+03 0.80419002E+02 0.0000E+00 0.9000E+01
#aMCatNLO 1  0  0  2  1 0.73908314D+01 0.00000000D+00  -5  5  0 0.00000000D+00 0.00000000D+00 0.00000000D+00 0.00000000D+00 0.00000000D+00
  <mgrwgt>
 0.2261418926D+00    6    2    0
 0.108422985438141D+03 0.000000000000000D+00 0.000000000000000D+00 0.108422985438141D+03
 0.108422985438141D+03 0.000000000000000D+00 0.000000000000000D+00 -.108422985438141D+03
 0.129538858628274D+03 -.520166381688164D+01 0.197758248069986D+02 0.271509731216942D+02
 0.873071122480090D+02 0.520166381688164D+01 -.197758248069986D+02 -.271509731216942D+02
 0.000000000000000D+00 0.000000000000000D+00 0.000000000000000D+00 0.000000000000000D+00
 0.139735283471115D+03 0.000000000000000D+00 0.000000000000000D+00 0.139735283471115D+03
 0.108922947513614D+03 0.000000000000000D+00 0.000000000000000D+00 -.108922947513614D+03
 0.129728773644658D+03 -.960009922751884D+01 0.193705308320090D+02 0.271509731216942D+02
 0.872431127217362D+02 0.224044616039683D+01 -.200486863049539D+02 -.271509731216942D+02
 0.316863446183335D+02 0.735965306712201D+01 0.678155472944894D+00 0.308123359575010D+02
0.196324006853D-03 0.000000000000D+00 0.000000000000D+00 0.289623368263D-02 0.000000000000D+00  5 1 -2 25 -24 21 0 0.77880841D-01 0.35726081D-02 0.10987187D+05 0.10987187D+05 0.10987187D+05 0.12635371D+01  1  2  2  2  5  2       -2 0.232152796546D+00 0.100000000000D+01
-.108917413312D-04 0.000000000000D+00 -.753935879616D-06 0.289623368263D-02 0.000000000000D+00  5 1 -2 25 -24 21 2 0.77880841D-01 0.35726081D-02 0.10987187D+05 0.10987187D+05 0.10987187D+05 0.12635371D+01  1  2  3  2  5  2       -2 -.205624019078D-01 0.100000000000D+01
0.134747800816D-04 0.000000000000D+00 0.000000000000D+00 0.289623368263D-02 0.000000000000D+00  5 1 -2 25 -24 21 2 0.77880841D-01 0.35726081D-02 0.10987187D+05 0.10987187D+05 0.10987187D+05 0.12635371D+01  1  2 15  2  5  2       -2 0.254388931237D-01 0.100000000000D+01
-.662840212157D-05 0.000000000000D+00 0.000000000000D+00 0.289623368263D-02 0.000000000000D+00  5 1 -2 25 -24 21 2 0.77880841D-01 0.35726081D-02 0.10987187D+05 0.10987187D+05 0.10987187D+05 0.12635371D+01  1  2  4  2  5  2       -2 -.125136894354D-01 0.100000000000D+01
0.137852131997D-06 0.000000000000D+00 0.000000000000D+00 0.289623368263D-02 0.463505933210D-03  5 1 -2 25 -24 21 2 0.10037264D+00 0.35890822D-02 0.11789321D+05 0.11789321D+05 0.11789321D+05 0.12599267D+01  1  2 11  2  5  2       -2 0.183659223247D-03 0.100000000000D+01
0.566681416144D-07 0.000000000000D+00 0.000000000000D+00 0.289623368263D-02 0.456757631680D-06  5 1 21 25 -24 2 2 0.10037264D+00 0.35890822D-02 0.11789321D+05 0.11789321D+05 0.11789321D+05 0.12599267D+01  1  2 11  4  5  2       -2 0.144263509681D-02 0.100000000000D+01
  </mgrwgt>
  </event>
  <event>
  4     66 0.47139866E-03 0.14448043E+03 0.75467711E-02 0.11902849E+00
        1 -1    0    0  501    0 0.00000000E+00 0.00000000E+00 0.29942772E+04 0.29942772E+04 0.32000000E+00 0.0000E+00 0.9000E+01
       -2 -1    0    0    0  501 0.00000000E+00 0.00000000E+00 -.84191226E+01 0.84252018E+01 0.32000000E+00 0.0000E+00 0.9000E+01
       25  1    1    2    0    0 -.11603995E+03 0.29110209E+02 0.15508459E+04 0.15604681E+04 0.12500000E+03 0.0000E+00 0.9000E+01
      -24  1    1    2    0    0 0.11603995E+03 -.29110209E+02 0.14350122E+04 0.14422343E+04 0.80419002E+02 0.0000E+00 0.9000E+01
#aMCatNLO 1  0  0  1  1 0.25384997D-01 0.00000000D+00  -5  5  0 0.00000000D+00 0.00000000D+00 0.00000000D+00 0.00000000D+00 0.00000000D+00
  <mgrwgt>
 0.2159216973D+00    9    2    0
 0.158802831400948D+03 0.000000000000000D+00 0.000000000000000D+00 0.158802831400948D+03
 0.158802831400948D+03 0.000000000000000D+00 0.000000000000000D+00 -.158802831400948D+03
 0.173219740666419D+03 -.116039952321398D+03 0.291102089511858D+02 -.820997908689722D+01
 0.144385922135477D+03 0.116039952321398D+03 -.291102089511858D+02 0.820997908689722D+01
 0.000000000000000D+00 0.000000000000000D+00 0.000000000000000D+00 0.000000000000000D+00
 0.158821347761854D+03 0.000000000000000D+00 0.000000000000000D+00 0.158821347761854D+03
 0.158811532534179D+03 0.000000000000000D+00 0.000000000000000D+00 -.158811532534179D+03
 0.173221224852358D+03 -.116045363897305D+03 0.290974655371525D+02 -.820997908689722D+01
 0.144384438964000D+03 0.116035441588303D+03 -.291208310214323D+02 0.820997908689722D+01
 0.272164796745857D-01 0.992230900227327D-02 0.233654842797968D-01 0.981522767495049D-02
0.204075682320D-03 0.000000000000D+00 0.000000000000D+00 0.233967800303D-02 0.000000000000D+00  5 1 -2 25 -24 21 0 0.46065850D+00 0.12957186D-02 0.25150374D+05 0.25150374D+05 0.25150374D+05 0.12230185D+01  1  2  2  1  5  1        1 0.194678207947D-01 0.100000000000D+01
-.113375128077D-04 0.000000000000D+00 -.783704354468D-06 0.233967800303D-02 0.000000000000D+00  5 1 -2 25 -24 21 2 0.46065850D+00 0.12957186D-02 0.25150374D+05 0.25150374D+05 0.25150374D+05 0.12230185D+01  1  2  3  1  5  1        1 -.161774451433D-02 0.100000000000D+01
0.140875625925D-04 0.000000000000D+00 0.000000000000D+00 0.233967800303D-02 0.000000000000D+00  5 1 -2 25 -24 21 2 0.46065850D+00 0.12957186D-02 0.25150374D+05 0.25150374D+05 0.25150374D+05 0.12230185D+01  1  2 15  1  5  1        1 0.201014785967D-02 0.100000000000D+01
-.222013281367D+00 0.000000000000D+00 0.000000000000D+00 0.233967800303D-02 0.000000000000D+00  5 1 -2 25 -24 21 2 0.46065850D+00 0.12957186D-02 0.25150374D+05 0.25150374D+05 0.25150374D+05 0.12230185D+01  1  2  4  1  5  1        1 -.316789735219D+02 0.100000000000D+01
-.238766261170D+01 0.000000000000D+00 -.127681453865D+00 0.233967800303D-02 0.000000000000D+00  5 1 -2 25 -24 21 2 0.46072033D+00 0.12957186D-02 0.25150374D+05 0.25150374D+05 0.25150374D+05 0.12230185D+01  1  2  5  1  5  1        1 -.340477026729D+03 0.100000000000D+01
0.238767972917D+01 0.000000000000D+00 0.127681452714D+00 0.233967800303D-02 0.000000000000D+00  5 1 -2 25 -24 21 2 0.46065850D+00 0.12957186D-02 0.25150374D+05 0.25150374D+05 0.25150374D+05 0.12230185D+01  1  2  6  1  5  1        1 0.340696927920D+03 0.100000000000D+01
0.222013283183D+00 0.000000000000D+00 0.000000000000D+00 0.233967800303D-02 0.289641884646D+02  5 1 -2 25 -24 21 2 0.46071221D+00 0.12957896D-02 0.25154400D+05 0.25154400D+05 0.25154400D+05 0.12230111D+01  1  2 11  1  5  1        1 0.316584406501D+02 0.100000000000D+01
-.600770510940D-04 0.000000000000D+00 -.321269651374D-05 0.233967800303D-02 0.000000000000D+00  5 21 -2 25 -24 -1 2 0.46072033D+00 0.12957186D-02 0.25150374D+05 0.25150374D+05 0.25150374D+05 0.12230185D+01  1  2  5  3  5  1        1 -.370223946286D-02 0.100000000000D+01
0.641604644143D-05 0.000000000000D+00 0.000000000000D+00 0.233967800303D-02 0.633098171666D-03  5 21 -2 25 -24 -1 2 0.46071221D+00 0.12957896D-02 0.25154400D+05 0.25154400D+05 0.25154400D+05 0.12230111D+01  1  2 11  3  5  1        1 0.395393769512D-03 0.100000000000D+01
  </mgrwgt>
  </event>
  <event>
  4     66 0.47139866E-03 0.14709004E+03 0.75467711E-02 0.11310764E+00
        1 -1    0    0  501    0 0.00000000E+00 0.00000000E+00 0.29687821E+04 0.29687821E+04 0.32000000E+00 0.0000E+00 0.9000E+01
       -2 -1    0    0    0  501 0.00000000E+00 0.00000000E+00 -.78503754E+01 0.78568946E+01 0.32000000E+00 0.0000E+00 0.9000E+01
       25  1    1    2    0    0 -.10142613E+03 -.23331944E+02 0.20233002E+04 0.20298276E+04 0.12500000E+03 0.0000E+00 0.9000E+01
      -24  1    1    2    0    0 0.10142613E+03 0.23331944E+02 0.93763150E+03 0.94681133E+03 0.80419002E+02 0.0000E+00 0.9000E+01
#aMCatNLO 1  0  0  2  2 0.12725433D+03 0.00000000D+00  -5  5  0 0.00000000D+00 0.00000000D+00 0.00000000D+00 0.00000000D+00 0.00000000D+00
  <mgrwgt>
 0.1706647976D+00    5    2    0
 0.152695061809644D+03 0.000000000000000D+00 0.000000000000000D+00 0.152695061809644D+03
 0.152695061809644D+03 0.000000000000000D+00 0.000000000000000D+00 -.152695061809644D+03
 0.167688644341223D+03 -.101426128691675D+03 -.233319443053539D+02 0.407779626090947D+02
 0.137701479278066D+03 0.101426128691675D+03 0.233319443053539D+02 -.407779626090947D+02
 0.000000000000000D+00 -.000000000000000D+00 -.000000000000000D+00 -.000000000000000D+00
 0.204667181722131D+03 0.000000000000000D+00 0.000000000000000D+00 0.204667181722131D+03
 0.268576383634572D+03 0.000000000000000D+00 0.000000000000000D+00 -.268576383634572D+03
 0.139740591298891D+03 -.470235502865955D+02 0.532694475839799D+01 0.407779626090947D+02
 0.191101956375918D+03 0.159611078638873D+03 0.539833596353489D+02 -.407779626090947D+02
 0.142401017681894D+03 -.112587528352278D+03 -.593103043937469D+02 -.639092019124410D+02
0.144181630162D-02 0.000000000000D+00 0.000000000000D+00 0.223217533424D-02 0.000000000000D+00  5 1 -2 25 -24 21 0 0.45673620D+00 0.12082529D-02 0.21635480D+05 0.21635480D+05 0.21635480D+05 0.12300855D+01  1  2  2  2  5  2       -2 0.158715577844D+00 0.100000000000D+01
-.799646939181D-04 0.000000000000D+00 -.553695423716D-05 0.223217533424D-02 0.000000000000D+00  5 1 -2 25 -24 21 2 0.45673620D+00 0.12082529D-02 0.21635480D+05 0.21635480D+05 0.21635480D+05 0.12300855D+01  1  2  3  2  5  2       -2 -.133192114802D-01 0.100000000000D+01
0.995440574279D-04 0.000000000000D+00 0.000000000000D+00 0.223217533424D-02 0.000000000000D+00  5 1 -2 25 -24 21 2 0.45673620D+00 0.12082529D-02 0.21635480D+05 0.21635480D+05 0.21635480D+05 0.12300855D+01  1  2 15  2  5  2       -2 0.165804217775D-01 0.100000000000D+01
-.556327095734D-04 0.000000000000D+00 -.425474853761D-03 0.223217533424D-02 0.000000000000D+00  5 1 -2 25 -24 21 2 0.45673620D+00 0.35041561D-02 0.21635480D+05 0.21635480D+05 0.21635480D+05 0.12300855D+01  1  2  5  2  5  2       -2 -.196372979910D-02 0.100000000000D+01
0.158681667448D-04 0.000000000000D+00 -.512157168248D-04 0.223217533424D-02 0.000000000000D+00  5 1 21 25 -24 2 2 0.45673620D+00 0.35041561D-02 0.21635480D+05 0.21635480D+05 0.21635480D+05 0.12300855D+01  1  2  5  4  5  2       -2 0.106517392657D-01 0.100000000000D+01
  </mgrwgt>
  </event>
  <event>
  4     66 0.47139866E-03 0.12567472E+03 0.75467711E-02 0.10966906E+00
        1 -1    0    0  501    0 0.00000000E+00 0.00000000E+00 0.56958001E+03 0.56958010E+03 0.32000000E+00 0.0000E+00 0.9000E+01
       -2 -1    0    0    0  501 0.00000000E+00 0.00000000E+00 -.41512652E+02 0.41513885E+02 0.32000000E+00 0.0000E+00 0.9000E+01
       25  1    1    2    0    0 0.23224663E+02 0.67383302E+02 0.46442279E+03 0.48620307E+03 0.12500000E+03 0.0000E+00 0.9000E+01
      -24  1    1    2    0    0 -.23224663E+02 -.67383302E+02 0.63644566E+02 0.12489092E+03 0.80419002E+02 0.0000E+00 0.9000E+01
#aMCatNLO 1  0  0  2  2 0.22184384D+03 0.00000000D+00  -5  5  0 0.00000000D+00 0.00000000D+00 0.00000000D+00 0.00000000D+00 0.00000000D+00
  <mgrwgt>
 0.2508876018D+00    5    2    0
 0.153769896795927D+03 0.000000000000000D+00 0.000000000000000D+00 0.153769896795927D+03
 0.153769896795927D+03 0.000000000000000D+00 0.000000000000000D+00 -.153769896795927D+03
 0.168658675803471D+03 0.232246632644080D+02 0.673833017126001D+02 0.879821265391095D+02
 0.138881117788384D+03 -.232246632644080D+02 -.673833017126001D+02 -.879821265391095D+02
 0.000000000000000D+00 0.000000000000000D+00 -.000000000000000D+00 -.000000000000000D+00
 0.250419044594575D+03 0.000000000000000D+00 0.000000000000000D+00 0.250419044594575D+03
 0.391907577633490D+03 0.000000000000000D+00 0.000000000000000D+00 -.391907577633490D+03
 0.218300762757182D+03 -.843475390849586D+02 0.131052894208159D+03 0.879821265391095D+02
 0.160902895028440D+03 -.106562665324233D+03 -.180573930237520D+02 -.879821265391095D+02
 0.263122964442443D+03 0.190910204409192D+03 -.112995501184407D+03 -.141488533038916D+03
0.487862408443D-03 0.000000000000D+00 0.000000000000D+00 0.166492698260D-02 0.000000000000D+00  5 1 -2 25 -24 21 0 0.87627796D-01 0.63866636D-02 0.15794135D+05 0.15794135D+05 0.15794135D+05 0.12452765D+01  1  2  2  2  5  2       -2 0.210086125451D+00 0.100000000000D+01
-.257620063485D-04 0.000000000000D+00 -.187352010554D-05 0.166492698260D-02 0.000000000000D+00  5 1 -2 25 -24 21 2 0.87627796D-01 0.63866636D-02 0.15794135D+05 0.15794135D+05 0.15794135D+05 0.12452765D+01  1  2  3  2  5  2       -2 -.172032796790D-01 0.100000000000D+01
0.334633222916D-04 0.000000000000D+00 0.000000000000D+00 0.166492698260D-02 0.000000000000D+00  5 1 -2 25 -24 21 2 0.87627796D-01 0.63866636D-02 0.15794135D+05 0.15794135D+05 0.15794135D+05 0.12452765D+01  1  2 15  2  5  2       -2 0.223460426406D-01 0.100000000000D+01
0.155267892864D-03 0.000000000000D+00 -.166474141028D-03 0.166492698260D-02 0.000000000000D+00  5 1 -2 25 -24 21 2 0.87627796D-01 0.26279615D-01 0.15794135D+05 0.15794135D+05 0.15794135D+05 0.12452765D+01  1  2  5  2  5  2       -2 0.105355020019D-01 0.100000000000D+01
0.274627001991D-04 0.000000000000D+00 -.282034297504D-04 0.166492698260D-02 0.000000000000D+00  5 1 21 25 -24 2 2 0.87627796D-01 0.26279615D-01 0.15794135D+05 0.15794135D+05 0.15794135D+05 0.12452765D+01  1  2  5  4  5  2       -2 0.251232113828D-01 0.100000000000D+01
  </mgrwgt>
  </event>
  <event>
  4     66 0.47139866E-03 0.11621678E+03 0.75467711E-02 0.11467627E+00
        1 -1    0    0  501    0 0.00000000E+00 0.00000000E+00 0.34257668E+03 0.34257682E+03 0.32000000E+00 0.0000E+00 0.9000E+01
       -2 -1    0    0    0  501 0.00000000E+00 0.00000000E+00 -.45953955E+02 0.45955070E+02 0.32000000E+00 0.0000E+00 0.9000E+01
       25  1    1    2    0    0 -.49121042E+02 -.20867105E+02 0.97563980E+02 0.16730823E+03 0.12500000E+03 0.0000E+00 0.9000E+01
      -24  1    1    2    0    0 0.49121042E+02 0.20867105E+02 0.19905874E+03 0.22122367E+03 0.80419002E+02 0.0000E+00 0.9000E+01
#aMCatNLO 1  0  0  1  2 0.13734923D+03 0.00000000D+00  -5  5  0 0.00000000D+00 0.00000000D+00 0.00000000D+00 0.00000000D+00 0.00000000D+00
  <mgrwgt>
 0.2493638364D+00    3    2    0
 0.125471107232672D+03 0.000000000000000D+00 0.000000000000000D+00 0.125471107232672D+03
 0.125471107232672D+03 0.000000000000000D+00 0.000000000000000D+00 -.125471107232672D+03
 0.143717905733955D+03 -.491210421910846D+02 -.208671051353731D+02 -.467067828680677D+02
 0.107224308731390D+03 0.491210421910846D+02 0.208671051353731D+02 0.467067828680677D+02
 0.000000000000000D+00 -.000000000000000D+00 0.000000000000000D+00 -.000000000000000D+00
 0.154465875359085D+03 0.000000000000000D+00 0.000000000000000D+00 0.154465875359085D+03
 0.555644298498619D+03 0.000000000000000D+00 0.000000000000000D+00 -.555644298498619D+03
 0.168606089558115D+03 -.303110781512045D+02 -.985024284548646D+02 -.467067828680677D+02
 0.117465242596662D+03 0.626531512967751D+02 -.349846585037037D+02 0.467067828680677D+02
 0.424038841702928D+03 -.323420731455705D+02 0.133487086958568D+03 -.401178423139534D+03
0.347198143021D-03 0.000000000000D+00 0.000000000000D+00 0.236165782359D-02 0.000000000000D+00  5 1 -2 25 -24 21 0 0.52704201D-01 0.70699365D-02 0.13506339D+05 0.13506339D+05 0.13506339D+05 0.12530494D+01  1  2  2  1  5  1        1 0.244038523255D+00 0.100000000000D+01
-.191511118851D-04 0.000000000000D+00 -.133333228857D-05 0.236165782359D-02 0.000000000000D+00  5 1 -2 25 -24 21 2 0.52704201D-01 0.70699365D-02 0.13506339D+05 0.13506339D+05 0.13506339D+05 0.12530494D+01  1  2  3  1  5  1        1 -.211354431365D-01 0.100000000000D+01
0.239764503623D-04 0.000000000000D+00 0.000000000000D+00 0.236165782359D-02 0.000000000000D+00  5 1 -2 25 -24 21 2 0.52704201D-01 0.70699365D-02 0.13506339D+05 0.13506339D+05 0.13506339D+05 0.12530494D+01  1  2 15  1  5  1        1 0.264607562364D-01 0.100000000000D+01
  </mgrwgt>
  </event>
  <event>
  4     66 0.47139866E-03 0.97052250E+02 0.75467711E-02 0.11901336E+00
        3 -1    0    0  501    0 0.00000000E+00 0.00000000E+00 0.15218747E+04 0.15218748E+04 0.50000000E+00 0.0000E+00 0.9000E+01
       -4 -1    0    0    0  501 0.00000000E+00 0.00000000E+00 -.11861617E+02 0.11962460E+02 0.15500000E+01 0.0000E+00 0.9000E+01
       25  1    1    2    0    0 0.34688977E+02 0.77458492E+02 0.77626991E+03 0.79083698E+03 0.12500000E+03 0.0000E+00 0.9000E+01
      -24  1    1    2    0    0 -.34688977E+02 -.77458492E+02 0.73374321E+03 0.74300031E+03 0.80419002E+02 0.0000E+00 0.9000E+01
#aMCatNLO 1  0  0  1  2 0.45593507D+02 0.00000000D+00  -5  5  0 0.00000000D+00 0.00000000D+00 0.00000000D+00 0.00000000D+00 0.00000000D+00
  <mgrwgt>
 0.1300374871D-01    9    2    0
 0.134645068758133D+03 0.000000000000000D+00 0.000000000000000D+00 0.134645068758133D+03
 0.134645068758133D+03 0.000000000000000D+00 0.000000000000000D+00 -.134645068758133D+03
 0.151648632516714D+03 0.346889770460297D+02 0.774584921246479D+02 -.130063297461359D+02
 0.117641504999553D+03 -.346889770460297D+02 -.774584921246479D+02 0.130063297461359D+02
 0.000000000000000D+00 -.000000000000000D+00 0.000000000000000D+00 0.000000000000000D+00
 0.235762823851077D+03 0.000000000000000D+00 0.000000000000000D+00 0.235762823851077D+03
 0.141800041657322D+03 0.000000000000000D+00 0.000000000000000D+00 -.141800041657322D+03
 0.146499029527667D+03 0.491734339688852D+02 0.570067928477893D+02 -.130063297461359D+02
 0.126623554785732D+03 -.228222170923930D+02 -.942140672390652D+02 0.130063297461359D+02
 0.104440281195000D+03 -.263512168764922D+02 0.372072743912758D+02 0.939627821937549D+02
0.450030066370D-03 0.000000000000D+00 0.000000000000D+00 0.253957626791D-02 0.000000000000D+00  5 3 -4 25 -24 21 0 0.23414234D+00 0.18326277D-02 0.17957362D+05 0.17957362D+05 0.17957362D+05 0.12390104D+01  1  2  2  1  5  1        3 0.106981580691D-01 0.100000000000D+01
-.250009803027D-04 0.000000000000D+00 -.172823395050D-05 0.253957626791D-02 0.000000000000D+00  5 3 -4 25 -24 21 2 0.23414234D+00 0.18326277D-02 0.17957362D+05 0.17957362D+05 0.17957362D+05 0.12390104D+01  1  2  3  1  5  1        3 -.912377241819D-03 0.100000000000D+01
0.311046038100D-04 0.000000000000D+00 0.000000000000D+00 0.253957626791D-02 0.000000000000D+00  5 3 -4 25 -24 21 2 0.23414234D+00 0.18326277D-02 0.17957362D+05 0.17957362D+05 0.17957362D+05 0.12390104D+01  1  2 15  1  5  1        3 0.113512079480D-02 0.100000000000D+01
0.799413049857D-03 0.000000000000D+00 0.000000000000D+00 0.253957626791D-02 0.000000000000D+00  5 3 -4 25 -24 21 2 0.41205349D+00 0.18326277D-02 0.25196457D+05 0.25196457D+05 0.25196457D+05 0.12229333D+01  1  2 12  1  5  1        3 0.345040661512D-02 0.100000000000D+01
-.808022401149D-03 0.000000000000D+00 0.000000000000D+00 0.253957626791D-02 0.000000000000D+00  5 3 -4 25 -24 21 2 0.23414234D+00 0.18326277D-02 0.17957362D+05 0.17957362D+05 0.17957362D+05 0.12390104D+01  1  2  4  1  5  1        3 -.294876937129D-01 0.100000000000D+01
-.925131131403D-03 0.000000000000D+00 -.143786277638D-03 0.253957626791D-02 0.000000000000D+00  5 3 -4 25 -24 21 2 0.41526334D+00 0.18326277D-02 0.17957362D+05 0.17957362D+05 0.17957362D+05 0.12390104D+01  1  2  5  1  5  1        3 -.391456211562D-02 0.100000000000D+01
0.879846793729D-03 0.000000000000D+00 0.123031404700D-03 0.253957626791D-02 0.000000000000D+00  5 3 -4 25 -24 21 2 0.23414234D+00 0.18326277D-02 0.17957362D+05 0.17957362D+05 0.17957362D+05 0.12390104D+01  1  2  6  1  5  1        3 0.321088285806D-01 0.100000000000D+01
0.498324499556D-04 0.000000000000D+00 0.000000000000D+00 0.253957626791D-02 0.000000000000D+00  5 21 -4 25 -24 -3 2 0.41205349D+00 0.18326277D-02 0.25196457D+05 0.25196457D+05 0.25196457D+05 0.12229333D+01  1  2 12  3  5  1        3 0.276154639562D-02 0.100000000000D+01
-.508745474652D-04 0.000000000000D+00 -.906774126404D-05 0.253957626791D-02 0.000000000000D+00  5 21 -4 25 -24 -3 2 0.41526334D+00 0.18326277D-02 0.17957362D+05 0.17957362D+05 0.17957362D+05 0.12390104D+01  1  2  5  3  5  1        3 -.283567867517D-02 0.100000000000D+01
  </mgrwgt>
  </event>
  <event>
  4     66 0.47139866E-03 0.10583519E+03 0.75467711E-02 0.11989526E+00
        1 -1    0    0  501    0 0.00000000E+00 0.00000000E+00 0.92646277E+03 0.92646283E+03 0.32000000E+00 0.0000E+00 0.9000E+01
       -2 -1    0    0    0  501 0.00000000E+00 0.00000000E+00 -.12160025E+02 0.12164235E+02 0.32000000E+00 0.0000E+00 0.9000E+01
       25  1    1    2    0    0 0.19784860E+02 0.15214817E+02 0.58539443E+03 0.59911149E+03 0.12500000E+03 0.0000E+00 0.9000E+01
      -24  1    1    2    0    0 -.19784860E+02 -.15214817E+02 0.32890831E+03 0.33951558E+03 0.80419002E+02 0.0000E+00 0.9000E+01
#aMCatNLO 1  0  0  2  2 0.77202360D+02 0.00000000D+00  -5  5  0 0.00000000D+00 0.00000000D+00 0.00000000D+00 0.00000000D+00 0.00000000D+00
  <mgrwgt>
 0.2368638910D+00    3    2    0
 0.106149952522881D+03 0.000000000000000D+00 0.000000000000000D+00 0.106149952522881D+03
 0.106149952522881D+03 0.000000000000000D+00 0.000000000000000D+00 -.106149952522881D+03
 0.127717988654729D+03 0.197848600661810D+02 0.152148172946731D+02 0.799707902053860D+01
 0.845819163910343D+02 -.197848600661810D+02 -.152148172946731D+02 -.799707902053860D+01
 0.000000000000000D+00 -.000000000000000D+00 -.000000000000000D+00 0.000000000000000D+00
 0.248065221325506D+03 0.000000000000000D+00 0.000000000000000D+00 0.248065221325506D+03
 0.123978774297349D+03 0.000000000000000D+00 0.000000000000000D+00 -.123978774297349D+03
 0.144647745884961D+03 0.486407299333147D+02 0.535546123904743D+02 0.799707902053860D+01
 0.812536797568899D+02 -.221535783099544D+01 0.812917194335243D+01 -.799707902053860D+01
 0.146142569981004D+03 -.464253721023193D+02 -.616837843338268D+02 0.124086447028158D+03
0.180327135171D-03 0.000000000000D+00 0.000000000000D+00 0.311073199740D-02 0.000000000000D+00  5 1 -2 25 -24 21 0 0.14253306D+00 0.18711012D-02 0.11201088D+05 0.11201088D+05 0.11201088D+05 0.12625460D+01  1  2  2  2  5  2       -2 0.231787822182D+00 0.100000000000D+01
-.100180667581D-04 0.000000000000D+00 -.692503680280D-06 0.311073199740D-02 0.000000000000D+00  5 1 -2 25 -24 21 2 0.14253306D+00 0.18711012D-02 0.11201088D+05 0.11201088D+05 0.11201088D+05 0.12625460D+01  1  2  3  2  5  2       -2 -.205261680795D-01 0.100000000000D+01
0.124955089975D-04 0.000000000000D+00 0.000000000000D+00 0.311073199740D-02 0.000000000000D+00  5 1 -2 25 -24 21 2 0.14253306D+00 0.18711012D-02 0.11201088D+05 0.11201088D+05 0.11201088D+05 0.12625460D+01  1  2 15  2  5  2       -2 0.256022368502D-01 0.100000000000D+01
  </mgrwgt>
  </event>
  <event>
  5     66 -.47139866E-03 0.17606446E+03 0.75467711E-02 0.11620099E+00
        1 -1    0    0  502    0 0.00000000E+00 0.00000000E+00 0.15738679E+04 0.15738680E+04 0.32000000E+00 0.0000E+00 0.9000E+01
       -2 -1    0    0    0  501 0.00000000E+00 0.00000000E+00 -.24593573E+02 0.24595655E+02 0.32000000E+00 0.0000E+00 0.9000E+01
       25  1    1    2    0    0 -.95670951E+02 0.11729781E+03 0.55390157E+03 0.58765948E+03 0.12500000E+03 0.0000E+00 0.9000E+01
      -24  1    1    2    0    0 0.91179770E+02 -.98121107E+02 0.88651214E+03 0.90017359E+03 0.80419002E+02 0.0000E+00 0.9000E+01
       21  1    1    2  502  501 0.44911814E+01 -.19176703E+02 0.10886063E+03 0.11063054E+03 0.75000000E+00 0.0000E+00 0.9000E+01
#aMCatNLO 2  0  0  1  2 0.19695600D+02 0.00000000D+00  -5  5  0 0.00000000D+00 0.00000000D+00 0.00000000D+00 0.00000000D+00 0.00000000D+00
  <mgrwgt>
 -.3773597868D-01    2    2    0
 0.186056208926638D+03 0.000000000000000D+00 0.000000000000000D+00 0.186056208926638D+03
 0.186056208926638D+03 0.000000000000000D+00 0.000000000000000D+00 -.186056208926638D+03
 0.198361339857850D+03 -.932368348710189D+02 0.106904480688004D+03 -.600045480131648D+02
 0.173751077995425D+03 0.932368348710189D+02 -.106904480688004D+03 0.600045480131648D+02
 0.000000000000000D+00 0.000000000000000D+00 -.000000000000000D+00 0.000000000000000D+00
 0.200275405922163D+03 0.000000000000000D+00 0.000000000000000D+00 0.200275405922163D+03
 0.193264192677410D+03 0.000000000000000D+00 0.000000000000000D+00 -.193264192677410D+03
 0.205273605247936D+03 -.956709513109922D+02 0.117297810314051D+03 -.600045480131648D+02
 0.167359683903971D+03 0.911797698833145D+02 -.981211069231693D+02 0.600045480131648D+02
 0.209063094476663D+02 0.449118142767762D+01 -.191767033908821D+02 0.701121324475278D+01
-.190371220485D-02 0.000000000000D+00 0.000000000000D+00 0.199301087989D-02 0.000000000000D+00  5 1 -2 25 -24 21 2 0.24622604D+00 0.36425438D-02 0.34639944D+05 0.34639944D+05 0.34639944D+05 0.12083976D+01  1  2 13  1  5  1        1 -.475828812263D+00 0.100000000000D+01
0.178251378563D-02 0.000000000000D+00 0.000000000000D+00 0.199301087989D-02 0.400740671383D-04  5 1 -2 25 -24 21 2 0.24212537D+00 0.37836592D-02 0.34639944D+05 0.34639944D+05 0.34639944D+05 0.12083976D+01  1  2  1  1  5  1        1 0.438092833582D+00 0.100000000000D+01
  </mgrwgt>
  </event>
  <event>
  4     66 0.47139866E-03 0.50221648E+02 0.75467711E-02 0.12145293E+00
        1 -1    0    0  501    0 0.00000000E+00 0.00000000E+00 0.26084217E+02 0.26086180E+02 0.32000000E+00 0.0000E+00 0.9000E+01
       -2 -1    0    0    0  501 0.00000000E+00 0.00000000E+00 -.12479113E+04 0.12479113E+04 0.32000000E+00 0.0000E+00 0.9000E+01
       25  1    1    2    0    0 0.83130357E+02 0.20955806E+02 -.23142759E+03 0.27664694E+03 0.12500000E+03 0.0000E+00 0.9000E+01
      -24  1    1    2    0    0 -.83130357E+02 -.20955806E+02 -.99039945E+03 0.99735054E+03 0.80419002E+02 0.0000E+00 0.9000E+01
#aMCatNLO 1  0  0  2  1 0.87066565D+01 0.00000000D+00  -5  5  0 0.00000000D+00 0.00000000D+00 0.00000000D+00 0.00000000D+00 0.00000000D+00
  <mgrwgt>
 0.1371751010D+00   11    2    0
 0.180421907081054D+03 0.000000000000000D+00 0.000000000000000D+00 0.180421907081054D+03
 0.180421907081054D+03 0.000000000000000D+00 0.000000000000000D+00 -.180421907081054D+03
 0.193111308542590D+03 0.831303566862336D+02 0.209558064405356D+02 0.119654400089080D+03
 0.167732505619518D+03 -.831303566862336D+02 -.209558064405356D+02 -.119654400089080D+03
 0.000000000000000D+00 0.000000000000000D+00 -.000000000000000D+00 -.000000000000000D+00
 0.181887960875587D+03 0.000000000000000D+00 0.000000000000000D+00 0.181887960875587D+03
 0.193881500513444D+03 0.000000000000000D+00 0.000000000000000D+00 -.193881500513444D+03
 0.191360381538570D+03 0.786500472534103D+02 0.221537858829123D+02 0.119654400089080D+03
 0.169588457060337D+03 -.870612112328051D+02 -.199047444528823D+02 -.119654400089080D+03
 0.148206227901230D+02 0.841116397939480D+01 -.224904143002998D+01 -.119935396378573D+02
0.257790657732D-02 0.000000000000D+00 0.000000000000D+00 0.130866916508D-02 0.000000000000D+00  5 1 -2 25 -24 21 0 0.40131106D-02 0.19198650D+00 0.18106424D+05 0.18106424D+05 0.18106424D+05 0.12386102D+01  1  2  2  2  5  2       -2 0.818798522970D-01 0.100000000000D+01
-.128238756054D-03 0.000000000000D+00 -.989984003530D-05 0.130866916508D-02 0.000000000000D+00  5 1 -2 25 -24 21 2 0.40131106D-02 0.19198650D+00 0.18106424D+05 0.18106424D+05 0.18106424D+05 0.12386102D+01  1  2  3  2  5  2       -2 -.624882692929D-02 0.100000000000D+01
0.176710255066D-03 0.000000000000D+00 0.000000000000D+00 0.130866916508D-02 0.000000000000D+00  5 1 -2 25 -24 21 2 0.40131106D-02 0.19198650D+00 0.18106424D+05 0.18106424D+05 0.18106424D+05 0.12386102D+01  1  2 15  2  5  2       -2 0.861074946851D-02 0.100000000000D+01
0.163102925714D-01 0.000000000000D+00 0.000000000000D+00 0.130866916508D-02 0.000000000000D+00  5 1 -2 25 -24 21 2 0.40131106D-02 0.20705383D+00 0.19352044D+05 0.19352044D+05 0.19352044D+05 0.12354038D+01  1  2 12  2  5  2       -2 0.637316447945D+00 0.100000000000D+01
-.166335860691D-01 0.000000000000D+00 0.000000000000D+00 0.130866916508D-02 0.000000000000D+00  5 1 -2 25 -24 21 2 0.40131106D-02 0.19198650D+00 0.18106424D+05 0.18106424D+05 0.18106424D+05 0.12386102D+01  1  2  4  2  5  2       -2 -.810522526556D+00 0.100000000000D+01
-.302711354925D-01 0.000000000000D+00 -.342701680653D-02 0.130866916508D-02 0.000000000000D+00  5 1 -2 25 -24 21 2 0.40131106D-02 0.20704370D+00 0.18106424D+05 0.18106424D+05 0.18106424D+05 0.12386102D+01  1  2  5  2  5  2       -2 -.118834397898D+01 0.100000000000D+01
0.304527906982D-01 0.000000000000D+00 0.341727128661D-02 0.130866916508D-02 0.000000000000D+00  5 1 -2 25 -24 21 2 0.40131106D-02 0.19198650D+00 0.18106424D+05 0.18106424D+05 0.18106424D+05 0.12386102D+01  1  2  6  2  5  2       -2 0.148390568064D+01 0.100000000000D+01
0.112240452874D-04 0.000000000000D+00 0.000000000000D+00 0.130866916508D-02 0.141116986953D-03  5 1 -2 25 -24 21 2 0.40457199D-02 0.20630882D+00 0.19352044D+05 0.19352044D+05 0.19352044D+05 0.12354038D+01  1  2 11  2  5  2       -2 0.438298602398D-03 0.100000000000D+01
0.225663325811D-03 0.000000000000D+00 0.000000000000D+00 0.130866916508D-02 0.000000000000D+00  5 1 21 25 -24 2 2 0.40131106D-02 0.20705383D+00 0.19352044D+05 0.19352044D+05 0.19352044D+05 0.12354038D+01  1  2 12  4  5  2       -2 0.101966765110D+00 0.100000000000D+01
-.377360144346D-03 0.000000000000D+00 -.434745096412D-04 0.130866916508D-02 0.000000000000D+00  5 1 21 25 -24 2 2 0.40131106D-02 0.20704370D+00 0.18106424D+05 0.18106424D+05 0.18106424D+05 0.12386102D+01  1  2  5  4  5  2       -2 -.171890455555D+00 0.100000000000D+01
0.139706249661D-06 0.000000000000D+00 0.000000000000D+00 0.130866916508D-02 0.169271606294D-05  5 1 21 25 -24 2 2 0.40457199D-02 0.20630882D+00 0.19352044D+05 0.19352044D+05 0.19352044D+05 0.12354038D+01  1  2 11  4  5  2       -2 0.630949622029D-04 0.100000000000D+01
  </mgrwgt>
  </event>
  <event>
  4     66 0.47139866E-03 0.20256326E+03 0.75467711E-02 0.10264609E+00
        1 -1    0    0  501    0 0.00000000E+00 0.00000000E+00 0.55324427E+03 0.55324437E+03 0.32000000E+00 0.0000E+00 0.9000E+01
       -2 -1    0    0    0  501 0.00000000E+00 0.00000000E+00 -.12020911E+03 0.12020953E+03 0.32000000E+00 0.0000E+00 0.9000E+01
       25  1    1    2    0    0 -.17321522E+03 0.10488107E+02 0.43216860E+03 0.48219105E+03 0.12500000E+03 0.0000E+00 0.9000E+01
      -24  1    1    2    0    0 0.17321522E+03 -.10488107E+02 0.86657213E+00 0.19126285E+03 0.80419002E+02 0.0000E+00 0.9000E+01
#aMCatNLO 1  0  0  1  1 0.37587484D+03 0.00000000D+00  -5  5  0 0.00000000D+00 0.00000000D+00 0.00000000D+00 0.00000000D+00 0.00000000D+00
  <mgrwgt>
 0.2146260089D+00    3    2    0
 0.257885971190075D+03 0.000000000000000D+00 0.000000000000000D+00 0.257885971190075D+03
 0.257885971190075D+03 0.000000000000000D+00 0.000000000000000D+00 -.257885971190075D+03
 0.266763716655802D+03 -.173215215002555D+03 0.104881072501084D+02 0.159450209852311D+03
 0.249008225724348D+03 0.173215215002555D+03 -.104881072501084D+02 -.159450209852311D+03
 0.000000000000000D+00 -.000000000000000D+00 -.000000000000000D+00 -.000000000000000D+00
 0.489211881178150D+03 0.000000000000000D+00 0.000000000000000D+00 0.489211881178150D+03
 0.526733766070755D+03 0.000000000000000D+00 0.000000000000000D+00 -.526733766070755D+03
 0.206984535109990D+03 -.211456676167217D+02 0.366890868487609D+02 0.159450209852311D+03
 0.431218092351532D+03 0.391562634595503D+03 0.271322867375060D+02 -.159450209852311D+03
 0.377743019787383D+03 -.370416966978781D+03 -.638213735862669D+02 -.375218848926055D+02
0.251435776355D-02 0.000000000000D+00 0.000000000000D+00 0.128965925636D-02 0.000000000000D+00  5 1 -2 25 -24 21 0 0.85114544D-01 0.18493748D-01 0.41031875D+05 0.41031875D+05 0.41031875D+05 0.12008786D+01  1  2  2  1  5  1        1 0.209408992367D+00 0.100000000000D+01
-.129784029574D-03 0.000000000000D+00 -.965579585765D-05 0.128965925636D-02 0.000000000000D+00  5 1 -2 25 -24 21 2 0.85114544D-01 0.18493748D-01 0.41031875D+05 0.41031875D+05 0.41031875D+05 0.12008786D+01  1  2  3  1  5  1        1 -.155879039350D-01 0.100000000000D+01
0.173220621950D-03 0.000000000000D+00 0.000000000000D+00 0.128965925636D-02 0.000000000000D+00  5 1 -2 25 -24 21 2 0.85114544D-01 0.18493748D-01 0.41031875D+05 0.41031875D+05 0.41031875D+05 0.12008786D+01  1  2 15  1  5  1        1 0.208049204775D-01 0.100000000000D+01
  </mgrwgt>
  </event>
  <event>
  5     66 0.47139866E-03 0.11163326E+03 0.75467711E-02 0.12131178E+00
       21 -1    0    0  501  502 0.00000000E+00 0.00000000E+00 0.31020940E+02 0.31030005E+02 0.75000000E+00 0.0000E+00 0.9000E+01
       -4 -1    0    0    0  501 0.00000000E+00 0.00000000E+00 -.70558757E+03 0.70558927E+03 0.15500000E+01 0.0000E+00 0.9000E+01
       25  1    1    2    0    0 0.20146538E+02 0.61831167E+02 -.30841089E+03 0.33907411E+03 0.12500000E+03 0.0000E+00 0.9000E+01
      -24  1    1    2    0    0 -.33756179E+02 -.12344243E+02 -.30621125E+03 0.31862894E+03 0.80419002E+02 0.0000E+00 0.9000E+01
       -3  1    1    2    0  502 0.13609640E+02 -.49486924E+02 -.59944491E+02 0.78916221E+02 0.50000000E+00 0.0000E+00 0.9000E+01
#aMCatNLO 2  0  0  1  2 0.51324243D+02 0.00000000D+00  -5  5  0 0.00000000D+00 0.00000000D+00 0.00000000D+00 0.00000000D+00 0.00000000D+00
  <mgrwgt>
 0.1837508375D-01    2    2    0
 0.114213352734224D+03 0.000000000000000D+00 0.000000000000000D+00 0.114213352734224D+03
 0.114213352734224D+03 0.000000000000000D+00 0.000000000000000D+00 -.114213352734224D+03
 0.134258697316087D+03 0.283011679860126D+02 0.321795726460600D+02 0.237469324325684D+02
 0.941680081523607D+02 -.283011679860126D+02 -.321795726460600D+02 -.237469324325684D+02
 0.000000000000000D+00 0.000000000000000D+00 -.000000000000000D+00 0.000000000000000D+00
 0.168610200534451D+03 0.000000000000000D+00 0.000000000000000D+00 0.168610200534451D+03
 0.129835836192958D+03 0.000000000000000D+00 0.000000000000000D+00 -.129835836192958D+03
 0.142891192868807D+03 0.201465384470079D+02 0.618311668021627D+02 0.237469324325684D+02
 0.912304373122274D+02 -.337561787704748D+02 -.123442428957185D+02 -.237469324325684D+02
 0.643244065463738D+02 0.136096403234669D+02 -.494869239064442D+02 0.387743643414929D+02
-.182969007698D-04 0.000000000000D+00 0.000000000000D+00 0.279836728258D-02 0.000000000000D+00  5 21 -4 25 -24 -3 2 0.49103242D-02 0.95490488D-01 0.19643984D+05 0.19643984D+05 0.19643984D+05 0.12346857D+01  1  2 13  3  5  1        3 -.301757782870D-01 0.100000000000D+01
0.378134064043D-04 0.000000000000D+00 0.000000000000D+00 0.279836728258D-02 0.534266607382D-06  5 21 -4 25 -24 -3 2 0.47732469D-02 0.10855200D+00 0.19643984D+05 0.19643984D+05 0.19643984D+05 0.12346857D+01  1  2  1  3  5  1        3 0.485508620382D-01 0.100000000000D+01
  </mgrwgt>
  </event>
  <event>
  4     66 0.47139866E-03 0.46115809E+02 0.75467711E-02 0.12532300E+00
        1 -1    0    0  501    0 0.00000000E+00 0.00000000E+00 0.63306896E+02 0.63307704E+02 0.32000000E+00 0.0000E+00 0.9000E+01
       -2 -1    0    0    0  501 0.00000000E+00 0.00000000E+00 -.20766648E+03 0.20766673E+03 0.32000000E+00 0.0000E+00 0.9000E+01
       25  1    1    2    0    0 -.86551531E+01 0.27841302E+02 -.13273938E+03 0.18464776E+03 0.12500000E+03 0.0000E+00 0.9000E+01
      -24  1    1    2    0    0 0.86551531E+01 -.27841302E+02 -.11620201E+02 0.86326675E+02 0.80419002E+02 0.0000E+00 0.9000E+01
#aMCatNLO 1  0  0  1  2 0.13881955D+02 0.00000000D+00  -5  5  0 0.00000000D+00 0.00000000D+00 0.00000000D+00 0.00000000D+00 0.00000000D+00
  <mgrwgt>
 0.2849031500D+00    6    2    0
 0.114659770938192D+03 0.000000000000000D+00 0.000000000000000D+00 0.114659770938192D+03
 0.114659770938192D+03 0.000000000000000D+00 0.000000000000000D+00 -.114659770938192D+03
 0.134627070651720D+03 -.865515305596805D+01 0.278413016372995D+02 -.406127861760538D+02
 0.946924712246635D+02 0.865515305596805D+01 -.278413016372995D+02 0.406127861760538D+02
 0.000000000000000D+00 0.000000000000000D+00 -.000000000000000D+00 -.000000000000000D+00
 0.121738699121436D+03 0.000000000000000D+00 0.000000000000000D+00 0.121738699121436D+03
 0.121883342255652D+03 0.000000000000000D+00 0.000000000000000D+00 -.121883342255652D+03
 0.136638263287172D+03 -.112085725852041D+02 0.356368418038811D+02 -.406127861760538D+02
 0.931010693626063D+02 0.688745319164279D+01 -.224445483278537D+02 0.406127861760538D+02
 0.138827087273097D+02 0.432111939356134D+01 -.131922934760274D+02 -.144643134215815D+00
0.327312264461D-03 0.000000000000D+00 0.000000000000D+00 0.258550287393D-02 0.000000000000D+00  5 1 -2 25 -24 21 0 0.97396036D-02 0.31948770D-01 0.11437895D+05 0.11437895D+05 0.11437895D+05 0.12614733D+01  1  2  2  1  5  1        1 0.162201646199D+00 0.100000000000D+01
-.180768357735D-04 0.000000000000D+00 -.125696527883D-05 0.258550287393D-02 0.000000000000D+00  5 1 -2 25 -24 21 2 0.97396036D-02 0.31948770D-01 0.11437895D+05 0.11437895D+05 0.11437895D+05 0.12614733D+01  1  2  3  1  5  1        1 -.142551413776D-01 0.100000000000D+01
0.224997590636D-04 0.000000000000D+00 0.000000000000D+00 0.258550287393D-02 0.000000000000D+00  5 1 -2 25 -24 21 2 0.97396036D-02 0.31948770D-01 0.11437895D+05 0.11437895D+05 0.11437895D+05 0.12614733D+01  1  2 15  1  5  1        1 0.177429971945D-01 0.100000000000D+01
0.570041532624D-03 0.000000000000D+00 0.000000000000D+00 0.258550287393D-02 0.000000000000D+00  5 1 -2 25 -24 21 2 0.10629152D-01 0.31948770D-01 0.13009797D+05 0.13009797D+05 0.13009797D+05 0.12549324D+01  1  2 12  1  5  1        1 0.398492990194D+00 0.100000000000D+01
-.440139598761D-03 0.000000000000D+00 0.000000000000D+00 0.258550287393D-02 0.000000000000D+00  5 1 -2 25 -24 21 2 0.97396036D-02 0.31948770D-01 0.11437895D+05 0.11437895D+05 0.11437895D+05 0.12614733D+01  1  2  4  1  5  1        1 -.347087968539D+00 0.100000000000D+01
0.823327537352D-05 0.000000000000D+00 0.000000000000D+00 0.258550287393D-02 0.000000000000D+00  5 21 -2 25 -24 -1 2 0.10629152D-01 0.31948770D-01 0.13009797D+05 0.13009797D+05 0.13009797D+05 0.12549324D+01  1  2 12  3  5  1        1 0.678086263355D-01 0.100000000000D+01
  </mgrwgt>
  </event>
  <event>
  4     66 0.47139866E-03 0.19201883E+03 0.75467711E-02 0.10505847E+00
        1 -1    0    0  501    0 0.00000000E+00 0.00000000E+00 0.42226851E+02 0.42228064E+02 0.32000000E+00 0.0000E+00 0.9000E+01
       -2 -1    0    0    0  501 0.00000000E+00 0.00000000E+00 -.91803187E+03 0.91803193E+03 0.32000000E+00 0.0000E+00 0.9000E+01
       25  1    1    2    0    0 -.14220236E+03 0.75800866E+02 -.56972261E+03 0.60512489E+03 0.12500000E+03 0.0000E+00 0.9000E+01
      -24  1    1    2    0    0 0.14220236E+03 -.75800866E+02 -.30608241E+03 0.35513510E+03 0.80419002E+02 0.0000E+00 0.9000E+01
#aMCatNLO 1  0  0  1  2 0.28418242D+03 0.00000000D+00  -5  5  0 0.00000000D+00 0.00000000D+00 0.00000000D+00 0.00000000D+00 0.00000000D+00
  <mgrwgt>
 0.2293524947D+00    3    2    0
 0.196891352027329D+03 0.000000000000000D+00 0.000000000000000D+00 0.196891352027329D+03
 0.196891352027329D+03 0.000000000000000D+00 0.000000000000000D+00 -.196891352027329D+03
 0.208519318354106D+03 -.142202357317398D+03 0.758008662027041D+02 -.434514025453212D+02
 0.185263385700552D+03 0.142202357317398D+03 -.758008662027041D+02 0.434514025453212D+02
 0.000000000000000D+00 -.000000000000000D+00 -.000000000000000D+00 -.000000000000000D+00
 0.300365916124270D+03 0.000000000000000D+00 0.000000000000000D+00 0.300365916124270D+03
 0.593589289166197D+03 0.000000000000000D+00 0.000000000000000D+00 -.593589289166197D+03
 0.220522378103787D+03 -.417690890123416D+02 0.171383890912983D+03 -.434514025453212D+02
 0.265095231952145D+03 0.247625648931310D+03 0.245311976385767D+02 0.434514025453212D+02
 0.408337595234535D+03 -.205856559918968D+03 -.195915088551560D+03 -.293223373041927D+03
0.601706770565D-02 0.000000000000D+00 0.000000000000D+00 0.207261629884D-02 0.000000000000D+00  5 1 -2 25 -24 21 0 0.64965362D-02 0.14123577D+00 0.36871231D+05 0.36871231D+05 0.36871231D+05 0.12056090D+01  1  2  2  1  5  1        1 0.224933425303D+00 0.100000000000D+01
-.334026322958D-03 0.000000000000D+00 -.231071243200D-04 0.207261629884D-02 0.000000000000D+00  5 1 -2 25 -24 21 2 0.64965362D-02 0.14123577D+00 0.36871231D+05 0.36871231D+05 0.36871231D+05 0.12056090D+01  1  2  3  1  5  1        1 -.181494191676D-01 0.100000000000D+01
0.415355949880D-03 0.000000000000D+00 0.000000000000D+00 0.207261629884D-02 0.000000000000D+00  5 1 -2 25 -24 21 2 0.64965362D-02 0.14123577D+00 0.36871231D+05 0.36871231D+05 0.36871231D+05 0.12056090D+01  1  2 15  1  5  1        1 0.225684885293D-01 0.100000000000D+01
  </mgrwgt>
  </event>
  <event>
  4     66 0.47139866E-03 0.10389653E+03 0.75467711E-02 0.11543086E+00
        1 -1    0    0  501    0 0.00000000E+00 0.00000000E+00 0.85207298E+03 0.85207304E+03 0.32000000E+00 0.0000E+00 0.9000E+01
       -2 -1    0    0    0  501 0.00000000E+00 0.00000000E+00 -.14366305E+02 0.14369868E+02 0.32000000E+00 0.0000E+00 0.9000E+01
       25  1    1    2    0    0 0.84152419E+01 0.12772695E+02 0.64319700E+03 0.65540929E+03 0.12500000E+03 0.0000E+00 0.9000E+01
      -24  1    1    2    0    0 -.84152419E+01 -.12772695E+02 0.19450968E+03 0.21103362E+03 0.80419002E+02 0.0000E+00 0.9000E+01
#aMCatNLO 1  0  0  1  2 0.13913963D+03 0.00000000D+00  -5  5  0 0.00000000D+00 0.00000000D+00 0.00000000D+00 0.00000000D+00 0.00000000D+00
  <mgrwgt>
 0.2974771602D+00    3    2    0
 0.110646780778483D+03 0.000000000000000D+00 0.000000000000000D+00 0.110646780778483D+03
 0.110646780778483D+03 0.000000000000000D+00 0.000000000000000D+00 -.110646780778483D+03
 0.131338264030860D+03 0.841524187480131D+01 0.127726954782145D+02 0.372931837344193D+02
 0.899552975261063D+02 -.841524187480131D+01 -.127726954782145D+02 -.372931837344193D+02
 0.000000000000000D+00 -.000000000000000D+00 0.000000000000000D+00 -.000000000000000D+00
 0.166856223976337D+03 0.000000000000000D+00 0.000000000000000D+00 0.166856223976337D+03
 0.264565634292571D+03 0.000000000000000D+00 0.000000000000000D+00 -.264565634292571D+03
 0.151589566256555D+03 0.551254624731610D+02 -.540814056023098D+02 0.372931837344193D+02
 0.109811805731686D+03 0.245654848779810D+02 -.599764297315501D+02 -.372931837344193D+02
 0.170020486280667D+03 -.796909473511420D+02 0.114057835333860D+03 -.977094103162337D+02
0.253080070408D-03 0.000000000000D+00 0.000000000000D+00 0.270815068127D-02 0.000000000000D+00  5 1 -2 25 -24 21 0 0.13108843D+00 0.22104795D-02 0.10794488D+05 0.10794488D+05 0.10794488D+05 0.12644488D+01  1  2  2  1  5  1        1 0.291201740452D+00 0.100000000000D+01
-.139922672255D-04 0.000000000000D+00 -.971894107881D-06 0.270815068127D-02 0.000000000000D+00  5 1 -2 25 -24 21 2 0.13108843D+00 0.22104795D-02 0.10794488D+05 0.10794488D+05 0.10794488D+05 0.12644488D+01  1  2  3  1  5  1        1 -.257410702135D-01 0.100000000000D+01
0.174034443479D-04 0.000000000000D+00 0.000000000000D+00 0.270815068127D-02 0.000000000000D+00  5 1 -2 25 -24 21 2 0.13108843D+00 0.22104795D-02 0.10794488D+05 0.10794488D+05 0.10794488D+05 0.12644488D+01  1  2 15  1  5  1        1 0.320164899437D-01 0.100000000000D+01
  </mgrwgt>
  </event>
  <event>
  4     66 0.47139866E-03 0.14873524E+03 0.75467711E-02 0.11918128E+00
        1 -1    0    0  501    0 0.00000000E+00 0.00000000E+00 0.31417062E+03 0.31417078E+03 0.32000000E+00 0.0000E+00 0.9000E+01
       -2 -1    0    0    0  501 0.00000000E+00 0.00000000E+00 -.74180492E+02 0.74181182E+02 0.32000000E+00 0.0000E+00 0.9000E+01
       25  1    1    2    0    0 -.65853458E+01 -.10615853E+03 0.17531402E+03 0.24015205E+03 0.12500000E+03 0.0000E+00 0.9000E+01
      -24  1    1    2    0    0 0.65853458E+01 0.10615853E+03 0.64676109E+02 0.14819992E+03 0.80419002E+02 0.0000E+00 0.9000E+01
#aMCatNLO 1  0  0  2  2 0.16562639D+02 0.00000000D+00  -5  5  0 0.00000000D+00 0.00000000D+00 0.00000000D+00 0.00000000D+00 0.00000000D+00
  <mgrwgt>
 0.4900283004D-01    4    2    0
 0.152661379500609D+03 0.000000000000000D+00 0.000000000000000D+00 0.152661379500609D+03
 0.152661379500609D+03 0.000000000000000D+00 0.000000000000000D+00 -.152661379500609D+03
 0.167658270128066D+03 -.658534579618003D+01 -.106158531361302D+03 0.342241870946810D+02
 0.137664488873152D+03 0.658534579618003D+01 0.106158531361302D+03 -.342241870946810D+02
 0.000000000000000D+00 0.000000000000000D+00 -.000000000000000D+00 0.000000000000000D+00
 0.166163044609460D+03 0.000000000000000D+00 0.000000000000000D+00 0.166163044609460D+03
 0.158051089172665D+03 0.000000000000000D+00 0.000000000000000D+00 -.158051089172665D+03
 0.162492272968837D+03 -.915957181721649D+01 -.975886573143246D+02 0.342241870946810D+02
 0.143279387221092D+03 0.439479045282452D+01 0.113451124642576D+03 -.342241870946810D+02
 0.184424735921953D+02 0.476478136439198D+01 -.158624673282510D+02 0.811195543679431D+01
0.591980107631D-03 0.000000000000D+00 0.000000000000D+00 0.227854101639D-02 0.000000000000D+00  5 1 -2 25 -24 21 0 0.48334007D-01 0.11412449D-01 0.22122171D+05 0.22122171D+05 0.22122171D+05 0.12290332D+01  1  2  2  2  5  2       -2 0.223075160205D+00 0.100000000000D+01
-.328606393686D-04 0.000000000000D+00 -.227335948524D-05 0.227854101639D-02 0.000000000000D+00  5 1 -2 25 -24 21 2 0.48334007D-01 0.11412449D-01 0.22122171D+05 0.22122171D+05 0.22122171D+05 0.12290332D+01  1  2  3  2  5  2       -2 -.187045543791D-01 0.100000000000D+01
0.409393387917D-04 0.000000000000D+00 0.000000000000D+00 0.227854101639D-02 0.000000000000D+00  5 1 -2 25 -24 21 2 0.48334007D-01 0.11412449D-01 0.22122171D+05 0.22122171D+05 0.22122171D+05 0.12290332D+01  1  2 15  2  5  2       -2 0.233030185471D-01 0.100000000000D+01
-.313893419719D-03 0.000000000000D+00 0.000000000000D+00 0.227854101639D-02 0.000000000000D+00  5 1 -2 25 -24 21 2 0.48334007D-01 0.11412449D-01 0.22122171D+05 0.22122171D+05 0.22122171D+05 0.12290332D+01  1  2  4  2  5  2       -2 -.178670794336D+00 0.100000000000D+01
  </mgrwgt>
  </event>
  <event>
  4     66 0.47139866E-03 0.57034038E+02 0.75467711E-02 0.12453242E+00
        1 -1    0    0  501    0 0.00000000E+00 0.00000000E+00 0.81021035E+02 0.81021667E+02 0.32000000E+00 0.0000E+00 0.9000E+01
       -2 -1    0    0    0  501 0.00000000E+00 0.00000000E+00 -.17517213E+03 0.17517242E+03 0.32000000E+00 0.0000E+00 0.9000E+01
       25  1    1    2    0    0 0.29912877E+02 0.21827636E+02 -.48736729E+01 0.13046064E+03 0.12500000E+03 0.0000E+00 0.9000E+01
      -24  1    1    2    0    0 -.29912877E+02 -.21827636E+02 -.89277420E+02 0.12573345E+03 0.80419002E+02 0.0000E+00 0.9000E+01
#aMCatNLO 1  0  0  2  1 0.17563596D+02 0.00000000D+00  -5  5  0 0.00000000D+00 0.00000000D+00 0.00000000D+00 0.00000000D+00 0.00000000D+00
  <mgrwgt>
 0.1935510462D+00    9    2    0
 0.119133309334521D+03 0.000000000000000D+00 0.000000000000000D+00 0.119133309334521D+03
 0.119133309334521D+03 0.000000000000000D+00 0.000000000000000D+00 -.119133309334521D+03
 0.138350823094495D+03 0.299128765714320D+02 0.218276359281344D+02 0.463111690193121D+02
 0.999157955745474D+02 -.299128765714320D+02 -.218276359281344D+02 -.463111690193121D+02
 0.000000000000000D+00 0.000000000000000D+00 0.000000000000000D+00 -.000000000000000D+00
 0.125485716500613D+03 0.000000000000000D+00 0.000000000000000D+00 0.125485716500613D+03
 0.132247675276891D+03 0.000000000000000D+00 0.000000000000000D+00 -.132247675276891D+03
 0.136350601986473D+03 0.198691612932158D+02 0.206634633022249D+02 0.463111690193121D+02
 0.102562481555565D+03 -.373159476145444D+02 -.226857300115806D+02 -.463111690193121D+02
 0.188203082354661D+02 0.174467863213286D+02 0.202226670935572D+01 -.676195877627827D+01
0.283062930454D-03 0.000000000000D+00 0.000000000000D+00 0.243494763915D-02 0.000000000000D+00  5 1 -2 25 -24 21 0 0.12464846D-01 0.26949629D-01 0.11979800D+05 0.11979800D+05 0.11979800D+05 0.12591099D+01  1  2  2  2  5  2       -2 0.137786245011D+00 0.100000000000D+01
-.155883718614D-04 0.000000000000D+00 -.108703618513D-05 0.243494763915D-02 0.000000000000D+00  5 1 -2 25 -24 21 2 0.12464846D-01 0.26949629D-01 0.11979800D+05 0.11979800D+05 0.11979800D+05 0.12591099D+01  1  2  3  2  5  2       -2 -.120295914261D-01 0.100000000000D+01
0.194346106914D-04 0.000000000000D+00 0.000000000000D+00 0.243494763915D-02 0.000000000000D+00  5 1 -2 25 -24 21 2 0.12464846D-01 0.26949629D-01 0.11979800D+05 0.11979800D+05 0.11979800D+05 0.12591099D+01  1  2 15  2  5  2       -2 0.149977450000D-01 0.100000000000D+01
0.409474938613D-03 0.000000000000D+00 0.000000000000D+00 0.243494763915D-02 0.000000000000D+00  5 1 -2 25 -24 21 2 0.12464846D-01 0.30574054D-01 0.14080188D+05 0.14080188D+05 0.14080188D+05 0.12509678D+01  1  2 12  2  5  2       -2 0.250660641267D+00 0.100000000000D+01
-.389054491253D-03 0.000000000000D+00 0.000000000000D+00 0.243494763915D-02 0.000000000000D+00  5 1 -2 25 -24 21 2 0.12464846D-01 0.26949629D-01 0.11979800D+05 0.11979800D+05 0.11979800D+05 0.12591099D+01  1  2  4  2  5  2       -2 -.300234470531D+00 0.100000000000D+01
-.103619975289D-02 0.000000000000D+00 -.235643419347D-03 0.243494763915D-02 0.000000000000D+00  5 1 -2 25 -24 21 2 0.12464846D-01 0.31375893D-01 0.11979800D+05 0.11979800D+05 0.11979800D+05 0.12591099D+01  1  2  5  2  5  2       -2 -.609947938676D+00 0.100000000000D+01
0.106242460516D-02 0.000000000000D+00 0.232944756904D-03 0.243494763915D-02 0.000000000000D+00  5 1 -2 25 -24 21 2 0.12464846D-01 0.26949629D-01 0.11979800D+05 0.11979800D+05 0.11979800D+05 0.12591099D+01  1  2  6  2  5  2       -2 0.819876125277D+00 0.100000000000D+01
0.810310001793D-05 0.000000000000D+00 0.000000000000D+00 0.243494763915D-02 0.000000000000D+00  5 1 21 25 -24 2 2 0.12464846D-01 0.30574054D-01 0.14080188D+05 0.14080188D+05 0.14080188D+05 0.12509678D+01  1  2 12  4  5  2       -2 0.656713824844D-01 0.100000000000D+01
-.222239106728D-04 0.000000000000D+00 -.543515766746D-05 0.243494763915D-02 0.000000000000D+00  5 1 21 25 -24 2 2 0.12464846D-01 0.31375893D-01 0.11979800D+05 0.11979800D+05 0.11979800D+05 0.12591099D+01  1  2  5  4  5  2       -2 -.173229092208D+00 0.100000000000D+01
  </mgrwgt>
  </event>
  <event>
  4     66 0.47139866E-03 0.66856371E+02 0.75467711E-02 0.12725065E+00
        1 -1    0    0  501    0 0.00000000E+00 0.00000000E+00 0.26947049E+02 0.26948949E+02 0.32000000E+00 0.0000E+00 0.9000E+01
       -2 -1    0    0    0  501 0.00000000E+00 0.00000000E+00 -.53594687E+03 0.53594696E+03 0.32000000E+00 0.0000E+00 0.9000E+01
       25  1    1    2    0    0 -.78094771E+01 -.18593029E+01 -.43720264E+03 0.45479182E+03 0.12500000E+03 0.0000E+00 0.9000E+01
      -24  1    1    2    0    0 0.78094771E+01 0.18593029E+01 -.71797171E+02 0.10810409E+03 0.80419002E+02 0.0000E+00 0.9000E+01
#aMCatNLO 1  0  0  2  1 0.15087254D+01 0.00000000D+00  -5  5  0 0.00000000D+00 0.00000000D+00 0.00000000D+00 0.00000000D+00 0.00000000D+00
  <mgrwgt>
 0.1289111385D+00   11    2    0
 0.120177985135938D+03 0.000000000000000D+00 0.000000000000000D+00 0.120177985135938D+03
 0.120177985135938D+03 0.000000000000000D+00 0.000000000000000D+00 -.120177985135938D+03
 0.139228446073669D+03 -.780947712732257D+01 -.185930287285488D+01 -.607874596928780D+02
 0.101127524198207D+03 0.780947712732257D+01 0.185930287285488D+01 0.607874596928780D+02
 0.000000000000000D+00 -.000000000000000D+00 -.000000000000000D+00 -.000000000000000D+00
 0.120471409888472D+03 0.000000000000000D+00 0.000000000000000D+00 0.120471409888472D+03
 0.122135511722454D+03 0.000000000000000D+00 0.000000000000000D+00 -.122135511722454D+03
 0.139194588622345D+03 -.733115482386508D+01 -.112801364318190D+01 -.607874596928780D+02
 0.101166116772093D+03 0.815701144835805D+01 0.239063520688548D+01 0.607874596928780D+02
 0.224621621648759D+01 -.825856624492972D+00 -.126262156370358D+01 -.166410183398242D+01
0.480178413521D-03 0.000000000000D+00 0.000000000000D+00 0.216457955512D-02 0.000000000000D+00  5 1 -2 25 -24 21 0 0.41458534D-02 0.82453517D-01 0.10616851D+05 0.10616851D+05 0.10616851D+05 0.12653056D+01  1  2  2  2  5  2       -2 0.113764055269D+00 0.100000000000D+01
-.259086023161D-04 0.000000000000D+00 -.184401154180D-05 0.216457955512D-02 0.000000000000D+00  5 1 -2 25 -24 21 2 0.41458534D-02 0.82453517D-01 0.10616851D+05 0.10616851D+05 0.10616851D+05 0.12653056D+01  1  2  3  2  5  2       -2 -.982736903065D-02 0.100000000000D+01
0.329901059603D-04 0.000000000000D+00 0.000000000000D+00 0.216457955512D-02 0.000000000000D+00  5 1 -2 25 -24 21 2 0.41458534D-02 0.82453517D-01 0.10616851D+05 0.10616851D+05 0.10616851D+05 0.12653056D+01  1  2 15  2  5  2       -2 0.125134479149D-01 0.100000000000D+01
0.118011935450D-06 0.000000000000D+00 0.000000000000D+00 0.216457955512D-02 0.000000000000D+00  5 1 -2 25 -24 21 2 0.41458534D-02 0.83896266D-01 0.10773981D+05 0.10773981D+05 0.10773981D+05 0.12645469D+01  1  2 12  2  5  2       -2 0.430640631849D-04 0.100000000000D+01
-.124175145871D-01 0.000000000000D+00 0.000000000000D+00 0.216457955512D-02 0.000000000000D+00  5 1 -2 25 -24 21 2 0.41458534D-02 0.82453517D-01 0.10616851D+05 0.10616851D+05 0.10616851D+05 0.12653056D+01  1  2  4  2  5  2       -2 -.471007647584D+01 0.100000000000D+01
-.326030190328D-01 0.000000000000D+00 -.299655197795D-02 0.216457955512D-02 0.000000000000D+00  5 1 -2 25 -24 21 2 0.41458534D-02 0.83925997D-01 0.10616851D+05 0.10616851D+05 0.10616851D+05 0.12653056D+01  1  2  5  2  5  2       -2 -.118954594405D+02 0.100000000000D+01
0.326514142779D-01 0.000000000000D+00 0.299608260667D-02 0.216457955512D-02 0.000000000000D+00  5 1 -2 25 -24 21 2 0.41458534D-02 0.82453517D-01 0.10616851D+05 0.10616851D+05 0.10616851D+05 0.12653056D+01  1  2  6  2  5  2       -2 0.123849790724D+02 0.100000000000D+01
0.124191318822D-01 0.000000000000D+00 0.000000000000D+00 0.216457955512D-02 0.811115120117D-02  5 1 -2 25 -24 21 2 0.41559758D-02 0.83796567D-01 0.10773981D+05 0.10773981D+05 0.10773981D+05 0.12645469D+01  1  2 11  2  5  2       -2 0.452867147968D+01 0.100000000000D+01
0.770667838215D-08 0.000000000000D+00 0.000000000000D+00 0.216457955512D-02 0.000000000000D+00  5 1 21 25 -24 2 2 0.41458534D-02 0.83896266D-01 0.10773981D+05 0.10773981D+05 0.10773981D+05 0.12645469D+01  1  2 12  4  5  2       -2 0.344512487975D-04 0.100000000000D+01
-.105044578004D-03 0.000000000000D+00 -.968632245662D-05 0.216457955512D-02 0.000000000000D+00  5 1 21 25 -24 2 2 0.41458534D-02 0.83925997D-01 0.10616851D+05 0.10616851D+05 0.10616851D+05 0.12653056D+01  1  2  5  4  5  2       -2 -.469730073688D+00 0.100000000000D+01
0.389490514680D-04 0.000000000000D+00 0.000000000000D+00 0.216457955512D-02 0.240294214355D-04  5 1 21 25 -24 2 2 0.41559758D-02 0.83796567D-01 0.10773981D+05 0.10773981D+05 0.10773981D+05 0.12645469D+01  1  2 11  4  5  2       -2 0.173998926931D+00 0.100000000000D+01
  </mgrwgt>
  </event>
  <event>
  5     66 0.47139866E-03 0.10275817E+03 0.75467711E-02 0.12376269E+00
        1 -1    0    0  502    0 0.00000000E+00 0.00000000E+00 0.58261506E+03 0.58261515E+03 0.32000000E+00 0.0000E+00 0.9000E+01
       -2 -1    0    0    0  501 0.00000000E+00 0.00000000E+00 -.29614413E+02 0.29616142E+02 0.32000000E+00 0.0000E+00 0.9000E+01
       25  1    1    2    0    0 -.21042696E+02 0.80647618E+01 0.19759236E+03 0.23489482E+03 0.12500000E+03 0.0000E+00 0.9000E+01
      -24  1    1    2    0    0 -.12060768E+02 0.10161277E+02 0.29418236E+03 0.30538367E+03 0.80419002E+02 0.0000E+00 0.9000E+01
       21  1    1    2  502  501 0.33103464E+02 -.18226039E+02 0.61225933E+02 0.71952798E+02 0.75000000E+00 0.0000E+00 0.9000E+01
#aMCatNLO 2  0  0  1  1 0.37789255D+02 0.00000000D+00  -5  5  0 0.00000000D+00 0.00000000D+00 0.00000000D+00 0.00000000D+00 0.00000000D+00
  <mgrwgt>
 0.8244710095D-01    1    2    0
 0.110261565225256D+03 0.000000000000000D+00 0.000000000000000D+00 0.110261565225256D+03
 0.110261565225256D+03 0.000000000000000D+00 0.000000000000000D+00 -.110261565225256D+03
 0.131025337322362D+03 -.137567586212605D+01 -.276346646459555D+01 -.391549459131304D+02
 0.894977931281508D+02 0.137567586212605D+01 0.276346646459555D+01 0.391549459131304D+02
 0.000000000000000D+00 0.000000000000000D+00 -.000000000000000D+00 -.000000000000000D+00
 0.126301101048880D+03 0.000000000000000D+00 0.000000000000000D+00 0.126301101048880D+03
 0.136605356480009D+03 0.000000000000000D+00 0.000000000000000D+00 -.136605356480009D+03
 0.132913299651229D+03 -.210426959176915D+02 0.806476182121100D+01 -.391549459131304D+02
 0.908242226216240D+02 -.120607680813412D+02 0.101612767052036D+02 0.391549459131304D+02
 0.391689352560362D+02 0.331034639990327D+02 -.182260385264146D+02 -.103042554311290D+02
0.764260281801D-04 0.000000000000D+00 0.000000000000D+00 0.268634668895D-02 0.161654534633D-04  5 1 -2 25 -24 21 2 0.89630753D-01 0.45560775D-02 0.15222024D+05 0.15222024D+05 0.15222024D+05 0.12470957D+01  1  2  1  1  5  1        1 0.824471009546D-01 0.100000000000D+01
  </mgrwgt>
  </event>
  <event>
  5     66 0.47139866E-03 0.12497425E+03 0.75467711E-02 0.11641592E+00
       21 -1    0    0  501  502 0.00000000E+00 0.00000000E+00 0.14093404E+04 0.14093406E+04 0.75000000E+00 0.0000E+00 0.9000E+01
       -2 -1    0    0    0  501 0.00000000E+00 0.00000000E+00 -.12980182E+03 0.12980221E+03 0.32000000E+00 0.0000E+00 0.9000E+01
       25  1    1    2    0    0 0.76387660E+02 0.85511980E+02 0.50997109E+02 0.17712447E+03 0.12500000E+03 0.0000E+00 0.9000E+01
      -24  1    1    2    0    0 0.17858347E+02 -.54576264E+02 -.27099750E+02 0.10246512E+03 0.80419002E+02 0.0000E+00 0.9000E+01
       -1  1    1    2    0  502 -.94246007E+02 -.30935716E+02 0.12556413E+04 0.12595533E+04 0.32000000E+00 0.0000E+00 0.9000E+01
#aMCatNLO 2  0  0  1  2 0.99193389D+02 0.00000000D+00  -5  5  0 0.00000000D+00 0.00000000D+00 0.00000000D+00 0.00000000D+00 0.00000000D+00
  <mgrwgt>
 0.8740955703D-01    2    2    0
 0.130153687865842D+03 0.000000000000000D+00 0.000000000000000D+00 0.130153687865842D+03
 0.130153687865842D+03 0.000000000000000D+00 0.000000000000000D+00 -.130153687865842D+03
 0.147744015492726D+03 0.202213454107761D+02 0.670757069155364D+02 0.359894546426308D+02
 0.112563360238958D+03 -.202213454107761D+02 -.670757069155364D+02 -.359894546426308D+02
 0.000000000000000D+00 -.000000000000000D+00 -.000000000000000D+00 0.000000000000000D+00
 0.129361395956679D+04 0.000000000000000D+00 0.000000000000000D+00 0.129361395956679D+04
 0.141414176648091D+03 0.000000000000000D+00 0.000000000000000D+00 -.141414176648091D+03
 0.173400156332430D+03 0.763876600951650D+02 0.855119801888767D+02 0.359894546426308D+02
 0.105166277890800D+03 0.178583472761959D+02 -.545762644207457D+02 -.359894546426308D+02
 0.115646170199165D+04 -.942460073713610D+02 -.309357157681310D+02 0.115219978291870D+04
-.233820642820D-03 0.000000000000D+00 0.000000000000D+00 0.244156613937D-02 0.000000000000D+00  5 21 -2 25 -24 -1 2 0.20436940D+00 0.18379423D-01 0.33788712D+05 0.33788712D+05 0.33788712D+05 0.12095146D+01  1  2 13  3  5  1        1 -.836885862354D-02 0.100000000000D+01
0.368360751380D-02 0.000000000000D+00 0.000000000000D+00 0.244156613937D-02 0.308980768999D-05  5 21 -2 25 -24 -1 2 0.21682162D+00 0.19969553D-01 0.33788712D+05 0.33788712D+05 0.33788712D+05 0.12095146D+01  1  2  1  3  5  1        1 0.957784156520D-01 0.100000000000D+01
  </mgrwgt>
  </event>
  <event>
  4     66 0.47139866E-03 0.44486719E+02 0.75467711E-02 0.12047397E+00
        1 -1    0    0  501    0 0.00000000E+00 0.00000000E+00 0.51477413E+03 0.51477423E+03 0.32000000E+00 0.0000E+00 0.9000E+01
       -2 -1    0    0    0  501 0.00000000E+00 0.00000000E+00 -.31609673E+02 0.31611293E+02 0.32000000E+00 0.0000E+00 0.9000E+01
       25  1    1    2    0    0 -.11144258E+02 0.73527976E+02 0.26654615E+03 0.30364849E+03 0.12500000E+03 0.0000E+00 0.9000E+01
      -24  1    1    2    0    0 0.11144258E+02 -.73527976E+02 0.21661830E+03 0.24273703E+03 0.80419002E+02 0.0000E+00 0.9000E+01
#aMCatNLO 1  0  0  2  1 0.35691391D+02 0.00000000D+00  -5  5  0 0.00000000D+00 0.00000000D+00 0.00000000D+00 0.00000000D+00 0.00000000D+00
  <mgrwgt>
 0.2167826359D+00    9    2    0
 0.127562970623251D+03 0.000000000000000D+00 0.000000000000000D+00 0.127562970623251D+03
 0.127562970623251D+03 0.000000000000000D+00 0.000000000000000D+00 -.127562970623251D+03
 0.145510545849992D+03 -.111442576741043D+02 0.735279764695325D+02 -.421439802958786D+01
 0.109615395396510D+03 0.111442576741043D+02 -.735279764695325D+02 0.421439802958786D+01
 0.000000000000000D+00 -.000000000000000D+00 -.000000000000000D+00 -.000000000000000D+00
 0.142114206999135D+03 0.000000000000000D+00 0.000000000000000D+00 0.142114206999135D+03
 0.152734029924917D+03 0.000000000000000D+00 0.000000000000000D+00 -.152734029924917D+03
 0.150876868632785D+03 0.655376156389064D+01 0.841315431158044D+02 -.421439802958786D+01
 0.106733537418737D+03 0.240629829235073D+02 -.657878693804389D+02 0.421439802958786D+01
 0.372378308725297D+02 -.306167444873979D+02 -.183436737353655D+02 -.106198229257825D+02
0.223156210862D-03 0.000000000000D+00 0.000000000000D+00 0.265334801231D-02 0.000000000000D+00  5 1 -2 25 -24 21 0 0.79196152D-01 0.48631588D-02 0.16254191D+05 0.16254191D+05 0.16254191D+05 0.12438663D+01  1  2  2  2  5  2       -2 0.165816019743D+00 0.100000000000D+01
-.123975625920D-04 0.000000000000D+00 -.856978608091D-06 0.265334801231D-02 0.000000000000D+00  5 1 -2 25 -24 21 2 0.79196152D-01 0.48631588D-02 0.16254191D+05 0.16254191D+05 0.16254191D+05 0.12438663D+01  1  2  3  2  5  2       -2 -.142528347849D-01 0.100000000000D+01
0.154287331311D-04 0.000000000000D+00 0.000000000000D+00 0.265334801231D-02 0.000000000000D+00  5 1 -2 25 -24 21 2 0.79196152D-01 0.48631588D-02 0.16254191D+05 0.16254191D+05 0.16254191D+05 0.12438663D+01  1  2 15  2  5  2       -2 0.177376143597D-01 0.100000000000D+01
0.157682628643D-03 0.000000000000D+00 0.000000000000D+00 0.265334801231D-02 0.000000000000D+00  5 1 -2 25 -24 21 2 0.79196152D-01 0.60558586D-02 0.21485651D+05 0.21485651D+05 0.21485651D+05 0.12304148D+01  1  2 12  2  5  2       -2 0.128472316425D+00 0.100000000000D+01
-.154748540204D-03 0.000000000000D+00 0.000000000000D+00 0.265334801231D-02 0.000000000000D+00  5 1 -2 25 -24 21 2 0.79196152D-01 0.48631588D-02 0.16254191D+05 0.16254191D+05 0.16254191D+05 0.12438663D+01  1  2  4  2  5  2       -2 -.177906371543D+00 0.100000000000D+01
-.340705808357D-03 0.000000000000D+00 -.110379202728D-03 0.265334801231D-02 0.000000000000D+00  5 1 -2 25 -24 21 2 0.79196152D-01 0.64845910D-02 0.16254191D+05 0.16254191D+05 0.16254191D+05 0.12438663D+01  1  2  5  2  5  2       -2 -.253774024717D+00 0.100000000000D+01
0.361802028162D-03 0.000000000000D+00 0.105962299403D-03 0.265334801231D-02 0.000000000000D+00  5 1 -2 25 -24 21 2 0.79196152D-01 0.48631588D-02 0.16254191D+05 0.16254191D+05 0.16254191D+05 0.12438663D+01  1  2  6  2  5  2       -2 0.415945029029D+00 0.100000000000D+01
0.484045210687D-05 0.000000000000D+00 0.000000000000D+00 0.265334801231D-02 0.000000000000D+00  5 1 21 25 -24 2 2 0.79196152D-01 0.60558586D-02 0.21485651D+05 0.21485651D+05 0.21485651D+05 0.12304148D+01  1  2 12  4  5  2       -2 0.680072806054D-01 0.100000000000D+01
-.104596460185D-04 0.000000000000D+00 -.413983006289D-05 0.265334801231D-02 0.000000000000D+00  5 1 21 25 -24 2 2 0.79196152D-01 0.64845910D-02 0.16254191D+05 0.16254191D+05 0.16254191D+05 0.12438663D+01  1  2  5  4  5  2       -2 -.133262393188D+00 0.100000000000D+01
  </mgrwgt>
  </event>
  <event>
  5     66 0.47139866E-03 0.10697823E+03 0.75467711E-02 0.12526697E+00
       21 -1    0    0  501  502 0.00000000E+00 0.00000000E+00 0.20090485E+03 0.20090625E+03 0.75000000E+00 0.0000E+00 0.9000E+01
       -2 -1    0    0    0  501 0.00000000E+00 0.00000000E+00 -.75987892E+02 0.75988566E+02 0.32000000E+00 0.0000E+00 0.9000E+01
       25  1    1    2    0    0 -.28791721E+02 0.19232350E+02 0.23010860E+02 0.13173210E+03 0.12500000E+03 0.0000E+00 0.9000E+01
      -24  1    1    2    0    0 0.25977165E+02 -.51258807E+01 0.99378758E+02 0.13055436E+03 0.80419002E+02 0.0000E+00 0.9000E+01
       -1  1    1    2    0  502 0.28145556E+01 -.14106469E+02 0.25273416E+01 0.14608355E+02 0.32000000E+00 0.0000E+00 0.9000E+01
#aMCatNLO 2  0  0  1  1 0.14384512D+02 0.00000000D+00  -5  5  0 0.00000000D+00 0.00000000D+00 0.00000000D+00 0.00000000D+00 0.00000000D+00
  <mgrwgt>
 0.3811534725D-01    1    2    0
 0.115767066813238D+03 0.000000000000000D+00 0.000000000000000D+00 0.115767066813238D+03
 0.115767066813238D+03 0.000000000000000D+00 0.000000000000000D+00 -.115767066813238D+03
 0.135543382085187D+03 -.271379881389774D+02 0.109438896531517D+02 -.434829771993508D+02
 0.959907515412888D+02 0.271379881389774D+02 -.109438896531517D+02 0.434829771993508D+02
 0.000000000000000D+00 0.000000000000000D+00 -.000000000000000D+00 -.000000000000000D+00
 0.121155481845689D+03 0.000000000000000D+00 0.000000000000000D+00 0.121155481845689D+03
 0.126005061616846D+03 0.000000000000000D+00 0.000000000000000D+00 -.126005061616846D+03
 0.136801373477967D+03 -.287917210349234D+02 0.192323498092722D+02 -.434829771993508D+02
 0.951791628334114D+02 0.259771654329815D+02 -.512588072888501D+01 0.434829771993508D+02
 0.151800071511563D+02 0.281455560194192D+01 -.141064690803871D+02 -.484957977115717D+01
0.600746493012D-05 0.000000000000D+00 0.000000000000D+00 0.252392573430D-02 0.876211290452D-06  5 21 -2 25 -24 -1 2 0.30908174D-01 0.11690444D-01 0.13082455D+05 0.13082455D+05 0.13082455D+05 0.12546518D+01  1  2  1  3  5  1        1 0.381153472543D-01 0.100000000000D+01
  </mgrwgt>
  </event>
  <event>
  4     66 0.47139866E-03 0.11113881E+03 0.75467711E-02 0.11369986E+00
        1 -1    0    0  501    0 0.00000000E+00 0.00000000E+00 0.16015144E+02 0.16018340E+02 0.32000000E+00 0.0000E+00 0.9000E+01
       -2 -1    0    0    0  501 0.00000000E+00 0.00000000E+00 -.97093197E+03 0.97093202E+03 0.32000000E+00 0.0000E+00 0.9000E+01
       25  1    1    2    0    0 -.38459939E+02 0.15840290E+02 -.76850367E+03 0.77971339E+03 0.12500000E+03 0.0000E+00 0.9000E+01
      -24  1    1    2    0    0 0.38459939E+02 -.15840290E+02 -.18641316E+03 0.20723697E+03 0.80419002E+02 0.0000E+00 0.9000E+01
#aMCatNLO 1  0  0  2  1 0.15912118D+03 0.00000000D+00  -5  5  0 0.00000000D+00 0.00000000D+00 0.00000000D+00 0.00000000D+00 0.00000000D+00
  <mgrwgt>
 0.1707860451D+00    5    2    0
 0.124704525023863D+03 0.000000000000000D+00 0.000000000000000D+00 0.124704525023863D+03
 0.124704525023863D+03 0.000000000000000D+00 0.000000000000000D+00 -.124704525023863D+03
 0.143063490033106D+03 -.384599392644121D+02 0.158402904876281D+02 -.557860237828241D+02
 0.106345560014620D+03 0.384599392644121D+02 -.158402904876281D+02 0.557860237828241D+02
 0.000000000000000D+00 0.000000000000000D+00 -.000000000000000D+00 -.000000000000000D+00
 0.166448077668342D+03 0.000000000000000D+00 0.000000000000000D+00 0.166448077668342D+03
 0.489608828679623D+03 0.000000000000000D+00 0.000000000000000D+00 -.489608828679623D+03
 0.180477504217777D+03 -.410595605699016D+02 0.110223235141174D+03 -.557860237828241D+02
 0.115367767634684D+03 0.366784936346162D+02 0.488376239167859D+02 0.557860237828241D+02
 0.360211634495504D+03 0.438106693528540D+01 -.159060859057960D+03 -.323160751011281D+03
0.139180119938D-02 0.000000000000D+00 0.000000000000D+00 0.222767530547D-02 0.000000000000D+00  5 1 -2 25 -24 21 0 0.24641182D-02 0.14937440D+00 0.12351835D+05 0.12351835D+05 0.12351835D+05 0.12575559D+01  1  2  2  2  5  2       -2 0.167445796295D+00 0.100000000000D+01
-.760753539566D-04 0.000000000000D+00 -.534488307528D-05 0.222767530547D-02 0.000000000000D+00  5 1 -2 25 -24 21 2 0.24641182D-02 0.14937440D+00 0.12351835D+05 0.12351835D+05 0.12351835D+05 0.12575559D+01  1  2  3  2  5  2       -2 -.144742348848D-01 0.100000000000D+01
0.956270143840D-04 0.000000000000D+00 0.000000000000D+00 0.222767530547D-02 0.000000000000D+00  5 1 -2 25 -24 21 2 0.24641182D-02 0.14937440D+00 0.12351835D+05 0.12351835D+05 0.12351835D+05 0.12575559D+01  1  2 15  2  5  2       -2 0.181941692749D-01 0.100000000000D+01
-.534125235501D-03 0.000000000000D+00 -.406439136235D-03 0.222767530547D-02 0.000000000000D+00  5 1 -2 25 -24 21 2 0.24641182D-02 0.61426093D+00 0.12351835D+05 0.12351835D+05 0.12351835D+05 0.12575559D+01  1  2  5  2  5  2       -2 -.179015010717D-03 0.100000000000D+01
-.875740687569D-04 0.000000000000D+00 -.688221985424D-04 0.222767530547D-02 0.000000000000D+00  5 1 21 25 -24 2 2 0.24641182D-02 0.61426093D+00 0.12351835D+05 0.12351835D+05 0.12351835D+05 0.12575559D+01  1  2  5  4  5  2       -2 -.200670561443D-03 0.100000000000D+01
  </mgrwgt>
  </event>
  <event>
  4     66 0.47139866E-03 0.18250839E+03 0.75467711E-02 0.10559222E+00
        1 -1    0    0  501    0 0.00000000E+00 0.00000000E+00 0.17131205E+04 0.17131205E+04 0.32000000E+00 0.0000E+00 0.9000E+01
       -2 -1    0    0    0  501 0.00000000E+00 0.00000000E+00 -.19655325E+02 0.19657930E+02 0.32000000E+00 0.0000E+00 0.9000E+01
       25  1    1    2    0    0 -.14267321E+03 0.45441360E+02 0.81432134E+03 0.83735584E+03 0.12500000E+03 0.0000E+00 0.9000E+01
      -24  1    1    2    0    0 0.14267321E+03 -.45441360E+02 0.87914379E+03 0.89542257E+03 0.80419002E+02 0.0000E+00 0.9000E+01
#aMCatNLO 1  0  0  1  1 0.27622464D+03 0.00000000D+00  -5  5  0 0.00000000D+00 0.00000000D+00 0.00000000D+00 0.00000000D+00 0.00000000D+00
  <mgrwgt>
 0.2616616809D+00    5    2    0
 0.183505374073494D+03 0.000000000000000D+00 0.000000000000000D+00 0.183505374073494D+03
 0.183505374073494D+03 0.000000000000000D+00 0.000000000000000D+00 -.183505374073494D+03
 0.195981553711102D+03 -.142673213642946D+03 0.454413598547688D+02 -.190579725669181D+02
 0.171029194435886D+03 0.142673213642946D+03 -.454413598547688D+02 0.190579725669181D+02
 0.000000000000000D+00 0.000000000000000D+00 -.000000000000000D+00 0.000000000000000D+00
 0.480865929701894D+03 0.000000000000000D+00 0.000000000000000D+00 0.480865929701894D+03
 0.305609416722815D+03 0.000000000000000D+00 0.000000000000000D+00 -.305609416722815D+03
 0.330017612510705D+03 -.233452243021056D+03 0.196019051312219D+03 -.190579725669181D+02
 0.129326420161311D+03 0.908366463775495D+02 0.405413906259762D+02 0.190579725669181D+02
 0.327131313752694D+03 0.142615596643506D+03 -.236560441938195D+03 0.175256512979078D+03
0.134536113563D-02 0.000000000000D+00 0.000000000000D+00 0.219731133734D-02 0.000000000000D+00  5 1 -2 25 -24 21 0 0.26355720D+00 0.30240988D-02 0.33309311D+05 0.33309311D+05 0.33309311D+05 0.12101576D+01  1  2  2  1  5  1        1 0.256766368767D+00 0.100000000000D+01
-.747395882216D-04 0.000000000000D+00 -.516654100253D-05 0.219731133734D-02 0.000000000000D+00  5 1 -2 25 -24 21 2 0.26355720D+00 0.30240988D-02 0.33309311D+05 0.33309311D+05 0.33309311D+05 0.12101576D+01  1  2  3  1  5  1        1 -.208897774717D-01 0.100000000000D+01
0.926901985564D-04 0.000000000000D+00 0.000000000000D+00 0.219731133734D-02 0.000000000000D+00  5 1 -2 25 -24 21 2 0.26355720D+00 0.30240988D-02 0.33309311D+05 0.33309311D+05 0.33309311D+05 0.12101576D+01  1  2 15  1  5  1        1 0.259069880866D-01 0.100000000000D+01
-.115090510946D-03 0.000000000000D+00 -.379837341987D-03 0.219731133734D-02 0.000000000000D+00  5 1 -2 25 -24 21 2 0.74703083D+00 0.30240988D-02 0.33309311D+05 0.33309311D+05 0.33309311D+05 0.12101576D+01  1  2  5  1  5  1        1 -.122510044043D-03 0.100000000000D+01
0.734966820306D-05 0.000000000000D+00 -.445430228979D-04 0.219731133734D-02 0.000000000000D+00  5 21 -2 25 -24 -1 2 0.74703083D+00 0.30240988D-02 0.33309311D+05 0.33309311D+05 0.33309311D+05 0.12101576D+01  1  2  5  3  5  1        1 0.611514022982D-06 0.100000000000D+01
  </mgrwgt>
  </event>
  <event>
  4     66 0.47139866E-03 0.10441052E+03 0.75467711E-02 0.12161095E+00
        1 -1    0    0  501    0 0.00000000E+00 0.00000000E+00 0.42059492E+03 0.42059504E+03 0.32000000E+00 0.0000E+00 0.9000E+01
       -2 -1    0    0    0  501 0.00000000E+00 0.00000000E+00 -.26400720E+02 0.26402660E+02 0.32000000E+00 0.0000E+00 0.9000E+01
       25  1    1    2    0    0 0.17808808E+02 0.43708540E+01 0.26728404E+03 0.29563832E+03 0.12500000E+03 0.0000E+00 0.9000E+01
      -24  1    1    2    0    0 -.17808808E+02 -.43708540E+01 0.12691017E+03 0.15135939E+03 0.80419002E+02 0.0000E+00 0.9000E+01
#aMCatNLO 1  0  0  2  1 0.58964335D+02 0.00000000D+00  -5  5  0 0.00000000D+00 0.00000000D+00 0.00000000D+00 0.00000000D+00 0.00000000D+00
  <mgrwgt>
 0.2393525568D+00    3    2    0
 0.105377746894827D+03 0.000000000000000D+00 0.000000000000000D+00 0.105377746894827D+03
 0.105377746894827D+03 0.000000000000000D+00 0.000000000000000D+00 -.105377746894827D+03
 0.127103833083521D+03 0.178088081707392D+02 0.437085403690881D+01 0.139329239949617D+02
 0.836516607061334D+02 -.178088081707392D+02 -.437085403690881D+01 -.139329239949617D+02
 0.000000000000000D+00 -.000000000000000D+00 -.000000000000000D+00 0.000000000000000D+00
 0.218994384822800D+03 0.000000000000000D+00 0.000000000000000D+00 0.218994384822800D+03
 0.117357058144990D+03 0.000000000000000D+00 0.000000000000000D+00 -.117357058144990D+03
 0.137091825205427D+03 0.520462306950327D+02 0.163166184470111D+02 0.139329239949617D+02
 0.817566861549390D+02 0.362665181071783D+01 0.310818311254275D+01 -.139329239949617D+02
 0.117502931607424D+03 -.556728825057505D+02 -.194248015595538D+02 0.101637326677810D+03
0.189055823248D-03 0.000000000000D+00 0.000000000000D+00 0.310502753317D-02 0.000000000000D+00  5 1 -2 25 -24 21 0 0.64707069D-01 0.40618078D-02 0.10901557D+05 0.10901557D+05 0.10901557D+05 0.12639400D+01  1  2  2  2  5  2       -2 0.234256086700D+00 0.100000000000D+01
-.105020154744D-04 0.000000000000D+00 -.726024140812D-06 0.310502753317D-02 0.000000000000D+00  5 1 -2 25 -24 21 2 0.64707069D-01 0.40618078D-02 0.10901557D+05 0.10901557D+05 0.10901557D+05 0.12639400D+01  1  2  3  2  5  2       -2 -.207886551947D-01 0.100000000000D+01
0.130766508640D-04 0.000000000000D+00 0.000000000000D+00 0.310502753317D-02 0.000000000000D+00  5 1 -2 25 -24 21 2 0.64707069D-01 0.40618078D-02 0.10901557D+05 0.10901557D+05 0.10901557D+05 0.12639400D+01  1  2 15  2  5  2       -2 0.258851252482D-01 0.100000000000D+01
  </mgrwgt>
  </event>
  <event>
  4     66 0.47139866E-03 0.85608701E+02 0.75467711E-02 0.12221583E+00
        1 -1    0    0  501    0 0.00000000E+00 0.00000000E+00 0.51771181E+02 0.51772170E+02 0.32000000E+00 0.0000E+00 0.9000E+01
       -2 -1    0    0    0  501 0.00000000E+00 0.00000000E+00 -.33476382E+03 0.33476398E+03 0.32000000E+00 0.0000E+00 0.9000E+01
       25  1    1    2    0    0 -.31197085E+02 -.71150719E+02 -.19467882E+03 0.24405025E+03 0.12500000E+03 0.0000E+00 0.9000E+01
      -24  1    1    2    0    0 0.31197085E+02 0.71150719E+02 -.88313826E+02 0.14248590E+03 0.80419002E+02 0.0000E+00 0.9000E+01
#aMCatNLO 1  0  0  2  1 0.81668016D+01 0.00000000D+00  -5  5  0 0.00000000D+00 0.00000000D+00 0.00000000D+00 0.00000000D+00 0.00000000D+00
  <mgrwgt>
 0.1749706398D+00   11    2    0
 0.131648543943772D+03 0.000000000000000D+00 0.000000000000000D+00 0.131648543943772D+03
 0.131648543943772D+03 0.000000000000000D+00 0.000000000000000D+00 -.131648543943772D+03
 0.149039135155971D+03 -.311970845720698D+02 -.711507185762450D+02 -.234942752245530D+02
 0.114257952731573D+03 0.311970845720698D+02 0.711507185762450D+02 0.234942752245530D+02
 0.000000000000000D+00 0.000000000000000D+00 0.000000000000000D+00 -.000000000000000D+00
 0.133683792402584D+03 0.000000000000000D+00 0.000000000000000D+00 0.133683792402584D+03
 0.140167591564013D+03 0.000000000000000D+00 0.000000000000000D+00 -.140167591564013D+03
 0.150747649688462D+03 -.355891188129097D+02 -.726724675540120D+02 -.234942752245530D+02
 0.112676064387992D+03 0.278723817366272D+02 0.699987778435958D+02 0.234942752245530D+02
 0.104276698901435D+02 0.771673707628254D+01 0.267368971041620D+01 -.648379916142892D+01
0.506543902104D-03 0.000000000000D+00 0.000000000000D+00 0.252520748570D-02 0.000000000000D+00  5 1 -2 25 -24 21 0 0.79648849D-02 0.51502214D-01 0.16769220D+05 0.16769220D+05 0.16769220D+05 0.12423399D+01  1  2  2  2  5  2       -2 0.134599072601D+00 0.100000000000D+01
-.281320288584D-04 0.000000000000D+00 -.194526196015D-05 0.252520748570D-02 0.000000000000D+00  5 1 -2 25 -24 21 2 0.79648849D-02 0.51502214D-01 0.16769220D+05 0.16769220D+05 0.16769220D+05 0.12423399D+01  1  2  3  2  5  2       -2 -.115373724075D-01 0.100000000000D+01
0.350328759081D-04 0.000000000000D+00 0.000000000000D+00 0.252520748570D-02 0.000000000000D+00  5 1 -2 25 -24 21 2 0.79648849D-02 0.51502214D-01 0.16769220D+05 0.16769220D+05 0.16769220D+05 0.12423399D+01  1  2 15  2  5  2       -2 0.143675146180D-01 0.100000000000D+01
0.200650654201D-02 0.000000000000D+00 0.000000000000D+00 0.252520748570D-02 0.000000000000D+00  5 1 -2 25 -24 21 2 0.79648849D-02 0.55216240D-01 0.17858556D+05 0.17858556D+05 0.17858556D+05 0.12392778D+01  1  2 12  2  5  2       -2 0.713663546079D+00 0.100000000000D+01
-.202804555608D-02 0.000000000000D+00 0.000000000000D+00 0.252520748570D-02 0.000000000000D+00  5 1 -2 25 -24 21 2 0.79648849D-02 0.51502214D-01 0.16769220D+05 0.16769220D+05 0.16769220D+05 0.12423399D+01  1  2  4  2  5  2       -2 -.831732291958D+00 0.100000000000D+01
-.559530229966D-02 0.000000000000D+00 -.798811564334D-03 0.252520748570D-02 0.000000000000D+00  5 1 -2 25 -24 21 2 0.79648849D-02 0.55495720D-01 0.16769220D+05 0.16769220D+05 0.16769220D+05 0.12423399D+01  1  2  5  2  5  2       -2 -.197584136042D+01 0.100000000000D+01
0.564144162704D-02 0.000000000000D+00 0.796589136834D-03 0.252520748570D-02 0.000000000000D+00  5 1 -2 25 -24 21 2 0.79648849D-02 0.51502214D-01 0.16769220D+05 0.16769220D+05 0.16769220D+05 0.12423399D+01  1  2  6  2  5  2       -2 0.231364091420D+01 0.100000000000D+01
0.734898936688D-05 0.000000000000D+00 0.000000000000D+00 0.252520748570D-02 0.310790512324D-03  5 1 -2 25 -24 21 2 0.80880197D-02 0.54834950D-01 0.17858556D+05 0.17858556D+05 0.17858556D+05 0.12392778D+01  1  2 11  2  5  2       -2 0.259669131453D-02 0.100000000000D+01
0.262774398501D-04 0.000000000000D+00 0.000000000000D+00 0.252520748570D-02 0.000000000000D+00  5 1 21 25 -24 2 2 0.79648849D-02 0.55216240D-01 0.17858556D+05 0.17858556D+05 0.17858556D+05 0.12392778D+01  1  2 12  4  5  2       -2 0.115618580622D+00 0.100000000000D+01
-.687687662115D-04 0.000000000000D+00 -.100346046248D-04 0.252520748570D-02 0.000000000000D+00  5 1 21 25 -24 2 2 0.79648849D-02 0.55495720D-01 0.16769220D+05 0.16769220D+05 0.16769220D+05 0.12423399D+01  1  2  5  4  5  2       -2 -.300793669620D+00 0.100000000000D+01
0.889498994836D-07 0.000000000000D+00 0.000000000000D+00 0.252520748570D-02 0.335594257552D-05  5 1 21 25 -24 2 2 0.80880197D-02 0.54834950D-01 0.17858556D+05 0.17858556D+05 0.17858556D+05 0.12392778D+01  1  2 11  4  5  2       -2 0.389014784833D-03 0.100000000000D+01
  </mgrwgt>
  </event>
  <event>
  4     66 0.47139866E-03 0.10398255E+03 0.75467711E-02 0.12225430E+00
        1 -1    0    0  501    0 0.00000000E+00 0.00000000E+00 0.11577081E+04 0.11577082E+04 0.32000000E+00 0.0000E+00 0.9000E+01
       -2 -1    0    0    0  501 0.00000000E+00 0.00000000E+00 -.93532899E+01 0.93587623E+01 0.32000000E+00 0.0000E+00 0.9000E+01
       25  1    1    2    0    0 -.15802908E+02 -.11428164E+01 0.71956888E+03 0.73051722E+03 0.12500000E+03 0.0000E+00 0.9000E+01
      -24  1    1    2    0    0 0.15802908E+02 0.11428164E+01 0.42878595E+03 0.43654970E+03 0.80419002E+02 0.0000E+00 0.9000E+01
#aMCatNLO 1  0  0  1  1 0.52293960D+02 0.00000000D+00  -5  5  0 0.00000000D+00 0.00000000D+00 0.00000000D+00 0.00000000D+00 0.00000000D+00
  <mgrwgt>
 0.2233609486D+00    7    2    0
 0.104074967078693D+03 0.000000000000000D+00 0.000000000000000D+00 0.104074967078693D+03
 0.104074967078693D+03 0.000000000000000D+00 0.000000000000000D+00 -.104074967078693D+03
 0.126073014021876D+03 -.158029077695572D+02 -.114281639489120D+01 0.428566695796674D+01
 0.820769201355089D+02 0.158029077695572D+02 0.114281639489120D+01 -.428566695796674D+01
 0.000000000000000D+00 -.000000000000000D+00 -.000000000000000D+00 0.000000000000000D+00
 0.133849601311436D+03 0.000000000000000D+00 0.000000000000000D+00 0.133849601311436D+03
 0.133068580451576D+03 0.000000000000000D+00 0.000000000000000D+00 -.133068580451576D+03
 0.127567843047160D+03 0.144952303413012D+01 0.250616544027685D+02 0.428566695796674D+01
 0.870505469311150D+02 0.273068111875134D+02 0.186159310304533D+02 -.428566695796674D+01
 0.522997917847365D+02 -.287563342216435D+02 -.436775854332218D+02 0.781020859859580D+00
0.128916200285D-03 0.000000000000D+00 0.000000000000D+00 0.319013614326D-02 0.000000000000D+00  5 1 -2 25 -24 21 0 0.17810937D+00 0.14393920D-02 0.10812371D+05 0.10812371D+05 0.10812371D+05 0.12643634D+01  1  2  2  1  5  1        1 0.164897361987D+00 0.100000000000D+01
-.716200425489D-05 0.000000000000D+00 -.495072153511D-06 0.319013614326D-02 0.000000000000D+00  5 1 -2 25 -24 21 2 0.17810937D+00 0.14393920D-02 0.10812371D+05 0.10812371D+05 0.10812371D+05 0.12643634D+01  1  2  3  1  5  1        1 -.146448398635D-01 0.100000000000D+01
0.893110087153D-05 0.000000000000D+00 0.000000000000D+00 0.319013614326D-02 0.000000000000D+00  5 1 -2 25 -24 21 2 0.17810937D+00 0.14393920D-02 0.10812371D+05 0.10812371D+05 0.10812371D+05 0.12643634D+01  1  2 15  1  5  1        1 0.182622820950D-01 0.100000000000D+01
-.504583763036D-04 0.000000000000D+00 0.000000000000D+00 0.319013614326D-02 0.000000000000D+00  5 1 -2 25 -24 21 2 0.17810937D+00 0.14393920D-02 0.10812371D+05 0.10812371D+05 0.10812371D+05 0.12643634D+01  1  2  4  1  5  1        1 -.103177101610D+00 0.100000000000D+01
-.109268995831D-03 0.000000000000D+00 -.536740556155D-04 0.319013614326D-02 0.000000000000D+00  5 1 -2 25 -24 21 2 0.26697858D+00 0.14393920D-02 0.10812371D+05 0.10812371D+05 0.10812371D+05 0.12643634D+01  1  2  5  1  5  1        1 -.941544071979D-01 0.100000000000D+01
0.124750423204D-03 0.000000000000D+00 0.495585069364D-04 0.319013614326D-02 0.000000000000D+00  5 1 -2 25 -24 21 2 0.17810937D+00 0.14393920D-02 0.10812371D+05 0.10812371D+05 0.10812371D+05 0.12643634D+01  1  2  6  1  5  1        1 0.255089204880D+00 0.100000000000D+01
-.338510370285D-05 0.000000000000D+00 -.257723014547D-05 0.319013614326D-02 0.000000000000D+00  5 21 -2 25 -24 -1 2 0.26697858D+00 0.14393920D-02 0.10812371D+05 0.10812371D+05 0.10812371D+05 0.12643634D+01  1  2  5  3  5  1        1 -.291155171815D-02 0.100000000000D+01
  </mgrwgt>
  </event>
  <event>
  4     66 0.47139866E-03 0.16950381E+03 0.75467711E-02 0.11742300E+00
        1 -1    0    0  501    0 0.00000000E+00 0.00000000E+00 0.10266956E+03 0.10267006E+03 0.32000000E+00 0.0000E+00 0.9000E+01
       -2 -1    0    0    0  501 0.00000000E+00 0.00000000E+00 -.28272757E+03 0.28272775E+03 0.32000000E+00 0.0000E+00 0.9000E+01
       25  1    1    2    0    0 0.18009148E+02 0.13245201E+03 -.11653081E+03 0.21696151E+03 0.12500000E+03 0.0000E+00 0.9000E+01
      -24  1    1    2    0    0 -.18009148E+02 -.13245201E+03 -.63527196E+02 0.16843630E+03 0.80419002E+02 0.0000E+00 0.9000E+01
#aMCatNLO 1  0  0  1  1 0.79273660D+01 0.00000000D+00  -5  5  0 0.00000000D+00 0.00000000D+00 0.00000000D+00 0.00000000D+00 0.00000000D+00
  <mgrwgt>
 0.1713959863D+00    6    2    0
 0.170375014038108D+03 0.000000000000000D+00 0.000000000000000D+00 0.170375014038108D+03
 0.170375014038108D+03 0.000000000000000D+00 0.000000000000000D+00 -.170375014038108D+03
 0.183812700452005D+03 0.180091478970300D+02 0.132452014761458D+03 -.171535193214693D+02
 0.156937327624211D+03 -.180091478970300D+02 -.132452014761458D+03 0.171535193214693D+02
 0.000000000000000D+00 0.000000000000000D+00 0.000000000000000D+00 -.000000000000000D+00
 0.170860714933994D+03 0.000000000000000D+00 0.000000000000000D+00 0.170860714933994D+03
 0.206159875162141D+03 0.000000000000000D+00 0.000000000000000D+00 -.206159875162141D+03
 0.180794579576512D+03 0.167579020936002D+02 0.128400192743457D+03 -.171535193214693D+02
 0.160047648976621D+03 -.190969652376247D+02 -.135974617786461D+03 0.171535193214693D+02
 0.361783615430028D+02 0.233906314402449D+01 0.757442504300406D+01 -.352991602281472D+02
0.119756481690D-02 0.000000000000D+00 0.000000000000D+00 0.225709715803D-02 0.000000000000D+00  5 1 -2 25 -24 21 0 0.15795369D-01 0.43496601D-01 0.28731541D+05 0.28731541D+05 0.28731541D+05 0.12168725D+01  1  2  2  1  5  1        1 0.181940015669D+00 0.100000000000D+01
-.665292527200D-04 0.000000000000D+00 -.459896422295D-05 0.225709715803D-02 0.000000000000D+00  5 1 -2 25 -24 21 2 0.15795369D-01 0.43496601D-01 0.28731541D+05 0.28731541D+05 0.28731541D+05 0.12168725D+01  1  2  3  1  5  1        1 -.149669052905D-01 0.100000000000D+01
0.824882979704D-04 0.000000000000D+00 0.000000000000D+00 0.225709715803D-02 0.000000000000D+00  5 1 -2 25 -24 21 2 0.15795369D-01 0.43496601D-01 0.28731541D+05 0.28731541D+05 0.28731541D+05 0.12168725D+01  1  2 15  1  5  1        1 0.185571683556D-01 0.100000000000D+01
-.639313350003D-04 0.000000000000D+00 0.000000000000D+00 0.225709715803D-02 0.000000000000D+00  5 1 -2 25 -24 21 2 0.15795369D-01 0.43496601D-01 0.28731541D+05 0.28731541D+05 0.28731541D+05 0.12168725D+01  1  2  4  1  5  1        1 -.143824587970D-01 0.100000000000D+01
0.391996984225D-06 0.000000000000D+00 0.000000000000D+00 0.225709715803D-02 0.287539486098D-03  5 1 -2 25 -24 21 2 0.15840398D-01 0.52632446D-01 0.30107822D+05 0.30107822D+05 0.30107822D+05 0.12147349D+01  1  2 11  1  5  1        1 0.601995913166D-04 0.100000000000D+01
0.127490326029D-06 0.000000000000D+00 0.000000000000D+00 0.225709715803D-02 0.168782964381D-06  5 21 -2 25 -24 -1 2 0.15840398D-01 0.52632446D-01 0.30107822D+05 0.30107822D+05 0.30107822D+05 0.12147349D+01  1  2 11  3  5  1        1 0.187966810145D-03 0.100000000000D+01
  </mgrwgt>
  </event>
  <event>
  4     66 0.47139866E-03 0.16793927E+03 0.75467711E-02 0.10151590E+00
        1 -1    0    0  501    0 0.00000000E+00 0.00000000E+00 0.46775651E+03 0.46775662E+03 0.32000000E+00 0.0000E+00 0.9000E+01
       -2 -1    0    0    0  501 0.00000000E+00 0.00000000E+00 -.10295741E+03 0.10295791E+03 0.32000000E+00 0.0000E+00 0.9000E+01
       25  1    1    2    0    0 -.13060255E+03 -.16920821E+02 0.77371293E+01 0.18173663E+03 0.12500000E+03 0.0000E+00 0.9000E+01
      -24  1    1    2    0    0 0.13060255E+03 0.16920821E+02 0.35706197E+03 0.38897790E+03 0.80419002E+02 0.0000E+00 0.9000E+01
#aMCatNLO 1  0  0  2  1 0.43758686D+03 0.00000000D+00  -5  5  0 0.00000000D+00 0.00000000D+00 0.00000000D+00 0.00000000D+00 0.00000000D+00
  <mgrwgt>
 0.2655934257D+00    3    2    0
 0.219451982142607D+03 0.000000000000000D+00 0.000000000000000D+00 0.219451982142607D+03
 0.219451982142607D+03 0.000000000000000D+00 0.000000000000000D+00 -.219451982142607D+03
 0.229884542327548D+03 -.130602545930622D+03 -.169208205941694D+02 -.140991360118293D+03
 0.209019421957666D+03 0.130602545930622D+03 0.169208205941694D+02 0.140991360118293D+03
 0.000000000000000D+00 -.000000000000000D+00 0.000000000000000D+00 0.000000000000000D+00
 0.939986711387150D+03 0.000000000000000D+00 0.000000000000000D+00 0.939986711387150D+03
 0.385859611239795D+03 0.000000000000000D+00 0.000000000000000D+00 -.385859611239795D+03
 0.308652214697833D+03 -.753708187495760D+02 -.232555080982742D+03 -.140991360118293D+03
 0.311121091575979D+03 0.183947574964445D+03 -.191347442381005D+03 0.140991360118293D+03
 0.706073016353133D+03 -.108576756214869D+03 0.423902523363747D+03 0.554127100147355D+03
0.192424332999D-02 0.000000000000D+00 0.000000000000D+00 0.127675234333D-02 0.000000000000D+00  5 1 -2 25 -24 21 0 0.71962587D-01 0.15839648D-01 0.28203600D+05 0.28203600D+05 0.28203600D+05 0.12177230D+01  1  2  2  2  5  2       -2 0.258678546543D+00 0.100000000000D+01
-.975995318809D-04 0.000000000000D+00 -.738960105205D-05 0.127675234333D-02 0.000000000000D+00  5 1 -2 25 -24 21 2 0.71962587D-01 0.15839648D-01 0.28203600D+05 0.28203600D+05 0.28203600D+05 0.12177230D+01  1  2  3  2  5  2       -2 -.194556251951D-01 0.100000000000D+01
0.132288160869D-03 0.000000000000D+00 0.000000000000D+00 0.127675234333D-02 0.000000000000D+00  5 1 -2 25 -24 21 2 0.71962587D-01 0.15839648D-01 0.28203600D+05 0.28203600D+05 0.28203600D+05 0.12177230D+01  1  2 15  2  5  2       -2 0.263705043050D-01 0.100000000000D+01
  </mgrwgt>
  </event>
  <event>
  4     66 0.47139866E-03 0.26594969E+03 0.75467711E-02 0.10539700E+00
        1 -1    0    0  501    0 0.00000000E+00 0.00000000E+00 0.92232878E+03 0.92232883E+03 0.32000000E+00 0.0000E+00 0.9000E+01
       -2 -1    0    0    0  501 0.00000000E+00 0.00000000E+00 -.78198262E+02 0.78198917E+02 0.32000000E+00 0.0000E+00 0.9000E+01
       25  1    1    2    0    0 0.76551903E+02 0.23215736E+03 0.36590943E+03 0.45746251E+03 0.12500000E+03 0.0000E+00 0.9000E+01
      -24  1    1    2    0    0 -.76551903E+02 -.23215736E+03 0.47822109E+03 0.54306525E+03 0.80419002E+02 0.0000E+00 0.9000E+01
#aMCatNLO 1  0  0  2  1 0.18181817D+03 0.00000000D+00  -5  5  0 0.00000000D+00 0.00000000D+00 0.00000000D+00 0.00000000D+00 0.00000000D+00
  <mgrwgt>
 0.3101032983D+00    3    2    0
 0.268560725474900D+03 0.000000000000000D+00 0.000000000000000D+00 0.268560725474900D+03
 0.268560725474900D+03 0.000000000000000D+00 0.000000000000000D+00 -.268560725474900D+03
 0.277085598228945D+03 0.765519026910911D+02 0.232157363435420D+03 -.373389012020971D+02
 0.260035852720856D+03 -.765519026910911D+02 -.232157363435420D+03 0.373389012020971D+02
 0.000000000000000D+00 -.000000000000000D+00 0.000000000000000D+00 0.000000000000000D+00
 0.421435895812645D+03 0.000000000000000D+00 0.000000000000000D+00 0.421435895812645D+03
 0.343458435525246D+03 0.000000000000000D+00 0.000000000000000D+00 -.343458435525246D+03
 0.236011786569484D+03 0.117087464261459D+03 0.158028148029272D+03 -.373389012020971D+02
 0.331048440790977D+03 -.298552433769168D+02 -.317553657034039D+03 0.373389012020971D+02
 0.197834103977430D+03 -.872322208845417D+02 0.159525509004767D+03 0.779774602873996D+02
0.382855795552D-02 0.000000000000D+00 0.000000000000D+00 0.200029020745D-02 0.000000000000D+00  5 1 -2 25 -24 21 0 0.14189679D+00 0.12030557D-01 0.70729236D+05 0.70729236D+05 0.70729236D+05 0.11776460D+01  1  2  2  2  5  2       -2 0.304519290563D+00 0.100000000000D+01
-.212672979630D-03 0.000000000000D+00 -.147026706317D-04 0.200029020745D-02 0.000000000000D+00  5 1 -2 25 -24 21 2 0.14189679D+00 0.12030557D-01 0.70729236D+05 0.70729236D+05 0.70729236D+05 0.11776460D+01  1  2  3  2  5  2       -2 -.234596456446D-01 0.100000000000D+01
0.263294697670D-03 0.000000000000D+00 0.000000000000D+00 0.200029020745D-02 0.000000000000D+00  5 1 -2 25 -24 21 2 0.14189679D+00 0.12030557D-01 0.70729236D+05 0.70729236D+05 0.70729236D+05 0.11776460D+01  1  2 15  2  5  2       -2 0.290436533979D-01 0.100000000000D+01
  </mgrwgt>
  </event>
  <event>
  4     66 0.47139866E-03 0.14270404E+03 0.75467711E-02 0.11457022E+00
        1 -1    0    0  501    0 0.00000000E+00 0.00000000E+00 0.29875053E+04 0.29875053E+04 0.32000000E+00 0.0000E+00 0.9000E+01
       -2 -1    0    0    0  501 0.00000000E+00 0.00000000E+00 -.73571354E+01 0.73640913E+01 0.32000000E+00 0.0000E+00 0.9000E+01
       25  1    1    2    0    0 0.68057745E+02 0.70312642E+02 0.12404765E+04 0.12505929E+04 0.12500000E+03 0.0000E+00 0.9000E+01
      -24  1    1    2    0    0 -.68057745E+02 -.70312642E+02 0.17396716E+04 0.17442765E+04 0.80419002E+02 0.0000E+00 0.9000E+01
#aMCatNLO 1  0  0  1  1 0.10540561D+03 0.00000000D+00  -5  5  0 0.00000000D+00 0.00000000D+00 0.00000000D+00 0.00000000D+00 0.00000000D+00
  <mgrwgt>
 0.3203899672D+00    3    2    0
 0.148289994947364D+03 0.000000000000000D+00 0.000000000000000D+00 0.148289994947364D+03
 0.148289994947364D+03 0.000000000000000D+00 0.000000000000000D+00 -.148289994947364D+03
 0.163728973229210D+03 0.680577451629521D+02 0.703126418317065D+02 -.400805738066736D+02
 0.132851016665519D+03 -.680577451629521D+02 -.703126418317065D+02 0.400805738066736D+02
 0.000000000000000D+00 0.000000000000000D+00 -.000000000000000D+00 -.000000000000000D+00
 0.202412973315219D+03 0.000000000000000D+00 0.000000000000000D+00 0.202412973315219D+03
 0.219051725293217D+03 0.000000000000000D+00 0.000000000000000D+00 -.219051725293217D+03
 0.168879553725135D+03 0.216598896785419D+02 0.104017789098029D+03 -.400805738066736D+02
 0.145874369186644D+03 -.106939069977515D+03 -.420677851437745D+02 0.400805738066736D+02
 0.106710775696657D+03 0.852791802989728D+02 -.619500039542543D+02 -.166387519779985D+02
0.267389346503D-02 0.000000000000D+00 0.000000000000D+00 0.226196799381D-02 0.000000000000D+00  5 1 -2 25 -24 21 0 0.45961674D+00 0.11324034D-02 0.20364444D+05 0.20364444D+05 0.20364444D+05 0.12329636D+01  1  2  2  1  5  1        1 0.313876663917D+00 0.100000000000D+01
-.148283352510D-03 0.000000000000D+00 -.102684549580D-04 0.226196799381D-02 0.000000000000D+00  5 1 -2 25 -24 21 2 0.45961674D+00 0.11324034D-02 0.20364444D+05 0.20364444D+05 0.20364444D+05 0.12329636D+01  1  2  3  1  5  1        1 -.264610956009D-01 0.100000000000D+01
0.184782765121D-03 0.000000000000D+00 0.000000000000D+00 0.226196799381D-02 0.000000000000D+00  5 1 -2 25 -24 21 2 0.45961674D+00 0.11324034D-02 0.20364444D+05 0.20364444D+05 0.20364444D+05 0.12329636D+01  1  2 15  1  5  1        1 0.329743988822D-01 0.100000000000D+01
  </mgrwgt>
  </event>
  <event>
  4     66 0.47139866E-03 0.21501635E+03 0.75467711E-02 0.10818756E+00
        1 -1    0    0  501    0 0.00000000E+00 0.00000000E+00 0.27000057E+04 0.27000057E+04 0.32000000E+00 0.0000E+00 0.9000E+01
       -2 -1    0    0    0  501 0.00000000E+00 0.00000000E+00 -.17540805E+02 0.17543724E+02 0.32000000E+00 0.0000E+00 0.9000E+01
       25  1    1    2    0    0 -.10863392E+03 0.15329047E+03 0.16158950E+04 0.16315762E+04 0.12500000E+03 0.0000E+00 0.9000E+01
      -24  1    1    2    0    0 0.10863392E+03 -.15329047E+03 0.10665699E+04 0.10859733E+04 0.80419002E+02 0.0000E+00 0.9000E+01
#aMCatNLO 1  0  0  1  1 0.15625699D+03 0.00000000D+00  -5  5  0 0.00000000D+00 0.00000000D+00 0.00000000D+00 0.00000000D+00 0.00000000D+00
  <mgrwgt>
 0.2154610146D+00    3    2    0
 0.217633330185885D+03 0.000000000000000D+00 0.000000000000000D+00 0.217633330185885D+03
 0.217633330185885D+03 0.000000000000000D+00 0.000000000000000D+00 -.217633330185885D+03
 0.228153070013658D+03 -.108633921022348D+03 0.153290466337577D+03 0.336084437303416D+02
 0.207113590358112D+03 0.108633921022348D+03 -.153290466337577D+03 -.336084437303416D+02
 0.000000000000000D+00 -.000000000000000D+00 0.000000000000000D+00 -.000000000000000D+00
 0.290173681061438D+03 0.000000000000000D+00 0.000000000000000D+00 0.290173681061438D+03
 0.334793581823277D+03 0.000000000000000D+00 0.000000000000000D+00 -.334793581823277D+03
 0.191775075359587D+03 -.375108727801410D+02 0.136440780056667D+03 0.336084437303416D+02
 0.270689316052416D+03 0.189559192493965D+03 -.172462386976449D+03 -.336084437303416D+02
 0.162502871472713D+03 -.152048319713824D+03 0.360216069197820D+02 -.446199007618395D+02
0.412629442236D-02 0.000000000000D+00 0.000000000000D+00 0.207046703511D-02 0.000000000000D+00  5 1 -2 25 -24 21 0 0.41538572D+00 0.26988114D-02 0.46232029D+05 0.46232029D+05 0.46232029D+05 0.11956664D+01  1  2  2  1  5  1        1 0.211418650049D+00 0.100000000000D+01
-.229197787537D-03 0.000000000000D+00 -.158460570601D-04 0.207046703511D-02 0.000000000000D+00  5 1 -2 25 -24 21 2 0.41538572D+00 0.26988114D-02 0.46232029D+05 0.46232029D+05 0.46232029D+05 0.11956664D+01  1  2  3  1  5  1        1 -.167885649364D-01 0.100000000000D+01
0.284384220541D-03 0.000000000000D+00 0.000000000000D+00 0.207046703511D-02 0.000000000000D+00  5 1 -2 25 -24 21 2 0.41538572D+00 0.26988114D-02 0.46232029D+05 0.46232029D+05 0.46232029D+05 0.11956664D+01  1  2 15  1  5  1        1 0.208309294987D-01 0.100000000000D+01
  </mgrwgt>
  </event>
  <event>
  4     66 0.47139866E-03 0.46464995E+02 0.75467711E-02 0.11535014E+00
        1 -1    0    0  501    0 0.00000000E+00 0.00000000E+00 0.13470053E+04 0.13470054E+04 0.32000000E+00 0.0000E+00 0.9000E+01
       -2 -1    0    0    0  501 0.00000000E+00 0.00000000E+00 -.59560432E+02 0.59561291E+02 0.32000000E+00 0.0000E+00 0.9000E+01
       25  1    1    2    0    0 -.79614074E+02 0.65976167E+02 0.61258996E+02 0.17340392E+03 0.12500000E+03 0.0000E+00 0.9000E+01
      -24  1    1    2    0    0 0.79614074E+02 -.65976167E+02 0.12261859E+04 0.12331627E+04 0.80419002E+02 0.0000E+00 0.9000E+01
#aMCatNLO 1  0  0  2  1 0.84809533D+02 0.00000000D+00  -5  5  0 0.00000000D+00 0.00000000D+00 0.00000000D+00 0.00000000D+00 0.00000000D+00
  <mgrwgt>
 0.4361509096D-01    9    2    0
 0.283246977674887D+03 0.000000000000000D+00 0.000000000000000D+00 0.283246977674887D+03
 0.283246977674887D+03 0.000000000000000D+00 0.000000000000000D+00 -.283246977674887D+03
 0.291329838894452D+03 -.796140741097965D+02 0.659761670720499D+02 -.241985164033641D+03
 0.275164116455321D+03 0.796140741097965D+02 -.659761670720499D+02 0.241985164033641D+03
 0.000000000000000D+00 -.000000000000000D+00 -.000000000000000D+00 -.000000000000000D+00
 0.306241296664898D+03 0.000000000000000D+00 0.000000000000000D+00 0.306241296664898D+03
 0.377047327322596D+03 0.000000000000000D+00 0.000000000000000D+00 -.377047327322596D+03
 0.286250534939709D+03 -.386802269821212D+02 0.791289402272862D+02 -.241985164033641D+03
 0.286556638823059D+03 0.119423930134457D+03 -.531845522501692D+02 0.241985164033641D+03
 0.110481450224726D+03 -.807437031523357D+02 -.259443879771169D+02 -.708060306576983D+02
0.123851142486D-02 0.000000000000D+00 0.000000000000D+00 0.581751813108D-03 0.000000000000D+00  5 1 -2 25 -24 21 0 0.20723166D+00 0.91632124D-02 0.21493496D+05 0.21493496D+05 0.21493496D+05 0.12303975D+01  1  2  2  2  5  2       -2 0.764864487884D-01 0.100000000000D+01
-.325227755143D-04 0.000000000000D+00 -.475620997899D-05 0.581751813108D-03 0.000000000000D+00  5 1 -2 25 -24 21 2 0.20723166D+00 0.91632124D-02 0.21493496D+05 0.21493496D+05 0.21493496D+05 0.12303975D+01  1  2  3  2  5  2       -2 -.304062571579D-02 0.100000000000D+01
0.846640846855D-04 0.000000000000D+00 0.000000000000D+00 0.581751813108D-03 0.000000000000D+00  5 1 -2 25 -24 21 2 0.20723166D+00 0.91632124D-02 0.21493496D+05 0.21493496D+05 0.21493496D+05 0.12303975D+01  1  2 15  2  5  2       -2 0.791543123327D-02 0.100000000000D+01
0.555014829257D-03 0.000000000000D+00 0.000000000000D+00 0.581751813108D-03 0.000000000000D+00  5 1 -2 25 -24 21 2 0.20723166D+00 0.12476278D-01 0.38261093D+05 0.38261093D+05 0.38261093D+05 0.12039654D+01  1  2 12  2  5  2       -2 0.301893182162D-01 0.100000000000D+01
-.125491508336D-02 0.000000000000D+00 0.000000000000D+00 0.581751813108D-03 0.000000000000D+00  5 1 -2 25 -24 21 2 0.20723166D+00 0.91632124D-02 0.21493496D+05 0.21493496D+05 0.21493496D+05 0.12303975D+01  1  2  4  2  5  2       -2 -.117324767437D+00 0.100000000000D+01
-.116659789678D-02 0.000000000000D+00 -.510645844413D-03 0.581751813108D-03 0.000000000000D+00  5 1 -2 25 -24 21 2 0.20723166D+00 0.13204883D-01 0.21493496D+05 0.21493496D+05 0.21493496D+05 0.12303975D+01  1  2  5  2  5  2       -2 -.610597939713D-01 0.100000000000D+01
0.129786514222D-02 0.000000000000D+00 0.478356360545D-03 0.581751813108D-03 0.000000000000D+00  5 1 -2 25 -24 21 2 0.20723166D+00 0.91632124D-02 0.21493496D+05 0.21493496D+05 0.21493496D+05 0.12303975D+01  1  2  6  2  5  2       -2 0.121340262775D+00 0.100000000000D+01
0.218981471219D-04 0.000000000000D+00 0.000000000000D+00 0.581751813108D-03 0.000000000000D+00  5 1 21 25 -24 2 2 0.20723166D+00 0.12476278D-01 0.38261093D+05 0.38261093D+05 0.38261093D+05 0.12039654D+01  1  2 12  4  5  2       -2 0.178165786565D-01 0.100000000000D+01
-.366213420272D-04 0.000000000000D+00 -.227559998606D-04 0.581751813108D-03 0.000000000000D+00  5 1 21 25 -24 2 2 0.20723166D+00 0.13204883D-01 0.21493496D+05 0.21493496D+05 0.21493496D+05 0.12303975D+01  1  2  5  4  5  2       -2 -.287077615839D-01 0.100000000000D+01
  </mgrwgt>
  </event>
  <event>
  5     66 0.47139866E-03 0.15404562E+03 0.75467711E-02 0.11855661E+00
        3 -1    0    0  502    0 0.00000000E+00 0.00000000E+00 0.22631097E+03 0.22631152E+03 0.50000000E+00 0.0000E+00 0.9000E+01
       -4 -1    0    0    0  501 0.00000000E+00 0.00000000E+00 -.16729400E+03 0.16730118E+03 0.15500000E+01 0.0000E+00 0.9000E+01
       25  1    1    2    0    0 0.11521489E+03 -.37726917E+02 -.70591298E+02 0.18789871E+03 0.12500000E+03 0.0000E+00 0.9000E+01
      -24  1    1    2    0    0 -.10457965E+03 0.23966836E+02 0.13198525E+03 0.18814525E+03 0.80419002E+02 0.0000E+00 0.9000E+01
       21  1    1    2  502  501 -.10635247E+02 0.13760081E+02 -.23769844E+01 0.17568747E+02 0.75000000E+00 0.0000E+00 0.9000E+01
#aMCatNLO 2  0  0  1  1 0.17391041D+02 0.00000000D+00  -5  5  0 0.00000000D+00 0.00000000D+00 0.00000000D+00 0.00000000D+00 0.00000000D+00
  <mgrwgt>
 0.3109963342D-01    2    2    0
 0.185295296891977D+03 0.000000000000000D+00 0.000000000000000D+00 0.185295296891977D+03
 0.185295296891977D+03 0.000000000000000D+00 0.000000000000000D+00 -.185295296891977D+03
 0.197650958637359D+03 0.109481489307722D+03 -.303089298382865D+02 -.102645378470187D+03
 0.172939635146595D+03 -.109481489307722D+03 0.303089298382865D+02 0.102645378470187D+03
 0.000000000000000D+00 -.000000000000000D+00 0.000000000000000D+00 -.000000000000000D+00
 0.191933755938391D+03 0.000000000000000D+00 0.000000000000000D+00 0.191933755938391D+03
 0.197250184664597D+03 0.000000000000000D+00 0.000000000000000D+00 -.197250184664597D+03
 0.202135761192474D+03 0.115214894839741D+03 -.377269166330893D+02 -.102645378470187D+03
 0.168862670760548D+03 -.104579647564757D+03 0.239668357518908D+02 0.102645378470187D+03
 0.181855086499665D+02 -.106352472749843D+02 0.137600808811984D+02 -.531642872620551D+01
-.490254453625D-05 0.000000000000D+00 0.000000000000D+00 0.157198302657D-02 0.000000000000D+00  5 3 -4 25 -24 21 2 0.33612079D-01 0.24177239D-01 0.23730053D+05 0.23730053D+05 0.23730053D+05 0.12257325D+01  1  2  8  1  5  1        3 -.204600141523D-03 0.100000000000D+01
0.900394030188D-03 0.000000000000D+00 0.000000000000D+00 0.157198302657D-02 0.414508352524D-04  5 3 -4 25 -24 21 2 0.34816278D-01 0.25737107D-01 0.26505384D+05 0.26505384D+05 0.26505384D+05 0.12205844D+01  1  2  1  1  5  1        3 0.313042335646D-01 0.100000000000D+01
  </mgrwgt>
  </event>
  <event>
  4     66 0.47139866E-03 0.58287706E+02 0.75467711E-02 0.12106588E+00
        1 -1    0    0  501    0 0.00000000E+00 0.00000000E+00 0.14226068E+03 0.14226104E+03 0.32000000E+00 0.0000E+00 0.9000E+01
       -2 -1    0    0    0  501 0.00000000E+00 0.00000000E+00 -.17503022E+03 0.17503051E+03 0.32000000E+00 0.0000E+00 0.9000E+01
       25  1    1    2    0    0 0.90582458E+02 0.14914372E+02 0.57590981E+02 0.16543682E+03 0.12500000E+03 0.0000E+00 0.9000E+01
      -24  1    1    2    0    0 -.90582458E+02 -.14914372E+02 -.90360522E+02 0.15185473E+03 0.80419002E+02 0.0000E+00 0.9000E+01
#aMCatNLO 1  0  0  2  1 0.68175020D+01 0.00000000D+00  -5  5  0 0.00000000D+00 0.00000000D+00 0.00000000D+00 0.00000000D+00 0.00000000D+00
  <mgrwgt>
 0.1651120024D+00   11    2    0
 0.157797406992010D+03 0.000000000000000D+00 0.000000000000000D+00 0.157797406992010D+03
 0.157797406992010D+03 0.000000000000000D+00 0.000000000000000D+00 -.157797406992010D+03
 0.172306175260448D+03 0.905824575048756D+02 0.149143721320524D+02 0.750786116624979D+02
 0.143288638723573D+03 -.905824575048756D+02 -.149143721320524D+02 -.750786116624979D+02
 0.000000000000000D+00 -.000000000000000D+00 -.000000000000000D+00 -.000000000000000D+00
 0.160014035044856D+03 0.000000000000000D+00 0.000000000000000D+00 0.160014035044856D+03
 0.163164758963303D+03 0.000000000000000D+00 0.000000000000000D+00 -.163164758963303D+03
 0.172794457034486D+03 0.908235448280918D+02 0.186335760801418D+02 0.750786116624979D+02
 0.142873984447190D+03 -.903825442785045D+02 -.118303524047783D+02 -.750786116624979D+02
 0.751035252648208D+01 -.441000549587257D+00 -.680322367536344D+01 -.315072391844696D+01
0.565996787183D-03 0.000000000000D+00 0.000000000000D+00 0.186104290570D-02 0.000000000000D+00  5 1 -2 25 -24 21 0 0.21886309D-01 0.26927776D-01 0.19200741D+05 0.19200741D+05 0.19200741D+05 0.12357808D+01  1  2  2  2  5  2       -2 0.135977147660D+00 0.100000000000D+01
-.307985496049D-04 0.000000000000D+00 -.217357669316D-05 0.186104290570D-02 0.000000000000D+00  5 1 -2 25 -24 21 2 0.21886309D-01 0.26927776D-01 0.19200741D+05 0.19200741D+05 0.19200741D+05 0.12357808D+01  1  2  3  2  5  2       -2 -.112996524395D-01 0.100000000000D+01
0.390859704213D-04 0.000000000000D+00 0.000000000000D+00 0.186104290570D-02 0.000000000000D+00  5 1 -2 25 -24 21 2 0.21886309D-01 0.26927776D-01 0.19200741D+05 0.19200741D+05 0.19200741D+05 0.12357808D+01  1  2 15  2  5  2       -2 0.143402168831D-01 0.100000000000D+01
0.115338311664D-02 0.000000000000D+00 0.000000000000D+00 0.186104290570D-02 0.000000000000D+00  5 1 -2 25 -24 21 2 0.21886309D-01 0.28028215D-01 0.20164878D+05 0.20164878D+05 0.20164878D+05 0.12334337D+01  1  2 12  2  5  2       -2 0.393101372975D+00 0.100000000000D+01
-.127328835594D-02 0.000000000000D+00 0.000000000000D+00 0.186104290570D-02 0.000000000000D+00  5 1 -2 25 -24 21 2 0.21886309D-01 0.26927776D-01 0.19200741D+05 0.19200741D+05 0.19200741D+05 0.12357808D+01  1  2  4  2  5  2       -2 -.467155631088D+00 0.100000000000D+01
-.100520446250D-01 0.000000000000D+00 -.145777468068D-02 0.186104290570D-02 0.000000000000D+00  5 1 -2 25 -24 21 2 0.21886309D-01 0.28200285D-01 0.19200741D+05 0.19200741D+05 0.19200741D+05 0.12357808D+01  1  2  5  2  5  2       -2 -.339791041780D+01 0.100000000000D+01
0.101101287785D-01 0.000000000000D+00 0.145622206113D-02 0.186104290570D-02 0.000000000000D+00  5 1 -2 25 -24 21 2 0.21886309D-01 0.26927776D-01 0.19200741D+05 0.19200741D+05 0.19200741D+05 0.12357808D+01  1  2  6  2  5  2       -2 0.370929614480D+01 0.100000000000D+01
0.167244415262D-03 0.000000000000D+00 0.000000000000D+00 0.186104290570D-02 0.325120285403D-03  5 1 -2 25 -24 21 2 0.22193752D-01 0.27843703D-01 0.20164878D+05 0.20164878D+05 0.20164878D+05 0.12334337D+01  1  2 11  2  5  2       -2 0.566656189822D-01 0.100000000000D+01
0.191540414516D-04 0.000000000000D+00 0.000000000000D+00 0.186104290570D-02 0.000000000000D+00  5 1 21 25 -24 2 2 0.21886309D-01 0.28028215D-01 0.20164878D+05 0.20164878D+05 0.20164878D+05 0.12334337D+01  1  2 12  4  5  2       -2 0.867789882979D-01 0.100000000000D+01
-.802053787229D-04 0.000000000000D+00 -.117910331421D-04 0.186104290570D-02 0.000000000000D+00  5 1 21 25 -24 2 2 0.21886309D-01 0.28200285D-01 0.19200741D+05 0.19200741D+05 0.19200741D+05 0.12357808D+01  1  2  5  4  5  2       -2 -.360462969083D+00 0.100000000000D+01
0.128240750982D-05 0.000000000000D+00 0.000000000000D+00 0.186104290570D-02 0.196411636374D-05  5 1 21 25 -24 2 2 0.22193752D-01 0.27843703D-01 0.20164878D+05 0.20164878D+05 0.20164878D+05 0.12334337D+01  1  2 11  4  5  2       -2 0.578118317864D-02 0.100000000000D+01
  </mgrwgt>
  </event>
  <event>
  4     66 0.47139866E-03 0.10900828E+03 0.75467711E-02 0.12030033E+00
        1 -1    0    0  501    0 0.00000000E+00 0.00000000E+00 0.10173792E+03 0.10173842E+03 0.32000000E+00 0.0000E+00 0.9000E+01
       -2 -1    0    0    0  501 0.00000000E+00 0.00000000E+00 -.11689668E+03 0.11689712E+03 0.32000000E+00 0.0000E+00 0.9000E+01
       25  1    1    2    0    0 0.25627726E+02 0.24920322E+02 -.12167886E+02 0.13057894E+03 0.12500000E+03 0.0000E+00 0.9000E+01
      -24  1    1    2    0    0 -.25627726E+02 -.24920322E+02 -.29908719E+01 0.88056596E+02 0.80419002E+02 0.0000E+00 0.9000E+01
#aMCatNLO 1  0  0  2  1 0.67646213D+02 0.00000000D+00  -5  5  0 0.00000000D+00 0.00000000D+00 0.00000000D+00 0.00000000D+00 0.00000000D+00
  <mgrwgt>
 0.1823136904D+00    3    2    0
 0.109054700508182D+03 0.000000000000000D+00 0.000000000000000D+00 0.109054700508182D+03
 0.109054700508182D+03 0.000000000000000D+00 0.000000000000000D+00 -.109054700508182D+03
 0.130048256959567D+03 0.256277263569685D+02 0.249203223145159D+02 -.312190898883315D+01
 0.880611440567979D+02 -.256277263569685D+02 -.249203223145159D+02 0.312190898883315D+01
 0.000000000000000D+00 0.000000000000000D+00 0.000000000000000D+00 0.000000000000000D+00
 0.224449627562898D+03 0.000000000000000D+00 0.000000000000000D+00 0.224449627562898D+03
 0.124553912297518D+03 0.000000000000000D+00 0.000000000000000D+00 -.124553912297518D+03
 0.127553111240074D+03 -.132468163250827D+02 0.214376241346320D+02 -.312190898883315D+01
 0.100805643777406D+03 -.541295548068567D+02 -.274737482641830D+02 0.312190898883315D+01
 0.120644784842935D+03 0.673763711319395D+02 0.603612412955105D+01 0.998957152653797D+02
0.246714803110D-03 0.000000000000D+00 0.000000000000D+00 0.303589383068D-02 0.000000000000D+00  5 1 -2 25 -24 21 0 0.15652060D-01 0.17984177D-01 0.11882806D+05 0.11882806D+05 0.11882806D+05 0.12595239D+01  1  2  2  2  5  2       -2 0.178440571667D+00 0.100000000000D+01
-.137063749303D-04 0.000000000000D+00 -.947449805443D-06 0.303589383068D-02 0.000000000000D+00  5 1 -2 25 -24 21 2 0.15652060D-01 0.17984177D-01 0.11882806D+05 0.11882806D+05 0.11882806D+05 0.12595239D+01  1  2  3  2  5  2       -2 -.157265644931D-01 0.100000000000D+01
0.170819639047D-04 0.000000000000D+00 0.000000000000D+00 0.303589383068D-02 0.000000000000D+00  5 1 -2 25 -24 21 2 0.15652060D-01 0.17984177D-01 0.11882806D+05 0.11882806D+05 0.11882806D+05 0.12595239D+01  1  2 15  2  5  2       -2 0.195996832411D-01 0.100000000000D+01
  </mgrwgt>
  </event>
  <event>
  5     66 0.47139866E-03 0.17780219E+03 0.75467711E-02 0.11311409E+00
        1 -1    0    0  501    0 0.00000000E+00 0.00000000E+00 0.14370674E+04 0.14370674E+04 0.32000000E+00 0.0000E+00 0.9000E+01
       21 -1    0    0  502  501 0.00000000E+00 0.00000000E+00 -.89142296E+02 0.89145451E+02 0.75000000E+00 0.0000E+00 0.9000E+01
       25  1    1    2    0    0 0.27502484E+02 -.10893977E+03 0.11918085E+04 0.12036016E+04 0.12500000E+03 0.0000E+00 0.9000E+01
      -24  1    1    2    0    0 0.16156653E+02 0.17894989E+03 0.13064202E+03 0.23625972E+03 0.80419002E+02 0.0000E+00 0.9000E+01
        2  1    1    2  502    0 -.43659137E+02 -.70010115E+02 0.25474552E+02 0.86351558E+02 0.32000000E+00 0.0000E+00 0.9000E+01
#aMCatNLO 2  0  0  2  1 0.82507796D+02 0.00000000D+00  -5  5  0 0.00000000D+00 0.00000000D+00 0.00000000D+00 0.00000000D+00 0.00000000D+00
  <mgrwgt>
 0.6113385049D-01    2    2    0
 0.281743516098543D+03 0.000000000000000D+00 0.000000000000000D+00 0.281743516098543D+03
 0.281743516098543D+03 0.000000000000000D+00 0.000000000000000D+00 -.281743516098543D+03
 0.289869509708300D+03 0.571509144709249D+01 -.143877199328815D+03 0.218325495308216D+03
 0.273617522488785D+03 -.571509144709249D+01 0.143877199328815D+03 -.218325495308216D+03
 0.000000000000000D+00 -.000000000000000D+00 -.000000000000000D+00 -.000000000000000D+00
 0.296275001503799D+03 0.000000000000000D+00 0.000000000000000D+00 0.296275001503799D+03
 0.432388098203437D+03 0.000000000000000D+00 0.000000000000000D+00 -.432388098203437D+03
 0.275527281390253D+03 0.275024837579183D+02 -.108939773617679D+03 0.218325495308216D+03
 0.293968260218432D+03 0.161566529854538D+02 0.178949888863366D+03 -.218325495308216D+03
 0.159167558098551D+03 -.436591367433721D+02 -.700101152456867D+02 -.136113096699638D+03
-.129332548961D-03 0.000000000000D+00 0.000000000000D+00 0.838264712459D-03 0.000000000000D+00  5 1 21 25 -24 2 2 0.21024368D+00 0.13844726D-01 0.50049855D+05 0.50049855D+05 0.50049855D+05 0.11922389D+01  1  2 13  4  5  2       -2 -.820400457741D-01 0.100000000000D+01
0.247292288262D-03 0.000000000000D+00 0.000000000000D+00 0.838264712459D-03 0.631425056047D-07  5 1 21 25 -24 2 2 0.22108742D+00 0.13714438D-01 0.50049855D+05 0.50049855D+05 0.50049855D+05 0.11922389D+01  1  2  1  4  5  2       -2 0.143173896266D+00 0.100000000000D+01
  </mgrwgt>
  </event>
  <event>
  4     66 0.47139866E-03 0.11816205E+03 0.75467711E-02 0.11769882E+00
        3 -1    0    0  501    0 0.00000000E+00 0.00000000E+00 0.22328460E+02 0.22334057E+02 0.50000000E+00 0.0000E+00 0.9000E+01
       -4 -1    0    0    0  501 0.00000000E+00 0.00000000E+00 -.13569705E+04 0.13569714E+04 0.15500000E+01 0.0000E+00 0.9000E+01
       25  1    1    2    0    0 -.44509825E+01 -.11908658E+03 -.10042158E+04 0.10189582E+04 0.12500000E+03 0.0000E+00 0.9000E+01
      -24  1    1    2    0    0 0.44509825E+01 0.11908658E+03 -.33042627E+03 0.36034728E+03 0.80419002E+02 0.0000E+00 0.9000E+01
#aMCatNLO 1  0  0  2  1 0.24098683D+02 0.00000000D+00  -5  5  0 0.00000000D+00 0.00000000D+00 0.00000000D+00 0.00000000D+00 0.00000000D+00
  <mgrwgt>
 0.9825956712D-01    9    2    0
 0.174079097549695D+03 0.000000000000000D+00 0.000000000000000D+00 0.174079097549695D+03
 0.174079097549695D+03 0.000000000000000D+00 0.000000000000000D+00 -.174079097549695D+03
 0.187230854674090D+03 -.445098245780563D+01 -.119086584386054D+03 -.723115973853003D+02
 0.160927340425301D+03 0.445098245780563D+01 0.119086584386054D+03 0.723115973853003D+02
 0.000000000000000D+00 0.000000000000000D+00 -.000000000000000D+00 -.000000000000000D+00
 0.178474338353113D+03 0.000000000000000D+00 0.000000000000000D+00 0.178474338353113D+03
 0.210986350496399D+03 0.000000000000000D+00 0.000000000000000D+00 -.210986350496399D+03
 0.181228674532054D+03 -.120125044750736D+02 -.108837333174181D+03 -.723115973853003D+02
 0.167762550799849D+03 -.229438752816604D+01 0.128229583817301D+03 0.723115973853003D+02
 0.404694635176093D+02 0.143068920032396D+02 -.193922506431197D+02 -.325120121432860D+02
0.686768982751D-02 0.000000000000D+00 0.000000000000D+00 0.189528672950D-02 0.000000000000D+00  5 3 -4 25 -24 21 0 0.34356463D-02 0.20876519D+00 0.25038191D+05 0.25038191D+05 0.25038191D+05 0.12232266D+01  1  2  2  2  5  2       -4 0.735157976007D-01 0.100000000000D+01
-.377313598062D-03 0.000000000000D+00 -.263737372419D-04 0.189528672950D-02 0.000000000000D+00  5 3 -4 25 -24 21 2 0.34356463D-02 0.20876519D+00 0.25038191D+05 0.25038191D+05 0.25038191D+05 0.12232266D+01  1  2  3  2  5  2       -4 -.604346863664D-02 0.100000000000D+01
0.473101488000D-03 0.000000000000D+00 0.000000000000D+00 0.189528672950D-02 0.000000000000D+00  5 3 -4 25 -24 21 2 0.34356463D-02 0.20876519D+00 0.25038191D+05 0.25038191D+05 0.25038191D+05 0.12232266D+01  1  2 15  2  5  2       -4 0.757771259601D-02 0.100000000000D+01
0.165180033838D-01 0.000000000000D+00 0.000000000000D+00 0.189528672950D-02 0.000000000000D+00  5 3 -4 25 -24 21 2 0.34356463D-02 0.25528161D+00 0.29181850D+05 0.29181850D+05 0.29181850D+05 0.12161608D+01  1  2 12  2  5  2       -4 0.139573198920D+00 0.100000000000D+01
-.167347780229D-01 0.000000000000D+00 0.000000000000D+00 0.189528672950D-02 0.000000000000D+00  5 3 -4 25 -24 21 2 0.34356463D-02 0.20876519D+00 0.25038191D+05 0.25038191D+05 0.25038191D+05 0.12232266D+01  1  2  4  2  5  2       -4 -.268042568946D+00 0.100000000000D+01
-.241042836075D-01 0.000000000000D+00 -.361446725749D-02 0.189528672950D-02 0.000000000000D+00  5 3 -4 25 -24 21 2 0.34356463D-02 0.25554137D+00 0.25038191D+05 0.25038191D+05 0.25038191D+05 0.12232266D+01  1  2  5  2  5  2       -4 -.204061289037D+00 0.100000000000D+01
0.244071524371D-01 0.000000000000D+00 0.354183518124D-02 0.189528672950D-02 0.000000000000D+00  5 3 -4 25 -24 21 2 0.34356463D-02 0.20876519D+00 0.25038191D+05 0.25038191D+05 0.25038191D+05 0.12232266D+01  1  2  6  2  5  2       -4 0.390931736946D+00 0.100000000000D+01
0.474787702937D-03 0.000000000000D+00 0.000000000000D+00 0.189528672950D-02 0.000000000000D+00  5 3 21 25 -24 4 2 0.34356463D-02 0.25528161D+00 0.29181850D+05 0.29181850D+05 0.29181850D+05 0.12161608D+01  1  2 12  4  5  2       -4 0.890956609323D-01 0.100000000000D+01
-.653119025882D-03 0.000000000000D+00 -.104294981512D-03 0.189528672950D-02 0.000000000000D+00  5 3 21 25 -24 4 2 0.34356463D-02 0.25554137D+00 0.25038191D+05 0.25038191D+05 0.25038191D+05 0.12232266D+01  1  2  5  4  5  2       -4 -.124287213258D+00 0.100000000000D+01
  </mgrwgt>
  </event>
  <event>
  4     66 0.47139866E-03 0.16871172E+03 0.75467711E-02 0.11498677E+00
        1 -1    0    0  501    0 0.00000000E+00 0.00000000E+00 0.86806570E+02 0.86807160E+02 0.32000000E+00 0.0000E+00 0.9000E+01
       -2 -1    0    0    0  501 0.00000000E+00 0.00000000E+00 -.33450824E+03 0.33450840E+03 0.32000000E+00 0.0000E+00 0.9000E+01
       25  1    1    2    0    0 -.12870629E+03 -.32192805E+02 -.10409137E+03 0.20990879E+03 0.12500000E+03 0.0000E+00 0.9000E+01
      -24  1    1    2    0    0 0.12870629E+03 0.32192805E+02 -.14361030E+03 0.21140677E+03 0.80419002E+02 0.0000E+00 0.9000E+01
#aMCatNLO 1  0  0  1  1 0.57402766D+02 0.00000000D+00  -5  5  0 0.00000000D+00 0.00000000D+00 0.00000000D+00 0.00000000D+00 0.00000000D+00
  <mgrwgt>
 0.1894621677D+00    4    2    0
 0.170404430188065D+03 0.000000000000000D+00 0.000000000000000D+00 0.170404430188065D+03
 0.170404430188065D+03 0.000000000000000D+00 0.000000000000000D+00 -.170404430188065D+03
 0.183839796914627D+03 -.128706292141003D+03 -.321928052512354D+02 0.238827256187826D+02
 0.156969063461504D+03 0.128706292141003D+03 0.321928052512354D+02 -.238827256187826D+02
 0.000000000000000D+00 -.000000000000000D+00 0.000000000000000D+00 -.000000000000000D+00
 0.179020395924965D+03 0.000000000000000D+00 0.000000000000000D+00 0.179020395924965D+03
 0.305333591312346D+03 0.000000000000000D+00 0.000000000000000D+00 -.305333591312346D+03
 0.171235418081804D+03 -.103836508897536D+03 -.484165595911165D+02 0.238827256187826D+02
 0.174373836467962D+03 0.151913842971016D+03 0.170534049673449D+02 -.238827256187826D+02
 0.138744732687546D+03 -.480773340734804D+02 0.313631546237716D+02 -.126313195387382D+03
0.147908153671D-02 0.000000000000D+00 0.000000000000D+00 0.223672881080D-02 0.000000000000D+00  5 1 -2 25 -24 21 0 0.13354914D-01 0.51462864D-01 0.28463645D+05 0.28463645D+05 0.28463645D+05 0.12173019D+01  1  2  2  1  5  1        1 0.201011239050D+00 0.100000000000D+01
-.821612393150D-04 0.000000000000D+00 -.568006255209D-05 0.223672881080D-02 0.000000000000D+00  5 1 -2 25 -24 21 2 0.13354914D-01 0.51462864D-01 0.28463645D+05 0.28463645D+05 0.28463645D+05 0.12173019D+01  1  2  3  1  5  1        1 -.165459535727D-01 0.100000000000D+01
0.102051631035D-03 0.000000000000D+00 0.000000000000D+00 0.223672881080D-02 0.000000000000D+00  5 1 -2 25 -24 21 2 0.13354914D-01 0.51462864D-01 0.28463645D+05 0.28463645D+05 0.28463645D+05 0.12173019D+01  1  2 15  1  5  1        1 0.205515589006D-01 0.100000000000D+01
-.772389159041D-04 0.000000000000D+00 0.000000000000D+00 0.223672881080D-02 0.000000000000D+00  5 1 -2 25 -24 21 2 0.13354914D-01 0.51462864D-01 0.28463645D+05 0.28463645D+05 0.28463645D+05 0.12173019D+01  1  2  4  1  5  1        1 -.155546767212D-01 0.100000000000D+01
  </mgrwgt>
  </event>
  <event>
  4     66 0.47139866E-03 0.49101924E+02 0.75467711E-02 0.11895831E+00
        1 -1    0    0  501    0 0.00000000E+00 0.00000000E+00 0.22625416E+04 0.22625417E+04 0.32000000E+00 0.0000E+00 0.9000E+01
       -2 -1    0    0    0  501 0.00000000E+00 0.00000000E+00 -.89261062E+01 0.89318403E+01 0.32000000E+00 0.0000E+00 0.9000E+01
       25  1    1    2    0    0 0.23922111E+02 -.69905032E+02 0.17571236E+04 0.17631129E+04 0.12500000E+03 0.0000E+00 0.9000E+01
      -24  1    1    2    0    0 -.23922111E+02 0.69905032E+02 0.49649195E+03 0.50836056E+03 0.80419002E+02 0.0000E+00 0.9000E+01
#aMCatNLO 1  0  0  2  1 0.58759187D+02 0.00000000D+00  -5  5  0 0.00000000D+00 0.00000000D+00 0.00000000D+00 0.00000000D+00 0.00000000D+00
  <mgrwgt>
 0.2785508849D+00    9    2    0
 0.142134531758813D+03 0.000000000000000D+00 0.000000000000000D+00 0.142134531758813D+03
 0.142134531758813D+03 0.000000000000000D+00 0.000000000000000D+00 -.142134531758813D+03
 0.158242130546223D+03 0.239221114584007D+02 -.699050318884082D+02 0.629014386151887D+02
 0.126026932971403D+03 -.239221114584007D+02 0.699050318884082D+02 -.629014386151887D+02
 0.000000000000000D+00 -.000000000000000D+00 0.000000000000000D+00 -.000000000000000D+00
 0.159331490442540D+03 0.000000000000000D+00 0.000000000000000D+00 0.159331490442540D+03
 0.205958139561087D+03 0.000000000000000D+00 0.000000000000000D+00 -.205958139561087D+03
 0.176847636864169D+03 0.337307361121768D+02 -.102741097550646D+03 0.629014386151887D+02
 0.113430751070420D+03 -.169127940406229D+02 0.464401308343130D+02 -.629014386151887D+02
 0.750112420690383D+02 -.168179420715539D+02 0.563009667163329D+02 -.466266491185470D+02
0.954820010410D-03 0.000000000000D+00 0.000000000000D+00 0.204040147030D-02 0.000000000000D+00  5 1 -2 25 -24 21 0 0.34808377D+00 0.13736899D-02 0.16181159D+05 0.16181159D+05 0.16181159D+05 0.12440872D+01  1  2  2  2  5  2       -2 0.256134738218D+00 0.100000000000D+01
-.522512971960D-04 0.000000000000D+00 -.366676024986D-05 0.204040147030D-02 0.000000000000D+00  5 1 -2 25 -24 21 2 0.34808377D+00 0.13736899D-02 0.16181159D+05 0.16181159D+05 0.16181159D+05 0.12440872D+01  1  2  3  2  5  2       -2 -.216943018435D-01 0.100000000000D+01
0.659906603560D-04 0.000000000000D+00 0.000000000000D+00 0.204040147030D-02 0.000000000000D+00  5 1 -2 25 -24 21 2 0.34808377D+00 0.13736899D-02 0.16181159D+05 0.16181159D+05 0.16181159D+05 0.12440872D+01  1  2 15  2  5  2       -2 0.273987705845D-01 0.100000000000D+01
0.487067901875D-03 0.000000000000D+00 0.000000000000D+00 0.204040147030D-02 0.000000000000D+00  5 1 -2 25 -24 21 2 0.34808377D+00 0.20440899D-02 0.25350175D+05 0.25350175D+05 0.25350175D+05 0.12226505D+01  1  2 12  2  5  2       -2 0.109788766007D+00 0.100000000000D+01
-.684774445988D-03 0.000000000000D+00 0.000000000000D+00 0.204040147030D-02 0.000000000000D+00  5 1 -2 25 -24 21 2 0.34808377D+00 0.13736899D-02 0.16181159D+05 0.16181159D+05 0.16181159D+05 0.12440872D+01  1  2  4  2  5  2       -2 -.284312626158D+00 0.100000000000D+01
-.787652127074D-03 0.000000000000D+00 -.322185513121D-03 0.204040147030D-02 0.000000000000D+00  5 1 -2 25 -24 21 2 0.34808377D+00 0.22904674D-02 0.16181159D+05 0.16181159D+05 0.16181159D+05 0.12440872D+01  1  2  5  2  5  2       -2 -.156198648754D+00 0.100000000000D+01
0.873646371924D-03 0.000000000000D+00 0.284223824566D-03 0.204040147030D-02 0.000000000000D+00  5 1 -2 25 -24 21 2 0.34808377D+00 0.13736899D-02 0.16181159D+05 0.16181159D+05 0.16181159D+05 0.12440872D+01  1  2  6  2  5  2       -2 0.362730671086D+00 0.100000000000D+01
0.230759136570D-04 0.000000000000D+00 0.000000000000D+00 0.204040147030D-02 0.000000000000D+00  5 1 21 25 -24 2 2 0.34808377D+00 0.20440899D-02 0.25350175D+05 0.25350175D+05 0.25350175D+05 0.12226505D+01  1  2 12  4  5  2       -2 0.108152728324D+00 0.100000000000D+01
-.303078725621D-04 0.000000000000D+00 -.184907398609D-04 0.204040147030D-02 0.000000000000D+00  5 1 21 25 -24 2 2 0.34808377D+00 0.22904674D-02 0.16181159D+05 0.16181159D+05 0.16181159D+05 0.12440872D+01  1  2  5  4  5  2       -2 -.123449212581D+00 0.100000000000D+01
  </mgrwgt>
  </event>
  <event>
  4     66 0.47139866E-03 0.14317484E+03 0.75467711E-02 0.12060746E+00
        1 -1    0    0  501    0 0.00000000E+00 0.00000000E+00 0.11214997E+03 0.11215043E+03 0.32000000E+00 0.0000E+00 0.9000E+01
       -2 -1    0    0    0  501 0.00000000E+00 0.00000000E+00 -.18913187E+03 0.18913214E+03 0.32000000E+00 0.0000E+00 0.9000E+01
       25  1    1    2    0    0 0.12906342E+02 -.97683428E+02 -.15208857E+02 0.15989038E+03 0.12500000E+03 0.0000E+00 0.9000E+01
      -24  1    1    2    0    0 -.12906342E+02 0.97683428E+02 -.61773039E+02 0.14139219E+03 0.80419002E+02 0.0000E+00 0.9000E+01
#aMCatNLO 1  0  0  1  1 0.46742595D+01 0.00000000D+00  -5  5  0 0.00000000D+00 0.00000000D+00 0.00000000D+00 0.00000000D+00 0.00000000D+00
  <mgrwgt>
 0.2104043889D+00    6    2    0
 0.145640803414223D+03 0.000000000000000D+00 0.000000000000000D+00 0.145640803414223D+03
 0.145640803414223D+03 0.000000000000000D+00 0.000000000000000D+00 -.145640803414223D+03
 0.161360615154727D+03 0.129063421635982D+02 -.976834276834511D+02 0.265258819095643D+02
 0.129920991673719D+03 -.129063421635982D+02 0.976834276834511D+02 -.265258819095643D+02
 0.000000000000000D+00 -.000000000000000D+00 -.000000000000000D+00 -.000000000000000D+00
 0.145950831358675D+03 0.000000000000000D+00 0.000000000000000D+00 0.145950831358675D+03
 0.164412070946236D+03 0.000000000000000D+00 0.000000000000000D+00 -.164412070946236D+03
 0.161405435397583D+03 0.154784743081729D+02 -.973833096474670D+02 0.265258819095643D+02
 0.129913673448305D+03 -.108357120793885D+02 0.979250301358885D+02 -.265258819095643D+02
 0.190437934590231D+02 -.464276222878435D+01 -.541720488421552D+00 -.184612395875610D+02
0.674298451823D-03 0.000000000000D+00 0.000000000000D+00 0.237265524323D-02 0.000000000000D+00  5 1 -2 25 -24 21 0 0.17253898D-01 0.29097267D-01 0.20499036D+05 0.20499036D+05 0.20499036D+05 0.12326494D+01  1  2  2  1  5  1        1 0.191435310026D+00 0.100000000000D+01
-.374477428089D-04 0.000000000000D+00 -.258948360186D-05 0.237265524323D-02 0.000000000000D+00  5 1 -2 25 -24 21 2 0.17253898D-01 0.29097267D-01 0.20499036D+05 0.20499036D+05 0.20499036D+05 0.12326494D+01  1  2  3  1  5  1        1 -.161537994336D-01 0.100000000000D+01
0.466608642621D-04 0.000000000000D+00 0.000000000000D+00 0.237265524323D-02 0.000000000000D+00  5 1 -2 25 -24 21 2 0.17253898D-01 0.29097267D-01 0.20499036D+05 0.20499036D+05 0.20499036D+05 0.12326494D+01  1  2 15  1  5  1        1 0.201280554221D-01 0.100000000000D+01
-.604619930174D-04 0.000000000000D+00 0.000000000000D+00 0.237265524323D-02 0.000000000000D+00  5 1 -2 25 -24 21 2 0.17253898D-01 0.29097267D-01 0.20499036D+05 0.20499036D+05 0.20499036D+05 0.12326494D+01  1  2  4  1  5  1        1 -.260814360306D-01 0.100000000000D+01
0.442190228355D-04 0.000000000000D+00 0.000000000000D+00 0.237265524323D-02 0.884254712074D-03  5 1 -2 25 -24 21 2 0.17290627D-01 0.32847538D-01 0.21179259D+05 0.21179259D+05 0.21179259D+05 0.12310963D+01  1  2 11  1  5  1        1 0.152496342945D-01 0.100000000000D+01
0.812318716841D-05 0.000000000000D+00 0.000000000000D+00 0.237265524323D-02 0.375103555988D-06  5 21 -2 25 -24 -1 2 0.17290627D-01 0.32847538D-01 0.21179259D+05 0.21179259D+05 0.21179259D+05 0.12310963D+01  1  2 11  3  5  1        1 0.258266246063D-01 0.100000000000D+01
  </mgrwgt>
  </event>
  <event>
  4     66 0.47139866E-03 0.60618209E+02 0.75467711E-02 0.11853997E+00
        1 -1    0    0  501    0 0.00000000E+00 0.00000000E+00 0.36910993E+03 0.36911007E+03 0.32000000E+00 0.0000E+00 0.9000E+01
       -2 -1    0    0    0  501 0.00000000E+00 0.00000000E+00 -.77557423E+02 0.77558083E+02 0.32000000E+00 0.0000E+00 0.9000E+01
       25  1    1    2    0    0 -.82700111E+02 -.69571941E+02 0.54469969E+02 0.17398719E+03 0.12500000E+03 0.0000E+00 0.9000E+01
      -24  1    1    2    0    0 0.82700111E+02 0.69571941E+02 0.23708254E+03 0.27268097E+03 0.80419002E+02 0.0000E+00 0.9000E+01
#aMCatNLO 1  0  0  2  1 0.24887426D+02 0.00000000D+00  -5  5  0 0.00000000D+00 0.00000000D+00 0.00000000D+00 0.00000000D+00 0.00000000D+00
  <mgrwgt>
 0.1724107929D+00    9    2    0
 0.169196316111951D+03 0.000000000000000D+00 0.000000000000000D+00 0.169196316111951D+03
 0.169196316111951D+03 0.000000000000000D+00 0.000000000000000D+00 -.169196316111951D+03
 0.182727615516203D+03 -.827001110058513D+02 -.695719410778115D+02 -.780052442244930D+02
 0.155665016707698D+03 0.827001110058513D+02 0.695719410778115D+02 0.780052442244930D+02
 0.000000000000000D+00 0.000000000000000D+00 -.000000000000000D+00 -.000000000000000D+00
 0.178151561675452D+03 0.000000000000000D+00 0.000000000000000D+00 0.178151561675452D+03
 0.187874176648457D+03 0.000000000000000D+00 0.000000000000000D+00 -.187874176648457D+03
 0.182345939508534D+03 -.901486277898786D+02 -.584247245293384D+02 -.780052442244930D+02
 0.156960643895255D+03 0.763216772681326D+02 0.791177049091973D+02 0.780052442244930D+02
 0.267191549201196D+02 0.138269505217460D+02 -.206929803798589D+02 -.972261497300577D+01
0.497402511878D-03 0.000000000000D+00 0.000000000000D+00 0.183187499475D-02 0.000000000000D+00  5 1 -2 25 -24 21 0 0.56786205D-01 0.11931973D-01 0.22492637D+05 0.22492637D+05 0.22492637D+05 0.12282495D+01  1  2  2  2  5  2       -2 0.142795554023D+00 0.100000000000D+01
-.271449044371D-04 0.000000000000D+00 -.191015661470D-05 0.183187499475D-02 0.000000000000D+00  5 1 -2 25 -24 21 2 0.56786205D-01 0.11931973D-01 0.22492637D+05 0.22492637D+05 0.22492637D+05 0.12282495D+01  1  2  3  2  5  2       -2 -.117562333189D-01 0.100000000000D+01
0.342650319547D-04 0.000000000000D+00 0.000000000000D+00 0.183187499475D-02 0.000000000000D+00  5 1 -2 25 -24 21 2 0.56786205D-01 0.11931973D-01 0.22492637D+05 0.22492637D+05 0.22492637D+05 0.12282495D+01  1  2 15  2  5  2       -2 0.148399015835D-01 0.100000000000D+01
0.723114421101D-03 0.000000000000D+00 0.000000000000D+00 0.183187499475D-02 0.000000000000D+00  5 1 -2 25 -24 21 2 0.56786205D-01 0.13538228D-01 0.26554539D+05 0.26554539D+05 0.26554539D+05 0.12204987D+01  1  2 12  2  5  2       -2 0.253122674684D+00 0.100000000000D+01
-.688878035704D-03 0.000000000000D+00 0.000000000000D+00 0.183187499475D-02 0.000000000000D+00  5 1 -2 25 -24 21 2 0.56786205D-01 0.11931973D-01 0.22492637D+05 0.22492637D+05 0.22492637D+05 0.12282495D+01  1  2  4  2  5  2       -2 -.298347372516D+00 0.100000000000D+01
-.178322561587D-02 0.000000000000D+00 -.414408419210D-03 0.183187499475D-02 0.000000000000D+00  5 1 -2 25 -24 21 2 0.56786205D-01 0.13926014D-01 0.22492637D+05 0.22492637D+05 0.22492637D+05 0.12282495D+01  1  2  5  2  5  2       -2 -.602006917333D+00 0.100000000000D+01
0.183026820395D-02 0.000000000000D+00 0.409508797433D-03 0.183187499475D-02 0.000000000000D+00  5 1 -2 25 -24 21 2 0.56786205D-01 0.11931973D-01 0.22492637D+05 0.22492637D+05 0.22492637D+05 0.12282495D+01  1  2  6  2  5  2       -2 0.792674002287D+00 0.100000000000D+01
0.143204558053D-04 0.000000000000D+00 0.000000000000D+00 0.183187499475D-02 0.000000000000D+00  5 1 21 25 -24 2 2 0.56786205D-01 0.13538228D-01 0.26554539D+05 0.26554539D+05 0.26554539D+05 0.12204987D+01  1  2 12  4  5  2       -2 0.744656092107D-01 0.100000000000D+01
-.386334824507D-04 0.000000000000D+00 -.968322664038D-05 0.183187499475D-02 0.000000000000D+00  5 1 21 25 -24 2 2 0.56786205D-01 0.13926014D-01 0.22492637D+05 0.22492637D+05 0.22492637D+05 0.12282495D+01  1  2  5  4  5  2       -2 -.193376425730D+00 0.100000000000D+01
  </mgrwgt>
  </event>
  <event>
  4     66 0.47139866E-03 0.69098394E+02 0.75467711E-02 0.11968852E+00
        1 -1    0    0  501    0 0.00000000E+00 0.00000000E+00 0.38289089E+03 0.38289102E+03 0.32000000E+00 0.0000E+00 0.9000E+01
       -2 -1    0    0    0  501 0.00000000E+00 0.00000000E+00 -.48801449E+02 0.48802499E+02 0.32000000E+00 0.0000E+00 0.9000E+01
       25  1    1    2    0    0 -.34616527E+01 0.83745075E+02 0.23475219E+03 0.27885267E+03 0.12500000E+03 0.0000E+00 0.9000E+01
      -24  1    1    2    0    0 0.34616527E+01 -.83745075E+02 0.99337249E+02 0.15284085E+03 0.80419002E+02 0.0000E+00 0.9000E+01
#aMCatNLO 1  0  0  2  1 0.36910901D+02 0.00000000D+00  -5  5  0 0.00000000D+00 0.00000000D+00 0.00000000D+00 0.00000000D+00 0.00000000D+00
  <mgrwgt>
 0.2163935574D+00    9    2    0
 0.136696326087123D+03 0.000000000000000D+00 0.000000000000000D+00 0.136696326087123D+03
 0.136696326087123D+03 0.000000000000000D+00 0.000000000000000D+00 -.136696326087123D+03
 0.153444735330750D+03 -.346165274735143D+01 0.837450753141140D+02 0.299176556837930D+02
 0.119947916843497D+03 0.346165274735143D+01 -.837450753141140D+02 -.299176556837930D+02
 0.000000000000000D+00 0.000000000000000D+00 -.000000000000000D+00 -.000000000000000D+00
 0.141886981859787D+03 0.000000000000000D+00 0.000000000000000D+00 0.141886981859787D+03
 0.224155678809094D+03 0.000000000000000D+00 0.000000000000000D+00 -.224155678809094D+03
 0.165961863540069D+03 -.825848727655353D+01 0.104666477040080D+03 0.299176556837930D+02
 0.109911217517795D+03 0.963817891514740D-02 -.686891080693663D+02 -.299176556837930D+02
 0.901695796110167D+02 0.824884909763839D+01 -.359773689707135D+02 -.822686969493075D+02
0.326615206495D-03 0.000000000000D+00 0.000000000000D+00 0.242797871675D-02 0.000000000000D+00  5 1 -2 25 -24 21 0 0.58906381D-01 0.75080063D-02 0.17776469D+05 0.17776469D+05 0.17776469D+05 0.12395011D+01  1  2  2  2  5  2       -2 0.183926004414D+00 0.100000000000D+01
-.181315595251D-04 0.000000000000D+00 -.125428839270D-05 0.242797871675D-02 0.000000000000D+00  5 1 -2 25 -24 21 2 0.58906381D-01 0.75080063D-02 0.17776469D+05 0.17776469D+05 0.17776469D+05 0.12395011D+01  1  2  3  2  5  2       -2 -.156868500900D-01 0.100000000000D+01
0.225692135131D-04 0.000000000000D+00 0.000000000000D+00 0.242797871675D-02 0.000000000000D+00  5 1 -2 25 -24 21 2 0.58906381D-01 0.75080063D-02 0.17776469D+05 0.17776469D+05 0.17776469D+05 0.12395011D+01  1  2 15  2  5  2       -2 0.195261675388D-01 0.100000000000D+01
0.758324130898D-03 0.000000000000D+00 0.000000000000D+00 0.242797871675D-02 0.000000000000D+00  5 1 -2 25 -24 21 2 0.58906381D-01 0.12376368D-01 0.23395995D+05 0.23395995D+05 0.23395995D+05 0.12263973D+01  1  2 12  2  5  2       -2 0.295117835119D+00 0.100000000000D+01
-.735560818308D-03 0.000000000000D+00 0.000000000000D+00 0.242797871675D-02 0.000000000000D+00  5 1 -2 25 -24 21 2 0.58906381D-01 0.75080063D-02 0.17776469D+05 0.17776469D+05 0.17776469D+05 0.12395011D+01  1  2  4  2  5  2       -2 -.636383884842D+00 0.100000000000D+01
-.840741240915D-03 0.000000000000D+00 -.107821720192D-03 0.242797871675D-02 0.000000000000D+00  5 1 -2 25 -24 21 2 0.58906381D-01 0.12718978D-01 0.17776469D+05 0.17776469D+05 0.17776469D+05 0.12395011D+01  1  2  5  2  5  2       -2 -.318176127698D+00 0.100000000000D+01
0.797597949417D-03 0.000000000000D+00 0.944001509133D-04 0.242797871675D-02 0.000000000000D+00  5 1 -2 25 -24 21 2 0.58906381D-01 0.75080063D-02 0.17776469D+05 0.17776469D+05 0.17776469D+05 0.12395011D+01  1  2  6  2  5  2       -2 0.690056442592D+00 0.100000000000D+01
0.427439887636D-04 0.000000000000D+00 0.000000000000D+00 0.242797871675D-02 0.000000000000D+00  5 1 21 25 -24 2 2 0.58906381D-01 0.12376368D-01 0.23395995D+05 0.23395995D+05 0.23395995D+05 0.12263973D+01  1  2 12  4  5  2       -2 0.251636094857D+00 0.100000000000D+01
-.443050768012D-04 0.000000000000D+00 -.634274000737D-05 0.242797871675D-02 0.000000000000D+00  5 1 21 25 -24 2 2 0.58906381D-01 0.12718978D-01 0.17776469D+05 0.17776469D+05 0.17776469D+05 0.12395011D+01  1  2  5  4  5  2       -2 -.253622124480D+00 0.100000000000D+01
  </mgrwgt>
  </event>
  <event>
  5     66 0.47139866E-03 0.11755513E+03 0.75467711E-02 0.12260070E+00
       21 -1    0    0  501  502 0.00000000E+00 0.00000000E+00 0.57271701E+02 0.57276612E+02 0.75000000E+00 0.0000E+00 0.9000E+01
       -2 -1    0    0    0  501 0.00000000E+00 0.00000000E+00 -.30269438E+03 0.30269455E+03 0.32000000E+00 0.0000E+00 0.9000E+01
       25  1    1    2    0    0 -.65202094E+02 0.28626871E+02 -.11702806E+03 0.18544912E+03 0.12500000E+03 0.0000E+00 0.9000E+01
      -24  1    1    2    0    0 0.43041405E+02 -.16028120E+02 -.97626986E+02 0.13456488E+03 0.80419002E+02 0.0000E+00 0.9000E+01
       -1  1    1    2    0  502 0.22160690E+02 -.12598751E+02 -.30767637E+02 0.39957159E+02 0.32000000E+00 0.0000E+00 0.9000E+01
#aMCatNLO 2  0  0  1  1 0.25491659D+02 0.00000000D+00  -5  5  0 0.00000000D+00 0.00000000D+00 0.00000000D+00 0.00000000D+00 0.00000000D+00
  <mgrwgt>
 0.5192596764D-01    1    2    0
 0.117985540241496D+03 0.000000000000000D+00 0.000000000000000D+00 0.117985540241496D+03
 0.117985540241496D+03 0.000000000000000D+00 0.000000000000000D+00 -.117985540241496D+03
 0.137390002913119D+03 -.520178763761290D+02 0.211314060071459D+02 0.993061518465169D+01
 0.985810775698727D+02 0.520178763761290D+02 -.211314060071459D+02 -.993061518465169D+01
 0.000000000000000D+00 0.000000000000000D+00 -.000000000000000D+00 -.000000000000000D+00
 0.129021734155046D+03 0.000000000000000D+00 0.000000000000000D+00 0.129021734155046D+03
 0.134368654529365D+03 0.000000000000000D+00 0.000000000000000D+00 -.134368654529365D+03
 0.144202732143190D+03 -.652020942561341D+02 0.286268710170902D+02 0.993061518465169D+01
 0.931412703138483D+02 0.430414047123282D+02 -.160281204060474D+02 -.993061518465169D+01
 0.260463862273733D+02 0.221606895438059D+02 -.125987506110428D+02 -.534692037431847D+01
0.937248274733D-05 0.000000000000D+00 0.000000000000D+00 0.280573590320D-02 0.577699009534D-06  5 21 -2 25 -24 -1 2 0.88113557D-02 0.46568409D-01 0.17156076D+05 0.17156076D+05 0.17156076D+05 0.12412276D+01  1  2  1  3  5  1        1 0.519259676380D-01 0.100000000000D+01
  </mgrwgt>
  </event>
  <event>
  4     66 0.47139866E-03 0.41771323E+02 0.75467711E-02 0.12150461E+00
        1 -1    0    0  501    0 0.00000000E+00 0.00000000E+00 0.64003775E+03 0.64003783E+03 0.32000000E+00 0.0000E+00 0.9000E+01
       -2 -1    0    0    0  501 0.00000000E+00 0.00000000E+00 -.19690702E+02 0.19693303E+02 0.32000000E+00 0.0000E+00 0.9000E+01
       25  1    1    2    0    0 0.31167351E+02 -.21462286E+02 0.43488411E+03 0.45407182E+03 0.12500000E+03 0.0000E+00 0.9000E+01
      -24  1    1    2    0    0 -.31167351E+02 0.21462286E+02 0.18546294E+03 0.20565931E+03 0.80419002E+02 0.0000E+00 0.9000E+01
#aMCatNLO 1  0  0  2  1 0.51831158D+02 0.00000000D+00  -5  5  0 0.00000000D+00 0.00000000D+00 0.00000000D+00 0.00000000D+00 0.00000000D+00
  <mgrwgt>
 0.2408145548D+00    9    2    0
 0.112266098870342D+03 0.000000000000000D+00 0.000000000000000D+00 0.112266098870342D+03
 0.112266098870342D+03 0.000000000000000D+00 0.000000000000000D+00 -.112266098870342D+03
 0.132659129664540D+03 0.311673508380536D+02 -.214622862450267D+02 0.232682443305760D+02
 0.918730680761435D+02 -.311673508380536D+02 0.214622862450267D+02 -.232682443305760D+02
 0.000000000000000D+00 0.000000000000000D+00 -.000000000000000D+00 -.000000000000000D+00
 0.137057775647027D+03 0.000000000000000D+00 0.000000000000000D+00 0.137057775647027D+03
 0.145971135002475D+03 0.000000000000000D+00 0.000000000000000D+00 -.145971135002475D+03
 0.127469407830399D+03 0.883893824739836D+01 -.197785466199092D+01 0.232682443305760D+02
 0.102967517873352D+03 -.478917019391703D+02 0.360564484353455D+02 -.232682443305760D+02
 0.525919849457506D+02 0.390527636917720D+02 -.340785937733546D+02 -.891335935544786D+01
0.167267433638D-03 0.000000000000D+00 0.000000000000D+00 0.284507643178D-02 0.000000000000D+00  5 1 -2 25 -24 21 0 0.98467552D-01 0.30295450D-02 0.12042901D+05 0.12042901D+05 0.12042901D+05 0.12588425D+01  1  2  2  2  5  2       -2 0.184959469166D+00 0.100000000000D+01
-.928678411547D-05 0.000000000000D+00 -.642350987696D-06 0.284507643178D-02 0.000000000000D+00  5 1 -2 25 -24 21 2 0.98467552D-01 0.30295450D-02 0.12042901D+05 0.12042901D+05 0.12042901D+05 0.12588425D+01  1  2  3  2  5  2       -2 -.162732135731D-01 0.100000000000D+01
0.115640083708D-04 0.000000000000D+00 0.000000000000D+00 0.284507643178D-02 0.000000000000D+00  5 1 -2 25 -24 21 2 0.98467552D-01 0.30295450D-02 0.12042901D+05 0.12042901D+05 0.12042901D+05 0.12588425D+01  1  2 15  2  5  2       -2 0.202635891648D-01 0.100000000000D+01
0.493808494719D-04 0.000000000000D+00 0.000000000000D+00 0.284507643178D-02 0.000000000000D+00  5 1 -2 25 -24 21 2 0.98467552D-01 0.41891869D-02 0.19246417D+05 0.19246417D+05 0.19246417D+05 0.12356666D+01  1  2 12  2  5  2       -2 0.524926394811D-01 0.100000000000D+01
-.658559959398D-04 0.000000000000D+00 0.000000000000D+00 0.284507643178D-02 0.000000000000D+00  5 1 -2 25 -24 21 2 0.98467552D-01 0.30295450D-02 0.12042901D+05 0.12042901D+05 0.12042901D+05 0.12588425D+01  1  2  4  2  5  2       -2 -.115399332392D+00 0.100000000000D+01
-.109240951297D-03 0.000000000000D+00 -.594203618017D-04 0.284507643178D-02 0.000000000000D+00  5 1 -2 25 -24 21 2 0.98467552D-01 0.48213209D-02 0.12042901D+05 0.12042901D+05 0.12042901D+05 0.12588425D+01  1  2  5  2  5  2       -2 -.964416958882D-01 0.100000000000D+01
0.128600340456D-03 0.000000000000D+00 0.535367264435D-04 0.284507643178D-02 0.000000000000D+00  5 1 -2 25 -24 21 2 0.98467552D-01 0.30295450D-02 0.12042901D+05 0.12042901D+05 0.12042901D+05 0.12588425D+01  1  2  6  2  5  2       -2 0.225346124104D+00 0.100000000000D+01
0.201819317955D-05 0.000000000000D+00 0.000000000000D+00 0.284507643178D-02 0.000000000000D+00  5 1 21 25 -24 2 2 0.98467552D-01 0.41891869D-02 0.19246417D+05 0.19246417D+05 0.19246417D+05 0.12356666D+01  1  2 12  4  5  2       -2 0.396021289564D-01 0.100000000000D+01
-.335751115198D-05 0.000000000000D+00 -.316409600632D-05 0.284507643178D-02 0.000000000000D+00  5 1 21 25 -24 2 2 0.98467552D-01 0.48213209D-02 0.12042901D+05 0.12042901D+05 0.12042901D+05 0.12588425D+01  1  2  5  4  5  2       -2 -.537351542325D-01 0.100000000000D+01
  </mgrwgt>
  </event>
  <event>
  5     66 0.47139866E-03 0.11189971E+03 0.75467711E-02 0.12398312E+00
        1 -1    0    0  501    0 0.00000000E+00 0.00000000E+00 0.65836205E+03 0.65836213E+03 0.32000000E+00 0.0000E+00 0.9000E+01
       -2 -1    0    0    0  502 0.00000000E+00 0.00000000E+00 -.33842552E+02 0.33844065E+02 0.32000000E+00 0.0000E+00 0.9000E+01
       25  1    1    2    0    0 -.23074085E+02 0.29532195E+02 0.44818842E+03 0.46680019E+03 0.12500000E+03 0.0000E+00 0.9000E+01
      -24  1    1    2    0    0 0.15256663E+02 -.46986500E+02 0.70361757E+02 0.11772209E+03 0.80419002E+02 0.0000E+00 0.9000E+01
       21  1    1    2  501  502 0.78174222E+01 0.17454305E+02 0.10596933E+03 0.10768392E+03 0.75000000E+00 0.0000E+00 0.9000E+01
#aMCatNLO 2  0  0  2  1 0.19124980D+02 0.00000000D+00  -5  5  0 0.00000000D+00 0.00000000D+00 0.00000000D+00 0.00000000D+00 0.00000000D+00
  <mgrwgt>
 0.3637425475D-01    1    2    0
 0.134542046461342D+03 0.000000000000000D+00 0.000000000000000D+00 0.134542046461342D+03
 0.134542046461342D+03 0.000000000000000D+00 0.000000000000000D+00 -.134542046461342D+03
 0.151558630284936D+03 -.187001084734864D+02 0.392981659607011D+02 0.738307423032640D+02
 0.117525462637747D+03 0.187001084734864D+02 -.392981659607011D+02 -.738307423032640D+02
 0.000000000000000D+00 0.000000000000000D+00 0.000000000000000D+00 0.000000000000000D+00
 0.161001106058615D+03 0.000000000000000D+00 0.000000000000000D+00 0.161001106058615D+03
 0.138382299668532D+03 0.000000000000000D+00 0.000000000000000D+00 -.138382299668532D+03
 0.149935127387283D+03 -.230740849196778D+02 0.295321946476961D+02 0.738307423032640D+02
 0.119827757255541D+03 0.152566627409560D+02 -.469865000556554D+02 -.738307423032640D+02
 0.296205210843220D+02 0.781742217872184D+01 0.174543054079593D+02 0.226188063900833D+02
0.486070730810D-04 0.000000000000D+00 0.000000000000D+00 0.187346518310D-02 0.432064993127D-04  5 1 -2 25 -24 21 2 0.10128318D+00 0.52064937D-02 0.14884370D+05 0.14884370D+05 0.14884370D+05 0.12482059D+01  1  2  1  2  5  2       -2 0.363742547493D-01 0.100000000000D+01
  </mgrwgt>
  </event>
  <event>
  5     66 0.47139866E-03 0.10478724E+03 0.75467711E-02 0.12240821E+00
        1 -1    0    0  501    0 0.00000000E+00 0.00000000E+00 0.23409829E+04 0.23409829E+04 0.32000000E+00 0.0000E+00 0.9000E+01
       21 -1    0    0  502  501 0.00000000E+00 0.00000000E+00 -.76492661E+01 0.76859464E+01 0.75000000E+00 0.0000E+00 0.9000E+01
       25  1    1    2    0    0 0.16140325E+02 0.47481058E+02 0.13599516E+04 0.13666046E+04 0.12500000E+03 0.0000E+00 0.9000E+01
      -24  1    1    2    0    0 0.40460315E+01 -.24397307E+01 0.56644792E+03 0.57214752E+03 0.80419002E+02 0.0000E+00 0.9000E+01
        2  1    1    2  502    0 -.20186357E+02 -.45041328E+02 0.40693414E+03 0.40991670E+03 0.32000000E+00 0.0000E+00 0.9000E+01
#aMCatNLO 2  0  0  2  1 0.49357980D+02 0.00000000D+00  -5  5  0 0.00000000D+00 0.00000000D+00 0.00000000D+00 0.00000000D+00 0.00000000D+00
  <mgrwgt>
 0.8326746452D-01    1    2    0
 0.106429226328172D+03 0.000000000000000D+00 0.000000000000000D+00 0.106429226328172D+03
 0.106429226328172D+03 0.000000000000000D+00 0.000000000000000D+00 -.106429226328172D+03
 0.127940667220807D+03 0.379292632909259D+01 0.199306071319080D+02 0.182263254146541D+02
 0.849177854355363D+02 -.379292632909259D+01 -.199306071319080D+02 -.182263254146541D+02
 0.000000000000000D+00 -.000000000000000D+00 -.000000000000000D+00 -.000000000000000D+00
 0.132341808023728D+03 0.000000000000000D+00 0.000000000000000D+00 0.132341808023728D+03
 0.135631836400505D+03 0.000000000000000D+00 0.000000000000000D+00 -.135631836400505D+03
 0.135912324466811D+03 0.161403251432395D+02 0.474810584140812D+02 0.182263254146541D+02
 0.825938106013505D+02 0.404603152782822D+01 -.243973073025940D+01 -.182263254146541D+02
 0.494675093560710D+02 -.201863566710677D+02 -.450413276838218D+02 -.329002837677702D+01
0.798650213474D-05 0.000000000000D+00 0.000000000000D+00 0.304085419997D-02 0.468396681299D-06  5 1 21 25 -24 2 2 0.36015264D+00 0.11796289D-02 0.17503333D+05 0.17503333D+05 0.17503333D+05 0.12402527D+01  1  2  1  4  5  2       -2 0.832674645229D-01 0.100000000000D+01
  </mgrwgt>
  </event>
  <event>
  4     66 0.47139866E-03 0.16900662E+03 0.75467711E-02 0.11352076E+00
        1 -1    0    0  501    0 0.00000000E+00 0.00000000E+00 0.21517389E+03 0.21517413E+03 0.32000000E+00 0.0000E+00 0.9000E+01
       -2 -1    0    0    0  501 0.00000000E+00 0.00000000E+00 -.19189386E+03 0.19189412E+03 0.32000000E+00 0.0000E+00 0.9000E+01
       25  1    1    2    0    0 0.13108293E+03 -.22757466E+02 -.10046397E+03 0.20837142E+03 0.12500000E+03 0.0000E+00 0.9000E+01
      -24  1    1    2    0    0 -.13108293E+03 0.22757466E+02 0.12374400E+03 0.19869683E+03 0.80419002E+02 0.0000E+00 0.9000E+01
#aMCatNLO 1  0  0  1  1 0.89644758D+02 0.00000000D+00  -5  5  0 0.00000000D+00 0.00000000D+00 0.00000000D+00 0.00000000D+00 0.00000000D+00
  <mgrwgt>
 0.1452431207D+00    4    2    0
 0.203201009795727D+03 0.000000000000000D+00 0.000000000000000D+00 0.203201009795727D+03
 0.203201009795727D+03 0.000000000000000D+00 0.000000000000000D+00 -.203201009795727D+03
 0.214467912522780D+03 0.131082932151701D+03 -.227574655801538D+02 -.112564862016349D+03
 0.191934107068675D+03 -.131082932151701D+03 0.227574655801538D+02 0.112564862016349D+03
 0.000000000000000D+00 -.000000000000000D+00 -.000000000000000D+00 -.000000000000000D+00
 0.232990050684241D+03 0.000000000000000D+00 0.000000000000000D+00 0.232990050684241D+03
 0.288756551409198D+03 0.000000000000000D+00 0.000000000000000D+00 -.288756551409198D+03
 0.243693085382687D+03 0.176317488644833D+03 -.161706541396861D+01 -.112564862016349D+03
 0.172478494823582D+03 -.951042205143872D+02 0.395721404757079D+02 0.112564862016349D+03
 0.105575021887170D+03 -.812132681304455D+02 -.379550750617393D+02 -.557665007249568D+02
0.160955000507D-02 0.000000000000D+00 0.000000000000D+00 0.152427228894D-02 0.000000000000D+00  5 1 -2 25 -24 21 0 0.33103714D-01 0.29522171D-01 0.28563238D+05 0.28563238D+05 0.28563238D+05 0.12171417D+01  1  2  2  1  5  1        1 0.196671937033D+00 0.100000000000D+01
-.857282649618D-04 0.000000000000D+00 -.618109582371D-05 0.152427228894D-02 0.000000000000D+00  5 1 -2 25 -24 21 2 0.33103714D-01 0.29522171D-01 0.28563238D+05 0.28563238D+05 0.28563238D+05 0.12171417D+01  1  2  3  1  5  1        1 -.155183045497D-01 0.100000000000D+01
0.111075125722D-03 0.000000000000D+00 0.000000000000D+00 0.152427228894D-02 0.000000000000D+00  5 1 -2 25 -24 21 2 0.33103714D-01 0.29522171D-01 0.28563238D+05 0.28563238D+05 0.28563238D+05 0.12171417D+01  1  2 15  1  5  1        1 0.201065264719D-01 0.100000000000D+01
-.309456711707D-03 0.000000000000D+00 0.000000000000D+00 0.152427228894D-02 0.000000000000D+00  5 1 -2 25 -24 21 2 0.33103714D-01 0.29522171D-01 0.28563238D+05 0.28563238D+05 0.28563238D+05 0.12171417D+01  1  2  4  1  5  1        1 -.560170382470D-01 0.100000000000D+01
  </mgrwgt>
  </event>
  <event>
  4     66 0.47139866E-03 0.74194671E+02 0.75467711E-02 0.11923145E+00
        1 -1    0    0  501    0 0.00000000E+00 0.00000000E+00 0.10600875E+04 0.10600875E+04 0.32000000E+00 0.0000E+00 0.9000E+01
       -2 -1    0    0    0  501 0.00000000E+00 0.00000000E+00 -.13069405E+02 0.13073322E+02 0.32000000E+00 0.0000E+00 0.9000E+01
       25  1    1    2    0    0 -.18858812E+02 0.43435382E+02 0.75025660E+03 0.76207103E+03 0.12500000E+03 0.0000E+00 0.9000E+01
      -24  1    1    2    0    0 0.18858812E+02 -.43435382E+02 0.29676144E+03 0.31108979E+03 0.80419002E+02 0.0000E+00 0.9000E+01
#aMCatNLO 1  0  0  2  1 0.74822766D+02 0.00000000D+00  -5  5  0 0.00000000D+00 0.00000000D+00 0.00000000D+00 0.00000000D+00 0.00000000D+00
  <mgrwgt>
 0.1272415573D+00    7    2    0
 0.117715079693016D+03 0.000000000000000D+00 0.000000000000000D+00 0.117715079693016D+03
 0.117715079693016D+03 0.000000000000000D+00 0.000000000000000D+00 -.117715079693016D+03
 0.137164125791255D+03 -.188588117031206D+02 0.434353820242653D+02 0.307686563507665D+02
 0.982660335947764D+02 0.188588117031206D+02 -.434353820242653D+02 -.307686563507665D+02
 0.000000000000000D+00 -.000000000000000D+00 -.000000000000000D+00 -.000000000000000D+00
 0.137520332446795D+03 0.000000000000000D+00 0.000000000000000D+00 0.137520332446795D+03
 0.223465537821868D+03 0.000000000000000D+00 0.000000000000000D+00 -.223465537821868D+03
 0.149544841761758D+03 0.123628465561074D+02 0.750940044807030D+02 0.307686563507665D+02
 0.974891765260694D+02 0.401759066130534D+02 -.218199427026801D+02 -.307686563507665D+02
 0.113951851980835D+03 -.525387531691608D+02 -.532740617780230D+02 -.859452053750735D+02
0.196216738896D-03 0.000000000000D+00 0.000000000000D+00 0.266239716482D-02 0.000000000000D+00  5 1 -2 25 -24 21 0 0.16309068D+00 0.20109827D-02 0.12881489D+05 0.12881489D+05 0.12881489D+05 0.12554321D+01  1  2  2  2  5  2       -2 0.182508374647D+00 0.100000000000D+01
-.108832783305D-04 0.000000000000D+00 -.753523942415D-06 0.266239716482D-02 0.000000000000D+00  5 1 -2 25 -24 21 2 0.16309068D+00 0.20109827D-02 0.12881489D+05 0.12881489D+05 0.12881489D+05 0.12554321D+01  1  2  3  2  5  2       -2 -.159548575946D-01 0.100000000000D+01
0.135703866029D-04 0.000000000000D+00 0.000000000000D+00 0.266239716482D-02 0.000000000000D+00  5 1 -2 25 -24 21 2 0.16309068D+00 0.20109827D-02 0.12881489D+05 0.12881489D+05 0.12881489D+05 0.12554321D+01  1  2 15  2  5  2       -2 0.198941513005D-01 0.100000000000D+01
0.387362330218D-04 0.000000000000D+00 0.000000000000D+00 0.266239716482D-02 0.000000000000D+00  5 1 -2 25 -24 21 2 0.16309068D+00 0.38526765D-02 0.24597915D+05 0.24597915D+05 0.24597915D+05 0.12240533D+01  1  2 12  2  5  2       -2 0.211108049458D-01 0.100000000000D+01
-.117193378220D-03 0.000000000000D+00 -.567296346001D-04 0.266239716482D-02 0.000000000000D+00  5 1 -2 25 -24 21 2 0.16309068D+00 0.44829413D-02 0.12881489D+05 0.12881489D+05 0.12881489D+05 0.12554321D+01  1  2  5  2  5  2       -2 -.531328792261D-01 0.100000000000D+01
0.273381739365D-05 0.000000000000D+00 0.000000000000D+00 0.266239716482D-02 0.000000000000D+00  5 1 21 25 -24 2 2 0.16309068D+00 0.38526765D-02 0.24597915D+05 0.24597915D+05 0.24597915D+05 0.12240533D+01  1  2 12  4  5  2       -2 0.278115547022D-01 0.100000000000D+01
-.661142042688D-05 0.000000000000D+00 -.493436892011D-05 0.266239716482D-02 0.000000000000D+00  5 1 21 25 -24 2 2 0.16309068D+00 0.44829413D-02 0.12881489D+05 0.12881489D+05 0.12881489D+05 0.12554321D+01  1  2  5  4  5  2       -2 -.549955914294D-01 0.100000000000D+01
  </mgrwgt>
  </event>
  <event>
  4     66 0.47139866E-03 0.92696270E+02 0.75467711E-02 0.12100415E+00
        1 -1    0    0  501    0 0.00000000E+00 0.00000000E+00 0.21428165E+04 0.21428165E+04 0.32000000E+00 0.0000E+00 0.9000E+01
       -2 -1    0    0    0  501 0.00000000E+00 0.00000000E+00 -.10539721E+02 0.10544578E+02 0.32000000E+00 0.0000E+00 0.9000E+01
       25  1    1    2    0    0 -.84607866E+02 0.45732397E+02 0.81415882E+03 0.82929460E+03 0.12500000E+03 0.0000E+00 0.9000E+01
      -24  1    1    2    0    0 0.84607866E+02 -.45732397E+02 0.13181179E+04 0.13240665E+04 0.80419002E+02 0.0000E+00 0.9000E+01
#aMCatNLO 1  0  0  1  2 0.18385345D+01 0.00000000D+00  -5  5  0 0.00000000D+00 0.00000000D+00 0.00000000D+00 0.00000000D+00 0.00000000D+00
  <mgrwgt>
 0.6957838528D+00   11    2    0
 0.150299512870885D+03 0.000000000000000D+00 0.000000000000000D+00 0.150299512870885D+03
 0.150299512870885D+03 0.000000000000000D+00 0.000000000000000D+00 -.150299512870885D+03
 0.165532070632893D+03 -.846078656524090D+02 0.457323970107982D+02 -.502585648561879D+02
 0.135066955108878D+03 0.846078656524090D+02 -.457323970107982D+02 0.502585648561879D+02
 0.000000000000000D+00 -.000000000000000D+00 0.000000000000000D+00 0.000000000000000D+00
 0.152340589854706D+03 0.000000000000000D+00 0.000000000000000D+00 0.152340589854706D+03
 0.150716917820485D+03 0.000000000000000D+00 0.000000000000000D+00 -.150716917820485D+03
 0.165078764007867D+03 -.842210776127485D+02 0.447982708450751D+02 -.502585648561879D+02
 0.135525884136345D+03 0.849244374730258D+02 -.464969450077534D+02 0.502585648561879D+02
 0.245285953097850D+01 -.703359860277284D+00 0.169867416267839D+01 0.162367203422110D+01
0.598154828671D-03 0.000000000000D+00 0.000000000000D+00 0.216090076256D-02 0.000000000000D+00  5 1 -2 25 -24 21 0 0.32966445D+00 0.16218710D-02 0.20034423D+05 0.20034423D+05 0.20034423D+05 0.12337438D+01  1  2  2  1  5  1        1 0.150727243497D+00 0.100000000000D+01
-.330852417843D-04 0.000000000000D+00 -.229707203988D-05 0.216090076256D-02 0.000000000000D+00  5 1 -2 25 -24 21 2 0.32966445D+00 0.16218710D-02 0.20034423D+05 0.20034423D+05 0.20034423D+05 0.12337438D+01  1  2  3  1  5  1        1 -.126900240747D-01 0.100000000000D+01
0.413520027956D-04 0.000000000000D+00 0.000000000000D+00 0.216090076256D-02 0.000000000000D+00  5 1 -2 25 -24 21 2 0.32966445D+00 0.16218710D-02 0.20034423D+05 0.20034423D+05 0.20034423D+05 0.12337438D+01  1  2 15  1  5  1        1 0.158607851330D-01 0.100000000000D+01
0.357181016880D-06 0.000000000000D+00 0.000000000000D+00 0.216090076256D-02 0.000000000000D+00  5 1 -2 25 -24 21 2 0.33459528D+00 0.16218710D-02 0.20298131D+05 0.20298131D+05 0.20298131D+05 0.12331192D+01  1  2 12  1  5  1        1 0.130553458026D-03 0.100000000000D+01
-.139809399642D-01 0.000000000000D+00 0.000000000000D+00 0.216090076256D-02 0.000000000000D+00  5 1 -2 25 -24 21 2 0.32966445D+00 0.16218710D-02 0.20034423D+05 0.20034423D+05 0.20034423D+05 0.12337438D+01  1  2  4  1  5  1        1 -.536246541248D+01 0.100000000000D+01
-.457906944568D-01 0.000000000000D+00 -.432748491473D-02 0.216090076256D-02 0.000000000000D+00  5 1 -2 25 -24 21 2 0.33449027D+00 0.16218710D-02 0.20034423D+05 0.20034423D+05 0.20034423D+05 0.12337438D+01  1  2  5  1  5  1        1 -.167705404715D+02 0.100000000000D+01
0.458491988608D-01 0.000000000000D+00 0.432702798793D-02 0.216090076256D-02 0.000000000000D+00  5 1 -2 25 -24 21 2 0.32966445D+00 0.16218710D-02 0.20034423D+05 0.20034423D+05 0.20034423D+05 0.12337438D+01  1  2  6  1  5  1        1 0.175857090948D+02 0.100000000000D+01
0.139821428707D-01 0.000000000000D+00 0.000000000000D+00 0.216090076256D-02 0.518499931566D-02  5 1 -2 25 -24 21 2 0.33414131D+00 0.16263752D-02 0.20298131D+05 0.20298131D+05 0.20298131D+05 0.12331192D+01  1  2 11  1  5  1        1 0.511234731715D+01 0.100000000000D+01
0.272634475554D-07 0.000000000000D+00 0.000000000000D+00 0.216090076256D-02 0.000000000000D+00  5 21 -2 25 -24 -1 2 0.33459528D+00 0.16218710D-02 0.20298131D+05 0.20298131D+05 0.20298131D+05 0.12331192D+01  1  2 12  3  5  1        1 0.754282910178D-05 0.100000000000D+01
-.121759654175D-03 0.000000000000D+00 -.115387943448D-04 0.216090076256D-02 0.000000000000D+00  5 21 -2 25 -24 -1 2 0.33449027D+00 0.16218710D-02 0.20034423D+05 0.20034423D+05 0.20034423D+05 0.12337438D+01  1  2  5  3  5  1        1 -.338001725656D-01 0.100000000000D+01
0.378676680618D-04 0.000000000000D+00 0.000000000000D+00 0.216090076256D-02 0.128450188595D-04  5 21 -2 25 -24 -1 2 0.33414131D+00 0.16263752D-02 0.20298131D+05 0.20298131D+05 0.20298131D+05 0.12331192D+01  1  2 11  3  5  1        1 0.104973965681D-01 0.100000000000D+01
  </mgrwgt>
  </event>
  <event>
  4     66 0.47139866E-03 0.11110724E+03 0.75467711E-02 0.10632946E+00
        1 -1    0    0  501    0 0.00000000E+00 0.00000000E+00 0.17490699E+02 0.17493626E+02 0.32000000E+00 0.0000E+00 0.9000E+01
       -2 -1    0    0    0  501 0.00000000E+00 0.00000000E+00 -.72128892E+03 0.72128899E+03 0.32000000E+00 0.0000E+00 0.9000E+01
       25  1    1    2    0    0 -.35960663E+02 0.20739767E+02 -.46908363E+03 0.48722455E+03 0.12500000E+03 0.0000E+00 0.9000E+01
      -24  1    1    2    0    0 0.35960663E+02 -.20739767E+02 -.23471458E+03 0.25155806E+03 0.80419002E+02 0.0000E+00 0.9000E+01
#aMCatNLO 1  0  0  2  2 0.31306065D+03 0.00000000D+00  -5  5  0 0.00000000D+00 0.00000000D+00 0.00000000D+00 0.00000000D+00 0.00000000D+00
  <mgrwgt>
 0.2236684356D+00    3    2    0
 0.112325218439383D+03 0.000000000000000D+00 0.000000000000000D+00 0.112325218439383D+03
 0.112325218439383D+03 0.000000000000000D+00 0.000000000000000D+00 -.112325218439383D+03
 0.132707515871931D+03 -.359606625876295D+02 0.207397667264541D+02 -.162165838353712D+02
 0.919429210068357D+02 0.359606625876295D+02 -.207397667264541D+02 0.162165838353712D+02
 0.000000000000000D+00 0.000000000000000D+00 -.000000000000000D+00 0.000000000000000D+00
 0.103476615991793D+04 0.000000000000000D+00 0.000000000000000D+00 0.103476615991793D+04
 0.221757993984520D+03 0.000000000000000D+00 0.000000000000000D+00 -.221757993984520D+03
 0.276003911603566D+03 -.130477772928955D+03 0.208004164383023D+03 -.162165838353712D+02
 0.109320352656800D+03 -.105827461984208D+02 0.714755303740155D+02 0.162165838353712D+02
 0.871199889642082D+03 0.141060519127375D+03 -.279479694757038D+03 0.813008165933408D+03
0.995765540397D-03 0.000000000000D+00 0.000000000000D+00 0.289880648639D-02 0.000000000000D+00  5 1 -2 25 -24 21 0 0.26911074D-02 0.11096776D+00 0.12344819D+05 0.12344819D+05 0.12344819D+05 0.12575847D+01  1  2  2  2  5  2       -2 0.218941012338D+00 0.100000000000D+01
-.553123127579D-04 0.000000000000D+00 -.382400186621D-05 0.289880648639D-02 0.000000000000D+00  5 1 -2 25 -24 21 2 0.26911074D-02 0.11096776D+00 0.12344819D+05 0.12344819D+05 0.12344819D+05 0.12575847D+01  1  2  3  2  5  2       -2 -.192338551269D-01 0.100000000000D+01
0.689073362271D-04 0.000000000000D+00 0.000000000000D+00 0.289880648639D-02 0.000000000000D+00  5 1 -2 25 -24 21 2 0.26911074D-02 0.11096776D+00 0.12344819D+05 0.12344819D+05 0.12344819D+05 0.12575847D+01  1  2 15  2  5  2       -2 0.239612783500D-01 0.100000000000D+01
  </mgrwgt>
  </event>
  <event>
  4     66 0.47139866E-03 0.23696181E+03 0.75467711E-02 0.10774285E+00
        1 -1    0    0  501    0 0.00000000E+00 0.00000000E+00 0.17953286E+04 0.17953286E+04 0.32000000E+00 0.0000E+00 0.9000E+01
       -2 -1    0    0    0  501 0.00000000E+00 0.00000000E+00 -.31285088E+02 0.31286725E+02 0.32000000E+00 0.0000E+00 0.9000E+01
       25  1    1    2    0    0 -.15778331E+03 -.14248708E+03 0.93414210E+03 0.96614936E+03 0.12500000E+03 0.0000E+00 0.9000E+01
      -24  1    1    2    0    0 0.15778331E+03 0.14248708E+03 0.82990139E+03 0.86046596E+03 0.80419002E+02 0.0000E+00 0.9000E+01
#aMCatNLO 1  0  0  2  2 0.13856763D+03 0.00000000D+00  -5  5  0 0.00000000D+00 0.00000000D+00 0.00000000D+00 0.00000000D+00 0.00000000D+00
  <mgrwgt>
 0.2328141947D+00    7    2    0
 0.236999016559095D+03 0.000000000000000D+00 0.000000000000000D+00 0.236999016559095D+03
 0.236999016559095D+03 0.000000000000000D+00 0.000000000000000D+00 -.236999016559095D+03
 0.246659166397044D+03 -.157783306807303D+03 -.142487080637141D+03 0.419574929444313D+01
 0.227338866721146D+03 0.157783306807303D+03 0.142487080637141D+03 -.419574929444313D+01
 0.000000000000000D+00 0.000000000000000D+00 0.000000000000000D+00 -.000000000000000D+00
 0.305564018387299D+03 0.000000000000000D+00 0.000000000000000D+00 0.305564018387299D+03
 0.328770564023820D+03 0.000000000000000D+00 0.000000000000000D+00 -.328770564023820D+03
 0.316135213703430D+03 -.231271120564483D+03 -.175535004554705D+03 0.419574929444313D+01
 0.177701927967785D+03 0.104894430271531D+03 0.118702626066007D+03 -.419574929444313D+01
 0.140497440739905D+03 0.126376690292951D+03 0.568323784886978D+02 -.232065456365210D+02
0.267542620297D-02 0.000000000000D+00 0.000000000000D+00 0.208111639979D-02 0.000000000000D+00  5 1 -2 25 -24 21 0 0.27620452D+00 0.48132186D-02 0.56150900D+05 0.56150900D+05 0.56150900D+05 0.11873237D+01  1  2  2  2  5  2       -2 0.224343575650D+00 0.100000000000D+01
-.148634784600D-03 0.000000000000D+00 -.102743410753D-04 0.208111639979D-02 0.000000000000D+00  5 1 -2 25 -24 21 2 0.27620452D+00 0.48132186D-02 0.56150900D+05 0.56150900D+05 0.56150900D+05 0.11873237D+01  1  2  3  2  5  2       -2 -.175703078562D-01 0.100000000000D+01
0.184124692523D-03 0.000000000000D+00 0.000000000000D+00 0.208111639979D-02 0.000000000000D+00  5 1 -2 25 -24 21 2 0.27620452D+00 0.48132186D-02 0.56150900D+05 0.56150900D+05 0.56150900D+05 0.11873237D+01  1  2 15  2  5  2       -2 0.217656152311D-01 0.100000000000D+01
-.825000538620D-03 0.000000000000D+00 0.000000000000D+00 0.208111639979D-02 0.000000000000D+00  5 1 -2 25 -24 21 2 0.27620452D+00 0.48132186D-02 0.56150900D+05 0.56150900D+05 0.56150900D+05 0.11873237D+01  1  2  4  2  5  2       -2 -.975243680953D-01 0.100000000000D+01
-.965500817164D-03 0.000000000000D+00 -.819331566405D-03 0.208111639979D-02 0.000000000000D+00  5 1 -2 25 -24 21 2 0.27620452D+00 0.90316657D-02 0.56150900D+05 0.56150900D+05 0.56150900D+05 0.11873237D+01  1  2  5  2  5  2       -2 -.431292998625D-01 0.100000000000D+01
0.134506529862D-02 0.000000000000D+00 0.680124788420D-03 0.208111639979D-02 0.000000000000D+00  5 1 -2 25 -24 21 2 0.27620452D+00 0.48132186D-02 0.56150900D+05 0.56150900D+05 0.56150900D+05 0.11873237D+01  1  2  6  2  5  2       -2 0.159001888065D+00 0.100000000000D+01
-.200332262179D-04 0.000000000000D+00 -.561249873398D-04 0.208111639979D-02 0.000000000000D+00  5 1 21 25 -24 2 2 0.27620452D+00 0.90316657D-02 0.56150900D+05 0.56150900D+05 0.56150900D+05 0.11873237D+01  1  2  5  4  5  2       -2 -.140729084411D-01 0.100000000000D+01
  </mgrwgt>
  </event>
  <event>
  4     66 0.47139866E-03 0.15540491E+03 0.75467711E-02 0.97028645E-01
        1 -1    0    0  501    0 0.00000000E+00 0.00000000E+00 0.12491546E+04 0.12491546E+04 0.32000000E+00 0.0000E+00 0.9000E+01
       -2 -1    0    0    0  501 0.00000000E+00 0.00000000E+00 -.19660719E+02 0.19663323E+02 0.32000000E+00 0.0000E+00 0.9000E+01
       25  1    1    2    0    0 0.30839509E+02 -.11122292E+03 0.75368127E+03 0.77264615E+03 0.12500000E+03 0.0000E+00 0.9000E+01
      -24  1    1    2    0    0 -.30839509E+02 0.11122292E+03 0.47581257E+03 0.49617178E+03 0.80419002E+02 0.0000E+00 0.9000E+01
#aMCatNLO 1  0  0  1  2 0.67462876D+03 0.00000000D+00  -5  5  0 0.00000000D+00 0.00000000D+00 0.00000000D+00 0.00000000D+00 0.00000000D+00
  <mgrwgt>
 0.2529569273D+00    5    2    0
 0.156719352303476D+03 0.000000000000000D+00 0.000000000000000D+00 0.156719352303476D+03
 0.156719352303476D+03 0.000000000000000D+00 0.000000000000000D+00 -.156719352303476D+03
 0.171327924746871D+03 0.308395092072023D+02 -.111222920909064D+03 0.201654242302191D+02
 0.142110779860080D+03 -.308395092072023D+02 0.111222920909064D+03 -.201654242302191D+02
 0.000000000000000D+00 0.000000000000000D+00 -.000000000000000D+00 0.000000000000000D+00
 0.781141423799321D+03 0.000000000000000D+00 0.000000000000000D+00 0.781141423799321D+03
 0.650002022825036D+03 0.000000000000000D+00 0.000000000000000D+00 -.650002022825036D+03
 0.165330282732950D+03 -.741716017934633D+02 0.761645031597016D+02 0.201654242302191D+02
 0.578556659172080D+03 -.255631558690528D+03 0.512353836508574D+03 -.201654242302191D+02
 0.687256504719327D+03 0.329803160483991D+03 -.588518339668275D+03 0.131139400974285D+03
0.645306741626D-03 0.000000000000D+00 0.000000000000D+00 0.232343335555D-02 0.000000000000D+00  5 1 -2 25 -24 21 0 0.19217783D+00 0.30249295D-02 0.24150686D+05 0.24150686D+05 0.24150686D+05 0.12249102D+01  1  2  2  1  5  1        1 0.247916673032D+00 0.100000000000D+01
-.358472823235D-04 0.000000000000D+00 -.247814780101D-05 0.232343335555D-02 0.000000000000D+00  5 1 -2 25 -24 21 2 0.19217783D+00 0.30249295D-02 0.24150686D+05 0.24150686D+05 0.24150686D+05 0.12249102D+01  1  2  3  1  5  1        1 -.206635197110D-01 0.100000000000D+01
0.445911327606D-04 0.000000000000D+00 0.000000000000D+00 0.232343335555D-02 0.000000000000D+00  5 1 -2 25 -24 21 2 0.19217783D+00 0.30249295D-02 0.24150686D+05 0.24150686D+05 0.24150686D+05 0.12249102D+01  1  2 15  1  5  1        1 0.257037546786D-01 0.100000000000D+01
0.379932467361D-03 0.000000000000D+00 -.267884166259D-03 0.232343335555D-02 0.000000000000D+00  5 1 -2 25 -24 21 2 0.98302921D+00 0.30249295D-02 0.24150686D+05 0.24150686D+05 0.24150686D+05 0.12249102D+01  1  2  5  1  5  1        1 0.193107086636D-07 0.100000000000D+01
0.668975781259D-04 0.000000000000D+00 -.533569755607D-04 0.232343335555D-02 0.000000000000D+00  5 21 -2 25 -24 -1 2 0.98302921D+00 0.30249295D-02 0.24150686D+05 0.24150686D+05 0.24150686D+05 0.12249102D+01  1  2  5  3  5  1        1 0.140446610823D-10 0.100000000000D+01
  </mgrwgt>
  </event>
  <event>
  4     66 -.47139866E-03 0.67342531E+02 0.75467711E-02 0.12257596E+00
        1 -1    0    0  501    0 0.00000000E+00 0.00000000E+00 0.17942665E+04 0.17942665E+04 0.32000000E+00 0.0000E+00 0.9000E+01
       -2 -1    0    0    0  501 0.00000000E+00 0.00000000E+00 -.15425082E+02 0.15428401E+02 0.32000000E+00 0.0000E+00 0.9000E+01
       25  1    1    2    0    0 -.13481697E+02 0.78113635E+02 0.40463924E+03 0.43086125E+03 0.12500000E+03 0.0000E+00 0.9000E+01
      -24  1    1    2    0    0 0.13481697E+02 -.78113635E+02 0.13742021E+04 0.13788336E+04 0.80419002E+02 0.0000E+00 0.9000E+01
#aMCatNLO 1  0  0  2  1 0.13217744D+01 0.00000000D+00  -5  5  0 0.00000000D+00 0.00000000D+00 0.00000000D+00 0.00000000D+00 0.00000000D+00
  <mgrwgt>
 -.4906833465D+00    9    2    0
 0.166372284590730D+03 0.000000000000000D+00 0.000000000000000D+00 0.166372284590730D+03
 0.166372284590730D+03 0.000000000000000D+00 0.000000000000000D+00 -.166372284590730D+03
 0.180133266577840D+03 -.134816970440330D+02 0.781136348874655D+02 -.102662055392846D+03
 0.152611302603620D+03 0.134816970440330D+02 -.781136348874655D+02 0.102662055392846D+03
 0.000000000000000D+00 0.000000000000000D+00 0.000000000000000D+00 -.000000000000000D+00
 0.166374024899241D+03 0.000000000000000D+00 0.000000000000000D+00 0.166374024899241D+03
 0.118763310091334D+04 0.000000000000000D+00 0.000000000000000D+00 -.118763310091334D+04
 0.179832288882452D+03 -.135613237927478D+02 0.774031330386961D+02 -.102662055392846D+03
 0.152914905556817D+03 0.134141126370419D+02 -.787166840749576D+02 0.102662055392846D+03
 0.102125993137332D+04 0.147211155705881D+00 0.131355103626154D+01 -.102125907601410D+04
0.138525077661D-04 0.000000000000D+00 0.000000000000D+00 0.148532642725D-02 0.000000000000D+00  5 1 -2 25 -24 21 0 0.27604125D+00 0.23733471D-02 0.17021669D+05 0.17021669D+05 0.17021669D+05 0.12416108D+01  1  2  2  2  5  2       -2 0.334510193250D-02 0.100000000000D+01
-.714282978029D-06 0.000000000000D+00 -.531972772710D-07 0.148532642725D-02 0.000000000000D+00  5 1 -2 25 -24 21 2 0.27604125D+00 0.23733471D-02 0.17021669D+05 0.17021669D+05 0.17021669D+05 0.12416108D+01  1  2  3  2  5  2       -2 -.265902380007D-03 0.100000000000D+01
0.948593971087D-06 0.000000000000D+00 0.000000000000D+00 0.148532642725D-02 0.000000000000D+00  5 1 -2 25 -24 21 2 0.27604125D+00 0.23733471D-02 0.17021669D+05 0.17021669D+05 0.17021669D+05 0.12416108D+01  1  2 15  2  5  2       -2 0.353128105150D-03 0.100000000000D+01
0.938361208490D-04 0.000000000000D+00 0.000000000000D+00 0.148532642725D-02 0.000000000000D+00  5 1 -2 25 -24 21 2 0.27604125D+00 0.16941806D-01 0.17200266D+05 0.17200266D+05 0.17200266D+05 0.12411023D+01  1  2 12  2  5  2       -2 0.171913383627D-02 0.100000000000D+01
-.116711240147D+01 0.000000000000D+00 -.697798203499D-05 0.148532642725D-02 0.000000000000D+00  5 1 -2 25 -24 21 2 0.27604125D+00 0.16941939D-01 0.17021669D+05 0.17021669D+05 0.17021669D+05 0.12416108D+01  1  2  5  2  5  2       -2 -.214071041114D+02 0.100000000000D+01
0.116343140768D+01 0.000000000000D+00 0.000000000000D+00 0.148532642725D-02 0.253387790420D-01  5 1 -2 25 -24 21 2 0.27604414D+00 0.16941918D-01 0.17200266D+05 0.17200266D+05 0.17200266D+05 0.12411023D+01  1  2 11  2  5  2       -2 0.213139407053D+02 0.100000000000D+01
0.225269234335D-04 0.000000000000D+00 0.000000000000D+00 0.148532642725D-02 0.000000000000D+00  5 1 21 25 -24 2 2 0.27604125D+00 0.16941806D-01 0.17200266D+05 0.17200266D+05 0.17200266D+05 0.12411023D+01  1  2 12  4  5  2       -2 0.594656984694D-02 0.100000000000D+01
-.280184247499D+00 0.000000000000D+00 -.167517359586D-05 0.148532642725D-02 0.000000000000D+00  5 1 21 25 -24 2 2 0.27604125D+00 0.16941939D-01 0.17021669D+05 0.17021669D+05 0.17021669D+05 0.12416108D+01  1  2  5  4  5  2       -2 -.740622288386D+02 0.100000000000D+01
0.279027206744D+00 0.000000000000D+00 0.000000000000D+00 0.148532642725D-02 0.607703097510D-02  5 1 21 25 -24 2 2 0.27604414D+00 0.16941918D-01 0.17200266D+05 0.17200266D+05 0.17200266D+05 0.12411023D+01  1  2 11  4  5  2       -2 0.736536108668D+02 0.100000000000D+01
  </mgrwgt>
  </event>
  <event>
  4     66 0.47139866E-03 0.72261083E+02 0.75467711E-02 0.11454093E+00
        1 -1    0    0  501    0 0.00000000E+00 0.00000000E+00 0.18683187E+03 0.18683214E+03 0.32000000E+00 0.0000E+00 0.9000E+01
       -2 -1    0    0    0  501 0.00000000E+00 0.00000000E+00 -.24175697E+03 0.24175718E+03 0.32000000E+00 0.0000E+00 0.9000E+01
       25  1    1    2    0    0 -.15883044E+03 0.46602877E+02 0.54531329E+02 0.21447052E+03 0.12500000E+03 0.0000E+00 0.9000E+01
      -24  1    1    2    0    0 0.15883044E+03 -.46602877E+02 -.10945643E+03 0.21411881E+03 0.80419002E+02 0.0000E+00 0.9000E+01
#aMCatNLO 1  0  0  1  2 0.18719455D+02 0.00000000D+00  -5  5  0 0.00000000D+00 0.00000000D+00 0.00000000D+00 0.00000000D+00 0.00000000D+00
  <mgrwgt>
 0.2572336036D+00    9    2    0
 0.212527670251734D+03 0.000000000000000D+00 0.000000000000000D+00 0.212527670251734D+03
 0.212527670251734D+03 0.000000000000000D+00 0.000000000000000D+00 -.212527670251734D+03
 0.223300131120927D+03 -.158830440701689D+03 0.466028774383277D+02 0.826983160626536D+02
 0.201755209382542D+03 0.158830440701689D+03 -.466028774383277D+02 -.826983160626536D+02
 0.000000000000000D+00 0.000000000000000D+00 0.000000000000000D+00 0.000000000000000D+00
 0.226930699182692D+03 0.000000000000000D+00 0.000000000000000D+00 0.226930699182692D+03
 0.218904294751311D+03 0.000000000000000D+00 0.000000000000000D+00 -.218904294751311D+03
 0.230372114319790D+03 -.168796598841405D+03 0.459892139109337D+02 0.826983160626536D+02
 0.195095229316672D+03 0.150112529765679D+03 -.471396804773220D+02 -.826983160626536D+02
 0.203676502975421D+02 0.186840690757260D+02 0.115046656638829D+01 0.802640443138073D+01
0.159407144649D-02 0.000000000000D+00 0.000000000000D+00 0.182177919089D-02 0.000000000000D+00  5 1 -2 25 -24 21 0 0.28743402D-01 0.37193418D-01 0.38308219D+05 0.38308219D+05 0.38308219D+05 0.12039108D+01  1  2  2  1  5  1        1 0.152531507404D+00 0.100000000000D+01
-.878291026907D-04 0.000000000000D+00 -.612165408318D-05 0.182177919089D-02 0.000000000000D+00  5 1 -2 25 -24 21 2 0.28743402D-01 0.37193418D-01 0.38308219D+05 0.38308219D+05 0.38308219D+05 0.12039108D+01  1  2  3  1  5  1        1 -.121808855793D-01 0.100000000000D+01
0.109764756448D-03 0.000000000000D+00 0.000000000000D+00 0.182177919089D-02 0.000000000000D+00  5 1 -2 25 -24 21 2 0.28743402D-01 0.37193418D-01 0.38308219D+05 0.38308219D+05 0.38308219D+05 0.12039108D+01  1  2 15  1  5  1        1 0.152231082633D-01 0.100000000000D+01
0.507738300840D-02 0.000000000000D+00 0.000000000000D+00 0.182177919089D-02 0.000000000000D+00  5 1 -2 25 -24 21 2 0.31100886D-01 0.37193418D-01 0.42114659D+05 0.42114659D+05 0.42114659D+05 0.11997349D+01  1  2 12  1  5  1        1 0.633822073591D+00 0.100000000000D+01
-.484362850184D-02 0.000000000000D+00 0.000000000000D+00 0.182177919089D-02 0.000000000000D+00  5 1 -2 25 -24 21 2 0.28743402D-01 0.37193418D-01 0.38308219D+05 0.38308219D+05 0.38308219D+05 0.12039108D+01  1  2  4  1  5  1        1 -.671755520235D+00 0.100000000000D+01
-.151032881644D-01 0.000000000000D+00 -.274152800694D-02 0.182177919089D-02 0.000000000000D+00  5 1 -2 25 -24 21 2 0.31527351D-01 0.37193418D-01 0.38308219D+05 0.38308219D+05 0.38308219D+05 0.12039108D+01  1  2  5  1  5  1        1 -.186484234271D+01 0.100000000000D+01
0.153029685649D-01 0.000000000000D+00 0.272985435849D-02 0.182177919089D-02 0.000000000000D+00  5 1 -2 25 -24 21 2 0.28743402D-01 0.37193418D-01 0.38308219D+05 0.38308219D+05 0.38308219D+05 0.12039108D+01  1  2  6  1  5  1        1 0.212234559392D+01 0.100000000000D+01
0.676293928095D-04 0.000000000000D+00 0.000000000000D+00 0.182177919089D-02 0.000000000000D+00  5 21 -2 25 -24 -1 2 0.31100886D-01 0.37193418D-01 0.42114659D+05 0.42114659D+05 0.42114659D+05 0.11997349D+01  1  2 12  3  5  1        1 0.532554016020D-01 0.100000000000D+01
-.221334106217D-03 0.000000000000D+00 -.415930175284D-04 0.182177919089D-02 0.000000000000D+00  5 21 -2 25 -24 -1 2 0.31527351D-01 0.37193418D-01 0.38308219D+05 0.38308219D+05 0.38308219D+05 0.12039108D+01  1  2  5  3  5  1        1 -.171165332640D+00 0.100000000000D+01
  </mgrwgt>
  </event>
  <event>
  4     66 0.47139866E-03 0.10438813E+03 0.75467711E-02 0.12379466E+00
        1 -1    0    0  501    0 0.00000000E+00 0.00000000E+00 0.15376060E+04 0.15376060E+04 0.32000000E+00 0.0000E+00 0.9000E+01
       -2 -1    0    0    0  501 0.00000000E+00 0.00000000E+00 -.71489758E+01 0.71561340E+01 0.32000000E+00 0.0000E+00 0.9000E+01
       25  1    1    2    0    0 0.74134534E+01 -.16638181E+02 0.85215299E+03 0.86146475E+03 0.12500000E+03 0.0000E+00 0.9000E+01
      -24  1    1    2    0    0 -.74134534E+01 0.16638181E+02 0.67830400E+03 0.68329739E+03 0.80419002E+02 0.0000E+00 0.9000E+01
#aMCatNLO 1  0  0  1  2 0.34706925D+02 0.00000000D+00  -5  5  0 0.00000000D+00 0.00000000D+00 0.00000000D+00 0.00000000D+00 0.00000000D+00
  <mgrwgt>
 0.2805319195D+00    4    2    0
 0.104870693823909D+03 0.000000000000000D+00 0.000000000000000D+00 0.104870693823909D+03
 0.104870693823909D+03 0.000000000000000D+00 0.000000000000000D+00 -.104870693823909D+03
 0.126701826316001D+03 0.741345343189751D+01 -.166381812515496D+02 -.982671993412712D+01
 0.830395613318172D+02 -.741345343189751D+01 0.166381812515496D+02 0.982671993412712D+01
 0.000000000000000D+00 0.000000000000000D+00 -.000000000000000D+00 -.000000000000000D+00
 0.111306726969734D+03 0.000000000000000D+00 0.000000000000000D+00 0.111306726969734D+03
 0.166405708530887D+03 0.000000000000000D+00 0.000000000000000D+00 -.166405708530887D+03
 0.127113654094771D+03 -.134348292799909D+02 -.159944363726526D+02 -.982671993412712D+01
 0.854799025138575D+02 -.212555619550835D+02 0.170655923049241D+02 0.982671993412712D+01
 0.651188788919924D+02 0.346903912350744D+02 -.107115593227143D+01 -.550989815611523D+02
0.297876693223D-03 0.000000000000D+00 0.000000000000D+00 0.314444851475D-02 0.000000000000D+00  5 1 -2 25 -24 21 0 0.23655532D+00 0.11003956D-02 0.10896881D+05 0.10896881D+05 0.10896881D+05 0.12639621D+01  1  2  2  1  5  1        1 0.314486721953D+00 0.100000000000D+01
-.165482771713D-04 0.000000000000D+00 -.114392493471D-05 0.314444851475D-02 0.000000000000D+00  5 1 -2 25 -24 21 2 0.23655532D+00 0.11003956D-02 0.10896881D+05 0.10896881D+05 0.10896881D+05 0.12639621D+01  1  2  3  1  5  1        1 -.279117252687D-01 0.100000000000D+01
0.206479709438D-04 0.000000000000D+00 0.000000000000D+00 0.314444851475D-02 0.000000000000D+00  5 1 -2 25 -24 21 2 0.23655532D+00 0.11003956D-02 0.10896881D+05 0.10896881D+05 0.10896881D+05 0.12639621D+01  1  2 15  1  5  1        1 0.348266158691D-01 0.100000000000D+01
-.242307848066D-04 0.000000000000D+00 0.000000000000D+00 0.314444851475D-02 0.000000000000D+00  5 1 -2 25 -24 21 2 0.23655532D+00 0.11003956D-02 0.10896881D+05 0.10896881D+05 0.10896881D+05 0.12639621D+01  1  2  4  1  5  1        1 -.408696930543D-01 0.100000000000D+01
  </mgrwgt>
  </event>
  <event>
  4     66 0.47139866E-03 0.11069360E+03 0.75467711E-02 0.96835398E-01
        1 -1    0    0  501    0 0.00000000E+00 0.00000000E+00 0.16839144E+02 0.16842184E+02 0.32000000E+00 0.0000E+00 0.9000E+01
       -2 -1    0    0    0  501 0.00000000E+00 0.00000000E+00 -.77721130E+03 0.77721136E+03 0.32000000E+00 0.0000E+00 0.9000E+01
       25  1    1    2    0    0 0.15277913E+02 -.37434292E+02 -.54535748E+03 0.56095857E+03 0.12500000E+03 0.0000E+00 0.9000E+01
      -24  1    1    2    0    0 -.15277913E+02 0.37434292E+02 -.21501467E+03 0.23309497E+03 0.80419002E+02 0.0000E+00 0.9000E+01
#aMCatNLO 1  0  0  1  2 0.70301916D+03 0.00000000D+00  -5  5  0 0.00000000D+00 0.00000000D+00 0.00000000D+00 0.00000000D+00 0.00000000D+00
  <mgrwgt>
 0.2119318460D+00    3    2    0
 0.114406320020645D+03 0.000000000000000D+00 0.000000000000000D+00 0.114406320020645D+03
 0.114406320020645D+03 0.000000000000000D+00 0.000000000000000D+00 -.114406320020645D+03
 0.134417854444567D+03 0.152779127089945D+02 -.374342917770135D+02 -.284327060951043D+02
 0.943947855967233D+02 -.152779127089945D+02 0.374342917770135D+02 0.284327060951043D+02
 0.000000000000000D+00 -.000000000000000D+00 -.000000000000000D+00 -.000000000000000D+00
 0.701505090673573D+03 0.000000000000000D+00 0.000000000000000D+00 0.701505090673573D+03
 0.741997267265951D+03 0.000000000000000D+00 0.000000000000000D+00 -.741997267265951D+03
 0.320037948312124D+03 0.203505814349051D+02 0.292534995204342D+03 -.284327060951043D+02
 0.419280090731863D+03 -.954423637648415D+01 0.410401105390627D+03 0.284327060951043D+02
 0.704184318895536D+03 -.108063450584209D+02 -.702936100594969D+03 -.404921765923777D+02
0.106841638172D-02 0.000000000000D+00 0.000000000000D+00 0.274822284826D-02 0.000000000000D+00  5 1 -2 25 -24 21 0 0.25908764D-02 0.11957121D+00 0.12253073D+05 0.12253073D+05 0.12253073D+05 0.12579632D+01  1  2  2  1  5  1        1 0.207411447560D+00 0.100000000000D+01
-.592779200896D-04 0.000000000000D+00 -.410300022630D-05 0.274822284826D-02 0.000000000000D+00  5 1 -2 25 -24 21 2 0.25908764D-02 0.11957121D+00 0.12253073D+05 0.12253073D+05 0.12253073D+05 0.12579632D+01  1  2  3  1  5  1        1 -.182104648908D-01 0.100000000000D+01
0.739925261181D-04 0.000000000000D+00 0.000000000000D+00 0.274822284826D-02 0.000000000000D+00  5 1 -2 25 -24 21 2 0.25908764D-02 0.11957121D+00 0.12253073D+05 0.12253073D+05 0.12253073D+05 0.12579632D+01  1  2 15  1  5  1        1 0.227308633133D-01 0.100000000000D+01
  </mgrwgt>
  </event>
  <event>
  4     66 0.47139866E-03 0.12179662E+03 0.75467711E-02 0.11544657E+00
        1 -1    0    0  501    0 0.00000000E+00 0.00000000E+00 0.65021404E+02 0.65022191E+02 0.32000000E+00 0.0000E+00 0.9000E+01
       -2 -1    0    0    0  501 0.00000000E+00 0.00000000E+00 -.30297396E+03 0.30297413E+03 0.32000000E+00 0.0000E+00 0.9000E+01
       25  1    1    2    0    0 0.51287423E+02 -.38874750E+02 -.42184729E+02 0.14678623E+03 0.12500000E+03 0.0000E+00 0.9000E+01
      -24  1    1    2    0    0 -.51287423E+02 0.38874750E+02 -.19576783E+03 0.22121009E+03 0.80419002E+02 0.0000E+00 0.9000E+01
#aMCatNLO 1  0  0  2  2 0.12092212D+03 0.00000000D+00  -5  5  0 0.00000000D+00 0.00000000D+00 0.00000000D+00 0.00000000D+00 0.00000000D+00
  <mgrwgt>
 0.1790954266D+00    3    2    0
 0.140356574701837D+03 0.000000000000000D+00 0.000000000000000D+00 0.140356574701837D+03
 0.140356574701837D+03 0.000000000000000D+00 0.000000000000000D+00 -.140356574701837D+03
 0.156668215366130D+03 0.512874225393810D+02 -.388747499490067D+02 0.691251315490786D+02
 0.124044934037544D+03 -.512874225393810D+02 0.388747499490067D+02 -.691251315490786D+02
 0.000000000000000D+00 -.000000000000000D+00 0.000000000000000D+00 0.000000000000000D+00
 0.225302896238382D+03 0.000000000000000D+00 0.000000000000000D+00 0.225302896238382D+03
 0.203261760702679D+03 0.000000000000000D+00 0.000000000000000D+00 -.203261760702679D+03
 0.197965272835493D+03 0.115775788927199D+03 -.733684682642227D+02 0.691251315490786D+02
 0.107684903314550D+03 -.914848430787590D+01 0.163353564602860D+02 -.691251315490786D+02
 0.122914480791018D+03 -.106627304619323D+03 0.570331118039366D+02 0.220411355357025D+02
0.735850237423D-03 0.000000000000D+00 0.000000000000D+00 0.195120813316D-02 0.000000000000D+00  5 1 -2 25 -24 21 0 0.10003366D-01 0.46611452D-01 0.14834416D+05 0.14834416D+05 0.14834416D+05 0.12483725D+01  1  2  2  2  5  2       -2 0.175009915240D+00 0.100000000000D+01
-.398806689237D-04 0.000000000000D+00 -.282585866552D-05 0.195120813316D-02 0.000000000000D+00  5 1 -2 25 -24 21 2 0.10003366D-01 0.46611452D-01 0.14834416D+05 0.14834416D+05 0.14834416D+05 0.12483725D+01  1  2  3  2  5  2       -2 -.147816879667D-01 0.100000000000D+01
0.509032886904D-04 0.000000000000D+00 0.000000000000D+00 0.195120813316D-02 0.000000000000D+00  5 1 -2 25 -24 21 2 0.10003366D-01 0.46611452D-01 0.14834416D+05 0.14834416D+05 0.14834416D+05 0.12483725D+01  1  2 15  2  5  2       -2 0.188671993276D-01 0.100000000000D+01
  </mgrwgt>
  </event>
  <event>
  4     66 0.47139866E-03 0.21702332E+03 0.75467711E-02 0.11339073E+00
        1 -1    0    0  501    0 0.00000000E+00 0.00000000E+00 0.11025348E+04 0.11025349E+04 0.32000000E+00 0.0000E+00 0.9000E+01
       -2 -1    0    0    0  501 0.00000000E+00 0.00000000E+00 -.50497204E+02 0.50498218E+02 0.32000000E+00 0.0000E+00 0.9000E+01
       25  1    1    2    0    0 -.55057165E+02 -.18202475E+03 0.32160275E+03 0.39397669E+03 0.12500000E+03 0.0000E+00 0.9000E+01
      -24  1    1    2    0    0 0.55057165E+02 0.18202475E+03 0.73043486E+03 0.75905639E+03 0.80419002E+02 0.0000E+00 0.9000E+01
#aMCatNLO 1  0  0  1  2 0.58240470D+01 0.00000000D+00  -5  5  0 0.00000000D+00 0.00000000D+00 0.00000000D+00 0.00000000D+00 0.00000000D+00
  <mgrwgt>
 0.1579408703D+00    6    2    0
 0.235956641455372D+03 0.000000000000000D+00 0.000000000000000D+00 0.235956641455372D+03
 0.235956641455372D+03 0.000000000000000D+00 0.000000000000000D+00 -.235956641455372D+03
 0.245659466505289D+03 -.550571652543961D+02 -.182024752745045D+03 -.925163305904351D+02
 0.226253816405456D+03 0.550571652543961D+02 0.182024752745045D+03 0.925163305904351D+02
 0.000000000000000D+00 -.000000000000000D+00 -.000000000000000D+00 -.000000000000000D+00
 0.236733131680818D+03 0.000000000000000D+00 0.000000000000000D+00 0.236733131680818D+03
 0.247154092644859D+03 0.000000000000000D+00 0.000000000000000D+00 -.247154092644859D+03
 0.243990151836361D+03 -.524188063993177D+02 -.180552461913103D+03 -.925163305904351D+02
 0.227959068007460D+03 0.575045818167538D+02 0.183390491510931D+03 0.925163305904351D+02
 0.119380044818556D+02 -.508577541743607D+01 -.283802959782843D+01 -.104209609640405D+02
0.172834268069D-02 0.000000000000D+00 0.000000000000D+00 0.177420492596D-02 0.000000000000D+00  5 1 -2 25 -24 21 0 0.16962082D+00 0.77688822D-02 0.47099122D+05 0.47099122D+05 0.47099122D+05 0.11948610D+01  1  2  2  1  5  1        1 0.202452556460D+00 0.100000000000D+01
-.952022662779D-04 0.000000000000D+00 -.663729097694D-05 0.177420492596D-02 0.000000000000D+00  5 1 -2 25 -24 21 2 0.16962082D+00 0.77688822D-02 0.47099122D+05 0.47099122D+05 0.47099122D+05 0.11948610D+01  1  2  3  1  5  1        1 -.159211889421D-01 0.100000000000D+01
0.118922720230D-03 0.000000000000D+00 0.000000000000D+00 0.177420492596D-02 0.000000000000D+00  5 1 -2 25 -24 21 2 0.16962082D+00 0.77688822D-02 0.47099122D+05 0.47099122D+05 0.47099122D+05 0.11948610D+01  1  2 15  1  5  1        1 0.198880885122D-01 0.100000000000D+01
-.510337548198D-03 0.000000000000D+00 0.000000000000D+00 0.177420492596D-02 0.000000000000D+00  5 1 -2 25 -24 21 2 0.16962082D+00 0.77688822D-02 0.47099122D+05 0.47099122D+05 0.47099122D+05 0.11948610D+01  1  2  4  1  5  1        1 -.853465032585D-01 0.100000000000D+01
0.228156024440D-03 0.000000000000D+00 0.000000000000D+00 0.177420492596D-02 0.397810789819D-03  5 1 -2 25 -24 21 2 0.17017901D+00 0.81375587D-02 0.48385678D+05 0.48385678D+05 0.48385678D+05 0.11936959D+01  1  2 11  1  5  1        1 0.352088868693D-01 0.100000000000D+01
0.769261422164D-05 0.000000000000D+00 0.000000000000D+00 0.177420492596D-02 0.248193068391D-06  5 21 -2 25 -24 -1 2 0.17017901D+00 0.81375587D-02 0.48385678D+05 0.48385678D+05 0.48385678D+05 0.11936959D+01  1  2 11  3  5  1        1 0.165903062645D-02 0.100000000000D+01
  </mgrwgt>
  </event>
  <event>
  4     66 0.47139866E-03 0.61973545E+02 0.75467711E-02 0.12528392E+00
        1 -1    0    0  501    0 0.00000000E+00 0.00000000E+00 0.56319138E+02 0.56320047E+02 0.32000000E+00 0.0000E+00 0.9000E+01
       -2 -1    0    0    0  501 0.00000000E+00 0.00000000E+00 -.22085579E+03 0.22085602E+03 0.32000000E+00 0.0000E+00 0.9000E+01
       25  1    1    2    0    0 -.22057529E+01 0.38201549E+02 -.74175533E+02 0.15030380E+03 0.12500000E+03 0.0000E+00 0.9000E+01
      -24  1    1    2    0    0 0.22057529E+01 -.38201549E+02 -.90361119E+02 0.12687226E+03 0.80419002E+02 0.0000E+00 0.9000E+01
#aMCatNLO 1  0  0  1  2 0.86286769D+01 0.00000000D+00  -5  5  0 0.00000000D+00 0.00000000D+00 0.00000000D+00 0.00000000D+00 0.00000000D+00
  <mgrwgt>
 0.1082367092D+00   11    2    0
 0.111528317936375D+03 0.000000000000000D+00 0.000000000000000D+00 0.111528317936375D+03
 0.111528317936375D+03 0.000000000000000D+00 0.000000000000000D+00 -.111528317936375D+03
 0.132056252489404D+03 -.220575289013326D+01 0.382015489030217D+02 0.186983993203426D+02
 0.910003833833452D+02 0.220575289013326D+01 -.382015489030217D+02 -.186983993203426D+02
 0.000000000000000D+00 0.000000000000000D+00 -.000000000000000D+00 0.000000000000000D+00
 0.130656645004714D+03 0.000000000000000D+00 0.000000000000000D+00 0.130656645004714D+03
 0.112589082807947D+03 0.000000000000000D+00 0.000000000000000D+00 -.112589082807947D+03
 0.133634684356136D+03 -.235817451825007D+01 0.433363327793491D+02 0.186983993203426D+02
 0.895887841067563D+02 0.210215246154543D+01 -.347114548995269D+02 -.186983993203426D+02
 0.200222593497692D+02 0.256022056704639D+00 -.862487787982218D+01 0.180675621967674D+02
0.238977297956D-03 0.000000000000D+00 0.000000000000D+00 0.290062160129D-02 0.000000000000D+00  5 1 -2 25 -24 21 0 0.86645705D-02 0.33977902D-01 0.12076294D+05 0.12076294D+05 0.12076294D+05 0.12587017D+01  1  2  2  1  5  1        1 0.123878019653D+00 0.100000000000D+01
-.132729909115D-04 0.000000000000D+00 -.917735748319D-06 0.290062160129D-02 0.000000000000D+00  5 1 -2 25 -24 21 2 0.86645705D-02 0.33977902D-01 0.12076294D+05 0.12076294D+05 0.12076294D+05 0.12587017D+01  1  2  3  1  5  1        1 -.109006402918D-01 0.100000000000D+01
0.165297174128D-04 0.000000000000D+00 0.000000000000D+00 0.290062160129D-02 0.000000000000D+00  5 1 -2 25 -24 21 2 0.86645705D-02 0.33977902D-01 0.12076294D+05 0.12076294D+05 0.12076294D+05 0.12587017D+01  1  2 15  1  5  1        1 0.135752751467D-01 0.100000000000D+01
0.221945460569D-02 0.000000000000D+00 0.000000000000D+00 0.290062160129D-02 0.000000000000D+00  5 1 -2 25 -24 21 2 0.10187336D-01 0.33977902D-01 0.13060432D+05 0.13060432D+05 0.13060432D+05 0.12547367D+01  1  2 12  1  5  1        1 0.146648168281D+01 0.100000000000D+01
-.223544972962D-02 0.000000000000D+00 0.000000000000D+00 0.290062160129D-02 0.000000000000D+00  5 1 -2 25 -24 21 2 0.86645705D-02 0.33977902D-01 0.12076294D+05 0.12076294D+05 0.12076294D+05 0.12587017D+01  1  2  4  1  5  1        1 -.183589618614D+01 0.100000000000D+01
-.286494524121D-02 0.000000000000D+00 -.243953200517D-03 0.290062160129D-02 0.000000000000D+00  5 1 -2 25 -24 21 2 0.10233280D-01 0.33977902D-01 0.12076294D+05 0.12076294D+05 0.12076294D+05 0.12587017D+01  1  2  5  1  5  1        1 -.188835047266D+01 0.100000000000D+01
0.286906493523D-02 0.000000000000D+00 0.240614216774D-03 0.290062160129D-02 0.000000000000D+00  5 1 -2 25 -24 21 2 0.86645705D-02 0.33977902D-01 0.12076294D+05 0.12076294D+05 0.12076294D+05 0.12587017D+01  1  2  6  1  5  1        1 0.235626205438D+01 0.100000000000D+01
0.183286486895D-05 0.000000000000D+00 0.000000000000D+00 0.290062160129D-02 0.331393573845D-03  5 1 -2 25 -24 21 2 0.10150639D-01 0.34301071D-01 0.13060432D+05 0.13060432D+05 0.13060432D+05 0.12547367D+01  1  2 11  1  5  1        1 0.119590420017D-02 0.100000000000D+01
0.538331668750D-04 0.000000000000D+00 0.000000000000D+00 0.290062160129D-02 0.000000000000D+00  5 21 -2 25 -24 -1 2 0.10187336D-01 0.33977902D-01 0.13060432D+05 0.13060432D+05 0.13060432D+05 0.12547367D+01  1  2 12  3  5  1        1 0.426801381457D+00 0.100000000000D+01
-.689854876960D-04 0.000000000000D+00 -.604769108223D-05 0.290062160129D-02 0.000000000000D+00  5 21 -2 25 -24 -1 2 0.10233280D-01 0.33977902D-01 0.12076294D+05 0.12076294D+05 0.12076294D+05 0.12587017D+01  1  2  5  3  5  1        1 -.545159804802D+00 0.100000000000D+01
0.445717131923D-07 0.000000000000D+00 0.000000000000D+00 0.290062160129D-02 0.794340556014D-05  5 21 -2 25 -24 -1 2 0.10150639D-01 0.34301071D-01 0.13060432D+05 0.13060432D+05 0.13060432D+05 0.12547367D+01  1  2 11  3  5  1        1 0.349495470432D-03 0.100000000000D+01
  </mgrwgt>
  </event>
  <event>
  4     66 0.47139866E-03 0.66107747E+02 0.75467711E-02 0.12288824E+00
        1 -1    0    0  501    0 0.00000000E+00 0.00000000E+00 0.58930045E+03 0.58930054E+03 0.32000000E+00 0.0000E+00 0.9000E+01
       -2 -1    0    0    0  501 0.00000000E+00 0.00000000E+00 -.41441889E+02 0.41443125E+02 0.32000000E+00 0.0000E+00 0.9000E+01
       25  1    1    2    0    0 0.16799469E+01 0.22165955E+02 0.68663605E+02 0.14433933E+03 0.12500000E+03 0.0000E+00 0.9000E+01
      -24  1    1    2    0    0 -.16799469E+01 -.22165955E+02 0.47919496E+03 0.48640433E+03 0.80419002E+02 0.0000E+00 0.9000E+01
#aMCatNLO 1  0  0  2  1 0.44199902D+02 0.00000000D+00  -5  5  0 0.00000000D+00 0.00000000D+00 0.00000000D+00 0.00000000D+00 0.00000000D+00
  <mgrwgt>
 0.1586485266D+00    9    2    0
 0.156275849526068D+03 0.000000000000000D+00 0.000000000000000D+00 0.156275849526068D+03
 0.156275849526068D+03 0.000000000000000D+00 0.000000000000000D+00 -.156275849526068D+03
 0.170925880342413D+03 0.167994688737538D+01 0.221659553096434D+02 -.114439961440466D+03
 0.141625818709723D+03 -.167994688737538D+01 -.221659553096434D+02 0.114439961440466D+03
 0.000000000000000D+00 -.000000000000000D+00 -.000000000000000D+00 -.000000000000000D+00
 0.175332303109695D+03 0.000000000000000D+00 0.000000000000000D+00 0.175332303109695D+03
 0.185737319397998D+03 0.000000000000000D+00 0.000000000000000D+00 -.185737319397998D+03
 0.175724049302356D+03 0.764683072875953D+01 0.458144377737764D+02 -.114439961440466D+03
 0.139937471779230D+03 0.316660089663003D+01 -.295768792446032D+01 0.114439961440466D+03
 0.454081014261077D+02 -.108134316253896D+02 -.428567498493161D+02 -.104050162883033D+02
0.320681835099D-03 0.000000000000D+00 0.000000000000D+00 0.119602590074D-02 0.000000000000D+00  5 1 -2 25 -24 21 0 0.90661709D-01 0.63757770D-02 0.11066623D+05 0.11066623D+05 0.11066623D+05 0.12631665D+01  1  2  2  2  5  2       -2 0.131091853809D+00 0.100000000000D+01
-.144226311018D-04 0.000000000000D+00 -.123150268425D-05 0.119602590074D-02 0.000000000000D+00  5 1 -2 25 -24 21 2 0.90661709D-01 0.63757770D-02 0.11066623D+05 0.11066623D+05 0.11066623D+05 0.12631665D+01  1  2  3  2  5  2       -2 -.940734493972D-02 0.100000000000D+01
0.220071440845D-04 0.000000000000D+00 0.000000000000D+00 0.119602590074D-02 0.000000000000D+00  5 1 -2 25 -24 21 2 0.90661709D-01 0.63757770D-02 0.11066623D+05 0.11066623D+05 0.11066623D+05 0.12631665D+01  1  2 15  2  5  2       -2 0.143544401906D-01 0.100000000000D+01
0.174397042603D-03 0.000000000000D+00 0.000000000000D+00 0.119602590074D-02 0.000000000000D+00  5 1 -2 25 -24 21 2 0.90661709D-01 0.79058056D-02 0.16652142D+05 0.16652142D+05 0.16652142D+05 0.12426822D+01  1  2 12  2  5  2       -2 0.800256978842D-01 0.100000000000D+01
-.205786836157D-03 0.000000000000D+00 0.000000000000D+00 0.119602590074D-02 0.000000000000D+00  5 1 -2 25 -24 21 2 0.90661709D-01 0.63757770D-02 0.11066623D+05 0.11066623D+05 0.11066623D+05 0.12631665D+01  1  2  4  2  5  2       -2 -.134227086453D+00 0.100000000000D+01
-.350953372430D-03 0.000000000000D+00 -.158492424986D-03 0.119602590074D-02 0.000000000000D+00  5 1 -2 25 -24 21 2 0.90661709D-01 0.84992564D-02 0.11066623D+05 0.11066623D+05 0.11066623D+05 0.12631665D+01  1  2  5  2  5  2       -2 -.147630915601D+00 0.100000000000D+01
0.386755207385D-03 0.000000000000D+00 0.152161644624D-03 0.119602590074D-02 0.000000000000D+00  5 1 -2 25 -24 21 2 0.90661709D-01 0.63757770D-02 0.11066623D+05 0.11066623D+05 0.11066623D+05 0.12631665D+01  1  2  6  2  5  2       -2 0.252266012868D+00 0.100000000000D+01
0.527506373207D-05 0.000000000000D+00 0.000000000000D+00 0.119602590074D-02 0.000000000000D+00  5 1 21 25 -24 2 2 0.90661709D-01 0.79058056D-02 0.16652142D+05 0.16652142D+05 0.16652142D+05 0.12426822D+01  1  2 12  4  5  2       -2 0.399222715825D-01 0.100000000000D+01
-.982927639630D-05 0.000000000000D+00 -.594032977423D-05 0.119602590074D-02 0.000000000000D+00  5 1 21 25 -24 2 2 0.90661709D-01 0.84992564D-02 0.11066623D+05 0.11066623D+05 0.11066623D+05 0.12631665D+01  1  2  5  4  5  2       -2 -.677464027684D-01 0.100000000000D+01
  </mgrwgt>
  </event>
  <event>
  4     66 0.47139866E-03 0.70414547E+02 0.75467711E-02 0.12498793E+00
        1 -1    0    0  501    0 0.00000000E+00 0.00000000E+00 0.32685300E+04 0.32685300E+04 0.32000000E+00 0.0000E+00 0.9000E+01
       -2 -1    0    0    0  501 0.00000000E+00 0.00000000E+00 -.62035294E+01 0.62117773E+01 0.32000000E+00 0.0000E+00 0.9000E+01
       25  1    1    2    0    0 0.39387013E+02 0.17466738E+02 0.81010070E+03 0.82081945E+03 0.12500000E+03 0.0000E+00 0.9000E+01
      -24  1    1    2    0    0 -.39387013E+02 -.17466738E+02 0.24522257E+04 0.24539223E+04 0.80419002E+02 0.0000E+00 0.9000E+01
#aMCatNLO 1  0  0  1  2 0.85177565D+01 0.00000000D+00  -5  5  0 0.00000000D+00 0.00000000D+00 0.00000000D+00 0.00000000D+00 0.00000000D+00
  <mgrwgt>
 0.7141994971D+00   11    2    0
 0.142442802975463D+03 0.000000000000000D+00 0.000000000000000D+00 0.142442802975463D+03
 0.142442802975463D+03 0.000000000000000D+00 0.000000000000000D+00 -.142442802975463D+03
 0.158515542093085D+03 0.393870130764753D+02 0.174667380781886D+02 -.874399985526420D+02
 0.126370063857842D+03 -.393870130764753D+02 -.174667380781886D+02 0.874399985526420D+02
 0.000000000000000D+00 -.000000000000000D+00 0.000000000000000D+00 0.000000000000000D+00
 0.146771128889759D+03 0.000000000000000D+00 0.000000000000000D+00 0.146771128889759D+03
 0.146759548656166D+03 0.000000000000000D+00 0.000000000000000D+00 -.146759548656166D+03
 0.159479338644542D+03 0.437873809917584D+02 0.156707170702909D+02 -.874399985526420D+02
 0.125533574491797D+03 -.359012063698843D+02 -.188894786751202D+02 0.874399985526420D+02
 0.851776440958685D+01 -.788617462187410D+01 0.321876160482930D+01 0.115802335931415D-01
0.147956528282D-02 0.000000000000D+00 0.000000000000D+00 0.163244354917D-02 0.000000000000D+00  5 1 -2 25 -24 21 0 0.50285140D+00 0.95502479D-03 0.12482623D+05 0.12482623D+05 0.12482623D+05 0.12570221D+01  1  2  2  1  5  1        1 0.141832967014D+00 0.100000000000D+01
-.763018033784D-04 0.000000000000D+00 -.568192026450D-05 0.163244354917D-02 0.000000000000D+00  5 1 -2 25 -24 21 2 0.50285140D+00 0.95502479D-03 0.12482623D+05 0.12482623D+05 0.12482623D+05 0.12570221D+01  1  2  3  1  5  1        1 -.115574935322D-01 0.100000000000D+01
0.101646038604D-03 0.000000000000D+00 0.000000000000D+00 0.163244354917D-02 0.000000000000D+00  5 1 -2 25 -24 21 2 0.50285140D+00 0.95502479D-03 0.12482623D+05 0.12482623D+05 0.12482623D+05 0.12570221D+01  1  2 15  1  5  1        1 0.153964045636D-01 0.100000000000D+01
0.254644324709D-02 0.000000000000D+00 0.000000000000D+00 0.163244354917D-02 0.000000000000D+00  5 1 -2 25 -24 21 2 0.52552286D+00 0.95502479D-03 0.13451458D+05 0.13451458D+05 0.13451458D+05 0.12532536D+01  1  2 12  1  5  1        1 0.300071920484D+00 0.100000000000D+01
-.195144294231D-02 0.000000000000D+00 0.000000000000D+00 0.163244354917D-02 0.000000000000D+00  5 1 -2 25 -24 21 2 0.50285140D+00 0.95502479D-03 0.12482623D+05 0.12482623D+05 0.12482623D+05 0.12570221D+01  1  2  4  1  5  1        1 -.295586580994D+00 0.100000000000D+01
-.186555929338D-01 0.000000000000D+00 -.296627578262D-02 0.163244354917D-02 0.000000000000D+00  5 1 -2 25 -24 21 2 0.52306159D+00 0.95502479D-03 0.12482623D+05 0.12482623D+05 0.12482623D+05 0.12570221D+01  1  2  5  1  5  1        1 -.227420366226D+01 0.100000000000D+01
0.187618123907D-01 0.000000000000D+00 0.296529183281D-02 0.163244354917D-02 0.000000000000D+00  5 1 -2 25 -24 21 2 0.50285140D+00 0.95502479D-03 0.12482623D+05 0.12482623D+05 0.12482623D+05 0.12570221D+01  1  2  6  1  5  1        1 0.284186632238D+01 0.100000000000D+01
0.346943551832D-05 0.000000000000D+00 0.000000000000D+00 0.163244354917D-02 0.188724891915D-03  5 1 -2 25 -24 21 2 0.51813125D+00 0.98396693D-03 0.13451458D+05 0.13451458D+05 0.13451458D+05 0.12532536D+01  1  2 11  1  5  1        1 0.424565682846D-03 0.100000000000D+01
0.300451351594D-04 0.000000000000D+00 0.000000000000D+00 0.163244354917D-02 0.000000000000D+00  5 21 -2 25 -24 -1 2 0.52552286D+00 0.95502479D-03 0.13451458D+05 0.13451458D+05 0.13451458D+05 0.12532536D+01  1  2 12  3  5  1        1 0.115043332763D-02 0.100000000000D+01
-.128397163398D-03 0.000000000000D+00 -.206766910764D-04 0.163244354917D-02 0.000000000000D+00  5 21 -2 25 -24 -1 2 0.52306159D+00 0.95502479D-03 0.12482623D+05 0.12482623D+05 0.12482623D+05 0.12570221D+01  1  2  5  3  5  1        1 -.519696834639D-02 0.100000000000D+01
0.383201037743D-07 0.000000000000D+00 0.000000000000D+00 0.163244354917D-02 0.104430210917D-05  5 21 -2 25 -24 -1 2 0.51813125D+00 0.98396693D-03 0.13451458D+05 0.13451458D+05 0.13451458D+05 0.12532536D+01  1  2 11  3  5  1        1 0.158881601893D-05 0.100000000000D+01
  </mgrwgt>
  </event>
  <event>
  4     66 -.47139866E-03 0.92483904E+02 0.75467711E-02 0.12287874E+00
        1 -1    0    0  501    0 0.00000000E+00 0.00000000E+00 0.13042586E+04 0.13042586E+04 0.32000000E+00 0.0000E+00 0.9000E+01
       -2 -1    0    0    0  501 0.00000000E+00 0.00000000E+00 -.12887784E+02 0.12891756E+02 0.32000000E+00 0.0000E+00 0.9000E+01
       25  1    1    2    0    0 -.60948876E+02 0.44729100E+02 0.83023706E+03 0.84299112E+03 0.12500000E+03 0.0000E+00 0.9000E+01
      -24  1    1    2    0    0 0.60948876E+02 -.44729100E+02 0.46113374E+03 0.47415925E+03 0.80419002E+02 0.0000E+00 0.9000E+01
#aMCatNLO 1  0  0  2  1 0.17506449D+01 0.00000000D+00  -5  5  0 0.00000000D+00 0.00000000D+00 0.00000000D+00 0.00000000D+00 0.00000000D+00
  <mgrwgt>
 -.3574813142D+00   11    2    0
 0.129659725812867D+03 0.000000000000000D+00 0.000000000000000D+00 0.129659725812867D+03
 0.129659725812867D+03 0.000000000000000D+00 0.000000000000000D+00 -.129659725812867D+03
 0.147317066957577D+03 -.609488759800646D+02 0.447290998994043D+02 0.190226274720180D+02
 0.112002384668157D+03 0.609488759800646D+02 -.447290998994043D+02 -.190226274720180D+02
 0.000000000000000D+00 0.000000000000000D+00 -.000000000000000D+00 -.000000000000000D+00
 0.130411805184509D+03 0.000000000000000D+00 0.000000000000000D+00 0.130411805184509D+03
 0.130685459725966D+03 0.000000000000000D+00 0.000000000000000D+00 -.130685459725966D+03
 0.147690109656533D+03 -.611241868280863D+02 0.457093198267583D+02 0.190226274720180D+02
 0.111635251133490D+03 0.608159771671206D+02 -.439860194440910D+02 -.190226274720180D+02
 0.177190412045170D+01 0.308209660965675D+00 -.172330038266732D+01 -.273654541456593D+00
0.243166220684D-03 0.000000000000D+00 0.000000000000D+00 0.257568076296D-02 0.000000000000D+00  5 1 -2 25 -24 21 0 0.20065547D+00 0.19830446D-02 0.16442790D+05 0.16442790D+05 0.16442790D+05 0.12433012D+01  1  2  2  2  5  2       -2 0.157979066368D+00 0.100000000000D+01
-.135072135177D-04 0.000000000000D+00 -.933822314561D-06 0.257568076296D-02 0.000000000000D+00  5 1 -2 25 -24 21 2 0.20065547D+00 0.19830446D-02 0.16442790D+05 0.16442790D+05 0.16442790D+05 0.12433012D+01  1  2  3  2  5  2       -2 -.135648421364D-01 0.100000000000D+01
0.168459071971D-04 0.000000000000D+00 0.000000000000D+00 0.257568076296D-02 0.000000000000D+00  5 1 -2 25 -24 21 2 0.20065547D+00 0.19830446D-02 0.16442790D+05 0.16442790D+05 0.16442790D+05 0.12433012D+01  1  2 15  2  5  2       -2 0.169177803752D-01 0.100000000000D+01
0.393258153463D-07 0.000000000000D+00 0.000000000000D+00 0.257568076296D-02 0.000000000000D+00  5 1 -2 25 -24 21 2 0.20065547D+00 0.20044442D-02 0.16668508D+05 0.16668508D+05 0.16668508D+05 0.12426342D+01  1  2 12  2  5  2       -2 0.388532441146D-04 0.100000000000D+01
-.260607365120D-02 0.000000000000D+00 0.000000000000D+00 0.257568076296D-02 0.000000000000D+00  5 1 -2 25 -24 21 2 0.20065547D+00 0.19830446D-02 0.16442790D+05 0.16442790D+05 0.16442790D+05 0.12433012D+01  1  2  4  2  5  2       -2 -.261719248223D+01 0.100000000000D+01
-.186516712199D-01 0.000000000000D+00 -.207372619900D-02 0.257568076296D-02 0.000000000000D+00  5 1 -2 25 -24 21 2 0.20065547D+00 0.20111279D-02 0.16442790D+05 0.16442790D+05 0.16442790D+05 0.12433012D+01  1  2  5  2  5  2       -2 -.183532931830D+02 0.100000000000D+01
0.186791908089D-01 0.000000000000D+00 0.207352117597D-02 0.257568076296D-02 0.000000000000D+00  5 1 -2 25 -24 21 2 0.20065547D+00 0.19830446D-02 0.16442790D+05 0.16442790D+05 0.16442790D+05 0.12433012D+01  1  2  6  2  5  2       -2 0.187588857040D+02 0.100000000000D+01
0.260614411126D-02 0.000000000000D+00 0.000000000000D+00 0.257568076296D-02 0.692147332839D-02  5 1 -2 25 -24 21 2 0.20181936D+00 0.19987324D-02 0.16668508D+05 0.16668508D+05 0.16668508D+05 0.12426342D+01  1  2 11  2  5  2       -2 0.255567904892D+01 0.100000000000D+01
0.323712498046D-08 0.000000000000D+00 0.000000000000D+00 0.257568076296D-02 0.000000000000D+00  5 1 21 25 -24 2 2 0.20065547D+00 0.20044442D-02 0.16668508D+05 0.16668508D+05 0.16668508D+05 0.12426342D+01  1  2 12  4  5  2       -2 0.671256648668D-04 0.100000000000D+01
-.480064651050D-04 0.000000000000D+00 -.535424327370D-05 0.257568076296D-02 0.000000000000D+00  5 1 21 25 -24 2 2 0.20065547D+00 0.20111279D-02 0.16442790D+05 0.16442790D+05 0.16442790D+05 0.12433012D+01  1  2  5  4  5  2       -2 -.991113976877D+00 0.100000000000D+01
0.622174012285D-05 0.000000000000D+00 0.000000000000D+00 0.257568076296D-02 0.101447149121D-04  5 1 21 25 -24 2 2 0.20181936D+00 0.19987324D-02 0.16668508D+05 0.16668508D+05 0.16668508D+05 0.12426342D+01  1  2 11  4  5  2       -2 0.128115591518D+00 0.100000000000D+01
  </mgrwgt>
  </event>
  <event>
  5     66 0.47139866E-03 0.11707323E+03 0.75467711E-02 0.12373653E+00
        1 -1    0    0  502    0 0.00000000E+00 0.00000000E+00 0.11249690E+03 0.11249736E+03 0.32000000E+00 0.0000E+00 0.9000E+01
       -2 -1    0    0    0  501 0.00000000E+00 0.00000000E+00 -.13772926E+03 0.13772963E+03 0.32000000E+00 0.0000E+00 0.9000E+01
       25  1    1    2    0    0 0.58416056E+02 0.20590297E+02 -.46604019E+01 0.13958193E+03 0.12500000E+03 0.0000E+00 0.9000E+01
      -24  1    1    2    0    0 -.49049834E+02 -.12159923E+02 -.12842982E+02 0.95843143E+02 0.80419002E+02 0.0000E+00 0.9000E+01
       21  1    1    2  502  501 -.93662217E+01 -.84303739E+01 -.77289742E+01 0.14801921E+02 0.75000000E+00 0.0000E+00 0.9000E+01
#aMCatNLO 2  0  0  1  1 0.12601481D+02 0.00000000D+00  -5  5  0 0.00000000D+00 0.00000000D+00 0.00000000D+00 0.00000000D+00 0.00000000D+00
  <mgrwgt>
 0.1449347369D+00    1    2    0
 0.117217532300981D+03 0.000000000000000D+00 0.000000000000000D+00 0.117217532300981D+03
 0.117217532300981D+03 0.000000000000000D+00 0.000000000000000D+00 -.117217532300981D+03
 0.136749132791671D+03 0.528992086575913D+02 0.156246783380995D+02 0.573310295614360D+01
 0.976859318102905D+02 -.528992086575913D+02 -.156246783380995D+02 -.573310295614360D+01
 0.000000000000000D+00 -.000000000000000D+00 -.000000000000000D+00 -.000000000000000D+00
 0.121186976633272D+03 0.000000000000000D+00 0.000000000000000D+00 0.121186976633272D+03
 0.127833320660484D+03 0.000000000000000D+00 0.000000000000000D+00 -.127833320660484D+03
 0.139621862160717D+03 0.584160559479909D+02 0.205902970158705D+02 0.573310295614360D+01
 0.951516389574195D+02 -.490498342687906D+02 -.121599231334331D+02 -.573310295614360D+01
 0.142467961756200D+02 -.936622167920023D+01 -.843037388243736D+01 -.664634402721215D+01
0.191235567072D-03 0.000000000000D+00 0.000000000000D+00 0.283297496082D-02 0.148505331783D-03  5 1 -2 25 -24 21 2 0.17305891D-01 0.21187481D-01 0.15262669D+05 0.15262669D+05 0.15262669D+05 0.12469640D+01  1  2  1  1  5  1        1 0.144934736880D+00 0.100000000000D+01
  </mgrwgt>
  </event>
  <event>
  4     66 0.47139866E-03 0.12158362E+03 0.75467711E-02 0.11609849E+00
        1 -1    0    0  501    0 0.00000000E+00 0.00000000E+00 0.56334756E+02 0.56335665E+02 0.32000000E+00 0.0000E+00 0.9000E+01
       -2 -1    0    0    0  501 0.00000000E+00 0.00000000E+00 -.26296232E+03 0.26296252E+03 0.32000000E+00 0.0000E+00 0.9000E+01
       25  1    1    2    0    0 0.22775937E+02 -.59768739E+02 -.12655567E+03 0.18903011E+03 0.12500000E+03 0.0000E+00 0.9000E+01
      -24  1    1    2    0    0 -.22775937E+02 0.59768739E+02 -.80071898E+02 0.13026807E+03 0.80419002E+02 0.0000E+00 0.9000E+01
#aMCatNLO 1  0  0  2  1 0.10826998D+03 0.00000000D+00  -5  5  0 0.00000000D+00 0.00000000D+00 0.00000000D+00 0.00000000D+00 0.00000000D+00
  <mgrwgt>
 0.1655079317D+00    3    2    0
 0.121713164472510D+03 0.000000000000000D+00 0.000000000000000D+00 0.121713164472510D+03
 0.121713164472510D+03 0.000000000000000D+00 0.000000000000000D+00 -.121713164472510D+03
 0.140523340194500D+03 0.227759374147104D+02 -.597687392959534D+02 -.554649594542772D+01
 0.102902988750520D+03 -.227759374147104D+02 0.597687392959534D+02 0.554649594542772D+01
 0.000000000000000D+00 0.000000000000000D+00 -.000000000000000D+00 0.000000000000000D+00
 0.187519551656632D+03 0.000000000000000D+00 0.000000000000000D+00 0.187519551656632D+03
 0.187169403866561D+03 0.000000000000000D+00 0.000000000000000D+00 -.187169403866561D+03
 0.132599433381082D+03 -.287608147954759D+02 -.331611466631014D+02 -.554649594542772D+01
 0.133818972430291D+03 -.674440582615012D+02 0.828301685128979D+02 0.554649594542772D+01
 0.108270549711819D+03 0.962048730569771D+02 -.496690218497965D+02 0.350147790071456D+00
0.429291410311D-03 0.000000000000D+00 0.000000000000D+00 0.274663962250D-02 0.000000000000D+00  5 1 -2 25 -24 21 0 0.86669704D-02 0.40455827D-01 0.14782576D+05 0.14782576D+05 0.14782576D+05 0.12485461D+01  1  2  2  2  5  2       -2 0.162031901468D+00 0.100000000000D+01
-.238494899104D-04 0.000000000000D+00 -.164859205062D-05 0.274663962250D-02 0.000000000000D+00  5 1 -2 25 -24 21 2 0.86669704D-02 0.40455827D-01 0.14782576D+05 0.14782576D+05 0.14782576D+05 0.12485461D+01  1  2  3  2  5  2       -2 -.140325491876D-01 0.100000000000D+01
0.297572936682D-04 0.000000000000D+00 0.000000000000D+00 0.274663962250D-02 0.000000000000D+00  5 1 -2 25 -24 21 2 0.86669704D-02 0.40455827D-01 0.14782576D+05 0.14782576D+05 0.14782576D+05 0.12485461D+01  1  2 15  2  5  2       -2 0.175085793725D-01 0.100000000000D+01
  </mgrwgt>
  </event>
  <event>
  4     66 0.47139866E-03 0.12015994E+03 0.75467711E-02 0.10156738E+00
        3 -1    0    0  501    0 0.00000000E+00 0.00000000E+00 0.55352557E+02 0.55354815E+02 0.50000000E+00 0.0000E+00 0.9000E+01
       -4 -1    0    0    0  501 0.00000000E+00 0.00000000E+00 -.27756416E+03 0.27756848E+03 0.15500000E+01 0.0000E+00 0.9000E+01
       25  1    1    2    0    0 0.53252324E+02 -.30323613E+02 -.16805304E+03 0.21822501E+03 0.12500000E+03 0.0000E+00 0.9000E+01
      -24  1    1    2    0    0 -.53252324E+02 0.30323613E+02 -.54158558E+02 0.11469829E+03 0.80419002E+02 0.0000E+00 0.9000E+01
#aMCatNLO 1  0  0  1  1 0.46349244D+03 0.00000000D+00  -5  5  0 0.00000000D+00 0.00000000D+00 0.00000000D+00 0.00000000D+00 0.00000000D+00
  <mgrwgt>
 0.5363798117D-01    5    2    0
 0.123955564998472D+03 0.000000000000000D+00 0.000000000000000D+00 0.123955564998472D+03
 0.123955564998472D+03 0.000000000000000D+00 0.000000000000000D+00 -.123955564998472D+03
 0.142425457910788D+03 0.532523244335050D+02 -.303236128453803D+02 -.300778906762068D+02
 0.105485672086157D+03 -.532523244335050D+02 0.303236128453803D+02 0.300778906762068D+02
 0.000000000000000D+00 0.000000000000000D+00 -.000000000000000D+00 0.000000000000000D+00
 0.274698243603448D+04 0.000000000000000D+00 0.000000000000000D+00 0.274698243603448D+04
 0.284433609925996D+03 0.000000000000000D+00 0.000000000000000D+00 -.284433609925996D+03
 0.230240328361218D+03 0.179146152321933D+02 0.190157818291634D+03 -.300778906762068D+02
 0.295388025318792D+03 -.912648242850774D+02 0.267493779157664D+03 0.300778906762068D+02
 0.250578769228047D+04 0.733502090528840D+02 -.457651597449298D+03 0.246254882610848D+04
0.551231531118D-03 0.000000000000D+00 0.000000000000D+00 0.257329214142D-02 0.000000000000D+00  5 3 -4 25 -24 21 0 0.85162846D-02 0.42702685D-01 0.14438410D+05 0.14438410D+05 0.14438410D+05 0.12497162D+01  1  2  2  1  5  1        3 0.538998183029D-01 0.100000000000D+01
-.305879617532D-04 0.000000000000D+00 -.211687422209D-05 0.257329214142D-02 0.000000000000D+00  5 3 -4 25 -24 21 2 0.85162846D-02 0.42702685D-01 0.14438410D+05 0.14438410D+05 0.14438410D+05 0.12497162D+01  1  2  3  1  5  1        3 -.467117968782D-02 0.100000000000D+01
0.380812877185D-04 0.000000000000D+00 0.000000000000D+00 0.257329214142D-02 0.000000000000D+00  5 3 -4 25 -24 21 2 0.85162846D-02 0.42702685D-01 0.14438410D+05 0.14438410D+05 0.14438410D+05 0.12497162D+01  1  2 15  1  5  1        3 0.581550804568D-02 0.100000000000D+01
-.192852863282D-02 0.000000000000D+00 -.161011334775D-02 0.257329214142D-02 0.000000000000D+00  5 3 -4 25 -24 21 2 0.31329669D+00 0.42702685D-01 0.14438410D+05 0.14438410D+05 0.14438410D+05 0.12497162D+01  1  2  5  1  5  1        3 -.130449801223D-03 0.100000000000D+01
-.116050072506D-02 0.000000000000D+00 -.555903740498D-03 0.257329214142D-02 0.000000000000D+00  5 21 -4 25 -24 -3 2 0.31329669D+00 0.42702685D-01 0.14438410D+05 0.14438410D+05 0.14438410D+05 0.12497162D+01  1  2  5  3  5  1        3 -.127571568987D-02 0.100000000000D+01
  </mgrwgt>
  </event>
  <event>
  5     66 -.47139866E-03 0.11053903E+03 0.75467711E-02 0.12472746E+00
        1 -1    0    0  501    0 0.00000000E+00 0.00000000E+00 0.12633942E+04 0.12633942E+04 0.32000000E+00 0.0000E+00 0.9000E+01
       -2 -1    0    0    0  502 0.00000000E+00 0.00000000E+00 -.11574725E+02 0.11579148E+02 0.32000000E+00 0.0000E+00 0.9000E+01
       25  1    1    2    0    0 -.31770172E+02 0.50803264E+01 0.53601600E+03 0.55133774E+03 0.12500000E+03 0.0000E+00 0.9000E+01
      -24  1    1    2    0    0 0.45013676E+02 -.75149061E+01 0.63934730E+03 0.64599914E+03 0.80419002E+02 0.0000E+00 0.9000E+01
       21  1    1    2  501  502 -.13243504E+02 0.24345797E+01 0.76456125E+02 0.77636455E+02 0.75000000E+00 0.0000E+00 0.9000E+01
#aMCatNLO 2  0  0  2  1 0.13465421D+02 0.00000000D+00  -5  5  0 0.00000000D+00 0.00000000D+00 0.00000000D+00 0.00000000D+00 0.00000000D+00
  <mgrwgt>
 -.1021424596D+00    2    2    0
 0.113968644980185D+03 0.000000000000000D+00 0.000000000000000D+00 0.113968644980185D+03
 0.113968644980185D+03 0.000000000000000D+00 0.000000000000000D+00 -.113968644980185D+03
 0.134057029919792D+03 -.394904773615482D+02 0.649956547634642D+01 -.272863540490805D+02
 0.938802600405781D+02 0.394904773615482D+02 -.649956547634642D+01 0.272863540490805D+02
 0.000000000000000D+00 -.000000000000000D+00 0.000000000000000D+00 0.000000000000000D+00
 0.121571371637906D+03 0.000000000000000D+00 0.000000000000000D+00 0.121571371637906D+03
 0.120289597151541D+03 0.000000000000000D+00 0.000000000000000D+00 -.120289597151541D+03
 0.131926868733591D+03 -.317701724899159D+02 0.508032641858975D+01 -.272863540490805D+02
 0.964078104526295D+02 0.450136760404150D+02 -.751490611627383D+01 0.272863540490805D+02
 0.135262896032265D+02 -.132435035504990D+02 0.243457969768408D+01 0.128177448636559D+01
-.224458648617D-03 0.000000000000D+00 0.000000000000D+00 0.276910145704D-02 0.000000000000D+00  5 1 -2 25 -24 21 2 0.18219775D+00 0.18338978D-02 0.13806887D+05 0.13806887D+05 0.13806887D+05 0.12519471D+01  1  2 13  2  5  2       -2 -.307014379663D+00 0.100000000000D+01
0.162370746983D-03 0.000000000000D+00 0.000000000000D+00 0.276910145704D-02 0.128102832115D-03  5 1 -2 25 -24 21 2 0.19435197D+00 0.17809172D-02 0.13806887D+05 0.13806887D+05 0.13806887D+05 0.12519471D+01  1  2  1  2  5  2       -2 0.204871920106D+00 0.100000000000D+01
  </mgrwgt>
  </event>
  <event>
  5     66 0.47139866E-03 0.30775853E+03 0.75467711E-02 0.10605758E+00
       21 -1    0    0  501  502 0.00000000E+00 0.00000000E+00 0.85465867E+03 0.85465900E+03 0.75000000E+00 0.0000E+00 0.9000E+01
       -4 -1    0    0    0  501 0.00000000E+00 0.00000000E+00 -.18024835E+03 0.18025502E+03 0.15500000E+01 0.0000E+00 0.9000E+01
       25  1    1    2    0    0 0.31307117E+03 -.10064696E+02 0.42654050E+03 0.54376158E+03 0.12500000E+03 0.0000E+00 0.9000E+01
      -24  1    1    2    0    0 -.26063153E+03 0.81028110E+02 0.27810853E+03 0.39787676E+03 0.80419002E+02 0.0000E+00 0.9000E+01
       -3  1    1    2    0  502 -.52439641E+02 -.70963414E+02 -.30238707E+02 0.93275675E+02 0.50000000E+00 0.0000E+00 0.9000E+01
#aMCatNLO 2  0  0  1  2 0.88236739D+02 0.00000000D+00  -5  5  0 0.00000000D+00 0.00000000D+00 0.00000000D+00 0.00000000D+00 0.00000000D+00
  <mgrwgt>
 0.6530248642D-02    1    2    0
 0.309179071954492D+03 0.000000000000000D+00 0.000000000000000D+00 0.309179071954492D+03
 0.309179071954492D+03 0.000000000000000D+00 0.000000000000000D+00 -.309179071954492D+03
 0.316583991042109D+03 0.285431981348605D+03 -.474671519461527D+02 0.295952174122821D+02
 0.301774152866876D+03 -.285431981348605D+03 0.474671519461527D+02 -.295952174122821D+02
 0.000000000000000D+00 -.000000000000000D+00 -.000000000000000D+00 -.000000000000000D+00
 0.324269107372861D+03 0.000000000000000D+00 0.000000000000000D+00 0.324269107372861D+03
 0.475081043769380D+03 0.000000000000000D+00 0.000000000000000D+00 -.475081043769380D+03
 0.338549455601236D+03 0.313071172235896D+03 -.100646961730150D+02 0.295952174122821D+02
 0.286072443001700D+03 -.260631531365626D+03 0.810281102761182D+02 -.295952174122821D+02
 0.174728252539305D+03 -.524396408702698D+02 -.709634141031032D+02 -.150811936396519D+03
0.232582785857D-03 0.000000000000D+00 0.000000000000D+00 0.198444765931D-02 0.210679828960D-07  5 21 -4 25 -24 -3 2 0.13148635D+00 0.27731024D-01 0.12603480D+06 0.12603480D+06 0.12603480D+06 0.11544517D+01  1  2  1  3  5  1        3 0.653024864156D-02 0.100000000000D+01
  </mgrwgt>
  </event>
  <event>
  4     66 0.47139866E-03 0.10902488E+03 0.75467711E-02 0.11886806E+00
        1 -1    0    0  501    0 0.00000000E+00 0.00000000E+00 0.30252276E+02 0.30253968E+02 0.32000000E+00 0.0000E+00 0.9000E+01
       -2 -1    0    0    0  501 0.00000000E+00 0.00000000E+00 -.40758095E+03 0.40758108E+03 0.32000000E+00 0.0000E+00 0.9000E+01
       25  1    1    2    0    0 0.28841247E+02 0.21200708E+02 -.18289193E+03 0.22440086E+03 0.12500000E+03 0.0000E+00 0.9000E+01
      -24  1    1    2    0    0 -.28841247E+02 -.21200708E+02 -.19443675E+03 0.21343419E+03 0.80419002E+02 0.0000E+00 0.9000E+01
#aMCatNLO 1  0  0  2  2 0.85851790D+02 0.00000000D+00  -5  5  0 0.00000000D+00 0.00000000D+00 0.00000000D+00 0.00000000D+00 0.00000000D+00
  <mgrwgt>
 0.1855562279D+00    3    2    0
 0.111043456844317D+03 0.000000000000000D+00 0.000000000000000D+00 0.111043456844317D+03
 0.111043456844317D+03 0.000000000000000D+00 0.000000000000000D+00 -.111043456844317D+03
 0.131661024744938D+03 0.288412471333688D+02 0.212007082510693D+02 0.206963250441253D+02
 0.904258889436959D+02 -.288412471333688D+02 -.212007082510693D+02 -.206963250441253D+02
 0.000000000000000D+00 -.000000000000000D+00 -.000000000000000D+00 0.000000000000000D+00
 0.280777976383231D+03 0.000000000000000D+00 0.000000000000000D+00 0.280777976383231D+03
 0.130445110959617D+03 0.000000000000000D+00 0.000000000000000D+00 -.130445110959617D+03
 0.151342804277418D+03 0.389952347242178D+02 0.730114936501363D+02 0.206963250441253D+02
 0.867603815558535D+02 -.224839225765370D+02 0.112375801926819D+02 -.206963250441253D+02
 0.173119901509576D+03 -.165113121476808D+02 -.842490738428181D+02 0.150332865423615D+03
0.498938808250D-03 0.000000000000D+00 0.000000000000D+00 0.289640095657D-02 0.000000000000D+00  5 1 -2 25 -24 21 0 0.46543361D-02 0.62704901D-01 0.11886425D+05 0.11886425D+05 0.11886425D+05 0.12595084D+01  1  2  2  2  5  2       -2 0.181619998397D+00 0.100000000000D+01
-.277074800193D-04 0.000000000000D+00 -.191605639728D-05 0.289640095657D-02 0.000000000000D+00  5 1 -2 25 -24 21 2 0.46543361D-02 0.62704901D-01 0.11886425D+05 0.11886425D+05 0.11886425D+05 0.12595084D+01  1  2  3  2  5  2       -2 -.159998372243D-01 0.100000000000D+01
0.345239868778D-04 0.000000000000D+00 0.000000000000D+00 0.289640095657D-02 0.000000000000D+00  5 1 -2 25 -24 21 2 0.46543361D-02 0.62704901D-01 0.11886425D+05 0.11886425D+05 0.11886425D+05 0.12595084D+01  1  2 15  2  5  2       -2 0.199360667225D-01 0.100000000000D+01
  </mgrwgt>
  </event>
  <event>
  4     66 0.47139866E-03 0.11590740E+03 0.75467711E-02 0.12245206E+00
        1 -1    0    0  501    0 0.00000000E+00 0.00000000E+00 0.23496540E+03 0.23496561E+03 0.32000000E+00 0.0000E+00 0.9000E+01
       -2 -1    0    0    0  501 0.00000000E+00 0.00000000E+00 -.59654600E+02 0.59655459E+02 0.32000000E+00 0.0000E+00 0.9000E+01
       25  1    1    2    0    0 -.49150830E+02 0.19046533E+02 0.72365988E+02 0.15375438E+03 0.12500000E+03 0.0000E+00 0.9000E+01
      -24  1    1    2    0    0 0.49150830E+02 -.19046533E+02 0.10294481E+03 0.14086669E+03 0.80419002E+02 0.0000E+00 0.9000E+01
#aMCatNLO 1  0  0  2  1 0.30162245D+02 0.00000000D+00  -5  5  0 0.00000000D+00 0.00000000D+00 0.00000000D+00 0.00000000D+00 0.00000000D+00
  <mgrwgt>
 0.1738525537D+00    4    2    0
 0.118393096606687D+03 0.000000000000000D+00 0.000000000000000D+00 0.118393096606687D+03
 0.118393096606687D+03 0.000000000000000D+00 0.000000000000000D+00 -.118393096606687D+03
 0.137730761361019D+03 -.491508295249473D+02 0.190465331562565D+02 -.237947085887430D+02
 0.990554318523550D+02 0.491508295249473D+02 -.190465331562565D+02 0.237947085887430D+02
 0.000000000000000D+00 -.000000000000000D+00 0.000000000000000D+00 0.000000000000000D+00
 0.165715429067716D+03 0.000000000000000D+00 0.000000000000000D+00 0.165715429067716D+03
 0.124255120828800D+03 0.000000000000000D+00 0.000000000000000D+00 -.124255120828800D+03
 0.133639094921770D+03 -.406391634148846D+02 0.408386234158487D+01 -.237947085887430D+02
 0.105060428174466D+03 0.555530367270107D+02 -.303009829447115D+02 0.237947085887430D+02
 0.512710268002796D+02 -.149138733121261D+02 0.262171206031267D+02 0.414603082389164D+02
0.262079042883D-03 0.000000000000D+00 0.000000000000D+00 0.271679229731D-02 0.000000000000D+00  5 1 -2 25 -24 21 0 0.36148605D-01 0.91777136D-02 0.13434526D+05 0.13434526D+05 0.13434526D+05 0.12533168D+01  1  2  2  2  5  2       -2 0.196116241132D+00 0.100000000000D+01
-.145519763871D-04 0.000000000000D+00 -.100645253167D-05 0.271679229731D-02 0.000000000000D+00  5 1 -2 25 -24 21 2 0.36148605D-01 0.91777136D-02 0.13434526D+05 0.13434526D+05 0.13434526D+05 0.12533168D+01  1  2  3  2  5  2       -2 -.171050758214D-01 0.100000000000D+01
0.181585007052D-04 0.000000000000D+00 0.000000000000D+00 0.271679229731D-02 0.000000000000D+00  5 1 -2 25 -24 21 2 0.36148605D-01 0.91777136D-02 0.13434526D+05 0.13434526D+05 0.13434526D+05 0.12533168D+01  1  2 15  2  5  2       -2 0.213443537224D-01 0.100000000000D+01
-.225471392090D-04 0.000000000000D+00 0.000000000000D+00 0.271679229731D-02 0.000000000000D+00  5 1 -2 25 -24 21 2 0.36148605D-01 0.91777136D-02 0.13434526D+05 0.13434526D+05 0.13434526D+05 0.12533168D+01  1  2  4  2  5  2       -2 -.265029653338D-01 0.100000000000D+01
  </mgrwgt>
  </event>
  <event>
  4     66 0.47139866E-03 0.54627169E+02 0.75467711E-02 0.12279351E+00
        1 -1    0    0  501    0 0.00000000E+00 0.00000000E+00 0.37007847E+03 0.37007861E+03 0.32000000E+00 0.0000E+00 0.9000E+01
       -2 -1    0    0    0  501 0.00000000E+00 0.00000000E+00 -.36969005E+02 0.36970390E+02 0.32000000E+00 0.0000E+00 0.9000E+01
       25  1    1    2    0    0 0.29880082E+02 -.21920580E+02 0.26500554E+03 0.29534093E+03 0.12500000E+03 0.0000E+00 0.9000E+01
      -24  1    1    2    0    0 -.29880082E+02 0.21920580E+02 0.68103925E+02 0.11170806E+03 0.80419002E+02 0.0000E+00 0.9000E+01
#aMCatNLO 1  0  0  2  1 0.37573366D+02 0.00000000D+00  -5  5  0 0.00000000D+00 0.00000000D+00 0.00000000D+00 0.00000000D+00 0.00000000D+00
  <mgrwgt>
 0.2072947553D+00    9    2    0
 0.116968982347232D+03 0.000000000000000D+00 0.000000000000000D+00 0.116968982347232D+03
 0.116968982347232D+03 0.000000000000000D+00 0.000000000000000D+00 -.116968982347232D+03
 0.136542085963804D+03 0.298800817187286D+02 -.219205798928911D+02 0.405636553208457D+02
 0.973958787306600D+02 -.298800817187286D+02 0.219205798928911D+02 -.405636553208457D+02
 0.000000000000000D+00 -.000000000000000D+00 0.000000000000000D+00 -.000000000000000D+00
 0.123796268080645D+03 0.000000000000000D+00 0.000000000000000D+00 0.123796268080645D+03
 0.184707925283711D+03 0.000000000000000D+00 0.000000000000000D+00 -.184707925283711D+03
 0.144052031284852D+03 0.506876340990158D+02 -.301884304618142D+02 0.405636553208457D+02
 0.928840976398181D+02 -.157698052308580D+02 0.163138821249006D+02 -.405636553208457D+02
 0.715680644396861D+02 -.349178288681578D+02 0.138745483369136D+02 -.609116572030654D+02
0.208223876350D-03 0.000000000000D+00 0.000000000000D+00 0.255069718132D-02 0.000000000000D+00  5 1 -2 25 -24 21 0 0.56935266D-01 0.56876564D-02 0.11981985D+05 0.11981985D+05 0.11981985D+05 0.12591006D+01  1  2  2  2  5  2       -2 0.184051722602D+00 0.100000000000D+01
-.115061136890D-04 0.000000000000D+00 -.799634511791D-06 0.255069718132D-02 0.000000000000D+00  5 1 -2 25 -24 21 2 0.56935266D-01 0.56876564D-02 0.11981985D+05 0.11981985D+05 0.11981985D+05 0.12591006D+01  1  2  3  2  5  2       -2 -.161234831771D-01 0.100000000000D+01
0.143893378099D-04 0.000000000000D+00 0.000000000000D+00 0.255069718132D-02 0.000000000000D+00  5 1 -2 25 -24 21 2 0.56935266D-01 0.56876564D-02 0.11981985D+05 0.11981985D+05 0.11981985D+05 0.12591006D+01  1  2 15  2  5  2       -2 0.201637366343D-01 0.100000000000D+01
0.290520601877D-03 0.000000000000D+00 0.000000000000D+00 0.255069718132D-02 0.000000000000D+00  5 1 -2 25 -24 21 2 0.56935266D-01 0.90678854D-02 0.16816245D+05 0.16816245D+05 0.16816245D+05 0.12422032D+01  1  2 12  2  5  2       -2 0.196414788771D+00 0.100000000000D+01
-.310217398339D-03 0.000000000000D+00 0.000000000000D+00 0.255069718132D-02 0.000000000000D+00  5 1 -2 25 -24 21 2 0.56935266D-01 0.56876564D-02 0.11981985D+05 0.11981985D+05 0.11981985D+05 0.12591006D+01  1  2  4  2  5  2       -2 -.434706725362D+00 0.100000000000D+01
-.353577327673D-03 0.000000000000D+00 -.700449325697D-04 0.255069718132D-02 0.000000000000D+00  5 1 -2 25 -24 21 2 0.56935266D-01 0.94720237D-02 0.11981985D+05 0.11981985D+05 0.11981985D+05 0.12591006D+01  1  2  5  2  5  2       -2 -.227305680573D+00 0.100000000000D+01
0.350882918333D-03 0.000000000000D+00 0.618270664244D-04 0.255069718132D-02 0.000000000000D+00  5 1 -2 25 -24 21 2 0.56935266D-01 0.56876564D-02 0.11981985D+05 0.11981985D+05 0.11981985D+05 0.12591006D+01  1  2  6  2  5  2       -2 0.491691198593D+00 0.100000000000D+01
0.155161750289D-04 0.000000000000D+00 0.000000000000D+00 0.255069718132D-02 0.000000000000D+00  5 1 21 25 -24 2 2 0.56935266D-01 0.90678854D-02 0.16816245D+05 0.16816245D+05 0.16816245D+05 0.12422032D+01  1  2 12  4  5  2       -2 0.168734156786D+00 0.100000000000D+01
-.170236746518D-04 0.000000000000D+00 -.401236274414D-05 0.255069718132D-02 0.000000000000D+00  5 1 21 25 -24 2 2 0.56935266D-01 0.94720237D-02 0.11981985D+05 0.11981985D+05 0.11981985D+05 0.12591006D+01  1  2  5  4  5  2       -2 -.175624959000D+00 0.100000000000D+01
  </mgrwgt>
  </event>
  <event>
  4     66 0.47139866E-03 0.11782121E+03 0.75467711E-02 0.11078444E+00
        1 -1    0    0  501    0 0.00000000E+00 0.00000000E+00 0.85850831E+03 0.85850837E+03 0.32000000E+00 0.0000E+00 0.9000E+01
       -2 -1    0    0    0  501 0.00000000E+00 0.00000000E+00 -.32491132E+02 0.32492708E+02 0.32000000E+00 0.0000E+00 0.9000E+01
       25  1    1    2    0    0 -.12717339E+03 -.11065167E+02 0.51951256E+03 0.54937584E+03 0.12500000E+03 0.0000E+00 0.9000E+01
      -24  1    1    2    0    0 0.12717339E+03 0.11065167E+02 0.30650462E+03 0.34162525E+03 0.80419002E+02 0.0000E+00 0.9000E+01
#aMCatNLO 1  0  0  1  2 0.15395008D+03 0.00000000D+00  -5  5  0 0.00000000D+00 0.00000000D+00 0.00000000D+00 0.00000000D+00 0.00000000D+00
  <mgrwgt>
 0.1791339224D+00    7    2    0
 0.167016871760564D+03 0.000000000000000D+00 0.000000000000000D+00 0.167016871760564D+03
 0.167016871760564D+03 0.000000000000000D+00 0.000000000000000D+00 -.167016871760564D+03
 0.180724744428000D+03 -.127173389901085D+03 -.110651667963346D+02 0.272199234642924D+02
 0.153308999093128D+03 0.127173389901085D+03 0.110651667963346D+02 -.272199234642924D+02
 0.000000000000000D+00 0.000000000000000D+00 -.000000000000000D+00 0.000000000000000D+00
 0.375860500928137D+03 0.000000000000000D+00 0.000000000000000D+00 0.375860500928137D+03
 0.214768376800627D+03 0.000000000000000D+00 0.000000000000000D+00 -.214768376800627D+03
 0.199305489808220D+03 -.134836991988799D+03 0.719426134200367D+02 0.272199234642924D+02
 0.168497674704072D+03 0.120683910709754D+03 0.813555154166379D+02 -.272199234642924D+02
 0.222825713216473D+03 0.141530812790453D+02 -.153298128836675D+03 0.161092124127509D+03
0.552271857437D-03 0.000000000000D+00 0.000000000000D+00 0.223959538013D-02 0.000000000000D+00  5 1 -2 25 -24 21 0 0.13207833D+00 0.49987615D-02 0.27148547D+05 0.27148547D+05 0.27148547D+05 0.12194773D+01  1  2  2  1  5  1        1 0.193062407675D+00 0.100000000000D+01
-.306749151588D-04 0.000000000000D+00 -.212086934908D-05 0.223959538013D-02 0.000000000000D+00  5 1 -2 25 -24 21 2 0.13207833D+00 0.49987615D-02 0.27148547D+05 0.27148547D+05 0.27148547D+05 0.12194773D+01  1  2  3  1  5  1        1 -.159468747147D-01 0.100000000000D+01
0.381246868036D-04 0.000000000000D+00 0.000000000000D+00 0.223959538013D-02 0.000000000000D+00  5 1 -2 25 -24 21 2 0.13207833D+00 0.49987615D-02 0.27148547D+05 0.27148547D+05 0.27148547D+05 0.12194773D+01  1  2 15  1  5  1        1 0.198197648094D-01 0.100000000000D+01
0.233500561001D-05 0.000000000000D+00 0.000000000000D+00 0.223959538013D-02 0.000000000000D+00  5 1 -2 25 -24 21 2 0.29507074D+00 0.49987615D-02 0.66996223D+05 0.66996223D+05 0.66996223D+05 0.11798976D+01  1  2 12  1  5  1        1 0.213761328972D-03 0.100000000000D+01
-.244048492115D-03 0.000000000000D+00 -.180346193278D-03 0.223959538013D-02 0.000000000000D+00  5 1 -2 25 -24 21 2 0.32999801D+00 0.49987615D-02 0.27148547D+05 0.27148547D+05 0.27148547D+05 0.12194773D+01  1  2  5  1  5  1        1 -.173119336505D-01 0.100000000000D+01
0.203685437365D-06 0.000000000000D+00 0.000000000000D+00 0.223959538013D-02 0.000000000000D+00  5 21 -2 25 -24 -1 2 0.29507074D+00 0.49987615D-02 0.66996223D+05 0.66996223D+05 0.66996223D+05 0.11798976D+01  1  2 12  3  5  1        1 0.149683579644D-04 0.100000000000D+01
-.134476141171D-04 0.000000000000D+00 -.181764648952D-04 0.223959538013D-02 0.000000000000D+00  5 21 -2 25 -24 -1 2 0.32999801D+00 0.49987615D-02 0.27148547D+05 0.27148547D+05 0.27148547D+05 0.12194773D+01  1  2  5  3  5  1        1 -.718171358999D-03 0.100000000000D+01
  </mgrwgt>
  </event>
  <event>
  5     66 0.47139866E-03 0.10524180E+03 0.75467711E-02 0.11832773E+00
        1 -1    0    0  502    0 0.00000000E+00 0.00000000E+00 0.78908921E+03 0.78908927E+03 0.32000000E+00 0.0000E+00 0.9000E+01
       -2 -1    0    0    0  501 0.00000000E+00 0.00000000E+00 -.50200583E+02 0.50201603E+02 0.32000000E+00 0.0000E+00 0.9000E+01
       25  1    1    2    0    0 -.31168220E+02 0.40149084E+01 0.44728611E+03 0.46548624E+03 0.12500000E+03 0.0000E+00 0.9000E+01
      -24  1    1    2    0    0 -.65580396E+02 -.79578146E+01 0.54044279E+02 0.11726941E+03 0.80419002E+02 0.0000E+00 0.9000E+01
       21  1    1    2  502  501 0.96748616E+02 0.39429062E+01 0.23755823E+03 0.25653522E+03 0.75000000E+00 0.0000E+00 0.9000E+01
#aMCatNLO 2  0  0  1  2 0.96828928D+02 0.00000000D+00  -5  5  0 0.00000000D+00 0.00000000D+00 0.00000000D+00 0.00000000D+00 0.00000000D+00
  <mgrwgt>
 0.4844266815D-01    2    2    0
 0.140442295238580D+03 0.000000000000000D+00 0.000000000000000D+00 0.140442295238580D+03
 0.140442295238580D+03 0.000000000000000D+00 0.000000000000000D+00 -.140442295238580D+03
 0.156743979909271D+03 0.215633529814058D+02 0.616393804693924D+01 0.918732981543092D+02
 0.124140610567889D+03 -.215633529814058D+02 -.616393804693924D+01 -.918732981543092D+02
 0.000000000000000D+00 0.000000000000000D+00 0.000000000000000D+00 0.000000000000000D+00
 0.216257434809772D+03 0.000000000000000D+00 0.000000000000000D+00 0.216257434809772D+03
 0.183173508490790D+03 0.000000000000000D+00 0.000000000000000D+00 -.183173508490790D+03
 0.158282280582595D+03 -.311682200888152D+02 0.401490836408161D+01 0.918732981543092D+02
 0.138823751678682D+03 -.655803960717776D+02 -.795781459272074D+01 -.918732981543092D+02
 0.102324911039284D+03 0.967486161605928D+02 0.394290622863912D+01 0.330839263189817D+02
-.138384527275D-05 0.000000000000D+00 0.000000000000D+00 0.153322459971D-02 0.000000000000D+00  5 1 -2 25 -24 21 2 0.12816815D+00 0.59215074D-02 0.27190756D+05 0.27190756D+05 0.27190756D+05 0.12194056D+01  1  2 13  1  5  1        1 -.583135888788D-03 0.100000000000D+01
0.160990897133D-03 0.000000000000D+00 0.000000000000D+00 0.153322459971D-02 0.154140889443D-05  5 1 -2 25 -24 21 2 0.12139756D+00 0.77231954D-02 0.27190756D+05 0.27190756D+05 0.27190756D+05 0.12194056D+01  1  2  1  1  5  1        1 0.490258040411D-01 0.100000000000D+01
  </mgrwgt>
  </event>
  <event>
  4     66 0.47139866E-03 0.10292414E+03 0.75467711E-02 0.11583382E+00
        1 -1    0    0  501    0 0.00000000E+00 0.00000000E+00 0.76184324E+03 0.76184331E+03 0.32000000E+00 0.0000E+00 0.9000E+01
       -2 -1    0    0    0  501 0.00000000E+00 0.00000000E+00 -.14393420E+02 0.14396977E+02 0.32000000E+00 0.0000E+00 0.9000E+01
       25  1    1    2    0    0 0.50294540E+01 -.40951960E+01 0.52174010E+03 0.53654431E+03 0.12500000E+03 0.0000E+00 0.9000E+01
      -24  1    1    2    0    0 -.50294540E+01 0.40951960E+01 0.22570973E+03 0.23969598E+03 0.80419002E+02 0.0000E+00 0.9000E+01
#aMCatNLO 1  0  0  1  2 0.13444371D+03 0.00000000D+00  -5  5  0 0.00000000D+00 0.00000000D+00 0.00000000D+00 0.00000000D+00 0.00000000D+00
  <mgrwgt>
 0.3249205046D+00    3    2    0
 0.104723142223332D+03 0.000000000000000D+00 0.000000000000000D+00 0.104723142223332D+03
 0.104723142223332D+03 0.000000000000000D+00 0.000000000000000D+00 -.104723142223332D+03
 0.126585034091749D+03 0.502945397509358D+01 -.409519602347217D+01 0.188866306749275D+02
 0.828612503549150D+02 -.502945397509358D+01 0.409519602347217D+01 -.188866306749275D+02
 0.000000000000000D+00 -.000000000000000D+00 -.000000000000000D+00 -.000000000000000D+00
 0.148754927161307D+03 0.000000000000000D+00 0.000000000000000D+00 0.148754927161307D+03
 0.310297705026761D+03 0.000000000000000D+00 0.000000000000000D+00 -.310297705026761D+03
 0.153420858747284D+03 0.868857309463990D+02 0.266923929479635D+01 0.188866306749275D+02
 0.954623630062574D+02 0.471012599103010D+02 0.840317160238264D+01 -.188866306749275D+02
 0.210169410434527D+03 -.133986990856700D+03 -.110724108971790D+02 -.161542777865454D+03
0.234740428676D-03 0.000000000000D+00 0.000000000000D+00 0.308744995757D-02 0.000000000000D+00  5 1 -2 25 -24 21 0 0.11720693D+00 0.22146511D-02 0.10593378D+05 0.10593378D+05 0.10593378D+05 0.12654200D+01  1  2  2  1  5  1        1 0.318223501331D+00 0.100000000000D+01
-.130363740014D-04 0.000000000000D+00 -.901465054689D-06 0.308744995757D-02 0.000000000000D+00  5 1 -2 25 -24 21 2 0.11720693D+00 0.22146511D-02 0.10593378D+05 0.10593378D+05 0.10593378D+05 0.12654200D+01  1  2  3  1  5  1        1 -.282989654733D-01 0.100000000000D+01
0.161214563840D-04 0.000000000000D+00 0.000000000000D+00 0.308744995757D-02 0.000000000000D+00  5 1 -2 25 -24 21 2 0.11720693D+00 0.22146511D-02 0.10593378D+05 0.10593378D+05 0.10593378D+05 0.12654200D+01  1  2 15  1  5  1        1 0.349959687827D-01 0.100000000000D+01
  </mgrwgt>
  </event>
  <event>
  4     66 -.47139866E-03 0.52590847E+02 0.75467711E-02 0.12425031E+00
        1 -1    0    0  501    0 0.00000000E+00 0.00000000E+00 0.21838186E+04 0.21838187E+04 0.32000000E+00 0.0000E+00 0.9000E+01
       -2 -1    0    0    0  501 0.00000000E+00 0.00000000E+00 -.71524105E+01 0.71595654E+01 0.32000000E+00 0.0000E+00 0.9000E+01
       25  1    1    2    0    0 -.28930911E+02 0.52977558E+02 0.15604540E+04 0.15666158E+04 0.12500000E+03 0.0000E+00 0.9000E+01
      -24  1    1    2    0    0 0.28930911E+02 -.52977558E+02 0.61621226E+03 0.62436238E+03 0.80419002E+02 0.0000E+00 0.9000E+01
#aMCatNLO 1  0  0  2  1 0.13629643D+01 0.00000000D+00  -5  5  0 0.00000000D+00 0.00000000D+00 0.00000000D+00 0.00000000D+00 0.00000000D+00
  <mgrwgt>
 -.4773518627D+00   11    2    0
 0.125009724411622D+03 0.000000000000000D+00 0.000000000000000D+00 0.125009724411622D+03
 0.125009724411622D+03 0.000000000000000D+00 0.000000000000000D+00 -.125009724411622D+03
 0.143323867748734D+03 -.289309111670679D+02 0.529775584816653D+02 0.356806914566082D+02
 0.106695581074510D+03 0.289309111670679D+02 -.529775584816653D+02 -.356806914566082D+02
 0.000000000000000D+00 0.000000000000000D+00 -.000000000000000D+00 -.000000000000000D+00
 0.125308124180748D+03 0.000000000000000D+00 0.000000000000000D+00 0.125308124180748D+03
 0.126577692440153D+03 0.000000000000000D+00 0.000000000000000D+00 -.126577692440153D+03
 0.143652563442273D+03 -.293873597796262D+02 0.536127813669213D+02 0.356806914566082D+02
 0.106370600407915D+03 0.285920200514557D+02 -.525059360770307D+02 -.356806914566082D+02
 0.186265277071356D+01 0.795339728170443D+00 -.110684528989058D+01 -.126956825940463D+01
0.388181050196D-03 0.000000000000D+00 0.000000000000D+00 0.250324418078D-02 0.000000000000D+00  5 1 -2 25 -24 21 0 0.33597265D+00 0.11009230D-02 0.14323793D+05 0.14323793D+05 0.14323793D+05 0.12501128D+01  1  2  2  2  5  2       -2 0.160414290074D+00 0.100000000000D+01
-.215158771879D-04 0.000000000000D+00 -.149071744317D-05 0.250324418078D-02 0.000000000000D+00  5 1 -2 25 -24 21 2 0.33597265D+00 0.11009230D-02 0.14323793D+05 0.14323793D+05 0.14323793D+05 0.12501128D+01  1  2  3  2  5  2       -2 -.138952448149D-01 0.100000000000D+01
0.268406582165D-04 0.000000000000D+00 0.000000000000D+00 0.250324418078D-02 0.000000000000D+00  5 1 -2 25 -24 21 2 0.33597265D+00 0.11009230D-02 0.14323793D+05 0.14323793D+05 0.14323793D+05 0.12501128D+01  1  2 15  2  5  2       -2 0.173340605012D-01 0.100000000000D+01
0.299836786663D-07 0.000000000000D+00 0.000000000000D+00 0.250324418078D-02 0.000000000000D+00  5 1 -2 25 -24 21 2 0.33597265D+00 0.11160357D-02 0.14486713D+05 0.14486713D+05 0.14486713D+05 0.12495501D+01  1  2 12  2  5  2       -2 0.189752123451D-04 0.100000000000D+01
-.104956045588D-01 0.000000000000D+00 0.000000000000D+00 0.250324418078D-02 0.000000000000D+00  5 1 -2 25 -24 21 2 0.33597265D+00 0.11009230D-02 0.14323793D+05 0.14323793D+05 0.14323793D+05 0.12501128D+01  1  2  4  2  5  2       -2 -.677820353554D+01 0.100000000000D+01
-.328305735686D-01 0.000000000000D+00 -.306649122271D-02 0.250324418078D-02 0.000000000000D+00  5 1 -2 25 -24 21 2 0.33597265D+00 0.11177886D-02 0.14323793D+05 0.14323793D+05 0.14323793D+05 0.12501128D+01  1  2  5  2  5  2       -2 -.207468857771D+02 0.100000000000D+01
0.328737493709D-01 0.000000000000D+00 0.306613686278D-02 0.250324418078D-02 0.000000000000D+00  5 1 -2 25 -24 21 2 0.33597265D+00 0.11009230D-02 0.14323793D+05 0.14323793D+05 0.14323793D+05 0.12501128D+01  1  2  6  2  5  2       -2 0.212303124574D+02 0.100000000000D+01
0.104962271107D-01 0.000000000000D+00 0.000000000000D+00 0.250324418078D-02 0.112219236793D-01  5 1 -2 25 -24 21 2 0.33677462D+00 0.11147317D-02 0.14486713D+05 0.14486713D+05 0.14486713D+05 0.12495501D+01  1  2 11  2  5  2       -2 0.660299477057D+01 0.100000000000D+01
0.258825452379D-08 0.000000000000D+00 0.000000000000D+00 0.250324418078D-02 0.000000000000D+00  5 1 21 25 -24 2 2 0.33597265D+00 0.11160357D-02 0.14486713D+05 0.14486713D+05 0.14486713D+05 0.12495501D+01  1  2 12  4  5  2       -2 0.377617434730D-04 0.100000000000D+01
-.912282420457D-04 0.000000000000D+00 -.854539623921D-05 0.250324418078D-02 0.000000000000D+00  5 1 21 25 -24 2 2 0.33597265D+00 0.11177886D-02 0.14323793D+05 0.14323793D+05 0.14323793D+05 0.12501128D+01  1  2  5  4  5  2       -2 -.132897700421D+01 0.100000000000D+01
0.261626444318D-04 0.000000000000D+00 0.000000000000D+00 0.250324418078D-02 0.258123121180D-04  5 1 21 25 -24 2 2 0.33677462D+00 0.11147317D-02 0.14486713D+05 0.14486713D+05 0.14486713D+05 0.12495501D+01  1  2 11  4  5  2       -2 0.379497383535D+00 0.100000000000D+01
  </mgrwgt>
  </event>
  <event>
  4     66 0.47139866E-03 0.12046529E+03 0.75467711E-02 0.11967466E+00
        1 -1    0    0  501    0 0.00000000E+00 0.00000000E+00 0.43357250E+02 0.43358431E+02 0.32000000E+00 0.0000E+00 0.9000E+01
       -2 -1    0    0    0  501 0.00000000E+00 0.00000000E+00 -.34865793E+03 0.34865808E+03 0.32000000E+00 0.0000E+00 0.9000E+01
       25  1    1    2    0    0 -.38254558E+02 0.48616435E+02 -.21451659E+03 0.25586976E+03 0.12500000E+03 0.0000E+00 0.9000E+01
      -24  1    1    2    0    0 0.38254558E+02 -.48616435E+02 -.90784093E+02 0.13614675E+03 0.80419002E+02 0.0000E+00 0.9000E+01
#aMCatNLO 1  0  0  2  2 0.58483241D+02 0.00000000D+00  -5  5  0 0.00000000D+00 0.00000000D+00 0.00000000D+00 0.00000000D+00 0.00000000D+00
  <mgrwgt>
 0.1651334992D+00    7    2    0
 0.122951654504567D+03 0.000000000000000D+00 0.000000000000000D+00 0.122951654504567D+03
 0.122951654504567D+03 0.000000000000000D+00 0.000000000000000D+00 -.122951654504567D+03
 0.141572355630003D+03 -.382545583143382D+02 0.486164347458535D+02 -.243056149768962D+02
 0.104330953379132D+03 0.382545583143382D+02 -.486164347458535D+02 0.243056149768962D+02
 0.000000000000000D+00 0.000000000000000D+00 -.000000000000000D+00 -.000000000000000D+00
 0.154616668676248D+03 0.000000000000000D+00 0.000000000000000D+00 0.154616668676248D+03
 0.156664613087389D+03 0.000000000000000D+00 0.000000000000000D+00 -.156664613087389D+03
 0.160045518588928D+03 -.554138244966327D+02 0.795494384370516D+02 -.243056149768962D+02
 0.927166757681852D+02 0.270443714914093D+02 -.284078345243311D+02 0.243056149768962D+02
 0.585190874065231D+02 0.283694530052234D+02 -.511416039127205D+02 -.204794441114037D+01
0.470120329678D-03 0.000000000000D+00 0.000000000000D+00 0.263687105283D-02 0.000000000000D+00  5 1 -2 25 -24 21 0 0.66704483D-02 0.53639784D-01 0.14511886D+05 0.14511886D+05 0.14511886D+05 0.12494638D+01  1  2  2  2  5  2       -2 0.145459477662D+00 0.100000000000D+01
-.261045424130D-04 0.000000000000D+00 -.180538585149D-05 0.263687105283D-02 0.000000000000D+00  5 1 -2 25 -24 21 2 0.66704483D-02 0.53639784D-01 0.14511886D+05 0.14511886D+05 0.14511886D+05 0.12494638D+01  1  2  3  2  5  2       -2 -.126094576916D-01 0.100000000000D+01
0.325377134482D-04 0.000000000000D+00 0.000000000000D+00 0.263687105283D-02 0.000000000000D+00  5 1 -2 25 -24 21 2 0.66704483D-02 0.53639784D-01 0.14511886D+05 0.14511886D+05 0.14511886D+05 0.12494638D+01  1  2 15  2  5  2       -2 0.157169167962D-01 0.100000000000D+01
-.155218962145D-03 0.000000000000D+00 0.000000000000D+00 0.263687105283D-02 0.000000000000D+00  5 1 -2 25 -24 21 2 0.66704483D-02 0.53639784D-01 0.14511886D+05 0.14511886D+05 0.14511886D+05 0.12494638D+01  1  2  4  2  5  2       -2 -.749764889628D-01 0.100000000000D+01
-.298307234695D-03 0.000000000000D+00 -.163478901906D-03 0.263687105283D-02 0.000000000000D+00  5 1 -2 25 -24 21 2 0.66704483D-02 0.83400427D-01 0.14511886D+05 0.14511886D+05 0.14511886D+05 0.12494638D+01  1  2  5  2  5  2       -2 -.570393172946D-01 0.100000000000D+01
0.350490375551D-03 0.000000000000D+00 0.148753519314D-03 0.263687105283D-02 0.000000000000D+00  5 1 -2 25 -24 21 2 0.66704483D-02 0.53639784D-01 0.14511886D+05 0.14511886D+05 0.14511886D+05 0.12494638D+01  1  2  6  2  5  2       -2 0.169299790508D+00 0.100000000000D+01
-.892717558618D-05 0.000000000000D+00 -.837167802801D-05 0.263687105283D-02 0.000000000000D+00  5 1 21 25 -24 2 2 0.66704483D-02 0.83400427D-01 0.14511886D+05 0.14511886D+05 0.14511886D+05 0.12494638D+01  1  2  5  4  5  2       -2 -.207174218341D-01 0.100000000000D+01
  </mgrwgt>
  </event>
  <event>
  4     66 0.47139866E-03 0.11105557E+03 0.75467711E-02 0.12162896E+00
        1 -1    0    0  501    0 0.00000000E+00 0.00000000E+00 0.54455425E+02 0.54456365E+02 0.32000000E+00 0.0000E+00 0.9000E+01
       -2 -1    0    0    0  501 0.00000000E+00 0.00000000E+00 -.22823604E+03 0.22823627E+03 0.32000000E+00 0.0000E+00 0.9000E+01
       25  1    1    2    0    0 -.40684944E+01 0.41178531E+02 -.11507310E+03 0.17486865E+03 0.12500000E+03 0.0000E+00 0.9000E+01
      -24  1    1    2    0    0 0.40684944E+01 -.41178531E+02 -.58707515E+02 0.10782399E+03 0.80419002E+02 0.0000E+00 0.9000E+01
#aMCatNLO 1  0  0  2  2 0.48345261D+02 0.00000000D+00  -5  5  0 0.00000000D+00 0.00000000D+00 0.00000000D+00 0.00000000D+00 0.00000000D+00
  <mgrwgt>
 0.1887924019D+00    4    2    0
 0.111484776390429D+03 0.000000000000000D+00 0.000000000000000D+00 0.111484776390429D+03
 0.111484776390429D+03 0.000000000000000D+00 0.000000000000000D+00 -.111484776390429D+03
 0.132020728343093D+03 -.406849442624033D+01 0.411785306372554D+02 -.960461763429798D+01
 0.909488244377646D+02 0.406849442624033D+01 -.411785306372554D+02 0.960461763429798D+01
 0.000000000000000D+00 -.000000000000000D+00 -.000000000000000D+00 0.000000000000000D+00
 0.181181448832913D+03 0.000000000000000D+00 0.000000000000000D+00 0.181181448832913D+03
 0.122782627138530D+03 0.000000000000000D+00 0.000000000000000D+00 -.122782627138530D+03
 0.139021234515511D+03 0.206605950764286D+02 0.564162634122781D+02 -.960461763429798D+01
 0.891293423740540D+02 0.204983086793533D+02 -.310546997899784D+02 0.960461763429798D+01
 0.758134990818784D+02 -.411589037557819D+02 -.253615636222997D+02 0.583988216943828D+02
0.411088334498D-03 0.000000000000D+00 0.000000000000D+00 0.295357608961D-02 0.000000000000D+00  5 1 -2 25 -24 21 0 0.83778473D-02 0.35113327D-01 0.12333341D+05 0.12333341D+05 0.12333341D+05 0.12576319D+01  1  2  2  2  5  2       -2 0.209977119595D+00 0.100000000000D+01
-.228378276527D-04 0.000000000000D+00 -.157868744652D-05 0.295357608961D-02 0.000000000000D+00  5 1 -2 25 -24 21 2 0.83778473D-02 0.35113327D-01 0.12333341D+05 0.12333341D+05 0.12333341D+05 0.12576319D+01  1  2  3  2  5  2       -2 -.184500987078D-01 0.100000000000D+01
0.284544080608D-04 0.000000000000D+00 0.000000000000D+00 0.295357608961D-02 0.000000000000D+00  5 1 -2 25 -24 21 2 0.83778473D-02 0.35113327D-01 0.12333341D+05 0.12333341D+05 0.12333341D+05 0.12576319D+01  1  2 15  2  5  2       -2 0.229875908241D-01 0.100000000000D+01
-.318393632373D-04 0.000000000000D+00 0.000000000000D+00 0.295357608961D-02 0.000000000000D+00  5 1 -2 25 -24 21 2 0.83778473D-02 0.35113327D-01 0.12333341D+05 0.12333341D+05 0.12333341D+05 0.12576319D+01  1  2  4  2  5  2       -2 -.257222098114D-01 0.100000000000D+01
  </mgrwgt>
  </event>
  <event>
  4     66 0.47139866E-03 0.66683962E+02 0.75467711E-02 0.12381560E+00
        1 -1    0    0  501    0 0.00000000E+00 0.00000000E+00 0.19472616E+02 0.19475245E+02 0.32000000E+00 0.0000E+00 0.9000E+01
       -2 -1    0    0    0  501 0.00000000E+00 0.00000000E+00 -.68099444E+03 0.68099451E+03 0.32000000E+00 0.0000E+00 0.9000E+01
       25  1    1    2    0    0 -.29928552E+02 0.30526004E+02 -.47297895E+03 0.49108211E+03 0.12500000E+03 0.0000E+00 0.9000E+01
      -24  1    1    2    0    0 0.29928552E+02 -.30526004E+02 -.18854288E+03 0.20938765E+03 0.80419002E+02 0.0000E+00 0.9000E+01
#aMCatNLO 1  0  0  1  2 0.21859483D+02 0.00000000D+00  -5  5  0 0.00000000D+00 0.00000000D+00 0.00000000D+00 0.00000000D+00 0.00000000D+00
  <mgrwgt>
 0.1531601110D+00    9    2    0
 0.115159411987194D+03 0.000000000000000D+00 0.000000000000000D+00 0.115159411987194D+03
 0.115159411987194D+03 0.000000000000000D+00 0.000000000000000D+00 -.115159411987194D+03
 0.135040079766758D+03 -.299285517316759D+02 0.305260040029310D+02 -.279869257738278D+02
 0.952787442076292D+02 0.299285517316759D+02 -.305260040029310D+02 0.279869257738278D+02
 0.000000000000000D+00 0.000000000000000D+00 0.000000000000000D+00 0.000000000000000D+00
 0.132986353126152D+03 0.000000000000000D+00 0.000000000000000D+00 0.132986353126152D+03
 0.122578313262727D+03 0.000000000000000D+00 0.000000000000000D+00 -.122578313262727D+03
 0.136494280222750D+03 -.407863423191576D+02 0.236409559764675D+02 -.279869257738278D+02
 0.948595562846565D+02 0.223255292284293D+02 -.353471667118056D+02 0.279869257738278D+02
 0.242108298814727D+02 0.184608130907283D+02 0.117062107353382D+02 0.104080398634256D+02
0.657570667309D-03 0.000000000000D+00 0.000000000000D+00 0.273822303991D-02 0.000000000000D+00  5 1 -2 25 -24 21 0 0.29959951D-02 0.10476858D+00 0.12452747D+05 0.12452747D+05 0.12452747D+05 0.12571434D+01  1  2  2  1  5  1        1 0.142652080986D+00 0.100000000000D+01
-.364877171613D-04 0.000000000000D+00 -.252524450480D-05 0.273822303991D-02 0.000000000000D+00  5 1 -2 25 -24 21 2 0.29959951D-02 0.10476858D+00 0.12452747D+05 0.12452747D+05 0.12452747D+05 0.12571434D+01  1  2  3  1  5  1        1 -.125098483642D-01 0.100000000000D+01
0.454499171858D-04 0.000000000000D+00 0.000000000000D+00 0.273822303991D-02 0.000000000000D+00  5 1 -2 25 -24 21 2 0.29959951D-02 0.10476858D+00 0.12452747D+05 0.12452747D+05 0.12452747D+05 0.12571434D+01  1  2 15  1  5  1        1 0.155825471253D-01 0.100000000000D+01
0.102916852032D-02 0.000000000000D+00 0.000000000000D+00 0.273822303991D-02 0.000000000000D+00  5 1 -2 25 -24 21 2 0.35450290D-02 0.10476858D+00 0.15140162D+05 0.15140162D+05 0.15140162D+05 0.12473623D+01  1  2 12  1  5  1        1 0.277514039010D+00 0.100000000000D+01
-.100915239968D-02 0.000000000000D+00 0.000000000000D+00 0.273822303991D-02 0.000000000000D+00  5 1 -2 25 -24 21 2 0.29959951D-02 0.10476858D+00 0.12452747D+05 0.12452747D+05 0.12452747D+05 0.12571434D+01  1  2  4  1  5  1        1 -.345988855388D+00 0.100000000000D+01
-.224798843550D-02 0.000000000000D+00 -.558159700930D-03 0.273822303991D-02 0.000000000000D+00  5 1 -2 25 -24 21 2 0.36841938D-02 0.10476858D+00 0.12452747D+05 0.12452747D+05 0.12452747D+05 0.12571434D+01  1  2  5  1  5  1        1 -.580046049620D+00 0.100000000000D+01
0.232523912346D-02 0.000000000000D+00 0.546436296682D-03 0.273822303991D-02 0.000000000000D+00  5 1 -2 25 -24 21 2 0.29959951D-02 0.10476858D+00 0.12452747D+05 0.12452747D+05 0.12452747D+05 0.12571434D+01  1  2  6  1  5  1        1 0.797210434308D+00 0.100000000000D+01
0.257403259785D-04 0.000000000000D+00 0.000000000000D+00 0.273822303991D-02 0.000000000000D+00  5 21 -2 25 -24 -1 2 0.35450290D-02 0.10476858D+00 0.15140162D+05 0.15140162D+05 0.15140162D+05 0.12473623D+01  1  2 12  3  5  1        1 0.119459109505D+00 0.100000000000D+01
-.591839764334D-04 0.000000000000D+00 -.163848423117D-04 0.273822303991D-02 0.000000000000D+00  5 21 -2 25 -24 -1 2 0.36841938D-02 0.10476858D+00 0.12452747D+05 0.12452747D+05 0.12452747D+05 0.12571434D+01  1  2  5  3  5  1        1 -.260713346579D+00 0.100000000000D+01
  </mgrwgt>
  </event>
  <event>
  4     66 0.47139866E-03 0.84582650E+02 0.75467711E-02 0.11957343E+00
        1 -1    0    0  501    0 0.00000000E+00 0.00000000E+00 0.18942035E+04 0.18942035E+04 0.32000000E+00 0.0000E+00 0.9000E+01
       -2 -1    0    0    0  501 0.00000000E+00 0.00000000E+00 -.23794332E+02 0.23796484E+02 0.32000000E+00 0.0000E+00 0.9000E+01
       25  1    1    2    0    0 0.64368633E+02 -.78853199E+02 0.16793121E+04 0.16870315E+04 0.12500000E+03 0.0000E+00 0.9000E+01
      -24  1    1    2    0    0 -.64368633E+02 0.78853199E+02 0.19109706E+03 0.23096850E+03 0.80419002E+02 0.0000E+00 0.9000E+01
#aMCatNLO 1  0  0  1  2 0.16384712D+02 0.00000000D+00  -5  5  0 0.00000000D+00 0.00000000D+00 0.00000000D+00 0.00000000D+00 0.00000000D+00
  <mgrwgt>
 0.2293525927D+00    9    2    0
 0.212304963308644D+03 0.000000000000000D+00 0.000000000000000D+00 0.212304963308644D+03
 0.212304963308644D+03 0.000000000000000D+00 0.000000000000000D+00 -.212304963308644D+03
 0.223088724440403D+03 0.643686330903777D+02 -.788531988366699D+02 0.154215534495546D+03
 0.201521202176884D+03 -.643686330903777D+02 0.788531988366699D+02 -.154215534495546D+03
 0.000000000000000D+00 0.000000000000000D+00 0.000000000000000D+00 0.000000000000000D+00
 0.261995180224440D+03 0.000000000000000D+00 0.000000000000000D+00 0.261995180224440D+03
 0.213817937256887D+03 0.000000000000000D+00 0.000000000000000D+00 -.213817937256887D+03
 0.222824373935169D+03 0.571505657826919D+02 -.835289373245654D+02 0.154215534495546D+03
 0.202101559117898D+03 -.709021398847575D+02 0.746209067455614D+02 -.154215534495546D+03
 0.508871844282600D+02 0.137515741020655D+02 0.890803057900400D+01 0.481772429675534D+02
0.135346374841D-02 0.000000000000D+00 0.000000000000D+00 0.105458870962D-02 0.000000000000D+00  5 1 -2 25 -24 21 0 0.29141609D+00 0.36608341D-02 0.21159540D+05 0.21159540D+05 0.21159540D+05 0.12311405D+01  1  2  2  1  5  1        1 0.149284462892D+00 0.100000000000D+01
-.621225820660D-04 0.000000000000D+00 -.519765716908D-05 0.105458870962D-02 0.000000000000D+00  5 1 -2 25 -24 21 2 0.29141609D+00 0.36608341D-02 0.21159540D+05 0.21159540D+05 0.21159540D+05 0.12311405D+01  1  2  3  1  5  1        1 -.103856268176D-01 0.100000000000D+01
0.925588970466D-04 0.000000000000D+00 0.000000000000D+00 0.105458870962D-02 0.000000000000D+00  5 1 -2 25 -24 21 2 0.29141609D+00 0.36608341D-02 0.21159540D+05 0.21159540D+05 0.21159540D+05 0.12311405D+01  1  2 15  1  5  1        1 0.154739569961D-01 0.100000000000D+01
0.124625818818D-01 0.000000000000D+00 0.000000000000D+00 0.105458870962D-02 0.000000000000D+00  5 1 -2 25 -24 21 2 0.36049887D+00 0.36608341D-02 0.23692105D+05 0.23692105D+05 0.23692105D+05 0.12258075D+01  1  2 12  1  5  1        1 0.106362125807D+01 0.100000000000D+01
-.123569874474D-01 0.000000000000D+00 0.000000000000D+00 0.105458870962D-02 0.000000000000D+00  5 1 -2 25 -24 21 2 0.29141609D+00 0.36608341D-02 0.21159540D+05 0.21159540D+05 0.21159540D+05 0.12311405D+01  1  2  4  1  5  1        1 -.206583589978D+01 0.100000000000D+01
-.135972862430D-01 0.000000000000D+00 -.797954064606D-03 0.105458870962D-02 0.000000000000D+00  5 1 -2 25 -24 21 2 0.36037889D+00 0.36608341D-02 0.21159540D+05 0.21159540D+05 0.21159540D+05 0.12311405D+01  1  2  5  1  5  1        1 -.117439880019D+01 0.100000000000D+01
0.134792370983D-01 0.000000000000D+00 0.780286329699D-03 0.105458870962D-02 0.000000000000D+00  5 1 -2 25 -24 21 2 0.29141609D+00 0.36608341D-02 0.21159540D+05 0.21159540D+05 0.21159540D+05 0.12311405D+01  1  2  6  1  5  1        1 0.225345311855D+01 0.100000000000D+01
0.373831167648D-03 0.000000000000D+00 0.000000000000D+00 0.105458870962D-02 0.000000000000D+00  5 21 -2 25 -24 -1 2 0.36049887D+00 0.36608341D-02 0.23692105D+05 0.23692105D+05 0.23692105D+05 0.12258075D+01  1  2 12  3  5  1        1 0.216519107728D-01 0.100000000000D+01
-.397198294039D-03 0.000000000000D+00 -.239072532451D-04 0.105458870962D-02 0.000000000000D+00  5 21 -2 25 -24 -1 2 0.36037889D+00 0.36608341D-02 0.21159540D+05 0.21159540D+05 0.21159540D+05 0.12311405D+01  1  2  5  3  5  1        1 -.235117878002D-01 0.100000000000D+01
  </mgrwgt>
  </event>
  <event>
  4     66 0.47139866E-03 0.14714389E+03 0.75467711E-02 0.11076210E+00
        1 -1    0    0  501    0 0.00000000E+00 0.00000000E+00 0.13336023E+03 0.13336061E+03 0.32000000E+00 0.0000E+00 0.9000E+01
       -2 -1    0    0    0  501 0.00000000E+00 0.00000000E+00 -.16916804E+03 0.16916834E+03 0.32000000E+00 0.0000E+00 0.9000E+01
       25  1    1    2    0    0 0.87050722E+02 0.57179347E+02 0.10480028E+02 0.16304029E+03 0.12500000E+03 0.0000E+00 0.9000E+01
      -24  1    1    2    0    0 -.87050722E+02 -.57179347E+02 -.46287836E+02 0.13948866E+03 0.80419002E+02 0.0000E+00 0.9000E+01
#aMCatNLO 1  0  0  2  2 0.17621534D+03 0.00000000D+00  -5  5  0 0.00000000D+00 0.00000000D+00 0.00000000D+00 0.00000000D+00 0.00000000D+00
  <mgrwgt>
 0.1811587408D+00    5    2    0
 0.150201170462196D+03 0.000000000000000D+00 0.000000000000000D+00 0.150201170462196D+03
 0.150201170462196D+03 0.000000000000000D+00 0.000000000000000D+00 -.150201170462196D+03
 0.165443701558075D+03 0.870507222547049D+02 0.571793466407808D+02 0.299885387757545D+02
 0.134958639366318D+03 -.870507222547049D+02 -.571793466407808D+02 -.299885387757545D+02
 0.000000000000000D+00 -.000000000000000D+00 0.000000000000000D+00 -.000000000000000D+00
 0.215953564578119D+03 0.000000000000000D+00 0.000000000000000D+00 0.215953564578119D+03
 0.359774894826754D+03 0.000000000000000D+00 0.000000000000000D+00 -.359774894826754D+03
 0.238692890458046D+03 0.196113578181081D+03 0.446032280258389D+02 0.299885387757545D+02
 0.109579149786072D+03 -.210582083528265D+02 -.647889922481586D+02 -.299885387757545D+02
 0.227456419160755D+03 -.175055369828254D+03 0.201857642223198D+02 -.143821330248635D+03
0.641100710342D-03 0.000000000000D+00 0.000000000000D+00 0.231999705805D-02 0.000000000000D+00  5 1 -2 25 -24 21 0 0.20517011D-01 0.26025904D-01 0.21651324D+05 0.21651324D+05 0.21651324D+05 0.12300508D+01  1  2  2  2  5  2       -2 0.178056284946D+00 0.100000000000D+01
-.355983924705D-04 0.000000000000D+00 -.246199553341D-05 0.231999705805D-02 0.000000000000D+00  5 1 -2 25 -24 21 2 0.20517011D-01 0.26025904D-01 0.21651324D+05 0.21651324D+05 0.21651324D+05 0.12300508D+01  1  2  3  2  5  2       -2 -.149591723478D-01 0.100000000000D+01
0.443583811877D-04 0.000000000000D+00 0.000000000000D+00 0.231999705805D-02 0.000000000000D+00  5 1 -2 25 -24 21 2 0.20517011D-01 0.26025904D-01 0.21651324D+05 0.21651324D+05 0.21651324D+05 0.12300508D+01  1  2 15  2  5  2       -2 0.186402987102D-01 0.100000000000D+01
-.414038514373D-04 0.000000000000D+00 -.191443407770D-03 0.231999705805D-02 0.000000000000D+00  5 1 -2 25 -24 21 2 0.20517011D-01 0.84610522D-01 0.21651324D+05 0.21651324D+05 0.21651324D+05 0.12300508D+01  1  2  5  2  5  2       -2 -.171199812474D-02 0.100000000000D+01
0.228851827032D-05 0.000000000000D+00 -.260681395366D-04 0.231999705805D-02 0.000000000000D+00  5 1 21 25 -24 2 2 0.20517011D-01 0.84610522D-01 0.21651324D+05 0.21651324D+05 0.21651324D+05 0.12300508D+01  1  2  5  4  5  2       -2 0.113332764811D-02 0.100000000000D+01
  </mgrwgt>
  </event>
  <event>
  4     66 0.47139866E-03 0.14133691E+03 0.75467711E-02 0.11913032E+00
        1 -1    0    0  501    0 0.00000000E+00 0.00000000E+00 0.44204651E+03 0.44204663E+03 0.32000000E+00 0.0000E+00 0.9000E+01
       -2 -1    0    0    0  501 0.00000000E+00 0.00000000E+00 -.46988242E+02 0.46989332E+02 0.32000000E+00 0.0000E+00 0.9000E+01
       25  1    1    2    0    0 -.16519709E+02 0.94443124E+02 0.17176253E+03 0.23306602E+03 0.12500000E+03 0.0000E+00 0.9000E+01
      -24  1    1    2    0    0 0.16519709E+02 -.94443124E+02 0.22329574E+03 0.25596994E+03 0.80419002E+02 0.0000E+00 0.9000E+01
#aMCatNLO 1  0  0  1  2 0.31059614D+02 0.00000000D+00  -5  5  0 0.00000000D+00 0.00000000D+00 0.00000000D+00 0.00000000D+00 0.00000000D+00
  <mgrwgt>
 0.2073064495D+00    4    2    0
 0.144122459196132D+03 0.000000000000000D+00 0.000000000000000D+00 0.144122459196132D+03
 0.144122459196132D+03 0.000000000000000D+00 0.000000000000000D+00 -.144122459196132D+03
 0.160007880692387D+03 -.165197094259896D+02 0.944431242469289D+02 -.280199458712755D+02
 0.128237037699877D+03 0.165197094259896D+02 -.944431242469289D+02 0.280199458712755D+02
 0.000000000000000D+00 -.000000000000000D+00 -.000000000000000D+00 -.000000000000000D+00
 0.149132764555387D+03 0.000000000000000D+00 0.000000000000000D+00 0.149132764555387D+03
 0.202709097661057D+03 0.000000000000000D+00 0.000000000000000D+00 -.202709097661057D+03
 0.161879359193312D+03 0.169932088161190D+00 0.989685843553069D+02 -.280199458712755D+02
 0.128034132385965D+03 0.298072009110931D+02 -.908401701268382D+02 0.280199458712755D+02
 0.619283706371668D+02 -.299771329992543D+02 -.812841422846867D+01 -.535763331056704D+02
0.470846253181D-03 0.000000000000D+00 0.000000000000D+00 0.237597023187D-02 0.000000000000D+00  5 1 -2 25 -24 21 0 0.68007248D-01 0.72290530D-02 0.19976121D+05 0.19976121D+05 0.19976121D+05 0.12338832D+01  1  2  2  1  5  1        1 0.235073550471D+00 0.100000000000D+01
-.261460105530D-04 0.000000000000D+00 -.180817358888D-05 0.237597023187D-02 0.000000000000D+00  5 1 -2 25 -24 21 2 0.68007248D-01 0.72290530D-02 0.19976121D+05 0.19976121D+05 0.19976121D+05 0.12338832D+01  1  2  3  1  5  1        1 -.198736739440D-01 0.100000000000D+01
0.325666477307D-04 0.000000000000D+00 0.000000000000D+00 0.237597023187D-02 0.000000000000D+00  5 1 -2 25 -24 21 2 0.68007248D-01 0.72290530D-02 0.19976121D+05 0.19976121D+05 0.19976121D+05 0.12338832D+01  1  2 15  1  5  1        1 0.247540226887D-01 0.100000000000D+01
-.429513217533D-04 0.000000000000D+00 0.000000000000D+00 0.237597023187D-02 0.000000000000D+00  5 1 -2 25 -24 21 2 0.68007248D-01 0.72290530D-02 0.19976121D+05 0.19976121D+05 0.19976121D+05 0.12338832D+01  1  2  4  1  5  1        1 -.326474496848D-01 0.100000000000D+01
  </mgrwgt>
  </event>
  <event>
  4     66 0.47139866E-03 0.11518846E+03 0.75467711E-02 0.11228547E+00
        1 -1    0    0  501    0 0.00000000E+00 0.00000000E+00 0.80952566E+02 0.80953198E+02 0.32000000E+00 0.0000E+00 0.9000E+01
       -2 -1    0    0    0  501 0.00000000E+00 0.00000000E+00 -.18754599E+03 0.18754626E+03 0.32000000E+00 0.0000E+00 0.9000E+01
       25  1    1    2    0    0 0.84487966E+01 -.50457237E+02 -.10837677E+03 0.17316997E+03 0.12500000E+03 0.0000E+00 0.9000E+01
      -24  1    1    2    0    0 -.84487966E+01 0.50457237E+02 0.17833452E+01 0.95329488E+02 0.80419002E+02 0.0000E+00 0.9000E+01
#aMCatNLO 1  0  0  1  1 0.17892974D+03 0.00000000D+00  -5  5  0 0.00000000D+00 0.00000000D+00 0.00000000D+00 0.00000000D+00 0.00000000D+00
  <mgrwgt>
 0.2031884501D+00    5    2    0
 0.123217085919405D+03 0.000000000000000D+00 0.000000000000000D+00 0.123217085919405D+03
 0.123217085919405D+03 0.000000000000000D+00 0.000000000000000D+00 -.123217085919405D+03
 0.141797674758398D+03 0.844879655669656D+01 -.504572370938448D+02 -.431771424307757D+02
 0.104636497080411D+03 -.844879655669656D+01 0.504572370938448D+02 0.431771424307757D+02
 0.000000000000000D+00 0.000000000000000D+00 -.000000000000000D+00 0.000000000000000D+00
 0.317851074501019D+03 0.000000000000000D+00 0.000000000000000D+00 0.317851074501019D+03
 0.200609739575884D+03 0.000000000000000D+00 0.000000000000000D+00 -.200609739575884D+03
 0.142981837830949D+03 -.500690465052247D+02 0.211572895968758D+02 -.431771424307757D+02
 0.161559872549207D+03 -.631480873870086D+02 0.117398594091330D+03 0.431771424307757D+02
 0.213919103696746D+03 0.113217133892233D+03 -.138555883688206D+03 0.117241334925136D+03
0.406002850399D-03 0.000000000000D+00 0.000000000000D+00 0.243353230347D-02 0.000000000000D+00  5 1 -2 25 -24 21 0 0.12454311D-01 0.28853298D-01 0.13268381D+05 0.13268381D+05 0.13268381D+05 0.12539419D+01  1  2  2  1  5  1        1 0.175991696939D+00 0.100000000000D+01
-.224312119072D-04 0.000000000000D+00 -.155915784854D-05 0.243353230347D-02 0.000000000000D+00  5 1 -2 25 -24 21 2 0.12454311D-01 0.28853298D-01 0.13268381D+05 0.13268381D+05 0.13268381D+05 0.12539419D+01  1  2  3  1  5  1        1 -.152887030349D-01 0.100000000000D+01
0.281025594924D-04 0.000000000000D+00 0.000000000000D+00 0.243353230347D-02 0.000000000000D+00  5 1 -2 25 -24 21 2 0.12454311D-01 0.28853298D-01 0.13268381D+05 0.13268381D+05 0.13268381D+05 0.12539419D+01  1  2 15  1  5  1        1 0.191541896345D-01 0.100000000000D+01
0.108504516158D-03 0.000000000000D+00 -.177934073323D-03 0.243353230347D-02 0.000000000000D+00  5 1 -2 25 -24 21 2 0.50360619D-01 0.28853298D-01 0.13268381D+05 0.13268381D+05 0.13268381D+05 0.12539419D+01  1  2  5  1  5  1        1 0.128093546963D-01 0.100000000000D+01
0.198751069626D-04 0.000000000000D+00 -.297092002561D-04 0.243353230347D-02 0.000000000000D+00  5 21 -2 25 -24 -1 2 0.50360619D-01 0.28853298D-01 0.13268381D+05 0.13268381D+05 0.13268381D+05 0.12539419D+01  1  2  5  3  5  1        1 0.105219118739D-01 0.100000000000D+01
  </mgrwgt>
  </event>
  <event>
  4     66 0.47139866E-03 0.14215562E+03 0.75467711E-02 0.11228444E+00
        1 -1    0    0  501    0 0.00000000E+00 0.00000000E+00 0.56100383E+02 0.56101296E+02 0.32000000E+00 0.0000E+00 0.9000E+01
       -2 -1    0    0    0  501 0.00000000E+00 0.00000000E+00 -.46739784E+03 0.46739795E+03 0.32000000E+00 0.0000E+00 0.9000E+01
       25  1    1    2    0    0 -.77453338E+02 0.58501891E+02 -.98879361E+02 0.18661088E+03 0.12500000E+03 0.0000E+00 0.9000E+01
      -24  1    1    2    0    0 0.77453338E+02 -.58501891E+02 -.31241809E+03 0.33688837E+03 0.80419002E+02 0.0000E+00 0.9000E+01
#aMCatNLO 1  0  0  2  1 0.15393410D+03 0.00000000D+00  -5  5  0 0.00000000D+00 0.00000000D+00 0.00000000D+00 0.00000000D+00 0.00000000D+00
  <mgrwgt>
 0.1539285842D+00    5    2    0
 0.161930433616659D+03 0.000000000000000D+00 0.000000000000000D+00 0.161930433616659D+03
 0.161930433616659D+03 0.000000000000000D+00 0.000000000000000D+00 -.161930433616659D+03
 0.176068887768071D+03 -.774533382957839D+02 0.585018911831259D+02 0.771606269720639D+02
 0.147791979465247D+03 0.774533382957839D+02 -.585018911831259D+02 -.771606269720639D+02
 0.000000000000000D+00 0.000000000000000D+00 -.000000000000000D+00 -.000000000000000D+00
 0.238352151949818D+03 0.000000000000000D+00 0.000000000000000D+00 0.238352151949818D+03
 0.279593557972540D+03 0.000000000000000D+00 0.000000000000000D+00 -.279593557972540D+03
 0.241080594811838D+03 -.152833275324767D+03 0.114817597926501D+03 0.771606269720639D+02
 0.117502128305073D+03 0.295140408185154D+02 -.226868517360215D+02 -.771606269720639D+02
 0.159362986805448D+03 0.123319234506251D+03 -.921307461904794D+02 -.412414060227215D+02
0.124026811042D-02 0.000000000000D+00 0.000000000000D+00 0.183660011144D-02 0.000000000000D+00  5 1 -2 25 -24 21 0 0.86309068D-02 0.71907438D-01 0.20208221D+05 0.20208221D+05 0.20208221D+05 0.12333312D+01  1  2  2  2  5  2       -2 0.149522033118D+00 0.100000000000D+01
-.674826242324D-04 0.000000000000D+00 -.476295611410D-05 0.183660011144D-02 0.000000000000D+00  5 1 -2 25 -24 21 2 0.86309068D-02 0.71907438D-01 0.20208221D+05 0.20208221D+05 0.20208221D+05 0.12333312D+01  1  2  3  2  5  2       -2 -.123748795973D-01 0.100000000000D+01
0.857439600016D-04 0.000000000000D+00 0.000000000000D+00 0.183660011144D-02 0.000000000000D+00  5 1 -2 25 -24 21 2 0.86309068D-02 0.71907438D-01 0.20208221D+05 0.20208221D+05 0.20208221D+05 0.12333312D+01  1  2 15  2  5  2       -2 0.157236206103D-01 0.100000000000D+01
-.984182725503D-04 0.000000000000D+00 -.332124019649D-03 0.183660011144D-02 0.000000000000D+00  5 1 -2 25 -24 21 2 0.86309068D-02 0.16612119D+00 0.20208221D+05 0.20208221D+05 0.20208221D+05 0.12333312D+01  1  2  5  2  5  2       -2 -.249382001469D-02 0.100000000000D+01
0.120322793951D-04 0.000000000000D+00 -.302806991477D-04 0.183660011144D-02 0.000000000000D+00  5 1 21 25 -24 2 2 0.86309068D-02 0.16612119D+00 0.20208221D+05 0.20208221D+05 0.20208221D+05 0.12333312D+01  1  2  5  4  5  2       -2 0.355163009927D-02 0.100000000000D+01
  </mgrwgt>
  </event>
  <event>
  4     66 0.47139866E-03 0.12743262E+03 0.75467711E-02 0.11383980E+00
        1 -1    0    0  501    0 0.00000000E+00 0.00000000E+00 0.91547521E+02 0.91548080E+02 0.32000000E+00 0.0000E+00 0.9000E+01
       -2 -1    0    0    0  501 0.00000000E+00 0.00000000E+00 -.18264744E+03 0.18264772E+03 0.32000000E+00 0.0000E+00 0.9000E+01
       25  1    1    2    0    0 0.70734109E+02 -.22636834E+02 -.28736562E+02 0.14821110E+03 0.12500000E+03 0.0000E+00 0.9000E+01
      -24  1    1    2    0    0 -.70734109E+02 0.22636834E+02 -.62363358E+02 0.12598470E+03 0.80419002E+02 0.0000E+00 0.9000E+01
#aMCatNLO 1  0  0  2  1 0.13859724D+03 0.00000000D+00  -5  5  0 0.00000000D+00 0.00000000D+00 0.00000000D+00 0.00000000D+00 0.00000000D+00
  <mgrwgt>
 0.2029209099D+00    3    2    0
 0.129309843209659D+03 0.000000000000000D+00 0.000000000000000D+00 0.129309843209659D+03
 0.129309843209659D+03 0.000000000000000D+00 0.000000000000000D+00 -.129309843209659D+03
 0.147014961045858D+03 0.707341091909580D+02 -.226368336221555D+02 0.217407067925486D+02
 0.111604725373461D+03 -.707341091909580D+02 0.226368336221555D+02 -.217407067925486D+02
 0.000000000000000D+00 -.000000000000000D+00 0.000000000000000D+00 0.000000000000000D+00
 0.356956911386835D+03 0.000000000000000D+00 0.000000000000000D+00 0.356956911386835D+03
 0.169549382026252D+03 0.000000000000000D+00 0.000000000000000D+00 -.169549382026252D+03
 0.206587151070532D+03 0.154672880525701D+03 -.515450549081235D+02 0.217407067925486D+02
 0.868295098617272D+02 -.236293965049985D+02 0.641413419155230D+01 -.217407067925486D+02
 0.233089632480828D+03 -.131043484020702D+03 0.451309207165713D+02 0.187407529360584D+03
0.509591026339D-03 0.000000000000D+00 0.000000000000D+00 0.256486285558D-02 0.000000000000D+00  5 1 -2 25 -24 21 0 0.14084299D-01 0.28099671D-01 0.16239074D+05 0.16239074D+05 0.16239074D+05 0.12439120D+01  1  2  2  2  5  2       -2 0.198707074429D+00 0.100000000000D+01
-.283032515070D-04 0.000000000000D+00 -.195696371954D-05 0.256486285558D-02 0.000000000000D+00  5 1 -2 25 -24 21 2 0.14084299D-01 0.28099671D-01 0.16239074D+05 0.16239074D+05 0.16239074D+05 0.12439120D+01  1  2  3  2  5  2       -2 -.170768269995D-01 0.100000000000D+01
0.352872915965D-04 0.000000000000D+00 0.000000000000D+00 0.256486285558D-02 0.000000000000D+00  5 1 -2 25 -24 21 2 0.14084299D-01 0.28099671D-01 0.16239074D+05 0.16239074D+05 0.16239074D+05 0.12439120D+01  1  2 15  2  5  2       -2 0.212906624430D-01 0.100000000000D+01
  </mgrwgt>
  </event>
  <event>
  4     66 0.47139866E-03 0.18886612E+03 0.75467711E-02 0.10788178E+00
        3 -1    0    0  501    0 0.00000000E+00 0.00000000E+00 0.52314759E+02 0.52317148E+02 0.50000000E+00 0.0000E+00 0.9000E+01
       -4 -1    0    0    0  501 0.00000000E+00 0.00000000E+00 -.68280135E+03 0.68280311E+03 0.15500000E+01 0.0000E+00 0.9000E+01
       25  1    1    2    0    0 0.12537299E+03 -.95146536E+02 -.32149299E+03 0.37914903E+03 0.12500000E+03 0.0000E+00 0.9000E+01
      -24  1    1    2    0    0 -.12537299E+03 0.95146536E+02 -.30899360E+03 0.35597122E+03 0.80419002E+02 0.0000E+00 0.9000E+01
#aMCatNLO 1  0  0  2  1 0.19932957D+03 0.00000000D+00  -5  5  0 0.00000000D+00 0.00000000D+00 0.00000000D+00 0.00000000D+00 0.00000000D+00
  <mgrwgt>
 0.6297391290D-01    3    2    0
 0.189002943490429D+03 0.000000000000000D+00 0.000000000000000D+00 0.189002943490429D+03
 0.189002943490429D+03 0.000000000000000D+00 0.000000000000000D+00 -.189002943490429D+03
 0.201116225797714D+03 0.125372985028780D+03 -.951465363103481D+02 0.717548132420840D+01
 0.176889661183144D+03 -.125372985028780D+03 0.951465363103481D+02 -.717548132420840D+01
 0.000000000000000D+00 0.000000000000000D+00 -.000000000000000D+00 0.000000000000000D+00
 0.577592395304235D+03 0.000000000000000D+00 0.000000000000000D+00 0.577592395304235D+03
 0.240965261332365D+03 0.000000000000000D+00 0.000000000000000D+00 -.240965261332365D+03
 0.167769987247692D+03 0.111563083040452D+03 -.489485355919014D+01 0.717548132420840D+01
 0.259571480291145D+03 -.141712672911698D+03 0.201931097729284D+03 -.717548132420840D+01
 0.391216189097763D+03 0.301495898712459D+02 -.197036244170094D+03 0.336627133971870D+03
0.371943614200D-02 0.000000000000D+00 0.000000000000D+00 0.219634402094D-02 0.000000000000D+00  5 3 -4 25 -24 21 0 0.80487436D-02 0.10504668D+00 0.35670412D+05 0.35670412D+05 0.35670412D+05 0.12070856D+01  1  2  2  2  5  2       -4 0.617747971081D-01 0.100000000000D+01
-.206635209468D-03 0.000000000000D+00 -.142836141353D-04 0.219634402094D-02 0.000000000000D+00  5 3 -4 25 -24 21 2 0.80487436D-02 0.10504668D+00 0.35670412D+05 0.35670412D+05 0.35670412D+05 0.12070856D+01  1  2  3  2  5  2       -4 -.500051417588D-02 0.100000000000D+01
0.256186022433D-03 0.000000000000D+00 0.000000000000D+00 0.219634402094D-02 0.000000000000D+00  5 3 -4 25 -24 21 2 0.80487436D-02 0.10504668D+00 0.35670412D+05 0.35670412D+05 0.35670412D+05 0.12070856D+01  1  2 15  2  5  2       -4 0.619962996694D-02 0.100000000000D+01
  </mgrwgt>
  </event>
  <event>
  4     66 0.47139866E-03 0.10477369E+03 0.75467711E-02 0.12197169E+00
        1 -1    0    0  501    0 0.00000000E+00 0.00000000E+00 0.37592961E+04 0.37592962E+04 0.32000000E+00 0.0000E+00 0.9000E+01
       -2 -1    0    0    0  501 0.00000000E+00 0.00000000E+00 -.30301394E+01 0.30469895E+01 0.32000000E+00 0.0000E+00 0.9000E+01
       25  1    1    2    0    0 0.19662998E+02 -.47185827E+01 0.26181710E+04 0.26212313E+04 0.12500000E+03 0.0000E+00 0.9000E+01
      -24  1    1    2    0    0 -.19662998E+02 0.47185827E+01 0.11380950E+04 0.11411118E+04 0.80419002E+02 0.0000E+00 0.9000E+01
#aMCatNLO 1  0  0  1  1 0.54285312D+02 0.00000000D+00  -5  5  0 0.00000000D+00 0.00000000D+00 0.00000000D+00 0.00000000D+00 0.00000000D+00
  <mgrwgt>
 0.2080131736D+00    7    2    0
 0.106878037618913D+03 0.000000000000000D+00 0.000000000000000D+00 0.106878037618913D+03
 0.106878037618913D+03 0.000000000000000D+00 0.000000000000000D+00 -.106878037618913D+03
 0.128299145850435D+03 0.196629978912081D+02 -.471858265512425D+01 0.206584684235832D+02
 0.854569293873915D+02 -.196629978912081D+02 0.471858265512425D+01 -.206584684235832D+02
 0.000000000000000D+00 -.000000000000000D+00 -.000000000000000D+00 0.000000000000000D+00
 0.139120401219886D+03 0.000000000000000D+00 0.000000000000000D+00 0.139120401219886D+03
 0.135807414268142D+03 0.000000000000000D+00 0.000000000000000D+00 -.135807414268142D+03
 0.134523587713625D+03 0.400084826265342D+02 0.210747396581680D+02 0.206584684235832D+02
 0.860179157575587D+02 -.638888420599041D+01 0.215470582191209D+02 -.206584684235832D+02
 0.543863120168442D+02 -.336195984205438D+02 -.426217978772889D+02 0.331298695174409D+01
0.993711366962D-03 0.000000000000D+00 0.000000000000D+00 0.300635991154D-02 0.000000000000D+00  5 1 -2 25 -24 21 0 0.57835455D+00 0.46747250D-03 0.10977525D+05 0.10977525D+05 0.10977525D+05 0.12635824D+01  1  2  2  1  5  1        1 0.113342386742D+00 0.100000000000D+01
-.551796439893D-04 0.000000000000D+00 -.381611329935D-05 0.300635991154D-02 0.000000000000D+00  5 1 -2 25 -24 21 2 0.57835455D+00 0.46747250D-03 0.10977525D+05 0.10977525D+05 0.10977525D+05 0.12635824D+01  1  2  3  1  5  1        1 -.100488908973D-01 0.100000000000D+01
0.686451781481D-04 0.000000000000D+00 0.000000000000D+00 0.300635991154D-02 0.000000000000D+00  5 1 -2 25 -24 21 2 0.57835455D+00 0.46747250D-03 0.10977525D+05 0.10977525D+05 0.10977525D+05 0.12635824D+01  1  2 15  1  5  1        1 0.125011300539D-01 0.100000000000D+01
-.273369344911D-03 0.000000000000D+00 0.000000000000D+00 0.300635991154D-02 0.000000000000D+00  5 1 -2 25 -24 21 2 0.57835455D+00 0.46747250D-03 0.10977525D+05 0.10977525D+05 0.10977525D+05 0.12635824D+01  1  2  4  1  5  1        1 -.497839152826D-01 0.100000000000D+01
-.716153243723D-03 0.000000000000D+00 -.265362184701D-03 0.300635991154D-02 0.000000000000D+00  5 1 -2 25 -24 21 2 0.77812500D+00 0.46747250D-03 0.10977525D+05 0.10977525D+05 0.10977525D+05 0.12635824D+01  1  2  5  1  5  1        1 -.756457932072D-02 0.100000000000D+01
0.821376122465D-03 0.000000000000D+00 0.280465855593D-03 0.300635991154D-02 0.000000000000D+00  5 1 -2 25 -24 21 2 0.57835455D+00 0.46747250D-03 0.10977525D+05 0.10977525D+05 0.10977525D+05 0.12635824D+01  1  2  6  1  5  1        1 0.149582680199D+00 0.100000000000D+01
-.216142105778D-04 0.000000000000D+00 -.101759613682D-04 0.300635991154D-02 0.000000000000D+00  5 21 -2 25 -24 -1 2 0.77812500D+00 0.46747250D-03 0.10977525D+05 0.10977525D+05 0.10977525D+05 0.12635824D+01  1  2  5  3  5  1        1 -.156378940176D-04 0.100000000000D+01
  </mgrwgt>
  </event>
  <event>
  4     66 0.47139866E-03 0.10434544E+03 0.75467711E-02 0.12267792E+00
        1 -1    0    0  501    0 0.00000000E+00 0.00000000E+00 0.47405816E+03 0.47405827E+03 0.32000000E+00 0.0000E+00 0.9000E+01
       -2 -1    0    0    0  501 0.00000000E+00 0.00000000E+00 -.23641837E+02 0.23644002E+02 0.32000000E+00 0.0000E+00 0.9000E+01
       25  1    1    2    0    0 0.29364117E+01 0.17738320E+02 0.31235869E+03 0.33692168E+03 0.12500000E+03 0.0000E+00 0.9000E+01
      -24  1    1    2    0    0 -.29364117E+01 -.17738320E+02 0.13805764E+03 0.16078059E+03 0.80419002E+02 0.0000E+00 0.9000E+01
#aMCatNLO 1  0  0  2  2 0.46993593D+02 0.00000000D+00  -5  5  0 0.00000000D+00 0.00000000D+00 0.00000000D+00 0.00000000D+00 0.00000000D+00
  <mgrwgt>
 0.2204037904D+00    4    2    0
 0.105868651000256D+03 0.000000000000000D+00 0.000000000000000D+00 0.105868651000256D+03
 0.105868651000256D+03 0.000000000000000D+00 0.000000000000000D+00 -.105868651000256D+03
 0.127493995139210D+03 0.293641168693635D+01 0.177383196377005D+02 0.175056647800822D+02
 0.842433068613024D+02 -.293641168693635D+01 -.177383196377005D+02 -.175056647800822D+02
 0.000000000000000D+00 -.000000000000000D+00 0.000000000000000D+00 0.000000000000000D+00
 0.194316830062824D+03 0.000000000000000D+00 0.000000000000000D+00 0.194316830062824D+03
 0.114874108429817D+03 0.000000000000000D+00 0.000000000000000D+00 -.114874108429817D+03
 0.130292852591525D+03 0.303882404761177D+02 0.110151703486532D+02 0.175056647800822D+02
 0.865967110836232D+02 0.152564129829376D+02 -.221938725695047D+02 -.175056647800822D+02
 0.923013748174926D+02 -.456446534590553D+02 0.111787022208515D+02 0.794427216330077D+02
0.186817885964D-03 0.000000000000D+00 0.000000000000D+00 0.306362093357D-02 0.000000000000D+00  5 1 -2 25 -24 21 0 0.72932199D-01 0.36373805D-02 0.10887970D+05 0.10887970D+05 0.10887970D+05 0.12640043D+01  1  2  2  2  5  2       -2 0.234028083906D+00 0.100000000000D+01
-.103761210999D-04 0.000000000000D+00 -.717429872380D-06 0.306362093357D-02 0.000000000000D+00  5 1 -2 25 -24 21 2 0.72932199D-01 0.36373805D-02 0.10887970D+05 0.10887970D+05 0.10887970D+05 0.12640043D+01  1  2  3  2  5  2       -2 -.207673760772D-01 0.100000000000D+01
0.129213284193D-04 0.000000000000D+00 0.000000000000D+00 0.306362093357D-02 0.000000000000D+00  5 1 -2 25 -24 21 2 0.72932199D-01 0.36373805D-02 0.10887970D+05 0.10887970D+05 0.10887970D+05 0.12640043D+01  1  2 15  2  5  2       -2 0.258615029755D-01 0.100000000000D+01
-.935238981701D-05 0.000000000000D+00 0.000000000000D+00 0.306362093357D-02 0.000000000000D+00  5 1 -2 25 -24 21 2 0.72932199D-01 0.36373805D-02 0.10887970D+05 0.10887970D+05 0.10887970D+05 0.12640043D+01  1  2  4  2  5  2       -2 -.187184203692D-01 0.100000000000D+01
  </mgrwgt>
  </event>
  <event>
  4     66 0.47139866E-03 0.88186918E+02 0.75467711E-02 0.11747515E+00
        3 -1    0    0  501    0 0.00000000E+00 0.00000000E+00 0.44234175E+02 0.44237001E+02 0.50000000E+00 0.0000E+00 0.9000E+01
       -4 -1    0    0    0  501 0.00000000E+00 0.00000000E+00 -.55941846E+03 0.55942060E+03 0.15500000E+01 0.0000E+00 0.9000E+01
       25  1    1    2    0    0 -.11333474E+03 0.17937979E+02 -.22901574E+03 0.28502586E+03 0.12500000E+03 0.0000E+00 0.9000E+01
      -24  1    1    2    0    0 0.11333474E+03 -.17937979E+02 -.28616854E+03 0.31863174E+03 0.80419002E+02 0.0000E+00 0.9000E+01
#aMCatNLO 1  0  0  2  1 0.34280520D+02 0.00000000D+00  -5  5  0 0.00000000D+00 0.00000000D+00 0.00000000D+00 0.00000000D+00 0.00000000D+00
  <mgrwgt>
 0.5865368296D-01    9    2    0
 0.157311522558212D+03 0.000000000000000D+00 0.000000000000000D+00 0.157311522558212D+03
 0.157311522558212D+03 0.000000000000000D+00 0.000000000000000D+00 -.157311522558212D+03
 0.171865103721094D+03 -.113334743156802D+03 0.179379791537725D+02 0.273144425995262D+02
 0.142757941395331D+03 0.113334743156802D+03 -.179379791537725D+02 -.273144425995262D+02
 0.000000000000000D+00 -.000000000000000D+00 0.000000000000000D+00 -.000000000000000D+00
 0.167425323298852D+03 0.000000000000000D+00 0.000000000000000D+00 0.167425323298852D+03
 0.190235975847467D+03 0.000000000000000D+00 0.000000000000000D+00 -.190235975847467D+03
 0.164760485459119D+03 -.103775780676462D+03 0.235077416880039D+01 0.273144425995262D+02
 0.151724608253879D+03 0.121696994077972D+03 -.315737811053053D+02 -.273144425995262D+02
 0.411762054333216D+02 -.179212134015097D+02 0.292230069365049D+02 -.228106525486151D+02
0.138854977845D-02 0.000000000000D+00 0.000000000000D+00 0.228992837579D-02 0.000000000000D+00  5 3 -4 25 -24 21 0 0.68056403D-02 0.86064760D-01 0.23994192D+05 0.23994192D+05 0.23994192D+05 0.12252143D+01  1  2  2  2  5  2       -4 0.466091848795D-01 0.100000000000D+01
-.771192815993D-04 0.000000000000D+00 -.533239676279D-05 0.228992837579D-02 0.000000000000D+00  5 3 -4 25 -24 21 2 0.68056403D-02 0.86064760D-01 0.23994192D+05 0.23994192D+05 0.23994192D+05 0.12252143D+01  1  2  3  2  5  2       -4 -.388594934331D-02 0.100000000000D+01
0.958442926052D-04 0.000000000000D+00 0.000000000000D+00 0.228992837579D-02 0.000000000000D+00  5 3 -4 25 -24 21 2 0.68056403D-02 0.86064760D-01 0.23994192D+05 0.23994192D+05 0.23994192D+05 0.12252143D+01  1  2 15  2  5  2       -4 0.482948049029D-02 0.100000000000D+01
0.162758367934D-02 0.000000000000D+00 0.000000000000D+00 0.228992837579D-02 0.000000000000D+00  5 3 -4 25 -24 21 2 0.68056403D-02 0.10641868D+00 0.29930176D+05 0.29930176D+05 0.29930176D+05 0.12150046D+01  1  2 12  2  5  2       -4 0.502765668960D-01 0.100000000000D+01
-.165213148341D-02 0.000000000000D+00 0.000000000000D+00 0.228992837579D-02 0.000000000000D+00  5 3 -4 25 -24 21 2 0.68056403D-02 0.86064760D-01 0.23994192D+05 0.23994192D+05 0.23994192D+05 0.12252143D+01  1  2  4  2  5  2       -4 -.832489504556D-01 0.100000000000D+01
-.312641763901D-02 0.000000000000D+00 -.746799239383D-03 0.228992837579D-02 0.000000000000D+00  5 3 -4 25 -24 21 2 0.68056403D-02 0.10870881D+00 0.23994192D+05 0.23994192D+05 0.23994192D+05 0.12252143D+01  1  2  5  2  5  2       -4 -.919874867744D-01 0.100000000000D+01
0.323219800825D-02 0.000000000000D+00 0.726880979551D-03 0.228992837579D-02 0.000000000000D+00  5 3 -4 25 -24 21 2 0.68056403D-02 0.86064760D-01 0.23994192D+05 0.23994192D+05 0.23994192D+05 0.12252143D+01  1  2  6  2  5  2       -4 0.162866632924D+00 0.100000000000D+01
0.487421469969D-04 0.000000000000D+00 0.000000000000D+00 0.228992837579D-02 0.000000000000D+00  5 3 21 25 -24 4 2 0.68056403D-02 0.10641868D+00 0.29930176D+05 0.29930176D+05 0.29930176D+05 0.12150046D+01  1  2 12  4  5  2       -4 0.347715894006D-01 0.100000000000D+01
-.894205852450D-04 0.000000000000D+00 -.240316340325D-04 0.228992837579D-02 0.000000000000D+00  5 3 21 25 -24 4 2 0.68056403D-02 0.10870881D+00 0.23994192D+05 0.23994192D+05 0.23994192D+05 0.12252143D+01  1  2  5  4  5  2       -4 -.615773850594D-01 0.100000000000D+01
  </mgrwgt>
  </event>
  <event>
  4     66 0.47139866E-03 0.55273012E+02 0.75467711E-02 0.12531193E+00
        1 -1    0    0  501    0 0.00000000E+00 0.00000000E+00 0.76616102E+01 0.76682900E+01 0.32000000E+00 0.0000E+00 0.9000E+01
       -2 -1    0    0    0  501 0.00000000E+00 0.00000000E+00 -.16910570E+04 0.16910571E+04 0.32000000E+00 0.0000E+00 0.9000E+01
       25  1    1    2    0    0 -.54978352E+01 0.42013502E+02 -.11612761E+04 0.11687526E+04 0.12500000E+03 0.0000E+00 0.9000E+01
      -24  1    1    2    0    0 0.54978352E+01 -.42013502E+02 -.52211928E+03 0.52997275E+03 0.80419002E+02 0.0000E+00 0.9000E+01
#aMCatNLO 1  0  0  2  1 0.53141562D+01 0.00000000D+00  -5  5  0 0.00000000D+00 0.00000000D+00 0.00000000D+00 0.00000000D+00 0.00000000D+00
  <mgrwgt>
 0.1584886714D+00    8    2    0
 0.113850424295309D+03 0.000000000000000D+00 0.000000000000000D+00 0.113850424295309D+03
 0.113850424295309D+03 0.000000000000000D+00 0.000000000000000D+00 -.113850424295309D+03
 0.133959668732281D+03 -.549783518407878D+01 0.420135021403837D+02 -.229092185168132D+02
 0.937411798583363D+02 0.549783518407878D+01 -.420135021403837D+02 0.229092185168132D+02
 0.000000000000000D+00 -.000000000000000D+00 -.000000000000000D+00 0.000000000000000D+00
 0.117064827356170D+03 0.000000000000000D+00 0.000000000000000D+00 0.117064827356170D+03
 0.116099199720944D+03 0.000000000000000D+00 0.000000000000000D+00 -.116099199720944D+03
 0.134949885489371D+03 -.506845145152507D+01 0.451215037474023D+02 -.229092185168132D+02
 0.928129664102637D+02 0.579571718340021D+01 -.398573474880247D+02 0.229092185168132D+02
 0.540117517747915D+01 -.727265731875138D+00 -.526415625937764D+01 0.965627635226032D+00
0.164119822190D-02 0.000000000000D+00 0.000000000000D+00 0.281347751816D-02 0.000000000000D+00  5 1 -2 25 -24 21 0 0.11792254D-02 0.26016314D+00 0.12419423D+05 0.12419423D+05 0.12419423D+05 0.12572792D+01  1  2  2  2  5  2       -2 0.111381601808D+00 0.100000000000D+01
-.911270188333D-04 0.000000000000D+00 -.630263330952D-05 0.281347751816D-02 0.000000000000D+00  5 1 -2 25 -24 21 2 0.11792254D-02 0.26016314D+00 0.12419423D+05 0.12419423D+05 0.12419423D+05 0.12572792D+01  1  2  3  2  5  2       -2 -.977604220401D-02 0.100000000000D+01
0.113824968695D-03 0.000000000000D+00 0.000000000000D+00 0.281347751816D-02 0.000000000000D+00  5 1 -2 25 -24 21 2 0.11792254D-02 0.26016314D+00 0.12419423D+05 0.12419423D+05 0.12419423D+05 0.12572792D+01  1  2 15  2  5  2       -2 0.122110622302D-01 0.100000000000D+01
0.106841532567D-02 0.000000000000D+00 0.000000000000D+00 0.281347751816D-02 0.000000000000D+00  5 1 -2 25 -24 21 2 0.11792254D-02 0.26888828D+00 0.13024111D+05 0.13024111D+05 0.13024111D+05 0.12548770D+01  1  2 12  2  5  2       -2 0.101975798408D+00 0.100000000000D+01
-.214501079877D-02 0.000000000000D+00 0.000000000000D+00 0.281347751816D-02 0.000000000000D+00  5 1 -2 25 -24 21 2 0.11792254D-02 0.26016314D+00 0.12419423D+05 0.12419423D+05 0.12419423D+05 0.12572792D+01  1  2  4  2  5  2       -2 -.230115243155D+00 0.100000000000D+01
0.145501744424D-02 0.000000000000D+00 0.000000000000D+00 0.281347751816D-02 0.837140138898D-03  5 1 -2 25 -24 21 2 0.12125192D-02 0.26530188D+00 0.13024111D+05 0.13024111D+05 0.13024111D+05 0.12548770D+01  1  2 11  2  5  2       -2 0.140011042509D+00 0.100000000000D+01
0.147614811763D-04 0.000000000000D+00 0.000000000000D+00 0.281347751816D-02 0.000000000000D+00  5 1 21 25 -24 2 2 0.11792254D-02 0.26888828D+00 0.13024111D+05 0.13024111D+05 0.13024111D+05 0.12548770D+01  1  2 12  4  5  2       -2 0.166754471536D-01 0.100000000000D+01
0.141663588179D-04 0.000000000000D+00 0.000000000000D+00 0.281347751816D-02 0.302040967643D-05  5 1 21 25 -24 2 2 0.12125192D-02 0.26530188D+00 0.13024111D+05 0.13024111D+05 0.13024111D+05 0.12548770D+01  1  2 11  4  5  2       -2 0.161250046688D-01 0.100000000000D+01
  </mgrwgt>
  </event>
  <event>
  4     66 0.47139866E-03 0.10380763E+03 0.75467711E-02 0.99300111E-01
        1 -1    0    0  501    0 0.00000000E+00 0.00000000E+00 0.24762157E+03 0.24762177E+03 0.32000000E+00 0.0000E+00 0.9000E+01
       -2 -1    0    0    0  501 0.00000000E+00 0.00000000E+00 -.54113922E+02 0.54114868E+02 0.32000000E+00 0.0000E+00 0.9000E+01
       25  1    1    2    0    0 -.10649752E+02 -.10144423E+02 0.47746689E+02 0.13461453E+03 0.12500000E+03 0.0000E+00 0.9000E+01
      -24  1    1    2    0    0 0.10649752E+02 0.10144423E+02 0.14576096E+03 0.16712211E+03 0.80419002E+02 0.0000E+00 0.9000E+01
#aMCatNLO 1  0  0  1  1 0.56993138D+03 0.00000000D+00  -5  5  0 0.00000000D+00 0.00000000D+00 0.00000000D+00 0.00000000D+00 0.00000000D+00
  <mgrwgt>
 0.2411387391D+00    5    2    0
 0.115758144806275D+03 0.000000000000000D+00 0.000000000000000D+00 0.115758144806275D+03
 0.115758144806275D+03 0.000000000000000D+00 0.000000000000000D+00 -.115758144806275D+03
 0.135535984328831D+03 -.106497520310206D+02 -.101444228425314D+02 -.502859474888855D+02
 0.959803052837184D+02 0.106497520310206D+02 0.101444228425314D+02 0.502859474888855D+02
 0.000000000000000D+00 0.000000000000000D+00 -.000000000000000D+00 0.000000000000000D+00
 0.108390483351810D+04 0.000000000000000D+00 0.000000000000000D+00 0.108390483351810D+04
 0.412182288597169D+03 0.000000000000000D+00 0.000000000000000D+00 -.412182288597169D+03
 0.358546999949702D+03 -.229283586249921D+03 0.240481416609374D+03 -.502859474888855D+02
 0.256612794139562D+03 -.145374202848955D+03 0.188998875110193D+03 0.502859474888855D+02
 0.880927328026001D+03 0.374657789098877D+03 -.429480291719567D+03 0.671722544920927D+03
0.289271595423D-03 0.000000000000D+00 0.000000000000D+00 0.240728375319D-02 0.000000000000D+00  5 1 -2 25 -24 21 0 0.38095714D-01 0.83253074D-02 0.10776025D+05 0.10776025D+05 0.10776025D+05 0.12645371D+01  1  2  2  1  5  1        1 0.233927796100D+00 0.100000000000D+01
-.158386499289D-04 0.000000000000D+00 -.111087909339D-05 0.240728375319D-02 0.000000000000D+00  5 1 -2 25 -24 21 2 0.38095714D-01 0.83253074D-02 0.10776025D+05 0.10776025D+05 0.10776025D+05 0.12645371D+01  1  2  3  1  5  1        1 -.204812919988D-01 0.100000000000D+01
0.198638674181D-04 0.000000000000D+00 0.000000000000D+00 0.240728375319D-02 0.000000000000D+00  5 1 -2 25 -24 21 2 0.38095714D-01 0.83253074D-02 0.10776025D+05 0.10776025D+05 0.10776025D+05 0.12645371D+01  1  2 15  1  5  1        1 0.256863855596D-01 0.100000000000D+01
0.921213281731D-03 0.000000000000D+00 -.367606813329D-03 0.240728375319D-02 0.000000000000D+00  5 1 -2 25 -24 21 2 0.60328641D+00 0.83253074D-02 0.10776025D+05 0.10776025D+05 0.10776025D+05 0.12645371D+01  1  2  5  1  5  1        1 0.191793894116D-02 0.100000000000D+01
0.200286314547D-03 0.000000000000D+00 -.113414739786D-03 0.240728375319D-02 0.000000000000D+00  5 21 -2 25 -24 -1 2 0.60328641D+00 0.83253074D-02 0.10776025D+05 0.10776025D+05 0.10776025D+05 0.12645371D+01  1  2  5  3  5  1        1 0.879104837158D-04 0.100000000000D+01
  </mgrwgt>
  </event>
  <event>
  4     66 0.47139866E-03 0.16428903E+03 0.75467711E-02 0.10108514E+00
        3 -1    0    0  501    0 0.00000000E+00 0.00000000E+00 0.24123630E+03 0.24123682E+03 0.50000000E+00 0.0000E+00 0.9000E+01
       -4 -1    0    0    0  501 0.00000000E+00 0.00000000E+00 -.23453893E+03 0.23454405E+03 0.15500000E+01 0.0000E+00 0.9000E+01
       25  1    1    2    0    0 -.11374432E+03 0.56579187E+02 0.17522249E+03 0.24993378E+03 0.12500000E+03 0.0000E+00 0.9000E+01
      -24  1    1    2    0    0 0.11374432E+03 -.56579187E+02 -.16852511E+03 0.22584708E+03 0.80419002E+02 0.0000E+00 0.9000E+01
#aMCatNLO 1  0  0  2  1 0.45868027D+03 0.00000000D+00  -5  5  0 0.00000000D+00 0.00000000D+00 0.00000000D+00 0.00000000D+00 0.00000000D+00
  <mgrwgt>
 0.2289858621D-01    5    2    0
 0.237866862135268D+03 0.000000000000000D+00 0.000000000000000D+00 0.237866862135268D+03
 0.237866862135268D+03 0.000000000000000D+00 0.000000000000000D+00 -.237866862135268D+03
 0.247491767390484D+03 -.113744322571902D+03 0.565791873533892D+02 0.171721284548988D+03
 0.228241956880053D+03 0.113744322571902D+03 -.565791873533892D+02 -.171721284548988D+03
 0.000000000000000D+00 -.000000000000000D+00 -.000000000000000D+00 -.000000000000000D+00
 0.539523450842403D+03 0.000000000000000D+00 0.000000000000000D+00 0.539523450842403D+03
 0.581955843939681D+03 0.000000000000000D+00 0.000000000000000D+00 -.581955843939681D+03
 0.350135117694302D+03 -.176605462873048D+02 0.277793999540094D+03 0.171721284548988D+03
 0.310705382859607D+03 0.200393864138924D+03 0.142915074893730D+03 -.171721284548988D+03
 0.460638794228176D+03 -.182733317851619D+03 -.420709074433824D+03 -.424323930972778D+02
0.174989703512D-02 0.000000000000D+00 0.000000000000D+00 0.103278634475D-02 0.000000000000D+00  5 3 -4 25 -24 21 0 0.37113711D-01 0.36083345D-01 0.26990886D+05 0.26990886D+05 0.26990886D+05 0.12197459D+01  1  2  2  2  5  2       -4 0.190402514013D-01 0.100000000000D+01
-.810274371565D-04 0.000000000000D+00 -.672006537333D-05 0.103278634475D-02 0.000000000000D+00  5 3 -4 25 -24 21 2 0.37113711D-01 0.36083345D-01 0.26990886D+05 0.26990886D+05 0.26990886D+05 0.12197459D+01  1  2  3  2  5  2       -4 -.131168948323D-02 0.100000000000D+01
0.119698138145D-03 0.000000000000D+00 0.000000000000D+00 0.103278634475D-02 0.000000000000D+00  5 3 -4 25 -24 21 2 0.37113711D-01 0.36083345D-01 0.26990886D+05 0.26990886D+05 0.26990886D+05 0.12197459D+01  1  2 15  2  5  2       -4 0.193769906192D-02 0.100000000000D+01
0.131962964497D-02 0.000000000000D+00 -.635967156464D-03 0.103278634475D-02 0.000000000000D+00  5 3 -4 25 -24 21 2 0.37113711D-01 0.17294754D+00 0.26990886D+05 0.26990886D+05 0.26990886D+05 0.12197459D+01  1  2  5  2  5  2       -4 0.633917282682D-03 0.100000000000D+01
0.238380621308D-03 0.000000000000D+00 -.121135527938D-03 0.103278634475D-02 0.000000000000D+00  5 3 21 25 -24 4 2 0.37113711D-01 0.17294754D+00 0.26990886D+05 0.26990886D+05 0.26990886D+05 0.12197459D+01  1  2  5  4  5  2       -4 0.259840795024D-02 0.100000000000D+01
  </mgrwgt>
  </event>
  <event>
  5     66 0.47139866E-03 0.14392317E+03 0.75467711E-02 0.12015341E+00
        3 -1    0    0  501    0 0.00000000E+00 0.00000000E+00 0.78972990E+03 0.78973006E+03 0.50000000E+00 0.0000E+00 0.9000E+01
       21 -1    0    0  502  501 0.00000000E+00 0.00000000E+00 -.29860617E+02 0.29870034E+02 0.75000000E+00 0.0000E+00 0.9000E+01
       25  1    1    2    0    0 0.43203235E+02 0.88492164E+02 0.37072278E+03 0.40343248E+03 0.12500000E+03 0.0000E+00 0.9000E+01
      -24  1    1    2    0    0 -.53048032E+02 -.85636267E+02 0.30133624E+03 0.32774748E+03 0.80419002E+02 0.0000E+00 0.9000E+01
        4  1    1    2  502    0 0.98447962E+01 -.28558972E+01 0.87810261E+02 0.88420137E+02 0.15500000E+01 0.0000E+00 0.9000E+01
#aMCatNLO 2  0  0  2  1 0.10250666D+02 0.00000000D+00  -5  5  0 0.00000000D+00 0.00000000D+00 0.00000000D+00 0.00000000D+00 0.00000000D+00
  <mgrwgt>
 0.6982564058D-02    1    2    0
 0.143923349167781D+03 0.000000000000000D+00 0.000000000000000D+00 0.143923349167781D+03
 0.143923349167781D+03 0.000000000000000D+00 0.000000000000000D+00 -.143923349167781D+03
 0.159830747269936D+03 0.486559834860852D+02 0.869103649543890D+02 -.226952335966153D+00
 0.128015951065625D+03 -.486559834860852D+02 -.869103649543890D+02 0.226952335966153D+00
 0.000000000000000D+00 0.000000000000000D+00 -.000000000000000D+00 0.000000000000000D+00
 0.162067173354412D+03 0.000000000000000D+00 0.000000000000000D+00 0.162067173354412D+03
 0.145469720270151D+03 0.000000000000000D+00 0.000000000000000D+00 -.145469720270151D+03
 0.159130242648968D+03 0.432032354705848D+02 0.884921638509857D+02 -.226952335966153D+00
 0.128898918903140D+03 -.530480317040535D+02 -.856362666455669D+02 0.226952335966153D+00
 0.195077320724555D+02 0.984479623346873D+01 -.285589720541875D+01 0.165974530842618D+02
0.529448583741D-05 0.000000000000D+00 0.000000000000D+00 0.246213258773D-02 0.400674888860D-06  5 3 21 25 -24 4 2 0.12147220D+00 0.45937152D-02 0.22242660D+05 0.22242660D+05 0.22242660D+05 0.12287767D+01  1  2  1  4  5  2       -4 0.698256405841D-02 0.100000000000D+01
  </mgrwgt>
  </event>
  <event>
  4     66 0.47139866E-03 0.68549969E+02 0.75467711E-02 0.11997201E+00
        1 -1    0    0  501    0 0.00000000E+00 0.00000000E+00 0.16688549E+03 0.16688580E+03 0.32000000E+00 0.0000E+00 0.9000E+01
       -2 -1    0    0    0  501 0.00000000E+00 0.00000000E+00 -.74231983E+02 0.74232673E+02 0.32000000E+00 0.0000E+00 0.9000E+01
       25  1    1    2    0    0 0.38601768E+02 -.13349592E+02 0.65558831E+02 0.14693968E+03 0.12500000E+03 0.0000E+00 0.9000E+01
      -24  1    1    2    0    0 -.38601768E+02 0.13349592E+02 0.27094678E+02 0.94178796E+02 0.80419002E+02 0.0000E+00 0.9000E+01
#aMCatNLO 1  0  0  1  2 0.69014405D+02 0.00000000D+00  -5  5  0 0.00000000D+00 0.00000000D+00 0.00000000D+00 0.00000000D+00 0.00000000D+00
  <mgrwgt>
 0.1703459288D+00    9    2    0
 0.111303015244045D+03 0.000000000000000D+00 0.000000000000000D+00 0.111303015244045D+03
 0.111303015244045D+03 0.000000000000000D+00 0.000000000000000D+00 -.111303015244045D+03
 0.131872503019264D+03 0.386017675888613D+02 -.133495920656612D+02 0.985134423628031D+01
 0.907335274688263D+02 -.386017675888613D+02 0.133495920656612D+02 -.985134423628031D+01
 0.000000000000000D+00 0.000000000000000D+00 0.000000000000000D+00 0.000000000000000D+00
 0.169325647242692D+03 0.000000000000000D+00 0.000000000000000D+00 0.169325647242692D+03
 0.139083074099552D+03 0.000000000000000D+00 0.000000000000000D+00 -.139083074099552D+03
 0.129294661714317D+03 0.338504448893635D+01 -.313624303644645D+02 0.985134423628031D+01
 0.103764199840669D+03 -.648285431224952D+02 -.650196642802818D-01 -.985134423628031D+01
 0.753498597872587D+02 0.614434986335588D+02 0.314274500287447D+02 0.302425731431398D+02
0.193262589702D-03 0.000000000000D+00 0.000000000000D+00 0.295723562909D-02 0.000000000000D+00  5 1 -2 25 -24 21 0 0.25674768D-01 0.11420382D-01 0.12287851D+05 0.12287851D+05 0.12287851D+05 0.12578194D+01  1  2  2  1  5  1        1 0.156206603756D+00 0.100000000000D+01
-.107365939575D-04 0.000000000000D+00 -.742179231665D-06 0.295723562909D-02 0.000000000000D+00  5 1 -2 25 -24 21 2 0.25674768D-01 0.11420382D-01 0.12287851D+05 0.12287851D+05 0.12287851D+05 0.12578194D+01  1  2  3  1  5  1        1 -.137294986577D-01 0.100000000000D+01
0.133653014543D-04 0.000000000000D+00 0.000000000000D+00 0.295723562909D-02 0.000000000000D+00  5 1 -2 25 -24 21 2 0.25674768D-01 0.11420382D-01 0.12287851D+05 0.12287851D+05 0.12287851D+05 0.12578194D+01  1  2 15  1  5  1        1 0.170909777443D-01 0.100000000000D+01
0.376079037797D-04 0.000000000000D+00 0.000000000000D+00 0.295723562909D-02 0.000000000000D+00  5 1 -2 25 -24 21 2 0.40915618D-01 0.11420382D-01 0.22684685D+05 0.22684685D+05 0.22684685D+05 0.12278488D+01  1  2 12  1  5  1        1 0.262610752430D-01 0.100000000000D+01
-.102433317400D-03 0.000000000000D+00 0.000000000000D+00 0.295723562909D-02 0.000000000000D+00  5 1 -2 25 -24 21 2 0.25674768D-01 0.11420382D-01 0.12287851D+05 0.12287851D+05 0.12287851D+05 0.12578194D+01  1  2  4  1  5  1        1 -.130987359615D+00 0.100000000000D+01
-.115265291475D-03 0.000000000000D+00 -.760123999932D-04 0.295723562909D-02 0.000000000000D+00  5 1 -2 25 -24 21 2 0.47756215D-01 0.11420382D-01 0.12287851D+05 0.12287851D+05 0.12287851D+05 0.12578194D+01  1  2  5  1  5  1        1 -.685875411446D-01 0.100000000000D+01
0.146013405558D-03 0.000000000000D+00 0.634053240135D-04 0.295723562909D-02 0.000000000000D+00  5 1 -2 25 -24 21 2 0.25674768D-01 0.11420382D-01 0.12287851D+05 0.12287851D+05 0.12287851D+05 0.12578194D+01  1  2  6  1  5  1        1 0.186715718557D+00 0.100000000000D+01
0.200712115844D-05 0.000000000000D+00 0.000000000000D+00 0.295723562909D-02 0.000000000000D+00  5 21 -2 25 -24 -1 2 0.40915618D-01 0.11420382D-01 0.22684685D+05 0.22684685D+05 0.22684685D+05 0.12278488D+01  1  2 12  3  5  1        1 0.732973853904D-02 0.100000000000D+01
-.356554802747D-05 0.000000000000D+00 -.514126319257D-05 0.295723562909D-02 0.000000000000D+00  5 21 -2 25 -24 -1 2 0.47756215D-01 0.11420382D-01 0.12287851D+05 0.12287851D+05 0.12287851D+05 0.12578194D+01  1  2  5  3  5  1        1 -.995378566069D-02 0.100000000000D+01
  </mgrwgt>
  </event>
  <event>
  5     66 0.47139866E-03 0.10845579E+03 0.75467711E-02 0.12020201E+00
        1 -1    0    0  502    0 0.00000000E+00 0.00000000E+00 0.18993501E+04 0.18993501E+04 0.32000000E+00 0.0000E+00 0.9000E+01
       -2 -1    0    0    0  501 0.00000000E+00 0.00000000E+00 -.14420109E+02 0.14423659E+02 0.32000000E+00 0.0000E+00 0.9000E+01
       25  1    1    2    0    0 -.19355162E+02 -.22330104E+02 0.69344062E+03 0.70523624E+03 0.12500000E+03 0.0000E+00 0.9000E+01
      -24  1    1    2    0    0 0.37699552E+02 -.44787695E+02 0.34114676E+03 0.35535267E+03 0.80419002E+02 0.0000E+00 0.9000E+01
       21  1    1    2  502  501 -.18344391E+02 0.67117799E+02 0.85034258E+03 0.85318485E+03 0.75000000E+00 0.0000E+00 0.9000E+01
#aMCatNLO 2  0  0  1  2 0.69579563D+02 0.00000000D+00  -5  5  0 0.00000000D+00 0.00000000D+00 0.00000000D+00 0.00000000D+00 0.00000000D+00
  <mgrwgt>
 0.3989915662D-01    2    2    0
 0.111396219789180D+03 0.000000000000000D+00 0.000000000000000D+00 0.111396219789180D+03
 0.111396219789180D+03 0.000000000000000D+00 0.000000000000000D+00 -.111396219789180D+03
 0.131948497198056D+03 -.299226588940863D+02 0.163338764705102D+02 0.249648728612746D+02
 0.908439423803033D+02 0.299226588940863D+02 -.163338764705102D+02 -.249648728612746D+02
 0.000000000000000D+00 -.000000000000000D+00 0.000000000000000D+00 0.000000000000000D+00
 0.211587743879635D+03 0.000000000000000D+00 0.000000000000000D+00 0.211587743879635D+03
 0.129458082259099D+03 0.000000000000000D+00 0.000000000000000D+00 -.129458082259099D+03
 0.130849152419191D+03 -.193551617129380D+02 -.223301036026970D+02 0.249648728612746D+02
 0.102555617761550D+03 0.376995522932891D+02 -.447876954083220D+02 -.249648728612746D+02
 0.107641055957993D+03 -.183443905803512D+02 0.671177990110190D+02 0.821296616205357D+02
-.498000116507D-04 0.000000000000D+00 0.000000000000D+00 0.284852913210D-02 0.000000000000D+00  5 1 -2 25 -24 21 2 0.29475066D+00 0.19091773D-02 0.22125930D+05 0.22125930D+05 0.22125930D+05 0.12290252D+01  1  2 13  1  5  1        1 -.208877260941D-01 0.100000000000D+01
0.176053284906D-03 0.000000000000D+00 0.000000000000D+00 0.284852913210D-02 0.578182482782D-05  5 1 -2 25 -24 21 2 0.29220524D+00 0.22187326D-02 0.22125930D+05 0.22125930D+05 0.22125930D+05 0.12290252D+01  1  2  1  1  5  1        1 0.607868827174D-01 0.100000000000D+01
  </mgrwgt>
  </event>
  <event>
  5     66 0.47139866E-03 0.14489147E+03 0.75467711E-02 0.11509215E+00
        1 -1    0    0  501    0 0.00000000E+00 0.00000000E+00 0.13359569E+04 0.13359569E+04 0.32000000E+00 0.0000E+00 0.9000E+01
       21 -1    0    0  502  501 0.00000000E+00 0.00000000E+00 -.32275831E+02 0.32284544E+02 0.75000000E+00 0.0000E+00 0.9000E+01
       25  1    1    2    0    0 0.11975124E+03 -.82483289E+02 0.81135895E+03 0.83370990E+03 0.12500000E+03 0.0000E+00 0.9000E+01
      -24  1    1    2    0    0 -.27029201E+02 0.73592109E+02 0.31149002E+03 0.33111875E+03 0.80419002E+02 0.0000E+00 0.9000E+01
        2  1    1    2  502    0 -.92722037E+02 0.88911798E+01 0.18083206E+03 0.20341280E+03 0.32000000E+00 0.0000E+00 0.9000E+01
#aMCatNLO 2  0  0  2  1 0.93147352D+02 0.00000000D+00  -5  5  0 0.00000000D+00 0.00000000D+00 0.00000000D+00 0.00000000D+00 0.00000000D+00
  <mgrwgt>
 0.5688540892D-01    2    2    0
 0.147783235851435D+03 0.000000000000000D+00 0.000000000000000D+00 0.147783235851435D+03
 0.147783235851435D+03 0.000000000000000D+00 0.000000000000000D+00 -.147783235851435D+03
 0.163275155474233D+03 0.650493229383147D+02 -.772378842661007D+02 0.289252694801310D+02
 0.132291316228638D+03 -.650493229383147D+02 0.772378842661007D+02 -.289252694801310D+02
 0.000000000000000D+00 -.000000000000000D+00 0.000000000000000D+00 -.000000000000000D+00
 0.180973702902911D+03 0.000000000000000D+00 0.000000000000000D+00 0.180973702902911D+03
 0.238294294578358D+03 0.000000000000000D+00 0.000000000000000D+00 -.238294294578358D+03
 0.193921435496875D+03 0.119751238190358D+03 -.824832885046814D+02 0.289252694801310D+02
 0.115975270473897D+03 -.270292014450092D+02 0.735921086929156D+02 -.289252694801310D+02
 0.109371291510498D+03 -.927220367453486D+02 0.889117981176580D+01 -.573205916754469D+02
-.335473977670D-05 0.000000000000D+00 0.000000000000D+00 0.234293072944D-02 0.000000000000D+00  5 1 21 25 -24 2 2 0.16783776D+00 0.51395300D-02 0.39443878D+05 0.39443878D+05 0.39443878D+05 0.12026182D+01  1  2 13  4  5  2       -2 -.192034834209D-01 0.100000000000D+01
0.185347380956D-04 0.000000000000D+00 0.000000000000D+00 0.234293072944D-02 0.168940580367D-06  5 1 21 25 -24 2 2 0.20553225D+00 0.49661796D-02 0.39443878D+05 0.39443878D+05 0.39443878D+05 0.12026182D+01  1  2  1  4  5  2       -2 0.760888923436D-01 0.100000000000D+01
  </mgrwgt>
  </event>
  <event>
  4     66 0.47139866E-03 0.11866353E+03 0.75467711E-02 0.11215105E+00
        3 -1    0    0  501    0 0.00000000E+00 0.00000000E+00 0.40735901E+02 0.40738970E+02 0.50000000E+00 0.0000E+00 0.9000E+01
       -4 -1    0    0    0  501 0.00000000E+00 0.00000000E+00 -.34843241E+03 0.34843586E+03 0.15500000E+01 0.0000E+00 0.9000E+01
       25  1    1    2    0    0 -.56929455E+02 0.12892022E+02 -.16145803E+03 0.21236964E+03 0.12500000E+03 0.0000E+00 0.9000E+01
      -24  1    1    2    0    0 0.56929455E+02 -.12892022E+02 -.14623848E+03 0.17680519E+03 0.80419002E+02 0.0000E+00 0.9000E+01
#aMCatNLO 1  0  0  2  1 0.17824425D+03 0.00000000D+00  -5  5  0 0.00000000D+00 0.00000000D+00 0.00000000D+00 0.00000000D+00 0.00000000D+00
  <mgrwgt>
 0.5091456415D-01    3    2    0
 0.119142672068123D+03 0.000000000000000D+00 0.000000000000000D+00 0.119142672068123D+03
 0.119142672068123D+03 0.000000000000000D+00 0.000000000000000D+00 -.119142672068123D+03
 0.138358675634825D+03 -.569294551308244D+02 0.128920217297457D+02 0.105335671854224D+02
 0.999266685014222D+02 0.569294551308244D+02 -.128920217297457D+02 -.105335671854224D+02
 0.000000000000000D+00 0.000000000000000D+00 -.000000000000000D+00 0.000000000000000D+00
 0.264245909817098D+03 0.000000000000000D+00 0.000000000000000D+00 0.264245909817098D+03
 0.217580741887905D+03 0.000000000000000D+00 0.000000000000000D+00 -.217580741887905D+03
 0.216121463175346D+03 -.174247860469912D+03 0.247025085580489D+02 0.105335671854224D+02
 0.814535968704105D+02 -.309998280843165D+01 -.684883622920242D+01 -.105335671854224D+02
 0.184251591659246D+03 0.177347843278344D+03 -.178536723288465D+02 0.466651679291932D+02
0.493107936669D-03 0.000000000000D+00 0.000000000000D+00 0.278093306418D-02 0.000000000000D+00  5 3 -4 25 -24 21 0 0.62675629D-02 0.53605488D-01 0.14081032D+05 0.14081032D+05 0.14081032D+05 0.12509648D+01  1  2  2  2  5  2       -4 0.498421658932D-01 0.100000000000D+01
-.273943444881D-04 0.000000000000D+00 -.189366431511D-05 0.278093306418D-02 0.000000000000D+00  5 3 -4 25 -24 21 2 0.62675629D-02 0.53605488D-01 0.14081032D+05 0.14081032D+05 0.14081032D+05 0.12509648D+01  1  2  3  2  5  2       -4 -.433317300953D-02 0.100000000000D+01
0.341740523952D-04 0.000000000000D+00 0.000000000000D+00 0.278093306418D-02 0.000000000000D+00  5 3 -4 25 -24 21 2 0.62675629D-02 0.53605488D-01 0.14081032D+05 0.14081032D+05 0.14081032D+05 0.12509648D+01  1  2 15  2  5  2       -4 0.540557126780D-02 0.100000000000D+01
  </mgrwgt>
  </event>
  <event>
  4     66 0.47139866E-03 0.88972942E+02 0.75467711E-02 0.11649161E+00
        1 -1    0    0  501    0 0.00000000E+00 0.00000000E+00 0.23392193E+02 0.23394382E+02 0.32000000E+00 0.0000E+00 0.9000E+01
       -2 -1    0    0    0  501 0.00000000E+00 0.00000000E+00 -.77360766E+03 0.77360773E+03 0.32000000E+00 0.0000E+00 0.9000E+01
       25  1    1    2    0    0 -.62370608E+02 -.52538748E+02 -.50039592E+03 0.52217955E+03 0.12500000E+03 0.0000E+00 0.9000E+01
      -24  1    1    2    0    0 0.62370608E+02 0.52538748E+02 -.24981955E+03 0.27482256E+03 0.80419002E+02 0.0000E+00 0.9000E+01
#aMCatNLO 1  0  0  2  1 0.88215190D+02 0.00000000D+00  -5  5  0 0.00000000D+00 0.00000000D+00 0.00000000D+00 0.00000000D+00 0.00000000D+00
  <mgrwgt>
 0.2663706002D+00    8    2    0
 0.134526124920341D+03 0.000000000000000D+00 0.000000000000000D+00 0.134526124920341D+03
 0.134526124920341D+03 0.000000000000000D+00 0.000000000000000D+00 -.134526124920341D+03
 0.151544722703954D+03 -.623706077595347D+02 -.525387480538122D+02 -.262752777352148D+02
 0.117507527136728D+03 0.623706077595347D+02 0.525387480538122D+02 0.262752777352148D+02
 0.000000000000000D+00 0.000000000000000D+00 0.000000000000000D+00 -.000000000000000D+00
 0.163222751678835D+03 0.000000000000000D+00 0.000000000000000D+00 0.163222751678835D+03
 0.231431697134374D+03 0.000000000000000D+00 0.000000000000000D+00 -.231431697134374D+03
 0.179923107447883D+03 -.713388803624560D+02 -.104726780349015D+03 -.262752777352148D+02
 0.103221789998861D+03 0.563985027542863D+02 0.177859675927539D+02 0.262752777352148D+02
 0.111509551366466D+03 0.149403776081698D+02 0.869408127562609D+02 -.682089454555386D+02
0.116295004828D-02 0.000000000000D+00 0.000000000000D+00 0.247509755251D-02 0.000000000000D+00  5 1 -2 25 -24 21 0 0.35989724D-02 0.11901674D+00 0.17395198D+05 0.17395198D+05 0.17395198D+05 0.12405540D+01  1  2  2  2  5  2       -2 0.146834220620D+00 0.100000000000D+01
-.645775903493D-04 0.000000000000D+00 -.446603439716D-05 0.247509755251D-02 0.000000000000D+00  5 1 -2 25 -24 21 2 0.35989724D-02 0.11901674D+00 0.17395198D+05 0.17395198D+05 0.17395198D+05 0.12405540D+01  1  2  3  2  5  2       -2 -.125481405375D-01 0.100000000000D+01
0.803722284449D-04 0.000000000000D+00 0.000000000000D+00 0.247509755251D-02 0.000000000000D+00  5 1 -2 25 -24 21 2 0.35989724D-02 0.11901674D+00 0.17395198D+05 0.17395198D+05 0.17395198D+05 0.12405540D+01  1  2 15  2  5  2       -2 0.156172135316D-01 0.100000000000D+01
0.154380926789D-03 0.000000000000D+00 0.000000000000D+00 0.247509755251D-02 0.000000000000D+00  5 1 -2 25 -24 21 2 0.35989724D-02 0.20983587D+00 0.33494667D+05 0.33494667D+05 0.33494667D+05 0.12099078D+01  1  2 12  2  5  2       -2 0.650240800967D-02 0.100000000000D+01
-.588111909245D-03 0.000000000000D+00 -.312020102359D-03 0.247509755251D-02 0.000000000000D+00  5 1 -2 25 -24 21 2 0.35989724D-02 0.22754624D+00 0.17395198D+05 0.17395198D+05 0.17395198D+05 0.12405540D+01  1  2  5  2  5  2       -2 -.202615717057D-01 0.100000000000D+01
0.694937883470D-03 0.000000000000D+00 0.256286862487D-03 0.247509755251D-02 0.000000000000D+00  5 1 -2 25 -24 21 2 0.35989724D-02 0.11901674D+00 0.17395198D+05 0.17395198D+05 0.17395198D+05 0.12405540D+01  1  2  6  2  5  2       -2 0.135034122201D+00 0.100000000000D+01
0.965007583174D-05 0.000000000000D+00 0.000000000000D+00 0.247509755251D-02 0.000000000000D+00  5 1 21 25 -24 2 2 0.35989724D-02 0.20983587D+00 0.33494667D+05 0.33494667D+05 0.33494667D+05 0.12099078D+01  1  2 12  4  5  2       -2 0.456291328247D-02 0.100000000000D+01
-.234430050715D-04 0.000000000000D+00 -.219562884839D-04 0.247509755251D-02 0.000000000000D+00  5 1 21 25 -24 2 2 0.35989724D-02 0.22754624D+00 0.17395198D+05 0.17395198D+05 0.17395198D+05 0.12405540D+01  1  2  5  4  5  2       -2 -.937056521879D-02 0.100000000000D+01
  </mgrwgt>
  </event>
  <event>
  4     66 0.47139866E-03 0.10825690E+03 0.75467711E-02 0.11603691E+00
        1 -1    0    0  501    0 0.00000000E+00 0.00000000E+00 0.39665165E+02 0.39666456E+02 0.32000000E+00 0.0000E+00 0.9000E+01
       -2 -1    0    0    0  501 0.00000000E+00 0.00000000E+00 -.47960907E+03 0.47960917E+03 0.32000000E+00 0.0000E+00 0.9000E+01
       25  1    1    2    0    0 -.32047031E+02 -.96791097E+01 -.40542600E+03 0.42557718E+03 0.12500000E+03 0.0000E+00 0.9000E+01
      -24  1    1    2    0    0 0.32047031E+02 0.96791097E+01 -.34517901E+02 0.93698446E+02 0.80419002E+02 0.0000E+00 0.9000E+01
#aMCatNLO 1  0  0  2  1 0.12489971D+03 0.00000000D+00  -5  5  0 0.00000000D+00 0.00000000D+00 0.00000000D+00 0.00000000D+00 0.00000000D+00
  <mgrwgt>
 0.1844709674D+00    3    2    0
 0.137928009379090D+03 0.000000000000000D+00 0.000000000000000D+00 0.137928009379090D+03
 0.137928009379090D+03 0.000000000000000D+00 0.000000000000000D+00 -.137928009379090D+03
 0.154526857007746D+03 -.320470307862227D+02 -.967910972402282D+01 -.844562146288218D+02
 0.121329161750434D+03 0.320470307862227D+02 0.967910972402282D+01 0.844562146288218D+02
 0.000000000000000D+00 -.000000000000000D+00 0.000000000000000D+00 0.000000000000000D+00
 0.407592955386496D+03 0.000000000000000D+00 0.000000000000000D+00 0.407592955386496D+03
 0.166630397840747D+03 0.000000000000000D+00 0.000000000000000D+00 -.166630397840747D+03
 0.162234552440171D+03 0.171347711269234D+02 -.571716488695297D+02 -.844562146288218D+02
 0.140579715199027D+03 0.727121816575788D+02 -.295893024627946D+02 0.844562146288218D+02
 0.271409085588045D+03 -.898469527845021D+02 0.867609513323243D+02 0.240962557545749D+03
0.100306393910D-02 0.000000000000D+00 0.000000000000D+00 0.167368600477D-02 0.000000000000D+00  5 1 -2 25 -24 21 0 0.61024406D-02 0.73786118D-01 0.11719556D+05 0.11719556D+05 0.11719556D+05 0.12602295D+01  1  2  2  2  5  2       -2 0.179582297086D+00 0.100000000000D+01
-.517504298231D-04 0.000000000000D+00 -.385202963893D-05 0.167368600477D-02 0.000000000000D+00  5 1 -2 25 -24 21 2 0.61024406D-02 0.73786118D-01 0.11719556D+05 0.11719556D+05 0.11719556D+05 0.12602295D+01  1  2  3  2  5  2       -2 -.147145902030D-01 0.100000000000D+01
0.689436229319D-04 0.000000000000D+00 0.000000000000D+00 0.167368600477D-02 0.000000000000D+00  5 1 -2 25 -24 21 2 0.61024406D-02 0.73786118D-01 0.11719556D+05 0.11719556D+05 0.11719556D+05 0.12602295D+01  1  2 15  2  5  2       -2 0.196032605337D-01 0.100000000000D+01
  </mgrwgt>
  </event>
  <event>
  4     66 0.47139866E-03 0.12447211E+03 0.75467711E-02 0.11359019E+00
        1 -1    0    0  501    0 0.00000000E+00 0.00000000E+00 0.24145865E+04 0.24145866E+04 0.32000000E+00 0.0000E+00 0.9000E+01
       -2 -1    0    0    0  501 0.00000000E+00 0.00000000E+00 -.78530006E+01 0.78595177E+01 0.32000000E+00 0.0000E+00 0.9000E+01
       25  1    1    2    0    0 0.68841339E+02 -.68103508E+01 0.83473583E+03 0.84687332E+03 0.12500000E+03 0.0000E+00 0.9000E+01
      -24  1    1    2    0    0 -.68841339E+02 0.68103508E+01 0.15719977E+04 0.15755728E+04 0.80419002E+02 0.0000E+00 0.9000E+01
#aMCatNLO 1  0  0  2  1 0.14582507D+03 0.00000000D+00  -5  5  0 0.00000000D+00 0.00000000D+00 0.00000000D+00 0.00000000D+00 0.00000000D+00
  <mgrwgt>
 0.2589140733D+00    5    2    0
 0.137730421022926D+03 0.000000000000000D+00 0.000000000000000D+00 0.137730421022926D+03
 0.137730421022926D+03 0.000000000000000D+00 0.000000000000000D+00 -.137730421022926D+03
 0.154353081393842D+03 0.688413387197784D+02 -.681035075863285D+01 -.584325503601130D+02
 0.121107760652010D+03 -.688413387197784D+02 0.681035075863285D+01 0.584325503601130D+02
 0.000000000000000D+00 0.000000000000000D+00 -.000000000000000D+00 -.000000000000000D+00
 0.212417879140242D+03 0.000000000000000D+00 0.000000000000000D+00 0.212417879140242D+03
 0.249801490413400D+03 0.000000000000000D+00 0.000000000000000D+00 -.249801490413400D+03
 0.166835873750957D+03 0.595804852075834D+02 0.724224523962493D+02 -.584325503601130D+02
 0.144842850333663D+03 -.765095029276875D+02 0.724166304006236D+02 0.584325503601130D+02
 0.150540645469021D+03 0.169290177201041D+02 -.144839082796873D+03 -.373836112731579D+02
0.780603835591D-03 0.000000000000D+00 0.000000000000D+00 0.211728000212D-02 0.000000000000D+00  5 1 -2 25 -24 21 0 0.37147535D+00 0.12086569D-02 0.15493307D+05 0.15493307D+05 0.15493307D+05 0.12462237D+01  1  2  2  2  5  2       -2 0.200861237021D+00 0.100000000000D+01
-.428266940447D-04 0.000000000000D+00 -.299772426638D-05 0.211728000212D-02 0.000000000000D+00  5 1 -2 25 -24 21 2 0.37147535D+00 0.12086569D-02 0.15493307D+05 0.15493307D+05 0.15493307D+05 0.12462237D+01  1  2  3  2  5  2       -2 -.171148064704D-01 0.100000000000D+01
0.539652433453D-04 0.000000000000D+00 0.000000000000D+00 0.211728000212D-02 0.000000000000D+00  5 1 -2 25 -24 21 2 0.37147535D+00 0.12086569D-02 0.15493307D+05 0.15493307D+05 0.15493307D+05 0.12462237D+01  1  2 15  2  5  2       -2 0.215660983550D-01 0.100000000000D+01
0.187698509868D-03 0.000000000000D+00 -.247388430643D-03 0.211728000212D-02 0.000000000000D+00  5 1 -2 25 -24 21 2 0.37147535D+00 0.42638569D-02 0.15493307D+05 0.15493307D+05 0.15493307D+05 0.12462237D+01  1  2  5  2  5  2       -2 0.119726085908D-01 0.100000000000D+01
0.353517738680D-04 0.000000000000D+00 -.365345245678D-04 0.211728000212D-02 0.000000000000D+00  5 1 21 25 -24 2 2 0.37147535D+00 0.42638569D-02 0.15493307D+05 0.15493307D+05 0.15493307D+05 0.12462237D+01  1  2  5  4  5  2       -2 0.416289358166D-01 0.100000000000D+01
  </mgrwgt>
  </event>
  <event>
  5     66 0.47139866E-03 0.11274775E+03 0.75467711E-02 0.11686087E+00
        1 -1    0    0  502    0 0.00000000E+00 0.00000000E+00 0.12168911E+04 0.12168912E+04 0.32000000E+00 0.0000E+00 0.9000E+01
       -2 -1    0    0    0  501 0.00000000E+00 0.00000000E+00 -.36464657E+02 0.36466062E+02 0.32000000E+00 0.0000E+00 0.9000E+01
       25  1    1    2    0    0 0.31358023E+02 0.53411974E+02 0.28940143E+03 0.32126991E+03 0.12500000E+03 0.0000E+00 0.9000E+01
      -24  1    1    2    0    0 -.55337132E+02 0.52087830E+02 0.16898570E+03 0.20198694E+03 0.80419002E+02 0.0000E+00 0.9000E+01
       21  1    1    2  502  501 0.23979109E+02 -.10549980E+03 0.72203935E+03 0.73010040E+03 0.75000000E+00 0.0000E+00 0.9000E+01
#aMCatNLO 2  0  0  1  2 0.10819060D+03 0.00000000D+00  -5  5  0 0.00000000D+00 0.00000000D+00 0.00000000D+00 0.00000000D+00 0.00000000D+00
  <mgrwgt>
 0.5541317387D-01    2    2    0
 0.113988767780620D+03 0.000000000000000D+00 0.000000000000000D+00 0.113988767780620D+03
 0.113988767780620D+03 0.000000000000000D+00 0.000000000000000D+00 -.113988767780620D+03
 0.134073606453616D+03 0.450643095146196D+02 -.689095746294398D+01 0.165062006740999D+02
 0.939039291076243D+02 -.450643095146196D+02 0.689095746294398D+01 -.165062006740999D+02
 0.000000000000000D+00 0.000000000000000D+00 -.000000000000000D+00 0.000000000000000D+00
 0.312819648926881D+03 0.000000000000000D+00 0.000000000000000D+00 0.312819648926881D+03
 0.141851790174346D+03 0.000000000000000D+00 0.000000000000000D+00 -.141851790174346D+03
 0.140476400764735D+03 0.313580226948879D+02 0.534119735994429D+02 0.165062006740999D+02
 0.111870509327239D+03 -.553371319484372D+02 0.520878303425361D+02 -.165062006740999D+02
 0.202324529009254D+03 0.239791092535494D+02 -.105499803941979D+03 0.170967858752535D+03
-.441572304864D-06 0.000000000000D+00 0.000000000000D+00 0.285858352550D-02 0.000000000000D+00  5 1 -2 25 -24 21 2 0.18115453D+00 0.45080911D-02 0.32101883D+05 0.32101883D+05 0.32101883D+05 0.12118239D+01  1  2 13  1  5  1        1 -.154470996480D-03 0.100000000000D+01
0.235421017034D-03 0.000000000000D+00 0.000000000000D+00 0.285858352550D-02 0.308586340554D-05  5 1 -2 25 -24 21 2 0.18721329D+00 0.56100334D-02 0.32101883D+05 0.32101883D+05 0.32101883D+05 0.12118239D+01  1  2  1  1  5  1        1 0.555676448671D-01 0.100000000000D+01
  </mgrwgt>
  </event>
  <event>
  5     66 0.47139866E-03 0.10471353E+03 0.75467711E-02 0.12470771E+00
        1 -1    0    0  501    0 0.00000000E+00 0.00000000E+00 0.32065391E+04 0.32065391E+04 0.32000000E+00 0.0000E+00 0.9000E+01
       21 -1    0    0  502  501 0.00000000E+00 0.00000000E+00 -.84477058E+01 0.84809335E+01 0.75000000E+00 0.0000E+00 0.9000E+01
       25  1    1    2    0    0 0.21221399E+00 0.86118870E+01 0.26291093E+04 0.26320933E+04 0.12500000E+03 0.0000E+00 0.9000E+01
      -24  1    1    2    0    0 -.18463297E+02 -.24149569E+02 0.27875944E+03 0.29171585E+03 0.80419002E+02 0.0000E+00 0.9000E+01
        2  1    1    2  502    0 0.18251083E+02 0.15537682E+02 0.29022262E+03 0.29121091E+03 0.32000000E+00 0.0000E+00 0.9000E+01
#aMCatNLO 2  0  0  2  2 0.23969180D+02 0.00000000D+00  -5  5  0 0.00000000D+00 0.00000000D+00 0.00000000D+00 0.00000000D+00 0.00000000D+00
  <mgrwgt>
 0.3656564844D-01    1    2    0
 0.151974145950186D+03 0.000000000000000D+00 0.000000000000000D+00 0.151974145950186D+03
 0.151974145950186D+03 0.000000000000000D+00 0.000000000000000D+00 -.151974145950186D+03
 0.167038853154777D+03 0.101977609475589D+02 0.171128762794540D+02 0.108996025617285D+03
 0.136909438745595D+03 -.101977609475589D+02 -.171128762794540D+02 -.108996025617285D+03
 0.000000000000000D+00 0.000000000000000D+00 0.000000000000000D+00 0.000000000000000D+00
 0.167644162306860D+03 0.000000000000000D+00 0.000000000000000D+00 0.167644162306860D+03
 0.161896449721232D+03 0.000000000000000D+00 0.000000000000000D+00 -.161896449721232D+03
 0.166070296057211D+03 0.212213988107418D+00 0.861188698190850D+01 0.108996025617285D+03
 0.138821628625969D+03 -.184632965173017D+02 -.241495693822146D+02 -.108996025617285D+03
 0.246486873449120D+02 0.182510825291943D+02 0.155376824003061D+02 0.574771258562746D+01
0.152201150275D-04 0.000000000000D+00 0.000000000000D+00 0.126581102411D-02 0.215303897890D-06  5 1 21 25 -24 2 2 0.49331314D+00 0.13021960D-02 0.13834276D+05 0.13834276D+05 0.13834276D+05 0.12518479D+01  1  2  1  4  5  2       -2 0.365656484446D-01 0.100000000000D+01
  </mgrwgt>
  </event>
  <event>
  4     66 0.47139866E-03 0.39058046E+03 0.75467711E-02 0.10150728E+00
        1 -1    0    0  501    0 0.00000000E+00 0.00000000E+00 0.29701607E+04 0.29701608E+04 0.32000000E+00 0.0000E+00 0.9000E+01
       -2 -1    0    0    0  501 0.00000000E+00 0.00000000E+00 -.62384599E+02 0.62385419E+02 0.32000000E+00 0.0000E+00 0.9000E+01
       25  1    1    2    0    0 0.41370670E+03 -.13953285E+02 0.12812540E+04 0.13522517E+04 0.12500000E+03 0.0000E+00 0.9000E+01
      -24  1    1    2    0    0 -.41370670E+03 0.13953285E+02 0.16265222E+04 0.16802945E+04 0.80419002E+02 0.0000E+00 0.9000E+01
#aMCatNLO 1  0  0  1  2 0.12677129D+03 0.00000000D+00  -5  5  0 0.00000000D+00 0.00000000D+00 0.00000000D+00 0.00000000D+00 0.00000000D+00
  <mgrwgt>
 0.3337437410D+00    9    2    0
 0.430457379677182D+03 0.000000000000000D+00 0.000000000000000D+00 0.430457379677182D+03
 0.430457379677182D+03 0.000000000000000D+00 0.000000000000000D+00 -.430457379677182D+03
 0.435776015434163D+03 0.413706702933630D+03 -.139532854425648D+02 -.541091988558209D+02
 0.425138743920201D+03 -.413706702933630D+03 0.139532854425648D+02 0.541091988558209D+02
 0.000000000000000D+00 0.000000000000000D+00 -.000000000000000D+00 0.000000000000000D+00
 0.508507359742571D+03 0.000000000000000D+00 0.000000000000000D+00 0.508507359742571D+03
 0.489830681709705D+03 0.000000000000000D+00 0.000000000000000D+00 -.489830681709705D+03
 0.392421664276793D+03 0.367177700206048D+03 0.249498229321650D+02 -.541091988558209D+02
 0.477776694114453D+03 -.464433426647410D+03 0.563661272067895D+02 0.541091988558209D+02
 0.128139683061030D+03 0.972557264413614D+02 -.813159501389545D+02 0.186766780328655D+02
0.351668512179D-01 0.000000000000D+00 0.000000000000D+00 0.191971487485D-02 0.000000000000D+00  5 1 -2 25 -24 21 0 0.45694787D+00 0.95976950D-02 0.18236530D+06 0.18236530D+06 0.18236530D+06 0.11403359D+01  1  2  2  1  5  1        1 0.159296969921D+00 0.100000000000D+01
-.195356326463D-02 0.000000000000D+00 -.135049968321D-03 0.191971487485D-02 0.000000000000D+00  5 1 -2 25 -24 21 2 0.45694787D+00 0.95976950D-02 0.18236530D+06 0.18236530D+06 0.18236530D+06 0.11403359D+01  1  2  3  1  5  1        1 -.115071315617D-01 0.100000000000D+01
0.241713971553D-02 0.000000000000D+00 0.000000000000D+00 0.191971487485D-02 0.000000000000D+00  5 1 -2 25 -24 21 2 0.45694787D+00 0.95976950D-02 0.18236530D+06 0.18236530D+06 0.18236530D+06 0.11403359D+01  1  2 15  1  5  1        1 0.142377496614D-01 0.100000000000D+01
0.207769564421D-01 0.000000000000D+00 0.000000000000D+00 0.191971487485D-02 0.000000000000D+00  5 1 -2 25 -24 21 2 0.56639897D+00 0.95976950D-02 0.24509799D+06 0.24509799D+06 0.24509799D+06 0.11294149D+01  1  2 12  1  5  1        1 0.348324719125D-01 0.100000000000D+01
-.195518560389D-01 0.000000000000D+00 0.000000000000D+00 0.191971487485D-02 0.000000000000D+00  5 1 -2 25 -24 21 2 0.45694787D+00 0.95976950D-02 0.18236530D+06 0.18236530D+06 0.18236530D+06 0.11403359D+01  1  2  4  1  5  1        1 -.115166876747D+00 0.100000000000D+01
-.594015093430D-01 0.000000000000D+00 -.165012395438D-01 0.191971487485D-02 0.000000000000D+00  5 1 -2 25 -24 21 2 0.55993324D+00 0.95976950D-02 0.18236530D+06 0.18236530D+06 0.18236530D+06 0.11403359D+01  1  2  5  1  5  1        1 -.111634156009D+00 0.100000000000D+01
0.618093511302D-01 0.000000000000D+00 0.161661772932D-01 0.191971487485D-02 0.000000000000D+00  5 1 -2 25 -24 21 2 0.45694787D+00 0.95976950D-02 0.18236530D+06 0.18236530D+06 0.18236530D+06 0.11403359D+01  1  2  6  1  5  1        1 0.364077451738D+00 0.100000000000D+01
0.627649063807D-03 0.000000000000D+00 0.000000000000D+00 0.191971487485D-02 0.000000000000D+00  5 21 -2 25 -24 -1 2 0.56639897D+00 0.95976950D-02 0.24509799D+06 0.24509799D+06 0.24509799D+06 0.11294149D+01  1  2 12  3  5  1        1 0.207534377056D-03 0.100000000000D+01
-.152561522327D-02 0.000000000000D+00 -.478075120121D-03 0.191971487485D-02 0.000000000000D+00  5 21 -2 25 -24 -1 2 0.55993324D+00 0.95976950D-02 0.18236530D+06 0.18236530D+06 0.18236530D+06 0.11403359D+01  1  2  5  3  5  1        1 -.600272328650D-03 0.100000000000D+01
  </mgrwgt>
  </event>
  <event>
  5     66 0.47139866E-03 0.14509395E+03 0.75467711E-02 0.11251396E+00
        3 -1    0    0  501    0 0.00000000E+00 0.00000000E+00 0.75764398E+03 0.75764414E+03 0.50000000E+00 0.0000E+00 0.9000E+01
       21 -1    0    0  502  501 0.00000000E+00 0.00000000E+00 -.20996054E+03 0.20996188E+03 0.75000000E+00 0.0000E+00 0.9000E+01
       25  1    1    2    0    0 0.73261261E+02 -.71293732E+02 0.20904278E+03 0.26414748E+03 0.12500000E+03 0.0000E+00 0.9000E+01
      -24  1    1    2    0    0 0.55986967E+02 0.12839184E+03 0.47826855E+03 0.50480395E+03 0.80419002E+02 0.0000E+00 0.9000E+01
        4  1    1    2  502    0 -.12924823E+03 -.57098103E+02 -.13962789E+03 0.19865459E+03 0.15500000E+01 0.0000E+00 0.9000E+01
#aMCatNLO 2  0  0  2  1 0.14129861D+03 0.00000000D+00  -5  5  0 0.00000000D+00 0.00000000D+00 0.00000000D+00 0.00000000D+00 0.00000000D+00
  <mgrwgt>
 0.2698507680D-01    2    2    0
 0.157261041332249D+03 0.000000000000000D+00 0.000000000000000D+00 0.157261041332249D+03
 0.157261041332249D+03 0.000000000000000D+00 0.000000000000000D+00 -.157261041332249D+03
 0.171819294234635D+03 0.578646577245469D+01 -.101102132210164D+03 -.603468768679098D+02
 0.142702788429864D+03 -.578646577245469D+01 0.101102132210164D+03 0.603468768679098D+02
 0.000000000000000D+00 -.000000000000000D+00 -.000000000000000D+00 -.000000000000000D+00
 0.179388897368855D+03 0.000000000000000D+00 0.000000000000000D+00 0.179388897368855D+03
 0.886758583247287D+03 0.000000000000000D+00 0.000000000000000D+00 -.886758583247287D+03
 0.172385481510324D+03 0.732612612257889D+02 -.712937324835947D+02 -.603468768679098D+02
 0.172417996327054D+03 0.559869667679524D+02 0.128391835828758D+03 0.603468768679098D+02
 0.721344002778764D+03 -.129248227993741D+03 -.570981033451637D+02 -.707369685878433D+03
-.450285395003D-06 0.000000000000D+00 0.000000000000D+00 0.203598933116D-02 0.000000000000D+00  5 3 21 25 -24 4 2 0.10218235D+00 0.30165708D-01 0.53890949D+05 0.53890949D+05 0.53890949D+05 0.11890719D+01  1  2 13  4  5  2       -4 -.284321682169D-04 0.100000000000D+01
0.665598113780D-03 0.000000000000D+00 0.000000000000D+00 0.203598933116D-02 0.534926161218D-06  5 3 21 25 -24 4 2 0.11656021D+00 0.32301593D-01 0.53890949D+05 0.53890949D+05 0.53890949D+05 0.11890719D+01  1  2  1  4  5  2       -4 0.270135089657D-01 0.100000000000D+01
  </mgrwgt>
  </event>
  <event>
  4     66 0.47139866E-03 0.32249677E+03 0.75467711E-02 0.10409021E+00
        1 -1    0    0  501    0 0.00000000E+00 0.00000000E+00 0.17304381E+04 0.17304381E+04 0.32000000E+00 0.0000E+00 0.9000E+01
       -2 -1    0    0    0  501 0.00000000E+00 0.00000000E+00 -.82163008E+02 0.82163632E+02 0.32000000E+00 0.0000E+00 0.9000E+01
       25  1    1    2    0    0 -.28230699E+03 0.11537426E+03 0.36787701E+03 0.49393011E+03 0.12500000E+03 0.0000E+00 0.9000E+01
      -24  1    1    2    0    0 0.28230699E+03 -.11537426E+03 0.12803981E+04 0.13186717E+04 0.80419002E+02 0.0000E+00 0.9000E+01
#aMCatNLO 1  0  0  2  1 0.15650338D+03 0.00000000D+00  -5  5  0 0.00000000D+00 0.00000000D+00 0.00000000D+00 0.00000000D+00 0.00000000D+00
  <mgrwgt>
 0.1135237336D+00    4    2    0
 0.377065766236215D+03 0.000000000000000D+00 0.000000000000000D+00 0.377065766236215D+03
 0.377065766236215D+03 0.000000000000000D+00 0.000000000000000D+00 -.377065766236215D+03
 0.383137508134877D+03 -.282306992986981D+03 0.115374263060677D+03 -.195348128410941D+03
 0.370994024337554D+03 0.282306992986981D+03 -.115374263060677D+03 0.195348128410941D+03
 0.000000000000000D+00 -.000000000000000D+00 0.000000000000000D+00 0.000000000000000D+00
 0.482243227857942D+03 0.000000000000000D+00 0.000000000000000D+00 0.482243227857942D+03
 0.448133808539735D+03 0.000000000000000D+00 0.000000000000000D+00 -.448133808539735D+03
 0.329129974117790D+03 -.210630474058021D+03 0.100873445401718D+03 -.195348128410941D+03
 0.441069788759060D+03 0.364026162710771D+03 -.131906801151438D+03 0.195348128410941D+03
 0.160177273520826D+03 -.153395688652750D+03 0.310333557497205D+02 0.341094193182071D+02
0.814087916518D-02 0.000000000000D+00 0.000000000000D+00 0.144601397961D-02 0.000000000000D+00  5 1 -2 25 -24 21 0 0.26622130D+00 0.12640513D-01 0.10400417D+06 0.10400417D+06 0.10400417D+06 0.11620086D+01  1  2  2  2  5  2       -2 0.163109903308D+00 0.100000000000D+01
-.438832730679D-03 0.000000000000D+00 -.312631195370D-04 0.144601397961D-02 0.000000000000D+00  5 1 -2 25 -24 21 2 0.26622130D+00 0.12640513D-01 0.10400417D+06 0.10400417D+06 0.10400417D+06 0.11620086D+01  1  2  3  2  5  2       -2 -.118720769409D-01 0.100000000000D+01
0.560733137330D-03 0.000000000000D+00 0.000000000000D+00 0.144601397961D-02 0.000000000000D+00  5 1 -2 25 -24 21 2 0.26622130D+00 0.12640513D-01 0.10400417D+06 0.10400417D+06 0.10400417D+06 0.11620086D+01  1  2 15  2  5  2       -2 0.151699417211D-01 0.100000000000D+01
-.195477551099D-02 0.000000000000D+00 0.000000000000D+00 0.144601397961D-02 0.000000000000D+00  5 1 -2 25 -24 21 2 0.26622130D+00 0.12640513D-01 0.10400417D+06 0.10400417D+06 0.10400417D+06 0.11620086D+01  1  2  4  2  5  2       -2 -.528840344994D-01 0.100000000000D+01
  </mgrwgt>
  </event>
  <event>
  4     66 0.47139866E-03 0.11128521E+03 0.75467711E-02 0.12457793E+00
        1 -1    0    0  501    0 0.00000000E+00 0.00000000E+00 0.10102053E+04 0.10102053E+04 0.32000000E+00 0.0000E+00 0.9000E+01
       -2 -1    0    0    0  501 0.00000000E+00 0.00000000E+00 -.12348990E+02 0.12353135E+02 0.32000000E+00 0.0000E+00 0.9000E+01
       25  1    1    2    0    0 -.40647096E+02 -.10456709E+02 0.63380723E+03 0.64737789E+03 0.12500000E+03 0.0000E+00 0.9000E+01
      -24  1    1    2    0    0 0.40647096E+02 0.10456709E+02 0.36404907E+03 0.37518058E+03 0.80419002E+02 0.0000E+00 0.9000E+01
#aMCatNLO 1  0  0  1  1 0.13786716D+02 0.00000000D+00  -5  5  0 0.00000000D+00 0.00000000D+00 0.00000000D+00 0.00000000D+00 0.00000000D+00
  <mgrwgt>
 0.1958470925D+00    4    2    0
 0.111701207849887D+03 0.000000000000000D+00 0.000000000000000D+00 0.111701207849887D+03
 0.111701207849887D+03 0.000000000000000D+00 0.000000000000000D+00 -.111701207849887D+03
 0.132197369489286D+03 -.406470957379983D+02 -.104567094410877D+02 0.946653767844805D+01
 0.912050462104885D+02 0.406470957379983D+02 0.104567094410877D+02 -.946653767844805D+01
 0.000000000000000D+00 0.000000000000000D+00 0.000000000000000D+00 -.000000000000000D+00
 0.113009328962098D+03 0.000000000000000D+00 0.000000000000000D+00 0.113009328962098D+03
 0.155284927537942D+03 0.000000000000000D+00 0.000000000000000D+00 -.155284927537942D+03
 0.134616410986066D+03 -.461914385924899D+02 -.165322040850047D+02 0.946653767844805D+01
 0.892110066098829D+02 0.368980822818414D+02 0.634853796420979D+01 -.946653767844805D+01
 0.444668389040908D+02 0.929335631064852D+01 0.101836661207949D+02 -.422755985758436D+02
0.190898775057D-03 0.000000000000D+00 0.000000000000D+00 0.294863100302D-02 0.000000000000D+00  5 1 -2 25 -24 21 0 0.15541652D+00 0.19001673D-02 0.12384398D+05 0.12384398D+05 0.12384398D+05 0.12574224D+01  1  2  2  1  5  1        1 0.208966480616D+00 0.100000000000D+01
-.106053079889D-04 0.000000000000D+00 -.733101561022D-06 0.294863100302D-02 0.000000000000D+00  5 1 -2 25 -24 21 2 0.15541652D+00 0.19001673D-02 0.12384398D+05 0.12384398D+05 0.12384398D+05 0.12574224D+01  1  2  3  1  5  1        1 -.183552011797D-01 0.100000000000D+01
0.132076857443D-04 0.000000000000D+00 0.000000000000D+00 0.294863100302D-02 0.000000000000D+00  5 1 -2 25 -24 21 2 0.15541652D+00 0.19001673D-02 0.12384398D+05 0.12384398D+05 0.12384398D+05 0.12574224D+01  1  2 15  1  5  1        1 0.228592822771D-01 0.100000000000D+01
-.101825262827D-04 0.000000000000D+00 0.000000000000D+00 0.294863100302D-02 0.000000000000D+00  5 1 -2 25 -24 21 2 0.15541652D+00 0.19001673D-02 0.12384398D+05 0.12384398D+05 0.12384398D+05 0.12574224D+01  1  2  4  1  5  1        1 -.176234691753D-01 0.100000000000D+01
  </mgrwgt>
  </event>
  <event>
  4     66 0.47139866E-03 0.11345548E+03 0.75467711E-02 0.10131947E+00
        1 -1    0    0  501    0 0.00000000E+00 0.00000000E+00 0.40329325E+03 0.40329337E+03 0.32000000E+00 0.0000E+00 0.9000E+01
       -2 -1    0    0    0  501 0.00000000E+00 0.00000000E+00 -.31969342E+02 0.31970943E+02 0.32000000E+00 0.0000E+00 0.9000E+01
       25  1    1    2    0    0 -.43836131E+02 0.17653163E+02 0.22732391E+03 0.26369376E+03 0.12500000E+03 0.0000E+00 0.9000E+01
      -24  1    1    2    0    0 0.43836131E+02 -.17653163E+02 0.14399999E+03 0.17157055E+03 0.80419002E+02 0.0000E+00 0.9000E+01
#aMCatNLO 1  0  0  1  2 0.47662469D+03 0.00000000D+00  -5  5  0 0.00000000D+00 0.00000000D+00 0.00000000D+00 0.00000000D+00 0.00000000D+00
  <mgrwgt>
 0.2076843514D+00    5    2    0
 0.113549090149321D+03 0.000000000000000D+00 0.000000000000000D+00 0.113549090149321D+03
 0.113549090149321D+03 0.000000000000000D+00 0.000000000000000D+00 -.113549090149321D+03
 0.133711700068930D+03 -.438361314666936D+02 0.176531628442723D+02 0.453631512926280D+01
 0.933864802297107D+02 0.438361314666936D+02 -.176531628442723D+02 -.453631512926280D+01
 0.000000000000000D+00 0.000000000000000D+00 -.000000000000000D+00 0.000000000000000D+00
 0.867391224217688D+03 0.000000000000000D+00 0.000000000000000D+00 0.867391224217688D+03
 0.358101118607095D+03 0.000000000000000D+00 0.000000000000000D+00 -.358101118607095D+03
 0.383821425102340D+03 -.184115511060937D+03 0.312689601361172D+03 0.453631512926280D+01
 0.144141340932379D+03 -.205467143230587D+02 0.117757227323797D+03 -.453631512926280D+01
 0.697529576790064D+03 0.204662225383996D+03 -.430446828684970D+03 0.509290105610592D+03
0.204806418337D-03 0.000000000000D+00 0.000000000000D+00 0.291692856075D-02 0.000000000000D+00  5 1 -2 25 -24 21 0 0.62045248D-01 0.49184933D-02 0.12872147D+05 0.12872147D+05 0.12872147D+05 0.12554687D+01  1  2  2  1  5  1        1 0.202727395700D+00 0.100000000000D+01
-.113781249427D-04 0.000000000000D+00 -.786510573184D-06 0.291692856075D-02 0.000000000000D+00  5 1 -2 25 -24 21 2 0.62045248D-01 0.49184933D-02 0.12872147D+05 0.12872147D+05 0.12872147D+05 0.12554687D+01  1  2  3  1  5  1        1 -.177521661130D-01 0.100000000000D+01
0.141557273760D-04 0.000000000000D+00 0.000000000000D+00 0.291692856075D-02 0.000000000000D+00  5 1 -2 25 -24 21 2 0.62045248D-01 0.49184933D-02 0.12872147D+05 0.12872147D+05 0.12872147D+05 0.12554687D+01  1  2 15  1  5  1        1 0.220857852323D-01 0.100000000000D+01
0.340154581494D-03 0.000000000000D+00 -.180652135968D-03 0.291692856075D-02 0.000000000000D+00  5 1 -2 25 -24 21 2 0.67491445D+00 0.49184933D-02 0.12872147D+05 0.12872147D+05 0.12872147D+05 0.12554687D+01  1  2  5  1  5  1        1 0.607818243923D-03 0.100000000000D+01
0.643168053713D-04 0.000000000000D+00 -.508165426913D-04 0.291692856075D-02 0.000000000000D+00  5 21 -2 25 -24 -1 2 0.67491445D+00 0.49184933D-02 0.12872147D+05 0.12872147D+05 0.12872147D+05 0.12554687D+01  1  2  5  3  5  1        1 0.155183521969D-04 0.100000000000D+01
  </mgrwgt>
  </event>
  <event>
  4     66 0.47139866E-03 0.12393004E+03 0.75467711E-02 0.11954591E+00
        1 -1    0    0  501    0 0.00000000E+00 0.00000000E+00 0.10768479E+03 0.10768526E+03 0.32000000E+00 0.0000E+00 0.9000E+01
       -2 -1    0    0    0  501 0.00000000E+00 0.00000000E+00 -.15966493E+03 0.15966525E+03 0.32000000E+00 0.0000E+00 0.9000E+01
       25  1    1    2    0    0 -.58869625E+02 -.34470168E+02 -.72684739E+02 0.15988088E+03 0.12500000E+03 0.0000E+00 0.9000E+01
      -24  1    1    2    0    0 0.58869625E+02 0.34470168E+02 0.20704593E+02 0.10746963E+03 0.80419002E+02 0.0000E+00 0.9000E+01
#aMCatNLO 1  0  0  2  2 0.54597652D+02 0.00000000D+00  -5  5  0 0.00000000D+00 0.00000000D+00 0.00000000D+00 0.00000000D+00 0.00000000D+00
  <mgrwgt>
 0.1048520528D+00    4    2    0
 0.131124331130714D+03 0.000000000000000D+00 0.000000000000000D+00 0.131124331130714D+03
 0.131124331130714D+03 0.000000000000000D+00 0.000000000000000D+00 -.131124331130714D+03
 0.148584446973936D+03 -.588696249141782D+02 -.344701683568206D+02 -.424088745248791D+02
 0.113664215287491D+03 0.588696249141782D+02 0.344701683568206D+02 0.424088745248791D+02
 0.000000000000000D+00 0.000000000000000D+00 -.000000000000000D+00 0.000000000000000D+00
 0.166958717832248D+03 0.000000000000000D+00 0.000000000000000D+00 0.166958717832248D+03
 0.156502841742855D+03 0.000000000000000D+00 0.000000000000000D+00 -.156502841742855D+03
 0.154382326553193D+03 -.793191407364634D+02 -.109024779907600D+02 -.424088745248791D+02
 0.113489404887639D+03 0.435373114205841D+02 0.521403772826776D+02 0.424088745248791D+02
 0.555898281342710D+02 0.357818293158792D+02 -.412378992919176D+02 0.104558760893930D+02
0.440630315794D-03 0.000000000000D+00 0.000000000000D+00 0.236391399902D-02 0.000000000000D+00  5 1 -2 25 -24 21 0 0.16566951D-01 0.24563897D-01 0.15358656D+05 0.15358656D+05 0.15358656D+05 0.12466544D+01  1  2  2  2  5  2       -2 0.176162928088D+00 0.100000000000D+01
-.243846891695D-04 0.000000000000D+00 -.169213643328D-05 0.236391399902D-02 0.000000000000D+00  5 1 -2 25 -24 21 2 0.16566951D-01 0.24563897D-01 0.15358656D+05 0.15358656D+05 0.15358656D+05 0.12466544D+01  1  2  3  2  5  2       -2 -.151512857255D-01 0.100000000000D+01
0.304870336180D-04 0.000000000000D+00 0.000000000000D+00 0.236391399902D-02 0.000000000000D+00  5 1 -2 25 -24 21 2 0.16566951D-01 0.24563897D-01 0.15358656D+05 0.15358656D+05 0.15358656D+05 0.12466544D+01  1  2 15  2  5  2       -2 0.189429421904D-01 0.100000000000D+01
-.120871055162D-03 0.000000000000D+00 0.000000000000D+00 0.236391399902D-02 0.000000000000D+00  5 1 -2 25 -24 21 2 0.16566951D-01 0.24563897D-01 0.15358656D+05 0.15358656D+05 0.15358656D+05 0.12466544D+01  1  2  4  2  5  2       -2 -.751025317553D-01 0.100000000000D+01
  </mgrwgt>
  </event>
  <event>
  4     66 0.47139866E-03 0.61089172E+02 0.75467711E-02 0.12345237E+00
        3 -1    0    0  501    0 0.00000000E+00 0.00000000E+00 0.12541252E+03 0.12541352E+03 0.50000000E+00 0.0000E+00 0.9000E+01
       -4 -1    0    0    0  501 0.00000000E+00 0.00000000E+00 -.12277348E+03 0.12278326E+03 0.15500000E+01 0.0000E+00 0.9000E+01
       25  1    1    2    0    0 -.55394176E+02 -.33495559E+00 -.38789486E+02 0.14212055E+03 0.12500000E+03 0.0000E+00 0.9000E+01
      -24  1    1    2    0    0 0.55394176E+02 0.33495559E+00 0.41428530E+02 0.10607623E+03 0.80419002E+02 0.0000E+00 0.9000E+01
#aMCatNLO 1  0  0  1  2 0.15729980D+02 0.00000000D+00  -5  5  0 0.00000000D+00 0.00000000D+00 0.00000000D+00 0.00000000D+00 0.00000000D+00
  <mgrwgt>
 0.6154757444D-01    6    2    0
 0.124091374096080D+03 0.000000000000000D+00 0.000000000000000D+00 0.124091374096080D+03
 0.124091374096080D+03 0.000000000000000D+00 0.000000000000000D+00 -.124091374096080D+03
 0.142541053036976D+03 -.553941762978163D+02 -.334955594076254D+00 -.403029135165999D+02
 0.105641695155183D+03 0.553941762978163D+02 0.334955594076254D+00 0.403029135165999D+02
 0.000000000000000D+00 -.000000000000000D+00 0.000000000000000D+00 -.000000000000000D+00
 0.132020469918351D+03 0.000000000000000D+00 0.000000000000000D+00 0.132020469918351D+03
 0.132394697582585D+03 0.000000000000000D+00 0.000000000000000D+00 -.132394697582585D+03
 0.141050949341832D+03 -.508056281248189D+02 -.805193288274345D+01 -.403029135165999D+02
 0.107629787284123D+03 0.588449311247882D+02 -.546849151479571D+01 0.403029135165999D+02
 0.157344308749814D+02 -.803930299996938D+01 0.135204243975392D+02 -.374227664234275D+00
0.276692577539D-03 0.000000000000D+00 0.000000000000D+00 0.246074930265D-02 0.000000000000D+00  5 3 -4 25 -24 21 0 0.19295063D-01 0.18889057D-01 0.13733060D+05 0.13733060D+05 0.13733060D+05 0.12522153D+01  1  2  2  1  5  1        3 0.313511873589D-01 0.100000000000D+01
-.153105793501D-04 0.000000000000D+00 -.106257235258D-05 0.246074930265D-02 0.000000000000D+00  5 3 -4 25 -24 21 2 0.19295063D-01 0.18889057D-01 0.13733060D+05 0.13733060D+05 0.13733060D+05 0.12522153D+01  1  2  3  1  5  1        3 -.272023316496D-02 0.100000000000D+01
0.191491106931D-04 0.000000000000D+00 0.000000000000D+00 0.246074930265D-02 0.000000000000D+00  5 3 -4 25 -24 21 2 0.19295063D-01 0.18889057D-01 0.13733060D+05 0.13733060D+05 0.13733060D+05 0.12522153D+01  1  2 15  1  5  1        3 0.340222566342D-02 0.100000000000D+01
0.456834075285D-03 0.000000000000D+00 0.000000000000D+00 0.246074930265D-02 0.000000000000D+00  5 3 -4 25 -24 21 2 0.21132696D-01 0.18889057D-01 0.15712552D+05 0.15712552D+05 0.15712552D+05 0.12455313D+01  1  2 12  1  5  1        3 0.693291643365D-01 0.100000000000D+01
-.349884064947D-03 0.000000000000D+00 0.000000000000D+00 0.246074930265D-02 0.000000000000D+00  5 3 -4 25 -24 21 2 0.19295063D-01 0.18889057D-01 0.13733060D+05 0.13733060D+05 0.13733060D+05 0.12522153D+01  1  2  4  1  5  1        3 -.621639596776D-01 0.100000000000D+01
0.683410461915D-05 0.000000000000D+00 0.000000000000D+00 0.246074930265D-02 0.000000000000D+00  5 21 -4 25 -24 -3 2 0.21132696D-01 0.18889057D-01 0.15712552D+05 0.15712552D+05 0.15712552D+05 0.12455313D+01  1  2 12  3  5  1        3 0.223491899243D-01 0.100000000000D+01
  </mgrwgt>
  </event>
  <event>
  4     66 0.47139866E-03 0.14328748E+03 0.75467711E-02 0.10330915E+00
        1 -1    0    0  501    0 0.00000000E+00 0.00000000E+00 0.11411314E+04 0.11411314E+04 0.32000000E+00 0.0000E+00 0.9000E+01
       -2 -1    0    0    0  501 0.00000000E+00 0.00000000E+00 -.19572998E+02 0.19575614E+02 0.32000000E+00 0.0000E+00 0.9000E+01
       25  1    1    2    0    0 -.13922081E+02 0.97707042E+02 0.45419931E+03 0.48131331E+03 0.12500000E+03 0.0000E+00 0.9000E+01
      -24  1    1    2    0    0 0.13922081E+02 -.97707042E+02 0.66735907E+03 0.67939373E+03 0.80419002E+02 0.0000E+00 0.9000E+01
#aMCatNLO 1  0  0  2  2 0.38533823D+03 0.00000000D+00  -5  5  0 0.00000000D+00 0.00000000D+00 0.00000000D+00 0.00000000D+00 0.00000000D+00
  <mgrwgt>
 0.1924062789D+00    5    2    0
 0.149455366687630D+03 0.000000000000000D+00 0.000000000000000D+00 0.149455366687630D+03
 0.149455366687630D+03 0.000000000000000D+00 0.000000000000000D+00 -.149455366687630D+03
 0.164773960205870D+03 -.139220809883006D+02 0.977070420746869D+02 -.422488763388587D+02
 0.134136773169389D+03 0.139220809883006D+02 -.977070420746869D+02 0.422488763388587D+02
 0.000000000000000D+00 0.000000000000000D+00 0.000000000000000D+00 -.000000000000000D+00
 0.257721676061653D+03 0.000000000000000D+00 0.000000000000000D+00 0.257721676061653D+03
 0.291810710105945D+04 0.000000000000000D+00 0.000000000000000D+00 -.291810710105945D+04
 0.170806061458659D+03 -.998045477583115D+02 -.424711116628910D+02 -.422488763388587D+02
 0.316875368486806D+03 -.101502058614924D+03 -.286103386460760D+03 0.422488763388587D+02
 0.268814734717564D+04 0.201306606373235D+03 0.328574498123651D+03 -.266038542499780D+04
0.492277463461D-03 0.000000000000D+00 0.000000000000D+00 0.223760984611D-02 0.000000000000D+00  5 1 -2 25 -24 21 0 0.17555888D+00 0.30114352D-02 0.20531302D+05 0.20531302D+05 0.20531302D+05 0.12325745D+01  1  2  2  2  5  2       -2 0.225328599425D+00 0.100000000000D+01
-.272896860528D-04 0.000000000000D+00 -.189047507932D-05 0.223760984611D-02 0.000000000000D+00  5 1 -2 25 -24 21 2 0.17555888D+00 0.30114352D-02 0.20531302D+05 0.20531302D+05 0.20531302D+05 0.12325745D+01  1  2  3  2  5  2       -2 -.189771604790D-01 0.100000000000D+01
0.339816284147D-04 0.000000000000D+00 0.000000000000D+00 0.223760984611D-02 0.000000000000D+00  5 1 -2 25 -24 21 2 0.17555888D+00 0.30114352D-02 0.20531302D+05 0.20531302D+05 0.20531302D+05 0.12325745D+01  1  2 15  2  5  2       -2 0.236307158138D-01 0.100000000000D+01
-.380224207591D-02 0.000000000000D+00 -.981370723190D-03 0.223760984611D-02 0.000000000000D+00  5 1 -2 25 -24 21 2 0.17555888D+00 0.97736485D-01 0.20531302D+05 0.20531302D+05 0.20531302D+05 0.12325745D+01  1  2  5  2  5  2       -2 -.627643994335D-02 0.100000000000D+01
-.159128606314D-02 0.000000000000D+00 -.335054419468D-03 0.223760984611D-02 0.000000000000D+00  5 1 21 25 -24 2 2 0.17555888D+00 0.97736485D-01 0.20531302D+05 0.20531302D+05 0.20531302D+05 0.12325745D+01  1  2  5  4  5  2       -2 -.312994358872D-01 0.100000000000D+01
  </mgrwgt>
  </event>
  <event>
  5     66 0.47139866E-03 0.11769081E+03 0.75467711E-02 0.12380773E+00
        1 -1    0    0  501    0 0.00000000E+00 0.00000000E+00 0.11059533E+04 0.11059534E+04 0.32000000E+00 0.0000E+00 0.9000E+01
       21 -1    0    0  502  501 0.00000000E+00 0.00000000E+00 -.15120404E+02 0.15138993E+02 0.75000000E+00 0.0000E+00 0.9000E+01
       25  1    1    2    0    0 0.30179923E+02 0.45497147E+02 0.48219858E+03 0.50112004E+03 0.12500000E+03 0.0000E+00 0.9000E+01
      -24  1    1    2    0    0 -.40152496E+02 -.42044348E+02 0.59207617E+03 0.60033437E+03 0.80419002E+02 0.0000E+00 0.9000E+01
        2  1    1    2  502    0 0.99725736E+01 -.34527985E+01 0.16558174E+02 0.19637962E+02 0.32000000E+00 0.0000E+00 0.9000E+01
#aMCatNLO 2  0  0  2  1 0.10553390D+02 0.00000000D+00  -5  5  0 0.00000000D+00 0.00000000D+00 0.00000000D+00 0.00000000D+00 0.00000000D+00
  <mgrwgt>
 0.9385488014D-02    2    2    0
 0.121474477210498D+03 0.000000000000000D+00 0.000000000000000D+00 0.121474477210498D+03
 0.121474477210498D+03 0.000000000000000D+00 0.000000000000000D+00 -.121474477210498D+03
 0.140321613366022D+03 0.359222831500683D+02 0.435089724044584D+02 -.296936705585169D+02
 0.102627341054974D+03 -.359222831500683D+02 -.435089724044584D+02 0.296936705585169D+02
 0.000000000000000D+00 0.000000000000000D+00 -.000000000000000D+00 -.000000000000000D+00
 0.123610223237482D+03 0.000000000000000D+00 0.000000000000000D+00 0.123610223237482D+03
 0.135364805552616D+03 0.000000000000000D+00 0.000000000000000D+00 -.135364805552616D+03
 0.139597751278714D+03 0.301799228590073D+02 0.454971465815204D+02 -.296936705585169D+02
 0.103580307961451D+03 -.401524964364116D+02 -.420443480351961D+02 0.296936705585169D+02
 0.157969695499325D+02 0.997257357740434D+01 -.345279854632430D+01 -.117545823151337D+02
-.140305070532D-04 0.000000000000D+00 0.000000000000D+00 0.261296621374D-02 0.000000000000D+00  5 1 21 25 -24 2 2 0.16720610D+00 0.23446323D-02 0.15152308D+05 0.15152308D+05 0.15152308D+05 0.12473227D+01  1  2 13  4  5  2       -2 -.320065979698D+00 0.100000000000D+01
0.147205708140D-04 0.000000000000D+00 0.000000000000D+00 0.261296621374D-02 0.346687639535D-05  5 1 21 25 -24 2 2 0.17014590D+00 0.23276194D-02 0.15152308D+05 0.15152308D+05 0.15152308D+05 0.12473227D+01  1  2  1  4  5  2       -2 0.329451467711D+00 0.100000000000D+01
  </mgrwgt>
  </event>
  <event>
  4     66 0.47139866E-03 0.12143667E+03 0.75467711E-02 0.10407479E+00
        1 -1    0    0  501    0 0.00000000E+00 0.00000000E+00 0.46125607E+03 0.46125618E+03 0.32000000E+00 0.0000E+00 0.9000E+01
       -2 -1    0    0    0  501 0.00000000E+00 0.00000000E+00 -.32831675E+02 0.32833235E+02 0.32000000E+00 0.0000E+00 0.9000E+01
       25  1    1    2    0    0 -.17429957E+02 -.61256743E+02 0.28614046E+03 0.31868096E+03 0.12500000E+03 0.0000E+00 0.9000E+01
      -24  1    1    2    0    0 0.17429957E+02 0.61256743E+02 0.14228393E+03 0.17540845E+03 0.80419002E+02 0.0000E+00 0.9000E+01
#aMCatNLO 1  0  0  2  1 0.37278994D+03 0.00000000D+00  -5  5  0 0.00000000D+00 0.00000000D+00 0.00000000D+00 0.00000000D+00 0.00000000D+00
  <mgrwgt>
 0.2675972422D+00    5    2    0
 0.123061863295437D+03 0.000000000000000D+00 0.000000000000000D+00 0.123061863295437D+03
 0.123061863295437D+03 0.000000000000000D+00 0.000000000000000D+00 -.123061863295437D+03
 0.141665888540130D+03 -.174299568625461D+02 -.612567425957616D+02 0.196985295438779D+02
 0.104457838050743D+03 0.174299568625461D+02 0.612567425957616D+02 -.196985295438779D+02
 0.000000000000000D+00 0.000000000000000D+00 -.000000000000000D+00 -.000000000000000D+00
 0.303401992580562D+03 0.000000000000000D+00 0.000000000000000D+00 0.303401992580562D+03
 0.657386485257004D+03 0.000000000000000D+00 0.000000000000000D+00 -.657386485257004D+03
 0.228806845379958D+03 -.184701330164483D+03 0.471694717164357D+02 0.196985295438779D+02
 0.217902491108427D+03 -.128118284666477D+03 0.155601904695334D+03 -.196985295438779D+02
 0.514079141349181D+03 0.312819614830960D+03 -.202771376411770D+03 -.353984492676441D+03
0.288602917597D-03 0.000000000000D+00 0.000000000000D+00 0.266700290621D-02 0.000000000000D+00  5 1 -2 25 -24 21 0 0.70962601D-01 0.50511555D-02 0.14746864D+05 0.14746864D+05 0.14746864D+05 0.12486661D+01  1  2  2  2  5  2       -2 0.232758160965D+00 0.100000000000D+01
-.160300500067D-04 0.000000000000D+00 -.110831119447D-05 0.266700290621D-02 0.000000000000D+00  5 1 -2 25 -24 21 2 0.70962601D-01 0.50511555D-02 0.14746864D+05 0.14746864D+05 0.14746864D+05 0.12486661D+01  1  2  3  2  5  2       -2 -.201572690819D-01 0.100000000000D+01
0.199461558800D-04 0.000000000000D+00 0.000000000000D+00 0.266700290621D-02 0.000000000000D+00  5 1 -2 25 -24 21 2 0.70962601D-01 0.50511555D-02 0.14746864D+05 0.14746864D+05 0.14746864D+05 0.12486661D+01  1  2 15  2  5  2       -2 0.250816454755D-01 0.100000000000D+01
0.520298669275D-03 0.000000000000D+00 -.237617893884D-03 0.266700290621D-02 0.000000000000D+00  5 1 -2 25 -24 21 2 0.70962601D-01 0.64153929D-01 0.14746864D+05 0.14746864D+05 0.14746864D+05 0.12486661D+01  1  2  5  2  5  2       -2 0.854733254043D-02 0.100000000000D+01
0.105728495063D-03 0.000000000000D+00 -.697494599398D-04 0.266700290621D-02 0.000000000000D+00  5 1 21 25 -24 2 2 0.70962601D-01 0.64153929D-01 0.14746864D+05 0.14746864D+05 0.14746864D+05 0.12486661D+01  1  2  5  4  5  2       -2 0.213673723212D-01 0.100000000000D+01
  </mgrwgt>
  </event>
  <event>
  5     66 -.47139866E-03 0.10849869E+03 0.75467711E-02 0.12489224E+00
        1 -1    0    0  501    0 0.00000000E+00 0.00000000E+00 0.97076674E+03 0.97076679E+03 0.32000000E+00 0.0000E+00 0.9000E+01
       -2 -1    0    0    0  502 0.00000000E+00 0.00000000E+00 -.14002002E+02 0.14005658E+02 0.32000000E+00 0.0000E+00 0.9000E+01
       25  1    1    2    0    0 -.30125778E+02 -.11157004E+02 0.51685664E+03 0.53272678E+03 0.12500000E+03 0.0000E+00 0.9000E+01
      -24  1    1    2    0    0 0.36812005E+02 -.28501725E+01 0.37726743E+03 0.38750636E+03 0.80419002E+02 0.0000E+00 0.9000E+01
       21  1    1    2  501  502 -.66862270E+01 0.14007176E+02 0.62640669E+02 0.64539310E+02 0.75000000E+00 0.0000E+00 0.9000E+01
#aMCatNLO 2  0  0  2  1 0.15521167D+02 0.00000000D+00  -5  5  0 0.00000000D+00 0.00000000D+00 0.00000000D+00 0.00000000D+00 0.00000000D+00
  <mgrwgt>
 -.5949793880D-01    2    2    0
 0.108547543659393D+03 0.000000000000000D+00 0.000000000000000D+00 0.108547543659393D+03
 0.108547543659393D+03 0.000000000000000D+00 0.000000000000000D+00 -.108547543659393D+03
 0.129639186401594D+03 -.341051285646536D+02 -.282054277530450D+01 -.319427533383582D+01
 0.874559009171923D+02 0.341051285646536D+02 0.282054277530450D+01 0.319427533383582D+01
 0.000000000000000D+00 -.000000000000000D+00 0.000000000000000D+00 -.000000000000000D+00
 0.116443785766974D+03 0.000000000000000D+00 0.000000000000000D+00 0.116443785766974D+03
 0.116729226930666D+03 0.000000000000000D+00 0.000000000000000D+00 -.116729226930666D+03
 0.129101683202077D+03 -.301257776078377D+02 -.111570038193132D+02 -.319427533383582D+01
 0.885475381582959D+02 0.368120045783300D+02 -.285017254582678D+01 0.319427533383582D+01
 0.155237913372670D+02 -.668622697049233D+01 0.140071763651400D+02 -.285441163691847D+00
-.141694935057D-03 0.000000000000D+00 0.000000000000D+00 0.305030811359D-02 0.000000000000D+00  5 1 -2 25 -24 21 2 0.13921060D+00 0.22219058D-02 0.13580783D+05 0.13580783D+05 0.13580783D+05 0.12527738D+01  1  2 13  2  5  2       -2 -.233091317189D+00 0.100000000000D+01
0.113031643657D-03 0.000000000000D+00 0.000000000000D+00 0.305030811359D-02 0.106520364725D-03  5 1 -2 25 -24 21 2 0.14933742D+00 0.21542722D-02 0.13580783D+05 0.13580783D+05 0.13580783D+05 0.12527738D+01  1  2  1  2  5  2       -2 0.173593378387D+00 0.100000000000D+01
  </mgrwgt>
  </event>
  <event>
  5     66 0.47139866E-03 0.13189600E+03 0.75467711E-02 0.11543004E+00
        1 -1    0    0  501    0 0.00000000E+00 0.00000000E+00 0.25753478E+04 0.25753478E+04 0.32000000E+00 0.0000E+00 0.9000E+01
       21 -1    0    0  502  501 0.00000000E+00 0.00000000E+00 -.16172714E+02 0.16190096E+02 0.75000000E+00 0.0000E+00 0.9000E+01
       25  1    1    2    0    0 0.72913003E+02 0.11389239E+03 0.15439184E+04 0.15548623E+04 0.12500000E+03 0.0000E+00 0.9000E+01
      -24  1    1    2    0    0 -.57004428E+02 -.88387604E+01 0.38452702E+03 0.39705903E+03 0.80419002E+02 0.0000E+00 0.9000E+01
        2  1    1    2  502    0 -.15908575E+02 -.10505363E+03 0.63072971E+03 0.63961662E+03 0.32000000E+00 0.0000E+00 0.9000E+01
#aMCatNLO 2  0  0  2  1 0.10625134D+03 0.00000000D+00  -5  5  0 0.00000000D+00 0.00000000D+00 0.00000000D+00 0.00000000D+00 0.00000000D+00
  <mgrwgt>
 0.4252400839D-01    1    2    0
 0.141249636491088D+03 0.000000000000000D+00 0.000000000000000D+00 0.141249636491088D+03
 0.141249636491088D+03 0.000000000000000D+00 0.000000000000000D+00 -.141249636491088D+03
 0.157458145541317D+03 0.634296385460964D+02 0.512681871671137D+02 0.501629498317225D+02
 0.125041127440859D+03 -.634296385460964D+02 -.512681871671137D+02 -.501629498317225D+02
 0.000000000000000D+00 -.000000000000000D+00 -.000000000000000D+00 -.000000000000000D+00
 0.200314226531675D+03 0.000000000000000D+00 0.000000000000000D+00 0.200314226531675D+03
 0.208037218299602D+03 0.000000000000000D+00 0.000000000000000D+00 -.208037218299602D+03
 0.190864099404498D+03 0.729130030496502D+02 0.113892391721097D+03 0.501629498317225D+02
 0.110955693630947D+03 -.570044276720333D+02 -.883876036094009D+01 -.501629498317225D+02
 0.106531651795832D+03 -.159085753776169D+02 -.105053631360157D+03 -.772299176792763D+01
0.209061803661D-04 0.000000000000D+00 0.000000000000D+00 0.220484319238D-02 0.134564134342D-06  5 1 21 25 -24 2 2 0.39620823D+00 0.24894455D-02 0.37903123D+05 0.37903123D+05 0.37903123D+05 0.12043823D+01  1  2  1  4  5  2       -2 0.425240083882D-01 0.100000000000D+01
  </mgrwgt>
  </event>
  <event>
  4     66 0.47139866E-03 0.63327412E+02 0.75467711E-02 0.12113408E+00
        1 -1    0    0  501    0 0.00000000E+00 0.00000000E+00 0.41623077E+03 0.41623089E+03 0.32000000E+00 0.0000E+00 0.9000E+01
       -2 -1    0    0    0  501 0.00000000E+00 0.00000000E+00 -.41950261E+02 0.41951481E+02 0.32000000E+00 0.0000E+00 0.9000E+01
       25  1    1    2    0    0 0.29428545E+02 0.72587563E+02 0.25344347E+03 0.29324663E+03 0.12500000E+03 0.0000E+00 0.9000E+01
      -24  1    1    2    0    0 -.29428545E+02 -.72587563E+02 0.12083704E+03 0.16493574E+03 0.80419002E+02 0.0000E+00 0.9000E+01
#aMCatNLO 1  0  0  2  1 0.22231391D+02 0.00000000D+00  -5  5  0 0.00000000D+00 0.00000000D+00 0.00000000D+00 0.00000000D+00 0.00000000D+00
  <mgrwgt>
 0.1341540697D+00    7    2    0
 0.132141201301211D+03 0.000000000000000D+00 0.000000000000000D+00 0.132141201301211D+03
 0.132141201301211D+03 0.000000000000000D+00 0.000000000000000D+00 -.132141201301211D+03
 0.149466955788554D+03 0.294285448012080D+02 0.725875628800988D+02 0.240910219523513D+02
 0.114815446813868D+03 -.294285448012080D+02 -.725875628800988D+02 -.240910219523513D+02
 0.000000000000000D+00 0.000000000000000D+00 0.000000000000000D+00 -.000000000000000D+00
 0.133179203015516D+03 0.000000000000000D+00 0.000000000000000D+00 0.133179203015516D+03
 0.348884002015952D+03 0.000000000000000D+00 0.000000000000000D+00 -.348884002015952D+03
 0.147403447689374D+03 0.169664740598800D+02 0.723501058049038D+02 0.240910219523513D+02
 0.117812356991269D+03 -.391938299675850D+02 -.727736343687128D+02 -.240910219523513D+02
 0.216847400350825D+03 0.222273559077050D+02 0.423528563808976D+00 -.215704799000437D+03
0.199639766744D-03 0.000000000000D+00 0.000000000000D+00 0.251568074452D-02 0.000000000000D+00  5 1 -2 25 -24 21 0 0.64035607D-01 0.64539896D-02 0.16870406D+05 0.16870406D+05 0.16870406D+05 0.12420462D+01  1  2  2  2  5  2       -2 0.127328837868D+00 0.100000000000D+01
-.110871026967D-04 0.000000000000D+00 -.766669270656D-06 0.251568074452D-02 0.000000000000D+00  5 1 -2 25 -24 21 2 0.64035607D-01 0.64539896D-02 0.16870406D+05 0.16870406D+05 0.16870406D+05 0.12420462D+01  1  2  3  2  5  2       -2 -.109087076123D-01 0.100000000000D+01
0.137978426252D-04 0.000000000000D+00 0.000000000000D+00 0.251568074452D-02 0.000000000000D+00  5 1 -2 25 -24 21 2 0.64035607D-01 0.64539896D-02 0.16870406D+05 0.16870406D+05 0.16870406D+05 0.12420462D+01  1  2 15  2  5  2       -2 0.135758308547D-01 0.100000000000D+01
0.414501804228D-02 0.000000000000D+00 0.000000000000D+00 0.251568074452D-02 0.000000000000D+00  5 1 -2 25 -24 21 2 0.64035607D-01 0.17016843D-01 0.20018820D+05 0.20018820D+05 0.20018820D+05 0.12337811D+01  1  2 12  2  5  2       -2 0.871665221945D+00 0.100000000000D+01
-.412271174566D-02 0.000000000000D+00 -.575301442803D-04 0.251568074452D-02 0.000000000000D+00  5 1 -2 25 -24 21 2 0.64035607D-01 0.17100036D-01 0.16870406D+05 0.16870406D+05 0.16870406D+05 0.12420462D+01  1  2  5  2  5  2       -2 -.869733861945D+00 0.100000000000D+01
0.446346400477D-03 0.000000000000D+00 0.000000000000D+00 0.251568074452D-02 0.000000000000D+00  5 1 21 25 -24 2 2 0.64035607D-01 0.17016843D-01 0.20018820D+05 0.20018820D+05 0.20018820D+05 0.12337811D+01  1  2 12  4  5  2       -2 0.134767561733D+01 0.100000000000D+01
-.443153889959D-03 0.000000000000D+00 -.623156177249D-05 0.251568074452D-02 0.000000000000D+00  5 1 21 25 -24 2 2 0.64035607D-01 0.17100036D-01 0.16870406D+05 0.16870406D+05 0.16870406D+05 0.12420462D+01  1  2  5  4  5  2       -2 -.134544886877D+01 0.100000000000D+01
  </mgrwgt>
  </event>
  <event>
  5     66 0.47139866E-03 0.12470867E+03 0.75467711E-02 0.11210176E+00
        1 -1    0    0  501    0 0.00000000E+00 0.00000000E+00 0.37364586E+04 0.37364587E+04 0.32000000E+00 0.0000E+00 0.9000E+01
       21 -1    0    0  502  501 0.00000000E+00 0.00000000E+00 -.25398626E+02 0.25409697E+02 0.75000000E+00 0.0000E+00 0.9000E+01
       25  1    1    2    0    0 -.17002623E+03 -.60801244E+02 0.27309232E+04 0.27397395E+04 0.12500000E+03 0.0000E+00 0.9000E+01
      -24  1    1    2    0    0 0.10299285E+01 0.19394161E+02 0.57901364E+03 0.58489418E+03 0.80419002E+02 0.0000E+00 0.9000E+01
        2  1    1    2  502    0 0.16899631E+03 0.41407083E+02 0.40112317E+03 0.43723471E+03 0.32000000E+00 0.0000E+00 0.9000E+01
#aMCatNLO 2  0  0  2  2 0.17399511D+03 0.00000000D+00  -5  5  0 0.00000000D+00 0.00000000D+00 0.00000000D+00 0.00000000D+00 0.00000000D+00
  <mgrwgt>
 0.3308035187D-01    1    2    0
 0.129646240336118D+03 0.000000000000000D+00 0.000000000000000D+00 0.129646240336118D+03
 0.129646240336118D+03 0.000000000000000D+00 0.000000000000000D+00 -.129646240336118D+03
 0.147305418153167D+03 -.607123520524628D+02 -.340174100289810D+02 0.350815099512180D+02
 0.111987062519069D+03 0.607123520524628D+02 0.340174100289810D+02 -.350815099512180D+02
 0.000000000000000D+00 0.000000000000000D+00 0.000000000000000D+00 -.000000000000000D+00
 0.175859371898670D+03 0.000000000000000D+00 0.000000000000000D+00 0.175859371898670D+03
 0.539759143666337D+03 0.000000000000000D+00 0.000000000000000D+00 -.539759143666337D+03
 0.222399244516935D+03 -.170026234275229D+03 -.608012440615394D+02 0.350815099512180D+02
 0.898616855312530D+02 0.102992848812993D+01 0.193941609511524D+02 -.350815099512180D+02
 0.403357585516819D+03 0.168996305787099D+03 0.414070831103871D+02 -.363899771767667D+03
0.245761540149D-03 0.000000000000D+00 0.000000000000D+00 0.245583173528D-02 0.275672150470D-06  5 1 21 25 -24 2 2 0.57484046D+00 0.39083323D-02 0.56725181D+05 0.56725181D+05 0.56725181D+05 0.11868918D+01  1  2  1  4  5  2       -2 0.330803518654D-01 0.100000000000D+01
  </mgrwgt>
  </event>
  <event>
  5     66 0.47139866E-03 0.13857585E+03 0.75467711E-02 0.10981904E+00
        1 -1    0    0  501    0 0.00000000E+00 0.00000000E+00 0.92951553E+03 0.92951558E+03 0.32000000E+00 0.0000E+00 0.9000E+01
       -2 -1    0    0    0  502 0.00000000E+00 0.00000000E+00 -.12200931E+03 0.12200973E+03 0.32000000E+00 0.0000E+00 0.9000E+01
       25  1    1    2    0    0 -.60332757E+02 -.20553751E+03 0.59042334E+03 0.64039865E+03 0.12500000E+03 0.0000E+00 0.9000E+01
      -24  1    1    2    0    0 -.45727019E+02 0.28953896E+02 0.17622434E+03 0.20112564E+03 0.80419002E+02 0.0000E+00 0.9000E+01
       21  1    1    2  501  502 0.10605978E+03 0.17658361E+03 0.40858534E+02 0.21000102E+03 0.75000000E+00 0.0000E+00 0.9000E+01
#aMCatNLO 2  0  0  2  2 0.20598652D+03 0.00000000D+00  -5  5  0 0.00000000D+00 0.00000000D+00 0.00000000D+00 0.00000000D+00 0.00000000D+00
  <mgrwgt>
 0.1983344206D-01    1    2    0
 0.139628087834321D+03 0.000000000000000D+00 0.000000000000000D+00 0.139628087834321D+03
 0.139628087834321D+03 0.000000000000000D+00 0.000000000000000D+00 -.139628087834321D+03
 0.156024831834167D+03 0.819083504178832D+01 -.914495488016351D+02 0.169893612056374D+02
 0.123231343834475D+03 -.819083504178832D+01 0.914495488016351D+02 -.169893612056374D+02
 0.000000000000000D+00 0.000000000000000D+00 0.000000000000000D+00 -.000000000000000D+00
 0.200568599017215D+03 0.000000000000000D+00 0.000000000000000D+00 0.200568599017215D+03
 0.565439753277586D+03 0.000000000000000D+00 0.000000000000000D+00 -.565439753277586D+03
 0.248594743942973D+03 -.603327565320446D+02 -.205537507066574D+03 0.169893612056374D+02
 0.984131226361231D+02 -.457270191620462D+02 0.289538957137085D+02 -.169893612056374D+02
 0.419000485715704D+03 0.106059775694091D+03 0.176583611352865D+03 -.364871154260371D+03
0.383340252312D-03 0.000000000000D+00 0.000000000000D+00 0.247139289123D-02 0.914173376512D-06  5 1 -2 25 -24 21 2 0.14300221D+00 0.18770672D-01 0.75882513D+05 0.75882513D+05 0.75882513D+05 0.11747454D+01  1  2  1  2  5  2       -2 0.198334420626D-01 0.100000000000D+01
  </mgrwgt>
  </event>
  <event>
  4     66 0.47139866E-03 0.12080388E+03 0.75467711E-02 0.11290154E+00
        1 -1    0    0  501    0 0.00000000E+00 0.00000000E+00 0.18842550E+04 0.18842550E+04 0.32000000E+00 0.0000E+00 0.9000E+01
       -2 -1    0    0    0  501 0.00000000E+00 0.00000000E+00 -.81441595E+01 0.81504438E+01 0.32000000E+00 0.0000E+00 0.9000E+01
       25  1    1    2    0    0 -.22755637E+01 0.62461670E+02 0.12857388E+04 0.12933120E+04 0.12500000E+03 0.0000E+00 0.9000E+01
      -24  1    1    2    0    0 0.22755637E+01 -.62461670E+02 0.59037205E+03 0.59909349E+03 0.80419002E+02 0.0000E+00 0.9000E+01
#aMCatNLO 1  0  0  2  2 0.16245570D+03 0.00000000D+00  -5  5  0 0.00000000D+00 0.00000000D+00 0.00000000D+00 0.00000000D+00 0.00000000D+00
  <mgrwgt>
 0.3425739725D+00    3    2    0
 0.123901756027856D+03 0.000000000000000D+00 0.000000000000000D+00 0.123901756027856D+03
 0.123901756027856D+03 0.000000000000000D+00 0.000000000000000D+00 -.123901756027856D+03
 0.142379670181814D+03 -.227556366039852D+01 0.624616696035973D+02 0.272090448461637D+02
 0.105423841873898D+03 0.227556366039852D+01 -.624616696035973D+02 -.272090448461637D+02
 0.000000000000000D+00 0.000000000000000D+00 -.000000000000000D+00 0.000000000000000D+00
 0.345407720884181D+03 0.000000000000000D+00 0.000000000000000D+00 0.345407720884181D+03
 0.181603124873602D+03 0.000000000000000D+00 0.000000000000000D+00 -.181603124873602D+03
 0.187898254405257D+03 -.927578063898518D+02 0.101668142703822D+03 0.272090448461637D+02
 0.108409752321071D+03 -.563058362253206D+02 -.370780140982796D+02 -.272090448461637D+02
 0.230702839031455D+03 0.149063642615172D+03 -.645901286055429D+02 0.163804596010580D+03
0.630890605369D-03 0.000000000000D+00 0.000000000000D+00 0.259940813700D-02 0.000000000000D+00  5 1 -2 25 -24 21 0 0.28988587D+00 0.12534331D-02 0.14593577D+05 0.14593577D+05 0.14593577D+05 0.12491848D+01  1  2  2  2  5  2       -2 0.335388382112D+00 0.100000000000D+01
-.350221562401D-04 0.000000000000D+00 -.242278604193D-05 0.259940813700D-02 0.000000000000D+00  5 1 -2 25 -24 21 2 0.28988587D+00 0.12534331D-02 0.14593577D+05 0.14593577D+05 0.14593577D+05 0.12491848D+01  1  2  3  2  5  2       -2 -.290529489939D-01 0.100000000000D+01
0.436840951430D-04 0.000000000000D+00 0.000000000000D+00 0.259940813700D-02 0.000000000000D+00  5 1 -2 25 -24 21 2 0.28988587D+00 0.12534331D-02 0.14593577D+05 0.14593577D+05 0.14593577D+05 0.12491848D+01  1  2 15  2  5  2       -2 0.362385393787D-01 0.100000000000D+01
  </mgrwgt>
  </event>
  <event>
  5     66 0.47139866E-03 0.12191915E+03 0.75467711E-02 0.11382216E+00
        1 -1    0    0  501    0 0.00000000E+00 0.00000000E+00 0.18171221E+03 0.18171249E+03 0.32000000E+00 0.0000E+00 0.9000E+01
       21 -1    0    0  502  501 0.00000000E+00 0.00000000E+00 -.76215310E+03 0.76215346E+03 0.75000000E+00 0.0000E+00 0.9000E+01
       25  1    1    2    0    0 0.83383161E+02 0.99580701E+02 0.30646773E+01 0.18028716E+03 0.12500000E+03 0.0000E+00 0.9000E+01
      -24  1    1    2    0    0 0.49590428E+02 -.41448120E+02 0.49299827E+02 0.11434529E+03 0.80419002E+02 0.0000E+00 0.9000E+01
        2  1    1    2  502    0 -.13297359E+03 -.58132582E+02 -.63280539E+03 0.64923350E+03 0.32000000E+00 0.0000E+00 0.9000E+01
#aMCatNLO 2  0  0  2  2 0.14512537D+03 0.00000000D+00  -5  5  0 0.00000000D+00 0.00000000D+00 0.00000000D+00 0.00000000D+00 0.00000000D+00
  <mgrwgt>
 0.7518092439D-01    1    2    0
 0.125503852980160D+03 0.000000000000000D+00 0.000000000000000D+00 0.125503852980160D+03
 0.125503852980160D+03 0.000000000000000D+00 0.000000000000000D+00 -.125503852980160D+03
 0.143745890631142D+03 0.315001665371258D+01 0.645048653471955D+02 -.294462360066908D+02
 0.107261815329178D+03 -.315001665371258D+01 -.645048653471955D+02 0.294462360066908D+02
 0.000000000000000D+00 -.000000000000000D+00 -.000000000000000D+00 -.000000000000000D+00
 0.151834317046703D+03 0.000000000000000D+00 0.000000000000000D+00 0.151834317046703D+03
 0.912130892639820D+03 0.000000000000000D+00 0.000000000000000D+00 -.912130892639820D+03
 0.182650344978088D+03 0.833831614664301D+02 0.995807013909634D+02 -.294462360066908D+02
 0.107291444189016D+03 0.495904284339362D+02 -.414481197953685D+02 0.294462360066908D+02
 0.774023420519418D+03 -.132973589900366D+03 -.581325815955949D+02 -.760296575593117D+03
0.529607632037D-03 0.000000000000D+00 0.000000000000D+00 0.255790783542D-02 0.108988994671D-05  5 1 21 25 -24 2 2 0.27955769D-01 0.11725435D+00 0.45915501D+05 0.45915501D+05 0.45915501D+05 0.11959646D+01  1  2  1  4  5  2       -2 0.751809243938D-01 0.100000000000D+01
  </mgrwgt>
  </event>
  <event>
  4     66 0.47139866E-03 0.79821130E+02 0.75467711E-02 0.12454187E+00
        1 -1    0    0  501    0 0.00000000E+00 0.00000000E+00 0.10518211E+04 0.10518211E+04 0.32000000E+00 0.0000E+00 0.9000E+01
       -2 -1    0    0    0  501 0.00000000E+00 0.00000000E+00 -.17122350E+02 0.17125340E+02 0.32000000E+00 0.0000E+00 0.9000E+01
       25  1    1    2    0    0 -.19332765E+01 -.16340057E+02 0.25025886E+03 0.28022354E+03 0.12500000E+03 0.0000E+00 0.9000E+01
      -24  1    1    2    0    0 0.19332765E+01 0.16340057E+02 0.78443989E+03 0.78872295E+03 0.80419002E+02 0.0000E+00 0.9000E+01
#aMCatNLO 1  0  0  2  1 0.27366502D+02 0.00000000D+00  -5  5  0 0.00000000D+00 0.00000000D+00 0.00000000D+00 0.00000000D+00 0.00000000D+00
  <mgrwgt>
 0.1943787761D+00    9    2    0
 0.134206085683855D+03 0.000000000000000D+00 0.000000000000000D+00 0.134206085683855D+03
 0.134206085683855D+03 0.000000000000000D+00 0.000000000000000D+00 -.134206085683855D+03
 0.151265267461949D+03 -.193327651549625D+01 -.163400572950792D+02 -.835789812682784D+02
 0.117146903905761D+03 0.193327651549625D+01 0.163400572950792D+02 0.835789812682784D+02
 0.000000000000000D+00 0.000000000000000D+00 0.000000000000000D+00 -.000000000000000D+00
 0.137656059870825D+03 0.000000000000000D+00 0.000000000000000D+00 0.137656059870825D+03
 0.202881500869225D+03 0.000000000000000D+00 0.000000000000000D+00 -.202881500869225D+03
 0.152608968626315D+03 -.170041865105969D+02 -.197461094005159D+02 -.835789812682784D+02
 0.117194699228033D+03 -.968910139452565D+01 0.137133794923797D+02 0.835789812682784D+02
 0.707338928857020D+02 0.266932879051226D+02 0.603272990813621D+01 -.652254409983994D+02
0.284451795764D-03 0.000000000000D+00 0.000000000000D+00 0.167838616353D-02 0.000000000000D+00  5 1 -2 25 -24 21 0 0.16181886D+00 0.26344415D-02 0.10832991D+05 0.10832991D+05 0.10832991D+05 0.12642652D+01  1  2  2  2  5  2       -2 0.180455505945D+00 0.100000000000D+01
-.145613064606D-04 0.000000000000D+00 -.109236979361D-05 0.167838616353D-02 0.000000000000D+00  5 1 -2 25 -24 21 2 0.16181886D+00 0.26344415D-02 0.10832991D+05 0.10832991D+05 0.10832991D+05 0.12642652D+01  1  2  3  2  5  2       -2 -.147651596898D-01 0.100000000000D+01
0.195287509620D-04 0.000000000000D+00 0.000000000000D+00 0.167838616353D-02 0.000000000000D+00  5 1 -2 25 -24 21 2 0.16181886D+00 0.26344415D-02 0.10832991D+05 0.10832991D+05 0.10832991D+05 0.12642652D+01  1  2 15  2  5  2       -2 0.198021466876D-01 0.100000000000D+01
0.894833523706D-03 0.000000000000D+00 0.000000000000D+00 0.167838616353D-02 0.000000000000D+00  5 1 -2 25 -24 21 2 0.16181886D+00 0.40024404D-02 0.14066795D+05 0.14066795D+05 0.14066795D+05 0.12510153D+01  1  2 12  2  5  2       -2 0.483793047277D+00 0.100000000000D+01
-.884401298106D-03 0.000000000000D+00 0.000000000000D+00 0.167838616353D-02 0.000000000000D+00  5 1 -2 25 -24 21 2 0.16181886D+00 0.26344415D-02 0.10832991D+05 0.10832991D+05 0.10832991D+05 0.12642652D+01  1  2  4  2  5  2       -2 -.896782608877D+00 0.100000000000D+01
-.965369631576D-03 0.000000000000D+00 -.104728144024D-03 0.167838616353D-02 0.000000000000D+00  5 1 -2 25 -24 21 2 0.16181886D+00 0.40825880D-02 0.10832991D+05 0.10832991D+05 0.10832991D+05 0.12642652D+01  1  2  5  2  5  2       -2 -.515377003639D+00 0.100000000000D+01
0.929892552557D-03 0.000000000000D+00 0.954249347124D-04 0.167838616353D-02 0.000000000000D+00  5 1 -2 25 -24 21 2 0.16181886D+00 0.26344415D-02 0.10832991D+05 0.10832991D+05 0.10832991D+05 0.12642652D+01  1  2  6  2  5  2       -2 0.942910725078D+00 0.100000000000D+01
0.440175562156D-04 0.000000000000D+00 0.000000000000D+00 0.167838616353D-02 0.000000000000D+00  5 1 21 25 -24 2 2 0.16181886D+00 0.40024404D-02 0.14066795D+05 0.14066795D+05 0.14066795D+05 0.12510153D+01  1  2 12  4  5  2       -2 0.444932676798D+00 0.100000000000D+01
-.451288457465D-04 0.000000000000D+00 -.533285761862D-05 0.167838616353D-02 0.000000000000D+00  5 1 21 25 -24 2 2 0.16181886D+00 0.40825880D-02 0.10832991D+05 0.10832991D+05 0.10832991D+05 0.12642652D+01  1  2  5  4  5  2       -2 -.450590553455D+00 0.100000000000D+01
  </mgrwgt>
  </event>
  <event>
  4     66 0.47139866E-03 0.12553002E+03 0.75467711E-02 0.10369722E+00
        1 -1    0    0  501    0 0.00000000E+00 0.00000000E+00 0.47696231E+03 0.47696242E+03 0.32000000E+00 0.0000E+00 0.9000E+01
       -2 -1    0    0    0  501 0.00000000E+00 0.00000000E+00 -.33386446E+02 0.33387980E+02 0.32000000E+00 0.0000E+00 0.9000E+01
       25  1    1    2    0    0 -.18173153E+00 0.71023075E+02 0.22783944E+03 0.26940698E+03 0.12500000E+03 0.0000E+00 0.9000E+01
      -24  1    1    2    0    0 0.18173153E+00 -.71023075E+02 0.21573643E+03 0.24094342E+03 0.80419002E+02 0.0000E+00 0.9000E+01
#aMCatNLO 1  0  0  2  1 0.38279448D+03 0.00000000D+00  -5  5  0 0.00000000D+00 0.00000000D+00 0.00000000D+00 0.00000000D+00 0.00000000D+00
  <mgrwgt>
 0.2679361849D+00    5    2    0
 0.126192295022058D+03 0.000000000000000D+00 0.000000000000000D+00 0.126192295022058D+03
 0.126192295022058D+03 0.000000000000000D+00 0.000000000000000D+00 -.126192295022058D+03
 0.144334813240046D+03 -.181731526776043D+00 0.710230746231091D+02 -.127760775581332D+02
 0.108049776804071D+03 0.181731526776043D+00 -.710230746231091D+02 0.127760775581332D+02
 0.000000000000000D+00 -.000000000000000D+00 0.000000000000000D+00 -.000000000000000D+00
 0.406760239121826D+03 0.000000000000000D+00 0.000000000000000D+00 0.406760239121826D+03
 0.435629318718699D+03 0.000000000000000D+00 0.000000000000000D+00 -.435629318718699D+03
 0.200416398159586D+03 0.152143571135073D+03 -.350833045159301D+02 -.127760775581332D+02
 0.258091614851636D+03 0.161958097952172D+03 -.183712852169623D+03 0.127760775581332D+02
 0.383881544829304D+03 -.314101669087244D+03 0.218796156685553D+03 -.288690795968729D+02
0.292503399088D-03 0.000000000000D+00 0.000000000000D+00 0.265267049140D-02 0.000000000000D+00  5 1 -2 25 -24 21 0 0.73378944D-01 0.51365026D-02 0.15757785D+05 0.15757785D+05 0.15757785D+05 0.12453898D+01  1  2  2  2  5  2       -2 0.220867800059D+00 0.100000000000D+01
-.162496417711D-04 0.000000000000D+00 -.112329007041D-05 0.265267049140D-02 0.000000000000D+00  5 1 -2 25 -24 21 2 0.73378944D-01 0.51365026D-02 0.15757785D+05 0.15757785D+05 0.15757785D+05 0.12453898D+01  1  2  3  2  5  2       -2 -.190307500807D-01 0.100000000000D+01
0.202340856603D-04 0.000000000000D+00 0.000000000000D+00 0.265267049140D-02 0.000000000000D+00  5 1 -2 25 -24 21 2 0.73378944D-01 0.51365026D-02 0.15757785D+05 0.15757785D+05 0.15757785D+05 0.12453898D+01  1  2 15  2  5  2       -2 0.236971271575D-01 0.100000000000D+01
0.577042903813D-03 0.000000000000D+00 -.213621677918D-03 0.265267049140D-02 0.000000000000D+00  5 1 -2 25 -24 21 2 0.73378944D-01 0.57055238D-01 0.15757785D+05 0.15757785D+05 0.15757785D+05 0.12453898D+01  1  2  5  2  5  2       -2 0.114817905958D-01 0.100000000000D+01
0.125507817959D-03 0.000000000000D+00 -.604625950653D-04 0.265267049140D-02 0.000000000000D+00  5 1 21 25 -24 2 2 0.73378944D-01 0.57055238D-01 0.15757785D+05 0.15757785D+05 0.15757785D+05 0.12453898D+01  1  2  5  4  5  2       -2 0.309202171289D-01 0.100000000000D+01
  </mgrwgt>
  </event>
  <event>
  4     66 0.47139866E-03 0.11527495E+03 0.75467711E-02 0.11618840E+00
        1 -1    0    0  501    0 0.00000000E+00 0.00000000E+00 0.26537566E+03 0.26537585E+03 0.32000000E+00 0.0000E+00 0.9000E+01
       -2 -1    0    0    0  501 0.00000000E+00 0.00000000E+00 -.52697885E+02 0.52698856E+02 0.32000000E+00 0.0000E+00 0.9000E+01
       25  1    1    2    0    0 -.34201052E+02 0.38300689E+02 0.15873796E+03 0.20846917E+03 0.12500000E+03 0.0000E+00 0.9000E+01
      -24  1    1    2    0    0 0.34201052E+02 -.38300689E+02 0.53939816E+02 0.10960554E+03 0.80419002E+02 0.0000E+00 0.9000E+01
#aMCatNLO 1  0  0  2  1 0.11526788D+03 0.00000000D+00  -5  5  0 0.00000000D+00 0.00000000D+00 0.00000000D+00 0.00000000D+00 0.00000000D+00
  <mgrwgt>
 0.1772443858D+00    5    2    0
 0.118257858653041D+03 0.000000000000000D+00 0.000000000000000D+00 0.118257858653041D+03
 0.118257858653041D+03 0.000000000000000D+00 0.000000000000000D+00 -.118257858653041D+03
 0.137617637677321D+03 -.342010515397624D+02 0.383006892671869D+02 0.260184449020152D+02
 0.988980796287614D+02 0.342010515397624D+02 -.383006892671869D+02 -.260184449020152D+02
 0.000000000000000D+00 0.000000000000000D+00 -.000000000000000D+00 -.000000000000000D+00
 0.176649680390581D+03 0.000000000000000D+00 0.000000000000000D+00 0.176649680390581D+03
 0.205213665539316D+03 0.000000000000000D+00 0.000000000000000D+00 -.205213665539316D+03
 0.174851895328966D+03 -.494001520410705D+02 0.108769714550198D+03 0.260184449020152D+02
 0.882571466775153D+02 0.250974724912510D+02 0.390709415264289D+01 -.260184449020152D+02
 0.118754303923416D+03 0.243026795498196D+02 -.112676808702841D+03 -.285639851487350D+02
0.214016861972D-03 0.000000000000D+00 0.000000000000D+00 0.270002632262D-02 0.000000000000D+00  5 1 -2 25 -24 21 0 0.40827114D-01 0.81074564D-02 0.13288314D+05 0.13288314D+05 0.13288314D+05 0.12538664D+01  1  2  2  2  5  2       -2 0.166958128397D+00 0.100000000000D+01
-.118803905126D-04 0.000000000000D+00 -.821881101905D-06 0.270002632262D-02 0.000000000000D+00  5 1 -2 25 -24 21 2 0.40827114D-01 0.81074564D-02 0.13288314D+05 0.13288314D+05 0.13288314D+05 0.12538664D+01  1  2  3  2  5  2       -2 -.145711168149D-01 0.100000000000D+01
0.148306309259D-04 0.000000000000D+00 0.000000000000D+00 0.270002632262D-02 0.000000000000D+00  5 1 -2 25 -24 21 2 0.40827114D-01 0.81074564D-02 0.13288314D+05 0.13288314D+05 0.13288314D+05 0.12538664D+01  1  2 15  2  5  2       -2 0.181895414491D-01 0.100000000000D+01
-.112264876458D-04 0.000000000000D+00 -.613267780973D-04 0.270002632262D-02 0.000000000000D+00  5 1 -2 25 -24 21 2 0.40827114D-01 0.20786372D-01 0.13288314D+05 0.13288314D+05 0.13288314D+05 0.12538664D+01  1  2  5  2  5  2       -2 -.303134584532D-02 0.100000000000D+01
0.256396681987D-05 0.000000000000D+00 -.638215338005D-05 0.270002632262D-02 0.000000000000D+00  5 1 21 25 -24 2 2 0.40827114D-01 0.20786372D-01 0.13288314D+05 0.13288314D+05 0.13288314D+05 0.12538664D+01  1  2  5  4  5  2       -2 0.969917864762D-02 0.100000000000D+01
  </mgrwgt>
  </event>
  <event>
  4     66 0.47139866E-03 0.29092200E+02 0.75467711E-02 0.12514586E+00
        1 -1    0    0  501    0 0.00000000E+00 0.00000000E+00 0.75282950E+03 0.75282957E+03 0.32000000E+00 0.0000E+00 0.9000E+01
       -2 -1    0    0    0  501 0.00000000E+00 0.00000000E+00 -.14925546E+02 0.14928976E+02 0.32000000E+00 0.0000E+00 0.9000E+01
       25  1    1    2    0    0 0.21379503E+02 0.11489489E+02 0.47418942E+03 0.49098849E+03 0.12500000E+03 0.0000E+00 0.9000E+01
      -24  1    1    2    0    0 -.21379503E+02 -.11489489E+02 0.26371454E+03 0.27677006E+03 0.80419002E+02 0.0000E+00 0.9000E+01
#aMCatNLO 1  0  0  2  1 0.18031084D+02 0.00000000D+00  -5  5  0 0.00000000D+00 0.00000000D+00 0.00000000D+00 0.00000000D+00 0.00000000D+00
  <mgrwgt>
 0.1278435970D+00    9    2    0
 0.106008180146789D+03 0.000000000000000D+00 0.000000000000000D+00 0.106008180146789D+03
 0.106008180146789D+03 0.000000000000000D+00 0.000000000000000D+00 -.106008180146789D+03
 0.127605060767107D+03 0.213795025042001D+02 0.114894889484068D+02 0.830421879254507D+01
 0.844112995264713D+02 -.213795025042001D+02 -.114894889484068D+02 -.830421879254507D+01
 0.000000000000000D+00 0.000000000000000D+00 0.000000000000000D+00 -.000000000000000D+00
 0.114551203545756D+03 0.000000000000000D+00 0.000000000000000D+00 0.114551203545756D+03
 0.116351215695940D+03 0.000000000000000D+00 0.000000000000000D+00 -.116351215695940D+03
 0.126084755507265D+03 0.137094618919518D+02 0.393143436999034D+01 0.830421879254507D+01
 0.866969566176446D+02 -.265527778567154D+02 -.165872321599679D+02 -.830421879254507D+01
 0.181207071167867D+02 0.128433159647636D+02 0.126557977899776D+02 -.180001215018392D+01
0.961473304564D-04 0.000000000000D+00 0.000000000000D+00 0.311406430387D-02 0.000000000000D+00  5 1 -2 25 -24 21 0 0.11582019D+00 0.22965069D-02 0.11165768D+05 0.11165768D+05 0.11165768D+05 0.12627082D+01  1  2  2  2  5  2       -2 0.126101154714D+00 0.100000000000D+01
-.534145134315D-05 0.000000000000D+00 -.369231065126D-06 0.311406430387D-02 0.000000000000D+00  5 1 -2 25 -24 21 2 0.11582019D+00 0.22965069D-02 0.11165768D+05 0.11165768D+05 0.11165768D+05 0.12627082D+01  1  2  3  2  5  2       -2 -.111698439189D-01 0.100000000000D+01
0.665368108456D-05 0.000000000000D+00 0.000000000000D+00 0.311406430387D-02 0.000000000000D+00  5 1 -2 25 -24 21 2 0.11582019D+00 0.22965069D-02 0.11165768D+05 0.11165768D+05 0.11165768D+05 0.12627082D+01  1  2 15  2  5  2       -2 0.139139298340D-01 0.100000000000D+01
0.981889673966D-04 0.000000000000D+00 0.000000000000D+00 0.311406430387D-02 0.000000000000D+00  5 1 -2 25 -24 21 2 0.11582019D+00 0.26050386D-02 0.13241152D+05 0.13241152D+05 0.13241152D+05 0.12540451D+01  1  2 12  2  5  2       -2 0.169723293947D+00 0.100000000000D+01
-.829176672344D-04 0.000000000000D+00 0.000000000000D+00 0.311406430387D-02 0.000000000000D+00  5 1 -2 25 -24 21 2 0.11582019D+00 0.22965069D-02 0.11165768D+05 0.11165768D+05 0.11165768D+05 0.12627082D+01  1  2  4  2  5  2       -2 -.173394334540D+00 0.100000000000D+01
-.286342312882D-03 0.000000000000D+00 -.733946684609D-04 0.311406430387D-02 0.000000000000D+00  5 1 -2 25 -24 21 2 0.11582019D+00 0.27282763D-02 0.11165768D+05 0.11165768D+05 0.11165768D+05 0.12627082D+01  1  2  5  2  5  2       -2 -.466306597055D+00 0.100000000000D+01
0.295664077772D-03 0.000000000000D+00 0.723187768447D-04 0.311406430387D-02 0.000000000000D+00  5 1 -2 25 -24 21 2 0.11582019D+00 0.22965069D-02 0.11165768D+05 0.11165768D+05 0.11165768D+05 0.12627082D+01  1  2  6  2  5  2       -2 0.618281697047D+00 0.100000000000D+01
0.194146935848D-05 0.000000000000D+00 0.000000000000D+00 0.311406430387D-02 0.000000000000D+00  5 1 21 25 -24 2 2 0.11582019D+00 0.26050386D-02 0.13241152D+05 0.13241152D+05 0.13241152D+05 0.12540451D+01  1  2 12  4  5  2       -2 0.676509073653D-01 0.100000000000D+01
-.664449657711D-05 0.000000000000D+00 -.187017244220D-05 0.311406430387D-02 0.000000000000D+00  5 1 21 25 -24 2 2 0.11582019D+00 0.27282763D-02 0.11165768D+05 0.11165768D+05 0.11165768D+05 0.12627082D+01  1  2  5  4  5  2       -2 -.216956610390D+00 0.100000000000D+01
  </mgrwgt>
  </event>
  <event>
  5     66 0.47139866E-03 0.12496277E+03 0.75467711E-02 0.12118796E+00
        1 -1    0    0  502    0 0.00000000E+00 0.00000000E+00 0.42597648E+03 0.42597660E+03 0.32000000E+00 0.0000E+00 0.9000E+01
       -2 -1    0    0    0  501 0.00000000E+00 0.00000000E+00 -.49210833E+02 0.49211873E+02 0.32000000E+00 0.0000E+00 0.9000E+01
       25  1    1    2    0    0 0.48940420E+02 -.56742522E+02 0.24331927E+03 0.28362677E+03 0.12500000E+03 0.0000E+00 0.9000E+01
      -24  1    1    2    0    0 -.20012222E+02 0.66119096E+02 0.11278124E+03 0.15478711E+03 0.80419002E+02 0.0000E+00 0.9000E+01
       21  1    1    2  502  501 -.28928198E+02 -.93765735E+01 0.20665143E+02 0.36774602E+02 0.75000000E+00 0.0000E+00 0.9000E+01
#aMCatNLO 2  0  0  1  2 0.30409879D+02 0.00000000D+00  -5  5  0 0.00000000D+00 0.00000000D+00 0.00000000D+00 0.00000000D+00 0.00000000D+00
  <mgrwgt>
 0.7182520673D-01    1    2    0
 0.126959041656113D+03 0.000000000000000D+00 0.000000000000000D+00 0.126959041656113D+03
 0.126959041656113D+03 0.000000000000000D+00 0.000000000000000D+00 -.126959041656113D+03
 0.144991991350304D+03 0.323429374892314D+02 -.621223079619702D+02 0.221907819549572D+02
 0.108926091961922D+03 -.323429374892314D+02 0.621223079619702D+02 -.221907819549572D+02
 0.000000000000000D+00 -.000000000000000D+00 -.000000000000000D+00 -.000000000000000D+00
 0.137106456988341D+03 0.000000000000000D+00 0.000000000000000D+00 0.137106456988341D+03
 0.152886425677605D+03 0.000000000000000D+00 0.000000000000000D+00 -.152886425677605D+03
 0.147418822691725D+03 0.489404196432996D+02 -.567425220199064D+02 0.221907819549572D+02
 0.108313759871142D+03 -.200122219657164D+02 0.661190955116247D+02 -.221907819549572D+02
 0.342603001030794D+02 -.289281976775831D+02 -.937657349171832D+01 -.157799686892637D+02
0.967474895121D-04 0.000000000000D+00 0.000000000000D+00 0.259339319052D-02 0.232394671910D-04  5 1 -2 25 -24 21 2 0.65533030D-01 0.75707669D-02 0.19904297D+05 0.19904297D+05 0.19904297D+05 0.12340554D+01  1  2  1  1  5  1        1 0.718252067340D-01 0.100000000000D+01
  </mgrwgt>
  </event>
  <event>
  5     66 0.47139866E-03 0.10605588E+03 0.75467711E-02 0.12497783E+00
        1 -1    0    0  502    0 0.00000000E+00 0.00000000E+00 0.11154403E+03 0.11154449E+03 0.32000000E+00 0.0000E+00 0.9000E+01
       -2 -1    0    0    0  501 0.00000000E+00 0.00000000E+00 -.16334461E+03 0.16334492E+03 0.32000000E+00 0.0000E+00 0.9000E+01
       25  1    1    2    0    0 0.20594680E+01 0.15199245E+02 -.73900530E+02 0.14601899E+03 0.12500000E+03 0.0000E+00 0.9000E+01
      -24  1    1    2    0    0 -.13358803E+02 -.30569186E+02 -.13856673E+02 0.88159833E+02 0.80419002E+02 0.0000E+00 0.9000E+01
       21  1    1    2  502  501 0.11299335E+02 0.15369941E+02 0.35956627E+02 0.40710583E+02 0.75000000E+00 0.0000E+00 0.9000E+01
#aMCatNLO 2  0  0  1  2 0.19076426D+02 0.00000000D+00  -5  5  0 0.00000000D+00 0.00000000D+00 0.00000000D+00 0.00000000D+00 0.00000000D+00
  <mgrwgt>
 0.2579878202D-02    2    2    0
 0.108137049986697D+03 0.000000000000000D+00 0.000000000000000D+00 0.108137049986697D+03
 0.108137049986697D+03 0.000000000000000D+00 0.000000000000000D+00 -.108137049986697D+03
 0.129308757664029D+03 0.875828479217446D+01 0.243113227442949D+02 -.206883262381594D+02
 0.869653423093657D+02 -.875828479217446D+01 -.243113227442949D+02 0.206883262381594D+02
 0.000000000000000D+00 0.000000000000000D+00 0.000000000000000D+00 0.000000000000000D+00
 0.165394347131543D+03 0.000000000000000D+00 0.000000000000000D+00 0.165394347131543D+03
 0.110157554583274D+03 0.000000000000000D+00 0.000000000000000D+00 -.110157554583274D+03
 0.127625488443331D+03 0.205946800662004D+01 0.151992450270365D+02 -.206883262381594D+02
 0.894882982195682D+02 -.133588027338485D+02 -.305691856424971D+02 0.206883262381594D+02
 0.584381150519179D+02 0.112993347272285D+02 0.153699406154606D+02 0.552367925482686D+02
-.142398266576D-02 0.000000000000D+00 0.000000000000D+00 0.297101301073D-02 0.000000000000D+00  5 1 -2 25 -24 21 2 0.17220017D-01 0.24668534D-01 0.13465049D+05 0.13465049D+05 0.13465049D+05 0.12532030D+01  1  2 13  1  5  1        1 -.841047819347D+00 0.100000000000D+01
0.146855012937D-02 0.000000000000D+00 0.000000000000D+00 0.297101301073D-02 0.748681045326D-04  5 1 -2 25 -24 21 2 0.17160310D-01 0.25129458D-01 0.13465049D+05 0.13465049D+05 0.13465049D+05 0.12532030D+01  1  2  1  1  5  1        1 0.843627697549D+00 0.100000000000D+01
  </mgrwgt>
  </event>
  <event>
  4     66 0.47139866E-03 0.46223358E+02 0.75467711E-02 0.12648695E+00
        1 -1    0    0  501    0 0.00000000E+00 0.00000000E+00 0.48576420E+03 0.48576430E+03 0.32000000E+00 0.0000E+00 0.9000E+01
       -2 -1    0    0    0  501 0.00000000E+00 0.00000000E+00 -.22284835E+02 0.22287132E+02 0.32000000E+00 0.0000E+00 0.9000E+01
       25  1    1    2    0    0 0.25424009E+01 0.13149133E+02 0.25830703E+03 0.28727493E+03 0.12500000E+03 0.0000E+00 0.9000E+01
      -24  1    1    2    0    0 -.25424009E+01 -.13149133E+02 0.20517234E+03 0.22077651E+03 0.80419002E+02 0.0000E+00 0.9000E+01
#aMCatNLO 1  0  0  1  2 0.80237728D+01 0.00000000D+00  -5  5  0 0.00000000D+00 0.00000000D+00 0.00000000D+00 0.00000000D+00 0.00000000D+00
  <mgrwgt>
 0.2078836742D+00   11    2    0
 0.104047034581481D+03 0.000000000000000D+00 0.000000000000000D+00 0.104047034581481D+03
 0.104047034581481D+03 0.000000000000000D+00 0.000000000000000D+00 -.104047034581481D+03
 0.126050987126755D+03 0.254240091537591D+01 0.131491325134762D+02 -.919172820299864D+01
 0.820430820362070D+02 -.254240091537591D+01 -.131491325134762D+02 0.919172820299864D+01
 0.000000000000000D+00 -.000000000000000D+00 0.000000000000000D+00 0.000000000000000D+00
 0.141273863431252D+03 0.000000000000000D+00 0.000000000000000D+00 0.141273863431252D+03
 0.104557607363132D+03 0.000000000000000D+00 0.000000000000000D+00 -.104557607363132D+03
 0.126188815250975D+03 0.737661136904281D+01 0.126378333505768D+02 -.919172820299864D+01
 0.820598883491193D+02 0.602655048974052D+00 -.134817751440063D+02 0.919172820299864D+01
 0.375827671942896D+02 -.797926641801686D+01 0.843941793429434D+00 0.367162560681203D+02
0.115095234028D-03 0.000000000000D+00 0.000000000000D+00 0.317509696407D-02 0.000000000000D+00  5 1 -2 25 -24 21 0 0.74733138D-01 0.34286210D-02 0.10737308D+05 0.10737308D+05 0.10737308D+05 0.12647228D+01  1  2  2  1  5  1        1 0.152319869380D+00 0.100000000000D+01
-.639404877558D-05 0.000000000000D+00 -.441996003941D-06 0.317509696407D-02 0.000000000000D+00  5 1 -2 25 -24 21 2 0.74733138D-01 0.34286210D-02 0.10737308D+05 0.10737308D+05 0.10737308D+05 0.12647228D+01  1  2  3  1  5  1        1 -.135352376866D-01 0.100000000000D+01
0.796278079084D-05 0.000000000000D+00 0.000000000000D+00 0.317509696407D-02 0.000000000000D+00  5 1 -2 25 -24 21 2 0.74733138D-01 0.34286210D-02 0.10737308D+05 0.10737308D+05 0.10737308D+05 0.12647228D+01  1  2 15  1  5  1        1 0.168560069579D-01 0.100000000000D+01
0.211462343181D-02 0.000000000000D+00 0.000000000000D+00 0.317509696407D-02 0.000000000000D+00  5 1 -2 25 -24 21 2 0.10160727D+00 0.34286210D-02 0.11601535D+05 0.11601535D+05 0.11601535D+05 0.12607466D+01  1  2 12  1  5  1        1 0.296468805926D+01 0.100000000000D+01
-.204447010119D-02 0.000000000000D+00 0.000000000000D+00 0.317509696407D-02 0.000000000000D+00  5 1 -2 25 -24 21 2 0.74733138D-01 0.34286210D-02 0.10737308D+05 0.10737308D+05 0.10737308D+05 0.12647228D+01  1  2  4  1  5  1        1 -.432783510635D+01 0.100000000000D+01
-.221805134519D-02 0.000000000000D+00 -.655614897479D-04 0.317509696407D-02 0.000000000000D+00  5 1 -2 25 -24 21 2 0.10167472D+00 0.34286210D-02 0.10737308D+05 0.10737308D+05 0.10737308D+05 0.12647228D+01  1  2  5  1  5  1        1 -.311788791551D+01 0.100000000000D+01
0.213905606796D-02 0.000000000000D+00 0.625728340685D-04 0.317509696407D-02 0.000000000000D+00  5 1 -2 25 -24 21 2 0.74733138D-01 0.34286210D-02 0.10737308D+05 0.10737308D+05 0.10737308D+05 0.12647228D+01  1  2  6  1  5  1        1 0.452805934407D+01 0.100000000000D+01
0.101424650994D-04 0.000000000000D+00 0.000000000000D+00 0.317509696407D-02 0.437798599035D-03  5 1 -2 25 -24 21 2 0.10147179D+00 0.34454457D-02 0.11601535D+05 0.11601535D+05 0.11601535D+05 0.12607466D+01  1  2 11  1  5  1        1 0.141440295964D-01 0.100000000000D+01
0.831514354217D-04 0.000000000000D+00 0.000000000000D+00 0.317509696407D-02 0.000000000000D+00  5 21 -2 25 -24 -1 2 0.10160727D+00 0.34286210D-02 0.11601535D+05 0.11601535D+05 0.11601535D+05 0.12607466D+01  1  2 12  3  5  1        1 0.279861157751D+00 0.100000000000D+01
-.858244956680D-04 0.000000000000D+00 -.258203243350D-05 0.317509696407D-02 0.000000000000D+00  5 21 -2 25 -24 -1 2 0.10167472D+00 0.34286210D-02 0.10737308D+05 0.10737308D+05 0.10737308D+05 0.12647228D+01  1  2  5  3  5  1        1 -.290131589860D+00 0.100000000000D+01
0.401265800128D-06 0.000000000000D+00 0.000000000000D+00 0.317509696407D-02 0.172864083249D-04  5 21 -2 25 -24 -1 2 0.10147179D+00 0.34454457D-02 0.11601535D+05 0.11601535D+05 0.11601535D+05 0.12607466D+01  1  2 11  3  5  1        1 0.134505654352D-02 0.100000000000D+01
  </mgrwgt>
  </event>
  <event>
  5     66 0.47139866E-03 0.15347706E+03 0.75467711E-02 0.11570488E+00
        1 -1    0    0  502    0 0.00000000E+00 0.00000000E+00 0.10047482E+04 0.10047483E+04 0.32000000E+00 0.0000E+00 0.9000E+01
       -2 -1    0    0    0  501 0.00000000E+00 0.00000000E+00 -.45344058E+02 0.45345187E+02 0.32000000E+00 0.0000E+00 0.9000E+01
       25  1    1    2    0    0 0.72621807E+02 -.30159296E+02 0.60810209E+03 0.62577684E+03 0.12500000E+03 0.0000E+00 0.9000E+01
      -24  1    1    2    0    0 -.13997807E+03 0.42636231E+02 0.27547495E+03 0.32212633E+03 0.80419002E+02 0.0000E+00 0.9000E+01
       21  1    1    2  502  501 0.67356260E+02 -.12476935E+02 0.75827132E+02 0.10219029E+03 0.75000000E+00 0.0000E+00 0.9000E+01
#aMCatNLO 2  0  0  1  2 0.68502114D+02 0.00000000D+00  -5  5  0 0.00000000D+00 0.00000000D+00 0.00000000D+00 0.00000000D+00 0.00000000D+00
  <mgrwgt>
 0.3061133729D-01    1    2    0
 0.168166214302654D+03 0.000000000000000D+00 0.000000000000000D+00 0.168166214302654D+03
 0.168166214302654D+03 0.000000000000000D+00 0.000000000000000D+00 -.168166214302654D+03
 0.181780399654338D+03 0.106772849771449D+03 -.364853649268950D+02 0.684652495527902D+02
 0.154552028950970D+03 -.106772849771449D+03 0.364853649268950D+02 -.684652495527902D+02
 0.000000000000000D+00 0.000000000000000D+00 -.000000000000000D+00 -.000000000000000D+00
 0.188298378955217D+03 0.000000000000000D+00 0.000000000000000D+00 0.188298378955217D+03
 0.241952373823738D+03 0.000000000000000D+00 0.000000000000000D+00 -.241952373823738D+03
 0.162775920650607D+03 0.726218066659985D+02 -.301592961438602D+02 0.684652495527902D+02
 0.180461667808411D+03 -.139978066233072D+03 0.426362307333412D+02 -.684652495527902D+02
 0.870131643199377D+02 0.673562595670735D+02 -.124769345894810D+02 -.536539948685214D+02
0.129140588326D-03 0.000000000000D+00 0.000000000000D+00 0.193649451732D-02 0.349505027990D-05  5 1 -2 25 -24 21 2 0.15457548D+00 0.69760429D-02 0.36700787D+05 0.36700787D+05 0.36700787D+05 0.12058153D+01  1  2  1  1  5  1        1 0.306113372870D-01 0.100000000000D+01
  </mgrwgt>
  </event>
  <event>
  4     66 0.47139866E-03 0.82395641E+02 0.75467711E-02 0.11480189E+00
        1 -1    0    0  501    0 0.00000000E+00 0.00000000E+00 0.10379716E+03 0.10379765E+03 0.32000000E+00 0.0000E+00 0.9000E+01
       -2 -1    0    0    0  501 0.00000000E+00 0.00000000E+00 -.26457340E+03 0.26457359E+03 0.32000000E+00 0.0000E+00 0.9000E+01
       25  1    1    2    0    0 0.98527206E+00 0.11384456E+03 -.15419494E+03 0.22882883E+03 0.12500000E+03 0.0000E+00 0.9000E+01
      -24  1    1    2    0    0 -.98527206E+00 -.11384456E+03 -.65812982E+01 0.13954241E+03 0.80419002E+02 0.0000E+00 0.9000E+01
#aMCatNLO 1  0  0  1  2 0.84196013D+02 0.00000000D+00  -5  5  0 0.00000000D+00 0.00000000D+00 0.00000000D+00 0.00000000D+00 0.00000000D+00
  <mgrwgt>
 0.6454325011D-01    7    2    0
 0.165716909351774D+03 0.000000000000000D+00 0.000000000000000D+00 0.165716909351774D+03
 0.165716909351774D+03 0.000000000000000D+00 0.000000000000000D+00 -.165716909351774D+03
 0.179532313104854D+03 0.985272060949924D+00 0.113844563657565D+03 -.603762868464441D+02
 0.151901505598694D+03 -.985272060949924D+00 -.113844563657565D+03 0.603762868464441D+02
 0.000000000000000D+00 0.000000000000000D+00 0.000000000000000D+00 0.000000000000000D+00
 0.403484171417704D+03 0.000000000000000D+00 0.000000000000000D+00 0.403484171417704D+03
 0.178602941142065D+03 0.000000000000000D+00 0.000000000000000D+00 -.178602941142065D+03
 0.165918973540489D+03 -.314106166908659D+02 0.852770949696625D+02 -.603762868464441D+02
 0.176042054687415D+03 -.317393132430583D+02 -.140964211932289D+03 0.603762868464441D+02
 0.240126084331865D+03 0.631499299339242D+02 0.556871169626261D+02 0.224881230275639D+03
0.894936038729D-03 0.000000000000D+00 0.000000000000D+00 0.201931117286D-02 0.000000000000D+00  5 1 -2 25 -24 21 0 0.15968847D-01 0.40703653D-01 0.23787312D+05 0.23787312D+05 0.23787312D+05 0.12256197D+01  1  2  2  1  5  1        1 0.151660099364D+00 0.100000000000D+01
-.494067953939D-04 0.000000000000D+00 -.343679003079D-05 0.201931117286D-02 0.000000000000D+00  5 1 -2 25 -24 21 2 0.15968847D-01 0.40703653D-01 0.23787312D+05 0.23787312D+05 0.23787312D+05 0.12256197D+01  1  2  3  1  5  1        1 -.125770114210D-01 0.100000000000D+01
0.618560237130D-04 0.000000000000D+00 0.000000000000D+00 0.201931117286D-02 0.000000000000D+00  5 1 -2 25 -24 21 2 0.15968847D-01 0.40703653D-01 0.23787312D+05 0.23787312D+05 0.23787312D+05 0.12256197D+01  1  2 15  1  5  1        1 0.157460914130D-01 0.100000000000D+01
0.118280015894D-02 0.000000000000D+00 0.000000000000D+00 0.201931117286D-02 0.000000000000D+00  5 1 -2 25 -24 21 2 0.38557614D-01 0.40703653D-01 0.40825145D+05 0.40825145D+05 0.40825145D+05 0.12011008D+01  1  2 12  1  5  1        1 0.952345931400D-01 0.100000000000D+01
-.203594786406D-02 0.000000000000D+00 -.332088322853D-03 0.201931117286D-02 0.000000000000D+00  5 1 -2 25 -24 21 2 0.41056214D-01 0.40703653D-01 0.23787312D+05 0.23787312D+05 0.23787312D+05 0.12256197D+01  1  2  5  1  5  1        1 -.157533555847D+00 0.100000000000D+01
0.114172170730D-03 0.000000000000D+00 0.000000000000D+00 0.201931117286D-02 0.000000000000D+00  5 21 -2 25 -24 -1 2 0.38557614D-01 0.40703653D-01 0.40825145D+05 0.40825145D+05 0.40825145D+05 0.12011008D+01  1  2 12  3  5  1        1 0.495947618326D-01 0.100000000000D+01
-.192433641247D-03 0.000000000000D+00 -.346784932373D-04 0.201931117286D-02 0.000000000000D+00  5 21 -2 25 -24 -1 2 0.41056214D-01 0.40703653D-01 0.23787312D+05 0.23787312D+05 0.23787312D+05 0.12256197D+01  1  2  5  3  5  1        1 -.775817283679D-01 0.100000000000D+01
  </mgrwgt>
  </event>
  <event>
  4     66 0.47139866E-03 0.12657146E+03 0.75467711E-02 0.12314695E+00
        1 -1    0    0  501    0 0.00000000E+00 0.00000000E+00 0.75860588E+03 0.75860595E+03 0.32000000E+00 0.0000E+00 0.9000E+01
       -2 -1    0    0    0  501 0.00000000E+00 0.00000000E+00 -.34754591E+02 0.34756064E+02 0.32000000E+00 0.0000E+00 0.9000E+01
       25  1    1    2    0    0 -.62468982E+02 0.37403685E+02 0.64028815E+03 0.65642618E+03 0.12500000E+03 0.0000E+00 0.9000E+01
      -24  1    1    2    0    0 0.62468982E+02 -.37403685E+02 0.83563142E+02 0.13693584E+03 0.80419002E+02 0.0000E+00 0.9000E+01
#aMCatNLO 1  0  0  2  1 0.15494057D+01 0.00000000D+00  -5  5  0 0.00000000D+00 0.00000000D+00 0.00000000D+00 0.00000000D+00 0.00000000D+00
  <mgrwgt>
 0.2452888808D+00    6    2    0
 0.162375023930347D+03 0.000000000000000D+00 0.000000000000000D+00 0.162375023930347D+03
 0.162375023930347D+03 0.000000000000000D+00 0.000000000000000D+00 -.162375023930347D+03
 0.176474766341405D+03 -.624689820428949D+02 0.374036846609967D+02 0.101078849476826D+03
 0.148275281519288D+03 0.624689820428949D+02 -.374036846609967D+02 -.101078849476826D+03
 0.000000000000000D+00 0.000000000000000D+00 -.000000000000000D+00 0.000000000000000D+00
 0.163940698177209D+03 0.000000000000000D+00 0.000000000000000D+00 0.163940698177209D+03
 0.162760651564320D+03 0.000000000000000D+00 0.000000000000000D+00 -.162760651564320D+03
 0.176703725985958D+03 -.626135518892756D+02 0.382337035293542D+02 0.101078849476826D+03
 0.148050018016523D+03 0.623476844441925D+02 -.367072787497374D+02 -.101078849476826D+03
 0.194760573904812D+01 0.265867445083163D+00 -.152642477961677D+01 0.118004661288867D+01
0.501528410190D-03 0.000000000000D+00 0.000000000000D+00 0.148886134206D-02 0.000000000000D+00  5 1 -2 25 -24 21 0 0.11670872D+00 0.53469787D-02 0.16020335D+05 0.16020335D+05 0.16020335D+05 0.12445775D+01  1  2  2  2  5  2       -2 0.189299089776D+00 0.100000000000D+01
-.257605701210D-04 0.000000000000D+00 -.192600115059D-05 0.148886134206D-02 0.000000000000D+00  5 1 -2 25 -24 21 2 0.11670872D+00 0.53469787D-02 0.16020335D+05 0.16020335D+05 0.16020335D+05 0.12445775D+01  1  2  3  2  5  2       -2 -.150609481305D-01 0.100000000000D+01
0.344220378076D-04 0.000000000000D+00 0.000000000000D+00 0.148886134206D-02 0.000000000000D+00  5 1 -2 25 -24 21 2 0.11670872D+00 0.53469787D-02 0.16020335D+05 0.16020335D+05 0.16020335D+05 0.12445775D+01  1  2 15  2  5  2       -2 0.201248855726D-01 0.100000000000D+01
-.165045259312D-02 0.000000000000D+00 0.000000000000D+00 0.148886134206D-02 0.000000000000D+00  5 1 -2 25 -24 21 2 0.11670872D+00 0.53469787D-02 0.16020335D+05 0.16020335D+05 0.16020335D+05 0.12445775D+01  1  2  4  2  5  2       -2 -.964939082488D+00 0.100000000000D+01
0.165057258562D-02 0.000000000000D+00 0.000000000000D+00 0.148886134206D-02 0.511905291757D-02  5 1 -2 25 -24 21 2 0.11783406D+00 0.53596773D-02 0.16213370D+05 0.16213370D+05 0.16213370D+05 0.12439896D+01  1  2 11  2  5  2       -2 0.947424542605D+00 0.100000000000D+01
0.673389542713D-05 0.000000000000D+00 0.000000000000D+00 0.148886134206D-02 0.228574090828D-05  5 1 21 25 -24 2 2 0.11783406D+00 0.53596773D-02 0.16213370D+05 0.16213370D+05 0.16213370D+05 0.12439896D+01  1  2 11  4  5  2       -2 0.684403934663D-01 0.100000000000D+01
  </mgrwgt>
  </event>
  <event>
  4     66 0.47139866E-03 0.82716059E+02 0.75467711E-02 0.12242296E+00
        1 -1    0    0  501    0 0.00000000E+00 0.00000000E+00 0.57694756E+02 0.57695644E+02 0.32000000E+00 0.0000E+00 0.9000E+01
       -2 -1    0    0    0  501 0.00000000E+00 0.00000000E+00 -.27472301E+03 0.27472320E+03 0.32000000E+00 0.0000E+00 0.9000E+01
       25  1    1    2    0    0 0.91385390E+01 0.64779651E+02 -.16278940E+03 0.21541890E+03 0.12500000E+03 0.0000E+00 0.9000E+01
      -24  1    1    2    0    0 -.91385390E+01 -.64779651E+02 -.54238860E+02 0.11699994E+03 0.80419002E+02 0.0000E+00 0.9000E+01
#aMCatNLO 1  0  0  2  1 0.18920684D+02 0.00000000D+00  -5  5  0 0.00000000D+00 0.00000000D+00 0.00000000D+00 0.00000000D+00 0.00000000D+00
  <mgrwgt>
 0.1892151108D+00    9    2    0
 0.125897798688837D+03 0.000000000000000D+00 0.000000000000000D+00 0.125897798688837D+03
 0.125897798688837D+03 0.000000000000000D+00 0.000000000000000D+00 -.125897798688837D+03
 0.144082755338205D+03 0.913853904307576D+01 0.647796508757013D+02 -.292390889466390D+02
 0.107712842039469D+03 -.913853904307576D+01 -.647796508757013D+02 0.292390889466390D+02
 0.000000000000000D+00 0.000000000000000D+00 -.000000000000000D+00 -.000000000000000D+00
 0.132605685691179D+03 0.000000000000000D+00 0.000000000000000D+00 0.132605685691179D+03
 0.140340382235077D+03 0.000000000000000D+00 0.000000000000000D+00 -.140340382235077D+03
 0.144895786451561D+03 -.143507842631587D+01 0.671774155419603D+02 -.292390889466390D+02
 0.107609689029037D+03 -.170171104482700D+02 -.629930380924549D+02 0.292390889466390D+02
 0.204405924456585D+02 0.184521888745859D+02 -.418437744950542D+01 -.773469654389817D+01
0.372470071666D-03 0.000000000000D+00 0.000000000000D+00 0.255448760230D-02 0.000000000000D+00  5 1 -2 25 -24 21 0 0.88761990D-02 0.42265161D-01 0.14976027D+05 0.14976027D+05 0.14976027D+05 0.12479017D+01  1  2  2  2  5  2       -2 0.125384232878D+00 0.100000000000D+01
-.206725356770D-04 0.000000000000D+00 -.143038314882D-05 0.255448760230D-02 0.000000000000D+00  5 1 -2 25 -24 21 2 0.88761990D-02 0.42265161D-01 0.14976027D+05 0.14976027D+05 0.14976027D+05 0.12479017D+01  1  2  3  2  5  2       -2 -.108369250325D-01 0.100000000000D+01
0.257667600058D-04 0.000000000000D+00 0.000000000000D+00 0.255448760230D-02 0.000000000000D+00  5 1 -2 25 -24 21 2 0.88761990D-02 0.42265161D-01 0.14976027D+05 0.14976027D+05 0.14976027D+05 0.12479017D+01  1  2 15  2  5  2       -2 0.135074115181D-01 0.100000000000D+01
0.537243917211D-03 0.000000000000D+00 0.000000000000D+00 0.255448760230D-02 0.000000000000D+00  5 1 -2 25 -24 21 2 0.88761990D-02 0.48141291D-01 0.17476426D+05 0.17476426D+05 0.17476426D+05 0.12403275D+01  1  2 12  2  5  2       -2 0.217393780619D+00 0.100000000000D+01
-.513339843255D-03 0.000000000000D+00 0.000000000000D+00 0.255448760230D-02 0.000000000000D+00  5 1 -2 25 -24 21 2 0.88761990D-02 0.42265161D-01 0.14976027D+05 0.14976027D+05 0.14976027D+05 0.12479017D+01  1  2  4  2  5  2       -2 -.269102227441D+00 0.100000000000D+01
-.136800915588D-02 0.000000000000D+00 -.302100216177D-03 0.255448760230D-02 0.000000000000D+00  5 1 -2 25 -24 21 2 0.88761990D-02 0.49291887D-01 0.14976027D+05 0.14976027D+05 0.14976027D+05 0.12479017D+01  1  2  5  2  5  2       -2 -.532323274938D+00 0.100000000000D+01
0.140140242466D-02 0.000000000000D+00 0.298562256233D-03 0.255448760230D-02 0.000000000000D+00  5 1 -2 25 -24 21 2 0.88761990D-02 0.42265161D-01 0.14976027D+05 0.14976027D+05 0.14976027D+05 0.12479017D+01  1  2  6  2  5  2       -2 0.734641035510D+00 0.100000000000D+01
0.109107927021D-04 0.000000000000D+00 0.000000000000D+00 0.255448760230D-02 0.000000000000D+00  5 1 21 25 -24 2 2 0.88761990D-02 0.48141291D-01 0.17476426D+05 0.17476426D+05 0.17476426D+05 0.12403275D+01  1  2 12  4  5  2       -2 0.552866206380D-01 0.100000000000D+01
-.296491058653D-04 0.000000000000D+00 -.703172516456D-05 0.255448760230D-02 0.000000000000D+00  5 1 21 25 -24 2 2 0.88761990D-02 0.49291887D-01 0.14976027D+05 0.14976027D+05 0.14976027D+05 0.12479017D+01  1  2  5  4  5  2       -2 -.144735542939D+00 0.100000000000D+01
  </mgrwgt>
  </event>
  <event>
  4     66 0.47139866E-03 0.10895468E+03 0.75467711E-02 0.11551877E+00
        1 -1    0    0  501    0 0.00000000E+00 0.00000000E+00 0.10717722E+04 0.10717723E+04 0.32000000E+00 0.0000E+00 0.9000E+01
       -2 -1    0    0    0  501 0.00000000E+00 0.00000000E+00 -.24962436E+02 0.24964487E+02 0.32000000E+00 0.0000E+00 0.9000E+01
       25  1    1    2    0    0 -.12280209E+03 0.61302058E+01 0.66224585E+03 0.68506386E+03 0.12500000E+03 0.0000E+00 0.9000E+01
      -24  1    1    2    0    0 0.12280209E+03 -.61302058E+01 0.38456395E+03 0.41167291E+03 0.80419002E+02 0.0000E+00 0.9000E+01
#aMCatNLO 1  0  0  2  1 0.59594911D+02 0.00000000D+00  -5  5  0 0.00000000D+00 0.00000000D+00 0.00000000D+00 0.00000000D+00 0.00000000D+00
  <mgrwgt>
 0.2686739595D+00    9    2    0
 0.163570159197968D+03 0.000000000000000D+00 0.000000000000000D+00 0.163570159197968D+03
 0.163570159197968D+03 0.000000000000000D+00 0.000000000000000D+00 -.163570159197968D+03
 0.177566880987768D+03 -.122802094465997D+03 0.613020580948500D+01 0.280546501532623D+02
 0.149573437408167D+03 0.122802094465997D+03 -.613020580948500D+01 -.280546501532623D+02
 0.000000000000000D+00 -.000000000000000D+00 -.000000000000000D+00 -.000000000000000D+00
 0.186729910141629D+03 0.000000000000000D+00 0.000000000000000D+00 0.186729910141629D+03
 0.209641838475470D+03 0.000000000000000D+00 0.000000000000000D+00 -.209641838475470D+03
 0.168247647818753D+03 -.104444608153151D+03 0.314090978707743D+02 0.280546501532623D+02
 0.164276548824539D+03 0.139462750241329D+03 0.168120920540399D+02 -.280546501532623D+02
 0.638475519738062D+02 -.350181420881780D+02 -.482211899248142D+02 -.229119283338409D+02
0.582930810776D-03 0.000000000000D+00 0.000000000000D+00 0.225269556883D-02 0.000000000000D+00  5 1 -2 25 -24 21 0 0.16488820D+00 0.38405362D-02 0.25962149D+05 0.25962149D+05 0.25962149D+05 0.12215432D+01  1  2  2  2  5  2       -2 0.209119086362D+00 0.100000000000D+01
-.323761328818D-04 0.000000000000D+00 -.223860780259D-05 0.225269556883D-02 0.000000000000D+00  5 1 -2 25 -24 21 2 0.16488820D+00 0.38405362D-02 0.25962149D+05 0.25962149D+05 0.25962149D+05 0.12215432D+01  1  2  3  2  5  2       -2 -.173308270723D-01 0.100000000000D+01
0.402947250282D-04 0.000000000000D+00 0.000000000000D+00 0.225269556883D-02 0.000000000000D+00  5 1 -2 25 -24 21 2 0.16488820D+00 0.38405362D-02 0.25962149D+05 0.25962149D+05 0.25962149D+05 0.12215432D+01  1  2 15  2  5  2       -2 0.215696208667D-01 0.100000000000D+01
0.309030739463D-03 0.000000000000D+00 0.000000000000D+00 0.225269556883D-02 0.000000000000D+00  5 1 -2 25 -24 21 2 0.16488820D+00 0.51331127D-02 0.37510073D+05 0.37510073D+05 0.37510073D+05 0.12048451D+01  1  2 12  2  5  2       -2 0.104461282071D+00 0.100000000000D+01
-.345121551597D-03 0.000000000000D+00 0.000000000000D+00 0.225269556883D-02 0.000000000000D+00  5 1 -2 25 -24 21 2 0.16488820D+00 0.38405362D-02 0.25962149D+05 0.25962149D+05 0.25962149D+05 0.12215432D+01  1  2  4  2  5  2       -2 -.184742320878D+00 0.100000000000D+01
-.592160163714D-03 0.000000000000D+00 -.232796837016D-03 0.225269556883D-02 0.000000000000D+00  5 1 -2 25 -24 21 2 0.16488820D+00 0.56480093D-02 0.25962149D+05 0.25962149D+05 0.25962149D+05 0.12215432D+01  1  2  5  2  5  2       -2 -.177530356139D+00 0.100000000000D+01
0.649351304692D-03 0.000000000000D+00 0.216493683245D-03 0.225269556883D-02 0.000000000000D+00  5 1 -2 25 -24 21 2 0.16488820D+00 0.38405362D-02 0.25962149D+05 0.25962149D+05 0.25962149D+05 0.12215432D+01  1  2  6  2  5  2       -2 0.347595409615D+00 0.100000000000D+01
0.116591631671D-04 0.000000000000D+00 0.000000000000D+00 0.225269556883D-02 0.000000000000D+00  5 1 21 25 -24 2 2 0.16488820D+00 0.51331127D-02 0.37510073D+05 0.37510073D+05 0.37510073D+05 0.12048451D+01  1  2 12  4  5  2       -2 0.693471956441D-01 0.100000000000D+01
-.198868363696D-04 0.000000000000D+00 -.107897246744D-04 0.225269556883D-02 0.000000000000D+00  5 1 21 25 -24 2 2 0.16488820D+00 0.56480093D-02 0.25962149D+05 0.25962149D+05 0.25962149D+05 0.12215432D+01  1  2  5  4  5  2       -2 -.103815130924D+00 0.100000000000D+01
  </mgrwgt>
  </event>
  <event>
  4     66 0.47139866E-03 0.44561074E+02 0.75467711E-02 0.12657527E+00
        1 -1    0    0  501    0 0.00000000E+00 0.00000000E+00 0.14477471E+04 0.14477472E+04 0.32000000E+00 0.0000E+00 0.9000E+01
       -2 -1    0    0    0  501 0.00000000E+00 0.00000000E+00 -.85369170E+01 0.85429123E+01 0.32000000E+00 0.0000E+00 0.9000E+01
       25  1    1    2    0    0 0.12726033E+02 0.15605375E+02 0.61349608E+03 0.62642471E+03 0.12500000E+03 0.0000E+00 0.9000E+01
      -24  1    1    2    0    0 -.12726033E+02 -.15605375E+02 0.82571412E+03 0.82986536E+03 0.80419002E+02 0.0000E+00 0.9000E+01
#aMCatNLO 1  0  0  1  2 0.49044456D+01 0.00000000D+00  -5  5  0 0.00000000D+00 0.00000000D+00 0.00000000D+00 0.00000000D+00 0.00000000D+00
  <mgrwgt>
 0.6904667754D+00   11    2    0
 0.111192122838370D+03 0.000000000000000D+00 0.000000000000000D+00 0.111192122838370D+03
 0.111192122838370D+03 0.000000000000000D+00 0.000000000000000D+00 -.111192122838370D+03
 0.131782124656533D+03 0.127260325512506D+02 0.156053745535681D+02 -.365520007597018D+02
 0.906021210202080D+02 -.127260325512506D+02 -.156053745535681D+02 0.365520007597018D+02
 0.000000000000000D+00 0.000000000000000D+00 0.000000000000000D+00 0.000000000000000D+00
 0.114591042151959D+03 0.000000000000000D+00 0.000000000000000D+00 0.114591042151959D+03
 0.113002554831245D+03 0.000000000000000D+00 0.000000000000000D+00 -.113002554831245D+03
 0.131408054092659D+03 0.101390133244360D+02 0.142908477596251D+02 -.365520007597018D+02
 0.910302661481125D+02 -.145113821416109D+02 -.165125536919208D+02 0.365520007597018D+02
 0.515527674243295D+01 0.437236881717490D+01 0.222170593229564D+01 0.158848732071398D+01
0.210892150225D-03 0.000000000000D+00 0.000000000000D+00 0.270851053528D-02 0.000000000000D+00  5 1 -2 25 -24 21 0 0.22273079D+00 0.13138357D-02 0.10973951D+05 0.10973951D+05 0.10973951D+05 0.12635992D+01  1  2  2  1  5  1        1 0.197547283770D+00 0.100000000000D+01
-.116655957377D-04 0.000000000000D+00 -.809881386042D-06 0.270851053528D-02 0.000000000000D+00  5 1 -2 25 -24 21 2 0.22273079D+00 0.13138357D-02 0.10973951D+05 0.10973951D+05 0.10973951D+05 0.12635992D+01  1  2  3  1  5  1        1 -.174476215925D-01 0.100000000000D+01
0.144929778853D-04 0.000000000000D+00 0.000000000000D+00 0.270851053528D-02 0.000000000000D+00  5 1 -2 25 -24 21 2 0.22273079D+00 0.13138357D-02 0.10973951D+05 0.10973951D+05 0.10973951D+05 0.12635992D+01  1  2 15  1  5  1        1 0.216763892370D-01 0.100000000000D+01
0.166071047095D-03 0.000000000000D+00 0.000000000000D+00 0.270851053528D-02 0.000000000000D+00  5 1 -2 25 -24 21 2 0.23130966D+00 0.13138357D-02 0.11502134D+05 0.11502134D+05 0.11502134D+05 0.12611866D+01  1  2 12  1  5  1        1 0.228078310949D+00 0.100000000000D+01
-.827407551866D-03 0.000000000000D+00 0.000000000000D+00 0.270851053528D-02 0.000000000000D+00  5 1 -2 25 -24 21 2 0.22273079D+00 0.13138357D-02 0.10973951D+05 0.10973951D+05 0.10973951D+05 0.12635992D+01  1  2  4  1  5  1        1 -.123751021314D+01 0.100000000000D+01
-.473081200683D-02 0.000000000000D+00 -.666095065169D-03 0.270851053528D-02 0.000000000000D+00  5 1 -2 25 -24 21 2 0.23161175D+00 0.13138357D-02 0.10973951D+05 0.10973951D+05 0.10973951D+05 0.12635992D+01  1  2  5  1  5  1        1 -.649553312090D+01 0.100000000000D+01
0.475373023938D-02 0.000000000000D+00 0.665586258296D-03 0.270851053528D-02 0.000000000000D+00  5 1 -2 25 -24 21 2 0.22273079D+00 0.13138357D-02 0.10973951D+05 0.10973951D+05 0.10973951D+05 0.12635992D+01  1  2  6  1  5  1        1 0.710990576347D+01 0.100000000000D+01
0.675276094146D-03 0.000000000000D+00 0.000000000000D+00 0.270851053528D-02 0.955852520867D-03  5 1 -2 25 -24 21 2 0.22953922D+00 0.13352276D-02 0.11502134D+05 0.11502134D+05 0.11502134D+05 0.12611866D+01  1  2 11  1  5  1        1 0.921809034602D+00 0.100000000000D+01
0.274775325700D-05 0.000000000000D+00 0.000000000000D+00 0.270851053528D-02 0.000000000000D+00  5 21 -2 25 -24 -1 2 0.23130966D+00 0.13138357D-02 0.11502134D+05 0.11502134D+05 0.11502134D+05 0.12611866D+01  1  2 12  3  5  1        1 0.426133587869D-02 0.100000000000D+01
-.323716602962D-04 0.000000000000D+00 -.460908123200D-05 0.270851053528D-02 0.000000000000D+00  5 21 -2 25 -24 -1 2 0.23161175D+00 0.13138357D-02 0.10973951D+05 0.10973951D+05 0.10973951D+05 0.12635992D+01  1  2  5  3  5  1        1 -.502617727318D-01 0.100000000000D+01
0.511726713411D-05 0.000000000000D+00 0.000000000000D+00 0.270851053528D-02 0.520071597408D-05  5 21 -2 25 -24 -1 2 0.22953922D+00 0.13352276D-02 0.11502134D+05 0.11502134D+05 0.11502134D+05 0.12611866D+01  1  2 11  3  5  1        1 0.794138588385D-02 0.100000000000D+01
  </mgrwgt>
  </event>
  <event>
  4     66 0.47139866E-03 0.10682185E+03 0.75467711E-02 0.10676414E+00
        1 -1    0    0  501    0 0.00000000E+00 0.00000000E+00 0.17234550E+04 0.17234550E+04 0.32000000E+00 0.0000E+00 0.9000E+01
       -2 -1    0    0    0  501 0.00000000E+00 0.00000000E+00 -.81985069E+01 0.82047496E+01 0.32000000E+00 0.0000E+00 0.9000E+01
       25  1    1    2    0    0 -.24392019E+02 -.15138542E+02 0.13704180E+04 0.13764064E+04 0.12500000E+03 0.0000E+00 0.9000E+01
      -24  1    1    2    0    0 0.24392019E+02 0.15138542E+02 0.34483855E+03 0.35525341E+03 0.80419002E+02 0.0000E+00 0.9000E+01
#aMCatNLO 1  0  0  1  1 0.30434379D+03 0.00000000D+00  -5  5  0 0.00000000D+00 0.00000000D+00 0.00000000D+00 0.00000000D+00 0.00000000D+00
  <mgrwgt>
 0.2892340569D+00    5    2    0
 0.118891499594405D+03 0.000000000000000D+00 0.000000000000000D+00 0.118891499594405D+03
 0.118891499594405D+03 0.000000000000000D+00 0.000000000000000D+00 -.118891499594405D+03
 0.138148099260637D+03 -.243920186526087D+02 -.151385420819190D+02 0.513395685510845D+02
 0.996348999281742D+02 0.243920186526087D+02 0.151385420819190D+02 -.513395685510845D+02
 0.000000000000000D+00 -.000000000000000D+00 0.000000000000000D+00 0.000000000000000D+00
 0.363527929917851D+03 0.000000000000000D+00 0.000000000000000D+00 0.363527929917851D+03
 0.328989401588865D+03 0.000000000000000D+00 0.000000000000000D+00 -.328989401588865D+03
 0.231172452112933D+03 0.407008259303786D+02 -.183093948795365D+03 0.513395685510845D+02
 0.155047556300018D+03 0.692798687319465D+02 -.100683053438548D+03 -.513395685510845D+02
 0.306297323093765D+03 -.109980694662325D+03 0.283777002233914D+03 0.345385283289855D+02
0.427040187645D-03 0.000000000000D+00 0.000000000000D+00 0.235382907028D-02 0.000000000000D+00  5 1 -2 25 -24 21 0 0.26514741D+00 0.12617912D-02 0.11410907D+05 0.11410907D+05 0.11410907D+05 0.12615943D+01  1  2  2  1  5  1        1 0.282972087887D+00 0.100000000000D+01
-.233939014864D-04 0.000000000000D+00 -.163994676282D-05 0.235382907028D-02 0.000000000000D+00  5 1 -2 25 -24 21 2 0.26514741D+00 0.12617912D-02 0.11410907D+05 0.11410907D+05 0.11410907D+05 0.12615943D+01  1  2  3  1  5  1        1 -.246727150740D-01 0.100000000000D+01
0.293165459995D-04 0.000000000000D+00 0.000000000000D+00 0.235382907028D-02 0.000000000000D+00  5 1 -2 25 -24 21 2 0.26514741D+00 0.12617912D-02 0.11410907D+05 0.11410907D+05 0.11410907D+05 0.12615943D+01  1  2 15  1  5  1        1 0.309191173957D-01 0.100000000000D+01
0.102342869979D-03 0.000000000000D+00 -.127338100269D-03 0.235382907028D-02 0.000000000000D+00  5 1 -2 25 -24 21 2 0.89298590D+00 0.12617912D-02 0.11410907D+05 0.11410907D+05 0.11410907D+05 0.12615943D+01  1  2  5  1  5  1        1 0.155069713025D-04 0.100000000000D+01
0.191616907812D-04 0.000000000000D+00 -.179713595859D-04 0.235382907028D-02 0.000000000000D+00  5 21 -2 25 -24 -1 2 0.89298590D+00 0.12617912D-02 0.11410907D+05 0.11410907D+05 0.11410907D+05 0.12615943D+01  1  2  5  3  5  1        1 0.596961684490D-07 0.100000000000D+01
  </mgrwgt>
  </event>
  <event>
  4     66 0.47139866E-03 0.11329526E+03 0.75467711E-02 0.10800077E+00
        1 -1    0    0  501    0 0.00000000E+00 0.00000000E+00 0.33809526E+03 0.33809541E+03 0.32000000E+00 0.0000E+00 0.9000E+01
       -2 -1    0    0    0  501 0.00000000E+00 0.00000000E+00 -.39340645E+02 0.39341946E+02 0.32000000E+00 0.0000E+00 0.9000E+01
       25  1    1    2    0    0 0.30800399E+02 0.35346819E+02 0.20984121E+03 0.24870946E+03 0.12500000E+03 0.0000E+00 0.9000E+01
      -24  1    1    2    0    0 -.30800399E+02 -.35346819E+02 0.88913405E+02 0.12872790E+03 0.80419002E+02 0.0000E+00 0.9000E+01
#aMCatNLO 1  0  0  2  1 0.26935157D+03 0.00000000D+00  -5  5  0 0.00000000D+00 0.00000000D+00 0.00000000D+00 0.00000000D+00 0.00000000D+00
  <mgrwgt>
 0.2372836124D+00    5    2    0
 0.115330654472669D+03 0.000000000000000D+00 0.000000000000000D+00 0.115330654472669D+03
 0.115330654472669D+03 0.000000000000000D+00 0.000000000000000D+00 -.115330654472669D+03
 0.135181803517782D+03 0.308003989004664D+02 0.353468189991641D+02 0.212381217750695D+02
 0.954795054275562D+02 -.308003989004664D+02 -.353468189991641D+02 -.212381217750695D+02
 0.000000000000000D+00 -.000000000000000D+00 0.000000000000000D+00 -.000000000000000D+00
 0.251055608011995D+03 0.000000000000000D+00 0.000000000000000D+00 0.251055608011995D+03
 0.423256437170259D+03 0.000000000000000D+00 0.000000000000000D+00 -.423256437170259D+03
 0.169723193737921D+03 0.425978204382898D+02 -.104476458448659D+03 0.212381217750695D+02
 0.184896193218303D+03 -.199520679919605D+02 -.163921455211211D+03 -.212381217750695D+02
 0.319692658226029D+03 -.226457524463292D+02 0.268397913659870D+03 -.172200829158264D+03
0.222417493140D-03 0.000000000000D+00 0.000000000000D+00 0.279631524526D-02 0.000000000000D+00  5 1 -2 25 -24 21 0 0.52014767D-01 0.60525187D-02 0.12835816D+05 0.12835816D+05 0.12835816D+05 0.12556113D+01  1  2  2  2  5  2       -2 0.200782731823D+00 0.100000000000D+01
-.123517640996D-04 0.000000000000D+00 -.854141737528D-06 0.279631524526D-02 0.000000000000D+00  5 1 -2 25 -24 21 2 0.52014767D-01 0.60525187D-02 0.12835816D+05 0.12835816D+05 0.12835816D+05 0.12556113D+01  1  2  3  2  5  2       -2 -.175791088961D-01 0.100000000000D+01
0.153685605923D-04 0.000000000000D+00 0.000000000000D+00 0.279631524526D-02 0.000000000000D+00  5 1 -2 25 -24 21 2 0.52014767D-01 0.60525187D-02 0.12835816D+05 0.12835816D+05 0.12835816D+05 0.12556113D+01  1  2 15  2  5  2       -2 0.218726327712D-01 0.100000000000D+01
0.208968906512D-03 0.000000000000D+00 -.119117988400D-03 0.279631524526D-02 0.000000000000D+00  5 1 -2 25 -24 21 2 0.52014767D-01 0.46818518D-01 0.12835816D+05 0.12835816D+05 0.12835816D+05 0.12556113D+01  1  2  5  2  5  2       -2 0.966697776430D-02 0.100000000000D+01
0.385102961125D-04 0.000000000000D+00 -.296429284786D-04 0.279631524526D-02 0.000000000000D+00  5 1 21 25 -24 2 2 0.52014767D-01 0.46818518D-01 0.12835816D+05 0.12835816D+05 0.12835816D+05 0.12556113D+01  1  2  5  4  5  2       -2 0.225403789323D-01 0.100000000000D+01
  </mgrwgt>
  </event>
  <event>
  4     66 0.47139866E-03 0.48200876E+02 0.75467711E-02 0.12168521E+00
        1 -1    0    0  501    0 0.00000000E+00 0.00000000E+00 0.19597843E+03 0.19597869E+03 0.32000000E+00 0.0000E+00 0.9000E+01
       -2 -1    0    0    0  501 0.00000000E+00 0.00000000E+00 -.73854384E+02 0.73855077E+02 0.32000000E+00 0.0000E+00 0.9000E+01
       25  1    1    2    0    0 0.51851474E+02 -.17149875E+02 0.10258441E+03 0.17067880E+03 0.12500000E+03 0.0000E+00 0.9000E+01
      -24  1    1    2    0    0 -.51851474E+02 0.17149875E+02 0.19539639E+02 0.99154965E+02 0.80419002E+02 0.0000E+00 0.9000E+01
#aMCatNLO 1  0  0  2  1 0.38290170D+02 0.00000000D+00  -5  5  0 0.00000000D+00 0.00000000D+00 0.00000000D+00 0.00000000D+00 0.00000000D+00
  <mgrwgt>
 0.1598371485D+00    9    2    0
 0.120307917666430D+03 0.000000000000000D+00 0.000000000000000D+00 0.120307917666430D+03
 0.120307917666430D+03 0.000000000000000D+00 0.000000000000000D+00 -.120307917666430D+03
 0.139337804109608D+03 0.518514743100164D+02 -.171498746244731D+02 0.284135542713342D+02
 0.101278031223252D+03 -.518514743100164D+02 0.171498746244731D+02 -.284135542713342D+02
 0.000000000000000D+00 -.000000000000000D+00 -.000000000000000D+00 -.000000000000000D+00
 0.125313587575429D+03 0.000000000000000D+00 0.000000000000000D+00 0.125313587575429D+03
 0.226789429143711D+03 0.000000000000000D+00 0.000000000000000D+00 -.226789429143711D+03
 0.149212992830931D+03 0.746445364293102D+02 -.161363051683751D+02 0.284135542713342D+02
 0.944304297281506D+02 -.363921681669253D+02 0.178373241842162D+02 -.284135542713342D+02
 0.108459594160057D+03 -.382523682623849D+02 -.170101901584112D+01 -.101475841568282D+03
0.227915607043D-03 0.000000000000D+00 0.000000000000D+00 0.264336697219D-02 0.000000000000D+00  5 1 -2 25 -24 21 0 0.30150601D-01 0.11362286D-01 0.13644654D+05 0.13644654D+05 0.13644654D+05 0.12525387D+01  1  2  2  2  5  2       -2 0.152736226374D+00 0.100000000000D+01
-.126485779269D-04 0.000000000000D+00 -.875255942601D-06 0.264336697219D-02 0.000000000000D+00  5 1 -2 25 -24 21 2 0.30150601D-01 0.11362286D-01 0.13644654D+05 0.13644654D+05 0.13644654D+05 0.12525387D+01  1  2  3  2  5  2       -2 -.132981734094D-01 0.100000000000D+01
0.157737212332D-04 0.000000000000D+00 0.000000000000D+00 0.264336697219D-02 0.000000000000D+00  5 1 -2 25 -24 21 2 0.30150601D-01 0.11362286D-01 0.13644654D+05 0.13644654D+05 0.13644654D+05 0.12525387D+01  1  2 15  2  5  2       -2 0.165838153097D-01 0.100000000000D+01
0.535228158946D-03 0.000000000000D+00 0.000000000000D+00 0.264336697219D-02 0.000000000000D+00  5 1 -2 25 -24 21 2 0.30150601D-01 0.21459000D-01 0.18882495D+05 0.18882495D+05 0.18882495D+05 0.12365846D+01  1  2 12  2  5  2       -2 0.195105445624D+00 0.100000000000D+01
-.508720091456D-03 0.000000000000D+00 0.000000000000D+00 0.264336697219D-02 0.000000000000D+00  5 1 -2 25 -24 21 2 0.30150601D-01 0.11362286D-01 0.13644654D+05 0.13644654D+05 0.13644654D+05 0.12525387D+01  1  2  4  2  5  2       -2 -.534846528369D+00 0.100000000000D+01
-.587845010650D-03 0.000000000000D+00 -.680167653535D-04 0.264336697219D-02 0.000000000000D+00  5 1 -2 25 -24 21 2 0.30150601D-01 0.22111623D-01 0.13644654D+05 0.13644654D+05 0.13644654D+05 0.12525387D+01  1  2  5  2  5  2       -2 -.207286355496D+00 0.100000000000D+01
0.525097538193D-03 0.000000000000D+00 0.553001087511D-04 0.264336697219D-02 0.000000000000D+00  5 1 -2 25 -24 21 2 0.30150601D-01 0.11362286D-01 0.13644654D+05 0.13644654D+05 0.13644654D+05 0.12525387D+01  1  2  6  2  5  2       -2 0.552065074831D+00 0.100000000000D+01
0.370073015741D-04 0.000000000000D+00 0.000000000000D+00 0.264336697219D-02 0.000000000000D+00  5 1 21 25 -24 2 2 0.30150601D-01 0.21459000D-01 0.18882495D+05 0.18882495D+05 0.18882495D+05 0.12365846D+01  1  2 12  4  5  2       -2 0.186777035178D+00 0.100000000000D+01
-.384390115955D-04 0.000000000000D+00 -.490847723279D-05 0.264336697219D-02 0.000000000000D+00  5 1 21 25 -24 2 2 0.30150601D-01 0.22111623D-01 0.13644654D+05 0.13644654D+05 0.13644654D+05 0.12525387D+01  1  2  5  4  5  2       -2 -.187999391558D+00 0.100000000000D+01
  </mgrwgt>
  </event>
  <event>
  4     66 0.47139866E-03 0.10868119E+03 0.75467711E-02 0.10215383E+00
        3 -1    0    0  501    0 0.00000000E+00 0.00000000E+00 0.47016708E+02 0.47019367E+02 0.50000000E+00 0.0000E+00 0.9000E+01
       -4 -1    0    0    0  501 0.00000000E+00 0.00000000E+00 -.25239221E+03 0.25239697E+03 0.15500000E+01 0.0000E+00 0.9000E+01
       25  1    1    2    0    0 -.17112620E+02 -.30272348E+02 -.11239338E+03 0.17165817E+03 0.12500000E+03 0.0000E+00 0.9000E+01
      -24  1    1    2    0    0 0.17112620E+02 0.30272348E+02 -.92982120E+02 0.12775816E+03 0.80419002E+02 0.0000E+00 0.9000E+01
#aMCatNLO 1  0  0  1  1 0.44630110D+03 0.00000000D+00  -5  5  0 0.00000000D+00 0.00000000D+00 0.00000000D+00 0.00000000D+00 0.00000000D+00
  <mgrwgt>
 0.6794530578D-01    3    2    0
 0.108939254872642D+03 0.000000000000000D+00 0.000000000000000D+00 0.108939254872642D+03
 0.108939254872642D+03 0.000000000000000D+00 0.000000000000000D+00 -.108939254872642D+03
 0.129955058717491D+03 -.171126197172093D+02 -.302723482904785D+02 0.735258197237925D+01
 0.879234510277943D+02 0.171126197172093D+02 0.302723482904785D+02 -.735258197237925D+01
 0.000000000000000D+00 -.000000000000000D+00 0.000000000000000D+00 -.000000000000000D+00
 0.284994097431306D+03 0.000000000000000D+00 0.000000000000000D+00 0.284994097431306D+03
 0.160620694031071D+04 0.000000000000000D+00 0.000000000000000D+00 -.160620694031071D+04
 0.314618656987707D+03 0.181144251623757D+03 -.224705582856227D+03 0.735258197237925D+01
 0.182025802402675D+03 0.137496017375032D+03 -.877893019126572D+02 -.735258197237925D+01
 0.139455657835164D+04 -.318640268998789D+03 0.312494884768885D+03 -.132121284287941D+04
0.442121332568D-03 0.000000000000D+00 0.000000000000D+00 0.302967949812D-02 0.000000000000D+00  5 3 -4 25 -24 21 0 0.72339103D-02 0.38830141D-01 0.11811601D+05 0.11811601D+05 0.11811601D+05 0.12598304D+01  1  2  2  1  5  1        3 0.665059644824D-01 0.100000000000D+01
-.245621282678D-04 0.000000000000D+00 -.169786233028D-05 0.302967949812D-02 0.000000000000D+00  5 3 -4 25 -24 21 2 0.72339103D-02 0.38830141D-01 0.11811601D+05 0.11811601D+05 0.11811601D+05 0.12598304D+01  1  2  3  1  5  1        3 -.586420650107D-02 0.100000000000D+01
0.305907845773D-04 0.000000000000D+00 0.000000000000D+00 0.302967949812D-02 0.000000000000D+00  5 3 -4 25 -24 21 2 0.72339103D-02 0.38830141D-01 0.11811601D+05 0.11811601D+05 0.11811601D+05 0.12598304D+01  1  2 15  1  5  1        3 0.730354779663D-02 0.100000000000D+01
  </mgrwgt>
  </event>
  <event>
  4     66 0.47139866E-03 0.60366804E+02 0.75467711E-02 0.12463148E+00
        1 -1    0    0  501    0 0.00000000E+00 0.00000000E+00 0.26747625E+03 0.26747644E+03 0.32000000E+00 0.0000E+00 0.9000E+01
       -2 -1    0    0    0  501 0.00000000E+00 0.00000000E+00 -.42919620E+02 0.42920813E+02 0.32000000E+00 0.0000E+00 0.9000E+01
       25  1    1    2    0    0 0.13796083E+01 -.19655519E+02 0.16713676E+03 0.20963763E+03 0.12500000E+03 0.0000E+00 0.9000E+01
      -24  1    1    2    0    0 -.13796083E+01 0.19655519E+02 0.57419872E+02 0.10075962E+03 0.80419002E+02 0.0000E+00 0.9000E+01
#aMCatNLO 1  0  0  1  2 0.25239912D+02 0.00000000D+00  -5  5  0 0.00000000D+00 0.00000000D+00 0.00000000D+00 0.00000000D+00 0.00000000D+00
  <mgrwgt>
 0.2753773989D+00    9    2    0
 0.107145665683682D+03 0.000000000000000D+00 0.000000000000000D+00 0.107145665683682D+03
 0.107145665683682D+03 0.000000000000000D+00 0.000000000000000D+00 -.107145665683682D+03
 0.128513268346830D+03 0.137960832514323D+01 -.196555189701110D+02 0.224146692161419D+02
 0.857780630205345D+02 -.137960832514323D+01 0.196555189701110D+02 -.224146692161419D+02
 0.000000000000000D+00 -.000000000000000D+00 -.000000000000000D+00 0.000000000000000D+00
 0.124143762112823D+03 0.000000000000000D+00 0.000000000000000D+00 0.124143762112823D+03
 0.117682643695282D+03 0.000000000000000D+00 0.000000000000000D+00 -.117682643695282D+03
 0.127105232006268D+03 0.250438103690009D+01 -.469581546914016D+01 0.224146692161419D+02
 0.886673980448721D+02 -.612013280085151D+00 0.298646875984528D+02 -.224146692161419D+02
 0.260537757569649D+02 -.189236775681494D+01 -.251688721293126D+02 0.646111841754121D+01
0.149685702297D-03 0.000000000000D+00 0.000000000000D+00 0.298182214307D-02 0.000000000000D+00  5 1 -2 25 -24 21 0 0.41150298D-01 0.66031249D-02 0.10955928D+05 0.10955928D+05 0.10955928D+05 0.12636838D+01  1  2  2  1  5  1        1 0.156969891510D+00 0.100000000000D+01
-.831034961215D-05 0.000000000000D+00 -.574832509970D-06 0.298182214307D-02 0.000000000000D+00  5 1 -2 25 -24 21 2 0.41150298D-01 0.66031249D-02 0.10955928D+05 0.10955928D+05 0.10955928D+05 0.12636838D+01  1  2  3  1  5  1        1 -.139165683894D-01 0.100000000000D+01
0.102932959814D-04 0.000000000000D+00 0.000000000000D+00 0.298182214307D-02 0.000000000000D+00  5 1 -2 25 -24 21 2 0.41150298D-01 0.66031249D-02 0.10955928D+05 0.10955928D+05 0.10955928D+05 0.12636838D+01  1  2 15  1  5  1        1 0.172372239632D-01 0.100000000000D+01
0.161112690025D-03 0.000000000000D+00 0.000000000000D+00 0.298182214307D-02 0.000000000000D+00  5 1 -2 25 -24 21 2 0.49438849D-01 0.66031249D-02 0.13940598D+05 0.13940598D+05 0.13940598D+05 0.12514653D+01  1  2 12  1  5  1        1 0.213245549165D+00 0.100000000000D+01
-.151548888056D-03 0.000000000000D+00 0.000000000000D+00 0.298182214307D-02 0.000000000000D+00  5 1 -2 25 -24 21 2 0.41150298D-01 0.66031249D-02 0.10955928D+05 0.10955928D+05 0.10955928D+05 0.12636838D+01  1  2  4  1  5  1        1 -.253784806103D+00 0.100000000000D+01
-.384418692993D-03 0.000000000000D+00 -.111409278910D-03 0.298182214307D-02 0.000000000000D+00  5 1 -2 25 -24 21 2 0.51822203D-01 0.66031249D-02 0.10955928D+05 0.10955928D+05 0.10955928D+05 0.12636838D+01  1  2  5  1  5  1        1 -.485023405164D+00 0.100000000000D+01
0.402264119658D-03 0.000000000000D+00 0.108511658921D-03 0.298182214307D-02 0.000000000000D+00  5 1 -2 25 -24 21 2 0.41150298D-01 0.66031249D-02 0.10955928D+05 0.10955928D+05 0.10955928D+05 0.12636838D+01  1  2  6  1  5  1        1 0.673634250435D+00 0.100000000000D+01
0.431365947049D-05 0.000000000000D+00 0.000000000000D+00 0.298182214307D-02 0.000000000000D+00  5 21 -2 25 -24 -1 2 0.49438849D-01 0.66031249D-02 0.13940598D+05 0.13940598D+05 0.13940598D+05 0.12514653D+01  1  2 12  3  5  1        1 0.259645602299D-01 0.100000000000D+01
-.106188451173D-04 0.000000000000D+00 -.355083014373D-05 0.298182214307D-02 0.000000000000D+00  5 21 -2 25 -24 -1 2 0.51822203D-01 0.66031249D-02 0.10955928D+05 0.10955928D+05 0.10955928D+05 0.12636838D+01  1  2  5  3  5  1        1 -.589492966990D-01 0.100000000000D+01
  </mgrwgt>
  </event>
  <event>
  4     66 0.47139866E-03 0.10634331E+03 0.75467711E-02 0.12120637E+00
        1 -1    0    0  501    0 0.00000000E+00 0.00000000E+00 0.18691481E+03 0.18691508E+03 0.32000000E+00 0.0000E+00 0.9000E+01
       -2 -1    0    0    0  501 0.00000000E+00 0.00000000E+00 -.68773996E+02 0.68774741E+02 0.32000000E+00 0.0000E+00 0.9000E+01
       25  1    1    2    0    0 0.15858647E+02 0.21789558E+02 0.26060227E+02 0.13050064E+03 0.12500000E+03 0.0000E+00 0.9000E+01
      -24  1    1    2    0    0 -.15858647E+02 -.21789558E+02 0.92080586E+02 0.12518918E+03 0.80419002E+02 0.0000E+00 0.9000E+01
#aMCatNLO 1  0  0  2  1 0.60956493D+02 0.00000000D+00  -5  5  0 0.00000000D+00 0.00000000D+00 0.00000000D+00 0.00000000D+00 0.00000000D+00
  <mgrwgt>
 0.1806458520D+00    7    2    0
 0.113379930223023D+03 0.000000000000000D+00 0.000000000000000D+00 0.113379930223023D+03
 0.113379930223023D+03 0.000000000000000D+00 0.000000000000000D+00 -.113379930223023D+03
 0.133572622235656D+03 0.158586474221543D+02 0.217895583037710D+02 -.386052310157007D+02
 0.931872382103891D+02 -.158586474221543D+02 -.217895583037710D+02 0.386052310157007D+02
 0.000000000000000D+00 -.000000000000000D+00 -.000000000000000D+00 -.000000000000000D+00
 0.147720316237017D+03 0.000000000000000D+00 0.000000000000000D+00 0.147720316237017D+03
 0.148047036350561D+03 0.000000000000000D+00 0.000000000000000D+00 -.148047036350561D+03
 0.143873883815096D+03 0.513995093837526D+02 0.306988764838968D+02 -.386052310157007D+02
 0.909360997834382D+02 0.772752864001697D+01 -.158770188887900D+02 0.386052310157007D+02
 0.609573689890444D+02 -.591270380237695D+02 -.148218575951068D+02 -.326720113543832D+00
0.213925893575D-03 0.000000000000D+00 0.000000000000D+00 0.263722451365D-02 0.000000000000D+00  5 1 -2 25 -24 21 0 0.28756203D-01 0.10580693D-01 0.11308899D+05 0.11308899D+05 0.11308899D+05 0.12620545D+01  1  2  2  2  5  2       -2 0.168841017589D+00 0.100000000000D+01
-.118254512362D-04 0.000000000000D+00 -.821531759310D-06 0.263722451365D-02 0.000000000000D+00  5 1 -2 25 -24 21 2 0.28756203D-01 0.10580693D-01 0.11308899D+05 0.11308899D+05 0.11308899D+05 0.12620545D+01  1  2  3  2  5  2       -2 -.148658091606D-01 0.100000000000D+01
0.147208188378D-04 0.000000000000D+00 0.000000000000D+00 0.263722451365D-02 0.000000000000D+00  5 1 -2 25 -24 21 2 0.28756203D-01 0.10580693D-01 0.11308899D+05 0.11308899D+05 0.11308899D+05 0.12620545D+01  1  2 15  2  5  2       -2 0.185055841979D-01 0.100000000000D+01
-.622658624016D-04 0.000000000000D+00 0.000000000000D+00 0.263722451365D-02 0.000000000000D+00  5 1 -2 25 -24 21 2 0.28756203D-01 0.10580693D-01 0.11308899D+05 0.11308899D+05 0.11308899D+05 0.12620545D+01  1  2  4  2  5  2       -2 -.782745968159D-01 0.100000000000D+01
-.936718557687D-04 0.000000000000D+00 -.705781233320D-04 0.263722451365D-02 0.000000000000D+00  5 1 -2 25 -24 21 2 0.28756203D-01 0.17877911D-01 0.11308899D+05 0.11308899D+05 0.11308899D+05 0.12620545D+01  1  2  5  2  5  2       -2 -.505949858782D-01 0.100000000000D+01
0.122200856097D-03 0.000000000000D+00 0.618698364603D-04 0.263722451365D-02 0.000000000000D+00  5 1 -2 25 -24 21 2 0.28756203D-01 0.10580693D-01 0.11308899D+05 0.11308899D+05 0.11308899D+05 0.12620545D+01  1  2  6  2  5  2       -2 0.153619051798D+00 0.100000000000D+01
-.213318435285D-05 0.000000000000D+00 -.413524402929D-05 0.263722451365D-02 0.000000000000D+00  5 1 21 25 -24 2 2 0.28756203D-01 0.17877911D-01 0.11308899D+05 0.11308899D+05 0.11308899D+05 0.12620545D+01  1  2  5  4  5  2       -2 -.165844097358D-01 0.100000000000D+01
  </mgrwgt>
  </event>
  <event>
  5     66 0.47139866E-03 0.12066237E+03 0.75467711E-02 0.11652818E+00
        1 -1    0    0  502    0 0.00000000E+00 0.00000000E+00 0.14364148E+04 0.14364148E+04 0.32000000E+00 0.0000E+00 0.9000E+01
       -2 -1    0    0    0  501 0.00000000E+00 0.00000000E+00 -.27697392E+02 0.27699241E+02 0.32000000E+00 0.0000E+00 0.9000E+01
       25  1    1    2    0    0 0.21876690E+02 0.10913006E+03 0.56350346E+03 0.58783425E+03 0.12500000E+03 0.0000E+00 0.9000E+01
      -24  1    1    2    0    0 -.49049568E+02 -.95636585E+01 0.18271467E+03 0.20578919E+03 0.80419002E+02 0.0000E+00 0.9000E+01
       21  1    1    2  502  501 0.27172878E+02 -.99566404E+02 0.66249926E+03 0.67049062E+03 0.75000000E+00 0.0000E+00 0.9000E+01
#aMCatNLO 2  0  0  1  2 0.10320772D+03 0.00000000D+00  -5  5  0 0.00000000D+00 0.00000000D+00 0.00000000D+00 0.00000000D+00 0.00000000D+00
  <mgrwgt>
 0.4568198872D-01    2    2    0
 0.124844740649473D+03 0.000000000000000D+00 0.000000000000000D+00 0.124844740649473D+03
 0.124844740649473D+03 0.000000000000000D+00 0.000000000000000D+00 -.124844740649473D+03
 0.143183086337863D+03 0.382642032364502D+02 0.490832121042566D+02 0.316715211735091D+02
 0.106506394961084D+03 -.382642032364502D+02 -.490832121042566D+02 -.316715211735091D+02
 0.000000000000000D+00 0.000000000000000D+00 -.000000000000000D+00 0.000000000000000D+00
 0.252030508753018D+03 0.000000000000000D+00 0.000000000000000D+00 0.252030508753018D+03
 0.157861287848277D+03 0.000000000000000D+00 0.000000000000000D+00 -.157861287848277D+03
 0.170340968178668D+03 0.218766903840597D+02 0.109130062789508D+03 0.316715211735091D+02
 0.998379932729705D+02 -.490495680768565D+02 -.956365852762160D+01 -.316715211735091D+02
 0.139712835149656D+03 0.271728776927968D+02 -.995664042618868D+02 0.941692209047409D+02
-.574792871647D-05 0.000000000000D+00 0.000000000000D+00 0.254619311420D-02 0.000000000000D+00  5 1 -2 25 -24 21 2 0.22270845D+00 0.33700193D-02 0.33353663D+05 0.33353663D+05 0.33353663D+05 0.12100977D+01  1  2 13  1  5  1        1 -.203619745953D-02 0.100000000000D+01
0.188017586918D-03 0.000000000000D+00 0.000000000000D+00 0.254619311420D-02 0.247382227898D-05  5 1 -2 25 -24 21 2 0.22098575D+00 0.42612575D-02 0.33353663D+05 0.33353663D+05 0.33353663D+05 0.12100977D+01  1  2  1  1  5  1        1 0.477181861776D-01 0.100000000000D+01
  </mgrwgt>
  </event>
  <event>
  4     66 0.47139866E-03 0.13766412E+03 0.75467711E-02 0.11280660E+00
        1 -1    0    0  501    0 0.00000000E+00 0.00000000E+00 0.70554661E+02 0.70555387E+02 0.32000000E+00 0.0000E+00 0.9000E+01
       -2 -1    0    0    0  501 0.00000000E+00 0.00000000E+00 -.26943892E+03 0.26943911E+03 0.32000000E+00 0.0000E+00 0.9000E+01
       25  1    1    2    0    0 -.47130685E+02 -.77204782E+02 -.10202323E+03 0.18497464E+03 0.12500000E+03 0.0000E+00 0.9000E+01
      -24  1    1    2    0    0 0.47130685E+02 0.77204782E+02 -.96861034E+02 0.15501986E+03 0.80419002E+02 0.0000E+00 0.9000E+01
#aMCatNLO 1  0  0  2  2 0.14486344D+03 0.00000000D+00  -5  5  0 0.00000000D+00 0.00000000D+00 0.00000000D+00 0.00000000D+00 0.00000000D+00
  <mgrwgt>
 0.1677327071D+00    5    2    0
 0.137877944407124D+03 0.000000000000000D+00 0.000000000000000D+00 0.137877944407124D+03
 0.137877944407124D+03 0.000000000000000D+00 0.000000000000000D+00 -.137877944407124D+03
 0.154482819256775D+03 -.471306846175301D+02 -.772047822627996D+02 0.761981684543219D+01
 0.121273069557474D+03 0.471306846175301D+02 0.772047822627996D+02 -.761981684543219D+01
 0.000000000000000D+00 -.000000000000000D+00 -.000000000000000D+00 -.000000000000000D+00
 0.190967861356596D+03 0.000000000000000D+00 0.000000000000000D+00 0.190967861356596D+03
 0.304695385118983D+03 0.000000000000000D+00 0.000000000000000D+00 -.304695385118983D+03
 0.128950728827029D+03 -.291990167092152D+02 -.962529373468786D+01 0.761981684543219D+01
 0.182540406189511D+03 0.663517062291109D+02 0.149643487693882D+03 -.761981684543219D+01
 0.184172111459038D+03 -.371526895198957D+02 -.140018193959194D+03 -.113727523762387D+03
0.630577271283D-03 0.000000000000D+00 0.000000000000D+00 0.251669820430D-02 0.000000000000D+00  5 1 -2 25 -24 21 0 0.10854634D-01 0.41452212D-01 0.18951409D+05 0.18951409D+05 0.18951409D+05 0.12364093D+01  1  2  2  2  5  2       -2 0.169994246457D+00 0.100000000000D+01
-.350319680229D-04 0.000000000000D+00 -.242158275653D-05 0.251669820430D-02 0.000000000000D+00  5 1 -2 25 -24 21 2 0.10854634D-01 0.41452212D-01 0.18951409D+05 0.18951409D+05 0.18951409D+05 0.12364093D+01  1  2  3  2  5  2       -2 -.144372653577D-01 0.100000000000D+01
0.435976089287D-04 0.000000000000D+00 0.000000000000D+00 0.251669820430D-02 0.000000000000D+00  5 1 -2 25 -24 21 2 0.10854634D-01 0.41452212D-01 0.18951409D+05 0.18951409D+05 0.18951409D+05 0.12364093D+01  1  2 15  2  5  2       -2 0.179673105620D-01 0.100000000000D+01
-.102490050736D-03 0.000000000000D+00 -.177704263437D-03 0.251669820430D-02 0.000000000000D+00  5 1 -2 25 -24 21 2 0.10854634D-01 0.11786326D+00 0.18951409D+05 0.18951409D+05 0.18951409D+05 0.12364093D+01  1  2  5  2  5  2       -2 -.455259692315D-02 0.100000000000D+01
-.235285512243D-05 0.000000000000D+00 -.209145539420D-04 0.251669820430D-02 0.000000000000D+00  5 1 21 25 -24 2 2 0.10854634D-01 0.11786326D+00 0.18951409D+05 0.18951409D+05 0.18951409D+05 0.12364093D+01  1  2  5  4  5  2       -2 -.123898761805D-02 0.100000000000D+01
  </mgrwgt>
  </event>
  <event>
  4     66 0.47139866E-03 0.17315232E+03 0.75467711E-02 0.11684301E+00
        1 -1    0    0  501    0 0.00000000E+00 0.00000000E+00 0.27685470E+04 0.27685470E+04 0.32000000E+00 0.0000E+00 0.9000E+01
       -2 -1    0    0    0  501 0.00000000E+00 0.00000000E+00 -.11426507E+02 0.11430987E+02 0.32000000E+00 0.0000E+00 0.9000E+01
       25  1    1    2    0    0 -.71094076E+02 0.11855832E+03 0.17957410E+04 0.18053868E+04 0.12500000E+03 0.0000E+00 0.9000E+01
      -24  1    1    2    0    0 0.71094076E+02 -.11855832E+03 0.96137945E+03 0.97459125E+03 0.80419002E+02 0.0000E+00 0.9000E+01
#aMCatNLO 1  0  0  2  2 0.12189839D+02 0.00000000D+00  -5  5  0 0.00000000D+00 0.00000000D+00 0.00000000D+00 0.00000000D+00 0.00000000D+00
  <mgrwgt>
 0.1573068147D+00    4    2    0
 0.177879381344271D+03 0.000000000000000D+00 0.000000000000000D+00 0.177879381344271D+03
 0.177879381344271D+03 0.000000000000000D+00 0.000000000000000D+00 -.177879381344271D+03
 0.190750159250657D+03 -.710940757442493D+02 0.118558316922517D+03 0.406224216009091D+02
 0.165008603437886D+03 0.710940757442493D+02 -.118558316922517D+03 -.406224216009091D+02
 0.000000000000000D+00 0.000000000000000D+00 0.000000000000000D+00 0.000000000000000D+00
 0.194388051125664D+03 0.000000000000000D+00 0.000000000000000D+00 0.194388051125664D+03
 0.180248303201667D+03 0.000000000000000D+00 0.000000000000000D+00 -.180248303201667D+03
 0.191085314992435D+03 -.768549790853455D+02 0.115463105184415D+03 0.406224216009091D+02
 0.164882224811462D+03 0.661168818928244D+02 -.121232458097884D+03 -.406224216009091D+02
 0.186688145234339D+02 0.107380971925211D+02 0.576935291346900D+01 0.141397479239976D+02
0.242659350631D-02 0.000000000000D+00 0.000000000000D+00 0.213336466062D-02 0.000000000000D+00  5 1 -2 25 -24 21 0 0.42593065D+00 0.17582702D-02 0.29981725D+05 0.29981725D+05 0.29981725D+05 0.12149262D+01  1  2  2  2  5  2       -2 0.211405399367D+00 0.100000000000D+01
-.134691842943D-03 0.000000000000D+00 -.931875800096D-05 0.213336466062D-02 0.000000000000D+00  5 1 -2 25 -24 21 2 0.42593065D+00 0.17582702D-02 0.29981725D+05 0.29981725D+05 0.29981725D+05 0.12149262D+01  1  2  3  2  5  2       -2 -.173204877109D-01 0.100000000000D+01
0.167052859626D-03 0.000000000000D+00 0.000000000000D+00 0.213336466062D-02 0.000000000000D+00  5 1 -2 25 -24 21 2 0.42593065D+00 0.17582702D-02 0.29981725D+05 0.29981725D+05 0.29981725D+05 0.12149262D+01  1  2 15  2  5  2       -2 0.214819022372D-01 0.100000000000D+01
-.453055756368D-03 0.000000000000D+00 0.000000000000D+00 0.213336466062D-02 0.000000000000D+00  5 1 -2 25 -24 21 2 0.42593065D+00 0.17582702D-02 0.29981725D+05 0.29981725D+05 0.29981725D+05 0.12149262D+01  1  2  4  2  5  2       -2 -.582599991885D-01 0.100000000000D+01
  </mgrwgt>
  </event>
  <event>
  4     66 0.47139866E-03 0.78255225E+03 0.75467711E-02 0.93240996E-01
        1 -1    0    0  501    0 0.00000000E+00 0.00000000E+00 0.10089322E+04 0.10089322E+04 0.32000000E+00 0.0000E+00 0.9000E+01
       -2 -1    0    0    0  501 0.00000000E+00 0.00000000E+00 -.10544751E+04 0.10544751E+04 0.32000000E+00 0.0000E+00 0.9000E+01
       25  1    1    2    0    0 0.53837313E+03 0.80524708E+03 0.31576498E+03 0.10264507E+04 0.12500000E+03 0.0000E+00 0.9000E+01
      -24  1    1    2    0    0 -.53837313E+03 -.80524708E+03 -.36130786E+03 0.10369566E+04 0.80419002E+02 0.0000E+00 0.9000E+01
#aMCatNLO 1  0  0  2  1 0.23097413D+02 0.00000000D+00  -5  5  0 0.00000000D+00 0.00000000D+00 0.00000000D+00 0.00000000D+00 0.00000000D+00
  <mgrwgt>
 0.4503788768D-01    9    2    0
 0.103145232911997D+04 0.000000000000000D+00 0.000000000000000D+00 0.103145232911997D+04
 0.103145232911997D+04 0.000000000000000D+00 0.000000000000000D+00 -.103145232911997D+04
 0.103367196249203D+04 0.538373125281899D+03 0.805247080890957D+03 0.338502943462710D+03
 0.102923269574790D+04 -.538373125281899D+03 -.805247080890957D+03 -.338502943462710D+03
 0.000000000000000D+00 0.000000000000000D+00 0.000000000000000D+00 -.000000000000000D+00
 0.103932538813451D+04 0.000000000000000D+00 0.000000000000000D+00 0.103932538813451D+04
 0.104859762220788D+04 0.000000000000000D+00 0.000000000000000D+00 -.104859762220788D+04
 0.102757730363750D+04 0.526835287559954D+03 0.805077916725838D+03 0.338502943462710D+03
 0.103545665621330D+04 -.549930218875866D+03 -.805416527379645D+03 -.338502943462710D+03
 0.248890504915912D+02 0.230949313159126D+02 0.338610653806811D+00 -.927223407337113D+01
0.574322118623D-01 0.000000000000D+00 0.000000000000D+00 0.170097096095D-02 0.000000000000D+00  5 1 -2 25 -24 21 0 0.15522034D+00 0.16222694D+00 0.94930907D+06 0.94930907D+06 0.94930907D+06 0.10832093D+01  1  2  2  2  5  2       -2 0.181589958607D-01 0.100000000000D+01
-.317808387769D-02 0.000000000000D+00 -.220554815800D-03 0.170097096095D-02 0.000000000000D+00  5 1 -2 25 -24 21 2 0.15522034D+00 0.16222694D+00 0.94930907D+06 0.94930907D+06 0.94930907D+06 0.10832093D+01  1  2  3  2  5  2       -2 -.117903414908D-02 0.100000000000D+01
0.394801990112D-02 0.000000000000D+00 0.000000000000D+00 0.170097096095D-02 0.000000000000D+00  5 1 -2 25 -24 21 2 0.15522034D+00 0.16222694D+00 0.94930907D+06 0.94930907D+06 0.94930907D+06 0.10832093D+01  1  2 15  2  5  2       -2 0.146467194190D-02 0.100000000000D+01
0.454177608458D-01 0.000000000000D+00 0.000000000000D+00 0.170097096095D-02 0.000000000000D+00  5 1 -2 25 -24 21 2 0.15522034D+00 0.16553513D+00 0.97208049D+06 0.97208049D+06 0.97208049D+06 0.10824513D+01  1  2 12  2  5  2       -2 0.158974655003D-01 0.100000000000D+01
-.427427616282D-01 0.000000000000D+00 0.000000000000D+00 0.170097096095D-02 0.000000000000D+00  5 1 -2 25 -24 21 2 0.15522034D+00 0.16222694D+00 0.94930907D+06 0.94930907D+06 0.94930907D+06 0.10832093D+01  1  2  4  2  5  2       -2 -.158570942508D-01 0.100000000000D+01
-.231304634782D+01 0.000000000000D+00 -.272840347604D+00 0.170097096095D-02 0.000000000000D+00  5 1 -2 25 -24 21 2 0.15522034D+00 0.16571439D+00 0.94930907D+06 0.94930907D+06 0.94930907D+06 0.10832093D+01  1  2  5  2  5  2       -2 -.809389129316D+00 0.100000000000D+01
0.231838680577D+01 0.000000000000D+00 0.272778643747D+00 0.170097096095D-02 0.000000000000D+00  5 1 -2 25 -24 21 2 0.15522034D+00 0.16222694D+00 0.94930907D+06 0.94930907D+06 0.94930907D+06 0.10832093D+01  1  2  6  2  5  2       -2 0.860095994937D+00 0.100000000000D+01
0.187649469358D-02 0.000000000000D+00 0.000000000000D+00 0.170097096095D-02 0.000000000000D+00  5 1 21 25 -24 2 2 0.15522034D+00 0.16553513D+00 0.97208049D+06 0.97208049D+06 0.97208049D+06 0.10824513D+01  1  2 12  4  5  2       -2 0.645668514493D-02 0.100000000000D+01
-.889206592724D-02 0.000000000000D+00 -.105419853159D-02 0.170097096095D-02 0.000000000000D+00  5 1 21 25 -24 2 2 0.15522034D+00 0.16571439D+00 0.94930907D+06 0.94930907D+06 0.94930907D+06 0.10832093D+01  1  2  5  4  5  2       -2 -.306106679904D-01 0.100000000000D+01
  </mgrwgt>
  </event>
  <event>
  4     66 0.47139866E-03 0.62415245E+02 0.75467711E-02 0.11400936E+00
        3 -1    0    0  501    0 0.00000000E+00 0.00000000E+00 0.18162397E+03 0.18162466E+03 0.50000000E+00 0.0000E+00 0.9000E+01
       -4 -1    0    0    0  501 0.00000000E+00 0.00000000E+00 -.35913421E+03 0.35913755E+03 0.15500000E+01 0.0000E+00 0.9000E+01
       25  1    1    2    0    0 0.90783008E+02 -.14521640E+03 0.75295759E+02 0.22499735E+03 0.12500000E+03 0.0000E+00 0.9000E+01
      -24  1    1    2    0    0 -.90783008E+02 0.14521640E+03 -.25280599E+03 0.31576486E+03 0.80419002E+02 0.0000E+00 0.9000E+01
#aMCatNLO 1  0  0  1  2 0.21697686D+02 0.00000000D+00  -5  5  0 0.00000000D+00 0.00000000D+00 0.00000000D+00 0.00000000D+00 0.00000000D+00
  <mgrwgt>
 0.5681028553D-01    6    2    0
 0.255398652300814D+03 0.000000000000000D+00 0.000000000000000D+00 0.255398652300814D+03
 0.255398652300814D+03 0.000000000000000D+00 0.000000000000000D+00 -.255398652300814D+03
 0.264362857831197D+03 0.907830080087082D+02 -.145216403514293D+03 0.157903015195856D+03
 0.246434446770431D+03 -.907830080087082D+02 0.145216403514293D+03 -.157903015195856D+03
 0.000000000000000D+00 0.000000000000000D+00 -.000000000000000D+00 -.000000000000000D+00
 0.265696387715094D+03 0.000000000000000D+00 0.000000000000000D+00 0.265696387715094D+03
 0.267319886678188D+03 0.000000000000000D+00 0.000000000000000D+00 -.267319886678188D+03
 0.257934383838923D+03 0.816340563295648D+02 -.138952024114812D+03 0.157903015195856D+03
 0.253323551041095D+03 -.995371453245069D+02 0.151210449541045D+03 -.157903015195856D+03
 0.217583395132646D+02 0.179030889949421D+02 -.122584254262328D+02 -.162349896309348D+01
0.321668331214D-02 0.000000000000D+00 0.000000000000D+00 0.129220955620D-02 0.000000000000D+00  5 3 -4 25 -24 21 0 0.27942460D-01 0.55251727D-01 0.40245226D+05 0.40245226D+05 0.40245226D+05 0.12017308D+01  1  2  2  1  5  1        3 0.258844391920D-01 0.100000000000D+01
-.166037443097D-03 0.000000000000D+00 -.123529108908D-04 0.129220955620D-02 0.000000000000D+00  5 3 -4 25 -24 21 2 0.27942460D-01 0.55251727D-01 0.40245226D+05 0.40245226D+05 0.40245226D+05 0.12017308D+01  1  2  3  1  5  1        3 -.192952707730D-02 0.100000000000D+01
0.221535476071D-03 0.000000000000D+00 0.000000000000D+00 0.129220955620D-02 0.000000000000D+00  5 3 -4 25 -24 21 2 0.27942460D-01 0.55251727D-01 0.40245226D+05 0.40245226D+05 0.40245226D+05 0.12017308D+01  1  2 15  1  5  1        3 0.257447170764D-02 0.100000000000D+01
0.720621248911D-02 0.000000000000D+00 0.000000000000D+00 0.129220955620D-02 0.000000000000D+00  5 3 -4 25 -24 21 2 0.29693657D-01 0.55251727D-01 0.44888919D+05 0.44888919D+05 0.44888919D+05 0.11969477D+01  1  2 12  1  5  1        3 0.746416689073D-01 0.100000000000D+01
-.522236961201D-02 0.000000000000D+00 0.000000000000D+00 0.129220955620D-02 0.000000000000D+00  5 3 -4 25 -24 21 2 0.27942460D-01 0.55251727D-01 0.40245226D+05 0.40245226D+05 0.40245226D+05 0.12017308D+01  1  2  4  1  5  1        3 -.606893444399D-01 0.100000000000D+01
0.789499298232D-04 0.000000000000D+00 0.000000000000D+00 0.129220955620D-02 0.000000000000D+00  5 21 -4 25 -24 -3 2 0.29693657D-01 0.55251727D-01 0.44888919D+05 0.44888919D+05 0.44888919D+05 0.11969477D+01  1  2 12  3  5  1        3 0.163285772434D-01 0.100000000000D+01
  </mgrwgt>
  </event>
  <event>
  4     66 0.47139866E-03 0.10366617E+03 0.75467711E-02 0.11584668E+00
        1 -1    0    0  501    0 0.00000000E+00 0.00000000E+00 0.11797765E+02 0.11802104E+02 0.32000000E+00 0.0000E+00 0.9000E+01
       -2 -1    0    0    0  501 0.00000000E+00 0.00000000E+00 -.93186307E+03 0.93186313E+03 0.32000000E+00 0.0000E+00 0.9000E+01
       25  1    1    2    0    0 -.81456909E+01 -.11043231E+02 -.48636377E+03 0.50235746E+03 0.12500000E+03 0.0000E+00 0.9000E+01
      -24  1    1    2    0    0 0.81456909E+01 0.11043231E+02 -.43370154E+03 0.44130777E+03 0.80419002E+02 0.0000E+00 0.9000E+01
#aMCatNLO 1  0  0  1  2 0.13346669D+03 0.00000000D+00  -5  5  0 0.00000000D+00 0.00000000D+00 0.00000000D+00 0.00000000D+00 0.00000000D+00
  <mgrwgt>
 0.2426385125D+00    3    2    0
 0.104861692259546D+03 0.000000000000000D+00 0.000000000000000D+00 0.104861692259546D+03
 0.104861692259546D+03 0.000000000000000D+00 0.000000000000000D+00 -.104861692259546D+03
 0.126694698785330D+03 -.814569090953690D+01 -.110432313259042D+02 0.154350724583422D+02
 0.830286857337628D+02 0.814569090953690D+01 0.110432313259042D+02 -.154350724583422D+02
 0.000000000000000D+00 0.000000000000000D+00 0.000000000000000D+00 -.000000000000000D+00
 0.162873727762904D+03 0.000000000000000D+00 0.000000000000000D+00 0.162873727762904D+03
 0.239731160346763D+03 0.000000000000000D+00 0.000000000000000D+00 -.239731160346763D+03
 0.156891022764930D+03 -.883245939796677D+02 -.308272227221064D+02 0.154350724583422D+02
 0.916995121642360D+02 -.412556511830670D+02 -.114645560540794D+01 -.154350724583422D+02
 0.154014353180501D+03 0.129580245162735D+03 0.319736783275144D+02 -.768574325838590D+02
0.117216717036D-02 0.000000000000D+00 0.000000000000D+00 0.311115731416D-02 0.000000000000D+00  5 1 -2 25 -24 21 0 0.18153787D-02 0.14336389D+00 0.10746675D+05 0.10746675D+05 0.10746675D+05 0.12646778D+01  1  2  2  1  5  1        1 0.237441145518D+00 0.100000000000D+01
-.651099882715D-04 0.000000000000D+00 -.450143057290D-05 0.311115731416D-02 0.000000000000D+00  5 1 -2 25 -24 21 2 0.18153787D-02 0.14336389D+00 0.10746675D+05 0.10746675D+05 0.10746675D+05 0.12646778D+01  1  2  3  1  5  1        1 -.210947243579D-01 0.100000000000D+01
0.811519377404D-04 0.000000000000D+00 0.000000000000D+00 0.311115731416D-02 0.000000000000D+00  5 1 -2 25 -24 21 2 0.18153787D-02 0.14336389D+00 0.10746675D+05 0.10746675D+05 0.10746675D+05 0.12646778D+01  1  2 15  1  5  1        1 0.262920913241D-01 0.100000000000D+01
  </mgrwgt>
  </event>
  <event>
  4     66 0.47139866E-03 0.54749050E+02 0.75467711E-02 0.11414139E+00
        1 -1    0    0  501    0 0.00000000E+00 0.00000000E+00 0.95178013E+03 0.95178019E+03 0.32000000E+00 0.0000E+00 0.9000E+01
       -2 -1    0    0    0  501 0.00000000E+00 0.00000000E+00 -.36842751E+02 0.36844140E+02 0.32000000E+00 0.0000E+00 0.9000E+01
       25  1    1    2    0    0 -.12584158E+03 -.89503524E+02 0.43987346E+03 0.48265997E+03 0.12500000E+03 0.0000E+00 0.9000E+01
      -24  1    1    2    0    0 0.12584158E+03 0.89503524E+02 0.47506392E+03 0.50596435E+03 0.80419002E+02 0.0000E+00 0.9000E+01
#aMCatNLO 1  0  0  2  1 0.44898815D+02 0.00000000D+00  -5  5  0 0.00000000D+00 0.00000000D+00 0.00000000D+00 0.00000000D+00 0.00000000D+00
  <mgrwgt>
 0.2168333545D+00    9    2    0
 0.187261612339463D+03 0.000000000000000D+00 0.000000000000000D+00 0.187261612339463D+03
 0.187261612339463D+03 0.000000000000000D+00 0.000000000000000D+00 -.187261612339463D+03
 0.199487535115655D+03 -.125841584068861D+03 -.895035235963718D+02 -.179803128280093D+02
 0.175035689563272D+03 0.125841584068861D+03 0.895035235963718D+02 0.179803128280093D+02
 0.000000000000000D+00 -.000000000000000D+00 -.000000000000000D+00 -.000000000000000D+00
 0.197458032404504D+03 0.000000000000000D+00 0.000000000000000D+00 0.197458032404504D+03
 0.245513043600365D+03 0.000000000000000D+00 0.000000000000000D+00 -.245513043600365D+03
 0.183473939553391D+03 -.103836694454482D+03 -.832606493525890D+02 -.179803128280093D+02
 0.193730977428712D+03 0.147030842877815D+03 0.955150001536924D+02 0.179803128280093D+02
 0.657661590227659D+02 -.431941484233332D+02 -.122543508011034D+02 -.480550111958606D+02
0.732368710808D-03 0.000000000000D+00 0.000000000000D+00 0.218640859825D-02 0.000000000000D+00  5 1 -2 25 -24 21 0 0.14642782D+00 0.56682265D-02 0.34742223D+05 0.34742223D+05 0.34742223D+05 0.12082654D+01  1  2  2  2  5  2       -2 0.179747007093D+00 0.100000000000D+01
-.406860804261D-04 0.000000000000D+00 -.281248868661D-05 0.218640859825D-02 0.000000000000D+00  5 1 -2 25 -24 21 2 0.14642782D+00 0.56682265D-02 0.34742223D+05 0.34742223D+05 0.34742223D+05 0.12082654D+01  1  2  3  2  5  2       -2 -.145781502751D-01 0.100000000000D+01
0.504820861583D-04 0.000000000000D+00 0.000000000000D+00 0.218640859825D-02 0.000000000000D+00  5 1 -2 25 -24 21 2 0.14642782D+00 0.56682265D-02 0.34742223D+05 0.34742223D+05 0.34742223D+05 0.12082654D+01  1  2 15  2  5  2       -2 0.180881380194D-01 0.100000000000D+01
0.103559877483D-02 0.000000000000D+00 0.000000000000D+00 0.218640859825D-02 0.000000000000D+00  5 1 -2 25 -24 21 2 0.14642782D+00 0.75503271D-02 0.44180759D+05 0.44180759D+05 0.44180759D+05 0.11976406D+01  1  2 12  2  5  2       -2 0.234903740592D+00 0.100000000000D+01
-.106692312266D-02 0.000000000000D+00 0.000000000000D+00 0.218640859825D-02 0.000000000000D+00  5 1 -2 25 -24 21 2 0.14642782D+00 0.56682265D-02 0.34742223D+05 0.34742223D+05 0.34742223D+05 0.12082654D+01  1  2  4  2  5  2       -2 -.382287147132D+00 0.100000000000D+01
-.151683583524D-02 0.000000000000D+00 -.331088767674D-03 0.218640859825D-02 0.000000000000D+00  5 1 -2 25 -24 21 2 0.14642782D+00 0.78317742D-02 0.34742223D+05 0.34742223D+05 0.34742223D+05 0.12082654D+01  1  2  5  2  5  2       -2 -.330565745032D+00 0.100000000000D+01
0.155830499822D-02 0.000000000000D+00 0.314507177917D-03 0.218640859825D-02 0.000000000000D+00  5 1 -2 25 -24 21 2 0.14642782D+00 0.56682265D-02 0.34742223D+05 0.34742223D+05 0.34742223D+05 0.12082654D+01  1  2  6  2  5  2       -2 0.558353230407D+00 0.100000000000D+01
0.387402155872D-04 0.000000000000D+00 0.000000000000D+00 0.218640859825D-02 0.000000000000D+00  5 1 21 25 -24 2 2 0.14642782D+00 0.75503271D-02 0.44180759D+05 0.44180759D+05 0.44180759D+05 0.11976406D+01  1  2 12  4  5  2       -2 0.143571651273D+00 0.100000000000D+01
-.535611586432D-04 0.000000000000D+00 -.135080740962D-04 0.218640859825D-02 0.000000000000D+00  5 1 21 25 -24 2 2 0.14642782D+00 0.78317742D-02 0.34742223D+05 0.34742223D+05 0.34742223D+05 0.12082654D+01  1  2  5  4  5  2       -2 -.190399370482D+00 0.100000000000D+01
  </mgrwgt>
  </event>
  <event>
  5     66 0.47139866E-03 0.10653679E+03 0.75467711E-02 0.11975877E+00
        1 -1    0    0  502    0 0.00000000E+00 0.00000000E+00 0.12620416E+03 0.12620456E+03 0.32000000E+00 0.0000E+00 0.9000E+01
       -2 -1    0    0    0  501 0.00000000E+00 0.00000000E+00 -.35474025E+03 0.35474039E+03 0.32000000E+00 0.0000E+00 0.9000E+01
       25  1    1    2    0    0 0.68097316E+02 0.32343491E+02 -.15060955E+03 0.20974170E+03 0.12500000E+03 0.0000E+00 0.9000E+01
      -24  1    1    2    0    0 0.49540447E+01 -.48501109E+01 -.14652481E+03 0.16728659E+03 0.80419002E+02 0.0000E+00 0.9000E+01
       21  1    1    2  502  501 -.73051361E+02 -.27493380E+02 0.68598272E+02 0.10391666E+03 0.75000000E+00 0.0000E+00 0.9000E+01
#aMCatNLO 2  0  0  1  2 0.78053746D+02 0.00000000D+00  -5  5  0 0.00000000D+00 0.00000000D+00 0.00000000D+00 0.00000000D+00 0.00000000D+00
  <mgrwgt>
 0.1035420883D+00    2    2    0
 0.109280736154163D+03 0.000000000000000D+00 0.000000000000000D+00 0.109280736154163D+03
 0.109280736154163D+03 0.000000000000000D+00 0.000000000000000D+00 -.109280736154163D+03
 0.130230869654157D+03 0.230091475659262D+02 0.153742498681507D+02 0.238598193656025D+02
 0.883306026541686D+02 -.230091475659262D+02 -.153742498681507D+02 -.238598193656025D+02
 0.000000000000000D+00 -.000000000000000D+00 -.000000000000000D+00 0.000000000000000D+00
 0.366604842860767D+03 0.000000000000000D+00 0.000000000000000D+00 0.366604842860767D+03
 0.122119070431835D+03 0.000000000000000D+00 0.000000000000000D+00 -.122119070431835D+03
 0.147910908499327D+03 0.680973161147126D+02 0.323434910130320D+02 0.238598193656025D+02
 0.841699059559623D+02 0.495404465424093D+01 -.485011089250684D+01 -.238598193656025D+02
 0.256643098837313D+03 -.730513607689536D+02 -.274933801205251D+02 0.244485772428932D+03
-.149806752015D-03 0.000000000000D+00 0.000000000000D+00 0.291064215334D-02 0.000000000000D+00  5 1 -2 25 -24 21 2 0.18809880D-01 0.48837756D-01 0.23217353D+05 0.23217353D+05 0.23217353D+05 0.12267572D+01  1  2 13  1  5  1        1 -.217318942862D-01 0.100000000000D+01
0.112240920049D-02 0.000000000000D+00 0.000000000000D+00 0.291064215334D-02 0.737214219119D-05  5 1 -2 25 -24 21 2 0.19415983D-01 0.54575231D-01 0.23217353D+05 0.23217353D+05 0.23217353D+05 0.12267572D+01  1  2  1  1  5  1        1 0.125273982632D+00 0.100000000000D+01
  </mgrwgt>
  </event>
  <event>
  4     66 0.47139866E-03 0.95096537E+02 0.75467711E-02 0.12388481E+00
        1 -1    0    0  501    0 0.00000000E+00 0.00000000E+00 0.13229613E+02 0.13233482E+02 0.32000000E+00 0.0000E+00 0.9000E+01
       -2 -1    0    0    0  501 0.00000000E+00 0.00000000E+00 -.11157000E+04 0.11157000E+04 0.32000000E+00 0.0000E+00 0.9000E+01
       25  1    1    2    0    0 0.65218440E+01 0.60854207E+02 -.55288420E+03 0.57013306E+03 0.12500000E+03 0.0000E+00 0.9000E+01
      -24  1    1    2    0    0 -.65218440E+01 -.60854207E+02 -.54958618E+03 0.55880046E+03 0.80419002E+02 0.0000E+00 0.9000E+01
#aMCatNLO 1  0  0  1  2 0.49426608D+01 0.00000000D+00  -5  5  0 0.00000000D+00 0.00000000D+00 0.00000000D+00 0.00000000D+00 0.00000000D+00
  <mgrwgt>
 0.1632562079D+00    8    2    0
 0.121500984050629D+03 0.000000000000000D+00 0.000000000000000D+00 0.121500984050629D+03
 0.121500984050629D+03 0.000000000000000D+00 0.000000000000000D+00 -.121500984050629D+03
 0.140344008486163D+03 0.652184397513091D+01 0.608542065327515D+02 0.180463795925214D+02
 0.102657959615096D+03 -.652184397513091D+01 -.608542065327515D+02 -.180463795925214D+02
 0.000000000000000D+00 -.000000000000000D+00 -.000000000000000D+00 -.000000000000000D+00
 0.123440192465725D+03 0.000000000000000D+00 0.000000000000000D+00 0.123440192465725D+03
 0.124716933341773D+03 0.000000000000000D+00 0.000000000000000D+00 -.124716933341773D+03
 0.141204080073250D+03 0.884503149807560D+01 0.625274806043987D+02 0.180463795925214D+02
 0.101848149699178D+03 -.483436655713159D+01 -.596388021875829D+02 -.180463795925214D+02
 0.510489603506932D+01 -.401066494094401D+01 -.288867841681579D+01 -.127674087604794D+01
0.864142316014D-03 0.000000000000D+00 0.000000000000D+00 0.270265867766D-02 0.000000000000D+00  5 1 -2 25 -24 21 0 0.20356263D-02 0.17164645D+00 0.14428601D+05 0.14428601D+05 0.14428601D+05 0.12497500D+01  1  2  2  1  5  1        1 0.948636139093D-01 0.100000000000D+01
-.480002692564D-04 0.000000000000D+00 -.331853402739D-05 0.270265867766D-02 0.000000000000D+00  5 1 -2 25 -24 21 2 0.20356263D-02 0.17164645D+00 0.14428601D+05 0.14428601D+05 0.14428601D+05 0.12497500D+01  1  2  3  1  5  1        1 -.823008555185D-02 0.100000000000D+01
0.599222402093D-04 0.000000000000D+00 0.000000000000D+00 0.270265867766D-02 0.000000000000D+00  5 1 -2 25 -24 21 2 0.20356263D-02 0.17164645D+00 0.14428601D+05 0.14428601D+05 0.14428601D+05 0.12497500D+01  1  2 15  1  5  1        1 0.102742166038D-01 0.100000000000D+01
0.436632839500D-03 0.000000000000D+00 0.000000000000D+00 0.270265867766D-02 0.000000000000D+00  5 1 -2 25 -24 21 2 0.20944966D-02 0.17164645D+00 0.15033873D+05 0.15033873D+05 0.15033873D+05 0.12477109D+01  1  2 12  1  5  1        1 0.718177469041D-01 0.100000000000D+01
-.159518659902D-02 0.000000000000D+00 0.000000000000D+00 0.270265867766D-02 0.000000000000D+00  5 1 -2 25 -24 21 2 0.20356263D-02 0.17164645D+00 0.14428601D+05 0.14428601D+05 0.14428601D+05 0.12497500D+01  1  2  4  1  5  1        1 -.273509344520D+00 0.100000000000D+01
0.133554344265D-02 0.000000000000D+00 0.000000000000D+00 0.270265867766D-02 0.918917144075D-03  5 1 -2 25 -24 21 2 0.20681157D-02 0.17618968D+00 0.15033873D+05 0.15033873D+05 0.15033873D+05 0.12477109D+01  1  2 11  1  5  1        1 0.208431025688D+00 0.100000000000D+01
0.683595625431D-05 0.000000000000D+00 0.000000000000D+00 0.270265867766D-02 0.000000000000D+00  5 21 -2 25 -24 -1 2 0.20944966D-02 0.17164645D+00 0.15033873D+05 0.15033873D+05 0.15033873D+05 0.12477109D+01  1  2 12  3  5  1        1 0.220529296254D-01 0.100000000000D+01
0.122345590211D-04 0.000000000000D+00 0.000000000000D+00 0.270265867766D-02 0.269859168614D-05  5 21 -2 25 -24 -1 2 0.20681157D-02 0.17618968D+00 0.15033873D+05 0.15033873D+05 0.15033873D+05 0.12477109D+01  1  2 11  3  5  1        1 0.375561052084D-01 0.100000000000D+01
  </mgrwgt>
  </event>
  <event>
  4     66 0.47139866E-03 0.14877877E+03 0.75467711E-02 0.11594079E+00
        1 -1    0    0  501    0 0.00000000E+00 0.00000000E+00 0.11730427E+04 0.11730428E+04 0.32000000E+00 0.0000E+00 0.9000E+01
       -2 -1    0    0    0  501 0.00000000E+00 0.00000000E+00 -.35198179E+02 0.35199633E+02 0.32000000E+00 0.0000E+00 0.9000E+01
       25  1    1    2    0    0 0.84119845E+02 0.65189442E+02 0.19017728E+03 0.25123338E+03 0.12500000E+03 0.0000E+00 0.9000E+01
      -24  1    1    2    0    0 -.84119845E+02 -.65189442E+02 0.94766728E+03 0.95700904E+03 0.80419002E+02 0.0000E+00 0.9000E+01
#aMCatNLO 1  0  0  2  2 0.73965862D+02 0.00000000D+00  -5  5  0 0.00000000D+00 0.00000000D+00 0.00000000D+00 0.00000000D+00 0.00000000D+00
  <mgrwgt>
 0.1941087331D+00    3    2    0
 0.203199097229593D+03 0.000000000000000D+00 0.000000000000000D+00 0.203199097229593D+03
 0.203199097229593D+03 0.000000000000000D+00 0.000000000000000D+00 -.203199097229593D+03
 0.214466106003852D+03 0.841198452917165D+02 0.651894420946706D+02 -.138003256816421D+03
 0.191932088455334D+03 -.841198452917165D+02 -.651894420946706D+02 0.138003256816421D+03
 0.000000000000000D+00 -.000000000000000D+00 -.000000000000000D+00 0.000000000000000D+00
 0.388571508843321D+03 0.000000000000000D+00 0.000000000000000D+00 0.388571508843321D+03
 0.214050811228315D+03 0.000000000000000D+00 0.000000000000000D+00 -.214050811228315D+03
 0.231253117039635D+03 0.879370251231813D+02 0.105238704197139D+03 -.138003256816421D+03
 0.181821260252761D+03 -.809189877319075D+02 -.316065382165818D+02 0.138003256816421D+03
 0.189547942779240D+03 -.701803739127379D+01 -.736321659805573D+02 0.174520697615007D+03
0.103834545136D-02 0.000000000000D+00 0.000000000000D+00 0.120711233459D-02 0.000000000000D+00  5 1 -2 25 -24 21 0 0.18046823D+00 0.54152197D-02 0.22135121D+05 0.22135121D+05 0.22135121D+05 0.12290056D+01  1  2  2  2  5  2       -2 0.188545157721D+00 0.100000000000D+01
-.508703771306D-04 0.000000000000D+00 -.398751993584D-05 0.120711233459D-02 0.000000000000D+00  5 1 -2 25 -24 21 2 0.18046823D+00 0.54152197D-02 0.22135121D+05 0.22135121D+05 0.22135121D+05 0.12290056D+01  1  2  3  2  5  2       -2 -.139523125102D-01 0.100000000000D+01
0.711552708636D-04 0.000000000000D+00 0.000000000000D+00 0.120711233459D-02 0.000000000000D+00  5 1 -2 25 -24 21 2 0.18046823D+00 0.54152197D-02 0.22135121D+05 0.22135121D+05 0.22135121D+05 0.12290056D+01  1  2 15  2  5  2       -2 0.195158878671D-01 0.100000000000D+01
  </mgrwgt>
  </event>
  <event>
  4     66 0.47139866E-03 0.10862277E+03 0.75467711E-02 0.12125374E+00
        1 -1    0    0  501    0 0.00000000E+00 0.00000000E+00 0.15785559E+04 0.15785559E+04 0.32000000E+00 0.0000E+00 0.9000E+01
       -2 -1    0    0    0  501 0.00000000E+00 0.00000000E+00 -.90195961E+01 0.90252709E+01 0.32000000E+00 0.0000E+00 0.9000E+01
       25  1    1    2    0    0 0.60170671E+01 -.34071030E+02 0.58729160E+03 0.60144281E+03 0.12500000E+03 0.0000E+00 0.9000E+01
      -24  1    1    2    0    0 -.60170671E+01 0.34071030E+02 0.98224472E+03 0.98613840E+03 0.80419002E+02 0.0000E+00 0.9000E+01
#aMCatNLO 1  0  0  2  1 0.57222553D+02 0.00000000D+00  -5  5  0 0.00000000D+00 0.00000000D+00 0.00000000D+00 0.00000000D+00 0.00000000D+00
  <mgrwgt>
 0.3285221039D+00    3    2    0
 0.119341807731850D+03 0.000000000000000D+00 0.000000000000000D+00 0.119341807731850D+03
 0.119341807731850D+03 0.000000000000000D+00 0.000000000000000D+00 -.119341807731850D+03
 0.138525747165309D+03 0.601706714165006D+01 -.340710299498242D+02 -.486553434771377D+02
 0.100157868298390D+03 -.601706714165006D+01 0.340710299498242D+02 0.486553434771377D+02
 0.000000000000000D+00 -.000000000000000D+00 0.000000000000000D+00 0.000000000000000D+00
 0.239211459949812D+03 0.000000000000000D+00 0.000000000000000D+00 0.239211459949812D+03
 0.129750943725964D+03 0.000000000000000D+00 0.000000000000000D+00 -.129750943725964D+03
 0.150441251615455D+03 0.207689457150087D+02 -.648758709585741D+02 -.486553434771377D+02
 0.950058687423658D+02 0.394611814558207D+01 0.132659279292465D+02 0.486553434771377D+02
 0.123515283317955D+03 -.247150638605908D+02 0.516099430293276D+02 0.109460516223848D+03
0.449609240376D-03 0.000000000000D+00 0.000000000000D+00 0.239475267474D-02 0.000000000000D+00  5 1 -2 25 -24 21 0 0.24285519D+00 0.13880692D-02 0.11798907D+05 0.11798907D+05 0.11798907D+05 0.12598852D+01  1  2  2  2  5  2       -2 0.321485589466D+00 0.100000000000D+01
-.247093101365D-04 0.000000000000D+00 -.172661786788D-05 0.239475267474D-02 0.000000000000D+00  5 1 -2 25 -24 21 2 0.24285519D+00 0.13880692D-02 0.11798907D+05 0.11798907D+05 0.11798907D+05 0.12598852D+01  1  2  3  2  5  2       -2 -.280445740269D-01 0.100000000000D+01
0.309089913284D-04 0.000000000000D+00 0.000000000000D+00 0.239475267474D-02 0.000000000000D+00  5 1 -2 25 -24 21 2 0.24285519D+00 0.13880692D-02 0.11798907D+05 0.11798907D+05 0.11798907D+05 0.12598852D+01  1  2 15  2  5  2       -2 0.350810884892D-01 0.100000000000D+01
  </mgrwgt>
  </event>
  <event>
  4     66 0.47139866E-03 0.55944625E+02 0.75467711E-02 0.12399753E+00
        1 -1    0    0  501    0 0.00000000E+00 0.00000000E+00 0.26616762E+03 0.26616781E+03 0.32000000E+00 0.0000E+00 0.9000E+01
       -2 -1    0    0    0  501 0.00000000E+00 0.00000000E+00 -.67178186E+02 0.67178949E+02 0.32000000E+00 0.0000E+00 0.9000E+01
       25  1    1    2    0    0 -.58713784E+02 0.24383598E+02 0.42992025E+02 0.14668055E+03 0.12500000E+03 0.0000E+00 0.9000E+01
      -24  1    1    2    0    0 0.58713784E+02 -.24383598E+02 0.15599741E+03 0.18666621E+03 0.80419002E+02 0.0000E+00 0.9000E+01
#aMCatNLO 1  0  0  1  2 0.10691613D+01 0.00000000D+00  -5  5  0 0.00000000D+00 0.00000000D+00 0.00000000D+00 0.00000000D+00 0.00000000D+00
  <mgrwgt>
 0.1846839087D+00   11    2    0
 0.133719171874982D+03 0.000000000000000D+00 0.000000000000000D+00 0.133719171874982D+03
 0.133719171874982D+03 0.000000000000000D+00 0.000000000000000D+00 -.133719171874982D+03
 0.150840471530860D+03 -.587137841255290D+02 0.243835982059486D+02 -.555515935310933D+02
 0.116597872219105D+03 0.587137841255290D+02 -.243835982059486D+02 0.555515935310933D+02
 0.000000000000000D+00 -.000000000000000D+00 -.000000000000000D+00 0.000000000000000D+00
 0.138208285140581D+03 0.000000000000000D+00 0.000000000000000D+00 0.138208285140581D+03
 0.133783915495694D+03 0.000000000000000D+00 0.000000000000000D+00 -.133783915495694D+03
 0.150831855758351D+03 -.584611620323905D+02 0.249311391935239D+02 -.555515935310933D+02
 0.116608625122354D+03 0.589090725499638D+02 -.239603239964422D+02 0.555515935310933D+02
 0.455171975556918D+01 -.447910517573289D+00 -.970815197081685D+00 0.442436964488742D+01
0.242615762517D-03 0.000000000000D+00 0.000000000000D+00 0.217657304168D-02 0.000000000000D+00  5 1 -2 25 -24 21 0 0.40948938D-01 0.10335179D-01 0.14732186D+05 0.14732186D+05 0.14732186D+05 0.12487155D+01  1  2  2  1  5  1        1 0.129756398401D+00 0.100000000000D+01
-.133249444049D-04 0.000000000000D+00 -.931708410264D-06 0.217657304168D-02 0.000000000000D+00  5 1 -2 25 -24 21 2 0.40948938D-01 0.10335179D-01 0.14732186D+05 0.14732186D+05 0.14732186D+05 0.12487155D+01  1  2  3  1  5  1        1 -.111122540029D-01 0.100000000000D+01
0.167908764659D-04 0.000000000000D+00 0.000000000000D+00 0.217657304168D-02 0.000000000000D+00  5 1 -2 25 -24 21 2 0.40948938D-01 0.10335179D-01 0.14732186D+05 0.14732186D+05 0.14732186D+05 0.12487155D+01  1  2 15  1  5  1        1 0.140026463563D-01 0.100000000000D+01
0.123888540050D-06 0.000000000000D+00 0.000000000000D+00 0.217657304168D-02 0.000000000000D+00  5 1 -2 25 -24 21 2 0.42333379D-01 0.10335179D-01 0.14862604D+05 0.14862604D+05 0.14862604D+05 0.12482784D+01  1  2 12  1  5  1        1 0.991315905828D-04 0.100000000000D+01
-.388140874269D-01 0.000000000000D+00 0.000000000000D+00 0.217657304168D-02 0.000000000000D+00  5 1 -2 25 -24 21 2 0.40948938D-01 0.10335179D-01 0.14732186D+05 0.14732186D+05 0.14732186D+05 0.12487155D+01  1  2  4  1  5  1        1 -.323687653225D+02 0.100000000000D+01
-.448990646286D-01 0.000000000000D+00 -.110774371599D-02 0.217657304168D-02 0.000000000000D+00  5 1 -2 25 -24 21 2 0.42334176D-01 0.10335179D-01 0.14732186D+05 0.14732186D+05 0.14732186D+05 0.12487155D+01  1  2  5  1  5  1        1 -.359409711776D+02 0.100000000000D+01
0.449116739651D-01 0.000000000000D+00 0.110713096475D-02 0.217657304168D-02 0.000000000000D+00  5 1 -2 25 -24 21 2 0.40948938D-01 0.10335179D-01 0.14732186D+05 0.14732186D+05 0.14732186D+05 0.12487155D+01  1  2  6  1  5  1        1 0.374538094591D+02 0.100000000000D+01
0.388353231332D-01 0.000000000000D+00 0.000000000000D+00 0.217657304168D-02 0.158324203076D-01  5 1 -2 25 -24 21 2 0.42323643D-01 0.10340183D-01 0.14862604D+05 0.14862604D+05 0.14862604D+05 0.12482784D+01  1  2 11  1  5  1        1 0.310599325137D+02 0.100000000000D+01
0.378010658811D-08 0.000000000000D+00 0.000000000000D+00 0.217657304168D-02 0.000000000000D+00  5 21 -2 25 -24 -1 2 0.42333379D-01 0.10335179D-01 0.14862604D+05 0.14862604D+05 0.14862604D+05 0.12482784D+01  1  2 12  3  5  1        1 0.155502195422D-04 0.100000000000D+01
-.266173815134D-03 0.000000000000D+00 -.657781820744D-05 0.217657304168D-02 0.000000000000D+00  5 21 -2 25 -24 -1 2 0.42334176D-01 0.10335179D-01 0.14732186D+05 0.14732186D+05 0.14732186D+05 0.12487155D+01  1  2  5  3  5  1        1 -.109559188818D+01 0.100000000000D+01
0.229426137088D-03 0.000000000000D+00 0.000000000000D+00 0.217657304168D-02 0.933669839578D-04  5 21 -2 25 -24 -1 2 0.42323643D-01 0.10340183D-01 0.14862604D+05 0.14862604D+05 0.14862604D+05 0.12482784D+01  1  2 11  3  5  1        1 0.943508851683D+00 0.100000000000D+01
  </mgrwgt>
  </event>
  <event>
  4     66 0.47139866E-03 0.42635139E+02 0.75467711E-02 0.12439603E+00
        1 -1    0    0  501    0 0.00000000E+00 0.00000000E+00 0.45719162E+03 0.45719174E+03 0.32000000E+00 0.0000E+00 0.9000E+01
       -2 -1    0    0    0  501 0.00000000E+00 0.00000000E+00 -.27899902E+02 0.27901737E+02 0.32000000E+00 0.0000E+00 0.9000E+01
       25  1    1    2    0    0 0.29134880E+02 -.26631289E+02 0.30411700E+03 0.33116494E+03 0.12500000E+03 0.0000E+00 0.9000E+01
      -24  1    1    2    0    0 -.29134880E+02 0.26631289E+02 0.12517472E+03 0.15392853E+03 0.80419002E+02 0.0000E+00 0.9000E+01
#aMCatNLO 1  0  0  2  1 0.17640389D+02 0.00000000D+00  -5  5  0 0.00000000D+00 0.00000000D+00 0.00000000D+00 0.00000000D+00 0.00000000D+00
  <mgrwgt>
 0.1961147342D+00    9    2    0
 0.112942789782807D+03 0.000000000000000D+00 0.000000000000000D+00 0.112942789782807D+03
 0.112942789782807D+03 0.000000000000000D+00 0.000000000000000D+00 -.112942789782807D+03
 0.133213636782514D+03 0.291348800265747D+02 -.266312889315444D+02 0.237235376895021D+02
 0.926719427830995D+02 -.291348800265747D+02 0.266312889315444D+02 -.237235376895021D+02
 0.000000000000000D+00 -.000000000000000D+00 0.000000000000000D+00 -.000000000000000D+00
 0.114670327310749D+03 0.000000000000000D+00 0.000000000000000D+00 0.114670327310749D+03
 0.169511449272017D+03 0.000000000000000D+00 0.000000000000000D+00 -.169511449272017D+03
 0.136480330744354D+03 0.389787506345645D+02 -.303270743486995D+02 0.237235376895021D+02
 0.900930091931458D+02 -.224639316348559D+02 0.241267462809433D+02 -.237235376895021D+02
 0.576084366452660D+02 -.165148189997086D+02 0.620032806775617D+01 -.548411219612681D+02
0.152967819038D-03 0.000000000000D+00 0.000000000000D+00 0.282580353031D-02 0.000000000000D+00  5 1 -2 25 -24 21 0 0.70337323D-01 0.42924424D-02 0.12173607D+05 0.12173607D+05 0.12173607D+05 0.12582937D+01  1  2  2  2  5  2       -2 0.157901701742D+00 0.100000000000D+01
-.849256961031D-05 0.000000000000D+00 -.587436702456D-06 0.282580353031D-02 0.000000000000D+00  5 1 -2 25 -24 21 2 0.70337323D-01 0.42924424D-02 0.12173607D+05 0.12173607D+05 0.12173607D+05 0.12582937D+01  1  2  3  2  5  2       -2 -.138800131384D-01 0.100000000000D+01
0.105742728686D-04 0.000000000000D+00 0.000000000000D+00 0.282580353031D-02 0.000000000000D+00  5 1 -2 25 -24 21 2 0.70337323D-01 0.42924424D-02 0.12173607D+05 0.12173607D+05 0.12173607D+05 0.12582937D+01  1  2 15  2  5  2       -2 0.172822894695D-01 0.100000000000D+01
0.825253178483D-03 0.000000000000D+00 0.000000000000D+00 0.282580353031D-02 0.000000000000D+00  5 1 -2 25 -24 21 2 0.70337323D-01 0.64620275D-02 0.14275049D+05 0.14275049D+05 0.14275049D+05 0.12502826D+01  1  2 12  2  5  2       -2 0.725080172404D+00 0.100000000000D+01
-.777977180995D-03 0.000000000000D+00 0.000000000000D+00 0.282580353031D-02 0.000000000000D+00  5 1 -2 25 -24 21 2 0.70337323D-01 0.42924424D-02 0.12173607D+05 0.12173607D+05 0.12173607D+05 0.12582937D+01  1  2  4  2  5  2       -2 -.127150367782D+01 0.100000000000D+01
-.875430227178D-03 0.000000000000D+00 -.577974110527D-04 0.282580353031D-02 0.000000000000D+00  5 1 -2 25 -24 21 2 0.70337323D-01 0.65279247D-02 0.12173607D+05 0.12173607D+05 0.12173607D+05 0.12582937D+01  1  2  5  2  5  2       -2 -.763450783429D+00 0.100000000000D+01
0.830348259068D-03 0.000000000000D+00 0.530654144557D-04 0.282580353031D-02 0.000000000000D+00  5 1 -2 25 -24 21 2 0.70337323D-01 0.42924424D-02 0.12173607D+05 0.12173607D+05 0.12173607D+05 0.12582937D+01  1  2  6  2  5  2       -2 0.135709747158D+01 0.100000000000D+01
0.399364761392D-04 0.000000000000D+00 0.000000000000D+00 0.282580353031D-02 0.000000000000D+00  5 1 21 25 -24 2 2 0.70337323D-01 0.64620275D-02 0.14275049D+05 0.14275049D+05 0.14275049D+05 0.12502826D+01  1  2 12  4  5  2       -2 0.601780103422D+00 0.100000000000D+01
-.410389927408D-04 0.000000000000D+00 -.284814114671D-05 0.282580353031D-02 0.000000000000D+00  5 1 21 25 -24 2 2 0.70337323D-01 0.65279247D-02 0.12173607D+05 0.12173607D+05 0.12173607D+05 0.12582937D+01  1  2  5  4  5  2       -2 -.614192530028D+00 0.100000000000D+01
  </mgrwgt>
  </event>
  <event>
  4     66 0.47139866E-03 0.11024790E+03 0.75467711E-02 0.11615261E+00
        1 -1    0    0  501    0 0.00000000E+00 0.00000000E+00 0.17692625E+03 0.17692654E+03 0.32000000E+00 0.0000E+00 0.9000E+01
       -2 -1    0    0    0  501 0.00000000E+00 0.00000000E+00 -.80729317E+02 0.80729952E+02 0.32000000E+00 0.0000E+00 0.9000E+01
       25  1    1    2    0    0 0.47433906E+01 -.38951663E+02 0.10478522E+03 0.16776374E+03 0.12500000E+03 0.0000E+00 0.9000E+01
      -24  1    1    2    0    0 -.47433906E+01 0.38951663E+02 -.85882836E+01 0.89892749E+02 0.80419002E+02 0.0000E+00 0.9000E+01
#aMCatNLO 1  0  0  2  1 0.12123545D+03 0.00000000D+00  -5  5  0 0.00000000D+00 0.00000000D+00 0.00000000D+00 0.00000000D+00 0.00000000D+00
  <mgrwgt>
 0.2410709854D+00    3    2    0
 0.119512570846683D+03 0.000000000000000D+00 0.000000000000000D+00 0.119512570846683D+03
 0.119512570846683D+03 0.000000000000000D+00 0.000000000000000D+00 -.119512570846683D+03
 0.138669099697061D+03 0.474339063577851D+01 -.389516630286964D+02 0.454355301869446D+02
 0.100356041996304D+03 -.474339063577851D+01 0.389516630286964D+02 -.454355301869446D+02
 0.000000000000000D+00 -.000000000000000D+00 -.000000000000000D+00 0.000000000000000D+00
 0.292189574415740D+03 0.000000000000000D+00 0.000000000000000D+00 0.292189574415740D+03
 0.157236058308598D+03 0.000000000000000D+00 0.000000000000000D+00 -.157236058308598D+03
 0.143372192767752D+03 0.528954177769176D+02 0.826274977655477D+01 0.454355301869446D+02
 0.124640965205913D+03 0.336696442173641D+02 0.766167208120950D+02 -.454355301869446D+02
 0.181412474750674D+03 -.865650619942817D+02 -.848794705886498D+02 0.134953516107142D+03
0.358797779843D-03 0.000000000000D+00 0.000000000000D+00 0.244403403768D-02 0.000000000000D+00  5 1 -2 25 -24 21 0 0.27219495D-01 0.12419966D-01 0.12154599D+05 0.12154599D+05 0.12154599D+05 0.12583731D+01  1  2  2  2  5  2       -2 0.235945383663D+00 0.100000000000D+01
-.197754126964D-04 0.000000000000D+00 -.137787794822D-05 0.244403403768D-02 0.000000000000D+00  5 1 -2 25 -24 21 2 0.27219495D-01 0.12419966D-01 0.12154599D+05 0.12154599D+05 0.12154599D+05 0.12583731D+01  1  2  3  2  5  2       -2 -.205923602985D-01 0.100000000000D+01
0.246976697157D-04 0.000000000000D+00 0.000000000000D+00 0.244403403768D-02 0.000000000000D+00  5 1 -2 25 -24 21 2 0.27219495D-01 0.12419966D-01 0.12154599D+05 0.12154599D+05 0.12154599D+05 0.12583731D+01  1  2 15  2  5  2       -2 0.257179620536D-01 0.100000000000D+01
  </mgrwgt>
  </event>
  <event>
  4     66 0.47139866E-03 0.90340509E+02 0.75467711E-02 0.11806484E+00
        1 -1    0    0  501    0 0.00000000E+00 0.00000000E+00 0.34679770E+04 0.34679770E+04 0.32000000E+00 0.0000E+00 0.9000E+01
       -2 -1    0    0    0  501 0.00000000E+00 0.00000000E+00 -.74027585E+01 0.74096716E+01 0.32000000E+00 0.0000E+00 0.9000E+01
       25  1    1    2    0    0 -.10121685E+02 0.12139965E+03 0.19008827E+04 0.19088793E+04 0.12500000E+03 0.0000E+00 0.9000E+01
      -24  1    1    2    0    0 0.10121685E+02 -.12139965E+03 0.15596916E+04 0.15665074E+04 0.80419002E+02 0.0000E+00 0.9000E+01
#aMCatNLO 1  0  0  1  2 0.13869942D+02 0.00000000D+00  -5  5  0 0.00000000D+00 0.00000000D+00 0.00000000D+00 0.00000000D+00 0.00000000D+00
  <mgrwgt>
 0.2344213389D+00    9    2    0
 0.160264265712255D+03 0.000000000000000D+00 0.000000000000000D+00 0.160264265712255D+03
 0.160264265712255D+03 0.000000000000000D+00 0.000000000000000D+00 -.160264265712255D+03
 0.174549708578963D+03 -.101216847265770D+02 0.121399648693882D+03 0.150915880500915D+01
 0.145978822845547D+03 0.101216847265770D+02 -.121399648693882D+03 -.150915880500915D+01
 0.000000000000000D+00 0.000000000000000D+00 -.000000000000000D+00 0.000000000000000D+00
 0.214790629606391D+03 0.000000000000000D+00 0.000000000000000D+00 0.214790629606391D+03
 0.161298702396626D+03 0.000000000000000D+00 0.000000000000000D+00 -.161298702396626D+03
 0.179973059359258D+03 -.102542965988318D+02 0.129065386281898D+03 0.150915880500915D+01
 0.140855422456171D+03 0.100143922485298D+02 -.115197519367953D+03 -.150915880500915D+01
 0.552608501875875D+02 0.239904350301935D+00 -.138678669139452D+02 0.534919272097651D+02
0.259513554900D-02 0.000000000000D+00 0.000000000000D+00 0.233587451733D-02 0.000000000000D+00  5 1 -2 25 -24 21 0 0.53353546D+00 0.11394188D-02 0.25682339D+05 0.25682339D+05 0.25682339D+05 0.12220458D+01  1  2  2  1  5  1        1 0.136683446418D+00 0.100000000000D+01
-.144174196817D-03 0.000000000000D+00 -.996600382305D-05 0.233587451733D-02 0.000000000000D+00  5 1 -2 25 -24 21 2 0.53353546D+00 0.11394188D-02 0.25682339D+05 0.25682339D+05 0.25682339D+05 0.12220458D+01  1  2  3  1  5  1        1 -.113401394920D-01 0.100000000000D+01
0.178946761395D-03 0.000000000000D+00 0.000000000000D+00 0.233587451733D-02 0.000000000000D+00  5 1 -2 25 -24 21 2 0.53353546D+00 0.11394188D-02 0.25682339D+05 0.25682339D+05 0.25682339D+05 0.12220458D+01  1  2 15  1  5  1        1 0.140752040287D-01 0.100000000000D+01
0.183770597412D-01 0.000000000000D+00 0.000000000000D+00 0.233587451733D-02 0.000000000000D+00  5 1 -2 25 -24 21 2 0.71635825D+00 0.11394188D-02 0.28003347D+05 0.28003347D+05 0.28003347D+05 0.12180503D+01  1  2 12  1  5  1        1 0.136501455730D+00 0.100000000000D+01
-.183059716046D-01 0.000000000000D+00 0.000000000000D+00 0.233587451733D-02 0.000000000000D+00  5 1 -2 25 -24 21 2 0.53353546D+00 0.11394188D-02 0.25682339D+05 0.25682339D+05 0.25682339D+05 0.12220458D+01  1  2  4  1  5  1        1 -.143987118442D+01 0.100000000000D+01
-.195484857035D-01 0.000000000000D+00 -.772876664906D-03 0.233587451733D-02 0.000000000000D+00  5 1 -2 25 -24 21 2 0.71562489D+00 0.11394188D-02 0.25682339D+05 0.25682339D+05 0.25682339D+05 0.12220458D+01  1  2  5  1  5  1        1 -.148458772240D+00 0.100000000000D+01
0.196662913626D-01 0.000000000000D+00 0.768766148345D-03 0.233587451733D-02 0.000000000000D+00  5 1 -2 25 -24 21 2 0.53353546D+00 0.11394188D-02 0.25682339D+05 0.25682339D+05 0.25682339D+05 0.12220458D+01  1  2  6  1  5  1        1 0.154686824874D+01 0.100000000000D+01
0.701196269066D-03 0.000000000000D+00 0.000000000000D+00 0.233587451733D-02 0.000000000000D+00  5 21 -2 25 -24 -1 2 0.71635825D+00 0.11394188D-02 0.28003347D+05 0.28003347D+05 0.28003347D+05 0.12180503D+01  1  2 12  3  5  1        1 0.506668851034D-03 0.100000000000D+01
-.727256545898D-03 0.000000000000D+00 -.294157203356D-04 0.233587451733D-02 0.000000000000D+00  5 21 -2 25 -24 -1 2 0.71562489D+00 0.11394188D-02 0.25682339D+05 0.25682339D+05 0.25682339D+05 0.12220458D+01  1  2  5  3  5  1        1 -.543588704018D-03 0.100000000000D+01
  </mgrwgt>
  </event>
  <event>
  4     66 0.47139866E-03 0.14106193E+03 0.75467711E-02 0.11308082E+00
        1 -1    0    0  501    0 0.00000000E+00 0.00000000E+00 0.55660754E+03 0.55660763E+03 0.32000000E+00 0.0000E+00 0.9000E+01
       -2 -1    0    0    0  501 0.00000000E+00 0.00000000E+00 -.56793113E+02 0.56794015E+02 0.32000000E+00 0.0000E+00 0.9000E+01
       25  1    1    2    0    0 0.13180497E+03 -.28469362E+02 0.18092482E+03 0.25795706E+03 0.12500000E+03 0.0000E+00 0.9000E+01
      -24  1    1    2    0    0 -.13180497E+03 0.28469362E+02 0.31888961E+03 0.35544459E+03 0.80419002E+02 0.0000E+00 0.9000E+01
#aMCatNLO 1  0  0  2  1 0.94900225D+02 0.00000000D+00  -5  5  0 0.00000000D+00 0.00000000D+00 0.00000000D+00 0.00000000D+00 0.00000000D+00
  <mgrwgt>
 0.2217697678D+00    9    2    0
 0.177797018528204D+03 0.000000000000000D+00 0.000000000000000D+00 0.177797018528204D+03
 0.177797018528204D+03 0.000000000000000D+00 0.000000000000000D+00 -.177797018528204D+03
 0.190673758702811D+03 0.131804971999821D+03 -.284693617052364D+02 -.504819478435667D+02
 0.164920278353598D+03 -.131804971999821D+03 0.284693617052364D+02 0.504819478435667D+02
 0.000000000000000D+00 -.000000000000000D+00 0.000000000000000D+00 -.000000000000000D+00
 0.211196205648650D+03 0.000000000000000D+00 0.000000000000000D+00 0.211196205648650D+03
 0.266867954541877D+03 0.000000000000000D+00 0.000000000000000D+00 -.266867954541877D+03
 0.215445124773849D+03 0.148266448898722D+03 -.791216459744209D+02 -.504819478435667D+02
 0.152594508947778D+03 -.118934941698653D+03 -.111319715998750D+02 0.504819478435667D+02
 0.110024526468899D+03 -.293315072000694D+02 0.902536175742959D+02 -.556717488932277D+02
0.732393154767D-03 0.000000000000D+00 0.000000000000D+00 0.207375126130D-02 0.000000000000D+00  5 1 -2 25 -24 21 0 0.85632006D-01 0.87374785D-02 0.29048723D+05 0.29048723D+05 0.29048723D+05 0.12163699D+01  1  2  2  2  5  2       -2 0.203277283430D+00 0.100000000000D+01
-.406000835941D-04 0.000000000000D+00 -.281258255785D-05 0.207375126130D-02 0.000000000000D+00  5 1 -2 25 -24 21 2 0.85632006D-01 0.87374785D-02 0.29048723D+05 0.29048723D+05 0.29048723D+05 0.12163699D+01  1  2  3  2  5  2       -2 -.166725804580D-01 0.100000000000D+01
0.504069800729D-04 0.000000000000D+00 0.000000000000D+00 0.207375126130D-02 0.000000000000D+00  5 1 -2 25 -24 21 2 0.85632006D-01 0.87374785D-02 0.29048723D+05 0.29048723D+05 0.29048723D+05 0.12163699D+01  1  2 15  2  5  2       -2 0.206998202101D-01 0.100000000000D+01
0.193081764510D-03 0.000000000000D+00 0.000000000000D+00 0.207375126130D-02 0.000000000000D+00  5 1 -2 25 -24 21 2 0.85632006D-01 0.13604726D-01 0.50254389D+05 0.50254389D+05 0.50254389D+05 0.11920635D+01  1  2 12  2  5  2       -2 0.377774743829D-01 0.100000000000D+01
-.377944543348D-03 0.000000000000D+00 0.000000000000D+00 0.207375126130D-02 0.000000000000D+00  5 1 -2 25 -24 21 2 0.85632006D-01 0.87374785D-02 0.29048723D+05 0.29048723D+05 0.29048723D+05 0.12163699D+01  1  2  4  2  5  2       -2 -.155204380135D+00 0.100000000000D+01
-.433146889521D-03 0.000000000000D+00 -.231946935993D-03 0.207375126130D-02 0.000000000000D+00  5 1 -2 25 -24 21 2 0.85632006D-01 0.15509112D-01 0.29048723D+05 0.29048723D+05 0.29048723D+05 0.12163699D+01  1  2  5  2  5  2       -2 -.709170275344D-01 0.100000000000D+01
0.513006933770D-03 0.000000000000D+00 0.198381978688D-03 0.207375126130D-02 0.000000000000D+00  5 1 -2 25 -24 21 2 0.85632006D-01 0.87374785D-02 0.29048723D+05 0.29048723D+05 0.29048723D+05 0.12163699D+01  1  2  6  2  5  2       -2 0.210668270152D+00 0.100000000000D+01
0.991181661696D-05 0.000000000000D+00 0.000000000000D+00 0.207375126130D-02 0.000000000000D+00  5 1 21 25 -24 2 2 0.85632006D-01 0.13604726D-01 0.50254389D+05 0.50254389D+05 0.50254389D+05 0.11920635D+01  1  2 12  4  5  2       -2 0.283836362653D-01 0.100000000000D+01
-.152865558724D-04 0.000000000000D+00 -.146454603607D-04 0.207375126130D-02 0.000000000000D+00  5 1 21 25 -24 2 2 0.85632006D-01 0.15509112D-01 0.29048723D+05 0.29048723D+05 0.29048723D+05 0.12163699D+01  1  2  5  4  5  2       -2 -.362427285211D-01 0.100000000000D+01
  </mgrwgt>
  </event>
  <event>
  4     66 0.47139866E-03 0.11847735E+03 0.75467711E-02 0.12167140E+00
        3 -1    0    0  501    0 0.00000000E+00 0.00000000E+00 0.12835667E+03 0.12835765E+03 0.50000000E+00 0.0000E+00 0.9000E+01
       -4 -1    0    0    0  501 0.00000000E+00 0.00000000E+00 -.10944196E+03 0.10945293E+03 0.15500000E+01 0.0000E+00 0.9000E+01
       25  1    1    2    0    0 0.53321271E+02 -.22826073E+02 0.14447704E+02 0.13855657E+03 0.12500000E+03 0.0000E+00 0.9000E+01
      -24  1    1    2    0    0 -.53321271E+02 0.22826073E+02 0.44670102E+01 0.99254006E+02 0.80419002E+02 0.0000E+00 0.9000E+01
#aMCatNLO 1  0  0  2  1 0.35435941D+02 0.00000000D+00  -5  5  0 0.00000000D+00 0.00000000D+00 0.00000000D+00 0.00000000D+00 0.00000000D+00
  <mgrwgt>
 0.4234436466D-01    3    2    0
 0.118528588073729D+03 0.000000000000000D+00 0.000000000000000D+00 0.118528588073729D+03
 0.118528588073729D+03 0.000000000000000D+00 0.000000000000000D+00 -.118528588073729D+03
 0.137844147708871D+03 0.533212711802061D+02 -.228260732230105D+02 0.343823770699600D+01
 0.992130284385859D+02 -.533212711802061D+02 0.228260732230105D+02 -.343823770699600D+01
 0.000000000000000D+00 0.000000000000000D+00 -.000000000000000D+00 0.000000000000000D+00
 0.249665985785959D+03 0.000000000000000D+00 0.000000000000000D+00 0.249665985785959D+03
 0.122263695749267D+03 0.000000000000000D+00 0.000000000000000D+00 -.122263695749267D+03
 0.130842669628818D+03 0.366449119223580D+02 -.118377847281010D+02 0.343823770699600D+01
 0.108848403865704D+03 -.662348455311502D+02 0.313350096326083D+02 -.343823770699600D+01
 0.132238608040705D+03 0.295899336087922D+02 -.194972249045074D+02 0.127402290036692D+03
0.310204111855D-03 0.000000000000D+00 0.000000000000D+00 0.280993193755D-02 0.000000000000D+00  5 3 -4 25 -24 21 0 0.19748099D-01 0.16838143D-01 0.14036882D+05 0.14036882D+05 0.14036882D+05 0.12511216D+01  1  2  2  2  5  2       -4 0.414581605677D-01 0.100000000000D+01
-.172335578521D-04 0.000000000000D+00 -.119126546814D-05 0.280993193755D-02 0.000000000000D+00  5 3 -4 25 -24 21 2 0.19748099D-01 0.16838143D-01 0.14036882D+05 0.14036882D+05 0.14036882D+05 0.12511216D+01  1  2  3  2  5  2       -4 -.360525876417D-02 0.100000000000D+01
0.214697169044D-04 0.000000000000D+00 0.000000000000D+00 0.280993193755D-02 0.000000000000D+00  5 3 -4 25 -24 21 2 0.19748099D-01 0.16838143D-01 0.14036882D+05 0.14036882D+05 0.14036882D+05 0.12511216D+01  1  2 15  2  5  2       -4 0.449146285973D-02 0.100000000000D+01
  </mgrwgt>
  </event>
  <event>
  4     66 0.47139866E-03 0.71217615E+02 0.75467711E-02 0.12138307E+00
        1 -1    0    0  501    0 0.00000000E+00 0.00000000E+00 0.29323482E+03 0.29323499E+03 0.32000000E+00 0.0000E+00 0.9000E+01
       -2 -1    0    0    0  501 0.00000000E+00 0.00000000E+00 -.40584702E+02 0.40585964E+02 0.32000000E+00 0.0000E+00 0.9000E+01
       25  1    1    2    0    0 -.23918501E+02 -.14509431E+02 0.11598006E+03 0.17279755E+03 0.12500000E+03 0.0000E+00 0.9000E+01
      -24  1    1    2    0    0 0.23918501E+02 0.14509431E+02 0.13667005E+03 0.16102341E+03 0.80419002E+02 0.0000E+00 0.9000E+01
#aMCatNLO 1  0  0  1  2 0.58130392D+02 0.00000000D+00  -5  5  0 0.00000000D+00 0.00000000D+00 0.00000000D+00 0.00000000D+00 0.00000000D+00
  <mgrwgt>
 0.1521974477D+00    9    2    0
 0.109092105976771D+03 0.000000000000000D+00 0.000000000000000D+00 0.109092105976771D+03
 0.109092105976771D+03 0.000000000000000D+00 0.000000000000000D+00 -.109092105976771D+03
 0.130078464163814D+03 -.239185014710725D+02 -.145094314449523D+02 -.226448344162451D+02
 0.881057477897280D+02 0.239185014710725D+02 0.145094314449523D+02 0.226448344162451D+02
 0.000000000000000D+00 -.000000000000000D+00 -.000000000000000D+00 0.000000000000000D+00
 0.183253688895297D+03 0.000000000000000D+00 0.000000000000000D+00 0.183253688895297D+03
 0.124904911865945D+03 0.000000000000000D+00 0.000000000000000D+00 -.124904911865945D+03
 0.127416878824888D+03 -.604660996527823D+00 0.984412864687591D+01 -.226448344162451D+02
 0.983783666174332D+02 0.408029268119846D+02 0.321468459071838D+02 0.226448344162451D+02
 0.823633553189213D+02 -.401982658154568D+02 -.419909745540597D+02 0.583487770293523D+02
0.156773864716D-03 0.000000000000D+00 0.000000000000D+00 0.292747624785D-02 0.000000000000D+00  5 1 -2 25 -24 21 0 0.45113160D-01 0.62439108D-02 0.11367631D+05 0.11367631D+05 0.11367631D+05 0.12617890D+01  1  2  2  1  5  1        1 0.160105564282D+00 0.100000000000D+01
-.870409128981D-05 0.000000000000D+00 -.602052920018D-06 0.292747624785D-02 0.000000000000D+00  5 1 -2 25 -24 21 2 0.45113160D-01 0.62439108D-02 0.11367631D+05 0.11367631D+05 0.11367631D+05 0.12617890D+01  1  2  3  1  5  1        1 -.141523856205D-01 0.100000000000D+01
0.108556108464D-04 0.000000000000D+00 0.000000000000D+00 0.292747624785D-02 0.000000000000D+00  5 1 -2 25 -24 21 2 0.45113160D-01 0.62439108D-02 0.11367631D+05 0.11367631D+05 0.11367631D+05 0.12617890D+01  1  2 15  1  5  1        1 0.176506410295D-01 0.100000000000D+01
0.769639693317D-04 0.000000000000D+00 0.000000000000D+00 0.292747624785D-02 0.000000000000D+00  5 1 -2 25 -24 21 2 0.77183661D-01 0.62439108D-02 0.19495919D+05 0.19495919D+05 0.19495919D+05 0.12350484D+01  1  2 12  1  5  1        1 0.622165932430D-01 0.100000000000D+01
-.139954665424D-03 0.000000000000D+00 0.000000000000D+00 0.292747624785D-02 0.000000000000D+00  5 1 -2 25 -24 21 2 0.45113160D-01 0.62439108D-02 0.11367631D+05 0.11367631D+05 0.11367631D+05 0.12617890D+01  1  2  4  1  5  1        1 -.227558779947D+00 0.100000000000D+01
-.152129952225D-03 0.000000000000D+00 -.604534179560D-04 0.292747624785D-02 0.000000000000D+00  5 1 -2 25 -24 21 2 0.83861191D-01 0.62439108D-02 0.11367631D+05 0.11367631D+05 0.11367631D+05 0.12617890D+01  1  2  5  1  5  1        1 -.113425861447D+00 0.100000000000D+01
0.166568015981D-03 0.000000000000D+00 0.504438901888D-04 0.292747624785D-02 0.000000000000D+00  5 1 -2 25 -24 21 2 0.45113160D-01 0.62439108D-02 0.11367631D+05 0.11367631D+05 0.11367631D+05 0.12617890D+01  1  2  6  1  5  1        1 0.270830660629D+00 0.100000000000D+01
0.459688786621D-05 0.000000000000D+00 0.000000000000D+00 0.292747624785D-02 0.000000000000D+00  5 21 -2 25 -24 -1 2 0.77183661D-01 0.62439108D-02 0.19495919D+05 0.19495919D+05 0.19495919D+05 0.12350484D+01  1  2 12  3  5  1        1 0.113607825824D-01 0.100000000000D+01
-.691845884893D-05 0.000000000000D+00 -.408527224639D-05 0.292747624785D-02 0.000000000000D+00  5 21 -2 25 -24 -1 2 0.83861191D-01 0.62439108D-02 0.11367631D+05 0.11367631D+05 0.11367631D+05 0.12617890D+01  1  2  5  3  5  1        1 -.148297670170D-01 0.100000000000D+01
  </mgrwgt>
  </event>
  <event>
  4     66 0.47139866E-03 0.14307428E+03 0.75467711E-02 0.10928506E+00
        1 -1    0    0  501    0 0.00000000E+00 0.00000000E+00 0.12427810E+04 0.12427810E+04 0.32000000E+00 0.0000E+00 0.9000E+01
       -2 -1    0    0    0  501 0.00000000E+00 0.00000000E+00 -.17846466E+02 0.17849335E+02 0.32000000E+00 0.0000E+00 0.9000E+01
       25  1    1    2    0    0 0.95690125E+02 0.22882318E+02 0.84972366E+03 0.86448568E+03 0.12500000E+03 0.0000E+00 0.9000E+01
      -24  1    1    2    0    0 -.95690125E+02 -.22882318E+02 0.37521088E+03 0.39614470E+03 0.80419002E+02 0.0000E+00 0.9000E+01
#aMCatNLO 1  0  0  2  2 0.21523015D+03 0.00000000D+00  -5  5  0 0.00000000D+00 0.00000000D+00 0.00000000D+00 0.00000000D+00 0.00000000D+00
  <mgrwgt>
 0.3472617335D+00    3    2    0
 0.148933149274959D+03 0.000000000000000D+00 0.000000000000000D+00 0.148933149274959D+03
 0.148933149274959D+03 0.000000000000000D+00 0.000000000000000D+00 -.148933149274959D+03
 0.164305455726229D+03 0.956901253094783D+02 0.228823175944418D+02 0.411227703488852D+02
 0.133560842823689D+03 -.956901253094783D+02 -.228823175944418D+02 -.411227703488852D+02
 0.000000000000000D+00 -.000000000000000D+00 0.000000000000000D+00 0.000000000000000D+00
 0.499070341489002D+03 0.000000000000000D+00 0.000000000000000D+00 0.499070341489002D+03
 0.220471740494555D+03 0.000000000000000D+00 0.000000000000000D+00 -.220471740494555D+03
 0.269480614785340D+03 0.235072687859199D+03 0.667464804834098D+01 0.411227703488852D+02
 0.980086345043793D+02 -.212830630443823D+02 -.315345123527253D+02 -.411227703488852D+02
 0.352052832693838D+03 -.213789624814817D+03 0.248598643043844D+02 0.278598600994446D+03
0.762130766938D-03 0.000000000000D+00 0.000000000000D+00 0.224980362843D-02 0.000000000000D+00  5 1 -2 25 -24 21 0 0.19119730D+00 0.27458340D-02 0.20470251D+05 0.20470251D+05 0.20470251D+05 0.12327164D+01  1  2  2  2  5  2       -2 0.340179053649D+00 0.100000000000D+01
-.422576791422D-04 0.000000000000D+00 -.292678281868D-05 0.224980362843D-02 0.000000000000D+00  5 1 -2 25 -24 21 2 0.19119730D+00 0.27458340D-02 0.20470251D+05 0.20470251D+05 0.20470251D+05 0.12327164D+01  1  2  3  2  5  2       -2 -.286622367015D-01 0.100000000000D+01
0.526999071867D-04 0.000000000000D+00 0.000000000000D+00 0.224980362843D-02 0.000000000000D+00  5 1 -2 25 -24 21 2 0.19119730D+00 0.27458340D-02 0.20470251D+05 0.20470251D+05 0.20470251D+05 0.12327164D+01  1  2 15  2  5  2       -2 0.357449165358D-01 0.100000000000D+01
  </mgrwgt>
  </event>
  <event>
  4     66 0.47139866E-03 0.46147704E+02 0.75467711E-02 0.12025311E+00
        1 -1    0    0  501    0 0.00000000E+00 0.00000000E+00 0.89717801E+03 0.89717807E+03 0.32000000E+00 0.0000E+00 0.9000E+01
       -2 -1    0    0    0  501 0.00000000E+00 0.00000000E+00 -.20489987E+02 0.20492485E+02 0.32000000E+00 0.0000E+00 0.9000E+01
       25  1    1    2    0    0 -.50177080E+02 0.37934469E+02 0.28802202E+03 0.32021625E+03 0.12500000E+03 0.0000E+00 0.9000E+01
      -24  1    1    2    0    0 0.50177080E+02 -.37934469E+02 0.58866600E+03 0.59745430E+03 0.80419002E+02 0.0000E+00 0.9000E+01
#aMCatNLO 1  0  0  2  1 0.49485984D+02 0.00000000D+00  -5  5  0 0.00000000D+00 0.00000000D+00 0.00000000D+00 0.00000000D+00 0.00000000D+00
  <mgrwgt>
 0.2080987736D+00    9    2    0
 0.135588857217906D+03 0.000000000000000D+00 0.000000000000000D+00 0.135588857217906D+03
 0.135588857217906D+03 0.000000000000000D+00 0.000000000000000D+00 -.135588857217906D+03
 0.152474064884551D+03 -.501770803678705D+02 0.379344687824592D+02 -.605522678878924D+02
 0.118703649551262D+03 0.501770803678705D+02 -.379344687824592D+02 0.605522678878924D+02
 0.000000000000000D+00 0.000000000000000D+00 0.000000000000000D+00 -.000000000000000D+00
 0.150462015631789D+03 0.000000000000000D+00 0.000000000000000D+00 0.150462015631789D+03
 0.186285659876472D+03 0.000000000000000D+00 0.000000000000000D+00 -.186285659876472D+03
 0.152776506448092D+03 -.622697496020909D+02 0.130981701244756D+02 -.605522678878924D+02
 0.122879466528809D+03 0.406066323828771D+02 -.575905513099920D+02 0.605522678878924D+02
 0.610917025313609D+02 0.216631172192138D+02 0.444923811855163D+02 -.358236442446830D+02
0.283574092458D-03 0.000000000000D+00 0.000000000000D+00 0.209492466001D-02 0.000000000000D+00  5 1 -2 25 -24 21 0 0.13802758D+00 0.31525023D-02 0.14644962D+05 0.14644962D+05 0.14644962D+05 0.12490102D+01  1  2  2  2  5  2       -2 0.181263477372D+00 0.100000000000D+01
-.155064842163D-04 0.000000000000D+00 -.108899918181D-05 0.209492466001D-02 0.000000000000D+00  5 1 -2 25 -24 21 2 0.13802758D+00 0.31525023D-02 0.14644962D+05 0.14644962D+05 0.14644962D+05 0.12490102D+01  1  2  3  2  5  2       -2 -.154628338893D-01 0.100000000000D+01
0.196063218995D-04 0.000000000000D+00 0.000000000000D+00 0.209492466001D-02 0.000000000000D+00  5 1 -2 25 -24 21 2 0.13802758D+00 0.31525023D-02 0.14644962D+05 0.14644962D+05 0.14644962D+05 0.12490102D+01  1  2 15  2  5  2       -2 0.195511306421D-01 0.100000000000D+01
0.180036974192D-03 0.000000000000D+00 0.000000000000D+00 0.209492466001D-02 0.000000000000D+00  5 1 -2 25 -24 21 2 0.13802758D+00 0.44539050D-02 0.22003944D+05 0.22003944D+05 0.22003944D+05 0.12292865D+01  1  2 12  2  5  2       -2 0.105137293249D+00 0.100000000000D+01
-.223786630768D-03 0.000000000000D+00 0.000000000000D+00 0.209492466001D-02 0.000000000000D+00  5 1 -2 25 -24 21 2 0.13802758D+00 0.31525023D-02 0.14644962D+05 0.14644962D+05 0.14644962D+05 0.12490102D+01  1  2  4  2  5  2       -2 -.223156677551D+00 0.100000000000D+01
-.293049547690D-03 0.000000000000D+00 -.106598963282D-03 0.209492466001D-02 0.000000000000D+00  5 1 -2 25 -24 21 2 0.13802758D+00 0.48142198D-02 0.14644962D+05 0.14644962D+05 0.14644962D+05 0.12490102D+01  1  2  5  2  5  2       -2 -.156142274934D+00 0.100000000000D+01
0.318129387005D-03 0.000000000000D+00 0.977101688824D-04 0.209492466001D-02 0.000000000000D+00  5 1 -2 25 -24 21 2 0.13802758D+00 0.31525023D-02 0.14644962D+05 0.14644962D+05 0.14644962D+05 0.12490102D+01  1  2  6  2  5  2       -2 0.317233861521D+00 0.100000000000D+01
0.770646987063D-05 0.000000000000D+00 0.000000000000D+00 0.209492466001D-02 0.000000000000D+00  5 1 21 25 -24 2 2 0.13802758D+00 0.44539050D-02 0.22003944D+05 0.22003944D+05 0.22003944D+05 0.12292865D+01  1  2 12  4  5  2       -2 0.820043919273D-01 0.100000000000D+01
-.106225665312D-04 0.000000000000D+00 -.529151726204D-05 0.209492466001D-02 0.000000000000D+00  5 1 21 25 -24 2 2 0.13802758D+00 0.48142198D-02 0.14644962D+05 0.14644962D+05 0.14644962D+05 0.12490102D+01  1  2  5  4  5  2       -2 -.102329594715D+00 0.100000000000D+01
  </mgrwgt>
  </event>
  <event>
  4     66 0.47139866E-03 0.11799561E+03 0.75467711E-02 0.11702313E+00
        1 -1    0    0  501    0 0.00000000E+00 0.00000000E+00 0.61207374E+02 0.61208210E+02 0.32000000E+00 0.0000E+00 0.9000E+01
       -2 -1    0    0    0  501 0.00000000E+00 0.00000000E+00 -.44724084E+03 0.44724096E+03 0.32000000E+00 0.0000E+00 0.9000E+01
       25  1    1    2    0    0 -.34532123E+02 0.45396659E+02 -.38613971E+03 0.40985631E+03 0.12500000E+03 0.0000E+00 0.9000E+01
      -24  1    1    2    0    0 0.34532123E+02 -.45396659E+02 0.10623483E+00 0.98592857E+02 0.80419002E+02 0.0000E+00 0.9000E+01
#aMCatNLO 1  0  0  2  1 0.99325254D+02 0.00000000D+00  -5  5  0 0.00000000D+00 0.00000000D+00 0.00000000D+00 0.00000000D+00 0.00000000D+00
  <mgrwgt>
 0.1524378444D+00    3    2    0
 0.165452951509732D+03 0.000000000000000D+00 0.000000000000000D+00 0.165452951509732D+03
 0.165452951509732D+03 0.000000000000000D+00 0.000000000000000D+00 -.165452951509732D+03
 0.179290395873924D+03 -.345321227534534D+02 0.453966594908057D+02 -.115181256538748D+03
 0.151615507145539D+03 0.345321227534534D+02 -.453966594908057D+02 0.115181256538748D+03
 0.000000000000000D+00 0.000000000000000D+00 0.000000000000000D+00 0.000000000000000D+00
 0.286733197779999D+03 0.000000000000000D+00 0.000000000000000D+00 0.286733197779999D+03
 0.194382881603036D+03 0.000000000000000D+00 0.000000000000000D+00 -.194382881603036D+03
 0.189380603763492D+03 -.814550069487440D+02 0.183949195964500D+02 -.115181256538748D+03
 0.156110673541516D+03 -.463396287421664D+01 -.679347552395012D+02 0.115181256538748D+03
 0.135624802078027D+03 0.860889698229606D+02 0.495398356430512D+02 0.923503161769625D+02
0.126338293452D-02 0.000000000000D+00 0.000000000000D+00 0.126682189063D-02 0.000000000000D+00  5 1 -2 25 -24 21 0 0.94165922D-02 0.68806357D-01 0.13922963D+05 0.13922963D+05 0.13922963D+05 0.12515285D+01  1  2  2  2  5  2       -2 0.147641490799D+00 0.100000000000D+01
-.604362740791D-04 0.000000000000D+00 -.485172312492D-05 0.126682189063D-02 0.000000000000D+00  5 1 -2 25 -24 21 2 0.94165922D-02 0.68806357D-01 0.13922963D+05 0.13922963D+05 0.13922963D+05 0.12515285D+01  1  2  3  2  5  2       -2 -.110624825745D-01 0.100000000000D+01
0.866395911082D-04 0.000000000000D+00 0.000000000000D+00 0.126682189063D-02 0.000000000000D+00  5 1 -2 25 -24 21 2 0.94165922D-02 0.68806357D-01 0.13922963D+05 0.13922963D+05 0.13922963D+05 0.12515285D+01  1  2 15  2  5  2       -2 0.158588361295D-01 0.100000000000D+01
  </mgrwgt>
  </event>
  <event>
  4     66 0.47139866E-03 0.10054804E+03 0.75467711E-02 0.11887826E+00
        1 -1    0    0  501    0 0.00000000E+00 0.00000000E+00 0.19788874E+02 0.19791461E+02 0.32000000E+00 0.0000E+00 0.9000E+01
       -2 -1    0    0    0  501 0.00000000E+00 0.00000000E+00 -.85655407E+03 0.85655413E+03 0.32000000E+00 0.0000E+00 0.9000E+01
       25  1    1    2    0    0 -.65464170E+02 -.38326292E+02 -.54707312E+03 0.56627596E+03 0.12500000E+03 0.0000E+00 0.9000E+01
      -24  1    1    2    0    0 0.65464170E+02 0.38326292E+02 -.28969207E+03 0.31006962E+03 0.80419002E+02 0.0000E+00 0.9000E+01
#aMCatNLO 1  0  0  2  1 0.56808400D+02 0.00000000D+00  -5  5  0 0.00000000D+00 0.00000000D+00 0.00000000D+00 0.00000000D+00 0.00000000D+00
  <mgrwgt>
 0.1882620612D+00    9    2    0
 0.130197544137452D+03 0.000000000000000D+00 0.000000000000000D+00 0.130197544137452D+03
 0.130197544137452D+03 0.000000000000000D+00 0.000000000000000D+00 -.130197544137452D+03
 0.147781946566659D+03 -.654641704837386D+02 -.383262920013841D+02 -.214485770001499D+02
 0.112613141708245D+03 0.654641704837386D+02 0.383262920013841D+02 0.214485770001499D+02
 0.000000000000000D+00 -.000000000000000D+00 0.000000000000000D+00 -.000000000000000D+00
 0.149767206446092D+03 0.000000000000000D+00 0.000000000000000D+00 0.149767206446092D+03
 0.182135113450890D+03 0.000000000000000D+00 0.000000000000000D+00 -.182135113450890D+03
 0.138397956809489D+03 -.349619821990489D+02 -.429722328303212D+02 -.214485770001499D+02
 0.128121829195222D+03 0.911226577589805D+02 0.344181194949334D+02 0.214485770001499D+02
 0.653825338922701D+02 -.561606755599315D+02 0.855411333538778D+01 -.323679070047987D+02
0.113167620730D-02 0.000000000000D+00 0.000000000000D+00 0.255530297490D-02 0.000000000000D+00  5 1 -2 25 -24 21 0 0.30446458D-02 0.13177775D+00 0.16482564D+05 0.16482564D+05 0.16482564D+05 0.12431829D+01  1  2  2  2  5  2       -2 0.140312940593D+00 0.100000000000D+01
-.628558670569D-04 0.000000000000D+00 -.434593461322D-05 0.255530297490D-02 0.000000000000D+00  5 1 -2 25 -24 21 2 0.30446458D-02 0.13177775D+00 0.16482564D+05 0.16482564D+05 0.16482564D+05 0.12431829D+01  1  2  3  2  5  2       -2 -.120445733292D-01 0.100000000000D+01
0.783045236423D-04 0.000000000000D+00 0.000000000000D+00 0.255530297490D-02 0.000000000000D+00  5 1 -2 25 -24 21 2 0.30446458D-02 0.13177775D+00 0.16482564D+05 0.16482564D+05 0.16482564D+05 0.12431829D+01  1  2 15  2  5  2       -2 0.150048773675D-01 0.100000000000D+01
0.496589309259D-03 0.000000000000D+00 0.000000000000D+00 0.255530297490D-02 0.000000000000D+00  5 1 -2 25 -24 21 2 0.30446458D-02 0.19112227D+00 0.25575682D+05 0.25575682D+05 0.25575682D+05 0.12222390D+01  1  2 12  2  5  2       -2 0.351573123951D-01 0.100000000000D+01
-.657197336503D-03 0.000000000000D+00 0.000000000000D+00 0.255530297490D-02 0.000000000000D+00  5 1 -2 25 -24 21 2 0.30446458D-02 0.13177775D+00 0.16482564D+05 0.16482564D+05 0.16482564D+05 0.12431829D+01  1  2  4  2  5  2       -2 -.125933534639D+00 0.100000000000D+01
-.985531408053D-03 0.000000000000D+00 -.373152858041D-03 0.255530297490D-02 0.000000000000D+00  5 1 -2 25 -24 21 2 0.30446458D-02 0.20029893D+00 0.16482564D+05 0.16482564D+05 0.16482564D+05 0.12431829D+01  1  2  5  2  5  2       -2 -.626924814623D-01 0.100000000000D+01
0.107650152343D-02 0.000000000000D+00 0.342675197390D-03 0.255530297490D-02 0.000000000000D+00  5 1 -2 25 -24 21 2 0.30446458D-02 0.13177775D+00 0.16482564D+05 0.16482564D+05 0.16482564D+05 0.12431829D+01  1  2  6  2  5  2       -2 0.206281484054D+00 0.100000000000D+01
0.224101074708D-04 0.000000000000D+00 0.000000000000D+00 0.255530297490D-02 0.000000000000D+00  5 1 21 25 -24 2 2 0.30446458D-02 0.19112227D+00 0.25575682D+05 0.25575682D+05 0.25575682D+05 0.12222390D+01  1  2 12  4  5  2       -2 0.181518623411D-01 0.100000000000D+01
-.349805670238D-04 0.000000000000D+00 -.183706839259D-04 0.255530297490D-02 0.000000000000D+00  5 1 21 25 -24 2 2 0.30446458D-02 0.20029893D+00 0.16482564D+05 0.16482564D+05 0.16482564D+05 0.12431829D+01  1  2  5  4  5  2       -2 -.259758261159D-01 0.100000000000D+01
  </mgrwgt>
  </event>
  <event>
  4     66 0.47139866E-03 0.68741699E+02 0.75467711E-02 0.10938848E+00
        1 -1    0    0  501    0 0.00000000E+00 0.00000000E+00 0.13873617E+04 0.13873618E+04 0.32000000E+00 0.0000E+00 0.9000E+01
       -2 -1    0    0    0  501 0.00000000E+00 0.00000000E+00 -.51422718E+02 0.51423713E+02 0.32000000E+00 0.0000E+00 0.9000E+01
       25  1    1    2    0    0 0.19505438E+03 -.14649689E+03 0.61030765E+03 0.66903511E+03 0.12500000E+03 0.0000E+00 0.9000E+01
      -24  1    1    2    0    0 -.19505438E+03 0.14649689E+03 0.72563136E+03 0.76975038E+03 0.80419002E+02 0.0000E+00 0.9000E+01
#aMCatNLO 1  0  0  1  2 0.34570516D+02 0.00000000D+00  -5  5  0 0.00000000D+00 0.00000000D+00 0.00000000D+00 0.00000000D+00 0.00000000D+00
  <mgrwgt>
 0.4022599499D+00    9    2    0
 0.267100455771849D+03 0.000000000000000D+00 0.000000000000000D+00 0.267100455771849D+03
 0.267100455771849D+03 0.000000000000000D+00 0.000000000000000D+00 -.267100455771849D+03
 0.275671935010967D+03 0.195054376131775D+03 -.146496885327929D+03 -.293678173133512D+02
 0.258528976532731D+03 -.195054376131775D+03 0.146496885327929D+03 0.293678173133512D+02
 0.000000000000000D+00 0.000000000000000D+00 -.000000000000000D+00 0.000000000000000D+00
 0.337220433214785D+03 0.000000000000000D+00 0.000000000000000D+00 0.337220433214785D+03
 0.271954383282912D+03 0.000000000000000D+00 0.000000000000000D+00 -.271954383282912D+03
 0.266269825065025D+03 0.194352295393300D+03 -.128993551473568D+03 -.293678173133512D+02
 0.269048523635850D+03 -.195737848099075D+03 0.163536290296842D+03 0.293678173133512D+02
 0.738564677968228D+02 0.138555270577519D+01 -.345427388232735D+02 0.652660499318731D+02
0.334543074376D-02 0.000000000000D+00 0.000000000000D+00 0.201628923484D-02 0.000000000000D+00  5 1 -2 25 -24 21 0 0.21344035D+00 0.79112667D-02 0.70479285D+05 0.70479285D+05 0.70479285D+05 0.11777926D+01  1  2  2  1  5  1        1 0.241283587362D+00 0.100000000000D+01
-.185848888683D-03 0.000000000000D+00 -.128473349282D-04 0.201628923484D-02 0.000000000000D+00  5 1 -2 25 -24 21 2 0.21344035D+00 0.79112667D-02 0.70479285D+05 0.70479285D+05 0.70479285D+05 0.11777926D+01  1  2  3  1  5  1        1 -.185940234375D-01 0.100000000000D+01
0.229915044656D-03 0.000000000000D+00 0.000000000000D+00 0.201628923484D-02 0.000000000000D+00  5 1 -2 25 -24 21 2 0.21344035D+00 0.79112667D-02 0.70479285D+05 0.70479285D+05 0.70479285D+05 0.11777926D+01  1  2 15  1  5  1        1 0.230028049092D-01 0.100000000000D+01
0.142848823400D-01 0.000000000000D+00 0.000000000000D+00 0.201628923484D-02 0.000000000000D+00  5 1 -2 25 -24 21 2 0.27106031D+00 0.79112667D-02 0.80274969D+05 0.80274969D+05 0.80274969D+05 0.11724403D+01  1  2 12  1  5  1        1 0.799509124844D+00 0.100000000000D+01
-.142544844841D-01 0.000000000000D+00 0.000000000000D+00 0.201628923484D-02 0.000000000000D+00  5 1 -2 25 -24 21 2 0.21344035D+00 0.79112667D-02 0.70479285D+05 0.70479285D+05 0.70479285D+05 0.11777926D+01  1  2  4  1  5  1        1 -.142614906370D+01 0.100000000000D+01
-.181056436390D-01 0.000000000000D+00 -.197871541403D-02 0.201628923484D-02 0.000000000000D+00  5 1 -2 25 -24 21 2 0.27121360D+00 0.79112667D-02 0.70479285D+05 0.70479285D+05 0.70479285D+05 0.11777926D+01  1  2  5  1  5  1        1 -.102384931379D+01 0.100000000000D+01
0.181129059677D-01 0.000000000000D+00 0.192326872366D-02 0.201628923484D-02 0.000000000000D+00  5 1 -2 25 -24 21 2 0.21344035D+00 0.79112667D-02 0.70479285D+05 0.70479285D+05 0.70479285D+05 0.11777926D+01  1  2  6  1  5  1        1 0.181218085549D+01 0.100000000000D+01
0.467584364203D-03 0.000000000000D+00 0.000000000000D+00 0.201628923484D-02 0.000000000000D+00  5 21 -2 25 -24 -1 2 0.27106031D+00 0.79112667D-02 0.80274969D+05 0.80274969D+05 0.80274969D+05 0.11724403D+01  1  2 12  3  5  1        1 0.227430785902D-01 0.100000000000D+01
-.562781151008D-03 0.000000000000D+00 -.648826971620D-04 0.201628923484D-02 0.000000000000D+00  5 21 -2 25 -24 -1 2 0.27121360D+00 0.79112667D-02 0.70479285D+05 0.70479285D+05 0.70479285D+05 0.11777926D+01  1  2  5  3  5  1        1 -.278671003956D-01 0.100000000000D+01
  </mgrwgt>
  </event>
  <event>
  4     66 0.47139866E-03 0.12488204E+03 0.75467711E-02 0.12193484E+00
        1 -1    0    0  501    0 0.00000000E+00 0.00000000E+00 0.15939811E+02 0.15943023E+02 0.32000000E+00 0.0000E+00 0.9000E+01
       -2 -1    0    0    0  501 0.00000000E+00 0.00000000E+00 -.99344849E+03 0.99344854E+03 0.32000000E+00 0.0000E+00 0.9000E+01
       25  1    1    2    0    0 0.21754311E+02 0.66424839E+02 -.49775083E+03 0.51794440E+03 0.12500000E+03 0.0000E+00 0.9000E+01
      -24  1    1    2    0    0 -.21754311E+02 -.66424839E+02 -.47975785E+03 0.49144717E+03 0.80419002E+02 0.0000E+00 0.9000E+01
#aMCatNLO 1  0  0  1  2 0.20605077D+02 0.00000000D+00  -5  5  0 0.00000000D+00 0.00000000D+00 0.00000000D+00 0.00000000D+00 0.00000000D+00
  <mgrwgt>
 0.1990375996D+00    3    2    0
 0.125845255348797D+03 0.000000000000000D+00 0.000000000000000D+00 0.125845255348797D+03
 0.125845255348797D+03 0.000000000000000D+00 0.000000000000000D+00 -.125845255348797D+03
 0.144037804643261D+03 0.217543113009112D+02 0.664248386394350D+02 0.153746518008774D+02
 0.107652706054333D+03 -.217543113009112D+02 -.664248386394350D+02 -.153746518008774D+02
 0.000000000000000D+00 0.000000000000000D+00 0.000000000000000D+00 -.000000000000000D+00
 0.126783466291652D+03 0.000000000000000D+00 0.000000000000000D+00 0.126783466291652D+03
 0.331492067214683D+03 0.000000000000000D+00 0.000000000000000D+00 -.331492067214683D+03
 0.139238812559151D+03 0.141927505620535D+02 0.576596291729957D+02 0.153746518008774D+02
 0.113293724714812D+03 -.276520796123032D+02 -.732614133122040D+02 -.153746518008774D+02
 0.205742996232373D+03 0.134593290502497D+02 0.156017841392083D+02 -.204708600923031D+03
0.169319558562D-02 0.000000000000D+00 0.000000000000D+00 0.264706418339D-02 0.000000000000D+00  5 1 -2 25 -24 21 0 0.24525297D-02 0.15283848D+00 0.15595523D+05 0.15595523D+05 0.15595523D+05 0.12458995D+01  1  2  2  1  5  1        1 0.194903863767D+00 0.100000000000D+01
-.940596695119D-04 0.000000000000D+00 -.650231687742D-05 0.264706418339D-02 0.000000000000D+00  5 1 -2 25 -24 21 2 0.24525297D-02 0.15283848D+00 0.15595523D+05 0.15595523D+05 0.15595523D+05 0.12458995D+01  1  2  3  1  5  1        1 -.168067139300D-01 0.100000000000D+01
0.117194342264D-03 0.000000000000D+00 0.000000000000D+00 0.264706418339D-02 0.000000000000D+00  5 1 -2 25 -24 21 2 0.24525297D-02 0.15283848D+00 0.15595523D+05 0.15595523D+05 0.15595523D+05 0.12458995D+01  1  2 15  1  5  1        1 0.209404497684D-01 0.100000000000D+01
  </mgrwgt>
  </event>
  <event>
  4     66 0.47139866E-03 0.12152255E+03 0.75467711E-02 0.10818774E+00
        1 -1    0    0  501    0 0.00000000E+00 0.00000000E+00 0.18349161E+04 0.18349161E+04 0.32000000E+00 0.0000E+00 0.9000E+01
       -2 -1    0    0    0  501 0.00000000E+00 0.00000000E+00 -.83416522E+01 0.83477879E+01 0.32000000E+00 0.0000E+00 0.9000E+01
       25  1    1    2    0    0 0.57548830E+02 -.27652984E+02 0.87812185E+03 0.88926910E+03 0.12500000E+03 0.0000E+00 0.9000E+01
      -24  1    1    2    0    0 -.57548830E+02 0.27652984E+02 0.94845261E+03 0.95399482E+03 0.80419002E+02 0.0000E+00 0.9000E+01
#aMCatNLO 1  0  0  1  2 0.25870751D+03 0.00000000D+00  -5  5  0 0.00000000D+00 0.00000000D+00 0.00000000D+00 0.00000000D+00 0.00000000D+00
  <mgrwgt>
 0.2573390835D+00    5    2    0
 0.123741313137830D+03 0.000000000000000D+00 0.000000000000000D+00 0.123741313137830D+03
 0.123741313137830D+03 0.000000000000000D+00 0.000000000000000D+00 -.123741313137830D+03
 0.142243185740857D+03 0.575488302917071D+02 -.276529836301424D+02 -.230557697359097D+02
 0.105239440534804D+03 -.575488302917071D+02 0.276529836301424D+02 0.230557697359097D+02
 0.000000000000000D+00 0.000000000000000D+00 -.000000000000000D+00 0.000000000000000D+00
 0.368358404395437D+03 0.000000000000000D+00 0.000000000000000D+00 0.368358404395437D+03
 0.267377165541609D+03 0.000000000000000D+00 0.000000000000000D+00 -.267377165541609D+03
 0.148244559830259D+03 -.116250330403099D+02 0.753972122028631D+02 -.230557697359097D+02
 0.209773912092040D+03 -.132562977823225D+03 0.139403610543458D+03 0.230557697359097D+02
 0.277717098014748D+03 0.144188010863535D+03 -.214800822746321D+03 0.100981238853828D+03
0.456448399965D-03 0.000000000000D+00 0.000000000000D+00 0.263405672434D-02 0.000000000000D+00  5 1 -2 25 -24 21 0 0.28229526D+00 0.12838052D-02 0.14767730D+05 0.14767730D+05 0.14767730D+05 0.12485959D+01  1  2  2  1  5  1        1 0.251993209209D+00 0.100000000000D+01
-.253481509900D-04 0.000000000000D+00 -.175288204149D-05 0.263405672434D-02 0.000000000000D+00  5 1 -2 25 -24 21 2 0.28229526D+00 0.12838052D-02 0.14767730D+05 0.14767730D+05 0.14767730D+05 0.12485959D+01  1  2  3  1  5  1        1 -.218166093766D-01 0.100000000000D+01
0.315534587938D-04 0.000000000000D+00 0.000000000000D+00 0.263405672434D-02 0.000000000000D+00  5 1 -2 25 -24 21 2 0.28229526D+00 0.12838052D-02 0.14767730D+05 0.14767730D+05 0.14767730D+05 0.12485959D+01  1  2 15  1  5  1        1 0.271573845862D-01 0.100000000000D+01
0.343543754591D-04 0.000000000000D+00 -.129681593943D-03 0.263405672434D-02 0.000000000000D+00  5 1 -2 25 -24 21 2 0.89164310D+00 0.12838052D-02 0.14767730D+05 0.14767730D+05 0.14767730D+05 0.12485959D+01  1  2  5  1  5  1        1 0.506772427609D-05 0.100000000000D+01
0.103368870968D-04 0.000000000000D+00 -.171351482871D-04 0.263405672434D-02 0.000000000000D+00  5 21 -2 25 -24 -1 2 0.89164310D+00 0.12838052D-02 0.14767730D+05 0.14767730D+05 0.14767730D+05 0.12485959D+01  1  2  5  3  5  1        1 0.313629687871D-07 0.100000000000D+01
  </mgrwgt>
  </event>
  <event>
  4     66 0.47139866E-03 0.46853468E+02 0.75467711E-02 0.12421455E+00
        1 -1    0    0  501    0 0.00000000E+00 0.00000000E+00 0.98623160E+03 0.98623165E+03 0.32000000E+00 0.0000E+00 0.9000E+01
       -2 -1    0    0    0  501 0.00000000E+00 0.00000000E+00 -.19652377E+02 0.19654982E+02 0.32000000E+00 0.0000E+00 0.9000E+01
       25  1    1    2    0    0 -.51754087E+02 -.10826649E+02 0.81577117E+03 0.82698446E+03 0.12500000E+03 0.0000E+00 0.9000E+01
      -24  1    1    2    0    0 0.51754087E+02 0.10826649E+02 0.15080805E+03 0.17890217E+03 0.80419002E+02 0.0000E+00 0.9000E+01
#aMCatNLO 1  0  0  2  1 0.88205630D+01 0.00000000D+00  -5  5  0 0.00000000D+00 0.00000000D+00 0.00000000D+00 0.00000000D+00 0.00000000D+00
  <mgrwgt>
 0.1012101582D+00   11    2    0
 0.139223316543397D+03 0.000000000000000D+00 0.000000000000000D+00 0.139223316543397D+03
 0.139223316543397D+03 0.000000000000000D+00 0.000000000000000D+00 -.139223316543397D+03
 0.155667731661850D+03 -.517540874379102D+02 -.108266494622727D+02 0.762347740577482D+02
 0.122778901424945D+03 0.517540874379102D+02 0.108266494622727D+02 -.762347740577482D+02
 0.000000000000000D+00 -.000000000000000D+00 -.000000000000000D+00 -.000000000000000D+00
 0.139994977829590D+03 0.000000000000000D+00 0.000000000000000D+00 0.139994977829590D+03
 0.167007448768171D+03 0.000000000000000D+00 0.000000000000000D+00 -.167007448768171D+03
 0.154083033099066D+03 -.468671967547924D+02 -.104070255942623D+02 0.762347740577482D+02
 0.124503272754787D+03 0.556554206728185D+02 0.111616462216816D+02 -.762347740577482D+02
 0.284161207439079D+02 -.878822391802604D+01 -.754620627419230D+00 -.270124709385806D+02
0.258650827420D-03 0.000000000000D+00 0.000000000000D+00 0.183214455843D-02 0.000000000000D+00  5 1 -2 25 -24 21 0 0.15172814D+00 0.30236471D-02 0.13452165D+05 0.13452165D+05 0.13452165D+05 0.12532510D+01  1  2  2  2  5  2       -2 0.150445305591D+00 0.100000000000D+01
-.137867508432D-04 0.000000000000D+00 -.993287281621D-06 0.183214455843D-02 0.000000000000D+00  5 1 -2 25 -24 21 2 0.15172814D+00 0.30236471D-02 0.13452165D+05 0.13452165D+05 0.13452165D+05 0.12532510D+01  1  2  3  2  5  2       -2 -.125951347046D-01 0.100000000000D+01
0.177545461303D-04 0.000000000000D+00 0.000000000000D+00 0.183214455843D-02 0.000000000000D+00  5 1 -2 25 -24 21 2 0.15172814D+00 0.30236471D-02 0.13452165D+05 0.13452165D+05 0.13452165D+05 0.12532510D+01  1  2 15  2  5  2       -2 0.162199855988D-01 0.100000000000D+01
0.316497795635D-02 0.000000000000D+00 0.000000000000D+00 0.183214455843D-02 0.000000000000D+00  5 1 -2 25 -24 21 2 0.15172814D+00 0.36343624D-02 0.14539209D+05 0.14539209D+05 0.14539209D+05 0.12493703D+01  1  2 12  2  5  2       -2 0.219650322932D+01 0.100000000000D+01
-.315199382435D-02 0.000000000000D+00 0.000000000000D+00 0.183214455843D-02 0.000000000000D+00  5 1 -2 25 -24 21 2 0.15172814D+00 0.30236471D-02 0.13452165D+05 0.13452165D+05 0.13452165D+05 0.12532510D+01  1  2  4  2  5  2       -2 -.287956076508D+01 0.100000000000D+01
-.354706029861D-02 0.000000000000D+00 -.183542666062D-03 0.183214455843D-02 0.000000000000D+00  5 1 -2 25 -24 21 2 0.15172814D+00 0.36454262D-02 0.13452165D+05 0.13452165D+05 0.13452165D+05 0.12532510D+01  1  2  5  2  5  2       -2 -.246200855700D+01 0.100000000000D+01
0.352276803818D-02 0.000000000000D+00 0.180379299343D-03 0.183214455843D-02 0.000000000000D+00  5 1 -2 25 -24 21 2 0.15172814D+00 0.30236471D-02 0.13452165D+05 0.13452165D+05 0.13452165D+05 0.12532510D+01  1  2  6  2  5  2       -2 0.321828823040D+01 0.100000000000D+01
0.129706601190D-05 0.000000000000D+00 0.000000000000D+00 0.183214455843D-02 0.199899678519D-03  5 1 -2 25 -24 21 2 0.15256911D+00 0.36270618D-02 0.14539209D+05 0.14539209D+05 0.14539209D+05 0.12493703D+01  1  2 11  2  5  2       -2 0.894563350617D-03 0.100000000000D+01
0.849068514878D-04 0.000000000000D+00 0.000000000000D+00 0.183214455843D-02 0.000000000000D+00  5 1 21 25 -24 2 2 0.15172814D+00 0.36343624D-02 0.14539209D+05 0.14539209D+05 0.14539209D+05 0.12493703D+01  1  2 12  4  5  2       -2 0.112001504390D+01 0.100000000000D+01
-.944960173369D-04 0.000000000000D+00 -.498707641889D-05 0.183214455843D-02 0.000000000000D+00  5 1 21 25 -24 2 2 0.15172814D+00 0.36454262D-02 0.13452165D+05 0.13452165D+05 0.13452165D+05 0.12532510D+01  1  2  5  4  5  2       -2 -.124744436675D+01 0.100000000000D+01
0.345155635884D-07 0.000000000000D+00 0.000000000000D+00 0.183214455843D-02 0.529164345073D-05  5 1 21 25 -24 2 2 0.15256911D+00 0.36270618D-02 0.14539209D+05 0.14539209D+05 0.14539209D+05 0.12493703D+01  1  2 11  4  5  2       -2 0.452623584130D-03 0.100000000000D+01
  </mgrwgt>
  </event>
  <event>
  4     66 0.47139866E-03 0.12754244E+03 0.75467711E-02 0.11931664E+00
        1 -1    0    0  501    0 0.00000000E+00 0.00000000E+00 0.12539339E+03 0.12539380E+03 0.32000000E+00 0.0000E+00 0.9000E+01
       -2 -1    0    0    0  501 0.00000000E+00 0.00000000E+00 -.16533279E+03 0.16533310E+03 0.32000000E+00 0.0000E+00 0.9000E+01
       25  1    1    2    0    0 -.50193148E+02 -.54989402E+02 0.44756495E+02 0.15222132E+03 0.12500000E+03 0.0000E+00 0.9000E+01
      -24  1    1    2    0    0 0.50193148E+02 0.54989402E+02 -.84695887E+02 0.13850558E+03 0.80419002E+02 0.0000E+00 0.9000E+01
#aMCatNLO 1  0  0  2  1 0.52901583D+02 0.00000000D+00  -5  5  0 0.00000000D+00 0.00000000D+00 0.00000000D+00 0.00000000D+00 0.00000000D+00
  <mgrwgt>
 0.2228566459D+00    4    2    0
 0.143985220618083D+03 0.000000000000000D+00 0.000000000000000D+00 0.143985220618083D+03
 0.143985220618083D+03 0.000000000000000D+00 0.000000000000000D+00 -.143985220618083D+03
 0.159885783200683D+03 -.501931475542971D+02 -.549894019837478D+02 0.662968873911761D+02
 0.128084658035482D+03 0.501931475542971D+02 0.549894019837478D+02 -.662968873911761D+02
 0.000000000000000D+00 0.000000000000000D+00 0.000000000000000D+00 0.000000000000000D+00
 0.235424446239080D+03 0.000000000000000D+00 0.000000000000000D+00 0.235424446239080D+03
 0.154253171507299D+03 0.000000000000000D+00 0.000000000000000D+00 -.154253171507299D+03
 0.175069635097732D+03 -.781202782486202D+02 -.672779457315179D+02 0.662968873911761D+02
 0.117719627827265D+03 0.296990517985511D+02 0.459715549653046D+02 -.662968873911761D+02
 0.968883548213805D+02 0.484212264500690D+02 0.213063907662133D+02 0.811712747317810D+02
0.775764936178D-03 0.000000000000D+00 0.000000000000D+00 0.198854300964D-02 0.000000000000D+00  5 1 -2 25 -24 21 0 0.19291347D-01 0.25435869D-01 0.16267075D+05 0.16267075D+05 0.16267075D+05 0.12438275D+01  1  2  2  2  5  2       -2 0.240704292658D+00 0.100000000000D+01
-.423275306961D-04 0.000000000000D+00 -.297914161852D-05 0.198854300964D-02 0.000000000000D+00  5 1 -2 25 -24 21 2 0.19291347D-01 0.25435869D-01 0.16267075D+05 0.16267075D+05 0.16267075D+05 0.12438275D+01  1  2  3  2  5  2       -2 -.203187474287D-01 0.100000000000D+01
0.535820634657D-04 0.000000000000D+00 0.000000000000D+00 0.198854300964D-02 0.000000000000D+00  5 1 -2 25 -24 21 2 0.19291347D-01 0.25435869D-01 0.16267075D+05 0.16267075D+05 0.16267075D+05 0.12438275D+01  1  2 15  2  5  2       -2 0.257213306887D-01 0.100000000000D+01
-.484343254959D-04 0.000000000000D+00 0.000000000000D+00 0.198854300964D-02 0.000000000000D+00  5 1 -2 25 -24 21 2 0.19291347D-01 0.25435869D-01 0.16267075D+05 0.16267075D+05 0.16267075D+05 0.12438275D+01  1  2  4  2  5  2       -2 -.232502300618D-01 0.100000000000D+01
  </mgrwgt>
  </event>
  <event>
  4     66 0.47139866E-03 0.58365750E+02 0.75467711E-02 0.12463990E+00
        1 -1    0    0  501    0 0.00000000E+00 0.00000000E+00 0.44947971E+03 0.44947982E+03 0.32000000E+00 0.0000E+00 0.9000E+01
       -2 -1    0    0    0  501 0.00000000E+00 0.00000000E+00 -.25844564E+02 0.25846545E+02 0.32000000E+00 0.0000E+00 0.9000E+01
       25  1    1    2    0    0 -.17034989E+02 -.26252346E+02 0.23913364E+03 0.27164181E+03 0.12500000E+03 0.0000E+00 0.9000E+01
      -24  1    1    2    0    0 0.17034989E+02 0.26252346E+02 0.18450151E+03 0.20368456E+03 0.80419002E+02 0.0000E+00 0.9000E+01
#aMCatNLO 1  0  0  1  2 0.19962990D+02 0.00000000D+00  -5  5  0 0.00000000D+00 0.00000000D+00 0.00000000D+00 0.00000000D+00 0.00000000D+00
  <mgrwgt>
 0.3065583705D+00    9    2    0
 0.107782674019420D+03 0.000000000000000D+00 0.000000000000000D+00 0.107782674019420D+03
 0.107782674019420D+03 0.000000000000000D+00 0.000000000000000D+00 -.107782674019420D+03
 0.129023991626690D+03 -.170349890209965D+02 -.262523458175304D+02 -.654323340677398D+01
 0.865413564121498D+02 0.170349890209965D+02 0.262523458175304D+02 0.654323340677398D+01
 0.000000000000000D+00 0.000000000000000D+00 -.000000000000000D+00 0.000000000000000D+00
 0.119051944030398D+03 0.000000000000000D+00 0.000000000000000D+00 0.119051944030398D+03
 0.117461998155674D+03 0.000000000000000D+00 0.000000000000000D+00 -.117461998155674D+03
 0.128318085655492D+03 -.232114004438455D+02 -.160918641651650D+02 -.654323340677398D+01
 0.881696512810764D+02 0.128417879906393D+02 0.331503549067584D+02 0.654323340677398D+01
 0.200262052495042D+02 0.103696124532062D+02 -.170584907415934D+02 0.158994587472405D+01
0.122141417237D-03 0.000000000000D+00 0.000000000000D+00 0.306557175008D-02 0.000000000000D+00  5 1 -2 25 -24 21 0 0.69150885D-01 0.39762479D-02 0.11572554D+05 0.11572554D+05 0.11572554D+05 0.12608744D+01  1  2  2  1  5  1        1 0.143982199760D+00 0.100000000000D+01
-.678560384029D-05 0.000000000000D+00 -.469055202763D-06 0.306557175008D-02 0.000000000000D+00  5 1 -2 25 -24 21 2 0.69150885D-01 0.39762479D-02 0.11572554D+05 0.11572554D+05 0.11572554D+05 0.12608744D+01  1  2  3  1  5  1        1 -.127168053353D-01 0.100000000000D+01
0.844062145948D-05 0.000000000000D+00 0.000000000000D+00 0.306557175008D-02 0.000000000000D+00  5 1 -2 25 -24 21 2 0.69150885D-01 0.39762479D-02 0.11572554D+05 0.11572554D+05 0.11572554D+05 0.12608744D+01  1  2 15  1  5  1        1 0.158184507283D-01 0.100000000000D+01
0.148315124670D-03 0.000000000000D+00 0.000000000000D+00 0.306557175008D-02 0.000000000000D+00  5 1 -2 25 -24 21 2 0.79192423D-01 0.39762479D-02 0.13928799D+05 0.13928799D+05 0.13928799D+05 0.12515076D+01  1  2 12  1  5  1        1 0.231694285179D+00 0.100000000000D+01
-.124547385732D-03 0.000000000000D+00 0.000000000000D+00 0.306557175008D-02 0.000000000000D+00  5 1 -2 25 -24 21 2 0.69150885D-01 0.39762479D-02 0.11572554D+05 0.11572554D+05 0.11572554D+05 0.12608744D+01  1  2  4  1  5  1        1 -.233412515180D+00 0.100000000000D+01
-.439874368909D-03 0.000000000000D+00 -.113396216439D-03 0.306557175008D-02 0.000000000000D+00  5 1 -2 25 -24 21 2 0.82169145D-01 0.39762479D-02 0.11572554D+05 0.11572554D+05 0.11572554D+05 0.12608744D+01  1  2  5  1  5  1        1 -.660057485228D+00 0.100000000000D+01
0.454324802127D-03 0.000000000000D+00 0.111729970647D-03 0.306557175008D-02 0.000000000000D+00  5 1 -2 25 -24 21 2 0.69150885D-01 0.39762479D-02 0.11572554D+05 0.11572554D+05 0.11572554D+05 0.12608744D+01  1  2  6  1  5  1        1 0.851443762950D+00 0.100000000000D+01
0.311530069180D-05 0.000000000000D+00 0.000000000000D+00 0.306557175008D-02 0.000000000000D+00  5 21 -2 25 -24 -1 2 0.79192423D-01 0.39762479D-02 0.13928799D+05 0.13928799D+05 0.13928799D+05 0.12515076D+01  1  2 12  3  5  1        1 0.146662824280D-01 0.100000000000D+01
-.102099480216D-04 0.000000000000D+00 -.289220861700D-05 0.306557175008D-02 0.000000000000D+00  5 21 -2 25 -24 -1 2 0.82169145D-01 0.39762479D-02 0.11572554D+05 0.11572554D+05 0.11572554D+05 0.12608744D+01  1  2  5  3  5  1        1 -.448598047587D-01 0.100000000000D+01
  </mgrwgt>
  </event>
  <event>
  4     66 0.47139866E-03 0.12102545E+03 0.75467711E-02 0.10828911E+00
        1 -1    0    0  501    0 0.00000000E+00 0.00000000E+00 0.72461708E+02 0.72462414E+02 0.32000000E+00 0.0000E+00 0.9000E+01
       -2 -1    0    0    0  501 0.00000000E+00 0.00000000E+00 -.21210664E+03 0.21210688E+03 0.32000000E+00 0.0000E+00 0.9000E+01
       25  1    1    2    0    0 -.22315190E+02 0.58829745E+02 -.11071280E+03 0.17844111E+03 0.12500000E+03 0.0000E+00 0.9000E+01
      -24  1    1    2    0    0 0.22315190E+02 -.58829745E+02 -.28932132E+02 0.10612818E+03 0.80419002E+02 0.0000E+00 0.9000E+01
#aMCatNLO 1  0  0  1  2 0.25663418D+03 0.00000000D+00  -5  5  0 0.00000000D+00 0.00000000D+00 0.00000000D+00 0.00000000D+00 0.00000000D+00
  <mgrwgt>
 0.2271425272D+00    3    2    0
 0.123974771152394D+03 0.000000000000000D+00 0.000000000000000D+00 0.123974771152394D+03
 0.123974771152394D+03 0.000000000000000D+00 0.000000000000000D+00 -.123974771152394D+03
 0.142441802711526D+03 -.223151898939950D+02 0.588297449427856D+02 -.265661545894567D+02
 0.105507739593263D+03 0.223151898939950D+02 -.588297449427856D+02 0.265661545894567D+02
 0.000000000000000D+00 0.000000000000000D+00 0.000000000000000D+00 -.000000000000000D+00
 0.199689833318287D+03 0.000000000000000D+00 0.000000000000000D+00 0.199689833318287D+03
 0.952672646389347D+03 0.000000000000000D+00 0.000000000000000D+00 -.952672646389347D+03
 0.170154773384579D+03 -.101916517507946D+03 -.472748325744149D+02 -.265661545894567D+02
 0.186692641326170D+03 -.520923373443654D+02 -.158011247040524D+03 0.265661545894567D+02
 0.795515064996885D+03 0.154008854852312D+03 0.205286079614939D+03 -.752982813071060D+03
0.551976699181D-03 0.000000000000D+00 0.000000000000D+00 0.260368343901D-02 0.000000000000D+00  5 1 -2 25 -24 21 0 0.11148028D-01 0.32631863D-01 0.14647159D+05 0.14647159D+05 0.14647159D+05 0.12490028D+01  1  2  2  1  5  1        1 0.222416381199D+00 0.100000000000D+01
-.306437577775D-04 0.000000000000D+00 -.211973586366D-05 0.260368343901D-02 0.000000000000D+00  5 1 -2 25 -24 21 2 0.11148028D-01 0.32631863D-01 0.14647159D+05 0.14647159D+05 0.14647159D+05 0.12490028D+01  1  2  3  1  5  1        1 -.192625978936D-01 0.100000000000D+01
0.381623113626D-04 0.000000000000D+00 0.000000000000D+00 0.260368343901D-02 0.000000000000D+00  5 1 -2 25 -24 21 2 0.11148028D-01 0.32631863D-01 0.14647159D+05 0.14647159D+05 0.14647159D+05 0.12490028D+01  1  2 15  1  5  1        1 0.239887439329D-01 0.100000000000D+01
  </mgrwgt>
  </event>
  <event>
  4     66 0.47139866E-03 0.12204953E+03 0.75467711E-02 0.96988740E-01
        1 -1    0    0  501    0 0.00000000E+00 0.00000000E+00 0.19845743E+02 0.19848322E+02 0.32000000E+00 0.0000E+00 0.9000E+01
       -2 -1    0    0    0  501 0.00000000E+00 0.00000000E+00 -.82151801E+03 0.82151808E+03 0.32000000E+00 0.0000E+00 0.9000E+01
       25  1    1    2    0    0 0.59947379E+02 -.24661058E+02 -.33480954E+03 0.36321383E+03 0.12500000E+03 0.0000E+00 0.9000E+01
      -24  1    1    2    0    0 -.59947379E+02 0.24661058E+02 -.46686273E+03 0.47815257E+03 0.80419002E+02 0.0000E+00 0.9000E+01
#aMCatNLO 1  0  0  2  2 0.68985120D+03 0.00000000D+00  -5  5  0 0.00000000D+00 0.00000000D+00 0.00000000D+00 0.00000000D+00 0.00000000D+00
  <mgrwgt>
 0.1747177355D+00    5    2    0
 0.127690041317371D+03 0.000000000000000D+00 0.000000000000000D+00 0.127690041317371D+03
 0.127690041317371D+03 0.000000000000000D+00 0.000000000000000D+00 -.127690041317371D+03
 0.145619756021723D+03 0.599473794775613D+02 -.246610581273528D+02 0.371248872003497D+02
 0.109760326613019D+03 -.599473794775613D+02 0.246610581273528D+02 -.371248872003497D+02
 0.000000000000000D+00 0.000000000000000D+00 -.000000000000000D+00 -.000000000000000D+00
 0.658302286528741D+03 0.000000000000000D+00 0.000000000000000D+00 0.658302286528741D+03
 0.777349861435189D+03 0.000000000000000D+00 0.000000000000000D+00 -.777349861435189D+03
 0.340305072360979D+03 0.333506964970487D+02 0.312557220470323D+03 0.371248872003497D+02
 0.395299215371377D+03 -.875913847636268D+02 0.375158294303095D+03 -.371248872003497D+02
 0.700047860231574D+03 0.542406882665781D+02 -.687715514773417D+03 -.119047574906448D+03
0.125497670144D-02 0.000000000000D+00 0.000000000000D+00 0.245644195248D-02 0.000000000000D+00  5 1 -2 25 -24 21 0 0.30533944D-02 0.12638759D+00 0.14896089D+05 0.14896089D+05 0.14896089D+05 0.12481668D+01  1  2  2  2  5  2       -2 0.171061397889D+00 0.100000000000D+01
-.695479008740D-04 0.000000000000D+00 -.481944097650D-05 0.245644195248D-02 0.000000000000D+00  5 1 -2 25 -24 21 2 0.30533944D-02 0.12638759D+00 0.14896089D+05 0.14896089D+05 0.14896089D+05 0.12481668D+01  1  2  3  2  5  2       -2 -.147688155839D-01 0.100000000000D+01
0.867388967335D-04 0.000000000000D+00 0.000000000000D+00 0.245644195248D-02 0.000000000000D+00  5 1 -2 25 -24 21 2 0.30533944D-02 0.12638759D+00 0.14896089D+05 0.14896089D+05 0.14896089D+05 0.12481668D+01  1  2 15  2  5  2       -2 0.184194023646D-01 0.100000000000D+01
0.117761671061D-02 0.000000000000D+00 -.560641878916D-03 0.245644195248D-02 0.000000000000D+00  5 1 -2 25 -24 21 2 0.30533944D-02 0.91658467D+00 0.14896089D+05 0.14896089D+05 0.14896089D+05 0.12481668D+01  1  2  5  2  5  2       -2 0.569682288709D-05 0.100000000000D+01
0.228184288191D-03 0.000000000000D+00 -.135580055115D-03 0.245644195248D-02 0.000000000000D+00  5 1 21 25 -24 2 2 0.30533944D-02 0.91658467D+00 0.14896089D+05 0.14896089D+05 0.14896089D+05 0.12481668D+01  1  2  5  4  5  2       -2 0.540003326320D-07 0.100000000000D+01
  </mgrwgt>
  </event>
  <event>
  4     66 0.47139866E-03 0.16583146E+03 0.75467711E-02 0.11571709E+00
        1 -1    0    0  501    0 0.00000000E+00 0.00000000E+00 0.30605985E+02 0.30607658E+02 0.32000000E+00 0.0000E+00 0.9000E+01
       -2 -1    0    0    0  501 0.00000000E+00 0.00000000E+00 -.11354417E+04 0.11354418E+04 0.32000000E+00 0.0000E+00 0.9000E+01
       25  1    1    2    0    0 -.75751711E+02 -.13417448E+03 -.62248271E+03 0.65333823E+03 0.12500000E+03 0.0000E+00 0.9000E+01
      -24  1    1    2    0    0 0.75751711E+02 0.13417448E+03 -.48235302E+03 0.51271119E+03 0.80419002E+02 0.0000E+00 0.9000E+01
#aMCatNLO 1  0  0  2  1 0.10513093D+02 0.00000000D+00  -5  5  0 0.00000000D+00 0.00000000D+00 0.00000000D+00 0.00000000D+00 0.00000000D+00
  <mgrwgt>
 0.2052394756D+00    6    2    0
 0.186419724638914D+03 0.000000000000000D+00 0.000000000000000D+00 0.186419724638914D+03
 0.186419724638914D+03 0.000000000000000D+00 0.000000000000000D+00 -.186419724638914D+03
 0.198700860746382D+03 -.757517114290640D+02 -.134174484140790D+03 -.107665260169673D+02
 0.174138588531445D+03 0.757517114290640D+02 0.134174484140790D+03 0.107665260169673D+02
 0.000000000000000D+00 0.000000000000000D+00 -.000000000000000D+00 0.000000000000000D+00
 0.192250791678181D+03 0.000000000000000D+00 0.000000000000000D+00 0.192250791678181D+03
 0.191293441418301D+03 0.000000000000000D+00 0.000000000000000D+00 -.191293441418301D+03
 0.199387926601729D+03 -.809761640256201D+02 -.132126787790206D+03 -.107665260169673D+02
 0.173599714028327D+03 0.711880504180803D+02 0.135963186751213D+03 0.107665260169673D+02
 0.105565924664263D+02 0.978811360753982D+01 -.383639896100619D+01 0.957350259879897D+00
0.358775737522D-02 0.000000000000D+00 0.000000000000D+00 0.220177722708D-02 0.000000000000D+00  5 1 -2 25 -24 21 0 0.47087452D-02 0.17468347D+00 0.34635889D+05 0.34635889D+05 0.34635889D+05 0.12084028D+01  1  2  2  2  5  2       -2 0.119607515620D+00 0.100000000000D+01
-.199319171912D-03 0.000000000000D+00 -.137779329991D-04 0.220177722708D-02 0.000000000000D+00  5 1 -2 25 -24 21 2 0.47087452D-02 0.17468347D+00 0.34635889D+05 0.34635889D+05 0.34635889D+05 0.12084028D+01  1  2  3  2  5  2       -2 -.970304242119D-02 0.100000000000D+01
0.247684785702D-03 0.000000000000D+00 0.000000000000D+00 0.220177722708D-02 0.000000000000D+00  5 1 -2 25 -24 21 2 0.47087452D-02 0.17468347D+00 0.34635889D+05 0.34635889D+05 0.34635889D+05 0.12084028D+01  1  2 15  2  5  2       -2 0.120575254237D-01 0.100000000000D+01
0.562205623203D-02 0.000000000000D+00 0.000000000000D+00 0.220177722708D-02 0.000000000000D+00  5 1 -2 25 -24 21 2 0.47087452D-02 0.18190544D+00 0.36648441D+05 0.36648441D+05 0.36648441D+05 0.12058788D+01  1  2 12  2  5  2       -2 0.244009681431D+00 0.100000000000D+01
-.397563288339D-02 0.000000000000D+00 0.000000000000D+00 0.220177722708D-02 0.000000000000D+00  5 1 -2 25 -24 21 2 0.47087452D-02 0.17468347D+00 0.34635889D+05 0.34635889D+05 0.34635889D+05 0.12084028D+01  1  2  4  2  5  2       -2 -.193537501429D+00 0.100000000000D+01
0.670757100772D-04 0.000000000000D+00 0.000000000000D+00 0.220177722708D-02 0.000000000000D+00  5 1 21 25 -24 2 2 0.47087452D-02 0.18190544D+00 0.36648441D+05 0.36648441D+05 0.36648441D+05 0.12058788D+01  1  2 12  4  5  2       -2 0.328052970123D-01 0.100000000000D+01
  </mgrwgt>
  </event>
  <event>
  4     66 0.47139866E-03 0.10849761E+03 0.75467711E-02 0.11872946E+00
        1 -1    0    0  501    0 0.00000000E+00 0.00000000E+00 0.13498313E+04 0.13498313E+04 0.32000000E+00 0.0000E+00 0.9000E+01
       -2 -1    0    0    0  501 0.00000000E+00 0.00000000E+00 -.89218694E+01 0.89276063E+01 0.32000000E+00 0.0000E+00 0.9000E+01
       25  1    1    2    0    0 0.33113815E+02 -.86235436E+01 0.89863974E+03 0.90793683E+03 0.12500000E+03 0.0000E+00 0.9000E+01
      -24  1    1    2    0    0 -.33113815E+02 0.86235436E+01 0.44226966E+03 0.45082209E+03 0.80419002E+02 0.0000E+00 0.9000E+01
#aMCatNLO 1  0  0  2  1 0.88193082D+02 0.00000000D+00  -5  5  0 0.00000000D+00 0.00000000D+00 0.00000000D+00 0.00000000D+00 0.00000000D+00
  <mgrwgt>
 0.3430905550D+00    3    2    0
 0.109758560495831D+03 0.000000000000000D+00 0.000000000000000D+00 0.109758560495831D+03
 0.109758560495831D+03 0.000000000000000D+00 0.000000000000000D+00 -.109758560495831D+03
 0.130617489412763D+03 0.331138154819037D+02 -.862354355726313D+01 0.162799957383219D+02
 0.888996315788985D+02 -.331138154819037D+02 0.862354355726313D+01 -.162799957383219D+02
 0.000000000000000D+00 0.000000000000000D+00 0.000000000000000D+00 0.000000000000000D+00
 0.254307774486517D+03 0.000000000000000D+00 0.000000000000000D+00 0.254307774486517D+03
 0.132580928414669D+03 0.000000000000000D+00 0.000000000000000D+00 -.132580928414669D+03
 0.128088746093823D+03 -.164037124027262D+02 -.157355277654346D+02 0.162799957383219D+02
 0.108482144208425D+03 -.708935681319619D+02 0.319740425439142D+01 -.162799957383219D+02
 0.150317812598938D+03 0.872972805346881D+02 0.125381235110431D+02 0.121726846071848D+03
0.329057204188D-03 0.000000000000D+00 0.000000000000D+00 0.296260683390D-02 0.000000000000D+00  5 1 -2 25 -24 21 0 0.20766679D+00 0.13730395D-02 0.11771731D+05 0.11771731D+05 0.11771731D+05 0.12600028D+01  1  2  2  2  5  2       -2 0.335809041866D+00 0.100000000000D+01
-.182779881338D-04 0.000000000000D+00 -.126366630683D-05 0.296260683390D-02 0.000000000000D+00  5 1 -2 25 -24 21 2 0.20766679D+00 0.13730395D-02 0.11771731D+05 0.11771731D+05 0.11771731D+05 0.12600028D+01  1  2  3  2  5  2       -2 -.296136822574D-01 0.100000000000D+01
0.227722421710D-04 0.000000000000D+00 0.000000000000D+00 0.296260683390D-02 0.000000000000D+00  5 1 -2 25 -24 21 2 0.20766679D+00 0.13730395D-02 0.11771731D+05 0.11771731D+05 0.11771731D+05 0.12600028D+01  1  2 15  2  5  2       -2 0.368951954124D-01 0.100000000000D+01
  </mgrwgt>
  </event>
  <event>
  4     66 0.47139866E-03 0.62997909E+02 0.75467711E-02 0.11833930E+00
        1 -1    0    0  501    0 0.00000000E+00 0.00000000E+00 0.48836896E+03 0.48836906E+03 0.32000000E+00 0.0000E+00 0.9000E+01
       -2 -1    0    0    0  501 0.00000000E+00 0.00000000E+00 -.51163151E+02 0.51164152E+02 0.32000000E+00 0.0000E+00 0.9000E+01
       25  1    1    2    0    0 -.61635642E+02 0.98239424E+02 0.28380200E+03 0.33108687E+03 0.12500000E+03 0.0000E+00 0.9000E+01
      -24  1    1    2    0    0 0.61635642E+02 -.98239424E+02 0.15340381E+03 0.20844635E+03 0.80419002E+02 0.0000E+00 0.9000E+01
#aMCatNLO 1  0  0  2  1 0.17489556D+02 0.00000000D+00  -5  5  0 0.00000000D+00 0.00000000D+00 0.00000000D+00 0.00000000D+00 0.00000000D+00
  <mgrwgt>
 0.1523953329D+00    9    2    0
 0.158072113438874D+03 0.000000000000000D+00 0.000000000000000D+00 0.158072113438874D+03
 0.158072113438874D+03 0.000000000000000D+00 0.000000000000000D+00 -.158072113438874D+03
 0.172555667568696D+03 -.616356424911620D+02 0.982394240997350D+02 0.264673674046455D+02
 0.143588559309051D+03 0.616356424911620D+02 -.982394240997350D+02 -.264673674046455D+02
 0.000000000000000D+00 0.000000000000000D+00 -.000000000000000D+00 -.000000000000000D+00
 0.161788249545635D+03 0.000000000000000D+00 0.000000000000000D+00 0.161788249545635D+03
 0.180323485795844D+03 0.000000000000000D+00 0.000000000000000D+00 -.180323485795844D+03
 0.179170942907377D+03 -.655864184202584D+02 0.107122019042719D+03 0.264673674046455D+02
 0.137456688190096D+03 0.584787963335634D+02 -.911418346088327D+02 -.264673674046455D+02
 0.254841042440062D+02 0.710762208669501D+01 -.159801844338865D+02 -.185352362502092D+02
0.449667827579D-03 0.000000000000D+00 0.000000000000D+00 0.228949610787D-02 0.000000000000D+00  5 1 -2 25 -24 21 0 0.75133771D-01 0.78713390D-02 0.24280166D+05 0.24280166D+05 0.24280166D+05 0.12246603D+01  1  2  2  2  5  2       -2 0.173964405710D+00 0.100000000000D+01
-.249752967138D-04 0.000000000000D+00 -.172684285816D-05 0.228949610787D-02 0.000000000000D+00  5 1 -2 25 -24 21 2 0.75133771D-01 0.78713390D-02 0.24280166D+05 0.24280166D+05 0.24280166D+05 0.12246603D+01  1  2  3  2  5  2       -2 -.144914065614D-01 0.100000000000D+01
0.310124825577D-04 0.000000000000D+00 0.000000000000D+00 0.228949610787D-02 0.000000000000D+00  5 1 -2 25 -24 21 2 0.75133771D-01 0.78713390D-02 0.24280166D+05 0.24280166D+05 0.24280166D+05 0.12246603D+01  1  2 15  2  5  2       -2 0.179943605225D-01 0.100000000000D+01
0.134589371907D-02 0.000000000000D+00 0.000000000000D+00 0.228949610787D-02 0.000000000000D+00  5 1 -2 25 -24 21 2 0.75133771D-01 0.90632771D-02 0.27155627D+05 0.27155627D+05 0.27155627D+05 0.12194652D+01  1  2 12  2  5  2       -2 0.623162754515D+00 0.100000000000D+01
-.136656254084D-02 0.000000000000D+00 0.000000000000D+00 0.228949610787D-02 0.000000000000D+00  5 1 -2 25 -24 21 2 0.75133771D-01 0.78713390D-02 0.24280166D+05 0.24280166D+05 0.24280166D+05 0.12246603D+01  1  2  4  2  5  2       -2 -.792920044068D+00 0.100000000000D+01
-.239950193455D-02 0.000000000000D+00 -.377833970564D-03 0.228949610787D-02 0.000000000000D+00  5 1 -2 25 -24 21 2 0.75133771D-01 0.91798790D-02 0.24280166D+05 0.24280166D+05 0.24280166D+05 0.12246603D+01  1  2  5  2  5  2       -2 -.109589971353D+01 0.100000000000D+01
0.243320227195D-02 0.000000000000D+00 0.373409676754D-03 0.228949610787D-02 0.000000000000D+00  5 1 -2 25 -24 21 2 0.75133771D-01 0.78713390D-02 0.24280166D+05 0.24280166D+05 0.24280166D+05 0.12246603D+01  1  2  6  2  5  2       -2 0.141181599454D+01 0.100000000000D+01
0.291935457150D-04 0.000000000000D+00 0.000000000000D+00 0.228949610787D-02 0.000000000000D+00  5 1 21 25 -24 2 2 0.75133771D-01 0.90632771D-02 0.27155627D+05 0.27155627D+05 0.27155627D+05 0.12194652D+01  1  2 12  4  5  2       -2 0.215702498937D+00 0.100000000000D+01
-.531057940196D-04 0.000000000000D+00 -.879402874107D-05 0.228949610787D-02 0.000000000000D+00  5 1 21 25 -24 2 2 0.75133771D-01 0.91798790D-02 0.24280166D+05 0.24280166D+05 0.24280166D+05 0.12246603D+01  1  2  5  4  5  2       -2 -.386933517216D+00 0.100000000000D+01
  </mgrwgt>
  </event>
  <event>
  4     66 0.47139866E-03 0.10660411E+03 0.75467711E-02 0.11102043E+00
        1 -1    0    0  501    0 0.00000000E+00 0.00000000E+00 0.11470143E+04 0.11470143E+04 0.32000000E+00 0.0000E+00 0.9000E+01
       -2 -1    0    0    0  501 0.00000000E+00 0.00000000E+00 -.10200728E+02 0.10205746E+02 0.32000000E+00 0.0000E+00 0.9000E+01
       25  1    1    2    0    0 -.38221280E+01 0.27657620E+02 0.58310237E+03 0.59700329E+03 0.12500000E+03 0.0000E+00 0.9000E+01
      -24  1    1    2    0    0 0.38221280E+01 -.27657620E+02 0.55371116E+03 0.56021676E+03 0.80419002E+02 0.0000E+00 0.9000E+01
#aMCatNLO 1  0  0  2  1 0.21034544D+03 0.00000000D+00  -5  5  0 0.00000000D+00 0.00000000D+00 0.00000000D+00 0.00000000D+00 0.00000000D+00
  <mgrwgt>
 0.2701408416D+00    5    2    0
 0.108181834066031D+03 0.000000000000000D+00 0.000000000000000D+00 0.108181834066031D+03
 0.108181834066031D+03 0.000000000000000D+00 0.000000000000000D+00 -.108181834066031D+03
 0.129344777282634D+03 -.382212800234449D+01 0.276576200616070D+02 -.180421395725581D+02
 0.870188908494283D+02 0.382212800234449D+01 -.276576200616070D+02 0.180421395725581D+02
 0.000000000000000D+00 0.000000000000000D+00 0.000000000000000D+00 -.000000000000000D+00
 0.203337216381741D+03 0.000000000000000D+00 0.000000000000000D+00 0.203337216381741D+03
 0.361740553957799D+03 0.000000000000000D+00 0.000000000000000D+00 -.361740553957799D+03
 0.154648195068744D+03 -.250184211973153D+02 -.856716057889570D+02 -.180421395725581D+02
 0.147110716681858D+03 -.136525290842977D+02 -.121088548829054D+03 0.180421395725581D+02
 0.263318858588938D+03 0.386709502816130D+02 0.206760154618010D+03 -.158403337576058D+03
0.187359569748D-03 0.000000000000D+00 0.000000000000D+00 0.299215929980D-02 0.000000000000D+00  5 1 -2 25 -24 21 0 0.17646412D+00 0.15697321D-02 0.11364435D+05 0.11364435D+05 0.11364435D+05 0.12618034D+01  1  2  2  2  5  2       -2 0.215633837750D+00 0.100000000000D+01
-.104061334122D-04 0.000000000000D+00 -.719510080741D-06 0.299215929980D-02 0.000000000000D+00  5 1 -2 25 -24 21 2 0.17646412D+00 0.15697321D-02 0.11364435D+05 0.11364435D+05 0.11364435D+05 0.12618034D+01  1  2  3  2  5  2       -2 -.190683798227D-01 0.100000000000D+01
0.129470501380D-04 0.000000000000D+00 0.000000000000D+00 0.299215929980D-02 0.000000000000D+00  5 1 -2 25 -24 21 2 0.17646412D+00 0.15697321D-02 0.11364435D+05 0.11364435D+05 0.11364435D+05 0.12618034D+01  1  2 15  2  5  2       -2 0.237243998165D-01 0.100000000000D+01
0.125360631830D-03 0.000000000000D+00 -.902499605497D-04 0.299215929980D-02 0.000000000000D+00  5 1 -2 25 -24 21 2 0.17646412D+00 0.10578229D-01 0.11364435D+05 0.11364435D+05 0.11364435D+05 0.12618034D+01  1  2  5  2  5  2       -2 0.134959040947D-01 0.100000000000D+01
0.214451784517D-04 0.000000000000D+00 -.210730372812D-04 0.299215929980D-02 0.000000000000D+00  5 1 21 25 -24 2 2 0.17646412D+00 0.10578229D-01 0.11364435D+05 0.11364435D+05 0.11364435D+05 0.12618034D+01  1  2  5  4  5  2       -2 0.363550797751D-01 0.100000000000D+01
  </mgrwgt>
  </event>
  <event>
  5     66 0.47139866E-03 0.12689570E+03 0.75467711E-02 0.11436327E+00
        1 -1    0    0  502    0 0.00000000E+00 0.00000000E+00 0.54223441E+02 0.54224385E+02 0.32000000E+00 0.0000E+00 0.9000E+01
       -2 -1    0    0    0  501 0.00000000E+00 0.00000000E+00 -.20687637E+04 0.20687637E+04 0.32000000E+00 0.0000E+00 0.9000E+01
       25  1    1    2    0    0 -.51491281E+02 0.73199792E+02 -.71306647E+03 0.72945072E+03 0.12500000E+03 0.0000E+00 0.9000E+01
      -24  1    1    2    0    0 -.78053181E+02 -.68728344E+02 -.12453756E+04 0.12522953E+04 0.80419002E+02 0.0000E+00 0.9000E+01
       21  1    1    2  502  501 0.12954446E+03 -.44714480E+01 -.56098183E+02 0.14124210E+03 0.75000000E+00 0.0000E+00 0.9000E+01
#aMCatNLO 2  0  0  1  1 0.12962161D+03 0.00000000D+00  -5  5  0 0.00000000D+00 0.00000000D+00 0.00000000D+00 0.00000000D+00 0.00000000D+00
  <mgrwgt>
 0.6251762653D-01    1    2    0
 0.136949015499528D+03 0.000000000000000D+00 0.000000000000000D+00 0.136949015499528D+03
 0.136949015499528D+03 0.000000000000000D+00 0.000000000000000D+00 -.136949015499528D+03
 0.153666521668203D+03 0.193880697850302D+02 0.707532703074625D+02 0.510536714880943D+02
 0.120231509330852D+03 -.193880697850302D+02 -.707532703074625D+02 -.510536714880943D+02
 0.000000000000000D+00 0.000000000000000D+00 -.000000000000000D+00 0.000000000000000D+00
 0.705073086379145D+03 0.000000000000000D+00 0.000000000000000D+00 0.705073086379145D+03
 0.159098652677998D+03 0.000000000000000D+00 0.000000000000000D+00 -.159098652677998D+03
 0.161990860600604D+03 -.514912808780070D+02 0.731997919344881D+02 0.510536714880943D+02
 0.141030414016829D+03 -.780531811369649D+02 -.687283439737451D+02 -.510536714880943D+02
 0.561150464439711D+03 0.129544462014972D+03 -.447144796074297D+01 0.545974433701147D+03
0.208005795602D-01 0.000000000000D+00 0.000000000000D+00 0.221831661876D-02 0.285603961988D-05  5 1 -2 25 -24 21 2 0.83421298D-02 0.31827094D+00 0.43019360D+05 0.43019360D+05 0.43019360D+05 0.11988041D+01  1  2  1  1  5  1        1 0.625176265330D-01 0.100000000000D+01
  </mgrwgt>
  </event>
  <event>
  4     66 0.47139866E-03 0.53347291E+02 0.75467711E-02 0.11971710E+00
        1 -1    0    0  501    0 0.00000000E+00 0.00000000E+00 0.64983007E+03 0.64983015E+03 0.32000000E+00 0.0000E+00 0.9000E+01
       -2 -1    0    0    0  501 0.00000000E+00 0.00000000E+00 -.35384798E+02 0.35386245E+02 0.32000000E+00 0.0000E+00 0.9000E+01
       25  1    1    2    0    0 -.17117374E+02 -.10656492E+03 0.38969663E+03 0.42324644E+03 0.12500000E+03 0.0000E+00 0.9000E+01
      -24  1    1    2    0    0 0.17117374E+02 0.10656492E+03 0.22474864E+03 0.26196995E+03 0.80419002E+02 0.0000E+00 0.9000E+01
#aMCatNLO 1  0  0  1  2 0.56311997D+01 0.00000000D+00  -5  5  0 0.00000000D+00 0.00000000D+00 0.00000000D+00 0.00000000D+00 0.00000000D+00
  <mgrwgt>
 0.5111410386D+00   11    2    0
 0.151639798675499D+03 0.000000000000000D+00 0.000000000000000D+00 0.151639798675499D+03
 0.151639798675499D+03 0.000000000000000D+00 0.000000000000000D+00 -.151639798675499D+03
 0.166737721723436D+03 -.171173741923897D+02 -.106564923978508D+03 0.229647626535644D+02
 0.136541875627562D+03 0.171173741923897D+02 0.106564923978508D+03 -.229647626535644D+02
 0.000000000000000D+00 -.000000000000000D+00 -.000000000000000D+00 0.000000000000000D+00
 0.155484914880733D+03 0.000000000000000D+00 0.000000000000000D+00 0.155484914880733D+03
 0.153741779525640D+03 0.000000000000000D+00 0.000000000000000D+00 -.153741779525640D+03
 0.164834702876363D+03 -.158380503072507D+02 -.103765384936738D+03 0.229647626535644D+02
 0.138497169137697D+03 0.181785722692163D+02 0.108887139237394D+03 -.229647626535644D+02
 0.589482239231290D+01 -.234052196196561D+01 -.512175430065692D+01 0.174313535509224D+01
0.395086928418D-03 0.000000000000D+00 0.000000000000D+00 0.234608031361D-02 0.000000000000D+00  5 1 -2 25 -24 21 0 0.99973974D-01 0.54439325D-02 0.22461841D+05 0.22461841D+05 0.22461841D+05 0.12283141D+01  1  2  2  1  5  1        1 0.182484434260D+00 0.100000000000D+01
-.219456072518D-04 0.000000000000D+00 -.151723783390D-05 0.234608031361D-02 0.000000000000D+00  5 1 -2 25 -24 21 2 0.99973974D-01 0.54439325D-02 0.22461841D+05 0.22461841D+05 0.22461841D+05 0.12283141D+01  1  2  3  1  5  1        1 -.152932439791D-01 0.100000000000D+01
0.272706092335D-04 0.000000000000D+00 0.000000000000D+00 0.234608031361D-02 0.000000000000D+00  5 1 -2 25 -24 21 2 0.99973974D-01 0.54439325D-02 0.22461841D+05 0.22461841D+05 0.22461841D+05 0.12283141D+01  1  2 15  1  5  1        1 0.190040802098D-01 0.100000000000D+01
0.484981031954D-03 0.000000000000D+00 0.000000000000D+00 0.234608031361D-02 0.000000000000D+00  5 1 -2 25 -24 21 2 0.10318824D+00 0.54439325D-02 0.23323139D+05 0.23323139D+05 0.23323139D+05 0.12265437D+01  1  2 12  1  5  1        1 0.322589474527D+00 0.100000000000D+01
-.129123633585D-02 0.000000000000D+00 0.000000000000D+00 0.234608031361D-02 0.000000000000D+00  5 1 -2 25 -24 21 2 0.99973974D-01 0.54439325D-02 0.22461841D+05 0.22461841D+05 0.22461841D+05 0.12283141D+01  1  2  4  1  5  1        1 -.899824374522D+00 0.100000000000D+01
-.117035032205D-01 0.000000000000D+00 -.158829777211D-02 0.234608031361D-02 0.000000000000D+00  5 1 -2 25 -24 21 2 0.10358696D+00 0.54439325D-02 0.22461841D+05 0.22461841D+05 0.22461841D+05 0.12283141D+01  1  2  5  1  5  1        1 -.775827965773D+01 0.100000000000D+01
0.117534830518D-01 0.000000000000D+00 0.158729738401D-02 0.234608031361D-02 0.000000000000D+00  5 1 -2 25 -24 21 2 0.99973974D-01 0.54439325D-02 0.22461841D+05 0.22461841D+05 0.22461841D+05 0.12283141D+01  1  2  6  1  5  1        1 0.819065436893D+01 0.100000000000D+01
0.848743448311D-03 0.000000000000D+00 0.000000000000D+00 0.234608031361D-02 0.593748771895D-03  5 1 -2 25 -24 21 2 0.10250900D+00 0.55193945D-02 0.23323139D+05 0.23323139D+05 0.23323139D+05 0.12265437D+01  1  2 11  1  5  1        1 0.558097372757D+00 0.100000000000D+01
0.100156635769D-04 0.000000000000D+00 0.000000000000D+00 0.234608031361D-02 0.000000000000D+00  5 21 -2 25 -24 -1 2 0.10318824D+00 0.54439325D-02 0.23323139D+05 0.23323139D+05 0.23323139D+05 0.12265437D+01  1  2 12  3  5  1        1 0.154291243193D-01 0.100000000000D+01
-.732007195037D-04 0.000000000000D+00 -.100315797032D-04 0.234608031361D-02 0.000000000000D+00  5 21 -2 25 -24 -1 2 0.10358696D+00 0.54439325D-02 0.22461841D+05 0.22461841D+05 0.22461841D+05 0.12283141D+01  1  2  5  3  5  1        1 -.112095150059D+00 0.100000000000D+01
0.546435741147D-05 0.000000000000D+00 0.000000000000D+00 0.234608031361D-02 0.271576080894D-05  5 21 -2 25 -24 -1 2 0.10250900D+00 0.55193945D-02 0.23323139D+05 0.23323139D+05 0.23323139D+05 0.12265437D+01  1  2 11  3  5  1        1 0.837460984731D-02 0.100000000000D+01
  </mgrwgt>
  </event>
  <event>
  4     66 0.47139866E-03 0.83188313E+02 0.75467711E-02 0.12117641E+00
        1 -1    0    0  501    0 0.00000000E+00 0.00000000E+00 0.12344756E+04 0.12344756E+04 0.32000000E+00 0.0000E+00 0.9000E+01
       -2 -1    0    0    0  501 0.00000000E+00 0.00000000E+00 -.24958726E+02 0.24960777E+02 0.32000000E+00 0.0000E+00 0.9000E+01
       25  1    1    2    0    0 0.14502122E+02 0.80024106E+02 0.23562678E+03 0.27885327E+03 0.12500000E+03 0.0000E+00 0.9000E+01
      -24  1    1    2    0    0 -.14502122E+02 -.80024106E+02 0.97389006E+03 0.98058311E+03 0.80419002E+02 0.0000E+00 0.9000E+01
#aMCatNLO 1  0  0  1  2 0.18345598D+02 0.00000000D+00  -5  5  0 0.00000000D+00 0.00000000D+00 0.00000000D+00 0.00000000D+00 0.00000000D+00
  <mgrwgt>
 0.3371824601D+00    9    2    0
 0.175534198255074D+03 0.000000000000000D+00 0.000000000000000D+00 0.175534198255074D+03
 0.175534198255074D+03 0.000000000000000D+00 0.000000000000000D+00 -.175534198255074D+03
 0.188576933141871D+03 0.145021220690468D+02 0.800241061131484D+02 -.115421361148965D+03
 0.162491463368277D+03 -.145021220690468D+02 -.800241061131484D+02 0.115421361148965D+03
 0.000000000000000D+00 0.000000000000000D+00 -.000000000000000D+00 0.000000000000000D+00
 0.188152616718340D+03 0.000000000000000D+00 0.000000000000000D+00 0.188152616718340D+03
 0.182570766364431D+03 0.000000000000000D+00 0.000000000000000D+00 -.182570766364431D+03
 0.189757295840190D+03 0.539660848163473D+01 0.838547394724811D+02 -.115421361148965D+03
 0.161790112056889D+03 -.223067299130843D+02 -.767407557697685D+02 0.115421361148965D+03
 0.191759751856916D+02 0.169101214314496D+02 -.711398370271260D+01 0.558185035390845D+01
0.474413231115D-03 0.000000000000D+00 0.000000000000D+00 0.134032147530D-02 0.000000000000D+00  5 1 -2 25 -24 21 0 0.18991948D+00 0.38399649D-02 0.17358314D+05 0.17358314D+05 0.17358314D+05 0.12406572D+01  1  2  2  1  5  1        1 0.130545866461D+00 0.100000000000D+01
-.237182056976D-04 0.000000000000D+00 -.182187172335D-05 0.134032147530D-02 0.000000000000D+00  5 1 -2 25 -24 21 2 0.18991948D+00 0.38399649D-02 0.17358314D+05 0.17358314D+05 0.17358314D+05 0.12406572D+01  1  2  3  1  5  1        1 -.100459670369D-01 0.100000000000D+01
0.324879216917D-04 0.000000000000D+00 0.000000000000D+00 0.134032147530D-02 0.000000000000D+00  5 1 -2 25 -24 21 2 0.18991948D+00 0.38399649D-02 0.17358314D+05 0.17358314D+05 0.17358314D+05 0.12406572D+01  1  2 15  1  5  1        1 0.137604249905D-01 0.100000000000D+01
0.111419545274D-02 0.000000000000D+00 0.000000000000D+00 0.134032147530D-02 0.000000000000D+00  5 1 -2 25 -24 21 2 0.20716240D+00 0.38399649D-02 0.19928788D+05 0.19928788D+05 0.19928788D+05 0.12339966D+01  1  2 12  1  5  1        1 0.393201630947D+00 0.100000000000D+01
-.102459354436D-02 0.000000000000D+00 0.000000000000D+00 0.134032147530D-02 0.000000000000D+00  5 1 -2 25 -24 21 2 0.18991948D+00 0.38399649D-02 0.17358314D+05 0.17358314D+05 0.17358314D+05 0.12406572D+01  1  2  4  1  5  1        1 -.433971823336D+00 0.100000000000D+01
-.329315996669D-02 0.000000000000D+00 -.677142405427D-03 0.134032147530D-02 0.000000000000D+00  5 1 -2 25 -24 21 2 0.20841555D+00 0.38399649D-02 0.17358314D+05 0.17358314D+05 0.17358314D+05 0.12406572D+01  1  2  5  1  5  1        1 -.115915833983D+01 0.100000000000D+01
0.334454968152D-02 0.000000000000D+00 0.674228761148D-03 0.134032147530D-02 0.000000000000D+00  5 1 -2 25 -24 21 2 0.18991948D+00 0.38399649D-02 0.17358314D+05 0.17358314D+05 0.17358314D+05 0.12406572D+01  1  2  6  1  5  1        1 0.141660108198D+01 0.100000000000D+01
0.160121053195D-04 0.000000000000D+00 0.000000000000D+00 0.134032147530D-02 0.000000000000D+00  5 21 -2 25 -24 -1 2 0.20716240D+00 0.38399649D-02 0.19928788D+05 0.19928788D+05 0.19928788D+05 0.12339966D+01  1  2 12  3  5  1        1 0.684816202716D-02 0.100000000000D+01
-.482445599950D-04 0.000000000000D+00 -.103204104713D-04 0.134032147530D-02 0.000000000000D+00  5 21 -2 25 -24 -1 2 0.20841555D+00 0.38399649D-02 0.17358314D+05 0.17358314D+05 0.17358314D+05 0.12406572D+01  1  2  5  3  5  1        1 -.205985760754D-01 0.100000000000D+01
  </mgrwgt>
  </event>
  <event>
  4     66 0.47139866E-03 0.19758504E+03 0.75467711E-02 0.10532343E+00
        1 -1    0    0  501    0 0.00000000E+00 0.00000000E+00 0.69596685E+03 0.69596693E+03 0.32000000E+00 0.0000E+00 0.9000E+01
       -2 -1    0    0    0  501 0.00000000E+00 0.00000000E+00 -.29512667E+03 0.29512685E+03 0.32000000E+00 0.0000E+00 0.9000E+01
       25  1    1    2    0    0 -.17360570E+03 0.30534714E+03 0.49400854E+03 0.61890649E+03 0.12500000E+03 0.0000E+00 0.9000E+01
      -24  1    1    2    0    0 0.17360570E+03 -.30534714E+03 -.93168363E+02 0.37218728E+03 0.80419002E+02 0.0000E+00 0.9000E+01
#aMCatNLO 1  0  0  1  2 0.14337308D+02 0.00000000D+00  -5  5  0 0.00000000D+00 0.00000000D+00 0.00000000D+00 0.00000000D+00 0.00000000D+00
  <mgrwgt>
 0.1483780129D+00    9    2    0
 0.453209118416933D+03 0.000000000000000D+00 0.000000000000000D+00 0.453209118416933D+03
 0.453209118416933D+03 0.000000000000000D+00 0.000000000000000D+00 -.453209118416933D+03
 0.458260751136513D+03 -.173605695552628D+03 0.305347135946288D+03 0.266462201959845D+03
 0.448157485697352D+03 0.173605695552628D+03 -.305347135946288D+03 -.266462201959845D+03
 0.000000000000000D+00 -.000000000000000D+00 0.000000000000000D+00 0.000000000000000D+00
 0.524275697517432D+03 0.000000000000000D+00 0.000000000000000D+00 0.524275697517432D+03
 0.453989506514397D+03 0.000000000000000D+00 0.000000000000000D+00 -.453989506514397D+03
 0.453019967888679D+03 -.168322866856082D+03 0.300445334005906D+03 0.266462201959845D+03
 0.453511652334944D+03 0.178832804496930D+03 -.310197236950418D+03 -.266462201959845D+03
 0.717335838082059D+02 -.105099376408478D+02 0.975190294451173D+01 0.702861910030356D+02
0.992751366906D-02 0.000000000000D+00 0.000000000000D+00 0.127878175934D-02 0.000000000000D+00  5 1 -2 25 -24 21 0 0.10707184D+00 0.45404123D-01 0.13438291D+06 0.13438291D+06 0.13438291D+06 0.11519627D+01  1  2  2  1  5  1        1 0.115299062000D+00 0.100000000000D+01
-.521353274225D-03 0.000000000000D+00 -.381242664636D-04 0.127878175934D-02 0.000000000000D+00  5 1 -2 25 -24 21 2 0.10707184D+00 0.45404123D-01 0.13438291D+06 0.13438291D+06 0.13438291D+06 0.11519627D+01  1  2  3  1  5  1        1 -.803515362203D-02 0.100000000000D+01
0.681534229861D-03 0.000000000000D+00 0.000000000000D+00 0.127878175934D-02 0.000000000000D+00  5 1 -2 25 -24 21 2 0.10707184D+00 0.45404123D-01 0.13438291D+06 0.13438291D+06 0.13438291D+06 0.11519627D+01  1  2 15  1  5  1        1 0.105038800106D-01 0.100000000000D+01
0.442537411025D+00 0.000000000000D+00 0.000000000000D+00 0.127878175934D-02 0.000000000000D+00  5 1 -2 25 -24 21 2 0.12394483D+00 0.45404123D-01 0.13975622D+06 0.13975622D+06 0.13975622D+06 0.11504492D+01  1  2 12  1  5  1        1 0.544140111915D+01 0.100000000000D+01
-.440209297090D+00 0.000000000000D+00 0.000000000000D+00 0.127878175934D-02 0.000000000000D+00  5 1 -2 25 -24 21 2 0.10707184D+00 0.45404123D-01 0.13438291D+06 0.13438291D+06 0.13438291D+06 0.11519627D+01  1  2  4  1  5  1        1 -.678455378116D+01 0.100000000000D+01
-.468114243151D+00 0.000000000000D+00 -.102439741310D-01 0.127878175934D-02 0.000000000000D+00  5 1 -2 25 -24 21 2 0.12395082D+00 0.45404123D-01 0.13438291D+06 0.13438291D+06 0.13438291D+06 0.11519627D+01  1  2  5  1  5  1        1 -.577628538849D+01 0.100000000000D+01
0.464734406369D+00 0.000000000000D+00 0.101351889993D-01 0.127878175934D-02 0.000000000000D+00  5 1 -2 25 -24 21 2 0.10707184D+00 0.45404123D-01 0.13438291D+06 0.13438291D+06 0.13438291D+06 0.11519627D+01  1  2  6  1  5  1        1 0.716253744482D+01 0.100000000000D+01
0.989421465046D-02 0.000000000000D+00 0.000000000000D+00 0.127878175934D-02 0.000000000000D+00  5 21 -2 25 -24 -1 2 0.12394483D+00 0.45404123D-01 0.13975622D+06 0.13975622D+06 0.13975622D+06 0.11504492D+01  1  2 12  3  5  1        1 0.221663071508D+00 0.100000000000D+01
-.104008248164D-01 0.000000000000D+00 -.229095439228D-03 0.127878175934D-02 0.000000000000D+00  5 21 -2 25 -24 -1 2 0.12395082D+00 0.45404123D-01 0.13438291D+06 0.13438291D+06 0.13438291D+06 0.11519627D+01  1  2  5  3  5  1        1 -.234152241285D+00 0.100000000000D+01
  </mgrwgt>
  </event>
  <event>
  4     66 0.47139866E-03 0.62051535E+02 0.75467711E-02 0.12551861E+00
        1 -1    0    0  501    0 0.00000000E+00 0.00000000E+00 0.47689205E+02 0.47690279E+02 0.32000000E+00 0.0000E+00 0.9000E+01
       -2 -1    0    0    0  501 0.00000000E+00 0.00000000E+00 -.28046363E+03 0.28046381E+03 0.32000000E+00 0.0000E+00 0.9000E+01
       25  1    1    2    0    0 -.46221761E+01 -.29533085E+00 -.21002273E+03 0.24445041E+03 0.12500000E+03 0.0000E+00 0.9000E+01
      -24  1    1    2    0    0 0.46221761E+01 0.29533085E+00 -.22751691E+02 0.83703686E+02 0.80419002E+02 0.0000E+00 0.9000E+01
#aMCatNLO 1  0  0  1  2 0.19340041D+02 0.00000000D+00  -5  5  0 0.00000000D+00 0.00000000D+00 0.00000000D+00 0.00000000D+00 0.00000000D+00
  <mgrwgt>
 0.1667304367D+00    9    2    0
 0.115651604978947D+03 0.000000000000000D+00 0.000000000000000D+00 0.115651604978947D+03
 0.115651604978947D+03 0.000000000000000D+00 0.000000000000000D+00 -.115651604978947D+03
 0.135447664115559D+03 -.462217614752385D+01 -.295330845490208D+00 -.519578481243624D+02
 0.958555458423344D+02 0.462217614752385D+01 0.295330845490208D+00 0.519578481243624D+02
 0.000000000000000D+00 -.000000000000000D+00 0.000000000000000D+00 0.000000000000000D+00
 0.135419986989654D+03 0.000000000000000D+00 0.000000000000000D+00 0.135419986989654D+03
 0.120883997143812D+03 0.000000000000000D+00 0.000000000000000D+00 -.120883997143812D+03
 0.135627011132740D+03 0.439946864099427D+01 -.712129502008203D+01 -.519578481243624D+02
 0.964833335834724D+02 0.110234124401131D+02 -.454797773410729D+01 0.519578481243624D+02
 0.241936394172532D+02 -.154228810811073D+02 0.116692727541893D+02 0.145359898458420D+02
0.343040246802D-03 0.000000000000D+00 0.000000000000D+00 0.237718511091D-02 0.000000000000D+00  5 1 -2 25 -24 21 0 0.73368974D-02 0.43148347D-01 0.10571751D+05 0.10571751D+05 0.10571751D+05 0.12655257D+01  1  2  2  1  5  1        1 0.141243774307D+00 0.100000000000D+01
-.187372704579D-04 0.000000000000D+00 -.131736487229D-05 0.237718511091D-02 0.000000000000D+00  5 1 -2 25 -24 21 2 0.73368974D-02 0.43148347D-01 0.10571751D+05 0.10571751D+05 0.10571751D+05 0.12655257D+01  1  2  3  1  5  1        1 -.123558460342D-01 0.100000000000D+01
0.235821994462D-04 0.000000000000D+00 0.000000000000D+00 0.237718511091D-02 0.000000000000D+00  5 1 -2 25 -24 21 2 0.73368974D-02 0.43148347D-01 0.10571751D+05 0.10571751D+05 0.10571751D+05 0.12655257D+01  1  2 15  1  5  1        1 0.155507188819D-01 0.100000000000D+01
0.735317901384D-03 0.000000000000D+00 0.000000000000D+00 0.237718511091D-02 0.000000000000D+00  5 1 -2 25 -24 21 2 0.87368657D-02 0.43148347D-01 0.12759771D+05 0.12759771D+05 0.12759771D+05 0.12559113D+01  1  2 12  1  5  1        1 0.381163853979D+00 0.100000000000D+01
-.744850017535D-03 0.000000000000D+00 0.000000000000D+00 0.237718511091D-02 0.000000000000D+00  5 1 -2 25 -24 21 2 0.73368974D-02 0.43148347D-01 0.10571751D+05 0.10571751D+05 0.10571751D+05 0.12655257D+01  1  2  4  1  5  1        1 -.491173575998D+00 0.100000000000D+01
-.135504501209D-02 0.000000000000D+00 -.297676994226D-03 0.237718511091D-02 0.000000000000D+00  5 1 -2 25 -24 21 2 0.89659863D-02 0.43148347D-01 0.10571751D+05 0.10571751D+05 0.10571751D+05 0.12655257D+01  1  2  5  1  5  1        1 -.684512243284D+00 0.100000000000D+01
0.139253167020D-02 0.000000000000D+00 0.291790985568D-03 0.237718511091D-02 0.000000000000D+00  5 1 -2 25 -24 21 2 0.73368974D-02 0.43148347D-01 0.10571751D+05 0.10571751D+05 0.10571751D+05 0.12655257D+01  1  2  6  1  5  1        1 0.918271791688D+00 0.100000000000D+01
0.189381668418D-04 0.000000000000D+00 0.000000000000D+00 0.237718511091D-02 0.000000000000D+00  5 21 -2 25 -24 -1 2 0.87368657D-02 0.43148347D-01 0.12759771D+05 0.12759771D+05 0.12759771D+05 0.12559113D+01  1  2 12  3  5  1        1 0.125568996205D+00 0.100000000000D+01
-.354110356899D-04 0.000000000000D+00 -.853561319981D-05 0.237718511091D-02 0.000000000000D+00  5 21 -2 25 -24 -1 2 0.89659863D-02 0.43148347D-01 0.10571751D+05 0.10571751D+05 0.10571751D+05 0.12655257D+01  1  2  5  3  5  1        1 -.227027033049D+00 0.100000000000D+01
  </mgrwgt>
  </event>
  <event>
  5     66 0.47139866E-03 0.17444403E+03 0.75467711E-02 0.10763729E+00
        1 -1    0    0  501    0 0.00000000E+00 0.00000000E+00 0.85980653E+03 0.85980659E+03 0.32000000E+00 0.0000E+00 0.9000E+01
       21 -1    0    0  502  501 0.00000000E+00 0.00000000E+00 -.16341222E+03 0.16341394E+03 0.75000000E+00 0.0000E+00 0.9000E+01
       25  1    1    2    0    0 -.24583464E+02 -.11995525E+03 0.32200303E+02 0.17791984E+03 0.12500000E+03 0.0000E+00 0.9000E+01
      -24  1    1    2    0    0 -.19798765E+03 0.10686487E+03 0.14307591E+03 0.27849083E+03 0.80419002E+02 0.0000E+00 0.9000E+01
        2  1    1    2  502    0 0.22257111E+03 0.13090385E+02 0.52111810E+03 0.56680987E+03 0.32000000E+00 0.0000E+00 0.9000E+01
#aMCatNLO 2  0  0  2  2 0.22295573D+03 0.00000000D+00  -5  5  0 0.00000000D+00 0.00000000D+00 0.00000000D+00 0.00000000D+00 0.00000000D+00
  <mgrwgt>
 0.4563109524D-01    1    2    0
 0.178801346097113D+03 0.000000000000000D+00 0.000000000000000D+00 0.178801346097113D+03
 0.178801346097113D+03 0.000000000000000D+00 0.000000000000000D+00 -.178801346097113D+03
 0.191605757592784D+03 0.813881382347328D+02 -.113722596239716D+03 -.391268245822139D+02
 0.165996934601442D+03 -.813881382347328D+02 0.113722596239716D+03 0.391268245822139D+02
 0.000000000000000D+00 0.000000000000000D+00 0.000000000000000D+00 0.000000000000000D+00
 0.573597426612266D+03 0.000000000000000D+00 0.000000000000000D+00 0.573597426612266D+03
 0.244951832708301D+03 0.000000000000000D+00 0.000000000000000D+00 -.244951832708301D+03
 0.179302865460530D+03 -.245834636132042D+02 -.119955251978594D+03 -.391268245822139D+02
 0.242110165673944D+03 -.197987646721983D+03 0.106864866592804D+03 0.391268245822139D+02
 0.397136228186093D+03 0.222571110335187D+03 0.130903853857899D+02 0.328645593903965D+03
0.101887181479D-03 0.000000000000D+00 0.000000000000D+00 0.213846509481D-02 0.488761872498D-07  5 1 21 25 -24 2 2 0.13227803D+00 0.25140473D-01 0.10139930D+06 0.10139930D+06 0.10139930D+06 0.11630177D+01  1  2  1  4  5  2       -2 0.456310952415D-01 0.100000000000D+01
  </mgrwgt>
  </event>
  <event>
  4     66 0.47139866E-03 0.45353604E+02 0.75467711E-02 0.12150533E+00
        1 -1    0    0  501    0 0.00000000E+00 0.00000000E+00 0.36049316E+03 0.36049330E+03 0.32000000E+00 0.0000E+00 0.9000E+01
       -2 -1    0    0    0  501 0.00000000E+00 0.00000000E+00 -.29898232E+02 0.29899944E+02 0.32000000E+00 0.0000E+00 0.9000E+01
       25  1    1    2    0    0 -.11015707E+02 -.72857969E+01 0.21291266E+03 0.24724730E+03 0.12500000E+03 0.0000E+00 0.9000E+01
      -24  1    1    2    0    0 0.11015707E+02 0.72857969E+01 0.11768227E+03 0.14314594E+03 0.80419002E+02 0.0000E+00 0.9000E+01
#aMCatNLO 1  0  0  2  1 0.61364155D+02 0.00000000D+00  -5  5  0 0.00000000D+00 0.00000000D+00 0.00000000D+00 0.00000000D+00 0.00000000D+00
  <mgrwgt>
 0.1777244543D+00    9    2    0
 0.103819411030183D+03 0.000000000000000D+00 0.000000000000000D+00 0.103819411030183D+03
 0.103819411030183D+03 0.000000000000000D+00 0.000000000000000D+00 -.103819411030183D+03
 0.125871607133875D+03 -.110157070799016D+02 -.728579685463662D+01 0.665077771296666D+01
 0.817672149264915D+02 0.110157070799016D+02 0.728579685463662D+01 -.665077771296666D+01
 0.000000000000000D+00 -.000000000000000D+00 0.000000000000000D+00 -.000000000000000D+00
 0.130165986950998D+03 0.000000000000000D+00 0.000000000000000D+00 0.130165986950998D+03
 0.151229063561816D+03 0.000000000000000D+00 0.000000000000000D+00 -.151229063561816D+03
 0.131220867756623D+03 0.976041065554640D+01 -.381368283218312D+02 0.665077771296666D+01
 0.852957366778671D+02 0.245163727576581D+02 -.127617147621220D+02 -.665077771296666D+01
 0.648784460783237D+02 -.342767834132045D+02 0.508985430839532D+02 -.210630766108178D+02
0.122862528650D-03 0.000000000000D+00 0.000000000000D+00 0.319275374060D-02 0.000000000000D+00  5 1 -2 25 -24 21 0 0.55460629D-01 0.45998706D-02 0.10732138D+05 0.10732138D+05 0.10732138D+05 0.12647477D+01  1  2  2  2  5  2       -2 0.153343571885D+00 0.100000000000D+01
-.682565753338D-05 0.000000000000D+00 -.471824460463D-06 0.319275374060D-02 0.000000000000D+00  5 1 -2 25 -24 21 2 0.55460629D-01 0.45998706D-02 0.10732138D+05 0.10732138D+05 0.10732138D+05 0.12647477D+01  1  2  3  2  5  2       -2 -.136269422932D-01 0.100000000000D+01
0.849341870672D-05 0.000000000000D+00 0.000000000000D+00 0.319275374060D-02 0.000000000000D+00  5 1 -2 25 -24 21 2 0.55460629D-01 0.45998706D-02 0.10732138D+05 0.10732138D+05 0.10732138D+05 0.12647477D+01  1  2 15  2  5  2       -2 0.169565094678D-01 0.100000000000D+01
0.208760754778D-04 0.000000000000D+00 0.000000000000D+00 0.319275374060D-02 0.000000000000D+00  5 1 -2 25 -24 21 2 0.55460629D-01 0.70683630D-02 0.19244962D+05 0.19244962D+05 0.19244962D+05 0.12356702D+01  1  2 12  2  5  2       -2 0.212873674156D-01 0.100000000000D+01
-.475424989079D-04 0.000000000000D+00 0.000000000000D+00 0.319275374060D-02 0.000000000000D+00  5 1 -2 25 -24 21 2 0.55460629D-01 0.45998706D-02 0.10732138D+05 0.10732138D+05 0.10732138D+05 0.12647477D+01  1  2  4  2  5  2       -2 -.949152350415D-01 0.100000000000D+01
-.568136928877D-04 0.000000000000D+00 -.383373438393D-04 0.319275374060D-02 0.000000000000D+00  5 1 -2 25 -24 21 2 0.55460629D-01 0.83815627D-02 0.10732138D+05 0.10732138D+05 0.10732138D+05 0.12647477D+01  1  2  5  2  5  2       -2 -.458464358240D-01 0.100000000000D+01
0.723884670744D-04 0.000000000000D+00 0.323393850586D-04 0.319275374060D-02 0.000000000000D+00  5 1 -2 25 -24 21 2 0.55460629D-01 0.45998706D-02 0.10732138D+05 0.10732138D+05 0.10732138D+05 0.12647477D+01  1  2  6  2  5  2       -2 0.144518452427D+00 0.100000000000D+01
0.104761200005D-05 0.000000000000D+00 0.000000000000D+00 0.319275374060D-02 0.000000000000D+00  5 1 21 25 -24 2 2 0.55460629D-01 0.70683630D-02 0.19244962D+05 0.19244962D+05 0.19244962D+05 0.12356702D+01  1  2 12  4  5  2       -2 0.179402719817D-01 0.100000000000D+01
-.165389203239D-05 0.000000000000D+00 -.251629972758D-05 0.319275374060D-02 0.000000000000D+00  5 1 21 25 -24 2 2 0.55460629D-01 0.83815627D-02 0.10732138D+05 0.10732138D+05 0.10732138D+05 0.12647477D+01  1  2  5  4  5  2       -2 -.219331057029D-01 0.100000000000D+01
  </mgrwgt>
  </event>
  <event>
  4     66 0.47139866E-03 0.20530084E+03 0.75467711E-02 0.10447430E+00
        1 -1    0    0  501    0 0.00000000E+00 0.00000000E+00 0.60721767E+03 0.60721775E+03 0.32000000E+00 0.0000E+00 0.9000E+01
       -2 -1    0    0    0  501 0.00000000E+00 0.00000000E+00 -.70839407E+02 0.70840130E+02 0.32000000E+00 0.0000E+00 0.9000E+01
       25  1    1    2    0    0 -.17215745E+03 0.39855997E+02 0.23440692E+03 0.31905844E+03 0.12500000E+03 0.0000E+00 0.9000E+01
      -24  1    1    2    0    0 0.17215745E+03 -.39855997E+02 0.30197135E+03 0.35899944E+03 0.80419002E+02 0.0000E+00 0.9000E+01
#aMCatNLO 1  0  0  2  2 0.29157496D+03 0.00000000D+00  -5  5  0 0.00000000D+00 0.00000000D+00 0.00000000D+00 0.00000000D+00 0.00000000D+00
  <mgrwgt>
 0.2848088798D+00    3    2    0
 0.207401092298041D+03 0.000000000000000D+00 0.000000000000000D+00 0.207401092298041D+03
 0.207401092298041D+03 0.000000000000000D+00 0.000000000000000D+00 -.207401092298041D+03
 0.218439828815963D+03 -.172157449274745D+03 0.398559968925899D+02 -.293984860844728D+02
 0.196362355780119D+03 0.172157449274745D+03 -.398559968925899D+02 0.293984860844728D+02
 0.000000000000000D+00 -.000000000000000D+00 0.000000000000000D+00 0.000000000000000D+00
 0.430991824375317D+03 0.000000000000000D+00 0.000000000000000D+00 0.430991824375317D+03
 0.373269258830926D+03 0.000000000000000D+00 0.000000000000000D+00 -.373269258830926D+03
 0.148772045932505D+03 -.724786638675698D+02 -.197659796331073D+02 -.293984860844728D+02
 0.358255376357672D+03 0.322707106588100D+03 -.129905931767123D+03 0.293984860844728D+02
 0.297233660916065D+03 -.250228442720530D+03 0.149671911400230D+03 0.577225655443913D+02
0.160014639289D-02 0.000000000000D+00 0.000000000000D+00 0.210230376933D-02 0.000000000000D+00  5 1 -2 25 -24 21 0 0.93418165D-01 0.10898432D-01 0.42148436D+05 0.42148436D+05 0.42148436D+05 0.11996997D+01  1  2  2  2  5  2       -2 0.279434547449D+00 0.100000000000D+01
-.888858247463D-04 0.000000000000D+00 -.614498347693D-05 0.210230376933D-02 0.000000000000D+00  5 1 -2 25 -24 21 2 0.93418165D-01 0.10898432D-01 0.42148436D+05 0.42148436D+05 0.42148436D+05 0.11996997D+01  1  2  3  2  5  2       -2 -.223407631528D-01 0.100000000000D+01
0.110268351207D-03 0.000000000000D+00 0.000000000000D+00 0.210230376933D-02 0.000000000000D+00  5 1 -2 25 -24 21 2 0.93418165D-01 0.10898432D-01 0.42148436D+05 0.42148436D+05 0.42148436D+05 0.11996997D+01  1  2 15  2  5  2       -2 0.277150954566D-01 0.100000000000D+01
  </mgrwgt>
  </event>
  <event>
  5     66 -.47139866E-03 0.15592042E+03 0.75467711E-02 0.11761771E+00
        1 -1    0    0  501    0 0.00000000E+00 0.00000000E+00 0.91805433E+03 0.91805439E+03 0.32000000E+00 0.0000E+00 0.9000E+01
       -2 -1    0    0    0  502 0.00000000E+00 0.00000000E+00 -.33182360E+02 0.33183903E+02 0.32000000E+00 0.0000E+00 0.9000E+01
       25  1    1    2    0    0 -.11050318E+03 0.28349735E+02 0.40245150E+03 0.43658547E+03 0.12500000E+03 0.0000E+00 0.9000E+01
      -24  1    1    2    0    0 0.10464884E+03 -.57715785E+02 0.43798389E+03 0.46106355E+03 0.80419002E+02 0.0000E+00 0.9000E+01
       21  1    1    2  501  502 0.58543400E+01 0.29366050E+02 0.44436577E+02 0.53589272E+02 0.75000000E+00 0.0000E+00 0.9000E+01
#aMCatNLO 2  0  0  2  1 0.29943918D+02 0.00000000D+00  -5  5  0 0.00000000D+00 0.00000000D+00 0.00000000D+00 0.00000000D+00 0.00000000D+00
  <mgrwgt>
 -.1373927834D-01    2    2    0
 0.156959762595348D+03 0.000000000000000D+00 0.000000000000000D+00 0.156959762595348D+03
 0.156959762595348D+03 0.000000000000000D+00 0.000000000000000D+00 -.156959762595348D+03
 0.171545959551505D+03 -.107323917006967D+03 0.442972687452031D+02 -.179539705481395D+02
 0.142373565639191D+03 0.107323917006967D+03 -.442972687452031D+02 0.179539705481395D+02
 0.000000000000000D+00 0.000000000000000D+00 0.000000000000000D+00 -.000000000000000D+00
 0.166560714058897D+03 0.000000000000000D+00 0.000000000000000D+00 0.166560714058897D+03
 0.182891261340643D+03 0.000000000000000D+00 0.000000000000000D+00 -.182891261340643D+03
 0.170182268377291D+03 -.110503176239759D+03 0.283497346111290D+02 -.179539705481395D+02
 0.145162156818884D+03 0.104648836268326D+03 -.577157849048378D+02 0.179539705481395D+02
 0.341075502033657D+02 0.585433997143352D+01 0.293660502937088D+02 -.163305472817463D+02
-.526695042803D-03 0.000000000000D+00 0.000000000000D+00 0.232934856473D-02 0.000000000000D+00  5 1 -2 25 -24 21 2 0.13309468D+00 0.52225636D-02 0.29450689D+05 0.29450689D+05 0.29450689D+05 0.12157416D+01  1  2 13  2  5  2       -2 -.251963101034D+00 0.100000000000D+01
0.529022634406D-03 0.000000000000D+00 0.000000000000D+00 0.232934856473D-02 0.207484275917D-04  5 1 -2 25 -24 21 2 0.14123584D+00 0.51049782D-02 0.29450689D+05 0.29450689D+05 0.29450689D+05 0.12157416D+01  1  2  1  2  5  2       -2 0.238223822690D+00 0.100000000000D+01
  </mgrwgt>
  </event>
  <event>
  4     66 0.47139866E-03 0.11735426E+03 0.75467711E-02 0.11523878E+00
        1 -1    0    0  501    0 0.00000000E+00 0.00000000E+00 0.29288906E+03 0.29288923E+03 0.32000000E+00 0.0000E+00 0.9000E+01
       -2 -1    0    0    0  501 0.00000000E+00 0.00000000E+00 -.47424661E+02 0.47425740E+02 0.32000000E+00 0.0000E+00 0.9000E+01
       25  1    1    2    0    0 0.33672979E+02 -.44414399E+02 0.12747103E+03 0.18703040E+03 0.12500000E+03 0.0000E+00 0.9000E+01
      -24  1    1    2    0    0 -.33672979E+02 0.44414399E+02 0.11799337E+03 0.15328457E+03 0.80419002E+02 0.0000E+00 0.9000E+01
#aMCatNLO 1  0  0  2  1 0.12700336D+03 0.00000000D+00  -5  5  0 0.00000000D+00 0.00000000D+00 0.00000000D+00 0.00000000D+00 0.00000000D+00
  <mgrwgt>
 0.2368365356D+00    3    2    0
 0.117857445947670D+03 0.000000000000000D+00 0.000000000000000D+00 0.117857445947670D+03
 0.117857445947670D+03 0.000000000000000D+00 0.000000000000000D+00 -.117857445947670D+03
 0.137282998512451D+03 0.336729790840304D+02 -.444143990642686D+02 -.107290873766644D+02
 0.984318933828883D+02 -.336729790840304D+02 0.444143990642686D+02 0.107290873766644D+02
 0.000000000000000D+00 -.000000000000000D+00 0.000000000000000D+00 0.000000000000000D+00
 0.306352193918341D+03 0.000000000000000D+00 0.000000000000000D+00 0.306352193918341D+03
 0.157256067303245D+03 0.000000000000000D+00 0.000000000000000D+00 -.157256067303245D+03
 0.178753223971646D+03 0.111577007954267D+03 -.613447068645275D+02 -.107290873766644D+02
 0.889992040247225D+02 0.125294388187385D+02 0.343735684736840D+02 0.107290873766644D+02
 0.195855833225217D+03 -.124106446773006D+03 0.269711383908435D+02 0.149096126615096D+03
0.284993947785D-03 0.000000000000D+00 0.000000000000D+00 0.280542054347D-02 0.000000000000D+00  5 1 -2 25 -24 21 0 0.45059951D-01 0.72961982D-02 0.13772021D+05 0.13772021D+05 0.13772021D+05 0.12520735D+01  1  2  2  2  5  2       -2 0.231815249615D+00 0.100000000000D+01
-.158326446855D-04 0.000000000000D+00 -.109445180012D-05 0.280542054347D-02 0.000000000000D+00  5 1 -2 25 -24 21 2 0.45059951D-01 0.72961982D-02 0.13772021D+05 0.13772021D+05 0.13772021D+05 0.12520735D+01  1  2  3  2  5  2       -2 -.201892184858D-01 0.100000000000D+01
0.197704016812D-04 0.000000000000D+00 0.000000000000D+00 0.280542054347D-02 0.000000000000D+00  5 1 -2 25 -24 21 2 0.45059951D-01 0.72961982D-02 0.13772021D+05 0.13772021D+05 0.13772021D+05 0.12520735D+01  1  2 15  2  5  2       -2 0.252105044371D-01 0.100000000000D+01
  </mgrwgt>
  </event>
  <event>
  5     66 0.47139866E-03 0.11420964E+03 0.75467711E-02 0.12338029E+00
        1 -1    0    0  502    0 0.00000000E+00 0.00000000E+00 0.35085997E+03 0.35086012E+03 0.32000000E+00 0.0000E+00 0.9000E+01
       -2 -1    0    0    0  501 0.00000000E+00 0.00000000E+00 -.45517712E+02 0.45518837E+02 0.32000000E+00 0.0000E+00 0.9000E+01
       25  1    1    2    0    0 0.21133658E+02 -.36297871E+02 0.15406723E+03 0.20279516E+03 0.12500000E+03 0.0000E+00 0.9000E+01
      -24  1    1    2    0    0 -.43203096E+02 0.34595395E+02 0.13229647E+03 0.16441692E+03 0.80419002E+02 0.0000E+00 0.9000E+01
       21  1    1    2  502  501 0.22069438E+02 0.17024763E+01 0.18978552E+02 0.29166873E+02 0.75000000E+00 0.0000E+00 0.9000E+01
#aMCatNLO 2  0  0  1  1 0.22135007D+02 0.00000000D+00  -5  5  0 0.00000000D+00 0.00000000D+00 0.00000000D+00 0.00000000D+00 0.00000000D+00
  <mgrwgt>
 0.1219263505D+00    1    2    0
 0.114401246420600D+03 0.000000000000000D+00 0.000000000000000D+00 0.114401246420600D+03
 0.114401246420600D+03 0.000000000000000D+00 0.000000000000000D+00 -.114401246420600D+03
 0.134413668339415D+03 0.339537599906351D+02 -.353089052790196D+02 -.651595173046328D+01
 0.943888245017846D+02 -.339537599906351D+02 0.353089052790196D+02 0.651595173046328D+01
 0.000000000000000D+00 0.000000000000000D+00 0.000000000000000D+00 -.000000000000000D+00
 0.123396001044701D+03 0.000000000000000D+00 0.000000000000000D+00 0.123396001044701D+03
 0.129412917613068D+03 0.000000000000000D+00 0.000000000000000D+00 -.129412917613068D+03
 0.132028877733553D+03 0.211336575165969D+02 -.362978711303970D+02 -.651595173046328D+01
 0.978418234571843D+02 -.432030958861487D+02 0.345953948084826D+02 0.651595173046328D+01
 0.229382174670311D+02 0.220694383695518D+02 0.170247632191440D+01 -.601691656836679D+01
0.112944641152D-03 0.000000000000D+00 0.000000000000D+00 0.289282479632D-02 0.493013663265D-04  5 1 -2 25 -24 21 2 0.53975921D-01 0.70024810D-02 0.15829113D+05 0.15829113D+05 0.15829113D+05 0.12451676D+01  1  2  1  1  5  1        1 0.121926350514D+00 0.100000000000D+01
  </mgrwgt>
  </event>
  <event>
  4     66 0.47139866E-03 0.79653272E+02 0.75467711E-02 0.12255593E+00
        1 -1    0    0  501    0 0.00000000E+00 0.00000000E+00 0.13128805E+04 0.13128805E+04 0.32000000E+00 0.0000E+00 0.9000E+01
       -2 -1    0    0    0  501 0.00000000E+00 0.00000000E+00 -.91753795E+01 0.91809580E+01 0.32000000E+00 0.0000E+00 0.9000E+01
       25  1    1    2    0    0 -.35603843E+02 0.68246688E+00 0.85437285E+03 0.86420256E+03 0.12500000E+03 0.0000E+00 0.9000E+01
      -24  1    1    2    0    0 0.35603843E+02 -.68246688E+00 0.44933223E+03 0.45785890E+03 0.80419002E+02 0.0000E+00 0.9000E+01
#aMCatNLO 1  0  0  2  1 0.40841947D+02 0.00000000D+00  -5  5  0 0.00000000D+00 0.00000000D+00 0.00000000D+00 0.00000000D+00 0.00000000D+00
  <mgrwgt>
 0.1320361203D+00    7    2    0
 0.109771989884047D+03 0.000000000000000D+00 0.000000000000000D+00 0.109771989884047D+03
 0.109771989884047D+03 0.000000000000000D+00 0.000000000000000D+00 -.109771989884047D+03
 0.130628366941853D+03 -.356038431486743D+02 0.682466880099051D+00 0.130641050936371D+02
 0.889156128262408D+02 0.356038431486743D+02 -.682466880099051D+00 -.130641050936371D+02
 0.000000000000000D+00 -.000000000000000D+00 -.000000000000000D+00 -.000000000000000D+00
 0.115543831647406D+03 0.000000000000000D+00 0.000000000000000D+00 0.115543831647406D+03
 0.218897866972389D+03 0.000000000000000D+00 0.000000000000000D+00 -.218897866972389D+03
 0.130533152153984D+03 -.266791128310721D+02 0.230533708577371D+02 0.130641050936371D+02
 0.927774470125946D+02 0.418128802428663D+02 0.148812272243385D+02 -.130641050936371D+02
 0.111131099453216D+03 -.151337674117941D+02 -.379345980820757D+02 -.103354035324983D+03
0.152437458681D-03 0.000000000000D+00 0.000000000000D+00 0.298206811379D-02 0.000000000000D+00  5 1 -2 25 -24 21 0 0.20198204D+00 0.14120290D-02 0.11872728D+05 0.11872728D+05 0.11872728D+05 0.12595672D+01  1  2  2  2  5  2       -2 0.158107369703D+00 0.100000000000D+01
-.846818297761D-05 0.000000000000D+00 -.585399979039D-06 0.298206811379D-02 0.000000000000D+00  5 1 -2 25 -24 21 2 0.20198204D+00 0.14120290D-02 0.11872728D+05 0.11872728D+05 0.11872728D+05 0.12595672D+01  1  2  3  2  5  2       -2 -.139345619853D-01 0.100000000000D+01
0.105607332394D-04 0.000000000000D+00 0.000000000000D+00 0.298206811379D-02 0.000000000000D+00  5 1 -2 25 -24 21 2 0.20198204D+00 0.14120290D-02 0.11872728D+05 0.11872728D+05 0.11872728D+05 0.12595672D+01  1  2 15  2  5  2       -2 0.173778946823D-01 0.100000000000D+01
0.285711266799D-03 0.000000000000D+00 0.000000000000D+00 0.298206811379D-02 0.000000000000D+00  5 1 -2 25 -24 21 2 0.20198204D+00 0.28172577D-02 0.17236114D+05 0.17236114D+05 0.17236114D+05 0.12410009D+01  1  2 12  2  5  2       -2 0.169275598498D+00 0.100000000000D+01
-.330141737738D-03 0.000000000000D+00 -.446464813409D-04 0.298206811379D-02 0.000000000000D+00  5 1 -2 25 -24 21 2 0.20198204D+00 0.29687372D-02 0.11872728D+05 0.11872728D+05 0.11872728D+05 0.12595672D+01  1  2  5  2  5  2       -2 -.185636295393D+00 0.100000000000D+01
0.213561019782D-04 0.000000000000D+00 0.000000000000D+00 0.298206811379D-02 0.000000000000D+00  5 1 21 25 -24 2 2 0.20198204D+00 0.28172577D-02 0.17236114D+05 0.17236114D+05 0.17236114D+05 0.12410009D+01  1  2 12  4  5  2       -2 0.250732516997D+00 0.100000000000D+01
-.237669842536D-04 0.000000000000D+00 -.358825642886D-05 0.298206811379D-02 0.000000000000D+00  5 1 21 25 -24 2 2 0.20198204D+00 0.29687372D-02 0.11872728D+05 0.11872728D+05 0.11872728D+05 0.12595672D+01  1  2  5  4  5  2       -2 -.263886402168D+00 0.100000000000D+01
  </mgrwgt>
  </event>
  <event>
  4     66 0.47139866E-03 0.61950242E+02 0.75467711E-02 0.11405800E+00
        1 -1    0    0  501    0 0.00000000E+00 0.00000000E+00 0.19939805E+04 0.19939805E+04 0.32000000E+00 0.0000E+00 0.9000E+01
       -2 -1    0    0    0  501 0.00000000E+00 0.00000000E+00 -.88626595E+01 0.88684346E+01 0.32000000E+00 0.0000E+00 0.9000E+01
       25  1    1    2    0    0 -.31332892E+02 0.74284253E+02 0.96523367E+03 0.97662732E+03 0.12500000E+03 0.0000E+00 0.9000E+01
      -24  1    1    2    0    0 0.31332892E+02 -.74284253E+02 0.10198841E+04 0.10262216E+04 0.80419002E+02 0.0000E+00 0.9000E+01
#aMCatNLO 1  0  0  1  2 0.12967511D+03 0.00000000D+00  -5  5  0 0.00000000D+00 0.00000000D+00 0.00000000D+00 0.00000000D+00 0.00000000D+00
  <mgrwgt>
 0.2548943731D+00    7    2    0
 0.132957808613640D+03 0.000000000000000D+00 0.000000000000000D+00 0.132957808613640D+03
 0.132957808613640D+03 0.000000000000000D+00 0.000000000000000D+00 -.132957808613640D+03
 0.150177150864235D+03 -.313328924367700D+02 0.742842532663678D+02 -.206948353437082D+02
 0.115738466363045D+03 0.313328924367700D+02 -.742842532663678D+02 0.206948353437082D+02
 0.000000000000000D+00 -.000000000000000D+00 -.000000000000000D+00 0.000000000000000D+00
 0.349506472415949D+03 0.000000000000000D+00 0.000000000000000D+00 0.349506472415949D+03
 0.168779194678186D+03 0.000000000000000D+00 0.000000000000000D+00 -.168779194678186D+03
 0.176396340769649D+03 0.292078026654545D+02 0.119202756220127D+03 -.206948353437082D+02
 0.119452858573901D+03 0.749330212238872D+02 -.419348970126694D+02 0.206948353437082D+02
 0.222436467750585D+03 -.104140823889342D+03 -.772678592074572D+02 0.180727277737763D+03
0.621696627023D-03 0.000000000000D+00 0.000000000000D+00 0.252610681298D-02 0.000000000000D+00  5 1 -2 25 -24 21 0 0.30676667D+00 0.13639323D-02 0.17242009D+05 0.17242009D+05 0.17242009D+05 0.12409843D+01  1  2  2  1  5  1        1 0.249930219138D+00 0.100000000000D+01
-.345321611044D-04 0.000000000000D+00 -.238747874425D-05 0.252610681298D-02 0.000000000000D+00  5 1 -2 25 -24 21 2 0.30676667D+00 0.13639323D-02 0.17242009D+05 0.17242009D+05 0.17242009D+05 0.12409843D+01  1  2  3  1  5  1        1 -.213794524185D-01 0.100000000000D+01
0.429679957970D-04 0.000000000000D+00 0.000000000000D+00 0.252610681298D-02 0.000000000000D+00  5 1 -2 25 -24 21 2 0.30676667D+00 0.13639323D-02 0.17242009D+05 0.17242009D+05 0.17242009D+05 0.12409843D+01  1  2 15  1  5  1        1 0.266022221686D-01 0.100000000000D+01
0.870718884527D-07 0.000000000000D+00 0.000000000000D+00 0.252610681298D-02 0.000000000000D+00  5 1 -2 25 -24 21 2 0.78332583D+00 0.13639323D-02 0.44626525D+05 0.44626525D+05 0.44626525D+05 0.11972030D+01  1  2 12  1  5  1        1 0.148859549858D-06 0.100000000000D+01
-.281612540138D-03 0.000000000000D+00 -.163360943591D-03 0.252610681298D-02 0.000000000000D+00  5 1 -2 25 -24 21 2 0.82067544D+00 0.13639323D-02 0.17242009D+05 0.17242009D+05 0.17242009D+05 0.12409843D+01  1  2  5  1  5  1        1 -.257873383202D-03 0.100000000000D+01
0.901625708580D-08 0.000000000000D+00 0.000000000000D+00 0.252610681298D-02 0.000000000000D+00  5 21 -2 25 -24 -1 2 0.78332583D+00 0.13639323D-02 0.44626525D+05 0.44626525D+05 0.44626525D+05 0.11972030D+01  1  2 12  3  5  1        1 0.900239607825D-09 0.100000000000D+01
-.212616087461D-04 0.000000000000D+00 -.179013804620D-04 0.252610681298D-02 0.000000000000D+00  5 21 -2 25 -24 -1 2 0.82067544D+00 0.13639323D-02 0.17242009D+05 0.17242009D+05 0.17242009D+05 0.12409843D+01  1  2  5  3  5  1        1 -.892184251231D-06 0.100000000000D+01
  </mgrwgt>
  </event>
  <event>
  4     66 0.47139866E-03 0.11741395E+03 0.75467711E-02 0.11292991E+00
        3 -1    0    0  501    0 0.00000000E+00 0.00000000E+00 0.21504616E+03 0.21504675E+03 0.50000000E+00 0.0000E+00 0.9000E+01
       -4 -1    0    0    0  501 0.00000000E+00 0.00000000E+00 -.78108861E+02 0.78124239E+02 0.15500000E+01 0.0000E+00 0.9000E+01
       25  1    1    2    0    0 -.15734328E+02 -.53596336E+02 0.13917531E+03 0.19523039E+03 0.12500000E+03 0.0000E+00 0.9000E+01
      -24  1    1    2    0    0 0.15734328E+02 0.53596336E+02 -.22380079E+01 0.97940599E+02 0.80419002E+02 0.0000E+00 0.9000E+01
#aMCatNLO 1  0  0  2  2 0.16509690D+03 0.00000000D+00  -5  5  0 0.00000000D+00 0.00000000D+00 0.00000000D+00 0.00000000D+00 0.00000000D+00
  <mgrwgt>
 0.4190129230D-01    3    2    0
 0.129612307505661D+03 0.000000000000000D+00 0.000000000000000D+00 0.129612307505661D+03
 0.129612307505661D+03 0.000000000000000D+00 0.000000000000000D+00 -.129612307505661D+03
 0.147276108540199D+03 -.157343275319651D+02 -.535963356846433D+02 0.542689219078498D+02
 0.111948506471123D+03 0.157343275319651D+02 0.535963356846433D+02 -.542689219078498D+02
 0.000000000000000D+00 -.000000000000000D+00 -.000000000000000D+00 0.000000000000000D+00
 0.349104713406916D+03 0.000000000000000D+00 0.000000000000000D+00 0.349104713406916D+03
 0.188533783503255D+03 0.000000000000000D+00 0.000000000000000D+00 -.188533783503255D+03
 0.143415318388336D+03 0.442651279424673D+02 0.619968641340703D+01 0.542689219078498D+02
 0.163919008261160D+03 0.726740895397765D+02 0.110343038473099D+03 -.542689219078498D+02
 0.230304170260675D+03 -.116939217482244D+03 -.116542724886507D+03 0.160570929903661D+03
0.435154553849D-03 0.000000000000D+00 0.000000000000D+00 0.221921684873D-02 0.000000000000D+00  5 3 -4 25 -24 21 0 0.33085253D-01 0.12017975D-01 0.13786036D+05 0.13786036D+05 0.13786036D+05 0.12520227D+01  1  2  2  2  5  2       -4 0.409807655183D-01 0.100000000000D+01
-.238880852798D-04 0.000000000000D+00 -.167110806560D-05 0.221921684873D-02 0.000000000000D+00  5 3 -4 25 -24 21 2 0.33085253D-01 0.12017975D-01 0.13786036D+05 0.13786036D+05 0.13786036D+05 0.12520227D+01  1  2  3  2  5  2       -4 -.352648670314D-02 0.100000000000D+01
0.301236461000D-04 0.000000000000D+00 0.000000000000D+00 0.221921684873D-02 0.000000000000D+00  5 3 -4 25 -24 21 2 0.33085253D-01 0.12017975D-01 0.13786036D+05 0.13786036D+05 0.13786036D+05 0.12520227D+01  1  2 15  2  5  2       -4 0.444701348717D-02 0.100000000000D+01
  </mgrwgt>
  </event>
  <event>
  4     66 0.47139866E-03 0.27105014E+03 0.75467711E-02 0.10600138E+00
        1 -1    0    0  501    0 0.00000000E+00 0.00000000E+00 0.69091235E+03 0.69091242E+03 0.32000000E+00 0.0000E+00 0.9000E+01
       -2 -1    0    0    0  501 0.00000000E+00 0.00000000E+00 -.12195101E+03 0.12195143E+03 0.32000000E+00 0.0000E+00 0.9000E+01
       25  1    1    2    0    0 -.26225685E+02 0.24860738E+03 0.43758884E+03 0.51923252E+03 0.12500000E+03 0.0000E+00 0.9000E+01
      -24  1    1    2    0    0 0.26225685E+02 -.24860738E+03 0.13137249E+03 0.29363134E+03 0.80419002E+02 0.0000E+00 0.9000E+01
#aMCatNLO 1  0  0  2  2 0.15242663D+03 0.00000000D+00  -5  5  0 0.00000000D+00 0.00000000D+00 0.00000000D+00 0.00000000D+00 0.00000000D+00
  <mgrwgt>
 0.2470262977D+00    4    2    0
 0.290271704115328D+03 0.000000000000000D+00 0.000000000000000D+00 0.290271704115328D+03
 0.290271704115328D+03 0.000000000000000D+00 0.000000000000000D+00 -.290271704115328D+03
 0.298158955883064D+03 -.262256845701461D+02 0.248607377610805D+03 0.103828455827795D+03
 0.282384452347592D+03 0.262256845701461D+02 -.248607377610805D+03 -.103828455827795D+03
 0.000000000000000D+00 0.000000000000000D+00 -.000000000000000D+00 0.000000000000000D+00
 0.464421137417494D+03 0.000000000000000D+00 0.000000000000000D+00 0.464421137417494D+03
 0.335460672519575D+03 0.000000000000000D+00 0.000000000000000D+00 -.335460672519575D+03
 0.372662833006814D+03 -.517874011417842D+02 0.331346199537674D+03 0.103828455827795D+03
 0.227557565352492D+03 0.679430422397402D+01 -.185711385718029D+03 -.103828455827795D+03
 0.199661411577764D+03 0.449930969178102D+02 -.145634813819645D+03 0.128960464897919D+03
0.471357409701D-02 0.000000000000D+00 0.000000000000D+00 0.176503132049D-02 0.000000000000D+00  5 1 -2 25 -24 21 0 0.10629425D+00 0.18761733D-01 0.73468178D+05 0.73468178D+05 0.73468178D+05 0.11760763D+01  1  2  2  2  5  2       -2 0.280271708038D+00 0.100000000000D+01
-.260370670221D-03 0.000000000000D+00 -.181013656451D-04 0.176503132049D-02 0.000000000000D+00  5 1 -2 25 -24 21 2 0.10629425D+00 0.18761733D-01 0.73468178D+05 0.73468178D+05 0.73468178D+05 0.11760763D+01  1  2  3  2  5  2       -2 -.214137115682D-01 0.100000000000D+01
0.323731533671D-03 0.000000000000D+00 0.000000000000D+00 0.176503132049D-02 0.000000000000D+00  5 1 -2 25 -24 21 2 0.10629425D+00 0.18761733D-01 0.73468178D+05 0.73468178D+05 0.73468178D+05 0.11760763D+01  1  2 15  2  5  2       -2 0.266247103858D-01 0.100000000000D+01
-.467593906002D-03 0.000000000000D+00 0.000000000000D+00 0.176503132049D-02 0.000000000000D+00  5 1 -2 25 -24 21 2 0.10629425D+00 0.18761733D-01 0.73468178D+05 0.73468178D+05 0.73468178D+05 0.11760763D+01  1  2  4  2  5  2       -2 -.384564091866D-01 0.100000000000D+01
  </mgrwgt>
  </event>
  <event>
  4     66 0.47139866E-03 0.63323250E+02 0.75467711E-02 0.12289429E+00
        1 -1    0    0  501    0 0.00000000E+00 0.00000000E+00 0.35211829E+03 0.35211844E+03 0.32000000E+00 0.0000E+00 0.9000E+01
       -2 -1    0    0    0  501 0.00000000E+00 0.00000000E+00 -.49534199E+02 0.49535232E+02 0.32000000E+00 0.0000E+00 0.9000E+01
       25  1    1    2    0    0 0.71186171E+01 -.43718624E+02 0.27578173E+03 0.30601071E+03 0.12500000E+03 0.0000E+00 0.9000E+01
      -24  1    1    2    0    0 -.71186171E+01 0.43718624E+02 0.26802364E+02 0.95642958E+02 0.80419002E+02 0.0000E+00 0.9000E+01
#aMCatNLO 1  0  0  2  1 0.30944090D+02 0.00000000D+00  -5  5  0 0.00000000D+00 0.00000000D+00 0.00000000D+00 0.00000000D+00 0.00000000D+00
  <mgrwgt>
 0.2046743148D+00    9    2    0
 0.132068672260027D+03 0.000000000000000D+00 0.000000000000000D+00 0.132068672260027D+03
 0.132068672260027D+03 0.000000000000000D+00 0.000000000000000D+00 -.132068672260027D+03
 0.149403941648514D+03 0.711861710656025D+01 -.437186244773039D+02 0.688080296507270D+02
 0.114733402871540D+03 -.711861710656025D+01 0.437186244773039D+02 -.688080296507270D+02
 0.000000000000000D+00 -.000000000000000D+00 -.000000000000000D+00 -.000000000000000D+00
 0.137299846343342D+03 0.000000000000000D+00 0.000000000000000D+00 0.137299846343342D+03
 0.188282758063545D+03 0.000000000000000D+00 0.000000000000000D+00 -.188282758063545D+03
 0.145432718270122D+03 0.908395449746935D+01 -.266197740356548D+02 0.688080296507270D+02
 0.120511022935703D+03 -.555051269861619D+01 0.573614640591242D+02 -.688080296507270D+02
 0.596388632010619D+02 -.353344179885316D+01 -.307416900234694D+02 -.509829117202030D+02
0.291004882651D-03 0.000000000000D+00 0.000000000000D+00 0.196776946625D-02 0.000000000000D+00  5 1 -2 25 -24 21 0 0.54172136D-01 0.76207366D-02 0.12591834D+05 0.12591834D+05 0.12591834D+05 0.12565811D+01  1  2  2  2  5  2       -2 0.175854440589D+00 0.100000000000D+01
-.156451922989D-04 0.000000000000D+00 -.111753537272D-05 0.196776946625D-02 0.000000000000D+00  5 1 -2 25 -24 21 2 0.54172136D-01 0.76207366D-02 0.12591834D+05 0.12591834D+05 0.12591834D+05 0.12565811D+01  1  2  3  2  5  2       -2 -.149284603025D-01 0.100000000000D+01
0.199938177865D-04 0.000000000000D+00 0.000000000000D+00 0.196776946625D-02 0.000000000000D+00  5 1 -2 25 -24 21 2 0.54172136D-01 0.76207366D-02 0.12591834D+05 0.12591834D+05 0.12591834D+05 0.12565811D+01  1  2 15  2  5  2       -2 0.190778681027D-01 0.100000000000D+01
0.572811839803D-03 0.000000000000D+00 0.000000000000D+00 0.196776946625D-02 0.000000000000D+00  5 1 -2 25 -24 21 2 0.54172136D-01 0.10965827D-01 0.16641734D+05 0.16641734D+05 0.16641734D+05 0.12427128D+01  1  2 12  2  5  2       -2 0.305985902503D+00 0.100000000000D+01
-.588790666195D-03 0.000000000000D+00 0.000000000000D+00 0.196776946625D-02 0.000000000000D+00  5 1 -2 25 -24 21 2 0.54172136D-01 0.76207366D-02 0.12591834D+05 0.12591834D+05 0.12591834D+05 0.12565811D+01  1  2  4  2  5  2       -2 -.561817197183D+00 0.100000000000D+01
-.682419358338D-03 0.000000000000D+00 -.114896780998D-03 0.196776946625D-02 0.000000000000D+00  5 1 -2 25 -24 21 2 0.54172136D-01 0.11256330D-01 0.12591834D+05 0.12591834D+05 0.12591834D+05 0.12565811D+01  1  2  5  2  5  2       -2 -.355093982293D+00 0.100000000000D+01
0.682846621570D-03 0.000000000000D+00 0.106678101293D-03 0.196776946625D-02 0.000000000000D+00  5 1 -2 25 -24 21 2 0.54172136D-01 0.76207366D-02 0.12591834D+05 0.12591834D+05 0.12591834D+05 0.12565811D+01  1  2  6  2  5  2       -2 0.651564294515D+00 0.100000000000D+01
0.254514739892D-04 0.000000000000D+00 0.000000000000D+00 0.196776946625D-02 0.000000000000D+00  5 1 21 25 -24 2 2 0.54172136D-01 0.10965827D-01 0.16641734D+05 0.16641734D+05 0.16641734D+05 0.12427128D+01  1  2 12  4  5  2       -2 0.211365742315D+00 0.100000000000D+01
-.281007791316D-04 0.000000000000D+00 -.536919454170D-05 0.196776946625D-02 0.000000000000D+00  5 1 21 25 -24 2 2 0.54172136D-01 0.11256330D-01 0.12591834D+05 0.12591834D+05 0.12591834D+05 0.12565811D+01  1  2  5  4  5  2       -2 -.227334293464D+00 0.100000000000D+01
  </mgrwgt>
  </event>
  <event>
  4     66 0.47139866E-03 0.15154608E+03 0.75467711E-02 0.11210687E+00
        3 -1    0    0  501    0 0.00000000E+00 0.00000000E+00 0.37460618E+03 0.37460651E+03 0.50000000E+00 0.0000E+00 0.9000E+01
       -4 -1    0    0    0  501 0.00000000E+00 0.00000000E+00 -.65082393E+02 0.65100848E+02 0.15500000E+01 0.0000E+00 0.9000E+01
       25  1    1    2    0    0 0.92877969E+02 0.59346594E+02 0.11652065E+03 0.20334797E+03 0.12500000E+03 0.0000E+00 0.9000E+01
      -24  1    1    2    0    0 -.92877969E+02 -.59346594E+02 0.19300313E+03 0.23635939E+03 0.80419002E+02 0.0000E+00 0.9000E+01
#aMCatNLO 1  0  0  2  1 0.14165321D+03 0.00000000D+00  -5  5  0 0.00000000D+00 0.00000000D+00 0.00000000D+00 0.00000000D+00 0.00000000D+00
  <mgrwgt>
 0.3292485065D-01    3    2    0
 0.156155042062791D+03 0.000000000000000D+00 0.000000000000000D+00 0.156155042062791D+03
 0.156155042062791D+03 0.000000000000000D+00 0.000000000000000D+00 -.156155042062791D+03
 0.170816406698630D+03 0.928779685644440D+02 0.593465936298722D+02 -.374821234364419D+02
 0.141493677426952D+03 -.928779685644440D+02 -.593465936298722D+02 0.374821234364419D+02
 0.000000000000000D+00 0.000000000000000D+00 -.000000000000000D+00 0.000000000000000D+00
 0.385912268202294D+03 0.000000000000000D+00 0.000000000000000D+00 0.385912268202294D+03
 0.194859073103401D+03 0.000000000000000D+00 0.000000000000000D+00 -.194859073103401D+03
 0.189930291072955D+03 0.540418051050570D+02 0.126976726964983D+03 -.374821234364419D+02
 0.153002966683458D+03 -.124581986590285D+03 -.413653230163074D+01 0.374821234364419D+02
 0.237838083549281D+03 0.705401814852275D+02 -.122840194663353D+03 0.191053195098893D+03
0.710714783585D-03 0.000000000000D+00 0.000000000000D+00 0.223796273881D-02 0.000000000000D+00  5 3 -4 25 -24 21 0 0.57633165D-01 0.10014121D-01 0.22966214D+05 0.22966214D+05 0.22966214D+05 0.12272683D+01  1  2  2  2  5  2       -4 0.322607567161D-01 0.100000000000D+01
-.394410645234D-04 0.000000000000D+00 -.272933190447D-05 0.223796273881D-02 0.000000000000D+00  5 3 -4 25 -24 21 2 0.57633165D-01 0.10014121D-01 0.22966214D+05 0.22966214D+05 0.22966214D+05 0.12272683D+01  1  2  3  2  5  2       -4 -.269654004793D-02 0.100000000000D+01
0.491544643260D-04 0.000000000000D+00 0.000000000000D+00 0.223796273881D-02 0.000000000000D+00  5 3 -4 25 -24 21 2 0.57633165D-01 0.10014121D-01 0.22966214D+05 0.22966214D+05 0.22966214D+05 0.12272683D+01  1  2 15  2  5  2       -4 0.336063397861D-02 0.100000000000D+01
  </mgrwgt>
  </event>
  <event>
  4     66 0.47139866E-03 0.22303343E+03 0.75467711E-02 0.11180528E+00
        1 -1    0    0  501    0 0.00000000E+00 0.00000000E+00 0.10463017E+03 0.10463066E+03 0.32000000E+00 0.0000E+00 0.9000E+01
       -2 -1    0    0    0  501 0.00000000E+00 0.00000000E+00 -.47994239E+03 0.47994250E+03 0.32000000E+00 0.0000E+00 0.9000E+01
       25  1    1    2    0    0 0.99923389E+02 -.16976009E+03 -.22454055E+03 0.32380030E+03 0.12500000E+03 0.0000E+00 0.9000E+01
      -24  1    1    2    0    0 -.99923389E+02 0.16976009E+03 -.15077167E+03 0.26077286E+03 0.80419002E+02 0.0000E+00 0.9000E+01
#aMCatNLO 1  0  0  2  2 0.37611347D+02 0.00000000D+00  -5  5  0 0.00000000D+00 0.00000000D+00 0.00000000D+00 0.00000000D+00 0.00000000D+00
  <mgrwgt>
 0.9319239068D-01    4    2    0
 0.224090669328153D+03 0.000000000000000D+00 0.000000000000000D+00 0.224090669328153D+03
 0.224090669328153D+03 0.000000000000000D+00 0.000000000000000D+00 -.224090669328153D+03
 0.234307275036330D+03 0.999233885976924D+02 -.169760092082973D+03 -.217192698331626D+02
 0.213874063619975D+03 -.999233885976924D+02 0.169760092082973D+03 0.217192698331626D+02
 0.000000000000000D+00 0.000000000000000D+00 0.000000000000000D+00 0.000000000000000D+00
 0.255281527687607D+03 0.000000000000000D+00 0.000000000000000D+00 0.255281527687607D+03
 0.236510496310780D+03 0.000000000000000D+00 0.000000000000000D+00 -.236510496310780D+03
 0.235430428875941D+03 0.831507686925784D+02 -.180046410195975D+03 -.217192698331626D+02
 0.214326311760716D+03 -.115212862020138D+03 0.160383358555754D+03 0.217192698331626D+02
 0.420352833617301D+02 0.320620933275599D+02 0.196630516402201D+02 0.187710313768268D+02
0.361893263980D-02 0.000000000000D+00 0.000000000000D+00 0.208634057209D-02 0.000000000000D+00  5 1 -2 25 -24 21 0 0.16096995D-01 0.73837336D-01 0.49743909D+05 0.49743909D+05 0.49743909D+05 0.11925027D+01  1  2  2  2  5  2       -2 0.183105479534D+00 0.100000000000D+01
-.201046346384D-03 0.000000000000D+00 -.138976542237D-04 0.208634057209D-02 0.000000000000D+00  5 1 -2 25 -24 21 2 0.16096995D-01 0.73837336D-01 0.49743909D+05 0.49743909D+05 0.49743909D+05 0.11925027D+01  1  2  3  2  5  2       -2 -.144655767612D-01 0.100000000000D+01
0.249213077484D-03 0.000000000000D+00 0.000000000000D+00 0.208634057209D-02 0.000000000000D+00  5 1 -2 25 -24 21 2 0.16096995D-01 0.73837336D-01 0.49743909D+05 0.49743909D+05 0.49743909D+05 0.11925027D+01  1  2 15  2  5  2       -2 0.179312430546D-01 0.100000000000D+01
-.129780221427D-02 0.000000000000D+00 0.000000000000D+00 0.208634057209D-02 0.000000000000D+00  5 1 -2 25 -24 21 2 0.16096995D-01 0.73837336D-01 0.49743909D+05 0.49743909D+05 0.49743909D+05 0.11925027D+01  1  2  4  2  5  2       -2 -.933787551431D-01 0.100000000000D+01
  </mgrwgt>
  </event>
</LesHouchesEvents>
