<event>
 5    0  0.1856407E+000  0.2445486E+03  0.7546771E-02  0.1116799E+00
         21   -1    0    0  502  501  0.00000000000E+00  0.00000000000E+00  0.69408694825E+03  0.69408694825E+03  0.00000000000E+00 0.  1.
         21   -1    0    0  503  502 -0.00000000000E+00 -0.00000000000E+00 -0.55076613683E+03  0.55076613683E+03  0.00000000000E+00 0. -1.
         25    1    1    2    0    0  0.21298374462E+03  0.13979320780E+02  0.64417989245E+03  0.69003639811E+03  0.12500000000E+03 0.  0.
         21    1    1    2  503  504 -0.67787717118E+02  0.47520926723E+01 -0.61295248470E+02  0.91514285562E+02  0.00000000000E+00 0. -1.
         21    1    1    2  504  501 -0.14519602750E+03 -0.18731413452E+02 -0.43956383256E+03  0.46330240140E+03  0.00000000000E+00 0. -1.
<mgrwt>
<rscale>  4 0.24454860E+03</rscale>
<asrwt>0</asrwt>
<pdfrwt beam="1">  1       21 0.10678261E+00 0.24454860E+03</pdfrwt>
<pdfrwt beam="2">  1       21 0.84733251E-01 0.24454860E+03</pdfrwt>
<totfact> 0.80650628E+02</totfact>
</mgrwt>
</event>
<event>
 5    0  0.1856407E+000  0.2591825E+03  0.7546771E-02  0.1107635E+00
         21   -1    0    0  502  501  0.00000000000E+00  0.00000000000E+00  0.92789287464E+02  0.92789287464E+02  0.00000000000E+00 0. -1.
         21   -1    0    0  503  502 -0.00000000000E+00 -0.00000000000E+00 -0.92355284367E+03  0.92355284367E+03  0.00000000000E+00 0.  1.
         25    1    1    2    0    0  0.12461595457E+03 -0.18979311569E+03 -0.15967065296E+03  0.30441793692E+03  0.12500000000E+03 0.  0.
         21    1    1    2  503  504 -0.19561856999E+02  0.92173202866E+02 -0.26662751629E+03  0.28278754927E+03  0.00000000000E+00 0. -1.
         21    1    1    2  504  501 -0.10505409758E+03  0.97619912829E+02 -0.40446538696E+03  0.42913664495E+03  0.00000000000E+00 0.  1.
<mgrwt>
<rscale>  4 0.25918249E+03</rscale>
<asrwt>0</asrwt>
<pdfrwt beam="1">  1       21 0.14275275E-01 0.25918249E+03</pdfrwt>
<pdfrwt beam="2">  1       21 0.14208505E+00 0.25918249E+03</pdfrwt>
<totfact> 0.14179969E+04</totfact>
</mgrwt>
</event>
<event>
 5    0  0.1856407E+000  0.2707267E+03  0.7546771E-02  0.1100864E+00
         21   -1    0    0  502  501  0.00000000000E+00  0.00000000000E+00  0.43658806973E+03  0.43658806973E+03  0.00000000000E+00 0.  1.
         21   -1    0    0  503  502 -0.00000000000E+00 -0.00000000000E+00 -0.16249810706E+03  0.16249810706E+03  0.00000000000E+00 0.  1.
         25    1    1    2    0    0  0.21802100556E+03  0.10067175685E+03  0.21905732637E+03  0.34825145187E+03  0.12500000000E+03 0.  0.
         21    1    1    2  503  504 -0.42608837004E+02 -0.32388415212E+02  0.28810751063E+02  0.60783071719E+02  0.00000000000E+00 0.  1.
         21    1    1    2  504  501 -0.17541216855E+03 -0.68283341633E+02  0.26221885232E+02  0.19005165321E+03  0.00000000000E+00 0.  1.
<mgrwt>
<rscale>  4 0.27072673E+03</rscale>
<asrwt>0</asrwt>
<pdfrwt beam="1">  1       21 0.67167395E-01 0.27072673E+03</pdfrwt>
<pdfrwt beam="2">  1       21 0.24999709E-01 0.27072673E+03</pdfrwt>
<totfact> 0.29591009E+04</totfact>
</mgrwt>
</event>
<event>
 5    0  0.1856407E+000  0.2538309E+03  0.7546771E-02  0.1110907E+00
         21   -1    0    0  502  501  0.00000000000E+00  0.00000000000E+00  0.25067151145E+03  0.25067151145E+03  0.00000000000E+00 0.  1.
         21   -1    0    0  503  502 -0.00000000000E+00 -0.00000000000E+00 -0.68733083122E+03  0.68733083122E+03  0.00000000000E+00 0. -1.
         25    1    1    2    0    0  0.39676367032E+02 -0.24090074510E+03  0.13414872731E+03  0.30533303805E+03  0.12500000000E+03 0.  0.
         21    1    1    2  503  504  0.45972612007E+01  0.26656516281E+02 -0.70534895821E+01  0.27954541421E+02  0.00000000000E+00 0. -1.
         21    1    1    2  504  501 -0.44273628233E+02  0.21424422882E+03 -0.56375455749E+03  0.60471476320E+03  0.00000000000E+00 0. -1.
<mgrwt>
<rscale>  4 0.25383093E+03</rscale>
<asrwt>0</asrwt>
<pdfrwt beam="1">  1       21 0.38564848E-01 0.25383093E+03</pdfrwt>
<pdfrwt beam="2">  1       21 0.10574320E+00 0.25383093E+03</pdfrwt>
<totfact> 0.44558580E+03</totfact>
</mgrwt>
</event>
<event>
 5    0  0.1856407E+000  0.2606279E+03  0.7546771E-02  0.1106767E+00
         21   -1    0    0  502  501  0.00000000000E+00  0.00000000000E+00  0.20097723160E+04  0.20097723160E+04  0.00000000000E+00 0. -1.
         21   -1    0    0  503  502 -0.00000000000E+00 -0.00000000000E+00 -0.32375858884E+02  0.32375858884E+02  0.00000000000E+00 0. -1.
         25    1    1    2    0    0  0.66985939173E+02  0.21866597517E+03  0.12047945065E+04  0.12326624548E+04  0.12500000000E+03 0.  0.
         21    1    1    2  503  504 -0.27037149500E+02 -0.15840292803E+03  0.42320523272E+03  0.45268660690E+03  0.00000000000E+00 0. -1.
         21    1    1    2  504  501 -0.39948789672E+02 -0.60263047148E+02  0.34939671792E+03  0.35679911314E+03  0.00000000000E+00 0.  1.
<mgrwt>
<rscale>  4 0.26062794E+03</rscale>
<asrwt>0</asrwt>
<pdfrwt beam="1">  1       21 0.30919564E+00 0.26062794E+03</pdfrwt>
<pdfrwt beam="2">  1       21 0.49809029E-02 0.26062794E+03</pdfrwt>
<totfact> 0.76563602E+03</totfact>
</mgrwt>
</event>
<event>
 5    0  0.2301161E+000  0.2785046E+03  0.7546771E-02  0.1096509E+00
         21   -1    0    0  502  501  0.00000000000E+00  0.00000000000E+00  0.17516159340E+03  0.17516159340E+03  0.00000000000E+00 0.  1.
         21   -1    0    0  503  502 -0.00000000000E+00 -0.00000000000E+00 -0.75632886048E+03  0.75632886048E+03  0.00000000000E+00 0.  1.
         25    1    1    2    0    0  0.68655813419E+02  0.23921992543E+03  0.17570828571E+02  0.27905828684E+03  0.12500000000E+03 0.  0.
         21    1    1    2  503  504 -0.47271345540E+02 -0.21937591291E+03 -0.47560307124E+03  0.52588844126E+03  0.00000000000E+00 0.  1.
         21    1    1    2  504  501 -0.21384467879E+02 -0.19844012520E+02 -0.12313502441E+03  0.12654372579E+03  0.00000000000E+00 0.  1.
<mgrwt>
<rscale>  4 0.27850457E+03</rscale>
<asrwt>0</asrwt>
<pdfrwt beam="1">  1       21 0.26947937E-01 0.27850457E+03</pdfrwt>
<pdfrwt beam="2">  1       21 0.11635829E+00 0.27850457E+03</pdfrwt>
<totfact> 0.70692906E+03</totfact>
</mgrwt>
</event>
<event>
 5    0  0.1858214E+000  0.2888041E+03  0.7546771E-02  0.1090975E+00
         21   -1    0    0  502  501  0.00000000000E+00  0.00000000000E+00  0.20236008797E+03  0.20236008797E+03  0.00000000000E+00 0. -1.
         21   -1    0    0  503  502 -0.00000000000E+00 -0.00000000000E+00 -0.61339966270E+03  0.61339966270E+03  0.00000000000E+00 0. -1.
         25    1    1    2    0    0 -0.35255626527E+02  0.26507218563E+03 -0.24093014025E+02  0.29616160474E+03  0.12500000000E+03 0.  0.
         21    1    1    2  503  504 -0.44672804225E+02 -0.25154877738E+03 -0.23378149184E+03  0.34630367132E+03  0.00000000000E+00 0. -1.
         21    1    1    2  504  501  0.79928430752E+02 -0.13523408251E+02 -0.15316506886E+03  0.17329447461E+03  0.00000000000E+00 0. -1.
<mgrwt>
<rscale>  4 0.28880410E+03</rscale>
<asrwt>0</asrwt>
<pdfrwt beam="1">  1       21 0.31132321E-01 0.28880410E+03</pdfrwt>
<pdfrwt beam="2">  1       21 0.94369178E-01 0.28880410E+03</pdfrwt>
<totfact> 0.88049869E+03</totfact>
</mgrwt>
</event>
<event>
 5    0  0.1856407E+000  0.4545148E+03  0.7546771E-02  0.1026404E+00
         21   -1    0    0  502  501  0.00000000000E+00  0.00000000000E+00  0.59588495862E+03  0.59588495862E+03  0.00000000000E+00 0. -1.
         21   -1    0    0  503  502 -0.00000000000E+00 -0.00000000000E+00 -0.45470476971E+03  0.45470476971E+03  0.00000000000E+00 0. -1.
         25    1    1    2    0    0  0.38780184869E+03 -0.20081210916E+03  0.32684662644E+03  0.55961548786E+03  0.12500000000E+03 0.  0.
         21    1    1    2  503  504 -0.18676963573E+03  0.14890686910E+03 -0.14492094125E+03  0.27938903291E+03  0.00000000000E+00 0. -1.
         21    1    1    2  504  501 -0.20103221296E+03  0.51905240056E+02 -0.40745496279E+02  0.21158520756E+03  0.00000000000E+00 0. -1.
<mgrwt>
<rscale>  4 0.45444794E+03</rscale>
<asrwt>0</asrwt>
<pdfrwt beam="1">  1       21 0.91674609E-01 0.45451477E+03</pdfrwt>
<pdfrwt beam="2">  1       21 0.69954580E-01 0.45451477E+03</pdfrwt>
<totfact> 0.16018745E+03</totfact>
</mgrwt>
</event>
<event>
 5    0  0.1856407E+000  0.2844008E+03  0.7546771E-02  0.1093309E+00
         21   -1    0    0  502  501  0.00000000000E+00  0.00000000000E+00  0.27130166176E+03  0.27130166176E+03  0.00000000000E+00 0.  1.
         21   -1    0    0  503  502 -0.00000000000E+00 -0.00000000000E+00 -0.27435391814E+03  0.27435391814E+03  0.00000000000E+00 0.  1.
         25    1    1    2    0    0  0.18707412745E+03  0.17395999956E+03 -0.11876216421E+02  0.28464865207E+03  0.12500000000E+03 0.  0.
         21    1    1    2  503  504 -0.13486995274E+03 -0.10414679432E+03  0.25364809522E+02  0.17227835755E+03  0.00000000000E+00 0.  1.
         21    1    1    2  504  501 -0.52204174711E+02 -0.69813205238E+02 -0.16540849483E+02  0.88728570283E+02  0.00000000000E+00 0.  1.
<mgrwt>
<rscale>  4 0.28440079E+03</rscale>
<asrwt>0</asrwt>
<pdfrwt beam="1">  1       21 0.41738718E-01 0.28440079E+03</pdfrwt>
<pdfrwt beam="2">  1       21 0.42208295E-01 0.28440079E+03</pdfrwt>
<totfact> 0.28586112E+04</totfact>
</mgrwt>
</event>
<event>
 5    0  0.1856407E+000  0.3600909E+03  0.7546771E-02  0.1058548E+00
         21   -1    0    0  502  501  0.00000000000E+00  0.00000000000E+00  0.34853213544E+03  0.34853213544E+03  0.00000000000E+00 0. -1.
         21   -1    0    0  503  502 -0.00000000000E+00 -0.00000000000E+00 -0.63367713673E+03  0.63367713673E+03  0.00000000000E+00 0. -1.
         25    1    1    2    0    0  0.31748070370E+03  0.11509330491E+03  0.17942919909E+03  0.40231865920E+03  0.12500000000E+03 0.  0.
         21    1    1    2  503  504 -0.29288246034E+03 -0.93365355366E+02 -0.44745184607E+03  0.54287234200E+03  0.00000000000E+00 0. -1.
         21    1    1    2  504  501 -0.24598243361E+02 -0.21727949539E+02 -0.17122354313E+02  0.37018270959E+02  0.00000000000E+00 0. -1.
<mgrwt>
<rscale>  4 0.36009091E+03</rscale>
<asrwt>0</asrwt>
<pdfrwt beam="1">  1       21 0.53620329E-01 0.36009091E+03</pdfrwt>
<pdfrwt beam="2">  1       21 0.97488790E-01 0.36009091E+03</pdfrwt>
<totfact> 0.25796137E+03</totfact>
</mgrwt>
</event>
<event>
 5    0  0.1856407E+000  0.3105302E+03  0.7546771E-02  0.1080092E+00
         21   -1    0    0  502  501  0.00000000000E+00  0.00000000000E+00  0.50273734311E+03  0.50273734311E+03  0.00000000000E+00 0.  1.
         21   -1    0    0  503  502 -0.00000000000E+00 -0.00000000000E+00 -0.18374315752E+03  0.18374315752E+03  0.00000000000E+00 0. -1.
         25    1    1    2    0    0  0.28000421990E+03  0.49006299906E+02  0.11372842019E+03  0.33070097392E+03  0.12500000000E+03 0.  0.
         21    1    1    2  503  504 -0.14184809426E+03  0.34999148487E+01  0.11458519427E+03  0.18238118871E+03  0.00000000000E+00 0. -1.
         21    1    1    2  504  501 -0.13815612564E+03 -0.52506214754E+02  0.90680571129E+02  0.17339833800E+03  0.00000000000E+00 0. -1.
<mgrwt>
<rscale>  4 0.31053016E+03</rscale>
<asrwt>0</asrwt>
<pdfrwt beam="1">  1       21 0.77344206E-01 0.31053016E+03</pdfrwt>
<pdfrwt beam="2">  1       21 0.28268178E-01 0.31053016E+03</pdfrwt>
<totfact> 0.16722985E+04</totfact>
</mgrwt>
</event>
