<event>
 5    0  0.2159162E+000  0.3167418E+03  0.7546771E-02  0.1077159E+00
         21   -1    0    0  502  501  0.00000000000E+00  0.00000000000E+00  0.34892837929E+03  0.34892837929E+03  0.00000000000E+00 0. -1.
         21   -1    0    0  503  502 -0.00000000000E+00 -0.00000000000E+00 -0.28560192680E+03  0.28560192680E+03  0.00000000000E+00 0. -1.
         25    1    1    2    0    0  0.23589027355E+03  0.17045861603E+03  0.10119431175E+03  0.33251413454E+03  0.12500000000E+03 0.  0.
         21    1    1    2  503  504 -0.82056345059E+02 -0.95875605504E+02 -0.35285915376E+02  0.13103614509E+03  0.00000000000E+00 0. -1.
         21    1    1    2  504  501 -0.15383392849E+03 -0.74583010527E+02 -0.25819438839E+01  0.17098002646E+03  0.00000000000E+00 0. -1.
<mgrwt>
<rscale>  4 0.31674179E+03</rscale>
<asrwt>0</asrwt>
<pdfrwt beam="1">  1       21 0.53681289E-01 0.31674179E+03</pdfrwt>
<pdfrwt beam="2">  1       21 0.43938758E-01 0.31674179E+03</pdfrwt>
<totfact> 0.15349206E+04</totfact>
</mgrwt>
</event>
<event>
 5    0  0.2159162E+000  0.2378179E+03  0.7546771E-02  0.1121255E+00
         21   -1    0    0  502  501  0.00000000000E+00  0.00000000000E+00  0.15305245419E+03  0.15305245419E+03  0.00000000000E+00 0.  1.
         21   -1    0    0  503  502 -0.00000000000E+00 -0.00000000000E+00 -0.47927553428E+03  0.47927553428E+03  0.00000000000E+00 0.  1.
         25    1    1    2    0    0 -0.17928905495E+03  0.93743267065E+02 -0.24683351007E+01  0.23783073398E+03  0.12500000000E+03 0.  0.
         21    1    1    2  503  504  0.82966148739E+02  0.82586285480E+01 -0.97633876469E+02  0.12838987739E+03  0.00000000000E+00 0.  1.
         21    1    1    2  504  501  0.96322906213E+02 -0.10200189561E+03 -0.22612086852E+03  0.26610737710E+03  0.00000000000E+00 0.  1.
<mgrwt>
<rscale>  4 0.23781792E+03</rscale>
<asrwt>0</asrwt>
<pdfrwt beam="1">  1       21 0.23546531E-01 0.23781792E+03</pdfrwt>
<pdfrwt beam="2">  1       21 0.73734698E-01 0.23781792E+03</pdfrwt>
<totfact> 0.27369651E+04</totfact>
</mgrwt>
</event>
<event>
 5    0  0.2159162E+000  0.2512278E+03  0.7546771E-02  0.1112531E+00
         21   -1    0    0  502  501  0.00000000000E+00  0.00000000000E+00  0.10775939971E+04  0.10775939971E+04  0.00000000000E+00 0. -1.
         21   -1    0    0  503  502 -0.00000000000E+00 -0.00000000000E+00 -0.21336239884E+03  0.21336239884E+03  0.00000000000E+00 0.  1.
         25    1    1    2    0    0  0.19387865847E+03 -0.10464891859E+03  0.98675131882E+03  0.10187460408E+04  0.12500000000E+03 0.  0.
         21    1    1    2  503  504 -0.18835349516E+03  0.59875911222E+02 -0.94171222197E+02  0.21893008695E+03  0.00000000000E+00 0.  1.
         21    1    1    2  504  501 -0.55251633145E+01  0.44773007372E+02 -0.28348498392E+02  0.53280268204E+02  0.00000000000E+00 0. -1.
<mgrwt>
<rscale>  4 0.25122778E+03</rscale>
<asrwt>0</asrwt>
<pdfrwt beam="1">  1       21 0.16578369E+00 0.25122778E+03</pdfrwt>
<pdfrwt beam="2">  1       21 0.32824985E-01 0.25122778E+03</pdfrwt>
<totfact> 0.19398939E+03</totfact>
</mgrwt>
</event>
<event>
 5    0  0.2159162E+000  0.3073810E+03  0.7546771E-02  0.1081608E+00
         21   -1    0    0  502  501  0.00000000000E+00  0.00000000000E+00  0.52766493137E+03  0.52766493137E+03  0.00000000000E+00 0.  1.
         21   -1    0    0  503  502 -0.00000000000E+00 -0.00000000000E+00 -0.33353382406E+03  0.33353382406E+03  0.00000000000E+00 0. -1.
         25    1    1    2    0    0  0.29831001218E+03 -0.17656034979E+02  0.36362117497E+03  0.48697634216E+03  0.12500000000E+03 0.  0.
         21    1    1    2  503  504 -0.85078574448E+02  0.29030049719E+02  0.16078903610E+02  0.91321622620E+02  0.00000000000E+00 0.  1.
         21    1    1    2  504  501 -0.21323143773E+03 -0.11374014740E+02 -0.18556897127E+03  0.28290079065E+03  0.00000000000E+00 0. -1.
<mgrwt>
<rscale>  4 0.30738102E+03</rscale>
<asrwt>0</asrwt>
<pdfrwt beam="1">  1       21 0.81179220E-01 0.30738102E+03</pdfrwt>
<pdfrwt beam="2">  1       21 0.51312896E-01 0.30738102E+03</pdfrwt>
<totfact> 0.44639537E+03</totfact>
</mgrwt>
</event>
<event>
 5    0  0.2159162E+000  0.3971306E+03  0.7546771E-02  0.1044778E+00
         21   -1    0    0  502  501  0.00000000000E+00  0.00000000000E+00  0.12496482241E+04  0.12496482241E+04  0.00000000000E+00 0.  1.
         21   -1    0    0  503  502 -0.00000000000E+00 -0.00000000000E+00 -0.17625267116E+03  0.17625267116E+03  0.00000000000E+00 0. -1.
         25    1    1    2    0    0  0.33658875989E+03  0.16969297779E+03  0.92513587693E+03  0.10067716180E+04  0.12500000000E+03 0.  0.
         21    1    1    2  503  504 -0.49517764970E+02 -0.10594631903E+02  0.61462182060E+02  0.79635765184E+02  0.00000000000E+00 0. -1.
         21    1    1    2  504  501 -0.28707099492E+03 -0.15909834589E+03  0.86797493936E+02  0.33949351208E+03  0.00000000000E+00 0. -1.
<mgrwt>
<rscale>  4 0.39713058E+03</rscale>
<asrwt>0</asrwt>
<pdfrwt beam="1">  1       21 0.19225357E+00 0.39713058E+03</pdfrwt>
<pdfrwt beam="2">  1       21 0.27115796E-01 0.39713058E+03</pdfrwt>
<totfact> 0.16903366E+03</totfact>
</mgrwt>
</event>
<event>
 5    0  0.2266316E+000  0.2656448E+03  0.7546771E-02  0.1103798E+00
         21   -1    0    0  502  501  0.00000000000E+00  0.00000000000E+00  0.68084696376E+03  0.68084696376E+03  0.00000000000E+00 0.  1.
         21   -1    0    0  503  502 -0.00000000000E+00 -0.00000000000E+00 -0.99830542570E+02  0.99830542570E+02  0.00000000000E+00 0.  1.
         25    1    1    2    0    0 -0.18709514735E+03 -0.14120050014E+03  0.39816305999E+03  0.47864496001E+03  0.12500000000E+03 0.  0.
         21    1    1    2  503  504  0.15127643873E+03  0.11962347101E+03  0.12203360523E+03  0.22822475005E+03  0.00000000000E+00 0.  1.
         21    1    1    2  504  501  0.35818708615E+02  0.21577029131E+02  0.60819755975E+02  0.73807796267E+02  0.00000000000E+00 0.  1.
<mgrwt>
<rscale>  4 0.26564483E+03</rscale>
<asrwt>0</asrwt>
<pdfrwt beam="1">  1       21 0.10474568E+00 0.26564483E+03</pdfrwt>
<pdfrwt beam="2">  1       21 0.15358545E-01 0.26564483E+03</pdfrwt>
<totfact> 0.26584630E+04</totfact>
</mgrwt>
</event>
<event>
 5    0  0.2159162E+000  0.2986574E+03  0.7546771E-02  0.1085914E+00
         21   -1    0    0  502  501  0.00000000000E+00  0.00000000000E+00  0.86070249217E+02  0.86070249217E+02  0.00000000000E+00 0. -1.
         21   -1    0    0  503  502 -0.00000000000E+00 -0.00000000000E+00 -0.12362500658E+04  0.12362500658E+04  0.00000000000E+00 0. -1.
         25    1    1    2    0    0 -0.27075026472E+03  0.16296194918E+02 -0.90622448947E+03  0.95416932309E+03  0.12500000000E+03 0.  0.
         21    1    1    2  503  504  0.23680950190E+03 -0.30760748809E+02 -0.20958542641E+03  0.31772789431E+03  0.00000000000E+00 0. -1.
         21    1    1    2  504  501  0.33940762816E+02  0.14464553891E+02 -0.34369900732E+02  0.50423097645E+02  0.00000000000E+00 0. -1.
<mgrwt>
<rscale>  4 0.29865745E+03</rscale>
<asrwt>0</asrwt>
<pdfrwt beam="1">  1       21 0.13241577E-01 0.29865745E+03</pdfrwt>
<pdfrwt beam="2">  1       21 0.19019231E+00 0.29865745E+03</pdfrwt>
<totfact> 0.70987995E+03</totfact>
</mgrwt>
</event>
<event>
 5    0  0.2159162E+000  0.2415764E+03  0.7546771E-02  0.1118747E+00
         21   -1    0    0  502  501  0.00000000000E+00  0.00000000000E+00  0.21290099780E+04  0.21290099780E+04  0.00000000000E+00 0.  1.
         21   -1    0    0  503  502 -0.00000000000E+00 -0.00000000000E+00 -0.13318470397E+03  0.13318470397E+03  0.00000000000E+00 0. -1.
         25    1    1    2    0    0  0.20538500341E+03 -0.23476408182E+02  0.20339191809E+04  0.20482154125E+04  0.12500000000E+03 0.  0.
         21    1    1    2  503  504 -0.30568580181E+02  0.16226315130E+02  0.12997766893E+01  0.34632655347E+02  0.00000000000E+00 0. -1.
         21    1    1    2  504  501 -0.17481642323E+03  0.72500930520E+01 -0.39393683632E+02  0.17934661411E+03  0.00000000000E+00 0. -1.
<mgrwt>
<rscale>  4 0.24157637E+03</rscale>
<asrwt>0</asrwt>
<pdfrwt beam="1">  1       21 0.32753997E+00 0.24157637E+03</pdfrwt>
<pdfrwt beam="2">  1       21 0.20489956E-01 0.24157637E+03</pdfrwt>
<totfact> 0.48888849E+02</totfact>
</mgrwt>
</event>
