<event>
 5    0  0.2349231E+000  0.4777068E+03  0.7546771E-02  0.1019767E+00
         21   -1    0    0  503  501  0.00000000000E+00  0.00000000000E+00  0.42517065421E+03  0.42517065421E+03  0.00000000000E+00 0.  1.
         21   -1    0    0  504  502 -0.00000000000E+00 -0.00000000000E+00 -0.98638146488E+03  0.98638146488E+03  0.00000000000E+00 0.  1.
         25    1    1    2    0    0 -0.12940640326E+03 -0.16219578442E+03 -0.38351670670E+03  0.45361167754E+03  0.12500000000E+03 0.  0.
         21    1    1    2  503  502 -0.36448708484E+01 -0.22403496694E+02  0.36696080122E+03  0.36766211578E+03  0.00000000000E+00 0.  1.
         21    1    1    2  504  501  0.13305127411E+03  0.18459928112E+03 -0.54465490519E+03  0.59027832577E+03  0.00000000000E+00 0.  1.
<mgrwt>
<rscale>  4 0.47770681E+03</rscale>
<asrwt>0</asrwt>
<pdfrwt beam="1">  1       21 0.65410871E-01 0.47770681E+03</pdfrwt>
<pdfrwt beam="2">  1       21 0.15175099E+00 0.47770681E+03</pdfrwt>
<totfact> 0.51288460E+02</totfact>
</mgrwt>
</event>
<event>
 5    0  0.2349231E+000  0.1005107E+04  0.7546771E-02  0.9302961E-01
         21   -1    0    0  502  501  0.00000000000E+00  0.00000000000E+00  0.38018328896E+03  0.38018328896E+03  0.00000000000E+00 0.  1.
         21   -1    0    0  504  502 -0.00000000000E+00 -0.00000000000E+00 -0.16030318676E+04  0.16030318676E+04  0.00000000000E+00 0.  1.
         25    1    1    2    0    0 -0.57713087154E+03  0.61329157474E+01 -0.66212667217E+03  0.88721721441E+03  0.12500000000E+03 0.  0.
         21    1    1    2  503  501  0.18779880967E+03 -0.67720571301E+02  0.17230525285E+03  0.26371114662E+03  0.00000000000E+00 0.  1.
         21    1    1    2  504  503  0.38933206188E+03  0.61587655554E+02 -0.73302715936E+03  0.83228679557E+03  0.00000000000E+00 0.  1.
<mgrwt>
<rscale>  4 0.10051069E+04</rscale>
<asrwt>0</asrwt>
<pdfrwt beam="1">  1       21 0.58489735E-01 0.10051069E+04</pdfrwt>
<pdfrwt beam="2">  1       21 0.24662030E+00 0.10051069E+04</pdfrwt>
<totfact> 0.12315246E+02</totfact>
</mgrwt>
</event>
<event>
 5    0  0.2349231E+000  0.4249151E+03  0.7546771E-02  0.1035478E+00
         21   -1    0    0  504  501  0.00000000000E+00  0.00000000000E+00  0.88279554267E+03  0.88279554267E+03  0.00000000000E+00 0.  1.
         21   -1    0    0  501  502 -0.00000000000E+00 -0.00000000000E+00 -0.14065625342E+03  0.14065625342E+03  0.00000000000E+00 0.  1.
         25    1    1    2    0    0 -0.21539367134E+03 -0.40093583093E+02  0.85457320471E+02  0.26632664659E+03  0.12500000000E+03 0.  0.
         21    1    1    2  503  502  0.16546544215E+03  0.40132677448E+02  0.98474572148E+02  0.19668931263E+03  0.00000000000E+00 0.  1.
         21    1    1    2  504  503  0.49928229196E+02 -0.39094355169E-01  0.55820739663E+03  0.56043583688E+03  0.00000000000E+00 0.  1.
<mgrwt>
<rscale>  4 0.42491509E+03</rscale>
<asrwt>0</asrwt>
<pdfrwt beam="1">  1       21 0.13581470E+00 0.42491509E+03</pdfrwt>
<pdfrwt beam="2">  1       21 0.21639424E-01 0.42491509E+03</pdfrwt>
<totfact> 0.68272921E+03</totfact>
</mgrwt>
</event>
