<event>
 5    0  0.2165039E+000  0.1929477E+03  0.7546771E-02  0.1155829E+00
         21   -1    0    0  502  501  0.00000000000E+00  0.00000000000E+00  0.37585861358E+03  0.37585861358E+03  0.00000000000E+00 0.  1.
         21   -1    0    0  503  502 -0.00000000000E+00 -0.00000000000E+00 -0.22721608734E+03  0.22721608734E+03  0.00000000000E+00 0.  1.
         25    1    1    2    0    0  0.21728042662E+03 -0.69398118856E+02  0.20292021522E+03  0.32989164348E+03  0.12500000000E+03 0.  0.
         21    1    1    2  503  504 -0.13507720240E+03  0.20401232343E+02 -0.97844874367E+02  0.16803475929E+03  0.00000000000E+00 0.  1.
         21    1    1    2  504  501 -0.82203224222E+02  0.48996886513E+02  0.43567185397E+02  0.10514829815E+03  0.00000000000E+00 0.  1.
<mgrwt>
<rscale>  4 0.19294774E+03</rscale>
<asrwt>0</asrwt>
<pdfrwt beam="1">  1       21 0.57824402E-01 0.19294774E+03</pdfrwt>
<pdfrwt beam="2">  1       21 0.34956321E-01 0.19294774E+03</pdfrwt>
<totfact> 0.22121410E+04</totfact>
</mgrwt>
</event>
<event>
 5    0  0.1856407E+000  0.3497224E+03  0.7546771E-02  0.1062729E+00
         21   -1    0    0  502  501  0.00000000000E+00  0.00000000000E+00  0.46157362491E+03  0.46157362491E+03  0.00000000000E+00 0. -1.
         21   -1    0    0  503  502 -0.00000000000E+00 -0.00000000000E+00 -0.86671765840E+03  0.86671765840E+03  0.00000000000E+00 0. -1.
         25    1    1    2    0    0  0.50857595036E+02  0.32263640986E+03  0.35496068956E+03  0.49829994890E+03  0.12500000000E+03 0.  0.
         21    1    1    2  503  504  0.11475072080E+02 -0.97855133224E+02 -0.26392270689E+03  0.28171350623E+03  0.00000000000E+00 0.  1.
         21    1    1    2  504  501 -0.62332667117E+02 -0.22478127663E+03 -0.49618201615E+03  0.54827782818E+03  0.00000000000E+00 0. -1.
<mgrwt>
<rscale>  4 0.34972239E+03</rscale>
<asrwt>0</asrwt>
<pdfrwt beam="1">  1       21 0.71011328E-01 0.34972239E+03</pdfrwt>
<pdfrwt beam="2">  1       21 0.13334118E+00 0.34972239E+03</pdfrwt>
<totfact> 0.64228817E+02</totfact>
</mgrwt>
</event>
<event>
 5    0  0.1856407E+000  0.3797919E+03  0.7546771E-02  0.1051011E+00
         21   -1    0    0  502  501  0.00000000000E+00  0.00000000000E+00  0.38079574810E+03  0.38079574810E+03  0.00000000000E+00 0. -1.
         21   -1    0    0  503  502 -0.00000000000E+00 -0.00000000000E+00 -0.12229850764E+04  0.12229850764E+04  0.00000000000E+00 0.  1.
         25    1    1    2    0    0 -0.29450113701E+03 -0.20466061075E+03  0.24882332270E+03  0.45404287376E+03  0.12500000000E+03 0.  0.
         21    1    1    2  503  504  0.25034026500E+03  0.18998521367E+03 -0.90581987140E+03  0.95878791666E+03  0.00000000000E+00 0.  1.
         21    1    1    2  504  501  0.44160872014E+02  0.14675397072E+02 -0.18519277961E+03  0.19095003408E+03  0.00000000000E+00 0.  1.
<mgrwt>
<rscale>  4 0.37979190E+03</rscale>
<asrwt>0</asrwt>
<pdfrwt beam="1">  1       21 0.58583962E-01 0.37979190E+03</pdfrwt>
<pdfrwt beam="2">  1       21 0.18815155E+00 0.37979190E+03</pdfrwt>
<totfact> 0.37307567E+02</totfact>
</mgrwt>
</event>
<event>
 5    0  0.1856407E+000  0.2885684E+03  0.7546771E-02  0.1091099E+00
         21   -1    0    0  502  501  0.00000000000E+00  0.00000000000E+00  0.11237191789E+04  0.11237191789E+04  0.00000000000E+00 0. -1.
         21   -1    0    0  503  502 -0.00000000000E+00 -0.00000000000E+00 -0.75226544805E+03  0.75226544805E+03  0.00000000000E+00 0.  1.
         25    1    1    2    0    0 -0.19617280015E+03 -0.12446396105E+03  0.10485163876E+04  0.10811968646E+04  0.12500000000E+03 0.  0.
         21    1    1    2  503  504  0.23586983804E+03  0.11113779086E+03 -0.70004108885E+03  0.74702323601E+03  0.00000000000E+00 0.  1.
         21    1    1    2  504  501 -0.39697037890E+02  0.13326170188E+02  0.22978432145E+02  0.47764526303E+02  0.00000000000E+00 0. -1.
<mgrwt>
<rscale>  4 0.28856843E+03</rscale>
<asrwt>0</asrwt>
<pdfrwt beam="1">  1       21 0.17287987E+00 0.28856843E+03</pdfrwt>
<pdfrwt beam="2">  1       21 0.11573315E+00 0.28856843E+03</pdfrwt>
<totfact> 0.10544448E+02</totfact>
</mgrwt>
</event>
<event>
 5    0  0.1856407E+000  0.3191260E+03  0.7546771E-02  0.1076052E+00
         21   -1    0    0  502  501  0.00000000000E+00  0.00000000000E+00  0.68849369611E+03  0.68849369611E+03  0.00000000000E+00 0.  1.
         21   -1    0    0  503  502 -0.00000000000E+00 -0.00000000000E+00 -0.16866663778E+03  0.16866663778E+03  0.00000000000E+00 0.  1.
         25    1    1    2    0    0 -0.77557751602E+02 -0.28319818256E+03  0.88737022717E+02  0.33123356508E+03  0.12500000000E+03 0.  0.
         21    1    1    2  503  504 -0.12480236050E+02  0.28710232320E+02  0.43328494696E+02  0.53454580574E+02  0.00000000000E+00 0.  1.
         21    1    1    2  504  501  0.90037987652E+02  0.25448795024E+03  0.38776154092E+03  0.47247218823E+03  0.00000000000E+00 0.  1.
<mgrwt>
<rscale>  4 0.31912602E+03</rscale>
<asrwt>0</asrwt>
<pdfrwt beam="1">  1       21 0.10592211E+00 0.31912602E+03</pdfrwt>
<pdfrwt beam="2">  1       21 0.25948714E-01 0.31912602E+03</pdfrwt>
<totfact> 0.93949992E+03</totfact>
</mgrwt>
</event>
<event>
 5    0  0.1856407E+000  0.2637072E+03  0.7546771E-02  0.1104936E+00
         21   -1    0    0  502  501  0.00000000000E+00  0.00000000000E+00  0.48343623824E+03  0.48343623824E+03  0.00000000000E+00 0.  1.
         21   -1    0    0  503  502 -0.00000000000E+00 -0.00000000000E+00 -0.14273465925E+04  0.14273465925E+04  0.00000000000E+00 0.  1.
         25    1    1    2    0    0  0.10639046096E+03 -0.20639180714E+03  0.43679929877E+03  0.51023047306E+03  0.12500000000E+03 0.  0.
         21    1    1    2  503  504 -0.13847804641E+01  0.27136239840E+02 -0.16171639651E+03  0.16398318825E+03  0.00000000000E+00 0. -1.
         21    1    1    2  504  501 -0.10500568050E+03  0.17925556730E+03 -0.12189932565E+04  0.12365691694E+04  0.00000000000E+00 0.  1.
<mgrwt>
<rscale>  4 0.26370724E+03</rscale>
<asrwt>0</asrwt>
<pdfrwt beam="1">  1       21 0.74374807E-01 0.26370724E+03</pdfrwt>
<pdfrwt beam="2">  1       21 0.21959178E+00 0.26370724E+03</pdfrwt>
<totfact> 0.15040634E+02</totfact>
</mgrwt>
</event>
<event>
 5    0  0.1856407E+000  0.3193721E+03  0.7546771E-02  0.1075939E+00
         21   -1    0    0  502  501  0.00000000000E+00  0.00000000000E+00  0.91355856935E+02  0.91355856935E+02  0.00000000000E+00 0. -1.
         21   -1    0    0  503  502 -0.00000000000E+00 -0.00000000000E+00 -0.24322476953E+04  0.24322476953E+04  0.00000000000E+00 0. -1.
         25    1    1    2    0    0 -0.28303261244E+03  0.79158501775E+02 -0.23609117300E+03  0.39716189404E+03  0.12500000000E+03 0.  0.
         21    1    1    2  503  504  0.22185176741E+03 -0.30515463215E+02 -0.16121094346E+04  0.16275890849E+04  0.00000000000E+00 0. -1.
         21    1    1    2  504  501  0.61180845035E+02 -0.48643038561E+02 -0.49269123076E+03  0.49885257328E+03  0.00000000000E+00 0. -1.
<mgrwt>
<rscale>  4 0.31937208E+03</rscale>
<asrwt>0</asrwt>
<pdfrwt beam="1">  1       21 0.14054746E-01 0.31937208E+03</pdfrwt>
<pdfrwt beam="2">  1       21 0.37419200E+00 0.31937208E+03</pdfrwt>
<totfact> 0.47538042E+02</totfact>
</mgrwt>
</event>
<event>
 5    0  0.1856407E+000  0.2246366E+03  0.7546771E-02  0.1130473E+00
         21   -1    0    0  502  501  0.00000000000E+00  0.00000000000E+00  0.14364378101E+04  0.14364378101E+04  0.00000000000E+00 0.  1.
         21   -1    0    0  503  502 -0.00000000000E+00 -0.00000000000E+00 -0.75887032734E+02  0.75887032734E+02  0.00000000000E+00 0.  1.
         25    1    1    2    0    0  0.11990594321E+03 -0.16560085262E+03  0.12115151359E+04  0.12349878550E+04  0.12500000000E+03 0.  0.
         21    1    1    2  503  504 -0.23391868042E+02  0.93895384036E+02  0.11905503989E+03  0.15341976781E+03  0.00000000000E+00 0.  1.
         21    1    1    2  504  501 -0.96514075168E+02  0.71705468581E+02  0.29980601559E+02  0.12391721995E+03  0.00000000000E+00 0.  1.
<mgrwt>
<rscale>  4 0.22463658E+03</rscale>
<asrwt>0</asrwt>
<pdfrwt beam="1">  1       21 0.22099041E+00 0.22463658E+03</pdfrwt>
<pdfrwt beam="2">  1       21 0.11674929E-01 0.22463658E+03</pdfrwt>
<totfact> 0.59407438E+03</totfact>
</mgrwt>
</event>
<event>
 5    0  0.1856407E+000  0.2868455E+03  0.7546771E-02  0.1092008E+00
         21   -1    0    0  502  501  0.00000000000E+00  0.00000000000E+00  0.36540371504E+03  0.36540371504E+03  0.00000000000E+00 0.  1.
         21   -1    0    0  503  502 -0.00000000000E+00 -0.00000000000E+00 -0.47091618598E+03  0.47091618598E+03  0.00000000000E+00 0.  1.
         25    1    1    2    0    0 -0.22602368812E+03 -0.13026824430E+03  0.25164977019E+03  0.38341769638E+03  0.12500000000E+03 0.  0.
         21    1    1    2  503  504  0.19876531518E+03  0.14055966014E+03 -0.34272015145E+03  0.42038288594E+03  0.00000000000E+00 0.  1.
         21    1    1    2  504  501  0.27258372933E+02 -0.10291415842E+02 -0.14442089680E+02  0.32519318709E+02  0.00000000000E+00 0. -1.
<mgrwt>
<rscale>  4 0.28684550E+03</rscale>
<asrwt>0</asrwt>
<pdfrwt beam="1">  1       21 0.56215956E-01 0.28684550E+03</pdfrwt>
<pdfrwt beam="2">  1       21 0.72448644E-01 0.28684550E+03</pdfrwt>
<totfact> 0.48080047E+03</totfact>
</mgrwt>
</event>
