<event>
 4    0  0.1775285E-001  0.4693445E+03  0.7546771E-02  0.1022105E+00
         21   -1    0    0  503  501  0.00000000000E+00  0.00000000000E+00  0.11322775106E+03  0.11322775106E+03  0.00000000000E+00 0. -1.
         21   -1    0    0  501  502 -0.00000000000E+00 -0.00000000000E+00 -0.48637430078E+03  0.48637430078E+03  0.00000000000E+00 0. -1.
         25    1    1    2    0    0  0.10754601648E+03 -0.18729095546E+03 -0.16166057336E+03  0.29732673718E+03  0.12500000000E+03 0.  0.
         21    1    1    2  503  502 -0.10754601648E+03  0.18729095546E+03 -0.21148597635E+03  0.30227531466E+03  0.00000000000E+00 0. -1.
<mgrwt>
<rscale>  3 0.46934451E+03</rscale>
<asrwt>0</asrwt>
<pdfrwt beam="1">  1       21 0.17419654E-01 0.46934451E+03</pdfrwt>
<pdfrwt beam="2">  1       21 0.74826816E-01 0.46934451E+03</pdfrwt>
<totfact> 0.43532224E+04</totfact>
</mgrwt>
</event>
<event>
 4    0  0.1775285E-001  0.5130029E+03  0.7546771E-02  0.1010440E+00
         21   -1    0    0  503  501  0.00000000000E+00  0.00000000000E+00  0.27066010364E+04  0.27066010364E+04  0.00000000000E+00 0. -1.
         21   -1    0    0  501  502 -0.00000000000E+00 -0.00000000000E+00 -0.24308344872E+02  0.24308344872E+02  0.00000000000E+00 0. -1.
         25    1    1    2    0    0  0.12858672569E+03  0.20330770743E+03  0.13220612376E+04  0.13495701115E+04  0.12500000000E+03 0.  0.
         21    1    1    2  503  502 -0.12858672569E+03 -0.20330770743E+03  0.13602314540E+04  0.13813392698E+04  0.00000000000E+00 0.  1.
<mgrwt>
<rscale>  3 0.51300289E+03</rscale>
<asrwt>0</asrwt>
<pdfrwt beam="1">  1       21 0.41639992E+00 0.51300289E+03</pdfrwt>
<pdfrwt beam="2">  1       21 0.37397475E-02 0.51300289E+03</pdfrwt>
<totfact> 0.23182405E+03</totfact>
</mgrwt>
</event>
<event>
 4    0  0.1775285E-001  0.4739604E+03  0.7546771E-02  0.1020808E+00
         21   -1    0    0  503  501  0.00000000000E+00  0.00000000000E+00  0.27722401667E+03  0.27722401667E+03  0.00000000000E+00 0. -1.
         21   -1    0    0  501  502 -0.00000000000E+00 -0.00000000000E+00 -0.20257844176E+03  0.20257844176E+03  0.00000000000E+00 0. -1.
         25    1    1    2    0    0  0.86992565195E+02 -0.19758224882E+03 -0.54934778063E+01  0.24952280406E+03  0.12500000000E+03 0.  0.
         21    1    1    2  503  502 -0.86992565195E+02  0.19758224882E+03  0.80139052715E+02  0.23027965437E+03  0.00000000000E+00 0. -1.
<mgrwt>
<rscale>  3 0.47396038E+03</rscale>
<asrwt>0</asrwt>
<pdfrwt beam="1">  1       21 0.42649849E-01 0.47396038E+03</pdfrwt>
<pdfrwt beam="2">  1       21 0.31165914E-01 0.47396038E+03</pdfrwt>
<totfact> 0.47899950E+04</totfact>
</mgrwt>
</event>
<event>
 4    0  0.1775285E-001  0.4771754E+03  0.7546771E-02  0.1019914E+00
         21   -1    0    0  502  501  0.00000000000E+00  0.00000000000E+00  0.21397973198E+03  0.21397973198E+03  0.00000000000E+00 0. -1.
         21   -1    0    0  503  502 -0.00000000000E+00 -0.00000000000E+00 -0.26602562659E+03  0.26602562659E+03  0.00000000000E+00 0. -1.
         25    1    1    2    0    0 -0.18825191196E+03 -0.11589306475E+03 -0.50518290223E+02  0.25893451385E+03  0.12500000000E+03 0.  0.
         21    1    1    2  503  501  0.18825191196E+03  0.11589306475E+03 -0.15276043904E+01  0.22107084473E+03  0.00000000000E+00 0. -1.
<mgrwt>
<rscale>  3 0.47717541E+03</rscale>
<asrwt>0</asrwt>
<pdfrwt beam="1">  1       21 0.32919959E-01 0.47717541E+03</pdfrwt>
<pdfrwt beam="2">  1       21 0.40927020E-01 0.47717541E+03</pdfrwt>
<totfact> 0.46724838E+04</totfact>
</mgrwt>
</event>
<event>
 4    0  0.1775285E-001  0.4805529E+03  0.7546771E-02  0.1018983E+00
         21   -1    0    0  503  501  0.00000000000E+00  0.00000000000E+00  0.45465540439E+02  0.45465540439E+02  0.00000000000E+00 0.  1.
         21   -1    0    0  501  502 -0.00000000000E+00 -0.00000000000E+00 -0.12698138056E+04  0.12698138056E+04  0.00000000000E+00 0.  1.
         25    1    1    2    0    0 -0.21593129164E+03 -0.58440207019E+02 -0.68632322208E+03  0.73260231072E+03  0.12500000000E+03 0.  0.
         21    1    1    2  503  502  0.21593129164E+03  0.58440207019E+02 -0.53802504305E+03  0.58267703529E+03  0.00000000000E+00 0.  1.
<mgrwt>
<rscale>  3 0.48055289E+03</rscale>
<asrwt>0</asrwt>
<pdfrwt beam="1">  1       21 0.69946996E-02 0.48055289E+03</pdfrwt>
<pdfrwt beam="2">  1       21 0.19535594E+00 0.48055289E+03</pdfrwt>
<totfact> 0.19047075E+04</totfact>
</mgrwt>
</event>
<event>
 4    0  0.1775285E-001  0.5018391E+03  0.7546771E-02  0.1013300E+00
         21   -1    0    0  503  501  0.00000000000E+00  0.00000000000E+00  0.18127499231E+04  0.18127499231E+04  0.00000000000E+00 0.  1.
         21   -1    0    0  501  502 -0.00000000000E+00 -0.00000000000E+00 -0.34732098944E+02  0.34732098944E+02  0.00000000000E+00 0.  1.
         25    1    1    2    0    0  0.21258257977E+03 -0.49354026858E+02  0.12685339966E+04  0.12932249123E+04  0.12500000000E+03 0.  0.
         21    1    1    2  503  502 -0.21258257977E+03  0.49354026858E+02  0.50948382755E+03  0.55425710976E+03  0.00000000000E+00 0.  1.
<mgrwt>
<rscale>  3 0.50183906E+03</rscale>
<asrwt>0</asrwt>
<pdfrwt beam="1">  1       21 0.27888453E+00 0.50183906E+03</pdfrwt>
<pdfrwt beam="2">  1       21 0.53434012E-02 0.50183906E+03</pdfrwt>
<totfact> 0.89976881E+03</totfact>
</mgrwt>
</event>
<event>
 4    0  0.1775285E-001  0.5101213E+03  0.7546771E-02  0.1011170E+00
         21   -1    0    0  503  501  0.00000000000E+00  0.00000000000E+00  0.18751441009E+04  0.18751441009E+04  0.00000000000E+00 0. -1.
         21   -1    0    0  501  502 -0.00000000000E+00 -0.00000000000E+00 -0.34693826889E+02  0.34693826889E+02  0.00000000000E+00 0. -1.
         25    1    1    2    0    0  0.11479665622E+03  0.18239383811E+03  0.13687161959E+04  0.13912062425E+04  0.12500000000E+03 0.  0.
         21    1    1    2  503  502 -0.11479665622E+03 -0.18239383811E+03  0.47173407814E+03  0.51863168524E+03  0.00000000000E+00 0. -1.
<mgrwt>
<rscale>  3 0.51012126E+03</rscale>
<asrwt>0</asrwt>
<pdfrwt beam="1">  1       21 0.28848363E+00 0.51012126E+03</pdfrwt>
<pdfrwt beam="2">  1       21 0.53375133E-02 0.51012126E+03</pdfrwt>
<totfact> 0.78614466E+03</totfact>
</mgrwt>
</event>
<event>
 4    0  0.1775285E-001  0.4854846E+03  0.7546771E-02  0.1017639E+00
         21   -1    0    0  503  501  0.00000000000E+00  0.00000000000E+00  0.42023886384E+02  0.42023886384E+02  0.00000000000E+00 0.  1.
         21   -1    0    0  501  502 -0.00000000000E+00 -0.00000000000E+00 -0.14021508368E+04  0.14021508368E+04  0.00000000000E+00 0.  1.
         25    1    1    2    0    0 -0.62177647308E+01  0.22655844047E+03 -0.73021088135E+03  0.77472596367E+03  0.12500000000E+03 0.  0.
         21    1    1    2  503  502  0.62177647308E+01 -0.22655844047E+03 -0.62991606905E+03  0.66944875950E+03  0.00000000000E+00 0.  1.
<mgrwt>
<rscale>  3 0.48548461E+03</rscale>
<asrwt>0</asrwt>
<pdfrwt beam="1">  1       21 0.64652121E-02 0.48548461E+03</pdfrwt>
<pdfrwt beam="2">  1       21 0.21571555E+00 0.48548461E+03</pdfrwt>
<totfact> 0.16019913E+04</totfact>
</mgrwt>
</event>
<event>
 4    0  0.1775285E-001  0.5994504E+03  0.7546771E-02  0.9906547E-01
         21   -1    0    0  502  501  0.00000000000E+00  0.00000000000E+00  0.19545228563E+04  0.19545228563E+04  0.00000000000E+00 0. -1.
         21   -1    0    0  503  502 -0.00000000000E+00 -0.00000000000E+00 -0.45962719407E+02  0.45962719407E+02  0.00000000000E+00 0. -1.
         25    1    1    2    0    0  0.28011781098E+03  0.33787465984E+02  0.82610294990E+03  0.88186091007E+03  0.12500000000E+03 0.  0.
         21    1    1    2  503  501 -0.28011781098E+03 -0.33787465984E+02  0.10824571870E+04  0.11186246656E+04  0.00000000000E+00 0. -1.
<mgrwt>
<rscale>  3 0.59945037E+03</rscale>
<asrwt>0</asrwt>
<pdfrwt beam="1">  1       21 0.30069576E+00 0.59945037E+03</pdfrwt>
<pdfrwt beam="2">  1       21 0.70711891E-02 0.59945037E+03</pdfrwt>
<totfact> 0.39189912E+03</totfact>
</mgrwt>
</event>
<event>
 4    0  0.1775285E-001  0.4506394E+03  0.7546771E-02  0.1027532E+00
         21   -1    0    0  503  501  0.00000000000E+00  0.00000000000E+00  0.56490058486E+02  0.56490058486E+02  0.00000000000E+00 0. -1.
         21   -1    0    0  501  502 -0.00000000000E+00 -0.00000000000E+00 -0.89872389284E+03  0.89872389284E+03  0.00000000000E+00 0. -1.
         25    1    1    2    0    0  0.17389337728E+03  0.11351967585E+03 -0.47781585293E+03  0.53577851094E+03  0.12500000000E+03 0.  0.
         21    1    1    2  503  502 -0.17389337728E+03 -0.11351967585E+03 -0.36441798142E+03  0.41943544039E+03  0.00000000000E+00 0. -1.
<mgrwt>
<rscale>  3 0.45063939E+03</rscale>
<asrwt>0</asrwt>
<pdfrwt beam="1">  1       21 0.86907784E-02 0.45063939E+03</pdfrwt>
<pdfrwt beam="2">  1       21 0.13826521E+00 0.45063939E+03</pdfrwt>
<totfact> 0.34725648E+04</totfact>
</mgrwt>
</event>
<event>
 4    0  0.1775285E-001  0.4490998E+03  0.7546771E-02  0.1027991E+00
         21   -1    0    0  502  501  0.00000000000E+00  0.00000000000E+00  0.22613251631E+03  0.22613251631E+03  0.00000000000E+00 0. -1.
         21   -1    0    0  503  502 -0.00000000000E+00 -0.00000000000E+00 -0.22297835055E+03  0.22297835055E+03  0.00000000000E+00 0. -1.
         25    1    1    2    0    0  0.10679453528E+03  0.17737836732E+03  0.83788894911E+01  0.24199868543E+03  0.12500000000E+03 0.  0.
         21    1    1    2  503  501 -0.10679453528E+03 -0.17737836732E+03 -0.52247237257E+01  0.20711218143E+03  0.00000000000E+00 0. -1.
<mgrwt>
<rscale>  3 0.44909979E+03</rscale>
<asrwt>0</asrwt>
<pdfrwt beam="1">  1       21 0.34789618E-01 0.44909979E+03</pdfrwt>
<pdfrwt beam="2">  1       21 0.34304362E-01 0.44909979E+03</pdfrwt>
<totfact> 0.60300671E+04</totfact>
</mgrwt>
</event>
<event>
 4    0  0.1775285E-001  0.7137420E+03  0.7546771E-02  0.9694016E-01
         21   -1    0    0  503  501  0.00000000000E+00  0.00000000000E+00  0.13114303394E+04  0.13114303394E+04  0.00000000000E+00 0.  1.
         21   -1    0    0  501  502 -0.00000000000E+00 -0.00000000000E+00 -0.97112990830E+02  0.97112990830E+02  0.00000000000E+00 0.  1.
         25    1    1    2    0    0 -0.30962790620E+03  0.14633475781E+03  0.52948653401E+03  0.64285635358E+03  0.12500000000E+03 0.  0.
         21    1    1    2  503  502  0.30962790620E+03 -0.14633475781E+03  0.68483081452E+03  0.76568697661E+03  0.00000000000E+00 0. -1.
<mgrwt>
<rscale>  3 0.71374203E+03</rscale>
<asrwt>0</asrwt>
<pdfrwt beam="1">  1       21 0.20175850E+00 0.71374203E+03</pdfrwt>
<pdfrwt beam="2">  1       21 0.14940461E-01 0.71374203E+03</pdfrwt>
<totfact> 0.40913228E+03</totfact>
</mgrwt>
</event>
<event>
 4    0  0.1775285E-001  0.4992432E+03  0.7546771E-02  0.1013977E+00
         21   -1    0    0  502  501  0.00000000000E+00  0.00000000000E+00  0.10092177495E+04  0.10092177495E+04  0.00000000000E+00 0.  1.
         21   -1    0    0  503  502 -0.00000000000E+00 -0.00000000000E+00 -0.61741831398E+02  0.61741831398E+02  0.00000000000E+00 0.  1.
         25    1    1    2    0    0  0.13326806677E+03  0.18500448264E+03  0.61605858914E+03  0.66868544284E+03  0.12500000000E+03 0.  0.
         21    1    1    2  503  501 -0.13326806677E+03 -0.18500448264E+03  0.33141732901E+03  0.40227413810E+03  0.00000000000E+00 0.  1.
<mgrwt>
<rscale>  3 0.49924324E+03</rscale>
<asrwt>0</asrwt>
<pdfrwt beam="1">  1       21 0.15526426E+00 0.49924324E+03</pdfrwt>
<pdfrwt beam="2">  1       21 0.94987440E-02 0.49924324E+03</pdfrwt>
<totfact> 0.21377118E+04</totfact>
</mgrwt>
</event>
<event>
 4    0  0.1775285E-001  0.4587263E+03  0.7546771E-02  0.1025151E+00
         21   -1    0    0  502  501  0.00000000000E+00  0.00000000000E+00  0.16858067319E+03  0.16858067319E+03  0.00000000000E+00 0.  1.
         21   -1    0    0  503  502 -0.00000000000E+00 -0.00000000000E+00 -0.31206105549E+03  0.31206105549E+03  0.00000000000E+00 0.  1.
         25    1    1    2    0    0 -0.36138498306E+02  0.20909817267E+03 -0.84975945573E+02  0.26052629081E+03  0.12500000000E+03 0.  0.
         21    1    1    2  503  501  0.36138498306E+02 -0.20909817267E+03 -0.58504436733E+02  0.22011543788E+03  0.00000000000E+00 0.  1.
<mgrwt>
<rscale>  3 0.45872634E+03</rscale>
<asrwt>0</asrwt>
<pdfrwt beam="1">  1       21 0.25935488E-01 0.45872634E+03</pdfrwt>
<pdfrwt beam="2">  1       21 0.48009393E-01 0.45872634E+03</pdfrwt>
<totfact> 0.53890084E+04</totfact>
</mgrwt>
</event>
<event>
 4    0  0.1775285E-001  0.4951776E+03  0.7546771E-02  0.1015045E+00
         21   -1    0    0  503  501  0.00000000000E+00  0.00000000000E+00  0.69706899103E+03  0.69706899103E+03  0.00000000000E+00 0.  1.
         21   -1    0    0  501  502 -0.00000000000E+00 -0.00000000000E+00 -0.87939942966E+02  0.87939942966E+02  0.00000000000E+00 0.  1.
         25    1    1    2    0    0 -0.20373689002E+03 -0.10138477271E+03  0.39396033151E+03  0.47182341537E+03  0.12500000000E+03 0.  0.
         21    1    1    2  503  502  0.20373689002E+03  0.10138477271E+03  0.21516871656E+03  0.31318551863E+03  0.00000000000E+00 0.  1.
<mgrwt>
<rscale>  3 0.49517757E+03</rscale>
<asrwt>0</asrwt>
<pdfrwt beam="1">  1       21 0.10724138E+00 0.49517757E+03</pdfrwt>
<pdfrwt beam="2">  1       21 0.13529222E-01 0.49517757E+03</pdfrwt>
<totfact> 0.29478260E+04</totfact>
</mgrwt>
</event>
<event>
 4    0  0.1775285E-001  0.4868103E+03  0.7546771E-02  0.1017280E+00
         21   -1    0    0  503  501  0.00000000000E+00  0.00000000000E+00  0.37212442254E+03  0.37212442254E+03  0.00000000000E+00 0. -1.
         21   -1    0    0  501  502 -0.00000000000E+00 -0.00000000000E+00 -0.15921038308E+03  0.15921038308E+03  0.00000000000E+00 0. -1.
         25    1    1    2    0    0  0.40388325958E+02  0.20342073121E+03  0.21516317096E+03  0.32393116691E+03  0.12500000000E+03 0.  0.
         21    1    1    2  503  502 -0.40388325958E+02 -0.20342073121E+03 -0.22491315076E+01  0.20740363871E+03  0.00000000000E+00 0. -1.
<mgrwt>
<rscale>  3 0.48681032E+03</rscale>
<asrwt>0</asrwt>
<pdfrwt beam="1">  1       21 0.57249911E-01 0.48681032E+03</pdfrwt>
<pdfrwt beam="2">  1       21 0.24493905E-01 0.48681032E+03</pdfrwt>
<totfact> 0.41055296E+04</totfact>
</mgrwt>
</event>
<event>
 4    0  0.1775285E-001  0.5342749E+03  0.7546771E-02  0.1005201E+00
         21   -1    0    0  502  501  0.00000000000E+00  0.00000000000E+00  0.16166469777E+03  0.16166469777E+03  0.00000000000E+00 0. -1.
         21   -1    0    0  503  502 -0.00000000000E+00 -0.00000000000E+00 -0.44142234648E+03  0.44142234648E+03  0.00000000000E+00 0. -1.
         25    1    1    2    0    0 -0.11346300806E+03  0.19192213029E+03 -0.28136219262E+03  0.38012845425E+03  0.12500000000E+03 0.  0.
         21    1    1    2  503  501  0.11346300806E+03 -0.19192213029E+03  0.16045439164E+01  0.22295859000E+03  0.00000000000E+00 0. -1.
<mgrwt>
<rscale>  3 0.53427487E+03</rscale>
<asrwt>0</asrwt>
<pdfrwt beam="1">  1       21 0.24871492E-01 0.53427487E+03</pdfrwt>
<pdfrwt beam="2">  1       21 0.67911130E-01 0.53427487E+03</pdfrwt>
<totfact> 0.27041540E+04</totfact>
</mgrwt>
</event>
<event>
 4    0  0.1775285E-001  0.6634207E+03  0.7546771E-02  0.9781917E-01
         21   -1    0    0  503  501  0.00000000000E+00  0.00000000000E+00  0.53562958708E+03  0.53562958708E+03  0.00000000000E+00 0.  1.
         21   -1    0    0  501  502 -0.00000000000E+00 -0.00000000000E+00 -0.20542509957E+03  0.20542509957E+03  0.00000000000E+00 0.  1.
         25    1    1    2    0    0 -0.23264361511E+03  0.11258294242E+03 -0.39676956050E+02  0.28982275863E+03  0.12500000000E+03 0.  0.
         21    1    1    2  503  502  0.23264361511E+03 -0.11258294242E+03  0.36988144356E+03  0.45123192803E+03  0.00000000000E+00 0.  1.
<mgrwt>
<rscale>  3 0.66342071E+03</rscale>
<asrwt>0</asrwt>
<pdfrwt beam="1">  1       21 0.82404551E-01 0.66342071E+03</pdfrwt>
<pdfrwt beam="2">  1       21 0.31603862E-01 0.66342071E+03</pdfrwt>
<totfact> 0.10510678E+04</totfact>
</mgrwt>
</event>
<event>
 4    0  0.1775285E-001  0.5817119E+03  0.7546771E-02  0.9944092E-01
         21   -1    0    0  502  501  0.00000000000E+00  0.00000000000E+00  0.37625747403E+03  0.37625747403E+03  0.00000000000E+00 0.  1.
         21   -1    0    0  503  502 -0.00000000000E+00 -0.00000000000E+00 -0.22483857773E+03  0.22483857773E+03  0.00000000000E+00 0.  1.
         25    1    1    2    0    0 -0.83061792771E+02 -0.24241217264E+03 -0.30648794369E+02  0.28675297986E+03  0.12500000000E+03 0.  0.
         21    1    1    2  503  501  0.83061792771E+02  0.24241217264E+03  0.18206769067E+03  0.31434307190E+03  0.00000000000E+00 0.  1.
<mgrwt>
<rscale>  3 0.58171194E+03</rscale>
<asrwt>0</asrwt>
<pdfrwt beam="1">  1       21 0.57885765E-01 0.58171194E+03</pdfrwt>
<pdfrwt beam="2">  1       21 0.34590550E-01 0.58171194E+03</pdfrwt>
<totfact> 0.19797239E+04</totfact>
</mgrwt>
</event>
<event>
 4    0  0.1775285E-001  0.5160475E+03  0.7546771E-02  0.1009673E+00
         21   -1    0    0  502  501  0.00000000000E+00  0.00000000000E+00  0.12504944535E+03  0.12504944535E+03  0.00000000000E+00 0.  1.
         21   -1    0    0  503  502 -0.00000000000E+00 -0.00000000000E+00 -0.53239942781E+03  0.53239942781E+03  0.00000000000E+00 0.  1.
         25    1    1    2    0    0 -0.21758735286E+03  0.86009458791E+02 -0.29869085359E+03  0.39947854654E+03  0.12500000000E+03 0.  0.
         21    1    1    2  503  501  0.21758735286E+03 -0.86009458791E+02 -0.10865912887E+03  0.25797032662E+03  0.00000000000E+00 0.  1.
<mgrwt>
<rscale>  3 0.51604749E+03</rscale>
<asrwt>0</asrwt>
<pdfrwt beam="1">  1       21 0.19238377E-01 0.51604749E+03</pdfrwt>
<pdfrwt beam="2">  1       21 0.81907603E-01 0.51604749E+03</pdfrwt>
<totfact> 0.28998091E+04</totfact>
</mgrwt>
</event>
<event>
 4    0  0.1775285E-001  0.4537322E+03  0.7546771E-02  0.1026615E+00
         21   -1    0    0  502  501  0.00000000000E+00  0.00000000000E+00  0.42881846947E+03  0.42881846947E+03  0.00000000000E+00 0. -1.
         21   -1    0    0  503  502 -0.00000000000E+00 -0.00000000000E+00 -0.12002336101E+03  0.12002336101E+03  0.00000000000E+00 0. -1.
         25    1    1    2    0    0  0.13264406089E+02 -0.20507292598E+03  0.11592974324E+03  0.26701227464E+03  0.12500000000E+03 0.  0.
         21    1    1    2  503  501 -0.13264406089E+02  0.20507292598E+03  0.19286536523E+03  0.28182955584E+03  0.00000000000E+00 0. -1.
<mgrwt>
<rscale>  3 0.45373223E+03</rscale>
<asrwt>0</asrwt>
<pdfrwt beam="1">  1       21 0.65972072E-01 0.45373223E+03</pdfrwt>
<pdfrwt beam="2">  1       21 0.18465133E-01 0.45373223E+03</pdfrwt>
<totfact> 0.51991038E+04</totfact>
</mgrwt>
</event>
<event>
 4    0  0.1775285E-001  0.5665578E+03  0.7546771E-02  0.9977325E-01
         21   -1    0    0  503  501  0.00000000000E+00  0.00000000000E+00  0.23891598433E+03  0.23891598433E+03  0.00000000000E+00 0.  1.
         21   -1    0    0  501  502 -0.00000000000E+00 -0.00000000000E+00 -0.33587924860E+03  0.33587924860E+03  0.00000000000E+00 0.  1.
         25    1    1    2    0    0  0.23209149628E+03  0.12498278005E+03  0.59853811065E+01  0.29180127268E+03  0.12500000000E+03 0.  0.
         21    1    1    2  503  502 -0.23209149628E+03 -0.12498278005E+03 -0.10294864537E+03  0.28299396025E+03  0.00000000000E+00 0.  1.
<mgrwt>
<rscale>  3 0.56655775E+03</rscale>
<asrwt>0</asrwt>
<pdfrwt beam="1">  1       21 0.36756305E-01 0.56655775E+03</pdfrwt>
<pdfrwt beam="2">  1       21 0.51673730E-01 0.56655775E+03</pdfrwt>
<totfact> 0.22442300E+04</totfact>
</mgrwt>
</event>
<event>
 4    0  0.1775285E-001  0.4459247E+03  0.7546771E-02  0.1028944E+00
         21   -1    0    0  503  501  0.00000000000E+00  0.00000000000E+00  0.29641073659E+02  0.29641073659E+02  0.00000000000E+00 0. -1.
         21   -1    0    0  501  502 -0.00000000000E+00 -0.00000000000E+00 -0.16771389352E+04  0.16771389352E+04  0.00000000000E+00 0. -1.
         25    1    1    2    0    0 -0.20091284771E+03  0.30147946557E+02 -0.10053112230E+04  0.10332233670E+04  0.12500000000E+03 0.  0.
         21    1    1    2  503  502  0.20091284771E+03 -0.30147946557E+02 -0.64218663863E+03  0.67355664193E+03  0.00000000000E+00 0. -1.
<mgrwt>
<rscale>  3 0.44592465E+03</rscale>
<asrwt>0</asrwt>
<pdfrwt beam="1">  1       21 0.45601657E-02 0.44592465E+03</pdfrwt>
<pdfrwt beam="2">  1       21 0.25802135E+00 0.44592465E+03</pdfrwt>
<totfact> 0.16181324E+04</totfact>
</mgrwt>
</event>
