<LesHouchesEvents version="3.0">
  <!--
  <scalesfunctionalform>
    muR  H_T/2 := sum_i mT(i)/2, i=final state
    muF1 H_T/2 := sum_i mT(i)/2, i=final state
    muF2 H_T/2 := sum_i mT(i)/2, i=final state
    QES  H_T/2 := sum_i mT(i)/2, i=final state
  </scalesfunctionalform>
HERWIG6   
  -->
  <header>
      176
  </header>
  <init>
   2212   2212 0.65000000D+04 0.65000000D+04 -1 -1   247000   247000 -3   1
 0.34306282D-01 0.93851262D-03 0.42980143D-03     66
  </init>
  <event>
  5     66 0.42980143E-03 0.44270987E+02 0.75467711E-02 0.95960926E-01
        1 -1    0    0  502    0 0.00000000E+00 0.00000000E+00 0.22172072E+03 0.22172095E+03 0.32000000E+00 0.0000E+00 0.9000E+01
       21 -1    0    0  501  502 0.00000000E+00 0.00000000E+00 -.20060755E+03 0.20060895E+03 0.75000000E+00 0.0000E+00 0.9000E+01
       25  1    1    2    0    0 -.33858791E+02 -.23157854E+02 0.13400604E+03 0.18779063E+03 0.12500000E+03 0.0000E+00 0.9000E+01
      -24  1    1    2    0    0 0.32141200E+00 -.57412698E+01 0.29169110E+02 0.85738664E+02 0.80419002E+02 0.0000E+00 0.9000E+01
        2  1    1    2  501    0 0.33537379E+02 0.28899124E+02 -.14206197E+03 0.14880061E+03 0.32000000E+00 0.0000E+00 0.9000E+01
#aMCatNLO 1  0  0  2  1 0.10163075D+03 0.00000000D+00  -5  6  0 0.00000000D+00 0.00000000D+00 0.00000000D+00 0.00000000D+00 0.00000000D+00
  <mgrwgt>
 0.9609635296D-01   12    2    0
 0.210900914799382D+03 0.000000000000000D+00 0.000000000000000D+00 0.210900914799382D+03
 0.210900914799382D+03 0.000000000000000D+00 0.000000000000000D+00 -.210900914799382D+03
 0.181318204468400D+03 -.338588213823855D+02 -.231578798153992D+02 0.124774132289893D+03
 0.843859721379184D+02 0.321397899112858D+00 -.574128195761257D+01 0.249140667929715D+02
 0.156097652992446D+03 0.335374234832727D+02 0.288991617730118D+02 -.149688199082864D+03
 0.000000000000000D+00 0.000000000000000D+00 0.000000000000000D+00 -.000000000000000D+00
 0.543748736527625D+03 0.000000000000000D+00 0.000000000000000D+00 0.543748736527625D+03
 0.172151681069548D+04 0.000000000000000D+00 0.000000000000000D+00 -.172151681069548D+04
 0.437726955725028D+03 -.208692922274685D+03 -.341845824710582D+03 0.124774132289893D+03
 0.181943022347152D+03 -.748966851851619D+02 -.142848952570734D+03 0.249140667929715D+02
 0.246057916648126D+03 -.800415396653459D+02 -.178132796891942D+03 -.149688199082864D+03
 0.139953765250280D+04 0.363631147125193D+03 0.662827574173257D+03 -.117776807416786D+04
0.214413901898D-04 0.000000000000D+00 0.000000000000D+00 0.395959236431D-05 0.000000000000D+00  6 1 21 25 -24 2 21 2 0.34111006D-01 0.30862826D-01 0.16442173D+05 0.16442173D+05 0.16442173D+05 0.12433030D+01  1  2  2  2  6  2       21 0.471064150553D-01 0.100000000000D+01
0.206686455792D-05 0.113149324634D-05 -.432839892548D-07 0.395959236431D-05 0.000000000000D+00  6 1 21 25 -24 2 21 4 0.34111006D-01 0.30862826D-01 0.16442173D+05 0.16442173D+05 0.16442173D+05 0.12433030D+01  1  2  3  2  6  2       21 0.701928858048D-02 0.100000000000D+01
0.200287378636D-05 0.000000000000D+00 0.000000000000D+00 0.395959236431D-05 0.000000000000D+00  6 1 21 25 -24 2 21 4 0.34111006D-01 0.30862826D-01 0.16442173D+05 0.16442173D+05 0.16442173D+05 0.12433030D+01  1  2 15  2  6  2       21 0.680196921606D-02 0.100000000000D+01
0.314195140816D-02 0.000000000000D+00 -.109580059034D-02 0.395959236431D-05 0.000000000000D+00  6 1 21 25 -24 2 21 4 0.34111006D-01 0.41869460D+00 0.16442173D+05 0.16442173D+05 0.16442173D+05 0.12433030D+01  1  2  5  2  6  2       21 0.796714728423D-02 0.100000000000D+01
0.139014966243D-02 0.000000000000D+00 -.482770557684D-03 0.395959236431D-05 0.000000000000D+00  6 1 -1 25 -24 2 -1 4 0.34111006D-01 0.41869460D+00 0.16442173D+05 0.16442173D+05 0.16442173D+05 0.12433030D+01  1  2  5  5  6  2       21 0.317188217015D-03 0.100000000000D+01
0.139014966243D-02 0.000000000000D+00 -.482770557684D-03 0.395959236431D-05 0.000000000000D+00  6 1 1 25 -24 2 1 4 0.34111006D-01 0.41869460D+00 0.16442173D+05 0.16442173D+05 0.16442173D+05 0.12433030D+01  1  2  5  6  6  2       21 0.640443317585D-02 0.100000000000D+01
0.139014966243D-02 0.000000000000D+00 -.482770557684D-03 0.395959236431D-05 0.000000000000D+00  6 1 -2 25 -24 2 -2 4 0.34111006D-01 0.41869460D+00 0.16442173D+05 0.16442173D+05 0.16442173D+05 0.12433030D+01  1  2  5  7  6  2       21 0.287856208413D-03 0.100000000000D+01
0.139014966243D-02 0.000000000000D+00 -.482770557684D-03 0.395959236431D-05 0.000000000000D+00  6 1 2 25 -24 2 2 4 0.34111006D-01 0.41869460D+00 0.16442173D+05 0.16442173D+05 0.16442173D+05 0.12433030D+01  1  2  5  8  6  2       21 0.193960516771D-01 0.100000000000D+01
0.139014966243D-02 0.000000000000D+00 -.482770557684D-03 0.395959236431D-05 0.000000000000D+00  6 1 -3 25 -24 2 -3 4 0.34111006D-01 0.41869460D+00 0.16442173D+05 0.16442173D+05 0.16442173D+05 0.12433030D+01  1  2  5  9  6  2       21 0.254096902278D-03 0.100000000000D+01
0.139014966243D-02 0.000000000000D+00 -.482770557684D-03 0.395959236431D-05 0.000000000000D+00  6 1 -4 25 -24 2 -4 4 0.34111006D-01 0.41869460D+00 0.16442173D+05 0.16442173D+05 0.16442173D+05 0.12433030D+01  1  2  5  9  6  2       21 0.137112871343D-03 0.100000000000D+01
0.139014966243D-02 0.000000000000D+00 -.482770557684D-03 0.395959236431D-05 0.000000000000D+00  6 1 3 25 -24 2 3 4 0.34111006D-01 0.41869460D+00 0.16442173D+05 0.16442173D+05 0.16442173D+05 0.12433030D+01  1  2  5 10  6  2       21 0.267680903475D-03 0.100000000000D+01
0.139014966243D-02 0.000000000000D+00 -.482770557684D-03 0.395959236431D-05 0.000000000000D+00  6 1 4 25 -24 2 4 4 0.34111006D-01 0.41869460D+00 0.16442173D+05 0.16442173D+05 0.16442173D+05 0.12433030D+01  1  2  5 10  6  2       21 0.137112871343D-03 0.100000000000D+01
  </mgrwgt>
  </event>
  <event>
  5     66 0.42980143E-03 0.13143402E+03 0.75467711E-02 0.10870925E+00
        3 -1    0    0  502    0 0.00000000E+00 0.00000000E+00 0.39060390E+03 0.39060422E+03 0.50000000E+00 0.0000E+00 0.9000E+01
       21 -1    0    0  501  502 0.00000000E+00 0.00000000E+00 -.33768927E+03 0.33769010E+03 0.75000000E+00 0.0000E+00 0.9000E+01
       25  1    1    2    0    0 0.25662041E+03 0.54344448E+02 0.75079093E+01 0.29066944E+03 0.12500000E+03 0.0000E+00 0.9000E+01
      -24  1    1    2    0    0 -.12777186E+03 -.80271078E+02 0.18085341E+03 0.24888604E+03 0.80419002E+02 0.0000E+00 0.9000E+01
        4  1    1    2  501    0 -.12884856E+03 0.25926630E+02 -.13544669E+03 0.18873884E+03 0.15500000E+01 0.0000E+00 0.9000E+01
#aMCatNLO 1  0  0  5  2 0.35613712D+00 0.00000000D+00  -5  6  0 0.00000000D+00 0.00000000D+00 0.00000000D+00 0.00000000D+00 0.00000000D+00
  <mgrwgt>
 0.7996987445D-02    5    2    0
 0.363184753923513D+03 0.000000000000000D+00 0.000000000000000D+00 0.363184753923513D+03
 0.363184753923513D+03 -.000000000000000D+00 -.000000000000000D+00 -.363184753923513D+03
 0.290893988574811D+03 0.256621977229677D+03 0.543441333695929D+02 -.136450928908970D+02
 0.236371164208100D+03 -.127770585396269D+03 -.802713332907982D+02 0.163203253257815D+03
 0.199104355064116D+03 -.128851391833408D+03 0.259271999212052D+02 -.149558160366918D+03
 0.000000000000000D+00 0.000000000000000D+00 0.000000000000000D+00 0.000000000000000D+00
 0.363184753923513D+03 0.000000000000000D+00 0.000000000000000D+00 0.363184753923513D+03
 0.363184753923513D+03 -.000000000000000D+00 -.000000000000000D+00 -.363184753923513D+03
 0.290767709224682D+03 0.256462061590307D+03 0.543763112505881D+02 -.138307074077274D+02
 0.236328464032814D+03 -.127900544208352D+03 -.802451832581563D+02 0.163052409711758D+03
 0.198862191441753D+03 -.128428613256040D+03 0.258629625377648D+02 -.149610727058314D+03
 0.411143147777191D+00 -.132904125915443D+00 0.590946980336939D-02 0.389024754283622D+00
0.810222425618D-04 0.000000000000D+00 0.000000000000D+00 0.828048194332D-07 0.000000000000D+00  6 3 21 25 -24 4 21 2 0.60092996D-01 0.51952284D-01 0.87910250D+05 0.87910250D+05 0.87910250D+05 0.11687476D+01  1  2  2  3  6  5        4 0.518281827765D-02 0.100000000000D+01
-.116336412426D-05 0.427566120714D-05 -.163560564189D-06 0.828048194332D-07 0.000000000000D+00  6 3 21 25 -24 4 21 4 0.60092996D-01 0.51952284D-01 0.87910250D+05 0.87910250D+05 0.87910250D+05 0.11687476D+01  1  2  3  3  6  5        4 -.101652682128D-03 0.100000000000D+01
0.748833782636D-05 0.000000000000D+00 0.000000000000D+00 0.828048194332D-07 0.000000000000D+00  6 3 21 25 -24 4 21 4 0.60092996D-01 0.51952284D-01 0.87910250D+05 0.87910250D+05 0.87910250D+05 0.11687476D+01  1  2 15  3  6  5        4 0.654317602593D-03 0.100000000000D+01
-.233204818500D-02 0.000000000000D+00 0.000000000000D+00 0.828048194332D-07 0.000000000000D+00  6 3 21 25 -24 4 21 4 0.60092996D-01 0.51952284D-01 0.87910250D+05 0.87910250D+05 0.87910250D+05 0.11687476D+01  1  2  4  3  6  5        4 -.203770210817D+00 0.100000000000D+01
0.235748878373D-02 0.000000000000D+00 0.000000000000D+00 0.828048194332D-07 0.338209697283D-04  6 3 21 25 -24 4 21 4 0.60092996D-01 0.51952284D-01 0.87808155D+05 0.87808155D+05 0.87808155D+05 0.11687946D+01  1  2 11  3  6  5        4 0.206031715063D+00 0.100000000000D+01
  </mgrwgt>
  </event>
  <event>
  5     66 0.42980143E-03 0.25414512E+02 0.75467711E-02 0.12123701E+00
        1 -1    0    0  502    0 0.00000000E+00 0.00000000E+00 0.30789153E+03 0.30789169E+03 0.32000000E+00 0.0000E+00 0.9000E+01
       21 -1    0    0  501  502 0.00000000E+00 0.00000000E+00 -.61636024E+02 0.61640587E+02 0.75000000E+00 0.0000E+00 0.9000E+01
       25  1    1    2    0    0 0.41744486E+02 -.34596198E+02 0.78393842E+02 0.15719445E+03 0.12500000E+03 0.0000E+00 0.9000E+01
      -24  1    1    2    0    0 -.62972626E+02 0.20625277E+02 0.12783405E+03 0.16492336E+03 0.80419002E+02 0.0000E+00 0.9000E+01
        2  1    1    2  501    0 0.21228140E+02 0.13970921E+02 0.40027611E+02 0.47414476E+02 0.32000000E+00 0.0000E+00 0.9000E+01
#aMCatNLO 1  0  0  2  5 0.15204915D+02 0.00000000D+00  -5  6  0 0.00000000D+00 0.00000000D+00 0.00000000D+00 0.00000000D+00 0.00000000D+00
  <mgrwgt>
 0.2029487844D+00   32    2    0
 0.137760963853161D+03 0.000000000000000D+00 0.000000000000000D+00 0.137760963853161D+03
 0.137760963853161D+03 0.000000000000000D+00 0.000000000000000D+00 -.137760963853161D+03
 0.140763773562794D+03 0.417437686076598D+02 -.345966700350184D+02 -.353548886655827D+02
 0.106941460841314D+03 -.629731715159857D+02 0.206249177855369D+02 0.240468818781551D+02
 0.278166933022140D+02 0.212294029083259D+02 0.139717522494815D+02 0.113080067874276D+02
 0.000000000000000D+00 0.000000000000000D+00 0.000000000000000D+00 -.000000000000000D+00
 0.140627498593163D+03 0.000000000000000D+00 0.000000000000000D+00 0.140627498593163D+03
 0.159724095631982D+03 0.000000000000000D+00 0.000000000000000D+00 -.159724095631982D+03
 0.141870128792059D+03 0.387863956814027D+02 -.418064684105865D+02 -.353548886655827D+02
 0.107369982199812D+03 -.652156443904576D+02 0.151579788195115D+02 0.240468818781551D+02
 0.267010459208465D+02 0.206589501613777D+02 0.125810418484462D+02 0.113080067874276D+02
 0.244104373124273D+02 0.577029854767720D+01 0.140674477426288D+02 -.190965970388190D+02
0.193623221340D-05 0.000000000000D+00 0.000000000000D+00 0.433927832500D-06 0.000000000000D+00  6 1 21 25 -24 2 21 2 0.47368291D-01 0.94828290D-02 0.17671557D+05 0.17671557D+05 0.17671557D+05 0.12397883D+01  1  2  2  2  6  2       21 0.244053468722D-01 0.100000000000D+01
-.698222830093D-08 0.102177781077D-06 -.390869498563D-08 0.433927832500D-06 0.000000000000D+00  6 1 21 25 -24 2 21 4 0.47368291D-01 0.94828290D-02 0.17671557D+05 0.17671557D+05 0.17671557D+05 0.12397883D+01  1  2  3  2  6  2       21 -.135274720340D-03 0.100000000000D+01
0.202453826892D-06 0.000000000000D+00 0.000000000000D+00 0.433927832500D-06 0.000000000000D+00  6 1 21 25 -24 2 21 4 0.47368291D-01 0.94828290D-02 0.17671557D+05 0.17671557D+05 0.17671557D+05 0.12397883D+01  1  2 15  2  6  2       21 0.392237028556D-02 0.100000000000D+01
0.865539330203D-05 0.000000000000D+00 0.000000000000D+00 0.430098110747D-06 0.000000000000D+00  6 1 21 25 -24 2 21 4 0.47368291D-01 0.11082985D-01 0.19800707D+05 0.19800707D+05 0.19800707D+05 0.12343052D+01  1  2 12  2  6  2       21 0.125463711833D+00 0.100000000000D+01
0.623064059900D-05 0.000000000000D+00 0.000000000000D+00 0.430098110747D-06 0.000000000000D+00  6 1 21 25 -24 2 21 4 0.47368291D-01 0.11679741D-01 0.19800707D+05 0.19800707D+05 0.19800707D+05 0.12343052D+01  1  2 12  2  6  2       21 0.823150310583D-01 0.100000000000D+01
-.782505630883D-05 0.000000000000D+00 0.000000000000D+00 0.433927832500D-06 0.000000000000D+00  6 1 21 25 -24 2 21 4 0.47368291D-01 0.94828290D-02 0.17671557D+05 0.17671557D+05 0.17671557D+05 0.12397883D+01  1  2  4  2  6  2       21 -.151603794405D+00 0.100000000000D+01
-.278186568406D-04 0.000000000000D+00 -.403053560598D-05 0.433927832500D-06 0.000000000000D+00  6 1 21 25 -24 2 21 4 0.47368291D-01 0.11205258D-01 0.17671557D+05 0.17671557D+05 0.17671557D+05 0.12397883D+01  1  2  5  2  6  2       21 -.402158308722D+00 0.100000000000D+01
0.270265622163D-04 0.000000000000D+00 0.381455351696D-05 0.433927832500D-06 0.000000000000D+00  6 1 21 25 -24 2 21 4 0.47368291D-01 0.94828290D-02 0.17671557D+05 0.17671557D+05 0.17671557D+05 0.12397883D+01  1  2  6  2  6  2       21 0.523616600316D+00 0.100000000000D+01
0.369036943503D-06 0.000000000000D+00 0.000000000000D+00 0.430098110747D-06 0.000000000000D+00  6 1 -1 25 -24 2 -1 4 0.47368291D-01 0.11082985D-01 0.19800707D+05 0.19800707D+05 0.19800707D+05 0.12343052D+01  1  2 12  5  6  2       21 0.363435564216D-03 0.100000000000D+01
0.375613667684D-06 0.000000000000D+00 0.000000000000D+00 0.430098110747D-06 0.000000000000D+00  6 1 -1 25 -24 2 -1 4 0.47368291D-01 0.11679741D-01 0.19800707D+05 0.19800707D+05 0.19800707D+05 0.12343052D+01  1  2 12  5  6  2       21 0.341226437234D-03 0.100000000000D+01
-.112901599205D-05 0.000000000000D+00 -.186234924388D-06 0.433927832500D-06 0.000000000000D+00  6 1 -1 25 -24 2 -1 4 0.47368291D-01 0.11205258D-01 0.17671557D+05 0.17671557D+05 0.17671557D+05 0.12397883D+01  1  2  5  5  6  2       21 -.110960277856D-02 0.100000000000D+01
0.369036943503D-06 0.000000000000D+00 0.000000000000D+00 0.430098110747D-06 0.000000000000D+00  6 1 1 25 -24 2 1 4 0.47368291D-01 0.11082985D-01 0.19800707D+05 0.19800707D+05 0.19800707D+05 0.12343052D+01  1  2 12  6  6  2       21 0.465351505540D-03 0.100000000000D+01
0.375613667684D-06 0.000000000000D+00 0.000000000000D+00 0.430098110747D-06 0.000000000000D+00  6 1 1 25 -24 2 1 4 0.47368291D-01 0.11679741D-01 0.19800707D+05 0.19800707D+05 0.19800707D+05 0.12343052D+01  1  2 12  6  6  2       21 0.442020759100D-03 0.100000000000D+01
-.112901599205D-05 0.000000000000D+00 -.186234924388D-06 0.433927832500D-06 0.000000000000D+00  6 1 1 25 -24 2 1 4 0.47368291D-01 0.11205258D-01 0.17671557D+05 0.17671557D+05 0.17671557D+05 0.12397883D+01  1  2  5  6  6  2       21 -.142440293863D-02 0.100000000000D+01
0.369036943503D-06 0.000000000000D+00 0.000000000000D+00 0.430098110747D-06 0.000000000000D+00  6 1 -2 25 -24 2 -2 4 0.47368291D-01 0.11082985D-01 0.19800707D+05 0.19800707D+05 0.19800707D+05 0.12343052D+01  1  2 12  7  6  2       21 0.345755367751D-03 0.100000000000D+01
0.375613667684D-06 0.000000000000D+00 0.000000000000D+00 0.430098110747D-06 0.000000000000D+00  6 1 -2 25 -24 2 -2 4 0.47368291D-01 0.11679741D-01 0.19800707D+05 0.19800707D+05 0.19800707D+05 0.12343052D+01  1  2 12  7  6  2       21 0.323758227295D-03 0.100000000000D+01
-.112901599205D-05 0.000000000000D+00 -.186234924388D-06 0.433927832500D-06 0.000000000000D+00  6 1 -2 25 -24 2 -2 4 0.47368291D-01 0.11205258D-01 0.17671557D+05 0.17671557D+05 0.17671557D+05 0.12397883D+01  1  2  5  7  6  2       21 -.105497211182D-02 0.100000000000D+01
0.369036943503D-06 0.000000000000D+00 0.000000000000D+00 0.430098110747D-06 0.000000000000D+00  6 1 2 25 -24 2 2 4 0.47368291D-01 0.11082985D-01 0.19800707D+05 0.19800707D+05 0.19800707D+05 0.12343052D+01  1  2 12  8  6  2       21 0.534514852029D-03 0.100000000000D+01
0.375613667684D-06 0.000000000000D+00 0.000000000000D+00 0.430098110747D-06 0.000000000000D+00  6 1 2 25 -24 2 2 4 0.47368291D-01 0.11679741D-01 0.19800707D+05 0.19800707D+05 0.19800707D+05 0.12343052D+01  1  2 12  8  6  2       21 0.510570543009D-03 0.100000000000D+01
-.112901599205D-05 0.000000000000D+00 -.186234924388D-06 0.433927832500D-06 0.000000000000D+00  6 1 2 25 -24 2 2 4 0.47368291D-01 0.11205258D-01 0.17671557D+05 0.17671557D+05 0.17671557D+05 0.12397883D+01  1  2  5  8  6  2       21 -.163795955024D-02 0.100000000000D+01
0.369036943503D-06 0.000000000000D+00 0.000000000000D+00 0.430098110747D-06 0.000000000000D+00  6 1 -3 25 -24 2 -3 4 0.47368291D-01 0.11082985D-01 0.19800707D+05 0.19800707D+05 0.19800707D+05 0.12343052D+01  1  2 12  9  6  2       21 0.235892925468D-03 0.100000000000D+01
0.369036943503D-06 0.000000000000D+00 0.000000000000D+00 0.430098110747D-06 0.000000000000D+00  6 1 -4 25 -24 2 -4 4 0.47368291D-01 0.11082985D-01 0.19800707D+05 0.19800707D+05 0.19800707D+05 0.12343052D+01  1  2 12  9  6  2       21 0.205337772516D-03 0.100000000000D+01
0.375613667684D-06 0.000000000000D+00 0.000000000000D+00 0.430098110747D-06 0.000000000000D+00  6 1 -3 25 -24 2 -3 4 0.47368291D-01 0.11679741D-01 0.19800707D+05 0.19800707D+05 0.19800707D+05 0.12343052D+01  1  2 12  9  6  2       21 0.219956137772D-03 0.100000000000D+01
0.375613667684D-06 0.000000000000D+00 0.000000000000D+00 0.430098110747D-06 0.000000000000D+00  6 1 -4 25 -24 2 -4 4 0.47368291D-01 0.11679741D-01 0.19800707D+05 0.19800707D+05 0.19800707D+05 0.12343052D+01  1  2 12  9  6  2       21 0.191130100840D-03 0.100000000000D+01
-.112901599205D-05 0.000000000000D+00 -.186234924388D-06 0.433927832500D-06 0.000000000000D+00  6 1 -3 25 -24 2 -3 4 0.47368291D-01 0.11205258D-01 0.17671557D+05 0.17671557D+05 0.17671557D+05 0.12397883D+01  1  2  5  9  6  2       21 -.717258348849D-03 0.100000000000D+01
-.112901599205D-05 0.000000000000D+00 -.186234924388D-06 0.433927832500D-06 0.000000000000D+00  6 1 -4 25 -24 2 -4 4 0.47368291D-01 0.11205258D-01 0.17671557D+05 0.17671557D+05 0.17671557D+05 0.12397883D+01  1  2  5  9  6  2       21 -.623372879011D-03 0.100000000000D+01
0.369036943503D-06 0.000000000000D+00 0.000000000000D+00 0.430098110747D-06 0.000000000000D+00  6 1 3 25 -24 2 3 4 0.47368291D-01 0.11082985D-01 0.19800707D+05 0.19800707D+05 0.19800707D+05 0.12343052D+01  1  2 12 10  6  2       21 0.235862712509D-03 0.100000000000D+01
0.369036943503D-06 0.000000000000D+00 0.000000000000D+00 0.430098110747D-06 0.000000000000D+00  6 1 4 25 -24 2 4 4 0.47368291D-01 0.11082985D-01 0.19800707D+05 0.19800707D+05 0.19800707D+05 0.12343052D+01  1  2 12 10  6  2       21 0.205337772516D-03 0.100000000000D+01
0.375613667684D-06 0.000000000000D+00 0.000000000000D+00 0.430098110747D-06 0.000000000000D+00  6 1 3 25 -24 2 3 4 0.47368291D-01 0.11679741D-01 0.19800707D+05 0.19800707D+05 0.19800707D+05 0.12343052D+01  1  2 12 10  6  2       21 0.219927928336D-03 0.100000000000D+01
0.375613667684D-06 0.000000000000D+00 0.000000000000D+00 0.430098110747D-06 0.000000000000D+00  6 1 4 25 -24 2 4 4 0.47368291D-01 0.11679741D-01 0.19800707D+05 0.19800707D+05 0.19800707D+05 0.12343052D+01  1  2 12 10  6  2       21 0.191130100840D-03 0.100000000000D+01
-.112901599205D-05 0.000000000000D+00 -.186234924388D-06 0.433927832500D-06 0.000000000000D+00  6 1 3 25 -24 2 3 4 0.47368291D-01 0.11205258D-01 0.17671557D+05 0.17671557D+05 0.17671557D+05 0.12397883D+01  1  2  5 10  6  2       21 -.717165371323D-03 0.100000000000D+01
-.112901599205D-05 0.000000000000D+00 -.186234924388D-06 0.433927832500D-06 0.000000000000D+00  6 1 4 25 -24 2 4 4 0.47368291D-01 0.11205258D-01 0.17671557D+05 0.17671557D+05 0.17671557D+05 0.12397883D+01  1  2  5 10  6  2       21 -.623372879011D-03 0.100000000000D+01
  </mgrwgt>
  </event>
  <event>
  6     66 0.42980143E-03 0.35706908E+02 0.75467711E-02 0.12301757E+00
        1 -1    0    0  502    0 0.00000000E+00 0.00000000E+00 0.83095288E+03 0.83095294E+03 0.32000000E+00 0.0000E+00 0.9000E+01
       21 -1    0    0  501  502 0.00000000E+00 0.00000000E+00 -.60438814E+02 0.60443467E+02 0.75000000E+00 0.0000E+00 0.9000E+01
       25  1    1    2    0    0 0.13460766E+02 0.27714969E+01 0.48955337E+03 0.50544671E+03 0.12500000E+03 0.0000E+00 0.9000E+01
      -24  1    1    2    0    0 0.29274440E+02 0.42005592E+01 0.31590683E+03 0.32732091E+03 0.80419002E+02 0.0000E+00 0.9000E+01
        2  1    1    2  503    0 -.24752202E+02 -.10012356E+02 -.11912158E+02 0.29239027E+02 0.32000000E+00 0.0000E+00 0.9000E+01
       21  1    1    2  501  503 -.17983004E+02 0.30403000E+01 -.23033973E+02 0.29389765E+02 0.75000000E+00 0.0000E+00 0.9000E+01
#aMCatNLO 2  0  0  5  2 0.91383986D+01 0.00000000D+00  -5  6  0 0.00000000D+00 0.00000000D+00 0.00000000D+00 0.00000000D+00 0.00000000D+00
  <mgrwgt>
 0.1160161892D+00    2    2    0
 0.224106912008067D+03 0.000000000000000D+00 0.000000000000000D+00 0.224106912008067D+03
 0.224106912008067D+03 -.000000000000000D+00 -.000000000000000D+00 -.224106912008067D+03
 0.163866967842649D+03 0.135468980510829D+02 0.278554897347664D+01 0.105052869642165D+03
 0.108052913154775D+03 0.293312335729383D+02 0.420982482311332D+01 0.658040439404088D+02
 0.176293943018710D+03 -.428781316240212D+02 -.699537379658995D+01 -.170856913582574D+03
 0.000000000000000D+00 0.000000000000000D+00 0.000000000000000D+00 -.000000000000000D+00
 0.224106912008067D+03 0.000000000000000D+00 0.000000000000000D+00 0.224106912008067D+03
 0.224106912008067D+03 -.000000000000000D+00 -.000000000000000D+00 -.224106912008067D+03
 0.163641708952008D+03 0.134614883917851D+02 0.277161477275476D+01 0.104712536931176D+03
 0.107900743483381D+03 0.292749158948294D+02 0.420063684791929D+01 0.655796343335211D+02
 0.784357836587376D+02 -.246909292185517D+02 -.998668981547864D+01 -.737753088710184D+02
 0.982355879220083D+02 -.180454750680627D+02 0.301443819480459D+01 -.965168623936784D+02
-.112072362577D-04 0.000000000000D+00 0.000000000000D+00 0.639829029126D-05 0.000000000000D+00  6 1 21 25 -24 2 21 4 0.12783927D+00 0.92986417D-02 0.16431102D+05 0.16431102D+05 0.16431102D+05 0.12433360D+01  1  2 13  3  6  5        2 -.606132755608D-01 0.100000000000D+01
0.326583264647D-04 0.000000000000D+00 0.000000000000D+00 0.640403343006D-05 0.577644941687D-06  6 1 21 25 -24 2 21 4 0.12783927D+00 0.92986417D-02 0.16431102D+05 0.16431102D+05 0.16431102D+05 0.12433360D+01  1  2  1  3  6  5        2 0.176629464735D+00 0.100000000000D+01
  </mgrwgt>
  </event>
  <event>
  5     66 0.42980143E-03 0.15280194E+03 0.75467711E-02 0.10822908E+00
        1 -1    0    0  502    0 0.00000000E+00 0.00000000E+00 0.63626870E+03 0.63626878E+03 0.32000000E+00 0.0000E+00 0.9000E+01
       21 -1    0    0  501  502 0.00000000E+00 0.00000000E+00 -.87448753E+02 0.87451969E+02 0.75000000E+00 0.0000E+00 0.9000E+01
       25  1    1    2    0    0 0.83336773E+02 0.42961598E+02 0.20012656E+03 0.25390226E+03 0.12500000E+03 0.0000E+00 0.9000E+01
      -24  1    1    2    0    0 0.60529292E+02 0.85257184E+01 0.28835233E+03 0.30553358E+03 0.80419002E+02 0.0000E+00 0.9000E+01
        2  1    1    2  501    0 -.14386606E+03 -.51487316E+02 0.60341055E+02 0.16428492E+03 0.32000000E+00 0.0000E+00 0.9000E+01
#aMCatNLO 1  0  0  1  2 0.17397929D+03 0.00000000D+00  -5  6  0 0.00000000D+00 0.00000000D+00 0.00000000D+00 0.00000000D+00 0.00000000D+00
  <mgrwgt>
 0.7062268977D-01    3    2    0
 0.235885772322083D+03 0.000000000000000D+00 0.000000000000000D+00 0.235885772322083D+03
 0.235885772322083D+03 0.000000000000000D+00 0.000000000000000D+00 -.235885772322083D+03
 0.156687933530917D+03 0.833368468314340D+02 0.429616245019222D+02 0.116351748821889D+02
 0.133258365766154D+03 0.605293546735396D+02 0.852574096798428D+01 0.869142396621367D+02
 0.181825245347093D+03 -.143866201504974D+03 -.514873654699064D+02 -.985494145443256D+02
 0.000000000000000D+00 -.000000000000000D+00 -.000000000000000D+00 -.000000000000000D+00
 0.293053912356147D+03 0.000000000000000D+00 0.000000000000000D+00 0.293053912356147D+03
 0.433146601461276D+03 0.000000000000000D+00 0.000000000000000D+00 -.433146601461276D+03
 0.198953895803662D+03 0.124362764628183D+03 0.914121334120933D+02 0.116351748821889D+02
 0.158855167292131D+03 0.942268132008174D+02 0.483215359752897D+02 0.869142396621367D+02
 0.145020115050131D+03 -.106162169577699D+03 -.695991470348974D+01 -.985494145443256D+02
 0.223371335671499D+03 -.112427408251302D+03 -.132773754683893D+03 -.140092689105128D+03
0.266586091981D-04 0.000000000000D+00 0.000000000000D+00 0.342908928366D-06 0.000000000000D+00  6 1 21 25 -24 2 21 2 0.97887746D-01 0.13453908D-01 0.42039491D+05 0.42039491D+05 0.42039491D+05 0.11998132D+01  1  2  2  1  6  1        1 0.658117871089D-01 0.100000000000D+01
-.171600634536D-05 0.140681345740D-05 -.538160512851D-07 0.342908928366D-06 0.000000000000D+00  6 1 21 25 -24 2 21 4 0.97887746D-01 0.13453908D-01 0.42039491D+05 0.42039491D+05 0.42039491D+05 0.11998132D+01  1  2  3  1  6  1        1 -.609835024128D-02 0.100000000000D+01
0.306973959573D-05 0.000000000000D+00 0.000000000000D+00 0.342908928366D-06 0.000000000000D+00  6 1 21 25 -24 2 21 4 0.97887746D-01 0.13453908D-01 0.42039491D+05 0.42039491D+05 0.42039491D+05 0.11998132D+01  1  2 15  1  6  1        1 0.109092529028D-01 0.100000000000D+01
  </mgrwgt>
  </event>
  <event>
  5     66 0.42980143E-03 0.66896382E+02 0.75467711E-02 0.10707300E+00
        3 -1    0    0  502    0 0.00000000E+00 0.00000000E+00 0.46358691E+03 0.46358718E+03 0.50000000E+00 0.0000E+00 0.9000E+01
       21 -1    0    0  501  502 -.00000000E+00 -.00000000E+00 -.50661492E+03 0.50661548E+03 0.75000000E+00 0.0000E+00 0.9000E+01
       25  1    1    2    0    0 -.42366918E+02 -.18099067E+02 0.13109757E+03 0.18690667E+03 0.12500000E+03 0.0000E+00 0.9000E+01
      -24  1    1    2    0    0 0.36706499E+02 0.84755326E+02 0.28977665E+03 0.31459269E+03 0.80419002E+02 0.0000E+00 0.9000E+01
        4  1    1    2  501    0 0.56604192E+01 -.66656259E+02 -.46390223E+03 0.46870330E+03 0.15500000E+01 0.0000E+00 0.9000E+01
#aMCatNLO 1  0  0  5  2 0.17023233D+01 0.00000000D+00  -5  6  0 0.00000000D+00 0.00000000D+00 0.00000000D+00 0.00000000D+00 0.00000000D+00
  <mgrwgt>
 0.3670920349D-01    3    2    0
 0.484624025817146D+03 0.000000000000000D+00 0.000000000000000D+00 0.484624025817146D+03
 0.484624025817146D+03 -.000000000000000D+00 -.000000000000000D+00 -.484624025817146D+03
 0.192910970095025D+03 -.423669249487838D+02 -.180989880106501D+02 0.139524595274017D+03
 0.327767499117170D+03 0.367064875540542D+02 0.847554605400416D+02 0.304028721017017D+03
 0.448569582422097D+03 0.566043739472958D+01 -.666564725293915D+02 -.443553316291034D+03
 0.000000000000000D+00 0.000000000000000D+00 0.000000000000000D+00 0.000000000000000D+00
 0.484624025817146D+03 0.000000000000000D+00 0.000000000000000D+00 0.484624025817146D+03
 0.484624025817146D+03 -.000000000000000D+00 -.000000000000000D+00 -.484624025817146D+03
 0.163800559852546D+03 -.417860675134881D+02 -.249390791518983D+02 0.940084586663413D+02
 0.256782792955951D+03 0.376583502076243D+02 0.735464668890343D+02 0.229440520988923D+03
 0.191409684159265D+03 0.937341525418893D+02 0.159960345682415D+03 -.475842794036635D+02
 0.357255014666530D+03 -.896064352360255D+02 -.208567733419551D+03 -.275864700251601D+03
0.124673492258D-02 0.000000000000D+00 0.000000000000D+00 0.755388602891D-05 0.000000000000D+00  6 3 21 25 -24 4 21 2 0.71321127D-01 0.77940821D-01 0.26014923D+05 0.26014923D+05 0.26014923D+05 0.12214491D+01  1  2  2  3  6  5        4 0.259333138842D-01 0.100000000000D+01
0.209147767754D-03 0.657920093978D-04 -.251679860843D-05 0.755388602891D-05 0.000000000000D+00  6 3 21 25 -24 4 21 4 0.71321127D-01 0.77940821D-01 0.26014923D+05 0.26014923D+05 0.26014923D+05 0.12214491D+01  1  2  3  3  6  5        4 0.649064490473D-02 0.100000000000D+01
0.138083253240D-03 0.000000000000D+00 0.000000000000D+00 0.755388602891D-05 0.000000000000D+00  6 3 21 25 -24 4 21 4 0.71321127D-01 0.77940821D-01 0.26014923D+05 0.26014923D+05 0.26014923D+05 0.12214491D+01  1  2 15  3  6  5        4 0.428524470376D-02 0.100000000000D+01
  </mgrwgt>
  </event>
  <event>
  5     66 -.42980143E-03 0.11459789E+03 0.75467711E-02 0.11631948E+00
        1 -1    0    0  502    0 0.00000000E+00 0.00000000E+00 0.92127742E+02 0.92128298E+02 0.32000000E+00 0.0000E+00 0.9000E+01
       21 -1    0    0  501  502 -.00000000E+00 -.00000000E+00 -.60475533E+03 0.60475580E+03 0.75000000E+00 0.0000E+00 0.9000E+01
       25  1    1    2    0    0 -.10637052E+03 -.56738706E+02 -.12458526E+03 0.21372986E+03 0.12500000E+03 0.0000E+00 0.9000E+01
      -24  1    1    2    0    0 0.26709420E+01 0.79632242E+01 -.24507194E+01 0.80893565E+02 0.80419002E+02 0.0000E+00 0.9000E+01
        2  1    1    2  501    0 0.10369958E+03 0.48775482E+02 -.38559161E+03 0.40226067E+03 0.32000000E+00 0.0000E+00 0.9000E+01
#aMCatNLO 1  0  0  5  2 0.12983354D+02 0.00000000D+00  -5  6  0 0.00000000D+00 0.00000000D+00 0.00000000D+00 0.00000000D+00 0.00000000D+00
  <mgrwgt>
 -.6968127227D-01    7    2    0
 0.236040460351158D+03 0.000000000000000D+00 0.000000000000000D+00 0.236040460351158D+03
 0.236040460351158D+03 -.000000000000000D+00 -.000000000000000D+00 -.236040460351158D+03
 0.180221508186609D+03 -.106370585149801D+03 -.567387371592288D+02 0.481747478822779D+02
 0.116753606420996D+03 0.267089913719882D+01 0.796320401429865D+01 0.842237634967939D+02
 0.175105806094711D+03 0.103699686012602D+03 0.487755331449301D+02 -.132398511379072D+03
 0.000000000000000D+00 0.000000000000000D+00 0.000000000000000D+00 -.000000000000000D+00
 0.236040460351158D+03 0.000000000000000D+00 0.000000000000000D+00 0.236040460351158D+03
 0.236040460351158D+03 -.000000000000000D+00 -.000000000000000D+00 -.236040460351158D+03
 0.179477663381948D+03 -.105679499314610D+03 -.564136823653674D+02 0.472924044603001D+02
 0.116367513248050D+03 0.311879203332217D+01 0.817387210443721D+01 0.836519165126402D+02
 0.140645112533201D+03 0.867734448917876D+02 0.493680573048276D+02 -.990667040888908D+02
 0.355906315391176D+02 0.157872623895004D+02 -.112824704389748D+01 -.318776168840495D+02
0.637906062130D-05 0.000000000000D+00 0.000000000000D+00 0.506055905048D-06 0.000000000000D+00  6 1 21 25 -24 2 21 2 0.14173577D-01 0.93039361D-01 0.34061979D+05 0.34061979D+05 0.34061979D+05 0.12091526D+01  1  2  2  3  6  5        2 0.390600061373D-02 0.100000000000D+01
-.199243950220D-06 0.336632277435D-06 -.128774855056D-07 0.506055905048D-06 0.000000000000D+00  6 1 21 25 -24 2 21 4 0.14173577D-01 0.93039361D-01 0.34061979D+05 0.34061979D+05 0.34061979D+05 0.12091526D+01  1  2  3  3  6  5        2 -.178370469402D-03 0.100000000000D+01
0.672061229778D-06 0.000000000000D+00 0.000000000000D+00 0.506055905048D-06 0.000000000000D+00  6 1 21 25 -24 2 21 4 0.14173577D-01 0.93039361D-01 0.34061979D+05 0.34061979D+05 0.34061979D+05 0.12091526D+01  1  2 15  3  6  5        2 0.601653786175D-03 0.100000000000D+01
0.423875126902D-04 0.000000000000D+00 0.000000000000D+00 0.505939474806D-06 0.000000000000D+00  6 1 21 25 -24 2 21 4 0.14173577D-01 0.93039361D-01 0.34167646D+05 0.34167646D+05 0.34167646D+05 0.12090135D+01  1  2 12  3  6  5        2 0.379260533262D-01 0.100000000000D+01
-.135440338246D-03 0.000000000000D+00 0.000000000000D+00 0.506055905048D-06 0.000000000000D+00  6 1 21 25 -24 2 21 4 0.14173577D-01 0.93039361D-01 0.34061979D+05 0.34061979D+05 0.34061979D+05 0.12091526D+01  1  2  4  3  6  5        2 -.121251143045D+00 0.100000000000D+01
-.465765740900D-04 0.000000000000D+00 0.000000000000D+00 0.506055905048D-06 0.000000000000D+00  6 1 21 25 -24 2 21 4 0.14173577D-01 0.93039361D-01 0.34061979D+05 0.34061979D+05 0.34061979D+05 0.12091526D+01  1  2  5  3  6  5        2 -.416970521533D-01 0.100000000000D+01
0.569811240037D-04 0.000000000000D+00 -.000000000000D+00 0.506055905048D-06 0.000000000000D+00  6 1 21 25 -24 2 21 4 0.14173577D-01 0.93039361D-01 0.34061979D+05 0.34061979D+05 0.34061979D+05 0.12091526D+01  1  2  6  3  6  5        2 0.510115856685D-01 0.100000000000D+01
  </mgrwgt>
  </event>
  <event>
  6     66 0.42980143E-03 0.23717934E+02 0.75467711E-02 0.11727970E+00
        1 -1    0    0  502    0 0.00000000E+00 0.00000000E+00 0.10462539E+04 0.10462540E+04 0.32000000E+00 0.0000E+00 0.9000E+01
       21 -1    0    0  501  502 0.00000000E+00 0.00000000E+00 -.40135941E+02 0.40142948E+02 0.75000000E+00 0.0000E+00 0.9000E+01
       25  1    1    2    0    0 -.10788868E+03 -.65861507E+02 0.32109104E+03 0.36701793E+03 0.12500000E+03 0.0000E+00 0.9000E+01
      -24  1    1    2    0    0 0.56809995E+02 0.19981624E+02 0.19260688E+03 0.21723551E+03 0.80419002E+02 0.0000E+00 0.9000E+01
        2  1    1    2  503    0 0.15941580E+02 0.28009997E+02 0.40456649E+03 0.40584830E+03 0.32000000E+00 0.0000E+00 0.9000E+01
       21  1    1    2  501  503 0.35137107E+02 0.17869887E+02 0.87853567E+02 0.96295176E+02 0.75000000E+00 0.0000E+00 0.9000E+01
#aMCatNLO 2  0  0  5  2 0.31897369D+02 0.00000000D+00  -5  6  0 0.00000000D+00 0.00000000D+00 0.00000000D+00 0.00000000D+00 0.00000000D+00
  <mgrwgt>
 0.4186321655D-01    2    2    0
 0.204929789842516D+03 0.000000000000000D+00 0.000000000000000D+00 0.204929789842516D+03
 0.204929789842516D+03 -.000000000000000D+00 -.000000000000000D+00 -.204929789842516D+03
 0.191729228830058D+03 -.113272847298697D+03 -.706976701887855D+02 -.574995537590737D+02
 0.101953561863552D+03 0.538778209448314D+02 0.173478868623017D+02 -.268987742089503D+02
 0.116176788991421D+03 0.593950263538652D+02 0.533497833264838D+02 0.843983279680240D+02
 0.000000000000000D+00 0.000000000000000D+00 0.000000000000000D+00 0.000000000000000D+00
 0.204929789842516D+03 0.000000000000000D+00 0.000000000000000D+00 0.204929789842516D+03
 0.204929789842516D+03 -.000000000000000D+00 -.000000000000000D+00 -.204929789842516D+03
 0.184602999658702D+03 -.107869037071768D+03 -.658438613357265D+02 -.498209217959855D+02
 0.103012345730390D+03 0.568209567800894D+02 0.199914694777207D+02 -.227166775128624D+02
 0.824048428241480D+02 0.156805068209480D+02 0.278356763953581D+02 0.759595612567874D+02
 0.398393914717921D+02 0.353675734707308D+02 0.180167154626478D+02 -.342196194793951D+01
-.390053587120D-05 0.000000000000D+00 0.000000000000D+00 0.114885016307D-06 0.000000000000D+00  6 1 21 25 -24 2 21 4 0.16096268D+00 0.61753030D-02 0.30602252D+05 0.30602252D+05 0.30602252D+05 0.12139935D+01  1  2 13  3  6  5        2 -.264998921514D-01 0.100000000000D+01
0.100624091694D-04 0.000000000000D+00 0.000000000000D+00 0.114344612479D-06 0.171222752872D-08  6 1 21 25 -24 2 21 4 0.16096268D+00 0.61753030D-02 0.30602252D+05 0.30602252D+05 0.30602252D+05 0.12139935D+01  1  2  1  3  6  5        2 0.683631087057D-01 0.100000000000D+01
  </mgrwgt>
  </event>
  <event>
  5     66 0.42980143E-03 0.12746380E+03 0.75467711E-02 0.11268611E+00
        1 -1    0    0  502    0 0.00000000E+00 0.00000000E+00 0.60643070E+03 0.60643079E+03 0.32000000E+00 0.0000E+00 0.9000E+01
       21 -1    0    0  501  502 0.00000000E+00 0.00000000E+00 -.10960836E+03 0.10961093E+03 0.75000000E+00 0.0000E+00 0.9000E+01
       25  1    1    2    0    0 0.12503894E+03 -.97436029E+02 0.38042850E+03 0.43067315E+03 0.12500000E+03 0.0000E+00 0.9000E+01
      -24  1    1    2    0    0 -.98144179E+02 -.27157873E+02 0.81444375E+02 0.15319997E+03 0.80419002E+02 0.0000E+00 0.9000E+01
        2  1    1    2  501    0 -.26894765E+02 0.12459390E+03 0.34949469E+02 0.13216859E+03 0.32000000E+00 0.0000E+00 0.9000E+01
#aMCatNLO 1  0  0  5  2 0.22115417D+01 0.00000000D+00  -5  6  0 0.00000000D+00 0.00000000D+00 0.00000000D+00 0.00000000D+00 0.00000000D+00
  <mgrwgt>
 0.3180200316D-01    6    2    0
 0.257819362563674D+03 0.000000000000000D+00 0.000000000000000D+00 0.257819362563674D+03
 0.257819362563674D+03 -.000000000000000D+00 -.000000000000000D+00 -.257819362563674D+03
 0.231508244557559D+03 0.125038971894704D+03 -.974361565219182D+02 0.113324834912186D+03
 0.134268779444692D+03 -.981441630273236D+02 -.271579468810073D+02 -.345117134328533D+02
 0.149861701125097D+03 -.268948088673805D+02 0.124594103402925D+03 -.788131214793329D+02
 0.000000000000000D+00 0.000000000000000D+00 0.000000000000000D+00 0.000000000000000D+00
 0.257819362563674D+03 0.000000000000000D+00 0.000000000000000D+00 0.257819362563674D+03
 0.257819362563674D+03 -.000000000000000D+00 -.000000000000000D+00 -.257819362563674D+03
 0.231205636421197D+03 0.124961809847718D+03 -.970786921462311D+02 0.113098717604095D+03
 0.134293513303222D+03 -.981889484057262D+02 -.269504721190504D+02 -.346429534608435D+02
 0.306984356913614D+01 -.219263526705868D+01 0.835427100862869D+00 -.197948268084519D+01
 0.147069731833793D+03 -.245802261749328D+02 0.123193737164418D+03 -.764762814624059D+02
0.114770371956D-04 0.000000000000D+00 0.000000000000D+00 0.119867039287D-06 0.000000000000D+00  6 1 21 25 -24 2 21 2 0.93297235D-01 0.16863029D-01 0.52692407D+05 0.52692407D+05 0.52692407D+05 0.11900325D+01  1  2  2  3  6  5        2 0.196376938679D-01 0.100000000000D+01
-.587609596342D-06 0.605659892380D-06 -.231688314170D-07 0.119867039287D-06 0.000000000000D+00  6 1 21 25 -24 2 21 4 0.93297235D-01 0.16863029D-01 0.52692407D+05 0.52692407D+05 0.52692407D+05 0.11900325D+01  1  2  3  3  6  5        2 -.142385973341D-02 0.100000000000D+01
0.114192035740D-05 0.000000000000D+00 0.000000000000D+00 0.119867039287D-06 0.000000000000D+00  6 1 21 25 -24 2 21 4 0.93297235D-01 0.16863029D-01 0.52692407D+05 0.52692407D+05 0.52692407D+05 0.11900325D+01  1  2 15  3  6  5        2 0.276703176018D-02 0.100000000000D+01
0.911665473918D-08 0.000000000000D+00 0.000000000000D+00 0.119856719869D-06 0.000000000000D+00  6 1 21 25 -24 2 21 4 0.93297235D-01 0.16863029D-01 0.52755573D+05 0.52755573D+05 0.52755573D+05 0.11899813D+01  1  2 12  3  6  5        2 0.220865063924D-04 0.100000000000D+01
-.356601923939D-05 0.000000000000D+00 0.000000000000D+00 0.119867039287D-06 0.000000000000D+00  6 1 21 25 -24 2 21 4 0.93297235D-01 0.16863029D-01 0.52692407D+05 0.52692407D+05 0.52692407D+05 0.11900325D+01  1  2  5  3  6  5        2 -.864096031644D-02 0.100000000000D+01
0.802425997026D-05 0.000000000000D+00 0.000000000000D+00 0.119867039287D-06 0.450683770273D-08  6 1 21 25 -24 2 21 4 0.93297235D-01 0.16863029D-01 0.52755573D+05 0.52755573D+05 0.52755573D+05 0.11899813D+01  1  2 11  3  6  5        2 0.194400110784D-01 0.100000000000D+01
  </mgrwgt>
  </event>
  <event>
  5     66 0.42980143E-03 0.24458038E+02 0.75467711E-02 0.10523010E+00
        1 -1    0    0  502    0 0.00000000E+00 0.00000000E+00 0.56852386E+03 0.56852395E+03 0.32000000E+00 0.0000E+00 0.9000E+01
       21 -1    0    0  501  502 0.00000000E+00 0.00000000E+00 -.27126912E+02 0.27137278E+02 0.75000000E+00 0.0000E+00 0.9000E+01
       25  1    1    2    0    0 0.18298433E+02 -.20753404E+02 0.32343330E+03 0.34785002E+03 0.12500000E+03 0.0000E+00 0.9000E+01
      -24  1    1    2    0    0 0.40813842E+01 0.10889234E+02 0.20413704E+03 0.21971431E+03 0.80419002E+02 0.0000E+00 0.9000E+01
        2  1    1    2  501    0 -.22379817E+02 0.98641700E+01 0.13826612E+02 0.28096898E+02 0.32000000E+00 0.0000E+00 0.9000E+01
#aMCatNLO 1  0  0  2  2 0.34659478D+03 0.00000000D+00  -5  6  0 0.00000000D+00 0.00000000D+00 0.00000000D+00 0.00000000D+00 0.00000000D+00
  <mgrwgt>
 0.8576336196D-01   12    2    0
 0.124199077912972D+03 0.000000000000000D+00 0.000000000000000D+00 0.124199077912972D+03
 0.124199077912972D+03 0.000000000000000D+00 0.000000000000000D+00 -.124199077912972D+03
 0.129207920429881D+03 0.182988629580469D+02 -.207535938460874D+02 0.174392275840599D+02
 0.819496369598254D+02 0.408165683716759D+01 0.108891143072131D+02 0.106439800142939D+02
 0.372405984362374D+02 -.223805197952145D+02 0.986447953887423D+01 -.280832075983538D+02
 0.000000000000000D+00 -.000000000000000D+00 0.000000000000000D+00 -.000000000000000D+00
 0.238557818792263D+03 0.000000000000000D+00 0.000000000000000D+00 0.238557818792263D+03
 0.139788165932079D+04 0.000000000000000D+00 0.000000000000000D+00 -.139788165932079D+04
 0.258534495243615D+03 0.189624843814620D+03 -.122284002144283D+03 0.174392275840599D+02
 0.137832984876170D+03 0.101193738825610D+03 -.466609973902569D+02 0.106439800142939D+02
 0.300473249471526D+02 0.735099527114009D+01 -.775487304804026D+01 -.280832075983538D+02
 0.121002467304612D+04 -.298169577911370D+03 0.176699872582580D+03 -.115932384052853D+04
0.116695699315D-05 0.000000000000D+00 0.000000000000D+00 0.199428993287D-05 0.000000000000D+00  6 1 21 25 -24 2 21 2 0.87466014D-01 0.41741754D-02 0.13658493D+05 0.13658493D+05 0.13658493D+05 0.12524879D+01  1  2  2  2  6  2       21 0.276494687159D-01 0.100000000000D+01
0.708408687607D-07 0.615820123990D-07 -.235574995396D-08 0.199428993287D-05 0.000000000000D+00  6 1 21 25 -24 2 21 4 0.87466014D-01 0.41741754D-02 0.13658493D+05 0.13658493D+05 0.13658493D+05 0.12524879D+01  1  2  3  2  6  2       21 0.263307303393D-02 0.100000000000D+01
0.112816273175D-06 0.000000000000D+00 0.000000000000D+00 0.199428993287D-05 0.000000000000D+00  6 1 21 25 -24 2 21 4 0.87466014D-01 0.41741754D-02 0.13658493D+05 0.13658493D+05 0.13658493D+05 0.12524879D+01  1  2 15  2  6  2       21 0.419325019416D-02 0.100000000000D+01
0.245742731101D-03 0.000000000000D+00 -.139576780815D-03 0.199428993287D-05 0.000000000000D+00  6 1 21 25 -24 2 21 4 0.87466014D-01 0.84636763D-01 0.13658493D+05 0.13658493D+05 0.13658493D+05 0.12524879D+01  1  2  5  2  6  2       21 0.325932048658D-01 0.100000000000D+01
0.109479322740D-03 0.000000000000D+00 -.617968613000D-04 0.199428993287D-05 0.000000000000D+00  6 1 -1 25 -24 2 -1 4 0.87466014D-01 0.84636763D-01 0.13658493D+05 0.13658493D+05 0.13658493D+05 0.12524879D+01  1  2  5  5  6  2       21 0.158349364670D-02 0.100000000000D+01
0.109479322740D-03 0.000000000000D+00 -.617968613000D-04 0.199428993287D-05 0.000000000000D+00  6 1 1 25 -24 2 1 4 0.87466014D-01 0.84636763D-01 0.13658493D+05 0.13658493D+05 0.13658493D+05 0.12524879D+01  1  2  5  6  6  2       21 0.512055468546D-02 0.100000000000D+01
0.109479322740D-03 0.000000000000D+00 -.617968613000D-04 0.199428993287D-05 0.000000000000D+00  6 1 -2 25 -24 2 -2 4 0.87466014D-01 0.84636763D-01 0.13658493D+05 0.13658493D+05 0.13658493D+05 0.12524879D+01  1  2  5  7  6  2       21 0.119487038330D-02 0.100000000000D+01
0.109479322740D-03 0.000000000000D+00 -.617968613000D-04 0.199428993287D-05 0.000000000000D+00  6 1 2 25 -24 2 2 4 0.87466014D-01 0.84636763D-01 0.13658493D+05 0.13658493D+05 0.13658493D+05 0.12524879D+01  1  2  5  8  6  2       21 0.812448673765D-02 0.100000000000D+01
0.109479322740D-03 0.000000000000D+00 -.617968613000D-04 0.199428993287D-05 0.000000000000D+00  6 1 -3 25 -24 2 -3 4 0.87466014D-01 0.84636763D-01 0.13658493D+05 0.13658493D+05 0.13658493D+05 0.12524879D+01  1  2  5  9  6  2       21 0.741425310614D-03 0.100000000000D+01
0.109479322740D-03 0.000000000000D+00 -.617968613000D-04 0.199428993287D-05 0.000000000000D+00  6 1 -4 25 -24 2 -4 4 0.87466014D-01 0.84636763D-01 0.13658493D+05 0.13658493D+05 0.13658493D+05 0.12524879D+01  1  2  5  9  6  2       21 0.593526980194D-03 0.100000000000D+01
0.109479322740D-03 0.000000000000D+00 -.617968613000D-04 0.199428993287D-05 0.000000000000D+00  6 1 3 25 -24 2 3 4 0.87466014D-01 0.84636763D-01 0.13658493D+05 0.13658493D+05 0.13658493D+05 0.12524879D+01  1  2  5 10  6  2       21 0.742480429533D-03 0.100000000000D+01
0.109479322740D-03 0.000000000000D+00 -.617968613000D-04 0.199428993287D-05 0.000000000000D+00  6 1 4 25 -24 2 4 4 0.87466014D-01 0.84636763D-01 0.13658493D+05 0.13658493D+05 0.13658493D+05 0.12524879D+01  1  2  5 10  6  2       21 0.593526980194D-03 0.100000000000D+01
  </mgrwgt>
  </event>
  <event>
  5     66 0.42980143E-03 0.30124455E+02 0.75467711E-02 0.11916937E+00
        1 -1    0    0  502    0 0.00000000E+00 0.00000000E+00 0.92065644E+02 0.92066200E+02 0.32000000E+00 0.0000E+00 0.9000E+01
       21 -1    0    0  501  502 0.00000000E+00 0.00000000E+00 -.27210105E+03 0.27210208E+03 0.75000000E+00 0.0000E+00 0.9000E+01
       25  1    1    2    0    0 -.89938449E+02 -.81251608E+01 -.12586909E+03 0.19905519E+03 0.12500000E+03 0.0000E+00 0.9000E+01
      -24  1    1    2    0    0 0.88265615E+02 0.38201595E+02 -.38435427E+02 0.13112848E+03 0.80419002E+02 0.0000E+00 0.9000E+01
        2  1    1    2  501    0 0.16728344E+01 -.30076434E+02 -.15730892E+02 0.33984609E+02 0.32000000E+00 0.0000E+00 0.9000E+01
#aMCatNLO 1  0  0  2  1 0.49896247D+01 0.00000000D+00  -5  6  0 0.00000000D+00 0.00000000D+00 0.00000000D+00 0.00000000D+00 0.00000000D+00
  <mgrwgt>
 0.2560249342D+00   32    2    0
 0.158276491746042D+03 0.000000000000000D+00 0.000000000000000D+00 0.158276491746042D+03
 0.158276491746042D+03 0.000000000000000D+00 0.000000000000000D+00 -.158276491746042D+03
 0.157410276880015D+03 -.899384958626723D+02 -.812431837819211D+01 -.315920509035572D+02
 0.128993099773372D+03 0.882655762218702D+02 0.382022856696467D+02 0.303607848812976D+02
 0.301496068386963D+02 0.167291964080209D+01 -.300779672914545D+02 0.123126602225958D+01
 0.000000000000000D+00 -.000000000000000D+00 -.000000000000000D+00 -.000000000000000D+00
 0.160271998728101D+03 0.000000000000000D+00 0.000000000000000D+00 0.160271998728101D+03
 0.161446240279077D+03 0.000000000000000D+00 0.000000000000000D+00 -.161446240279077D+03
 0.156360673859304D+03 -.882355690421449D+02 -.633142995313270D+01 -.315920509035572D+02
 0.130403871980189D+03 0.896733995379609D+02 0.396844809686589D+02 0.303607848812976D+02
 0.298277593606080D+02 0.199843436829593D+01 -.297352563892155D+02 0.123126602225958D+01
 0.512593380707678D+01 -.343626486411197D+01 -.361779462631073D+01 -.117424155097639D+01
0.879224746141D-05 0.000000000000D+00 0.000000000000D+00 0.384271889075D-06 0.000000000000D+00  6 1 21 25 -24 2 21 2 0.14164067D-01 0.41861822D-01 0.23978697D+05 0.23978697D+05 0.23978697D+05 0.12252445D+01  1  2  2  2  6  2       21 0.312264162974D-01 0.100000000000D+01
0.203218485299D-06 0.463979645659D-06 -.177490144658D-07 0.384271889075D-06 0.000000000000D+00  6 1 21 25 -24 2 21 4 0.14164067D-01 0.41861822D-01 0.23978697D+05 0.23978697D+05 0.23978697D+05 0.12252445D+01  1  2  3  2  6  2       21 0.108350516036D-02 0.100000000000D+01
0.999960802785D-06 0.000000000000D+00 0.000000000000D+00 0.384271889075D-06 0.000000000000D+00  6 1 21 25 -24 2 21 4 0.14164067D-01 0.41861822D-01 0.23978697D+05 0.23978697D+05 0.23978697D+05 0.12252445D+01  1  2 15  2  6  2       21 0.533151641387D-02 0.100000000000D+01
0.470322149436D-05 0.000000000000D+00 0.000000000000D+00 0.383325382127D-06 0.000000000000D+00  6 1 21 25 -24 2 21 4 0.14164067D-01 0.42959752D-01 0.24766603D+05 0.24766603D+05 0.24766603D+05 0.12237346D+01  1  2 12  2  6  2       21 0.236775663497D-01 0.100000000000D+01
-.388409256177D-05 0.000000000000D+00 0.000000000000D+00 0.384271889075D-06 0.000000000000D+00  6 1 21 25 -24 2 21 4 0.14164067D-01 0.41861822D-01 0.23978697D+05 0.23978697D+05 0.23978697D+05 0.12252445D+01  1  2  4  2  6  2       21 -.207089149778D-01 0.100000000000D+01
-.632454796343D-03 0.000000000000D+00 -.843546402516D-04 0.384271889075D-06 0.000000000000D+00  6 1 21 25 -24 2 21 4 0.14164067D-01 0.43182851D-01 0.23978697D+05 0.23978697D+05 0.23978697D+05 0.12252445D+01  1  2  5  2  6  2       21 -.316635816286D+01 0.100000000000D+01
0.633839809164D-03 0.000000000000D+00 0.841920083838D-04 0.384271889075D-06 0.000000000000D+00  6 1 21 25 -24 2 21 4 0.14164067D-01 0.41861822D-01 0.23978697D+05 0.23978697D+05 0.23978697D+05 0.12252445D+01  1  2  6  2  6  2       21 0.337945981173D+01 0.100000000000D+01
0.322766110394D-05 0.000000000000D+00 0.000000000000D+00 0.384271889075D-06 0.352479007808D-06  6 1 21 25 -24 2 21 4 0.14342644D-01 0.42700175D-01 0.24766603D+05 0.24766603D+05 0.24766603D+05 0.12237346D+01  1  2 11  2  6  2       21 0.161835914883D-01 0.100000000000D+01
0.156938542890D-06 0.000000000000D+00 0.000000000000D+00 0.383325382127D-06 0.000000000000D+00  6 1 -1 25 -24 2 -1 4 0.14164067D-01 0.42959752D-01 0.24766603D+05 0.24766603D+05 0.24766603D+05 0.12237346D+01  1  2 12  5  6  2       21 0.751358567051D-04 0.100000000000D+01
-.400324902686D-05 0.000000000000D+00 -.609609850665D-06 0.384271889075D-06 0.000000000000D+00  6 1 -1 25 -24 2 -1 4 0.14164067D-01 0.43182851D-01 0.23978697D+05 0.23978697D+05 0.23978697D+05 0.12252445D+01  1  2  5  5  6  2       21 -.190712096854D-02 0.100000000000D+01
0.385081753525D-06 0.000000000000D+00 0.000000000000D+00 0.384271889075D-06 0.987728107233D-09  6 1 -1 25 -24 2 -1 4 0.14342644D-01 0.42700175D-01 0.24766603D+05 0.24766603D+05 0.24766603D+05 0.12237346D+01  1  2 11  5  6  2       21 0.183341716437D-03 0.100000000000D+01
0.156938542890D-06 0.000000000000D+00 0.000000000000D+00 0.383325382127D-06 0.000000000000D+00  6 1 1 25 -24 2 1 4 0.14164067D-01 0.42959752D-01 0.24766603D+05 0.24766603D+05 0.24766603D+05 0.12237346D+01  1  2 12  6  6  2       21 0.157247241669D-03 0.100000000000D+01
-.400324902686D-05 0.000000000000D+00 -.609609850665D-06 0.384271889075D-06 0.000000000000D+00  6 1 1 25 -24 2 1 4 0.14164067D-01 0.43182851D-01 0.23978697D+05 0.23978697D+05 0.23978697D+05 0.12252445D+01  1  2  5  6  6  2       21 -.400234123911D-02 0.100000000000D+01
0.396897158030D-06 0.000000000000D+00 0.000000000000D+00 0.384271889075D-06 0.152932006576D-08  6 1 1 25 -24 2 1 4 0.14342644D-01 0.42700175D-01 0.24766603D+05 0.24766603D+05 0.24766603D+05 0.12237346D+01  1  2 11  6  6  2       21 0.394188762081D-03 0.100000000000D+01
0.156938542890D-06 0.000000000000D+00 0.000000000000D+00 0.383325382127D-06 0.000000000000D+00  6 1 -2 25 -24 2 -2 4 0.14164067D-01 0.42959752D-01 0.24766603D+05 0.24766603D+05 0.24766603D+05 0.12237346D+01  1  2 12  7  6  2       21 0.629197773887D-04 0.100000000000D+01
-.400324902686D-05 0.000000000000D+00 -.609609850665D-06 0.384271889075D-06 0.000000000000D+00  6 1 -2 25 -24 2 -2 4 0.14164067D-01 0.43182851D-01 0.23978697D+05 0.23978697D+05 0.23978697D+05 0.12252445D+01  1  2  5  7  6  2       21 -.159573013178D-02 0.100000000000D+01
0.197762937767D-05 0.000000000000D+00 0.000000000000D+00 0.384271889075D-06 0.213190606534D-06  6 1 -2 25 -24 2 -2 4 0.14342644D-01 0.42700175D-01 0.24766603D+05 0.24766603D+05 0.24766603D+05 0.12237346D+01  1  2 11  7  6  2       21 0.789167061843D-03 0.100000000000D+01
0.156938542890D-06 0.000000000000D+00 0.000000000000D+00 0.383325382127D-06 0.000000000000D+00  6 1 2 25 -24 2 2 4 0.14164067D-01 0.42959752D-01 0.24766603D+05 0.24766603D+05 0.24766603D+05 0.12237346D+01  1  2 12  8  6  2       21 0.219533866159D-03 0.100000000000D+01
-.400324902686D-05 0.000000000000D+00 -.609609850665D-06 0.384271889075D-06 0.000000000000D+00  6 1 2 25 -24 2 2 4 0.14164067D-01 0.43182851D-01 0.23978697D+05 0.23978697D+05 0.23978697D+05 0.12252445D+01  1  2  5  8  6  2       21 -.559226894080D-02 0.100000000000D+01
0.376058470699D-06 0.000000000000D+00 0.000000000000D+00 0.384271889075D-06 0.504179604792D-09  6 1 2 25 -24 2 2 4 0.14342644D-01 0.42700175D-01 0.24766603D+05 0.24766603D+05 0.24766603D+05 0.12237346D+01  1  2 11  8  6  2       21 0.520878179762D-03 0.100000000000D+01
0.156938542890D-06 0.000000000000D+00 0.000000000000D+00 0.383325382127D-06 0.000000000000D+00  6 1 -3 25 -24 2 -3 4 0.14164067D-01 0.42959752D-01 0.24766603D+05 0.24766603D+05 0.24766603D+05 0.12237346D+01  1  2 12  9  6  2       21 0.396576421463D-04 0.100000000000D+01
0.156938542890D-06 0.000000000000D+00 0.000000000000D+00 0.383325382127D-06 0.000000000000D+00  6 1 -4 25 -24 2 -4 4 0.14164067D-01 0.42959752D-01 0.24766603D+05 0.24766603D+05 0.24766603D+05 0.12237346D+01  1  2 12  9  6  2       21 0.328610432985D-04 0.100000000000D+01
-.400324902686D-05 0.000000000000D+00 -.609609850665D-06 0.384271889075D-06 0.000000000000D+00  6 1 -3 25 -24 2 -3 4 0.14164067D-01 0.43182851D-01 0.23978697D+05 0.23978697D+05 0.23978697D+05 0.12252445D+01  1  2  5  9  6  2       21 -.100490892592D-02 0.100000000000D+01
-.400324902686D-05 0.000000000000D+00 -.609609850665D-06 0.384271889075D-06 0.000000000000D+00  6 1 -4 25 -24 2 -4 4 0.14164067D-01 0.43182851D-01 0.23978697D+05 0.23978697D+05 0.23978697D+05 0.12252445D+01  1  2  5  9  6  2       21 -.832207058574D-03 0.100000000000D+01
0.384815425075D-06 0.000000000000D+00 0.000000000000D+00 0.384271889075D-06 0.987044979317D-09  6 1 -3 25 -24 2 -3 4 0.14342644D-01 0.42700175D-01 0.24766603D+05 0.24766603D+05 0.24766603D+05 0.12237346D+01  1  2 11  9  6  2       21 0.968044715392D-04 0.100000000000D+01
0.384815425075D-06 0.000000000000D+00 0.000000000000D+00 0.384271889075D-06 0.987044979317D-09  6 1 -4 25 -24 2 -4 4 0.14342644D-01 0.42700175D-01 0.24766603D+05 0.24766603D+05 0.24766603D+05 0.12237346D+01  1  2 11  9  6  2       21 0.802340055877D-04 0.100000000000D+01
0.156938542890D-06 0.000000000000D+00 0.000000000000D+00 0.383325382127D-06 0.000000000000D+00  6 1 3 25 -24 2 3 4 0.14164067D-01 0.42959752D-01 0.24766603D+05 0.24766603D+05 0.24766603D+05 0.12237346D+01  1  2 12 10  6  2       21 0.396678831068D-04 0.100000000000D+01
0.156938542890D-06 0.000000000000D+00 0.000000000000D+00 0.383325382127D-06 0.000000000000D+00  6 1 4 25 -24 2 4 4 0.14164067D-01 0.42959752D-01 0.24766603D+05 0.24766603D+05 0.24766603D+05 0.12237346D+01  1  2 12 10  6  2       21 0.328610432985D-04 0.100000000000D+01
-.400324902686D-05 0.000000000000D+00 -.609609850665D-06 0.384271889075D-06 0.000000000000D+00  6 1 3 25 -24 2 3 4 0.14164067D-01 0.43182851D-01 0.23978697D+05 0.23978697D+05 0.23978697D+05 0.12252445D+01  1  2  5 10  6  2       21 -.100517256117D-02 0.100000000000D+01
-.400324902686D-05 0.000000000000D+00 -.609609850665D-06 0.384271889075D-06 0.000000000000D+00  6 1 4 25 -24 2 4 4 0.14164067D-01 0.43182851D-01 0.23978697D+05 0.23978697D+05 0.23978697D+05 0.12252445D+01  1  2  5 10  6  2       21 -.832207058574D-03 0.100000000000D+01
0.384815425075D-06 0.000000000000D+00 0.000000000000D+00 0.384271889075D-06 0.987044979317D-09  6 1 3 25 -24 2 3 4 0.14342644D-01 0.42700175D-01 0.24766603D+05 0.24766603D+05 0.24766603D+05 0.12237346D+01  1  2 11 10  6  2       21 0.968289368944D-04 0.100000000000D+01
0.384815425075D-06 0.000000000000D+00 0.000000000000D+00 0.384271889075D-06 0.987044979317D-09  6 1 4 25 -24 2 4 4 0.14342644D-01 0.42700175D-01 0.24766603D+05 0.24766603D+05 0.24766603D+05 0.12237346D+01  1  2 11 10  6  2       21 0.802340055877D-04 0.100000000000D+01
  </mgrwgt>
  </event>
  <event>
  5     66 0.42980143E-03 0.52237488E+02 0.75467711E-02 0.11942624E+00
        1 -1    0    0  502    0 0.00000000E+00 0.00000000E+00 0.15254712E+04 0.15254712E+04 0.32000000E+00 0.0000E+00 0.9000E+01
       21 -1    0    0  501  502 0.00000000E+00 0.00000000E+00 -.13752275E+02 0.13772711E+02 0.75000000E+00 0.0000E+00 0.9000E+01
       25  1    1    2    0    0 -.53797920E+02 -.52775552E+02 0.78905322E+03 0.80243969E+03 0.12500000E+03 0.0000E+00 0.9000E+01
      -24  1    1    2    0    0 0.19231471E+02 0.13611172E+02 0.55195011E+03 0.55827525E+03 0.80419002E+02 0.0000E+00 0.9000E+01
        2  1    1    2  501    0 0.34566449E+02 0.39164380E+02 0.17071556E+03 0.17852897E+03 0.32000000E+00 0.0000E+00 0.9000E+01
#aMCatNLO 1  0  0  2  1 0.27615065D+02 0.00000000D+00  -5  6  0 0.00000000D+00 0.00000000D+00 0.00000000D+00 0.00000000D+00 0.00000000D+00
  <mgrwgt>
 0.1634490459D+00   32    2    0
 0.144894626393937D+03 0.000000000000000D+00 0.000000000000000D+00 0.144894626393937D+03
 0.144894626393937D+03 0.000000000000000D+00 0.000000000000000D+00 -.144894626393937D+03
 0.146050319392222D+03 -.537981878721185D+02 -.527758550065850D+02 0.511467541201514D+01
 0.860223683343902D+02 0.192313136008719D+02 0.136109933381762D+02 0.194301141792840D+02
 0.577165650612622D+02 0.345668742712467D+02 0.391648616684087D+02 -.245447895912992D+02
 0.000000000000000D+00 0.000000000000000D+00 0.000000000000000D+00 -.000000000000000D+00
 0.149210679527176D+03 0.000000000000000D+00 0.000000000000000D+00 0.149210679527176D+03
 0.197645539830931D+03 0.000000000000000D+00 0.000000000000000D+00 -.197645539830931D+03
 0.153891025952365D+03 -.642374934733203D+02 -.624886581418299D+02 0.511467541201514D+01
 0.841868520218304D+02 0.133072684666490D+02 0.809922020391822D+01 0.194301141792840D+02
 0.530241709090884D+02 0.307125994163802D+02 0.355788173159822D+02 -.245447895912992D+02
 0.557541704748225D+02 0.202176255902912D+02 0.188106206219295D+02 -.484348603037545D+02
0.167807798500D-05 0.000000000000D+00 0.000000000000D+00 0.500860533771D-06 0.000000000000D+00  6 1 21 25 -24 2 21 2 0.23468945D+00 0.21173092D-02 0.19880647D+05 0.19880647D+05 0.19880647D+05 0.12341123D+01  1  2  2  2  6  2       21 0.225001090057D-01 0.100000000000D+01
-.416987103679D-07 0.885546081690D-07 -.338755597602D-08 0.500860533771D-06 0.000000000000D+00  6 1 21 25 -24 2 21 4 0.23468945D+00 0.21173092D-02 0.19880647D+05 0.19880647D+05 0.19880647D+05 0.12341123D+01  1  2  3  2  6  2       21 -.851538890073D-03 0.100000000000D+01
0.167689615116D-06 0.000000000000D+00 0.000000000000D+00 0.500860533771D-06 0.000000000000D+00  6 1 21 25 -24 2 21 4 0.23468945D+00 0.21173092D-02 0.19880647D+05 0.19880647D+05 0.19880647D+05 0.12341123D+01  1  2 15  2  6  2       21 0.342442793728D-02 0.100000000000D+01
0.642170927872D-05 0.000000000000D+00 0.000000000000D+00 0.493533992580D-06 0.000000000000D+00  6 1 21 25 -24 2 21 4 0.23468945D+00 0.29111425D-02 0.24077150D+05 0.24077150D+05 0.24077150D+05 0.12250528D+01  1  2 12  2  6  2       21 0.756414615422D-01 0.100000000000D+01
0.503228062824D-05 0.000000000000D+00 0.000000000000D+00 0.493533992580D-06 0.000000000000D+00  6 1 21 25 -24 2 21 4 0.23468945D+00 0.31646059D-02 0.24077150D+05 0.24077150D+05 0.24077150D+05 0.12250528D+01  1  2 12  2  6  2       21 0.516560972443D-01 0.100000000000D+01
-.422406210303D-05 0.000000000000D+00 0.000000000000D+00 0.500860533771D-06 0.000000000000D+00  6 1 21 25 -24 2 21 4 0.23468945D+00 0.21173092D-02 0.19880647D+05 0.19880647D+05 0.19880647D+05 0.12341123D+01  1  2  4  2  6  2       21 -.862605371503D-01 0.100000000000D+01
-.151894948068D-04 0.000000000000D+00 -.221189845571D-05 0.500860533771D-06 0.000000000000D+00  6 1 21 25 -24 2 21 4 0.23468945D+00 0.29781797D-02 0.19880647D+05 0.19880647D+05 0.19880647D+05 0.12341123D+01  1  2  5  2  6  2       21 -.177791798676D+00 0.100000000000D+01
0.134743615904D-04 0.000000000000D+00 0.177112230135D-05 0.500860533771D-06 0.000000000000D+00  6 1 21 25 -24 2 21 4 0.23468945D+00 0.21173092D-02 0.19880647D+05 0.19880647D+05 0.19880647D+05 0.12341123D+01  1  2  6  2  6  2       21 0.275163016119D+00 0.100000000000D+01
0.650520772911D-06 0.000000000000D+00 0.000000000000D+00 0.493533992580D-06 0.000000000000D+00  6 1 -1 25 -24 2 -1 4 0.23468945D+00 0.29111425D-02 0.24077150D+05 0.24077150D+05 0.24077150D+05 0.12250528D+01  1  2 12  5  6  2       21 0.396017679903D-03 0.100000000000D+01
0.677377205930D-06 0.000000000000D+00 0.000000000000D+00 0.493533992580D-06 0.000000000000D+00  6 1 -1 25 -24 2 -1 4 0.23468945D+00 0.31646059D-02 0.24077150D+05 0.24077150D+05 0.24077150D+05 0.12250528D+01  1  2 12  5  6  2       21 0.364995810228D-03 0.100000000000D+01
-.126584347433D-05 0.000000000000D+00 -.243897433831D-06 0.500860533771D-06 0.000000000000D+00  6 1 -1 25 -24 2 -1 4 0.23468945D+00 0.29781797D-02 0.19880647D+05 0.19880647D+05 0.19880647D+05 0.12341123D+01  1  2  5  5  6  2       21 -.766870577014D-03 0.100000000000D+01
0.650520772911D-06 0.000000000000D+00 0.000000000000D+00 0.493533992580D-06 0.000000000000D+00  6 1 1 25 -24 2 1 4 0.23468945D+00 0.29111425D-02 0.24077150D+05 0.24077150D+05 0.24077150D+05 0.12250528D+01  1  2 12  6  6  2       21 0.425245983386D-03 0.100000000000D+01
0.677377205930D-06 0.000000000000D+00 0.000000000000D+00 0.493533992580D-06 0.000000000000D+00  6 1 1 25 -24 2 1 4 0.23468945D+00 0.31646059D-02 0.24077150D+05 0.24077150D+05 0.24077150D+05 0.12250528D+01  1  2 12  6  6  2       21 0.394280396687D-03 0.100000000000D+01
-.126584347433D-05 0.000000000000D+00 -.243897433831D-06 0.500860533771D-06 0.000000000000D+00  6 1 1 25 -24 2 1 4 0.23468945D+00 0.29781797D-02 0.19880647D+05 0.19880647D+05 0.19880647D+05 0.12341123D+01  1  2  5  6  6  2       21 -.824983124022D-03 0.100000000000D+01
0.650520772911D-06 0.000000000000D+00 0.000000000000D+00 0.493533992580D-06 0.000000000000D+00  6 1 -2 25 -24 2 -2 4 0.23468945D+00 0.29111425D-02 0.24077150D+05 0.24077150D+05 0.24077150D+05 0.12250528D+01  1  2 12  7  6  2       21 0.390782354346D-03 0.100000000000D+01
0.677377205930D-06 0.000000000000D+00 0.000000000000D+00 0.493533992580D-06 0.000000000000D+00  6 1 -2 25 -24 2 -2 4 0.23468945D+00 0.31646059D-02 0.24077150D+05 0.24077150D+05 0.24077150D+05 0.12250528D+01  1  2 12  7  6  2       21 0.359760255485D-03 0.100000000000D+01
-.126584347433D-05 0.000000000000D+00 -.243897433831D-06 0.500860533771D-06 0.000000000000D+00  6 1 -2 25 -24 2 -2 4 0.23468945D+00 0.29781797D-02 0.19880647D+05 0.19880647D+05 0.19880647D+05 0.12341123D+01  1  2  5  7  6  2       21 -.756461049069D-03 0.100000000000D+01
0.650520772911D-06 0.000000000000D+00 0.000000000000D+00 0.493533992580D-06 0.000000000000D+00  6 1 2 25 -24 2 2 4 0.23468945D+00 0.29111425D-02 0.24077150D+05 0.24077150D+05 0.24077150D+05 0.12250528D+01  1  2 12  8  6  2       21 0.445142776780D-03 0.100000000000D+01
0.677377205930D-06 0.000000000000D+00 0.000000000000D+00 0.493533992580D-06 0.000000000000D+00  6 1 2 25 -24 2 2 4 0.23468945D+00 0.31646059D-02 0.24077150D+05 0.24077150D+05 0.24077150D+05 0.12250528D+01  1  2 12  8  6  2       21 0.414167078001D-03 0.100000000000D+01
-.126584347433D-05 0.000000000000D+00 -.243897433831D-06 0.500860533771D-06 0.000000000000D+00  6 1 2 25 -24 2 2 4 0.23468945D+00 0.29781797D-02 0.19880647D+05 0.19880647D+05 0.19880647D+05 0.12341123D+01  1  2  5  8  6  2       21 -.864497304830D-03 0.100000000000D+01
0.650520772911D-06 0.000000000000D+00 0.000000000000D+00 0.493533992580D-06 0.000000000000D+00  6 1 -3 25 -24 2 -3 4 0.23468945D+00 0.29111425D-02 0.24077150D+05 0.24077150D+05 0.24077150D+05 0.12250528D+01  1  2 12  9  6  2       21 0.297939703271D-03 0.100000000000D+01
0.650520772911D-06 0.000000000000D+00 0.000000000000D+00 0.493533992580D-06 0.000000000000D+00  6 1 -4 25 -24 2 -4 4 0.23468945D+00 0.29111425D-02 0.24077150D+05 0.24077150D+05 0.24077150D+05 0.12250528D+01  1  2 12  9  6  2       21 0.269371647625D-03 0.100000000000D+01
0.677377205930D-06 0.000000000000D+00 0.000000000000D+00 0.493533992580D-06 0.000000000000D+00  6 1 -3 25 -24 2 -3 4 0.23468945D+00 0.31646059D-02 0.24077150D+05 0.24077150D+05 0.24077150D+05 0.12250528D+01  1  2 12  9  6  2       21 0.272567394214D-03 0.100000000000D+01
0.677377205930D-06 0.000000000000D+00 0.000000000000D+00 0.493533992580D-06 0.000000000000D+00  6 1 -4 25 -24 2 -4 4 0.23468945D+00 0.31646059D-02 0.24077150D+05 0.24077150D+05 0.24077150D+05 0.12250528D+01  1  2 12  9  6  2       21 0.246000541435D-03 0.100000000000D+01
-.126584347433D-05 0.000000000000D+00 -.243897433831D-06 0.500860533771D-06 0.000000000000D+00  6 1 -3 25 -24 2 -3 4 0.23468945D+00 0.29781797D-02 0.19880647D+05 0.19880647D+05 0.19880647D+05 0.12341123D+01  1  2  5  9  6  2       21 -.573473197586D-03 0.100000000000D+01
-.126584347433D-05 0.000000000000D+00 -.243897433831D-06 0.500860533771D-06 0.000000000000D+00  6 1 -4 25 -24 2 -4 4 0.23468945D+00 0.29781797D-02 0.19880647D+05 0.19880647D+05 0.19880647D+05 0.12341123D+01  1  2  5  9  6  2       21 -.517292041483D-03 0.100000000000D+01
0.650520772911D-06 0.000000000000D+00 0.000000000000D+00 0.493533992580D-06 0.000000000000D+00  6 1 3 25 -24 2 3 4 0.23468945D+00 0.29111425D-02 0.24077150D+05 0.24077150D+05 0.24077150D+05 0.12250528D+01  1  2 12 10  6  2       21 0.297918377340D-03 0.100000000000D+01
0.650520772911D-06 0.000000000000D+00 0.000000000000D+00 0.493533992580D-06 0.000000000000D+00  6 1 4 25 -24 2 4 4 0.23468945D+00 0.29111425D-02 0.24077150D+05 0.24077150D+05 0.24077150D+05 0.12250528D+01  1  2 12 10  6  2       21 0.269371647625D-03 0.100000000000D+01
0.677377205930D-06 0.000000000000D+00 0.000000000000D+00 0.493533992580D-06 0.000000000000D+00  6 1 3 25 -24 2 3 4 0.23468945D+00 0.31646059D-02 0.24077150D+05 0.24077150D+05 0.24077150D+05 0.12250528D+01  1  2 12 10  6  2       21 0.272546861663D-03 0.100000000000D+01
0.677377205930D-06 0.000000000000D+00 0.000000000000D+00 0.493533992580D-06 0.000000000000D+00  6 1 4 25 -24 2 4 4 0.23468945D+00 0.31646059D-02 0.24077150D+05 0.24077150D+05 0.24077150D+05 0.12250528D+01  1  2 12 10  6  2       21 0.246000541435D-03 0.100000000000D+01
-.126584347433D-05 0.000000000000D+00 -.243897433831D-06 0.500860533771D-06 0.000000000000D+00  6 1 3 25 -24 2 3 4 0.23468945D+00 0.29781797D-02 0.19880647D+05 0.19880647D+05 0.19880647D+05 0.12341123D+01  1  2  5 10  6  2       21 -.573430913460D-03 0.100000000000D+01
-.126584347433D-05 0.000000000000D+00 -.243897433831D-06 0.500860533771D-06 0.000000000000D+00  6 1 4 25 -24 2 4 4 0.23468945D+00 0.29781797D-02 0.19880647D+05 0.19880647D+05 0.19880647D+05 0.12341123D+01  1  2  5 10  6  2       21 -.517292041483D-03 0.100000000000D+01
  </mgrwgt>
  </event>
  <event>
  5     66 -.42980143E-03 0.28007445E+02 0.75467711E-02 0.11206522E+00
        1 -1    0    0  502    0 0.00000000E+00 0.00000000E+00 0.19599344E+03 0.19599370E+03 0.32000000E+00 0.0000E+00 0.9000E+01
       21 -1    0    0  501  502 -.00000000E+00 -.00000000E+00 -.36610585E+03 0.36610662E+03 0.75000000E+00 0.0000E+00 0.9000E+01
       25  1    1    2    0    0 -.15756532E+03 0.10271556E+03 0.45135181E+02 0.23030306E+03 0.12500000E+03 0.0000E+00 0.9000E+01
      -24  1    1    2    0    0 0.16301624E+03 -.13018634E+03 -.18177926E+03 0.28815568E+03 0.80419002E+02 0.0000E+00 0.9000E+01
        2  1    1    2  501    0 -.54509216E+01 0.27470779E+02 -.33468331E+02 0.43641584E+02 0.32000000E+00 0.0000E+00 0.9000E+01
#aMCatNLO 1  0  0  5  2 0.10791351D+02 0.00000000D+00  -5  6  0 0.00000000D+00 0.00000000D+00 0.00000000D+00 0.00000000D+00 0.00000000D+00
  <mgrwgt>
 -.1239699257D+00    5    2    0
 0.267870555223036D+03 0.000000000000000D+00 0.000000000000000D+00 0.267870555223036D+03
 0.267870555223036D+03 -.000000000000000D+00 -.000000000000000D+00 -.267870555223036D+03
 0.255965857585777D+03 -.157565208068722D+03 0.102715017862815D+03 0.120483818670078D+03
 0.244613645677926D+03 0.163016340589096D+03 -.130186859884650D+03 -.992253692953042D+02
 0.351616071823685D+02 -.545113252037334D+01 0.274718420218356D+02 -.212584493747740D+02
 0.000000000000000D+00 0.000000000000000D+00 -.000000000000000D+00 0.000000000000000D+00
 0.267870555223036D+03 0.000000000000000D+00 0.000000000000000D+00 0.267870555223036D+03
 0.267870555223036D+03 -.000000000000000D+00 -.000000000000000D+00 -.267870555223036D+03
 0.256740750656583D+03 -.158452765567494D+03 0.107188003852502D+03 0.117022501946567D+03
 0.243178250579650D+03 0.162171913487117D+03 -.125931236331596D+03 -.102518485126008D+03
 0.108983322997296D+02 0.112958396275368D+01 0.790944691798716D+01 0.741203996467658D+01
 0.249237769101088D+02 -.484873188237612D+01 0.108337855611067D+02 -.219160567852353D+02
0.236183656735D-03 0.000000000000D+00 0.000000000000D+00 0.289310702242D-06 0.000000000000D+00  6 1 21 25 -24 2 21 2 0.30152916D-01 0.56324057D-01 0.56984575D+05 0.56984575D+05 0.56984575D+05 0.11866984D+01  1  2  2  3  6  5        2 0.158925924849D+00 0.100000000000D+01
0.281657886018D-04 0.124637539882D-04 -.476786755421D-06 0.289310702242D-06 0.000000000000D+00  6 1 21 25 -24 2 21 4 0.30152916D-01 0.56324057D-01 0.56984575D+05 0.56984575D+05 0.56984575D+05 0.11866984D+01  1  2  3  3  6  5        2 0.266899357399D-01 0.100000000000D+01
0.233210164809D-04 0.000000000000D+00 0.000000000000D+00 0.289310702242D-06 0.000000000000D+00  6 1 21 25 -24 2 21 4 0.30152916D-01 0.56324057D-01 0.56984575D+05 0.56984575D+05 0.56984575D+05 0.11866984D+01  1  2 15  3  6  5        2 0.220990237506D-01 0.100000000000D+01
0.338952137937D-04 0.000000000000D+00 0.000000000000D+00 0.290058591781D-06 0.000000000000D+00  6 1 21 25 -24 2 21 4 0.30152916D-01 0.56324057D-01 0.54964823D+05 0.54964823D+05 0.54964823D+05 0.11882313D+01  1  2 12  3  6  5        2 0.323201239531D-01 0.100000000000D+01
-.384133035001D-03 0.000000000000D+00 0.000000000000D+00 0.289310702242D-06 0.000000000000D+00  6 1 21 25 -24 2 21 4 0.30152916D-01 0.56324057D-01 0.56984575D+05 0.56984575D+05 0.56984575D+05 0.11866984D+01  1  2  4  3  6  5        2 -.364004933954D+00 0.100000000000D+01
  </mgrwgt>
  </event>
  <event>
  5     66 0.42980143E-03 0.38063048E+02 0.75467711E-02 0.12310078E+00
        1 -1    0    0  502    0 0.00000000E+00 0.00000000E+00 0.28972471E+04 0.28972471E+04 0.32000000E+00 0.0000E+00 0.9000E+01
       21 -1    0    0  501  502 0.00000000E+00 0.00000000E+00 -.12808355E+02 0.12830294E+02 0.75000000E+00 0.0000E+00 0.9000E+01
       25  1    1    2    0    0 0.16523080E+00 -.25514772E+02 0.17383937E+04 0.17430688E+04 0.12500000E+03 0.0000E+00 0.9000E+01
      -24  1    1    2    0    0 -.19484357E+01 -.15924576E+02 0.11070334E+04 0.11100665E+04 0.80419002E+02 0.0000E+00 0.9000E+01
        2  1    1    2  501    0 0.17832049E+01 0.41439348E+02 0.39011558E+02 0.56942106E+02 0.32000000E+00 0.0000E+00 0.9000E+01
#aMCatNLO 1  0  0  2  1 0.38018059D+01 0.00000000D+00  -5  6  0 0.00000000D+00 0.00000000D+00 0.00000000D+00 0.00000000D+00 0.00000000D+00
  <mgrwgt>
 0.1182171447D-01   32    2    0
 0.192719788894801D+03 0.000000000000000D+00 0.000000000000000D+00 0.192719788894801D+03
 0.192719788894801D+03 0.000000000000000D+00 0.000000000000000D+00 -.192719788894801D+03
 0.150931315788717D+03 0.165228924920984D+00 -.255148155973203D+02 0.806488001779968D+02
 0.965373885770050D+02 -.194843692878026D+01 -.159246036973738D+02 0.509397882751123D+02
 0.137970873423880D+03 0.178320800385928D+01 0.414394192946941D+02 -.131588588453109D+03
 0.000000000000000D+00 -.000000000000000D+00 -.000000000000000D+00 -.000000000000000D+00
 0.193401521459122D+03 0.000000000000000D+00 0.000000000000000D+00 0.193401521459122D+03
 0.198103431792542D+03 0.000000000000000D+00 0.000000000000000D+00 -.198103431792542D+03
 0.150842081357673D+03 0.153580826459294D+01 -.249348316845887D+02 0.806488001779968D+02
 0.964631723828081D+02 -.107187662261021D+01 -.155536723244849D+02 0.509397882751123D+02
 0.138153073261091D+03 0.303729395077764D+01 0.419701070508436D+02 -.131588588453109D+03
 0.604662625009204D+01 -.350122559276037D+01 -.148160304176993D+01 -.470191033341981D+01
0.888070083388D-06 0.000000000000D+00 0.000000000000D+00 0.433964178404D-05 0.000000000000D+00  6 1 21 25 -24 2 21 2 0.44573201D+00 0.19722051D-02 0.15757658D+05 0.15757658D+05 0.15757658D+05 0.12453902D+01  1  2  2  2  6  2       21 0.177028546766D-02 0.100000000000D+01
0.853043754799D-07 0.468647458366D-07 -.179275763403D-08 0.433964178404D-05 0.000000000000D+00  6 1 21 25 -24 2 21 4 0.44573201D+00 0.19722051D-02 0.15757658D+05 0.15757658D+05 0.15757658D+05 0.12453902D+01  1  2  3  2  6  2       21 0.263741380974D-03 0.100000000000D+01
0.797713688614D-07 0.000000000000D+00 0.000000000000D+00 0.433964178404D-05 0.000000000000D+00  6 1 21 25 -24 2 21 4 0.44573201D+00 0.19722051D-02 0.15757658D+05 0.15757658D+05 0.15757658D+05 0.12453902D+01  1  2 15  2  6  2       21 0.246634605404D-03 0.100000000000D+01
0.243235582871D-06 0.000000000000D+00 0.000000000000D+00 0.432826294638D-05 0.000000000000D+00  6 1 21 25 -24 2 21 4 0.44573201D+00 0.20307305D-02 0.16290687D+05 0.16290687D+05 0.16290687D+05 0.12437564D+01  1  2 12  2  6  2       21 0.712815016786D-03 0.100000000000D+01
-.108600104959D-04 0.000000000000D+00 0.000000000000D+00 0.433964178404D-05 0.000000000000D+00  6 1 21 25 -24 2 21 4 0.44573201D+00 0.19722051D-02 0.15757658D+05 0.15757658D+05 0.15757658D+05 0.12453902D+01  1  2  4  2  6  2       21 -.335766383550D-01 0.100000000000D+01
-.837968560297D-04 0.000000000000D+00 -.860871533261D-05 0.433964178404D-05 0.000000000000D+00  6 1 21 25 -24 2 21 4 0.44573201D+00 0.20364382D-02 0.15757658D+05 0.15757658D+05 0.15757658D+05 0.12453902D+01  1  2  5  2  6  2       21 -.246030235657D+00 0.100000000000D+01
0.838836233966D-04 0.000000000000D+00 0.859105523652D-05 0.433964178404D-05 0.000000000000D+00  6 1 21 25 -24 2 21 4 0.44573201D+00 0.19722051D-02 0.15757658D+05 0.15757658D+05 0.15757658D+05 0.12453902D+01  1  2  6  2  6  2       21 0.259348744437D+00 0.100000000000D+01
0.101636107591D-04 0.000000000000D+00 0.000000000000D+00 0.433964178404D-05 0.289268389419D-05  6 1 21 25 -24 2 21 4 0.44730876D+00 0.20272988D-02 0.16290687D+05 0.16290687D+05 0.16290687D+05 0.12437564D+01  1  2 11  2  6  2       21 0.293924707452D-01 0.100000000000D+01
0.101340045019D-07 0.000000000000D+00 0.000000000000D+00 0.432826294638D-05 0.000000000000D+00  6 1 -1 25 -24 2 -1 4 0.44573201D+00 0.20307305D-02 0.16290687D+05 0.16290687D+05 0.16290687D+05 0.12437564D+01  1  2 12  5  6  2       21 0.143089286547D-05 0.100000000000D+01
-.572660558732D-06 0.000000000000D+00 -.642674903879D-07 0.433964178404D-05 0.000000000000D+00  6 1 -1 25 -24 2 -1 4 0.44573201D+00 0.20364382D-02 0.15757658D+05 0.15757658D+05 0.15757658D+05 0.12453902D+01  1  2  5  5  6  2       21 -.810106666710D-04 0.100000000000D+01
0.232777285487D-06 0.000000000000D+00 0.000000000000D+00 0.433964178404D-05 0.327737763013D-07  6 1 -1 25 -24 2 -1 4 0.44730876D+00 0.20272988D-02 0.16290687D+05 0.16290687D+05 0.16290687D+05 0.12437564D+01  1  2 11  5  6  2       21 0.324248129984D-04 0.100000000000D+01
0.101340045019D-07 0.000000000000D+00 0.000000000000D+00 0.432826294638D-05 0.000000000000D+00  6 1 1 25 -24 2 1 4 0.44573201D+00 0.20307305D-02 0.16290687D+05 0.16290687D+05 0.16290687D+05 0.12437564D+01  1  2 12  6  6  2       21 0.150530424027D-05 0.100000000000D+01
-.572660558732D-06 0.000000000000D+00 -.642674903879D-07 0.433964178404D-05 0.000000000000D+00  6 1 1 25 -24 2 1 4 0.44573201D+00 0.20364382D-02 0.15757658D+05 0.15757658D+05 0.15757658D+05 0.12453902D+01  1  2  5  6  6  2       21 -.852386585597D-04 0.100000000000D+01
0.226664144364D-06 0.000000000000D+00 0.000000000000D+00 0.433964178404D-05 0.333770712186D-07  6 1 1 25 -24 2 1 4 0.44730876D+00 0.20272988D-02 0.16290687D+05 0.16290687D+05 0.16290687D+05 0.12437564D+01  1  2 11  6  6  2       21 0.332124492018D-04 0.100000000000D+01
0.101340045019D-07 0.000000000000D+00 0.000000000000D+00 0.432826294638D-05 0.000000000000D+00  6 1 -2 25 -24 2 -2 4 0.44573201D+00 0.20307305D-02 0.16290687D+05 0.16290687D+05 0.16290687D+05 0.12437564D+01  1  2 12  7  6  2       21 0.141754310455D-05 0.100000000000D+01
-.572660558732D-06 0.000000000000D+00 -.642674903879D-07 0.433964178404D-05 0.000000000000D+00  6 1 -2 25 -24 2 -2 4 0.44573201D+00 0.20364382D-02 0.15757658D+05 0.15757658D+05 0.15757658D+05 0.12453902D+01  1  2  5  7  6  2       21 -.802520745637D-04 0.100000000000D+01
0.408122671978D-06 0.000000000000D+00 0.000000000000D+00 0.433964178404D-05 0.108193059436D-06  6 1 -2 25 -24 2 -2 4 0.44730876D+00 0.20272988D-02 0.16290687D+05 0.16290687D+05 0.16290687D+05 0.12437564D+01  1  2 11  7  6  2       21 0.563201390966D-04 0.100000000000D+01
0.101340045019D-07 0.000000000000D+00 0.000000000000D+00 0.432826294638D-05 0.000000000000D+00  6 1 2 25 -24 2 2 4 0.44573201D+00 0.20307305D-02 0.16290687D+05 0.16290687D+05 0.16290687D+05 0.12437564D+01  1  2 12  8  6  2       21 0.155645319875D-05 0.100000000000D+01
-.572660558732D-06 0.000000000000D+00 -.642674903879D-07 0.433964178404D-05 0.000000000000D+00  6 1 2 25 -24 2 2 4 0.44573201D+00 0.20364382D-02 0.15757658D+05 0.15757658D+05 0.15757658D+05 0.12453902D+01  1  2  5  8  6  2       21 -.881445225481D-04 0.100000000000D+01
0.255811976773D-06 0.000000000000D+00 0.000000000000D+00 0.433964178404D-05 0.196781030735D-07  6 1 2 25 -24 2 2 4 0.44730876D+00 0.20272988D-02 0.16290687D+05 0.16290687D+05 0.16290687D+05 0.12437564D+01  1  2 11  8  6  2       21 0.387550855683D-04 0.100000000000D+01
0.101340045019D-07 0.000000000000D+00 0.000000000000D+00 0.432826294638D-05 0.000000000000D+00  6 1 -3 25 -24 2 -3 4 0.44573201D+00 0.20307305D-02 0.16290687D+05 0.16290687D+05 0.16290687D+05 0.12437564D+01  1  2 12  9  6  2       21 0.110071433859D-05 0.100000000000D+01
0.101340045019D-07 0.000000000000D+00 0.000000000000D+00 0.432826294638D-05 0.000000000000D+00  6 1 -4 25 -24 2 -4 4 0.44573201D+00 0.20307305D-02 0.16290687D+05 0.16290687D+05 0.16290687D+05 0.12437564D+01  1  2 12  9  6  2       21 0.998275351955D-06 0.100000000000D+01
-.572660558732D-06 0.000000000000D+00 -.642674903879D-07 0.433964178404D-05 0.000000000000D+00  6 1 -3 25 -24 2 -3 4 0.44573201D+00 0.20364382D-02 0.15757658D+05 0.15757658D+05 0.15757658D+05 0.12453902D+01  1  2  5  9  6  2       21 -.622587137213D-04 0.100000000000D+01
-.572660558732D-06 0.000000000000D+00 -.642674903879D-07 0.433964178404D-05 0.000000000000D+00  6 1 -4 25 -24 2 -4 4 0.44573201D+00 0.20364382D-02 0.15757658D+05 0.15757658D+05 0.15757658D+05 0.12453902D+01  1  2  5  9  6  2       21 -.564426314157D-04 0.100000000000D+01
0.232727724754D-06 0.000000000000D+00 0.000000000000D+00 0.433964178404D-05 0.327667984195D-07  6 1 -3 25 -24 2 -3 4 0.44730876D+00 0.20272988D-02 0.16290687D+05 0.16290687D+05 0.16290687D+05 0.12437564D+01  1  2 11  9  6  2       21 0.249408948008D-04 0.100000000000D+01
0.232727724754D-06 0.000000000000D+00 0.000000000000D+00 0.433964178404D-05 0.327667984195D-07  6 1 -4 25 -24 2 -4 4 0.44730876D+00 0.20272988D-02 0.16290687D+05 0.16290687D+05 0.16290687D+05 0.12437564D+01  1  2 11  9  6  2       21 0.226204264267D-04 0.100000000000D+01
0.101340045019D-07 0.000000000000D+00 0.000000000000D+00 0.432826294638D-05 0.000000000000D+00  6 1 3 25 -24 2 3 4 0.44573201D+00 0.20307305D-02 0.16290687D+05 0.16290687D+05 0.16290687D+05 0.12437564D+01  1  2 12 10  6  2       21 0.110064978997D-05 0.100000000000D+01
0.101340045019D-07 0.000000000000D+00 0.000000000000D+00 0.432826294638D-05 0.000000000000D+00  6 1 4 25 -24 2 4 4 0.44573201D+00 0.20307305D-02 0.16290687D+05 0.16290687D+05 0.16290687D+05 0.12437564D+01  1  2 12 10  6  2       21 0.998275351955D-06 0.100000000000D+01
-.572660558732D-06 0.000000000000D+00 -.642674903879D-07 0.433964178404D-05 0.000000000000D+00  6 1 3 25 -24 2 3 4 0.44573201D+00 0.20364382D-02 0.15757658D+05 0.15757658D+05 0.15757658D+05 0.12453902D+01  1  2  5 10  6  2       21 -.622550454766D-04 0.100000000000D+01
-.572660558732D-06 0.000000000000D+00 -.642674903879D-07 0.433964178404D-05 0.000000000000D+00  6 1 4 25 -24 2 4 4 0.44573201D+00 0.20364382D-02 0.15757658D+05 0.15757658D+05 0.15757658D+05 0.12453902D+01  1  2  5 10  6  2       21 -.564426314157D-04 0.100000000000D+01
0.232727724754D-06 0.000000000000D+00 0.000000000000D+00 0.433964178404D-05 0.327667984195D-07  6 1 3 25 -24 2 3 4 0.44730876D+00 0.20272988D-02 0.16290687D+05 0.16290687D+05 0.16290687D+05 0.12437564D+01  1  2 11 10  6  2       21 0.249394338522D-04 0.100000000000D+01
0.232727724754D-06 0.000000000000D+00 0.000000000000D+00 0.433964178404D-05 0.327667984195D-07  6 1 4 25 -24 2 4 4 0.44730876D+00 0.20272988D-02 0.16290687D+05 0.16290687D+05 0.16290687D+05 0.12437564D+01  1  2 11 10  6  2       21 0.226204264267D-04 0.100000000000D+01
  </mgrwgt>
  </event>
  <event>
  5     66 -.42980143E-03 0.38928971E+02 0.75467711E-02 0.12019651E+00
        1 -1    0    0  502    0 0.00000000E+00 0.00000000E+00 0.13376723E+04 0.13376724E+04 0.32000000E+00 0.0000E+00 0.9000E+01
       21 -1    0    0  501  502 0.00000000E+00 0.00000000E+00 -.12473346E+02 0.12495874E+02 0.75000000E+00 0.0000E+00 0.9000E+01
       25  1    1    2    0    0 -.20586562E+02 0.19885414E+02 0.58190649E+03 0.59586861E+03 0.12500000E+03 0.0000E+00 0.9000E+01
      -24  1    1    2    0    0 -.61870819E+01 0.83734604E+01 0.61225722E+03 0.61760384E+03 0.80419002E+02 0.0000E+00 0.9000E+01
        2  1    1    2  501    0 0.26773644E+02 -.28258874E+02 0.13103526E+03 0.13669577E+03 0.32000000E+00 0.0000E+00 0.9000E+01
#aMCatNLO 1  0  0  2  2 0.45531994D+02 0.00000000D+00  -5  6  0 0.00000000D+00 0.00000000D+00 0.00000000D+00 0.00000000D+00 0.00000000D+00
  <mgrwgt>
 -.1565618108D+00   12    2    0
 0.129230352411771D+03 0.000000000000000D+00 0.000000000000000D+00 0.129230352411771D+03
 0.129230352411771D+03 0.000000000000000D+00 0.000000000000000D+00 -.129230352411771D+03
 0.129153126335270D+03 -.205869461113134D+02 0.198858191553873D+02 -.153708128771199D+02
 0.870789388554690D+02 -.618734094470593D+01 0.837373380900000D+01 0.317352017790018D+02
 0.422286396328034D+02 0.267742870560194D+02 -.282595529643873D+02 -.163643889018819D+02
 0.000000000000000D+00 0.000000000000000D+00 -.000000000000000D+00 -.000000000000000D+00
 0.133376596629746D+03 0.000000000000000D+00 0.000000000000000D+00 0.133376596629746D+03
 0.371584961210123D+03 0.000000000000000D+00 0.000000000000000D+00 -.371584961210123D+03
 0.134834486609438D+03 -.436579475524978D+02 0.203238900368664D+02 -.153708128771199D+02
 0.895376471531800D+02 -.216226163536171D+02 0.866681795281107D+01 0.317352017790018D+02
 0.380685231179819D+02 0.197567761323746D+02 -.281263048605308D+02 -.163643889018819D+02
 0.242520900959270D+03 0.455237877737403D+02 -.864403129146665D+00 -.238208364580377D+03
0.567620889299D-06 0.000000000000D+00 0.000000000000D+00 0.729733080112D-06 0.000000000000D+00  6 1 21 25 -24 2 21 2 0.20579748D+00 0.19207122D-02 0.15407557D+05 0.15407557D+05 0.15407557D+05 0.12464975D+01  1  2  2  2  6  2       21 0.120485474072D-01 0.100000000000D+01
-.703408707666D-08 0.299541772728D-07 -.114586303667D-08 0.729733080112D-06 0.000000000000D+00  6 1 21 25 -24 2 21 4 0.20579748D+00 0.19207122D-02 0.15407557D+05 0.15407557D+05 0.15407557D+05 0.12464975D+01  1  2  3  2  6  2       21 -.231988711355D-03 0.100000000000D+01
0.646486220903D-07 0.000000000000D+00 0.000000000000D+00 0.729733080112D-06 0.000000000000D+00  6 1 21 25 -24 2 21 4 0.20579748D+00 0.19207122D-02 0.15407557D+05 0.15407557D+05 0.15407557D+05 0.12464975D+01  1  2 15  2  6  2       21 0.213215309480D-02 0.100000000000D+01
-.270430705082D-04 0.000000000000D+00 -.138352201290D-05 0.729733080112D-06 0.000000000000D+00  6 1 21 25 -24 2 21 4 0.20579748D+00 0.56908086D-02 0.15407557D+05 0.15407557D+05 0.15407557D+05 0.12464975D+01  1  2  5  2  6  2       21 -.149118145201D+00 0.100000000000D+01
-.947474978892D-05 0.000000000000D+00 -.486190062497D-06 0.729733080112D-06 0.000000000000D+00  6 1 -1 25 -24 2 -1 4 0.20579748D+00 0.56908086D-02 0.15407557D+05 0.15407557D+05 0.15407557D+05 0.12464975D+01  1  2  5  5  6  2       21 -.305843695429D-02 0.100000000000D+01
-.947474978892D-05 0.000000000000D+00 -.486190062497D-06 0.729733080112D-06 0.000000000000D+00  6 1 1 25 -24 2 1 4 0.20579748D+00 0.56908086D-02 0.15407557D+05 0.15407557D+05 0.15407557D+05 0.12464975D+01  1  2  5  6  6  2       21 -.350215118977D-02 0.100000000000D+01
-.947474978892D-05 0.000000000000D+00 -.486190062497D-06 0.729733080112D-06 0.000000000000D+00  6 1 -2 25 -24 2 -2 4 0.20579748D+00 0.56908086D-02 0.15407557D+05 0.15407557D+05 0.15407557D+05 0.12464975D+01  1  2  5  7  6  2       21 -.298041569424D-02 0.100000000000D+01
-.947474978892D-05 0.000000000000D+00 -.486190062497D-06 0.729733080112D-06 0.000000000000D+00  6 1 2 25 -24 2 2 4 0.20579748D+00 0.56908086D-02 0.15407557D+05 0.15407557D+05 0.15407557D+05 0.12464975D+01  1  2  5  8  6  2       21 -.379954977967D-02 0.100000000000D+01
-.947474978892D-05 0.000000000000D+00 -.486190062497D-06 0.729733080112D-06 0.000000000000D+00  6 1 -3 25 -24 2 -3 4 0.20579748D+00 0.56908086D-02 0.15407557D+05 0.15407557D+05 0.15407557D+05 0.12464975D+01  1  2  5  9  6  2       21 -.213490599579D-02 0.100000000000D+01
-.947474978892D-05 0.000000000000D+00 -.486190062497D-06 0.729733080112D-06 0.000000000000D+00  6 1 -4 25 -24 2 -4 4 0.20579748D+00 0.56908086D-02 0.15407557D+05 0.15407557D+05 0.15407557D+05 0.12464975D+01  1  2  5  9  6  2       21 -.189112062364D-02 0.100000000000D+01
-.947474978892D-05 0.000000000000D+00 -.486190062497D-06 0.729733080112D-06 0.000000000000D+00  6 1 3 25 -24 2 3 4 0.20579748D+00 0.56908086D-02 0.15407557D+05 0.15407557D+05 0.15407557D+05 0.12464975D+01  1  2  5 10  6  2       21 -.213467657547D-02 0.100000000000D+01
-.947474978892D-05 0.000000000000D+00 -.486190062497D-06 0.729733080112D-06 0.000000000000D+00  6 1 4 25 -24 2 4 4 0.20579748D+00 0.56908086D-02 0.15407557D+05 0.15407557D+05 0.15407557D+05 0.12464975D+01  1  2  5 10  6  2       21 -.189112062364D-02 0.100000000000D+01
  </mgrwgt>
  </event>
  <event>
  6     66 0.42980143E-03 0.19532850E+02 0.75467711E-02 0.12396981E+00
        1 -1    0    0  502    0 0.00000000E+00 0.00000000E+00 0.17101156E+03 0.17101186E+03 0.32000000E+00 0.0000E+00 0.9000E+01
       21 -1    0    0  501  502 0.00000000E+00 0.00000000E+00 -.10015760E+03 0.10016040E+03 0.75000000E+00 0.0000E+00 0.9000E+01
       25  1    1    2    0    0 0.73821351E+01 -.31621788E+02 -.46621712E+01 0.12923300E+03 0.12500000E+03 0.0000E+00 0.9000E+01
      -24  1    1    2    0    0 0.14021413E+02 0.29212484E+02 0.64410196E+02 0.10800860E+03 0.80419002E+02 0.0000E+00 0.9000E+01
        2  1    1    2  503    0 -.22528291E+02 -.31834000E+01 0.15892117E+01 0.22809777E+02 0.32000000E+00 0.0000E+00 0.9000E+01
       21  1    1    2  501  503 0.11247420E+01 0.55927034E+01 0.95167300E+01 0.11120882E+02 0.75000000E+00 0.0000E+00 0.9000E+01
#aMCatNLO 2  0  0  5  2 0.91856985D+01 0.00000000D+00  -5  6  0 0.00000000D+00 0.00000000D+00 0.00000000D+00 0.00000000D+00 0.00000000D+00
  <mgrwgt>
 0.3467980239D+00    3    2    0
 0.130876004134803D+03 0.000000000000000D+00 0.000000000000000D+00 0.130876004134803D+03
 0.130876004134803D+03 -.000000000000000D+00 -.000000000000000D+00 -.130876004134803D+03
 0.135875210229076D+03 0.128532406302758D+02 -.322376461308997D+02 -.404054591860387D+02
 0.948086956806494D+02 0.178421903757785D+02 0.287823963892898D+02 0.370769837362714D+02
 0.310681023598810D+02 -.306954310060544D+02 0.345524974161000D+01 0.332847544976727D+01
 0.000000000000000D+00 0.000000000000000D+00 0.000000000000000D+00 0.000000000000000D+00
 0.130876004134803D+03 0.000000000000000D+00 0.000000000000000D+00 0.130876004134803D+03
 0.130876004134803D+03 -.000000000000000D+00 -.000000000000000D+00 -.130876004134803D+03
 0.135132537361040D+03 0.726231959234946D+01 -.316083007254599D+02 -.397992046782373D+02
 0.944546059214138D+02 0.139376666710364D+02 0.292219114597659D+02 0.375003728488629D+02
 0.229703001335336D+02 -.222096991100810D+02 -.339612156591489D+01 -.477810757243998D+01
 0.919456485361914D+01 0.100971284669511D+01 0.578251083160892D+01 0.707693940181437D+01
-.112644174124D-04 0.000000000000D+00 0.000000000000D+00 0.514454238149D-06 0.000000000000D+00  6 1 21 25 -24 2 21 4 0.26309710D-01 0.15409100D-01 0.14904505D+05 0.14904505D+05 0.14904505D+05 0.12481389D+01  1  2 13  3  6  5        2 -.195773753412D+00 0.100000000000D+01
-.340369114892D-05 0.000000000000D+00 0.000000000000D+00 0.513226021308D-06 0.000000000000D+00  6 1 21 25 -24 2 21 4 0.26309710D-01 0.15409100D-01 0.15360616D+05 0.15360616D+05 0.15360616D+05 0.12466481D+01  1  2  8  3  6  5        2 -.589007161993D-01 0.100000000000D+01
0.346074849690D-04 0.000000000000D+00 0.000000000000D+00 0.513226021308D-06 0.230514261401D-06  6 1 21 25 -24 2 21 4 0.26309710D-01 0.15409100D-01 0.14904505D+05 0.14904505D+05 0.14904505D+05 0.12481389D+01  1  2  1  3  6  5        2 0.601472493470D+00 0.100000000000D+01
  </mgrwgt>
  </event>
  <event>
  5     66 -.42980143E-03 0.40804656E+02 0.75467711E-02 0.11963689E+00
        1 -1    0    0  502    0 0.00000000E+00 0.00000000E+00 0.23061504E+03 0.23061526E+03 0.32000000E+00 0.0000E+00 0.9000E+01
       21 -1    0    0  501  502 -.00000000E+00 -.00000000E+00 -.26807877E+03 0.26807981E+03 0.75000000E+00 0.0000E+00 0.9000E+01
       25  1    1    2    0    0 -.26195328E+02 0.58916004E+02 0.17712138E+03 0.22617311E+03 0.12500000E+03 0.0000E+00 0.9000E+01
      -24  1    1    2    0    0 0.89572658E+01 -.95899970E+02 -.17757333E+03 0.21743169E+03 0.80419002E+02 0.0000E+00 0.9000E+01
        2  1    1    2  501    0 0.17238062E+02 0.36983966E+02 -.37011779E+02 0.55090277E+02 0.32000000E+00 0.0000E+00 0.9000E+01
#aMCatNLO 1  0  0  5  2 0.83650676D+00 0.00000000D+00  -5  6  0 0.00000000D+00 0.00000000D+00 0.00000000D+00 0.00000000D+00 0.00000000D+00
  <mgrwgt>
 -.1762905231D+00    8    2    0
 0.248642941020455D+03 0.000000000000000D+00 0.000000000000000D+00 0.248642941020455D+03
 0.248642941020455D+03 -.000000000000000D+00 -.000000000000000D+00 -.248642941020455D+03
 0.240157892985721D+03 -.261954828017059D+02 0.589156721627534D+02 0.194662666728209D+03
 0.204670035359280D+03 0.895713376254065D+01 -.959002533380256D+02 -.161695759326152D+03
 0.524579536959095D+02 0.172383490391652D+02 0.369845811752722D+02 -.329669074020569D+02
 0.000000000000000D+00 0.000000000000000D+00 0.000000000000000D+00 -.000000000000000D+00
 0.248642941020455D+03 0.000000000000000D+00 0.000000000000000D+00 0.248642941020455D+03
 0.248642941020455D+03 -.000000000000000D+00 -.000000000000000D+00 -.248642941020455D+03
 0.240105091792771D+03 -.261488428014057D+02 0.590157374806790D+02 0.194573471610531D+03
 0.204691908911721D+03 0.899688831745911D+01 -.958149606246615D+02 -.161771786602768D+03
 0.136259979439066D+01 0.953835879911258D+00 0.964207875025747D+00 -.131066729591286D+00
 0.511262815420281D+02 0.161981186040353D+02 0.358350152689567D+02 -.326706182781711D+02
0.188086696225D-04 0.000000000000D+00 0.000000000000D+00 0.115212461601D-06 0.000000000000D+00  6 1 21 25 -24 2 21 2 0.35479335D-01 0.41242985D-01 0.23551566D+05 0.23551566D+05 0.23551566D+05 0.12260864D+01  1  2  2  3  6  5        2 0.214977457288D-01 0.100000000000D+01
0.382122481451D-07 0.992560765044D-06 -.379692849498D-07 0.115212461601D-06 0.000000000000D+00  6 1 21 25 -24 2 21 4 0.35479335D-01 0.41242985D-01 0.23551566D+05 0.23551566D+05 0.23551566D+05 0.12260864D+01  1  2  3  3  6  5        2 0.656567813799D-04 0.100000000000D+01
0.184243751002D-05 0.000000000000D+00 0.000000000000D+00 0.115212461601D-06 0.000000000000D+00  6 1 21 25 -24 2 21 4 0.35479335D-01 0.41242985D-01 0.23551566D+05 0.23551566D+05 0.23551566D+05 0.12260864D+01  1  2 15  3  6  5        2 0.316570007453D-02 0.100000000000D+01
0.157646642571D-10 0.000000000000D+00 0.000000000000D+00 0.115221165369D-06 0.000000000000D+00  6 1 21 25 -24 2 21 4 0.35479335D-01 0.41242985D-01 0.23528318D+05 0.23528318D+05 0.23528318D+05 0.12261327D+01  1  2 12  3  6  5        2 0.270915919838D-07 0.100000000000D+01
-.155500126744D-03 0.000000000000D+00 0.000000000000D+00 0.115212461601D-06 0.000000000000D+00  6 1 21 25 -24 2 21 4 0.35479335D-01 0.41242985D-01 0.23551566D+05 0.23551566D+05 0.23551566D+05 0.12260864D+01  1  2  4  3  6  5        2 -.267182338695D+00 0.100000000000D+01
-.846164407876D-05 0.000000000000D+00 0.000000000000D+00 0.115212461601D-06 0.000000000000D+00  6 1 21 25 -24 2 21 4 0.35479335D-01 0.41242985D-01 0.23551566D+05 0.23551566D+05 0.23551566D+05 0.12260864D+01  1  2  5  3  6  5        2 -.145389068260D-01 0.100000000000D+01
0.311349416552D-04 0.000000000000D+00 -.000000000000D+00 0.115212461601D-06 0.000000000000D+00  6 1 21 25 -24 2 21 4 0.35479335D-01 0.41242985D-01 0.23551566D+05 0.23551566D+05 0.23551566D+05 0.12260864D+01  1  2  6  3  6  5        2 0.534964613902D-01 0.100000000000D+01
0.158307330953D-04 0.000000000000D+00 0.000000000000D+00 0.115212461601D-06 0.285147259366D-07  6 1 21 25 -24 2 21 4 0.35479335D-01 0.41242985D-01 0.23528318D+05 0.23528318D+05 0.23528318D+05 0.12261327D+01  1  2 11  3  6  5        2 0.272051313512D-01 0.100000000000D+01
  </mgrwgt>
  </event>
  <event>
  5     66 0.42980143E-03 0.22854202E+02 0.75467711E-02 0.12301734E+00
        3 -1    0    0  502    0 0.00000000E+00 0.00000000E+00 0.27036253E+03 0.27036299E+03 0.50000000E+00 0.0000E+00 0.9000E+01
       21 -1    0    0  501  502 0.00000000E+00 0.00000000E+00 -.59129618E+02 0.59134374E+02 0.75000000E+00 0.0000E+00 0.9000E+01
       25  1    1    2    0    0 -.24063028E+02 -.25195712E+02 0.11188229E+03 0.17133739E+03 0.12500000E+03 0.0000E+00 0.9000E+01
      -24  1    1    2    0    0 0.33617953E+02 0.45909352E+02 0.69514587E+02 0.12057085E+03 0.80419002E+02 0.0000E+00 0.9000E+01
        4  1    1    2  501    0 -.95549254E+01 -.20713639E+02 0.29836035E+02 0.37589133E+02 0.15500000E+01 0.0000E+00 0.9000E+01
#aMCatNLO 1  0  0  2  5 0.51625926D+01 0.00000000D+00  -5  6  0 0.00000000D+00 0.00000000D+00 0.00000000D+00 0.00000000D+00 0.00000000D+00
  <mgrwgt>
 0.3121540593D-01   41    2    0
 0.126440867190303D+03 0.000000000000000D+00 0.000000000000000D+00 0.126440867190303D+03
 0.126440867190303D+03 0.000000000000000D+00 0.000000000000000D+00 -.126440867190303D+03
 0.129785527407140D+03 -.240528150230371D+02 -.251735719076195D+02 0.265263854097331D+01
 0.990455706558995D+02 0.336257468351630D+02 0.459262465583398D+02 -.101438719935904D+02
 0.240506363175669D+02 -.957293181212592D+01 -.207526746507202D+02 0.749123345261711D+01
 0.000000000000000D+00 0.000000000000000D+00 0.000000000000000D+00 -.000000000000000D+00
 0.127287247278153D+03 0.000000000000000D+00 0.000000000000000D+00 0.127287247278153D+03
 0.134592594539939D+03 0.000000000000000D+00 0.000000000000000D+00 -.134592594539939D+03
 0.130505552592212D+03 -.254147587142726D+02 -.274545589231516D+02 0.265263854097331D+01
 0.979092786972033D+02 0.325952028206107D+02 0.442002886268516D+02 -.101438719935904D+02
 0.245195948880281D+02 -.982707006370363D+01 -.211783060888841D+02 0.749123345261711D+01
 0.894541564064912D+01 0.264662595736552D+01 0.443257638518408D+01 -.730534726178553D+01
0.794127601516D-06 0.000000000000D+00 0.000000000000D+00 0.627852530017D-06 0.000000000000D+00  6 3 21 25 -24 4 21 2 0.41594637D-01 0.90972658D-02 0.15767495D+05 0.15767495D+05 0.15767495D+05 0.12453595D+01  1  2  2  2  6  2       21 0.324839235515D-02 0.100000000000D+01
0.976430218448D-08 0.419072648691D-07 -.160311482916D-08 0.627852530017D-06 0.000000000000D+00  6 3 21 25 -24 4 21 4 0.41594637D-01 0.90972658D-02 0.15767495D+05 0.15767495D+05 0.15767495D+05 0.12453595D+01  1  2  3  2  6  2       21 0.619453747083D-04 0.100000000000D+01
0.843789148345D-07 0.000000000000D+00 0.000000000000D+00 0.627852530017D-06 0.000000000000D+00  6 3 21 25 -24 4 21 4 0.41594637D-01 0.90972658D-02 0.15767495D+05 0.15767495D+05 0.15767495D+05 0.12453595D+01  1  2 15  2  6  2       21 0.535305380575D-03 0.100000000000D+01
0.369440143517D-05 0.000000000000D+00 0.000000000000D+00 0.625812671146D-06 0.000000000000D+00  6 3 21 25 -24 4 21 4 0.41594637D-01 0.97130562D-02 0.16431493D+05 0.16431493D+05 0.16431493D+05 0.12433348D+01  1  2 12  2  6  2       21 0.208120971520D-01 0.100000000000D+01
0.270118434165D-05 0.000000000000D+00 0.000000000000D+00 0.625812671146D-06 0.000000000000D+00  6 3 21 25 -24 4 21 4 0.41594637D-01 0.99272897D-02 0.16431493D+05 0.16431493D+05 0.16431493D+05 0.12433348D+01  1  2 12  2  6  2       21 0.146478399155D-01 0.100000000000D+01
-.107428163841D-04 0.000000000000D+00 0.000000000000D+00 0.627852530017D-06 0.000000000000D+00  6 3 21 25 -24 4 21 4 0.41594637D-01 0.90972658D-02 0.15767495D+05 0.15767495D+05 0.15767495D+05 0.12453595D+01  1  2  4  2  6  2       21 -.681531330925D-01 0.100000000000D+01
-.360523721210D-04 0.000000000000D+00 -.366534809559D-05 0.627852530017D-06 0.000000000000D+00  6 3 21 25 -24 4 21 4 0.41594637D-01 0.97427815D-02 0.15767495D+05 0.15767495D+05 0.15767495D+05 0.12453595D+01  1  2  5  2  6  2       21 -.202983352018D+00 0.100000000000D+01
0.359730591534D-04 0.000000000000D+00 0.363112567073D-05 0.627852530017D-06 0.000000000000D+00  6 3 21 25 -24 4 21 4 0.41594637D-01 0.90972658D-02 0.15767495D+05 0.15767495D+05 0.15767495D+05 0.12453595D+01  1  2  6  2  6  2       21 0.228215451198D+00 0.100000000000D+01
0.631375148037D-05 0.000000000000D+00 0.000000000000D+00 0.627852530017D-06 0.360440650501D-06  6 3 21 25 -24 4 21 4 0.41873066D-01 0.96837726D-02 0.16431493D+05 0.16431493D+05 0.16431493D+05 0.12433348D+01  1  2 11  2  6  2       21 0.352971434602D-01 0.100000000000D+01
0.736368581210D-07 0.000000000000D+00 0.000000000000D+00 0.625812671146D-06 0.000000000000D+00  6 3 -3 25 -24 4 -3 4 0.41594637D-01 0.97130562D-02 0.16431493D+05 0.16431493D+05 0.16431493D+05 0.12433348D+01  1  2 12  5  6  2       21 0.179226349140D-04 0.100000000000D+01
0.738992231581D-07 0.000000000000D+00 0.000000000000D+00 0.625812671146D-06 0.000000000000D+00  6 3 -3 25 -24 4 -3 4 0.41594637D-01 0.99272897D-02 0.16431493D+05 0.16431493D+05 0.16431493D+05 0.12433348D+01  1  2 12  5  6  2       21 0.173511882792D-04 0.100000000000D+01
-.548705627545D-06 0.000000000000D+00 -.615884259761D-07 0.627852530017D-06 0.000000000000D+00  6 3 -3 25 -24 4 -3 4 0.41594637D-01 0.97427815D-02 0.15767495D+05 0.15767495D+05 0.15767495D+05 0.12453595D+01  1  2  5  5  6  2       21 -.133293788164D-03 0.100000000000D+01
0.165561693339D-06 0.000000000000D+00 0.000000000000D+00 0.627852530017D-06 0.644767313090D-08  6 3 -3 25 -24 4 -3 4 0.41873066D-01 0.96837726D-02 0.16431493D+05 0.16431493D+05 0.16431493D+05 0.12433348D+01  1  2 11  5  6  2       21 0.399776486098D-04 0.100000000000D+01
0.736368581210D-07 0.000000000000D+00 0.000000000000D+00 0.625812671146D-06 0.000000000000D+00  6 3 3 25 -24 4 3 4 0.41594637D-01 0.97130562D-02 0.16431493D+05 0.16431493D+05 0.16431493D+05 0.12433348D+01  1  2 12  6  6  2       21 0.179203340695D-04 0.100000000000D+01
0.738992231581D-07 0.000000000000D+00 0.000000000000D+00 0.625812671146D-06 0.000000000000D+00  6 3 3 25 -24 4 3 4 0.41594637D-01 0.99272897D-02 0.16431493D+05 0.16431493D+05 0.16431493D+05 0.12433348D+01  1  2 12  6  6  2       21 0.173489522706D-04 0.100000000000D+01
-.548705627545D-06 0.000000000000D+00 -.615884259761D-07 0.627852530017D-06 0.000000000000D+00  6 3 3 25 -24 4 3 4 0.41594637D-01 0.97427815D-02 0.15767495D+05 0.15767495D+05 0.15767495D+05 0.12453595D+01  1  2  5  6  6  2       21 -.133276596712D-03 0.100000000000D+01
0.170063531509D-06 0.000000000000D+00 0.000000000000D+00 0.627852530017D-06 0.685387628477D-08  6 3 3 25 -24 4 3 4 0.41873066D-01 0.96837726D-02 0.16431493D+05 0.16431493D+05 0.16431493D+05 0.12433348D+01  1  2 11  6  6  2       21 0.410594241724D-04 0.100000000000D+01
0.736368581210D-07 0.000000000000D+00 0.000000000000D+00 0.625812671146D-06 0.000000000000D+00  6 3 -4 25 -24 4 -4 4 0.41594637D-01 0.97130562D-02 0.16431493D+05 0.16431493D+05 0.16431493D+05 0.12433348D+01  1  2 12  7  6  2       21 0.156371147785D-04 0.100000000000D+01
0.738992231581D-07 0.000000000000D+00 0.000000000000D+00 0.625812671146D-06 0.000000000000D+00  6 3 -4 25 -24 4 -4 4 0.41594637D-01 0.99272897D-02 0.16431493D+05 0.16431493D+05 0.16431493D+05 0.12433348D+01  1  2 12  7  6  2       21 0.151279044843D-04 0.100000000000D+01
-.548705627545D-06 0.000000000000D+00 -.615884259761D-07 0.627852530017D-06 0.000000000000D+00  6 3 -4 25 -24 4 -4 4 0.41594637D-01 0.97427815D-02 0.15767495D+05 0.15767495D+05 0.15767495D+05 0.12453595D+01  1  2  5  7  6  2       21 -.116231295977D-03 0.100000000000D+01
0.923087070453D-06 0.000000000000D+00 0.000000000000D+00 0.627852530017D-06 0.510272633844D-07  6 3 -4 25 -24 4 -4 4 0.41873066D-01 0.96837726D-02 0.16431493D+05 0.16431493D+05 0.16431493D+05 0.12433348D+01  1  2 11  7  6  2       21 0.194489837549D-03 0.100000000000D+01
0.736368581210D-07 0.000000000000D+00 0.000000000000D+00 0.625812671146D-06 0.000000000000D+00  6 3 4 25 -24 4 4 4 0.41594637D-01 0.97130562D-02 0.16431493D+05 0.16431493D+05 0.16431493D+05 0.12433348D+01  1  2 12  8  6  2       21 0.156371147785D-04 0.100000000000D+01
0.738992231581D-07 0.000000000000D+00 0.000000000000D+00 0.625812671146D-06 0.000000000000D+00  6 3 4 25 -24 4 4 4 0.41594637D-01 0.99272897D-02 0.16431493D+05 0.16431493D+05 0.16431493D+05 0.12433348D+01  1  2 12  8  6  2       21 0.151279044843D-04 0.100000000000D+01
-.548705627545D-06 0.000000000000D+00 -.615884259761D-07 0.627852530017D-06 0.000000000000D+00  6 3 4 25 -24 4 4 4 0.41594637D-01 0.97427815D-02 0.15767495D+05 0.15767495D+05 0.15767495D+05 0.12453595D+01  1  2  5  8  6  2       21 -.116231295977D-03 0.100000000000D+01
0.164197338380D-06 0.000000000000D+00 0.000000000000D+00 0.627852530017D-06 0.323434858625D-08  6 3 4 25 -24 4 4 4 0.41873066D-01 0.96837726D-02 0.16431493D+05 0.16431493D+05 0.16431493D+05 0.12433348D+01  1  2 11  8  6  2       21 0.345955594977D-04 0.100000000000D+01
0.736368581210D-07 0.000000000000D+00 0.000000000000D+00 0.625812671146D-06 0.000000000000D+00  6 3 -1 25 -24 4 -1 4 0.41594637D-01 0.97130562D-02 0.16431493D+05 0.16431493D+05 0.16431493D+05 0.12433348D+01  1  2 12  9  6  2       21 0.272714200659D-04 0.100000000000D+01
0.736368581210D-07 0.000000000000D+00 0.000000000000D+00 0.625812671146D-06 0.000000000000D+00  6 3 -2 25 -24 4 -2 4 0.41594637D-01 0.97130562D-02 0.16431493D+05 0.16431493D+05 0.16431493D+05 0.12433348D+01  1  2 12  9  6  2       21 0.261024255733D-04 0.100000000000D+01
0.738992231581D-07 0.000000000000D+00 0.000000000000D+00 0.625812671146D-06 0.000000000000D+00  6 3 -1 25 -24 4 -1 4 0.41594637D-01 0.99272897D-02 0.16431493D+05 0.16431493D+05 0.16431493D+05 0.12433348D+01  1  2 12  9  6  2       21 0.264745020908D-04 0.100000000000D+01
0.738992231581D-07 0.000000000000D+00 0.000000000000D+00 0.625812671146D-06 0.000000000000D+00  6 3 -2 25 -24 4 -2 4 0.41594637D-01 0.99272897D-02 0.16431493D+05 0.16431493D+05 0.16431493D+05 0.12433348D+01  1  2 12  9  6  2       21 0.253152032911D-04 0.100000000000D+01
-.548705627545D-06 0.000000000000D+00 -.615884259761D-07 0.627852530017D-06 0.000000000000D+00  6 3 -1 25 -24 4 -1 4 0.41594637D-01 0.97427815D-02 0.15767495D+05 0.15767495D+05 0.15767495D+05 0.12453595D+01  1  2  5  9  6  2       21 -.203105155309D-03 0.100000000000D+01
-.548705627545D-06 0.000000000000D+00 -.615884259761D-07 0.627852530017D-06 0.000000000000D+00  6 3 -2 25 -24 4 -2 4 0.41594637D-01 0.97427815D-02 0.15767495D+05 0.15767495D+05 0.15767495D+05 0.12453595D+01  1  2  5  9  6  2       21 -.194368404054D-03 0.100000000000D+01
0.165260359647D-06 0.000000000000D+00 0.000000000000D+00 0.627852530017D-06 0.643593792145D-08  6 3 -1 25 -24 4 -1 4 0.41873066D-01 0.96837726D-02 0.16431493D+05 0.16431493D+05 0.16431493D+05 0.12433348D+01  1  2 11  9  6  2       21 0.606970427464D-04 0.100000000000D+01
0.165260359647D-06 0.000000000000D+00 0.000000000000D+00 0.627852530017D-06 0.643593792145D-08  6 3 -2 25 -24 4 -2 4 0.41873066D-01 0.96837726D-02 0.16431493D+05 0.16431493D+05 0.16431493D+05 0.12433348D+01  1  2 11  9  6  2       21 0.581029241891D-04 0.100000000000D+01
0.736368581210D-07 0.000000000000D+00 0.000000000000D+00 0.625812671146D-06 0.000000000000D+00  6 3 1 25 -24 4 1 4 0.41594637D-01 0.97130562D-02 0.16431493D+05 0.16431493D+05 0.16431493D+05 0.12433348D+01  1  2 12 10  6  2       21 0.339909009877D-04 0.100000000000D+01
0.736368581210D-07 0.000000000000D+00 0.000000000000D+00 0.625812671146D-06 0.000000000000D+00  6 3 2 25 -24 4 2 4 0.41594637D-01 0.97130562D-02 0.16431493D+05 0.16431493D+05 0.16431493D+05 0.12433348D+01  1  2 12 10  6  2       21 0.385242746560D-04 0.100000000000D+01
0.738992231581D-07 0.000000000000D+00 0.000000000000D+00 0.625812671146D-06 0.000000000000D+00  6 3 1 25 -24 4 1 4 0.41594637D-01 0.99272897D-02 0.16431493D+05 0.16431493D+05 0.16431493D+05 0.12433348D+01  1  2 12 10  6  2       21 0.331401597530D-04 0.100000000000D+01
0.738992231581D-07 0.000000000000D+00 0.000000000000D+00 0.625812671146D-06 0.000000000000D+00  6 3 2 25 -24 4 2 4 0.41594637D-01 0.99272897D-02 0.16431493D+05 0.16431493D+05 0.16431493D+05 0.12433348D+01  1  2 12 10  6  2       21 0.376402517999D-04 0.100000000000D+01
-.548705627545D-06 0.000000000000D+00 -.615884259761D-07 0.627852530017D-06 0.000000000000D+00  6 3 1 25 -24 4 1 4 0.41594637D-01 0.97427815D-02 0.15767495D+05 0.15767495D+05 0.15767495D+05 0.12453595D+01  1  2  5 10  6  2       21 -.253317879771D-03 0.100000000000D+01
-.548705627545D-06 0.000000000000D+00 -.615884259761D-07 0.627852530017D-06 0.000000000000D+00  6 3 2 25 -24 4 2 4 0.41594637D-01 0.97427815D-02 0.15767495D+05 0.15767495D+05 0.15767495D+05 0.12453595D+01  1  2  5 10  6  2       21 -.287188172993D-03 0.100000000000D+01
0.165260359647D-06 0.000000000000D+00 0.000000000000D+00 0.627852530017D-06 0.643593792145D-08  6 3 1 25 -24 4 1 4 0.41873066D-01 0.96837726D-02 0.16431493D+05 0.16431493D+05 0.16431493D+05 0.12433348D+01  1  2 11 10  6  2       21 0.756076787875D-04 0.100000000000D+01
0.165260359647D-06 0.000000000000D+00 0.000000000000D+00 0.627852530017D-06 0.643593792145D-08  6 3 2 25 -24 4 2 4 0.41873066D-01 0.96837726D-02 0.16431493D+05 0.16431493D+05 0.16431493D+05 0.12433348D+01  1  2 11 10  6  2       21 0.856663953313D-04 0.100000000000D+01
  </mgrwgt>
  </event>
  <event>
  5     66 0.42980143E-03 0.29406350E+03 0.75467711E-02 0.96126454E-01
        1 -1    0    0  502    0 0.00000000E+00 0.00000000E+00 0.48393172E+03 0.48393183E+03 0.32000000E+00 0.0000E+00 0.9000E+01
       21 -1    0    0  501  502 0.00000000E+00 0.00000000E+00 -.25049122E+03 0.25049235E+03 0.75000000E+00 0.0000E+00 0.9000E+01
       25  1    1    2    0    0 -.21310662E+03 -.61807282E+02 0.40538954E+02 0.25788171E+03 0.12500000E+03 0.0000E+00 0.9000E+01
      -24  1    1    2    0    0 -.22848917E+02 -.11368708E+03 0.51198821E+02 0.15011782E+03 0.80419002E+02 0.0000E+00 0.9000E+01
        2  1    1    2  501    0 0.23595553E+03 0.17549436E+03 0.14170272E+03 0.32642464E+03 0.32000000E+00 0.0000E+00 0.9000E+01
#aMCatNLO 1  0  0  2  5 0.51625926D+01 0.00000000D+00  -5  6  0 0.00000000D+00 0.00000000D+00 0.00000000D+00 0.00000000D+00 0.00000000D+00
  <mgrwgt>
 0.1979398577D-01   12    2    0
 0.348168207904165D+03 0.000000000000000D+00 0.000000000000000D+00 0.348168207904165D+03
 0.348168207904165D+03 0.000000000000000D+00 0.000000000000000D+00 -.348168207904165D+03
 0.258396893550123D+03 -.213106668518923D+03 -.618073196684219D+02 -.436961973691631D+02
 0.141164945640006D+03 -.228489446915444D+02 -.113687097877447D+03 0.367361210008247D+01
 0.296774576618201D+03 0.235955613210468D+03 0.175494417545869D+03 0.400225852690806D+02
 0.000000000000000D+00 -.000000000000000D+00 0.000000000000000D+00 -.000000000000000D+00
 0.590883778989043D+03 0.000000000000000D+00 0.000000000000000D+00 0.590883778989043D+03
 0.118755482188340D+04 0.000000000000000D+00 0.000000000000000D+00 -.118755482188340D+04
 0.251630414789052D+03 -.790457200361888D+02 -.198834811153244D+03 -.436961973691631D+02
 0.244761966034475D+03 0.785921487129819D+02 -.217372911830121D+03 0.367361210008247D+01
 0.429057597042024D+03 0.426740984991903D+03 -.195127131889708D+02 0.400225852690806D+02
 0.852988623006895D+03 -.426287413668697D+03 0.435720436172335D+03 -.596671042894360D+03
0.625951135077D-04 0.000000000000D+00 0.000000000000D+00 0.106483670067D-06 0.000000000000D+00  6 1 21 25 -24 2 21 2 0.74451129D-01 0.38537206D-01 0.11897536D+06 0.11897536D+06 0.11897536D+06 0.11567030D+01  1  2  2  2  6  2       21 0.271329494126D-01 0.100000000000D+01
-.699707839768D-05 0.330323489106D-05 -.126361499721D-06 0.106483670067D-06 0.000000000000D+00  6 1 21 25 -24 2 21 4 0.74451129D-01 0.38537206D-01 0.11897536D+06 0.11897536D+06 0.11897536D+06 0.11567030D+01  1  2  3  2  6  2       21 -.405804672459D-02 0.100000000000D+01
0.714306791763D-05 0.000000000000D+00 0.000000000000D+00 0.106483670067D-06 0.000000000000D+00  6 1 21 25 -24 2 21 4 0.74451129D-01 0.38537206D-01 0.11897536D+06 0.11897536D+06 0.11897536D+06 0.11567030D+01  1  2 15  2  6  2       21 0.414271524759D-02 0.100000000000D+01
-.257320073148D-03 0.000000000000D+00 -.400293915677D-03 0.106483670067D-06 0.000000000000D+00  6 1 21 25 -24 2 21 4 0.74451129D-01 0.19141568D+00 0.11897536D+06 0.11897536D+06 0.11897536D+06 0.11567030D+01  1  2  5  2  6  2       21 -.328279887900D-02 0.100000000000D+01
-.109743262511D-03 0.000000000000D+00 -.165226748957D-03 0.106483670067D-06 0.000000000000D+00  6 1 -1 25 -24 2 -1 4 0.74451129D-01 0.19141568D+00 0.11897536D+06 0.11897536D+06 0.11897536D+06 0.11567030D+01  1  2  5  5  6  2       21 -.175310537484D-03 0.100000000000D+01
-.109743262511D-03 0.000000000000D+00 -.165226748957D-03 0.106483670067D-06 0.000000000000D+00  6 1 1 25 -24 2 1 4 0.74451129D-01 0.19141568D+00 0.11897536D+06 0.11897536D+06 0.11897536D+06 0.11567030D+01  1  2  5  6  6  2       21 -.116679237594D-02 0.100000000000D+01
-.109743262511D-03 0.000000000000D+00 -.165226748957D-03 0.106483670067D-06 0.000000000000D+00  6 1 -2 25 -24 2 -2 4 0.74451129D-01 0.19141568D+00 0.11897536D+06 0.11897536D+06 0.11897536D+06 0.11567030D+01  1  2  5  7  6  2       21 -.132332148640D-03 0.100000000000D+01
-.109743262511D-03 0.000000000000D+00 -.165226748957D-03 0.106483670067D-06 0.000000000000D+00  6 1 2 25 -24 2 2 4 0.74451129D-01 0.19141568D+00 0.11897536D+06 0.11897536D+06 0.11897536D+06 0.11567030D+01  1  2  5  8  6  2       21 -.235146042537D-02 0.100000000000D+01
-.109743262511D-03 0.000000000000D+00 -.165226748957D-03 0.106483670067D-06 0.000000000000D+00  6 1 -3 25 -24 2 -3 4 0.74451129D-01 0.19141568D+00 0.11897536D+06 0.11897536D+06 0.11897536D+06 0.11567030D+01  1  2  5  9  6  2       21 -.883418250191D-04 0.100000000000D+01
-.109743262511D-03 0.000000000000D+00 -.165226748957D-03 0.106483670067D-06 0.000000000000D+00  6 1 -4 25 -24 2 -4 4 0.74451129D-01 0.19141568D+00 0.11897536D+06 0.11897536D+06 0.11897536D+06 0.11567030D+01  1  2  5  9  6  2       21 -.688621377659D-04 0.100000000000D+01
-.109743262511D-03 0.000000000000D+00 -.165226748957D-03 0.106483670067D-06 0.000000000000D+00  6 1 3 25 -24 2 3 4 0.74451129D-01 0.19141568D+00 0.11897536D+06 0.11897536D+06 0.11897536D+06 0.11567030D+01  1  2  5 10  6  2       21 -.888717013380D-04 0.100000000000D+01
-.109743262511D-03 0.000000000000D+00 -.165226748957D-03 0.106483670067D-06 0.000000000000D+00  6 1 4 25 -24 2 4 4 0.74451129D-01 0.19141568D+00 0.11897536D+06 0.11897536D+06 0.11897536D+06 0.11567030D+01  1  2  5 10  6  2       21 -.688621377659D-04 0.100000000000D+01
  </mgrwgt>
  </event>
  <event>
  5     66 0.42980143E-03 0.22198124E+02 0.75467711E-02 0.11068554E+00
        3 -1    0    0  502    0 0.00000000E+00 0.00000000E+00 0.10236823E+03 0.10236945E+03 0.50000000E+00 0.0000E+00 0.9000E+01
       21 -1    0    0  501  502 0.00000000E+00 0.00000000E+00 -.15895105E+03 0.15895282E+03 0.75000000E+00 0.0000E+00 0.9000E+01
       25  1    1    2    0    0 0.43278126E+02 0.26350318E+02 -.36268858E+02 0.13967020E+03 0.12500000E+03 0.0000E+00 0.9000E+01
      -24  1    1    2    0    0 -.31296679E+02 -.44979436E+02 -.12495484E+02 0.98112103E+02 0.80419002E+02 0.0000E+00 0.9000E+01
        4  1    1    2  501    0 -.11981446E+02 0.18629118E+02 -.78184771E+01 0.23539970E+02 0.15500000E+01 0.0000E+00 0.9000E+01
#aMCatNLO 1  0  0  1  2 0.13004871D+01 0.00000000D+00  -5  6  0 0.00000000D+00 0.00000000D+00 0.00000000D+00 0.00000000D+00 0.00000000D+00
  <mgrwgt>
 0.3670668370D-01    3    2    0
 0.127561471925290D+03 0.000000000000000D+00 0.000000000000000D+00 0.127561471925290D+03
 0.127561471925290D+03 0.000000000000000D+00 0.000000000000000D+00 -.127561471925290D+03
 0.135020262520195D+03 0.432933928619851D+02 0.263265794460728D+02 -.616965478693053D+01
 0.977294453524365D+02 -.312856286077865D+02 -.449966173802515D+02 0.896339229729695D+01
 0.223732359779472D+02 -.120077642541986D+02 0.186700379341787D+02 -.279373751036641D+01
 0.000000000000000D+00 -.000000000000000D+00 -.000000000000000D+00 -.000000000000000D+00
 0.255541946472237D+03 0.000000000000000D+00 0.000000000000000D+00 0.255541946472237D+03
 0.266358375457962D+03 0.000000000000000D+00 0.000000000000000D+00 -.266358375457962D+03
 0.192143162123186D+03 0.453806341409864D+02 0.138551536099276D+03 -.616965478693053D+01
 0.883648670057539D+02 -.300983818030290D+02 0.188382265072348D+02 0.896339229729695D+01
 0.426865093666179D+02 -.115926952829879D+02 0.409871019798341D+02 -.279373751036641D+01
 0.198705783434641D+03 -.368955705496950D+01 -.198376864586345D+03 -.108164289857253D+02
0.745638773140D-05 0.000000000000D+00 0.000000000000D+00 0.906041895732D-06 0.000000000000D+00  6 3 21 25 -24 4 21 2 0.15749189D-01 0.24454238D-01 0.16179190D+05 0.16179190D+05 0.16179190D+05 0.12440932D+01  1  2  2  1  6  1        3 0.297981176390D-01 0.100000000000D+01
0.357818728391D-06 0.393484390959D-06 -.150522985492D-07 0.906041895732D-06 0.000000000000D+00  6 3 21 25 -24 4 21 4 0.15749189D-01 0.24454238D-01 0.16179190D+05 0.16179190D+05 0.16179190D+05 0.12440932D+01  1  2  3  1  6  1        3 0.221324358249D-02 0.100000000000D+01
0.759100503822D-06 0.000000000000D+00 0.000000000000D+00 0.906041895732D-06 0.000000000000D+00  6 3 21 25 -24 4 21 4 0.15749189D-01 0.24454238D-01 0.16179190D+05 0.16179190D+05 0.16179190D+05 0.12440932D+01  1  2 15  1  6  1        3 0.469532247825D-02 0.100000000000D+01
  </mgrwgt>
  </event>
  <event>
  5     66 -.42980143E-03 0.29577256E+02 0.75467711E-02 0.11431987E+00
        3 -1    0    0  502    0 0.00000000E+00 0.00000000E+00 0.37708099E+03 0.37708132E+03 0.50000000E+00 0.0000E+00 0.9000E+01
       21 -1    0    0  501  502 0.00000000E+00 0.00000000E+00 -.11704233E+03 0.11704474E+03 0.75000000E+00 0.0000E+00 0.9000E+01
       25  1    1    2    0    0 0.12997366E+03 -.69136308E+02 0.93935146E+02 0.21475985E+03 0.12500000E+03 0.0000E+00 0.9000E+01
      -24  1    1    2    0    0 -.14894985E+03 0.91784550E+02 0.12840115E+03 0.23144013E+03 0.80419002E+02 0.0000E+00 0.9000E+01
        4  1    1    2  501    0 0.18976187E+02 -.22648243E+02 0.37702368E+02 0.47926085E+02 0.15500000E+01 0.0000E+00 0.9000E+01
#aMCatNLO 1  0  0  1  5 0.63609840D+00 0.00000000D+00  -5  6  0 0.00000000D+00 0.00000000D+00 0.00000000D+00 0.00000000D+00 0.00000000D+00
  <mgrwgt>
 -.1581817923D-01   10    2    0
 0.210083589589658D+03 0.000000000000000D+00 0.000000000000000D+00 0.210083589589658D+03
 0.210083589589658D+03 0.000000000000000D+00 0.000000000000000D+00 -.210083589589658D+03
 0.194416863846730D+03 0.129963976057981D+03 -.691247477543252D+02 -.224510828936893D+02
 0.192724763443449D+03 -.148959449023429D+03 0.917960088899509D+02 0.775846560059444D+01
 0.330255518891375D+02 0.189954729654471D+02 -.226712611356257D+02 0.146926172930949D+02
 0.000000000000000D+00 0.000000000000000D+00 0.000000000000000D+00 0.000000000000000D+00
 0.211505260263047D+03 0.000000000000000D+00 0.000000000000000D+00 0.211505260263047D+03
 0.210154994799008D+03 0.000000000000000D+00 0.000000000000000D+00 -.210154994799008D+03
 0.194498084668542D+03 0.129929655941635D+03 -.694171327808949D+02 -.224510828936893D+02
 0.192613250434914D+03 -.148993453490266D+03 0.915063129915129D+02 0.775846560059444D+01
 0.330563255757934D+02 0.189896415163561D+02 -.227209412818173D+02 0.146926172930949D+02
 0.149259438280530D+01 0.741560322748083D-01 0.631761071199277D+00 0.135026546403896D+01
0.701657374703D-05 0.000000000000D+00 0.000000000000D+00 0.172612462580D-06 0.000000000000D+00  6 3 21 25 -24 4 21 2 0.58012671D-01 0.18006723D-01 0.43110630D+05 0.43110630D+05 0.43110630D+05 0.11987114D+01  1  2  2  1  6  1        3 0.412855461698D-02 0.100000000000D+01
0.234546982640D-06 0.370274769356D-06 -.141644408307D-07 0.172612462580D-06 0.000000000000D+00  6 3 21 25 -24 4 21 4 0.58012671D-01 0.18006723D-01 0.43110630D+05 0.43110630D+05 0.43110630D+05 0.11987114D+01  1  2  3  1  6  1        3 0.198304258892D-03 0.100000000000D+01
0.677140012549D-06 0.000000000000D+00 0.000000000000D+00 0.172612462580D-06 0.000000000000D+00  6 3 21 25 -24 4 21 4 0.58012671D-01 0.18006723D-01 0.43110630D+05 0.43110630D+05 0.43110630D+05 0.11987114D+01  1  2 15  1  6  1        3 0.572506825042D-03 0.100000000000D+01
-.325559366779D-02 0.000000000000D+00 0.000000000000D+00 0.172612462580D-06 0.000000000000D+00  6 3 21 25 -24 4 21 4 0.58012671D-01 0.18006723D-01 0.43110630D+05 0.43110630D+05 0.43110630D+05 0.11987114D+01  1  2  4  1  6  1        3 -.275253206107D+01 0.100000000000D+01
-.825254536744D-02 0.000000000000D+00 -.420013873275D-03 0.172612462580D-06 0.000000000000D+00  6 3 21 25 -24 4 21 4 0.58416508D-01 0.18006723D-01 0.43110630D+05 0.43110630D+05 0.43110630D+05 0.11987114D+01  1  2  5  1  6  1        3 -.687811224313D+01 0.100000000000D+01
0.825527050577D-02 0.000000000000D+00 0.420003767315D-03 0.172612462580D-06 0.000000000000D+00  6 3 21 25 -24 4 21 4 0.58012671D-01 0.18006723D-01 0.43110630D+05 0.43110630D+05 0.43110630D+05 0.11987114D+01  1  2  6  1  6  1        3 0.697964766449D+01 0.100000000000D+01
0.323963027422D-02 0.000000000000D+00 0.000000000000D+00 0.172612462580D-06 0.370365082609D-05  6 3 21 25 -24 4 21 4 0.58405252D-01 0.18012843D-01 0.43243745D+05 0.43243745D+05 0.43243745D+05 0.11985766D+01  1  2 11  1  6  1        3 0.269828990672D+01 0.100000000000D+01
0.256722953653D-12 0.000000000000D+00 0.000000000000D+00 0.172573643169D-06 0.000000000000D+00  6 21 21 25 -24 4 -3 4 0.58415076D-01 0.18006723D-01 0.43243745D+05 0.43243745D+05 0.43243745D+05 0.11985766D+01  1  2 12  4  6  1        3 0.405193905222D-08 0.100000000000D+01
-.106157478353D-04 0.000000000000D+00 -.540671656830D-06 0.172612462580D-06 0.000000000000D+00  6 21 21 25 -24 4 -3 4 0.58416508D-01 0.18006723D-01 0.43110630D+05 0.43110630D+05 0.43110630D+05 0.11987114D+01  1  2  5  4  6  1        3 -.167641252023D+00 0.100000000000D+01
0.631408977498D-05 0.000000000000D+00 0.000000000000D+00 0.172612462580D-06 0.454163342986D-08  6 21 21 25 -24 4 -3 4 0.58405252D-01 0.18012843D-01 0.43243745D+05 0.43243745D+05 0.43243745D+05 0.11985766D+01  1  2 11  4  6  1        3 0.996304360256D-01 0.100000000000D+01
  </mgrwgt>
  </event>
  <event>
  6     66 0.42980143E-03 0.48875694E+02 0.75467711E-02 0.11860449E+00
        1 -1    0    0  502    0 0.00000000E+00 0.00000000E+00 0.14467543E+03 0.14467578E+03 0.32000000E+00 0.0000E+00 0.9000E+01
       21 -1    0    0  501  502 -.00000000E+00 -.00000000E+00 -.18610080E+03 0.18610231E+03 0.75000000E+00 0.0000E+00 0.9000E+01
       25  1    1    2    0    0 -.16258538E+02 -.27750063E+02 0.35129292E+01 0.12911912E+03 0.12500000E+03 0.0000E+00 0.9000E+01
      -24  1    1    2    0    0 0.49918611E+02 0.50477074E+02 -.15888780E+02 0.10844110E+03 0.80419002E+02 0.0000E+00 0.9000E+01
        2  1    1    2  503    0 -.59434905E+02 -.18286775E+02 -.23451842E+02 0.66460554E+02 0.32000000E+00 0.0000E+00 0.9000E+01
       21  1    1    2  501  503 0.25774832E+02 -.44402367E+01 -.55976815E+01 0.26757320E+02 0.75000000E+00 0.0000E+00 0.9000E+01
#aMCatNLO 2  0  0  5  2 0.20741809D+02 0.00000000D+00  -5  6  0 0.00000000D+00 0.00000000D+00 0.00000000D+00 0.00000000D+00 0.00000000D+00
  <mgrwgt>
 0.3546413604D-01    1    2    0
 0.164086931812437D+03 0.000000000000000D+00 0.000000000000000D+00 0.164086931812437D+03
 0.164086931812437D+03 -.000000000000000D+00 -.000000000000000D+00 -.164086931812437D+03
 0.129232872586923D+03 -.133466228083878D+01 -.176735817258337D+02 0.276043210864575D+02
 0.118090696716044D+03 0.628646595986348D+02 0.592181422236147D+02 0.440941057758447D+01
 0.808502943219075D+02 -.615299973177961D+02 -.415445604977811D+02 -.320137316640420D+02
 0.000000000000000D+00 0.000000000000000D+00 0.000000000000000D+00 0.000000000000000D+00
 0.164086931812437D+03 0.000000000000000D+00 0.000000000000000D+00 0.164086931812437D+03
 0.164086931812437D+03 -.000000000000000D+00 -.000000000000000D+00 -.164086931812437D+03
 0.130611450305370D+03 -.163864240134266D+02 -.278364104785797D+02 0.197729691900908D+02
 0.107215014305870D+03 0.498135840871685D+02 0.504061607546931D+02 -.238099487608824D+01
 0.638594608573143D+02 -.594062803931570D+02 -.179768639823375D+02 -.150252105541655D+02
 0.264879381563208D+02 0.259791203194150D+02 -.459288629377595D+01 -.236676375983699D+01
0.570361607538D-05 0.000000000000D+00 0.000000000000D+00 0.327338867480D-06 0.540989493296D-08  6 1 21 25 -24 2 21 4 0.22257901D-01 0.28631036D-01 0.26364558D+05 0.26364558D+05 0.26364558D+05 0.12208308D+01  1  2  1  3  6  5        2 0.354641360438D-01 0.100000000000D+01
  </mgrwgt>
  </event>
  <event>
  5     66 -.42980143E-03 0.72607110E+02 0.75467711E-02 0.11697094E+00
        1 -1    0    0  502    0 0.00000000E+00 0.00000000E+00 0.24931907E+04 0.24931908E+04 0.32000000E+00 0.0000E+00 0.9000E+01
       21 -1    0    0  501  502 0.00000000E+00 0.00000000E+00 -.26148753E+02 0.26159507E+02 0.75000000E+00 0.0000E+00 0.9000E+01
       25  1    1    2    0    0 -.50960175E+02 -.10100897E+02 0.14881711E+04 0.14943149E+04 0.12500000E+03 0.0000E+00 0.9000E+01
      -24  1    1    2    0    0 0.96384461E+02 -.46541991E+02 0.92496778E+03 0.93460619E+03 0.80419002E+02 0.0000E+00 0.9000E+01
        2  1    1    2  501    0 -.45424286E+02 0.56642888E+02 0.53903163E+02 0.90429176E+02 0.32000000E+00 0.0000E+00 0.9000E+01
#aMCatNLO 1  0  0  5  2 0.17755629D+02 0.00000000D+00  -5  6  0 0.00000000D+00 0.00000000D+00 0.00000000D+00 0.00000000D+00 0.00000000D+00
  <mgrwgt>
 -.1159876434D-01    6    2    0
 0.255357398882758D+03 0.000000000000000D+00 0.000000000000000D+00 0.255357398882758D+03
 0.255357398882758D+03 -.000000000000000D+00 -.000000000000000D+00 -.255357398882758D+03
 0.182728649535430D+03 -.509601507059015D+02 -.101009268647740D+02 0.122742794809090D+03
 0.142282989981237D+03 0.963844796511956D+02 -.465420141749399D+02 0.481778609170049D+02
 0.185703158248849D+03 -.454243289452942D+02 0.566429410397140D+02 -.170920655726095D+03
 0.000000000000000D+00 0.000000000000000D+00 0.000000000000000D+00 -.000000000000000D+00
 0.255357398882758D+03 0.000000000000000D+00 0.000000000000000D+00 0.255357398882758D+03
 0.255357398882758D+03 -.000000000000000D+00 -.000000000000000D+00 -.255357398882758D+03
 0.180522683272252D+03 -.519246043501599D+02 -.889827858849326D+01 0.119113791296619D+03
 0.140533690093813D+03 0.956335847387195D+02 -.456056680088660D+02 0.453524267542597D+02
 0.168929827436431D+03 -.558812111835497D+02 0.414386074811842D+02 -.153939659101813D+03
 0.207285969630201D+02 0.121722307949901D+02 0.130653391161751D+02 -.105265589490662D+02
0.529450170674D-05 0.000000000000D+00 0.000000000000D+00 0.112861942406D-05 0.000000000000D+00  6 1 21 25 -24 2 21 2 0.38356864D+00 0.40237139D-02 0.29215568D+05 0.29215568D+05 0.29215568D+05 0.12161079D+01  1  2  2  3  6  5        2 0.567165010900D-02 0.100000000000D+01
0.228529641053D-06 0.279398531106D-06 -.106880735324D-07 0.112861942406D-05 0.000000000000D+00  6 1 21 25 -24 2 21 4 0.38356864D+00 0.40237139D-02 0.29215568D+05 0.29215568D+05 0.29215568D+05 0.12161079D+01  1  2  3  3  6  5        2 0.362052149365D-03 0.100000000000D+01
0.493718545511D-06 0.000000000000D+00 0.000000000000D+00 0.112861942406D-05 0.000000000000D+00  6 1 21 25 -24 2 21 4 0.38356864D+00 0.40237139D-02 0.29215568D+05 0.29215568D+05 0.29215568D+05 0.12161079D+01  1  2 15  3  6  5        2 0.782182388944D-03 0.100000000000D+01
-.133000321420D-04 0.000000000000D+00 0.000000000000D+00 0.112861942406D-05 0.000000000000D+00  6 1 21 25 -24 2 21 4 0.38356864D+00 0.40237139D-02 0.29215568D+05 0.29215568D+05 0.29215568D+05 0.12161079D+01  1  2  4  3  6  5        2 -.210708125276D-01 0.100000000000D+01
-.142314539103D-04 0.000000000000D+00 0.000000000000D+00 0.112861942406D-05 0.000000000000D+00  6 1 21 25 -24 2 21 4 0.38356864D+00 0.40237139D-02 0.29215568D+05 0.29215568D+05 0.29215568D+05 0.12161079D+01  1  2  5  3  6  5        2 -.225464340340D-01 0.100000000000D+01
0.159080413873D-04 0.000000000000D+00 -.000000000000D+00 0.112861942406D-05 0.000000000000D+00  6 1 21 25 -24 2 21 4 0.38356864D+00 0.40237139D-02 0.29215568D+05 0.29215568D+05 0.29215568D+05 0.12161079D+01  1  2  6  3  6  5        2 0.252025975708D-01 0.100000000000D+01
  </mgrwgt>
  </event>
  <event>
  6     66 0.42980143E-03 0.59216440E+02 0.75467711E-02 0.11742207E+00
        1 -1    0    0  502    0 0.00000000E+00 0.00000000E+00 0.16297710E+04 0.16297711E+04 0.32000000E+00 0.0000E+00 0.9000E+01
       21 -1    0    0  503  502 0.00000000E+00 0.00000000E+00 -.19567282E+02 0.19581650E+02 0.75000000E+00 0.0000E+00 0.9000E+01
       25  1    1    2    0    0 -.62629675E+02 0.32302324E+02 0.56411843E+03 0.58208292E+03 0.12500000E+03 0.0000E+00 0.9000E+01
      -24  1    1    2    0    0 0.22893096E+02 -.85078038E+02 0.74851460E+03 0.75796021E+03 0.80419002E+02 0.0000E+00 0.9000E+01
        2  1    1    2  501    0 -.12976650E+02 0.10507949E+02 0.66174944E+02 0.68249806E+02 0.32000000E+00 0.0000E+00 0.9000E+01
       21  1    1    2  503  501 0.52713229E+02 0.42267765E+02 0.23139576E+03 0.24105976E+03 0.75000000E+00 0.0000E+00 0.9000E+01
#aMCatNLO 2  0  0  2  1 0.31835326D+02 0.00000000D+00  -5  6  0 0.00000000D+00 0.00000000D+00 0.00000000D+00 0.00000000D+00 0.00000000D+00
  <mgrwgt>
 0.1768291715D-02    1    2    0
 0.139294936372529D+03 0.000000000000000D+00 0.000000000000000D+00 0.139294936372529D+03
 0.139294936372529D+03 0.000000000000000D+00 0.000000000000000D+00 -.139294936372529D+03
 0.143565844329254D+03 -.355993711502120D+02 0.539744043189849D+02 -.283830954987608D+02
 0.118393005062036D+03 0.454414883004878D+02 -.669993991979143D+02 0.315569222422559D+02
 0.166310233537692D+02 -.984211715027584D+01 0.130249948789294D+02 -.317382674349506D+01
 0.000000000000000D+00 0.000000000000000D+00 0.000000000000000D+00 -.000000000000000D+00
 0.167628387057913D+03 0.000000000000000D+00 0.000000000000000D+00 0.167628387057913D+03
 0.190309930551159D+03 0.000000000000000D+00 0.000000000000000D+00 -.190309930551159D+03
 0.146274769053114D+03 -.626285935244340D+02 0.323011954051425D+02 -.283830954987608D+02
 0.123392251440364D+03 0.228936907763702D+02 -.850792062867516D+02 0.315569222422559D+02
 0.169992763205683D+02 -.129783265234261D+02 0.105102454717596D+02 -.317382674349506D+01
 0.712720207950268D+02 0.527132292714899D+02 0.422677654098496D+02 -.226815434932460D+02
0.192416125502D-06 0.000000000000D+00 0.000000000000D+00 0.101721930265D-05 0.194453840284D-08  6 1 21 25 -24 2 21 4 0.25073229D+00 0.30114249D-02 0.30110991D+05 0.30110991D+05 0.30110991D+05 0.12147301D+01  1  2  1  2  6  2       21 0.176829171480D-02 0.100000000000D+01
  </mgrwgt>
  </event>
  <event>
  5     66 0.42980143E-03 0.47260063E+02 0.75467711E-02 0.12113447E+00
        1 -1    0    0  502    0 0.00000000E+00 0.00000000E+00 0.99853887E+02 0.99854400E+02 0.32000000E+00 0.0000E+00 0.9000E+01
       21 -1    0    0  501  502 0.00000000E+00 0.00000000E+00 -.63829247E+03 0.63829291E+03 0.75000000E+00 0.0000E+00 0.9000E+01
       25  1    1    2    0    0 0.19134370E+02 -.64500298E+02 0.31871049E+02 0.14548944E+03 0.12500000E+03 0.0000E+00 0.9000E+01
      -24  1    1    2    0    0 -.43751026E+01 0.12918948E+02 -.16765250E+03 0.18644200E+03 0.80419002E+02 0.0000E+00 0.9000E+01
        2  1    1    2  501    0 -.14759267E+02 0.51581349E+02 -.40265713E+03 0.40621588E+03 0.32000000E+00 0.0000E+00 0.9000E+01
#aMCatNLO 1  0  0  2  1 0.59328350D+01 0.00000000D+00  -5  6  0 0.00000000D+00 0.00000000D+00 0.00000000D+00 0.00000000D+00 0.00000000D+00
  <mgrwgt>
 0.1112911211D+00   32    2    0
 0.252460563134630D+03 0.000000000000000D+00 0.000000000000000D+00 0.252460563134630D+03
 0.252460563134630D+03 0.000000000000000D+00 0.000000000000000D+00 -.252460563134630D+03
 0.246678735913063D+03 0.191343833696904D+02 -.645003452767181D+02 0.201739880995089D+03
 0.937791373842225D+02 -.437509739085979D+01 0.129189302840490D+02 -.462738632199075D+02
 0.164463252971975D+03 -.147592859788306D+02 0.515814149926691D+02 -.155466017775181D+03
 0.000000000000000D+00 0.000000000000000D+00 0.000000000000000D+00 -.000000000000000D+00
 0.254148455240117D+03 0.000000000000000D+00 0.000000000000000D+00 0.254148455240117D+03
 0.257745764732445D+03 0.000000000000000D+00 0.000000000000000D+00 -.257745764732445D+03
 0.246904045326830D+03 0.166699311742550D+02 -.660283379276387D+02 0.201739880995089D+03
 0.937493125231846D+02 -.531142442179867D+01 0.123383952569209D+02 -.462738632199075D+02
 0.164302622690714D+03 -.164008095790377D+02 0.505636488529667D+02 -.155466017775181D+03
 0.693823943183384D+01 0.504230282658140D+01 0.312629381775107D+01 -.359730949232821D+01
0.241899722350D-04 0.000000000000D+00 0.000000000000D+00 0.730016448640D-06 0.000000000000D+00  6 1 21 25 -24 2 21 2 0.15362210D-01 0.98198915D-01 0.19206446D+05 0.19206446D+05 0.19206446D+05 0.12357665D+01  1  2  2  2  6  2       21 0.124824729391D-01 0.100000000000D+01
0.127264866237D-05 0.127653990579D-05 -.488325845025D-07 0.730016448640D-06 0.000000000000D+00  6 1 21 25 -24 2 21 4 0.15362210D-01 0.98198915D-01 0.19206446D+05 0.19206446D+05 0.19206446D+05 0.12357665D+01  1  2  3  2  6  2       21 0.100287456057D-02 0.100000000000D+01
0.238957704348D-05 0.000000000000D+00 0.000000000000D+00 0.730016448640D-06 0.000000000000D+00  6 1 21 25 -24 2 21 4 0.15362210D-01 0.98198915D-01 0.19206446D+05 0.19206446D+05 0.19206446D+05 0.12357665D+01  1  2 15  2  6  2       21 0.188303818508D-02 0.100000000000D+01
0.284641621108D-04 0.000000000000D+00 0.000000000000D+00 0.727674940918D-06 0.000000000000D+00  6 1 21 25 -24 2 21 4 0.15362210D-01 0.10057835D+00 0.20017994D+05 0.20017994D+05 0.20017994D+05 0.12337831D+01  1  2 12  2  6  2       21 0.210463679325D-01 0.100000000000D+01
-.341815856600D-04 0.000000000000D+00 0.000000000000D+00 0.730016448640D-06 0.000000000000D+00  6 1 21 25 -24 2 21 4 0.15362210D-01 0.98198915D-01 0.19206446D+05 0.19206446D+05 0.19206446D+05 0.12357665D+01  1  2  4  2  6  2       21 -.269358258190D-01 0.100000000000D+01
-.200183733966D-02 0.000000000000D+00 -.266526051957D-03 0.730016448640D-06 0.000000000000D+00  6 1 21 25 -24 2 21 4 0.15362210D-01 0.10072261D+00 0.19206446D+05 0.19206446D+05 0.19206446D+05 0.12357665D+01  1  2  5  2  6  2       21 -.148641974146D+01 0.100000000000D+01
0.200578874889D-02 0.000000000000D+00 0.266183134616D-03 0.730016448640D-06 0.000000000000D+00  6 1 21 25 -24 2 21 4 0.15362210D-01 0.98198915D-01 0.19206446D+05 0.19206446D+05 0.19206446D+05 0.12357665D+01  1  2  6  2  6  2       21 0.158060474161D+01 0.100000000000D+01
0.228916676378D-04 0.000000000000D+00 0.000000000000D+00 0.730016448640D-06 0.182094636767D-06  6 1 21 25 -24 2 21 4 0.15464918D-01 0.10025469D+00 0.20017994D+05 0.20017994D+05 0.20017994D+05 0.12337831D+01  1  2 11  2  6  2       21 0.169087694686D-01 0.100000000000D+01
0.130252337570D-05 0.000000000000D+00 0.000000000000D+00 0.727674940918D-06 0.000000000000D+00  6 1 -1 25 -24 2 -1 4 0.15362210D-01 0.10057835D+00 0.20017994D+05 0.20017994D+05 0.20017994D+05 0.12337831D+01  1  2 12  5  6  2       21 0.109113870044D-03 0.100000000000D+01
-.103364772391D-04 0.000000000000D+00 -.156023689876D-05 0.730016448640D-06 0.000000000000D+00  6 1 -1 25 -24 2 -1 4 0.15362210D-01 0.10072261D+00 0.19206446D+05 0.19206446D+05 0.19206446D+05 0.12357665D+01  1  2  5  5  6  2       21 -.868771813220D-03 0.100000000000D+01
0.668778527882D-06 0.000000000000D+00 0.000000000000D+00 0.730016448640D-06 0.146178749082D-08  6 1 -1 25 -24 2 -1 4 0.15464918D-01 0.10025469D+00 0.20017994D+05 0.20017994D+05 0.20017994D+05 0.12337831D+01  1  2 11  5  6  2       21 0.559401022524D-04 0.100000000000D+01
0.130252337570D-05 0.000000000000D+00 0.000000000000D+00 0.727674940918D-06 0.000000000000D+00  6 1 1 25 -24 2 1 4 0.15362210D-01 0.10057835D+00 0.20017994D+05 0.20017994D+05 0.20017994D+05 0.12337831D+01  1  2 12  6  6  2       21 0.403887361191D-03 0.100000000000D+01
-.103364772391D-04 0.000000000000D+00 -.156023689876D-05 0.730016448640D-06 0.000000000000D+00  6 1 1 25 -24 2 1 4 0.15362210D-01 0.10072261D+00 0.19206446D+05 0.19206446D+05 0.19206446D+05 0.12357665D+01  1  2  5  6  6  2       21 -.321918027569D-02 0.100000000000D+01
0.569433356579D-06 0.000000000000D+00 0.000000000000D+00 0.730016448640D-06 0.147163802865D-08  6 1 1 25 -24 2 1 4 0.15464918D-01 0.10025469D+00 0.20017994D+05 0.20017994D+05 0.20017994D+05 0.12337831D+01  1  2 11  6  6  2       21 0.175845592666D-03 0.100000000000D+01
0.130252337570D-05 0.000000000000D+00 0.000000000000D+00 0.727674940918D-06 0.000000000000D+00  6 1 -2 25 -24 2 -2 4 0.15362210D-01 0.10057835D+00 0.20017994D+05 0.20017994D+05 0.20017994D+05 0.12337831D+01  1  2 12  7  6  2       21 0.808584275694D-04 0.100000000000D+01
-.103364772391D-04 0.000000000000D+00 -.156023689876D-05 0.730016448640D-06 0.000000000000D+00  6 1 -2 25 -24 2 -2 4 0.15362210D-01 0.10072261D+00 0.19206446D+05 0.19206446D+05 0.19206446D+05 0.12357665D+01  1  2  5  7  6  2       21 -.643528622775D-03 0.100000000000D+01
0.123684119329D-05 0.000000000000D+00 0.000000000000D+00 0.730016448640D-06 0.871708627445D-08  6 1 -2 25 -24 2 -2 4 0.15464918D-01 0.10025469D+00 0.20017994D+05 0.20017994D+05 0.20017994D+05 0.12337831D+01  1  2 11  7  6  2       21 0.766913344548D-04 0.100000000000D+01
0.130252337570D-05 0.000000000000D+00 0.000000000000D+00 0.727674940918D-06 0.000000000000D+00  6 1 2 25 -24 2 2 4 0.15362210D-01 0.10057835D+00 0.20017994D+05 0.20017994D+05 0.20017994D+05 0.12337831D+01  1  2 12  8  6  2       21 0.667253489545D-03 0.100000000000D+01
-.103364772391D-04 0.000000000000D+00 -.156023689876D-05 0.730016448640D-06 0.000000000000D+00  6 1 2 25 -24 2 2 4 0.15362210D-01 0.10072261D+00 0.19206446D+05 0.19206446D+05 0.19206446D+05 0.12357665D+01  1  2  5  8  6  2       21 -.531900215824D-02 0.100000000000D+01
0.738174747942D-06 0.000000000000D+00 0.000000000000D+00 0.730016448640D-06 0.994279747993D-09  6 1 2 25 -24 2 2 4 0.15464918D-01 0.10025469D+00 0.20017994D+05 0.20017994D+05 0.20017994D+05 0.12337831D+01  1  2 11  8  6  2       21 0.376314867352D-03 0.100000000000D+01
0.130252337570D-05 0.000000000000D+00 0.000000000000D+00 0.727674940918D-06 0.000000000000D+00  6 1 -3 25 -24 2 -3 4 0.15362210D-01 0.10057835D+00 0.20017994D+05 0.20017994D+05 0.20017994D+05 0.12337831D+01  1  2 12  9  6  2       21 0.507950779488D-04 0.100000000000D+01
0.130252337570D-05 0.000000000000D+00 0.000000000000D+00 0.727674940918D-06 0.000000000000D+00  6 1 -4 25 -24 2 -4 4 0.15362210D-01 0.10057835D+00 0.20017994D+05 0.20017994D+05 0.20017994D+05 0.12337831D+01  1  2 12  9  6  2       21 0.405605640078D-04 0.100000000000D+01
-.103364772391D-04 0.000000000000D+00 -.156023689876D-05 0.730016448640D-06 0.000000000000D+00  6 1 -3 25 -24 2 -3 4 0.15362210D-01 0.10072261D+00 0.19206446D+05 0.19206446D+05 0.19206446D+05 0.12357665D+01  1  2  5  9  6  2       21 -.403968148570D-03 0.100000000000D+01
-.103364772391D-04 0.000000000000D+00 -.156023689876D-05 0.730016448640D-06 0.000000000000D+00  6 1 -4 25 -24 2 -4 4 0.15362210D-01 0.10072261D+00 0.19206446D+05 0.19206446D+05 0.19206446D+05 0.12357665D+01  1  2  5  9  6  2       21 -.322410669787D-03 0.100000000000D+01
0.668762741830D-06 0.000000000000D+00 0.000000000000D+00 0.730016448640D-06 0.146175298634D-08  6 1 -3 25 -24 2 -3 4 0.15464918D-01 0.10025469D+00 0.20017994D+05 0.20017994D+05 0.20017994D+05 0.12337831D+01  1  2 11  9  6  2       21 0.260469544046D-04 0.100000000000D+01
0.668762741830D-06 0.000000000000D+00 0.000000000000D+00 0.730016448640D-06 0.146175298634D-08  6 1 -4 25 -24 2 -4 4 0.15464918D-01 0.10025469D+00 0.20017994D+05 0.20017994D+05 0.20017994D+05 0.12337831D+01  1  2 11  9  6  2       21 0.208016664185D-04 0.100000000000D+01
0.130252337570D-05 0.000000000000D+00 0.000000000000D+00 0.727674940918D-06 0.000000000000D+00  6 1 3 25 -24 2 3 4 0.15362210D-01 0.10057835D+00 0.20017994D+05 0.20017994D+05 0.20017994D+05 0.12337831D+01  1  2 12 10  6  2       21 0.508955683024D-04 0.100000000000D+01
0.130252337570D-05 0.000000000000D+00 0.000000000000D+00 0.727674940918D-06 0.000000000000D+00  6 1 4 25 -24 2 4 4 0.15362210D-01 0.10057835D+00 0.20017994D+05 0.20017994D+05 0.20017994D+05 0.12337831D+01  1  2 12 10  6  2       21 0.405605640078D-04 0.100000000000D+01
-.103364772391D-04 0.000000000000D+00 -.156023689876D-05 0.730016448640D-06 0.000000000000D+00  6 1 3 25 -24 2 3 4 0.15362210D-01 0.10072261D+00 0.19206446D+05 0.19206446D+05 0.19206446D+05 0.12357665D+01  1  2  5 10  6  2       21 -.404769287867D-03 0.100000000000D+01
-.103364772391D-04 0.000000000000D+00 -.156023689876D-05 0.730016448640D-06 0.000000000000D+00  6 1 4 25 -24 2 4 4 0.15362210D-01 0.10072261D+00 0.19206446D+05 0.19206446D+05 0.19206446D+05 0.12357665D+01  1  2  5 10  6  2       21 -.322410669787D-03 0.100000000000D+01
0.668762741830D-06 0.000000000000D+00 0.000000000000D+00 0.730016448640D-06 0.146175298634D-08  6 1 3 25 -24 2 3 4 0.15464918D-01 0.10025469D+00 0.20017994D+05 0.20017994D+05 0.20017994D+05 0.12337831D+01  1  2 11 10  6  2       21 0.260981810626D-04 0.100000000000D+01
0.668762741830D-06 0.000000000000D+00 0.000000000000D+00 0.730016448640D-06 0.146175298634D-08  6 1 4 25 -24 2 4 4 0.15464918D-01 0.10025469D+00 0.20017994D+05 0.20017994D+05 0.20017994D+05 0.12337831D+01  1  2 11 10  6  2       21 0.208016664185D-04 0.100000000000D+01
  </mgrwgt>
  </event>
  <event>
  5     66 0.42980143E-03 0.24860951E+02 0.75467711E-02 0.11840118E+00
        1 -1    0    0  502    0 0.00000000E+00 0.00000000E+00 0.14703334E+04 0.14703335E+04 0.32000000E+00 0.0000E+00 0.9000E+01
       21 -1    0    0  501  502 0.00000000E+00 0.00000000E+00 -.12487856E+02 0.12510358E+02 0.75000000E+00 0.0000E+00 0.9000E+01
       25  1    1    2    0    0 0.29041681E+02 0.24948217E+02 0.10366407E+04 0.10448516E+04 0.12500000E+03 0.0000E+00 0.9000E+01
      -24  1    1    2    0    0 -.47646701E+02 -.84599370E+01 0.35729936E+03 0.36942093E+03 0.80419002E+02 0.0000E+00 0.9000E+01
        2  1    1    2  501    0 0.18605020E+02 -.16488280E+02 0.63905480E+02 0.68571298E+02 0.32000000E+00 0.0000E+00 0.9000E+01
#aMCatNLO 1  0  0  2  1 0.10530867D+02 0.00000000D+00  -5  6  0 0.00000000D+00 0.00000000D+00 0.00000000D+00 0.00000000D+00 0.00000000D+00
  <mgrwgt>
 0.2952972753D+00    3    2    0
 0.135565561325535D+03 0.000000000000000D+00 0.000000000000000D+00 0.135565561325535D+03
 0.135565561325535D+03 0.000000000000000D+00 0.000000000000000D+00 -.135565561325535D+03
 0.140484293375227D+03 0.290411807153472D+02 0.249486608255133D+02 0.514296687798874D+02
 0.992371054982054D+02 -.476470545822918D+02 -.845962374866087D+01 -.322332143751537D+02
 0.314097237776375D+02 0.186058738669446D+02 -.164890370768524D+02 -.191964544047337D+02
 0.000000000000000D+00 -.000000000000000D+00 0.000000000000000D+00 0.000000000000000D+00
 0.296909718098397D+03 0.000000000000000D+00 0.000000000000000D+00 0.296909718098397D+03
 0.147398133419028D+03 0.000000000000000D+00 0.000000000000000D+00 -.147398133419028D+03
 0.147246345708591D+03 0.582682181044477D+02 0.403611851381636D+01 0.514296687798874D+02
 0.937985147132730D+02 -.280389262741155D+02 -.224896401146316D+02 -.322332143751537D+02
 0.386799270062679D+02 0.257254244666757D+02 -.215832209715453D+02 -.191964544047337D+02
 0.164583064089293D+03 -.559547162970079D+02 0.400367425723605D+02 0.149511584679369D+03
0.138888444469D-04 0.000000000000D+00 0.000000000000D+00 0.110156547072D-05 0.000000000000D+00  6 1 21 25 -24 2 21 2 0.22620688D+00 0.19229422D-02 0.15556230D+05 0.15556230D+05 0.15556230D+05 0.12460238D+01  1  2  2  2  6  2       21 0.240775767551D+00 0.100000000000D+01
0.674923411361D-06 0.732934457698D-06 -.280375753848D-07 0.110156547072D-05 0.000000000000D+00  6 1 21 25 -24 2 21 4 0.22620688D+00 0.19229422D-02 0.15556230D+05 0.15556230D+05 0.15556230D+05 0.12460238D+01  1  2  3  2  6  2       21 0.181657721351D-01 0.100000000000D+01
0.135074561883D-05 0.000000000000D+00 0.000000000000D+00 0.110156547072D-05 0.000000000000D+00  6 1 21 25 -24 2 21 4 0.22620688D+00 0.19229422D-02 0.15556230D+05 0.15556230D+05 0.15556230D+05 0.12460238D+01  1  2 15  2  6  2       21 0.363557356450D-01 0.100000000000D+01
  </mgrwgt>
  </event>
  <event>
  5     66 -.42980143E-03 0.21146068E+02 0.75467711E-02 0.12000275E+00
        1 -1    0    0  502    0 0.00000000E+00 0.00000000E+00 0.19712764E+04 0.19712765E+04 0.32000000E+00 0.0000E+00 0.9000E+01
       21 -1    0    0  501  502 0.00000000E+00 0.00000000E+00 -.79419174E+02 0.79422715E+02 0.75000000E+00 0.0000E+00 0.9000E+01
       25  1    1    2    0    0 0.61485714E+02 -.77060592E+02 0.61741513E+03 0.63760903E+03 0.12500000E+03 0.0000E+00 0.9000E+01
      -24  1    1    2    0    0 -.68895696E+02 0.57255338E+02 0.13393883E+04 0.13447874E+04 0.80419002E+02 0.0000E+00 0.9000E+01
        2  1    1    2  501    0 0.74099820E+01 0.19805254E+02 -.64946202E+02 0.68302764E+02 0.32000000E+00 0.0000E+00 0.9000E+01
#aMCatNLO 1  0  0  5  2 0.58325751D+01 0.00000000D+00  -5  6  0 0.00000000D+00 0.00000000D+00 0.00000000D+00 0.00000000D+00 0.00000000D+00
  <mgrwgt>
 -.3369437840D+01    6    2    0
 0.395677652974191D+03 0.000000000000000D+00 0.000000000000000D+00 0.395677652974191D+03
 0.395677652974191D+03 -.000000000000000D+00 -.000000000000000D+00 -.395677652974191D+03
 0.176258401460784D+03 0.614857134534707D+02 -.770605945033099D+02 0.756518069937865D+02
 0.282834879702584D+03 -.688956974719817D+02 0.572553347438222D+02 0.255936638125976D+03
 0.332262024785014D+03 0.740998401851094D+01 0.198052597594876D+02 -.331588445119762D+03
 0.000000000000000D+00 0.000000000000000D+00 0.000000000000000D+00 -.000000000000000D+00
 0.395677652974191D+03 0.000000000000000D+00 0.000000000000000D+00 0.395677652974191D+03
 0.395677652974191D+03 -.000000000000000D+00 -.000000000000000D+00 -.395677652974191D+03
 0.176238033683861D+03 0.614867307380054D+02 -.770578755251841D+02 0.756062846557817D+02
 0.282769270100895D+03 -.688940651707809D+02 0.572596975264147D+02 0.255863594484347D+03
 0.165607805003648D+03 0.916376625239616D+01 0.784836259604937D+01 -.165167713766216D+03
 0.166740197159977D+03 -.175643181962066D+01 0.119498154027200D+02 -.166302165373912D+03
0.105369484093D-03 0.000000000000D+00 0.000000000000D+00 0.246819430697D-04 0.000000000000D+00  6 1 21 25 -24 2 21 2 0.30327357D+00 0.12218609D-01 0.22609072D+05 0.22609072D+05 0.22609072D+05 0.12280061D+01  1  2  2  3  6  5        2 0.373300474527D-01 0.100000000000D+01
0.470309457154D-04 0.556050044171D-05 -.212710630090D-06 0.246819430697D-04 0.000000000000D+00  6 1 21 25 -24 2 21 4 0.30327357D+00 0.12218609D-01 0.22609072D+05 0.22609072D+05 0.22609072D+05 0.12280061D+01  1  2  3  3  6  5        2 0.251262950378D-01 0.100000000000D+01
0.115395606513D-04 0.000000000000D+00 0.000000000000D+00 0.246819430697D-04 0.000000000000D+00  6 1 21 25 -24 2 21 4 0.30327357D+00 0.12218609D-01 0.22609072D+05 0.22609072D+05 0.22609072D+05 0.12280061D+01  1  2 15  3  6  5        2 0.616501329332D-02 0.100000000000D+01
-.126329963677D-01 0.000000000000D+00 0.000000000000D+00 0.246819430697D-04 0.000000000000D+00  6 1 21 25 -24 2 21 4 0.30327357D+00 0.12218609D-01 0.22609072D+05 0.22609072D+05 0.22609072D+05 0.12280061D+01  1  2  4  3  6  5        2 -.674918161049D+01 0.100000000000D+01
-.102892685818D-01 0.000000000000D+00 0.000000000000D+00 0.246819430697D-04 0.000000000000D+00  6 1 21 25 -24 2 21 4 0.30327357D+00 0.12218609D-01 0.22609072D+05 0.22609072D+05 0.22609072D+05 0.12280061D+01  1  2  5  3  6  5        2 -.549704442848D+01 0.100000000000D+01
0.164869677773D-01 0.000000000000D+00 -.000000000000D+00 0.246819430697D-04 0.000000000000D+00  6 1 21 25 -24 2 21 4 0.30327357D+00 0.12218609D-01 0.22609072D+05 0.22609072D+05 0.22609072D+05 0.12280061D+01  1  2  6  3  6  5        2 0.880816684316D+01 0.100000000000D+01
  </mgrwgt>
  </event>
  <event>
  5     66 0.42980143E-03 0.34189866E+02 0.75467711E-02 0.12271808E+00
        1 -1    0    0  502    0 0.00000000E+00 0.00000000E+00 0.81475122E+03 0.81475128E+03 0.32000000E+00 0.0000E+00 0.9000E+01
       21 -1    0    0  501  502 0.00000000E+00 0.00000000E+00 -.47422703E+02 0.47428633E+02 0.75000000E+00 0.0000E+00 0.9000E+01
       25  1    1    2    0    0 -.10428727E+02 0.15658201E+02 0.69625040E+03 0.70763236E+03 0.12500000E+03 0.0000E+00 0.9000E+01
      -24  1    1    2    0    0 -.20708020E+02 -.29780520E+02 0.80128911E+02 0.11917869E+03 0.80419002E+02 0.0000E+00 0.9000E+01
        2  1    1    2  501    0 0.31136747E+02 0.14122319E+02 -.90508003E+01 0.35368861E+02 0.32000000E+00 0.0000E+00 0.9000E+01
#aMCatNLO 1  0  0  2  1 0.10812689D+02 0.00000000D+00  -5  6  0 0.00000000D+00 0.00000000D+00 0.00000000D+00 0.00000000D+00 0.00000000D+00
  <mgrwgt>
 0.1792290463D+00   23    2    0
 0.196571331376663D+03 0.000000000000000D+00 0.000000000000000D+00 0.196571331376663D+03
 0.196571331376663D+03 0.000000000000000D+00 0.000000000000000D+00 -.196571331376663D+03
 0.192941908341425D+03 -.104288131236503D+02 0.156581614301074D+02 0.145765708696838D+03
 0.104970165841002D+03 -.207080671835772D+02 -.297805409794737D+02 -.568842253600003D+02
 0.952305885708978D+02 0.311368803072275D+02 0.141223795493663D+02 -.888814833368382D+02
 0.000000000000000D+00 -.000000000000000D+00 0.000000000000000D+00 -.000000000000000D+00
 0.198598522257314D+03 0.000000000000000D+00 0.000000000000000D+00 0.198598522257314D+03
 0.211612725832148D+03 0.000000000000000D+00 0.000000000000000D+00 -.211612725832148D+03
 0.192520484302398D+03 -.632019442054059D+01 0.123105721485586D+02 0.145765708696838D+03
 0.105085686486599D+03 -.184690954445928D+02 -.316047934440410D+02 -.568842253600003D+02
 0.956851557458037D+02 0.331718388733217D+02 0.124643513952578D+02 -.888814833368382D+02
 0.169199215546611D+02 -.838254900818840D+01 0.682986990022459D+01 -.130142035748336D+02
0.281195988145D-05 0.000000000000D+00 0.000000000000D+00 0.101435393441D-05 0.000000000000D+00  6 1 21 25 -24 2 21 2 0.12534680D+00 0.72962614D-02 0.15477668D+05 0.15477668D+05 0.15477668D+05 0.12462735D+01  1  2  2  2  6  2       21 0.154861766355D-01 0.100000000000D+01
0.182138592889D-06 0.148391199762D-06 -.567653683909D-08 0.101435393441D-05 0.000000000000D+00  6 1 21 25 -24 2 21 4 0.12534680D+00 0.72962614D-02 0.15477668D+05 0.15477668D+05 0.15477668D+05 0.12462735D+01  1  2  3  2  6  2       21 0.155798678061D-02 0.100000000000D+01
0.256343461822D-06 0.000000000000D+00 0.000000000000D+00 0.101435393441D-05 0.000000000000D+00  6 1 21 25 -24 2 21 4 0.12534680D+00 0.72962614D-02 0.15477668D+05 0.15477668D+05 0.15477668D+05 0.12462735D+01  1  2 15  2  6  2       21 0.219272433414D-02 0.100000000000D+01
0.221015632831D-04 0.000000000000D+00 0.000000000000D+00 0.100712001345D-05 0.000000000000D+00  6 1 21 25 -24 2 21 4 0.12534680D+00 0.78904173D-02 0.16948253D+05 0.16948253D+05 0.16948253D+05 0.12418216D+01  1  2 12  2  6  2       21 0.162853708626D+00 0.100000000000D+01
-.102718089644D-04 0.000000000000D+00 0.000000000000D+00 0.101435393441D-05 0.000000000000D+00  6 1 21 25 -24 2 21 4 0.12534680D+00 0.72962614D-02 0.15477668D+05 0.15477668D+05 0.15477668D+05 0.12462735D+01  1  2  4  2  6  2       21 -.878635456970D-01 0.100000000000D+01
-.806555783203D-04 0.000000000000D+00 -.107970391994D-04 0.101435393441D-05 0.000000000000D+00  6 1 21 25 -24 2 21 4 0.12534680D+00 0.79320275D-02 0.15477668D+05 0.15477668D+05 0.15477668D+05 0.12462735D+01  1  2  5  2  6  2       21 -.597701163137D+00 0.100000000000D+01
0.802421467177D-04 0.000000000000D+00 0.106477894803D-04 0.101435393441D-05 0.000000000000D+00  6 1 21 25 -24 2 21 4 0.12534680D+00 0.72962614D-02 0.15477668D+05 0.15477668D+05 0.15477668D+05 0.12462735D+01  1  2  6  2  6  2       21 0.686379541265D+00 0.100000000000D+01
0.454706177566D-06 0.000000000000D+00 0.000000000000D+00 0.100712001345D-05 0.000000000000D+00  6 1 -1 25 -24 2 -1 4 0.12534680D+00 0.78904173D-02 0.16948253D+05 0.16948253D+05 0.16948253D+05 0.12418216D+01  1  2 12  5  6  2       21 0.210494571932D-03 0.100000000000D+01
-.157628341032D-05 0.000000000000D+00 -.225584297889D-06 0.101435393441D-05 0.000000000000D+00  6 1 -1 25 -24 2 -1 4 0.12534680D+00 0.79320275D-02 0.15477668D+05 0.15477668D+05 0.15477668D+05 0.12462735D+01  1  2  5  5  6  2       21 -.733687596151D-03 0.100000000000D+01
0.454706177566D-06 0.000000000000D+00 0.000000000000D+00 0.100712001345D-05 0.000000000000D+00  6 1 1 25 -24 2 1 4 0.12534680D+00 0.78904173D-02 0.16948253D+05 0.16948253D+05 0.16948253D+05 0.12418216D+01  1  2 12  6  6  2       21 0.252692350927D-03 0.100000000000D+01
-.157628341032D-05 0.000000000000D+00 -.225584297889D-06 0.101435393441D-05 0.000000000000D+00  6 1 1 25 -24 2 1 4 0.12534680D+00 0.79320275D-02 0.15477668D+05 0.15477668D+05 0.15477668D+05 0.12462735D+01  1  2  5  6  6  2       21 -.881675662772D-03 0.100000000000D+01
0.454706177566D-06 0.000000000000D+00 0.000000000000D+00 0.100712001345D-05 0.000000000000D+00  6 1 -2 25 -24 2 -2 4 0.12534680D+00 0.78904173D-02 0.16948253D+05 0.16948253D+05 0.16948253D+05 0.12418216D+01  1  2 12  7  6  2       21 0.203130601850D-03 0.100000000000D+01
-.157628341032D-05 0.000000000000D+00 -.225584297889D-06 0.101435393441D-05 0.000000000000D+00  6 1 -2 25 -24 2 -2 4 0.12534680D+00 0.79320275D-02 0.15477668D+05 0.15477668D+05 0.15477668D+05 0.12462735D+01  1  2  5  7  6  2       21 -.707856167863D-03 0.100000000000D+01
0.454706177566D-06 0.000000000000D+00 0.000000000000D+00 0.100712001345D-05 0.000000000000D+00  6 1 2 25 -24 2 2 4 0.12534680D+00 0.78904173D-02 0.16948253D+05 0.16948253D+05 0.16948253D+05 0.12418216D+01  1  2 12  8  6  2       21 0.281031608654D-03 0.100000000000D+01
-.157628341032D-05 0.000000000000D+00 -.225584297889D-06 0.101435393441D-05 0.000000000000D+00  6 1 2 25 -24 2 2 4 0.12534680D+00 0.79320275D-02 0.15477668D+05 0.15477668D+05 0.15477668D+05 0.12462735D+01  1  2  5  8  6  2       21 -.981015053592D-03 0.100000000000D+01
0.454706177566D-06 0.000000000000D+00 0.000000000000D+00 0.100712001345D-05 0.000000000000D+00  6 1 -3 25 -24 2 -3 4 0.12534680D+00 0.78904173D-02 0.16948253D+05 0.16948253D+05 0.16948253D+05 0.12418216D+01  1  2 12  9  6  2       21 0.141976632696D-03 0.100000000000D+01
0.454706177566D-06 0.000000000000D+00 0.000000000000D+00 0.100712001345D-05 0.000000000000D+00  6 1 -4 25 -24 2 -4 4 0.12534680D+00 0.78904173D-02 0.16948253D+05 0.16948253D+05 0.16948253D+05 0.12418216D+01  1  2 12  9  6  2       21 0.124718961247D-03 0.100000000000D+01
-.157628341032D-05 0.000000000000D+00 -.225584297889D-06 0.101435393441D-05 0.000000000000D+00  6 1 -3 25 -24 2 -3 4 0.12534680D+00 0.79320275D-02 0.15477668D+05 0.15477668D+05 0.15477668D+05 0.12462735D+01  1  2  5  9  6  2       21 -.493474048931D-03 0.100000000000D+01
-.157628341032D-05 0.000000000000D+00 -.225584297889D-06 0.101435393441D-05 0.000000000000D+00  6 1 -4 25 -24 2 -4 4 0.12534680D+00 0.79320275D-02 0.15477668D+05 0.15477668D+05 0.15477668D+05 0.12462735D+01  1  2  5  9  6  2       21 -.432991779909D-03 0.100000000000D+01
0.454706177566D-06 0.000000000000D+00 0.000000000000D+00 0.100712001345D-05 0.000000000000D+00  6 1 3 25 -24 2 3 4 0.12534680D+00 0.78904173D-02 0.16948253D+05 0.16948253D+05 0.16948253D+05 0.12418216D+01  1  2 12 10  6  2       21 0.141959403173D-03 0.100000000000D+01
0.454706177566D-06 0.000000000000D+00 0.000000000000D+00 0.100712001345D-05 0.000000000000D+00  6 1 4 25 -24 2 4 4 0.12534680D+00 0.78904173D-02 0.16948253D+05 0.16948253D+05 0.16948253D+05 0.12418216D+01  1  2 12 10  6  2       21 0.124718961247D-03 0.100000000000D+01
-.157628341032D-05 0.000000000000D+00 -.225584297889D-06 0.101435393441D-05 0.000000000000D+00  6 1 3 25 -24 2 3 4 0.12534680D+00 0.79320275D-02 0.15477668D+05 0.15477668D+05 0.15477668D+05 0.12462735D+01  1  2  5 10  6  2       21 -.493413553207D-03 0.100000000000D+01
-.157628341032D-05 0.000000000000D+00 -.225584297889D-06 0.101435393441D-05 0.000000000000D+00  6 1 4 25 -24 2 4 4 0.12534680D+00 0.79320275D-02 0.15477668D+05 0.15477668D+05 0.15477668D+05 0.12462735D+01  1  2  5 10  6  2       21 -.432991779909D-03 0.100000000000D+01
  </mgrwgt>
  </event>
  <event>
  6     66 -.42980143E-03 0.34164693E+02 0.75467711E-02 0.11852071E+00
        1 -1    0    0  502    0 0.00000000E+00 0.00000000E+00 0.98051523E+03 0.98051528E+03 0.32000000E+00 0.0000E+00 0.9000E+01
       21 -1    0    0  503  502 0.00000000E+00 0.00000000E+00 -.50059158E+02 0.50064776E+02 0.75000000E+00 0.0000E+00 0.9000E+01
       25  1    1    2    0    0 -.21560011E+02 0.46121663E+01 0.53906954E+03 0.55381140E+03 0.12500000E+03 0.0000E+00 0.9000E+01
      -24  1    1    2    0    0 -.87604165E+01 0.75457805E+02 0.76876466E+02 0.13471389E+03 0.80419002E+02 0.0000E+00 0.9000E+01
        2  1    1    2  501    0 0.74349073E+01 -.51814167E+02 0.29720336E+03 0.30177794E+03 0.32000000E+00 0.0000E+00 0.9000E+01
       21  1    1    2  503  501 0.22885520E+02 -.28255804E+02 0.17306703E+02 0.40276817E+02 0.75000000E+00 0.0000E+00 0.9000E+01
#aMCatNLO 2  0  0  2  5 0.36361209D+02 0.00000000D+00  -5  6  0 0.00000000D+00 0.00000000D+00 0.00000000D+00 0.00000000D+00 0.00000000D+00
  <mgrwgt>
 -.1438815400D-01    3    2    0
 0.190746298597189D+03 0.000000000000000D+00 0.000000000000000D+00 0.190746298597189D+03
 0.190746298597189D+03 0.000000000000000D+00 0.000000000000000D+00 -.190746298597189D+03
 0.145655396489159D+03 -.128129746459108D+02 -.618729405302935D+01 0.734032669534449D+02
 0.159571595850569D+03 0.951106978541835D+00 0.634675462584732D+02 -.122339054334136D+03
 0.762656048546501D+02 0.118618676673689D+02 -.572802522054439D+02 0.489357873806910D+02
 0.000000000000000D+00 0.000000000000000D+00 -.000000000000000D+00 -.000000000000000D+00
 0.197405214520763D+03 0.000000000000000D+00 0.000000000000000D+00 0.197405214520763D+03
 0.248654027090120D+03 0.000000000000000D+00 0.000000000000000D+00 -.248654027090120D+03
 0.146625881024009D+03 -.215600460871627D+02 0.461235290795165D+01 0.734032669534449D+02
 0.164938536620836D+03 -.876047405835723D+01 0.754580332844322D+02 -.122339054334136D+03
 0.716571099667892D+02 0.743499994140324D+01 -.518145819060199D+02 0.489357873806910D+02
 0.628377139992489D+02 0.228855202041167D+02 -.282558042863639D+02 -.512488125693568D+02
-.819933819695D-05 0.000000000000D+00 0.000000000000D+00 0.741164774028D-07 0.000000000000D+00  6 1 21 25 -24 2 21 4 0.14575885D+00 0.77822616D-02 0.26611558D+05 0.26611558D+05 0.26611558D+05 0.12203996D+01  1  2 13  2  6  2       21 -.453011891571D-01 0.100000000000D+01
-.734625981341D-05 0.000000000000D+00 0.000000000000D+00 0.741164774028D-07 0.000000000000D+00  6 1 21 25 -24 2 21 4 0.14575885D+00 0.80082691D-02 0.26611558D+05 0.26611558D+05 0.26611558D+05 0.12203996D+01  1  2 13  2  6  2       21 -.386238726723D-01 0.100000000000D+01
0.130871922727D-04 0.000000000000D+00 0.000000000000D+00 0.755953436910D-07 0.120655875199D-08  6 1 21 25 -24 2 21 4 0.15084726D+00 0.77017598D-02 0.26611558D+05 0.26611558D+05 0.26611558D+05 0.12203996D+01  1  2  1  2  6  2       21 0.695369078315D-01 0.100000000000D+01
  </mgrwgt>
  </event>
  <event>
  5     66 0.42980143E-03 0.70290673E+02 0.75467711E-02 0.11362728E+00
        1 -1    0    0  502    0 0.00000000E+00 0.00000000E+00 0.20571574E+03 0.20571599E+03 0.32000000E+00 0.0000E+00 0.9000E+01
       21 -1    0    0  501  502 -.00000000E+00 -.00000000E+00 -.76577893E+03 0.76577930E+03 0.75000000E+00 0.0000E+00 0.9000E+01
       25  1    1    2    0    0 -.16503958E+03 0.52446412E+02 0.21985099E+02 0.21470220E+03 0.12500000E+03 0.0000E+00 0.9000E+01
      -24  1    1    2    0    0 0.96352648E+02 -.37517218E+02 0.35134136E+02 0.13562079E+03 0.80419002E+02 0.0000E+00 0.9000E+01
        2  1    1    2  501    0 0.68686935E+02 -.14929194E+02 -.61718243E+03 0.62117230E+03 0.32000000E+00 0.0000E+00 0.9000E+01
#aMCatNLO 1  0  0  5  1 0.99154030D+01 0.00000000D+00  -5  6  0 0.00000000D+00 0.00000000D+00 0.00000000D+00 0.00000000D+00 0.00000000D+00
  <mgrwgt>
 0.3956048654D-01    5    2    0
 0.396904369264793D+03 0.000000000000000D+00 0.000000000000000D+00 0.396904369264793D+03
 0.396904369264793D+03 -.000000000000000D+00 -.000000000000000D+00 -.396904369264793D+03
 0.278272640167572D+03 -.165039594432361D+03 0.524464143884642D+02 0.178387130010061D+03
 0.190766745044505D+03 0.963526396950084D+02 -.375172162703185D+02 0.138684398429077D+03
 0.324769353317508D+03 0.686869547373529D+02 -.149291981181457D+02 -.317071528439137D+03
 0.000000000000000D+00 -.000000000000000D+00 0.000000000000000D+00 0.000000000000000D+00
 0.396904369264793D+03 0.000000000000000D+00 0.000000000000000D+00 0.396904369264793D+03
 0.396904369264793D+03 -.000000000000000D+00 -.000000000000000D+00 -.396904369264793D+03
 0.256692650423341D+03 -.158836642535124D+03 0.510981948008397D+02 0.149753171110411D+03
 0.179456925720053D+03 0.100645403471205D+03 -.384502540084785D+02 0.118868216783647D+03
 0.315882024842242D+03 0.738760551986364D+02 -.770181642418454D+01 -.307025184814685D+03
 0.417771375439495D+02 -.156848161347172D+02 -.494612436817659D+01 0.384037969206265D+02
0.311408862914D-03 0.000000000000D+00 0.000000000000D+00 0.203852166532D-05 0.000000000000D+00  6 1 21 25 -24 2 21 2 0.31648623D-01 0.11781219D+00 0.43026188D+05 0.43026188D+05 0.43026188D+05 0.11987971D+01  1  2  2  3  6  5        2 0.376761399525D-01 0.100000000000D+01
0.417568792202D-04 0.164334971808D-04 -.628644773353D-06 0.203852166532D-05 0.000000000000D+00  6 1 21 25 -24 2 21 4 0.31648623D-01 0.11781219D+00 0.43026188D+05 0.43026188D+05 0.43026188D+05 0.11987971D+01  1  2  3  3  6  5        2 0.726030474003D-02 0.100000000000D+01
0.308381868275D-04 0.000000000000D+00 0.000000000000D+00 0.203852166532D-05 0.000000000000D+00  6 1 21 25 -24 2 21 4 0.31648623D-01 0.11781219D+00 0.43026188D+05 0.43026188D+05 0.43026188D+05 0.11987971D+01  1  2 15  3  6  5        2 0.536186224111D-02 0.100000000000D+01
-.617574451080D-04 0.000000000000D+00 0.000000000000D+00 0.203852166532D-05 0.000000000000D+00  6 1 21 25 -24 2 21 4 0.31648623D-01 0.11781219D+00 0.43026188D+05 0.43026188D+05 0.43026188D+05 0.11987971D+01  1  2  4  3  6  5        2 -.107378204459D-01 0.100000000000D+01
0.316550187685D-12 0.000000000000D+00 0.000000000000D+00 0.203852166532D-05 0.456230811483D-07  6 1 21 25 -24 2 21 4 0.31648623D-01 0.11781219D+00 0.47012930D+05 0.47012930D+05 0.47012930D+05 0.11949404D+01  1  2 11  3  6  5        2 0.540740099721D-10 0.100000000000D+01
  </mgrwgt>
  </event>
  <event>
  5     66 0.42980143E-03 0.10045812E+03 0.75467711E-02 0.11283976E+00
        1 -1    0    0  502    0 0.00000000E+00 0.00000000E+00 0.25395000E+03 0.25395020E+03 0.32000000E+00 0.0000E+00 0.9000E+01
       21 -1    0    0  501  502 0.00000000E+00 0.00000000E+00 -.29146212E+03 0.29146309E+03 0.75000000E+00 0.0000E+00 0.9000E+01
       25  1    1    2    0    0 0.39275122E+02 -.76594196E+02 0.13632542E+03 0.20400693E+03 0.12500000E+03 0.0000E+00 0.9000E+01
      -24  1    1    2    0    0 0.20203314E+01 0.16817190E+03 -.76441782E+02 0.20148556E+03 0.80419002E+02 0.0000E+00 0.9000E+01
        2  1    1    2  501    0 -.41295453E+02 -.91577705E+02 -.97395768E+02 0.13992079E+03 0.32000000E+00 0.0000E+00 0.9000E+01
#aMCatNLO 1  0  0  1  2 0.16146255D+02 0.00000000D+00  -5  6  0 0.00000000D+00 0.00000000D+00 0.00000000D+00 0.00000000D+00 0.00000000D+00
  <mgrwgt>
 0.1536322812D+00    6    2    0
 0.272060881167855D+03 0.000000000000000D+00 0.000000000000000D+00 0.272060881167855D+03
 0.272060881167855D+03 0.000000000000000D+00 0.000000000000000D+00 -.272060881167855D+03
 0.213889567757432D+03 0.392751685868350D+02 -.765940928170160D+02 0.150713480729080D+03
 0.196693910947270D+03 0.202037422975344D+01 0.168171995940793D+03 -.627325794035593D+02
 0.133538283631009D+03 -.412955428165884D+02 -.915779031237771D+02 -.879809013255212D+02
 0.000000000000000D+00 -.000000000000000D+00 -.000000000000000D+00 -.000000000000000D+00
 0.280173979119136D+03 0.000000000000000D+00 0.000000000000000D+00 0.280173979119136D+03
 0.280334343427868D+03 0.000000000000000D+00 0.000000000000000D+00 -.280334343427868D+03
 0.214963565957559D+03 0.456162592451962D+02 -.760850728342294D+02 0.150713480729080D+03
 0.197239556765048D+03 0.784513715147329D+01 0.168639568615888D+03 -.627325794035593D+02
 0.132158148669478D+03 -.373669131008027D+02 -.912625392316575D+02 -.879809013255212D+02
 0.161470511549181D+02 -.160944832958668D+02 -.129195655000122D+01 -.160364308732015D+00
0.243360557997D-04 0.000000000000D+00 0.000000000000D+00 0.109008439345D-06 0.000000000000D+00  6 1 21 25 -24 2 21 2 0.39069320D-01 0.44840416D-01 0.48103501D+05 0.48103501D+05 0.48103501D+05 0.11939485D+01  1  2  2  1  6  1        1 0.193921049983D-01 0.100000000000D+01
-.775257737597D-06 0.128424894730D-05 -.491274851312D-07 0.109008439345D-06 0.000000000000D+00  6 1 21 25 -24 2 21 4 0.39069320D-01 0.44840416D-01 0.48103501D+05 0.48103501D+05 0.48103501D+05 0.11939485D+01  1  2  3  1  6  1        1 -.880627109697D-03 0.100000000000D+01
0.258148579546D-05 0.000000000000D+00 0.000000000000D+00 0.109008439345D-06 0.000000000000D+00  6 1 21 25 -24 2 21 4 0.39069320D-01 0.44840416D-01 0.48103501D+05 0.48103501D+05 0.48103501D+05 0.11939485D+01  1  2 15  1  6  1        1 0.293234915891D-02 0.100000000000D+01
0.156209811090D-03 0.000000000000D+00 0.000000000000D+00 0.108432868850D-06 0.000000000000D+00  6 1 21 25 -24 2 21 4 0.40810838D-01 0.44840416D-01 0.51765338D+05 0.51765338D+05 0.51765338D+05 0.11907923D+01  1  2 12  1  6  1        1 0.165877711888D+00 0.100000000000D+01
-.385119208654D-04 0.000000000000D+00 0.000000000000D+00 0.109008439345D-06 0.000000000000D+00  6 1 21 25 -24 2 21 4 0.39069320D-01 0.44840416D-01 0.48103501D+05 0.48103501D+05 0.48103501D+05 0.11939485D+01  1  2  4  1  6  1        1 -.437462793544D-01 0.100000000000D+01
0.184595738367D-05 0.000000000000D+00 0.000000000000D+00 0.108432868850D-06 0.000000000000D+00  6 21 21 25 -24 2 -1 4 0.40810838D-01 0.44840416D-01 0.51765338D+05 0.51765338D+05 0.51765338D+05 0.11907923D+01  1  2 12  4  6  1        1 0.100570215769D-01 0.100000000000D+01
  </mgrwgt>
  </event>
  <event>
  5     66 -.42980143E-03 0.33958896E+02 0.75467711E-02 0.11990094E+00
        1 -1    0    0  502    0 0.00000000E+00 0.00000000E+00 0.82135224E+02 0.82135847E+02 0.32000000E+00 0.0000E+00 0.9000E+01
       21 -1    0    0  501  502 -.00000000E+00 -.00000000E+00 -.10138467E+04 0.10138470E+04 0.75000000E+00 0.0000E+00 0.9000E+01
       25  1    1    2    0    0 0.10217118E+02 0.50231608E+02 -.19512073E+03 0.23732826E+03 0.12500000E+03 0.0000E+00 0.9000E+01
      -24  1    1    2    0    0 -.11997296E+02 -.16319426E+02 0.32311398E+02 0.89002816E+02 0.80419002E+02 0.0000E+00 0.9000E+01
        2  1    1    2  501    0 0.17801779E+01 -.33912181E+02 -.76890217E+03 0.76965178E+03 0.32000000E+00 0.0000E+00 0.9000E+01
#aMCatNLO 1  0  0  5  2 0.35851252D+02 0.00000000D+00  -5  6  0 0.00000000D+00 0.00000000D+00 0.00000000D+00 0.00000000D+00 0.00000000D+00
  <mgrwgt>
 -.1171702577D-01    6    2    0
 0.288570652911793D+03 0.000000000000000D+00 0.000000000000000D+00 0.288570652911793D+03
 0.288570652911793D+03 -.000000000000000D+00 -.000000000000000D+00 -.288570652911793D+03
 0.135688572188485D+03 0.102171179758161D+02 0.502316161130377D+02 0.126009470076822D+02
 0.221177216551078D+03 -.119972970258287D+02 -.163194125443476D+02 0.205041183193019D+03
 0.220275517084022D+03 0.178017905001254D+01 -.339122035686899D+02 -.217642130200701D+03
 0.000000000000000D+00 0.000000000000000D+00 0.000000000000000D+00 -.000000000000000D+00
 0.288570652911793D+03 0.000000000000000D+00 0.000000000000000D+00 0.288570652911793D+03
 0.288570652911793D+03 -.000000000000000D+00 -.000000000000000D+00 -.288570652911793D+03
 0.135239971434777D+03 0.102437299590794D+02 0.497246609313192D+02 0.934740421026390D+01
 0.216375948147168D+03 -.119543183225145D+02 -.171381518368363D+02 0.199786668742629D+03
 0.153967423076958D+03 0.790360669589374D+01 -.578448490064812D+02 -.142469203035509D+03
 0.715579631646820D+02 -.619301833245870D+01 0.252583399119984D+02 -.666648699173842D+02
0.178736291096D-03 0.000000000000D+00 0.000000000000D+00 0.477881590154D-05 0.000000000000D+00  6 1 21 25 -24 2 21 2 0.12636258D-01 0.15597649D+00 0.15874946D+05 0.15874946D+05 0.15874946D+05 0.12450254D+01  1  2  2  3  6  5        2 0.388104111053D-01 0.100000000000D+01
0.339274329886D-04 0.943217321545D-05 -.360817075514D-06 0.477881590154D-05 0.000000000000D+00  6 1 21 25 -24 2 21 4 0.12636258D-01 0.15597649D+00 0.15874946D+05 0.15874946D+05 0.15874946D+05 0.12450254D+01  1  2  3  3  6  5        2 0.114193913992D-01 0.100000000000D+01
0.187015623193D-04 0.000000000000D+00 0.000000000000D+00 0.477881590154D-05 0.000000000000D+00  6 1 21 25 -24 2 21 4 0.12636258D-01 0.15597649D+00 0.15874946D+05 0.15874946D+05 0.15874946D+05 0.12450254D+01  1  2 15  3  6  5        2 0.629462476494D-02 0.100000000000D+01
-.308067921398D-03 0.000000000000D+00 0.000000000000D+00 0.477881590154D-05 0.000000000000D+00  6 1 21 25 -24 2 21 4 0.12636258D-01 0.15597649D+00 0.15874946D+05 0.15874946D+05 0.15874946D+05 0.12450254D+01  1  2  4  3  6  5        2 -.103690372719D+00 0.100000000000D+01
-.281756911225D-03 0.000000000000D+00 0.000000000000D+00 0.477881590154D-05 0.000000000000D+00  6 1 21 25 -24 2 21 4 0.12636258D-01 0.15597649D+00 0.15874946D+05 0.15874946D+05 0.15874946D+05 0.12450254D+01  1  2  5  3  6  5        2 -.948345384633D-01 0.100000000000D+01
0.387076958933D-03 0.000000000000D+00 -.000000000000D+00 0.477881590154D-05 0.000000000000D+00  6 1 21 25 -24 2 21 4 0.12636258D-01 0.15597649D+00 0.15874946D+05 0.15874946D+05 0.15874946D+05 0.12450254D+01  1  2  6  3  6  5        2 0.130283458143D+00 0.100000000000D+01
  </mgrwgt>
  </event>
  <event>
  5     66 -.42980143E-03 0.28345964E+02 0.75467711E-02 0.11112287E+00
        1 -1    0    0  502    0 0.00000000E+00 0.00000000E+00 0.47708466E+03 0.47708477E+03 0.32000000E+00 0.0000E+00 0.9000E+01
       21 -1    0    0  501  502 0.00000000E+00 0.00000000E+00 -.92626140E+02 0.92629177E+02 0.75000000E+00 0.0000E+00 0.9000E+01
       25  1    1    2    0    0 -.15295045E+03 -.68213837E+01 0.23375740E+03 0.30611745E+03 0.12500000E+03 0.0000E+00 0.9000E+01
      -24  1    1    2    0    0 0.16656928E+03 0.31679659E+02 0.13518508E+03 0.23128154E+03 0.80419002E+02 0.0000E+00 0.9000E+01
        2  1    1    2  501    0 -.13618830E+02 -.24858276E+02 0.15516038E+02 0.32314954E+02 0.32000000E+00 0.0000E+00 0.9000E+01
#aMCatNLO 1  0  0  2  2 0.84422850D+02 0.00000000D+00  -5  6  0 0.00000000D+00 0.00000000D+00 0.00000000D+00 0.00000000D+00 0.00000000D+00
  <mgrwgt>
 -.2428828348D+00   12    2    0
 0.210217521306779D+03 0.000000000000000D+00 0.000000000000000D+00 0.210217521306779D+03
 0.210217521306779D+03 0.000000000000000D+00 0.000000000000000D+00 -.210217521306779D+03
 0.201051852752088D+03 -.152950074064178D+03 -.682068902242973D+01 0.368320585912453D+02
 0.189783003539139D+03 0.166569643766784D+03 0.316803152139861D+02 -.283069581784265D+02
 0.296001863223309D+02 -.136195697026062D+02 -.248596261915564D+02 -.852510041281877D+01
 0.000000000000000D+00 0.000000000000000D+00 -.000000000000000D+00 -.000000000000000D+00
 0.219158137544011D+03 0.000000000000000D+00 0.000000000000000D+00 0.219158137544011D+03
 0.589965703260625D+03 0.000000000000000D+00 0.000000000000000D+00 -.589965703260625D+03
 0.227381299102953D+03 -.185140192598106D+03 0.210657002355465D+02 0.368320585912453D+02
 0.172456418488860D+03 0.139352959244929D+03 0.552582047482557D+02 -.283069581784265D+02
 0.289895700413936D+02 -.180216828305379D+02 -.210460633395350D+02 -.852510041281877D+01
 0.380296553171430D+03 0.638089161837146D+02 -.552778416442671D+02 -.370807565716614D+03
0.920343891921D-05 0.000000000000D+00 0.000000000000D+00 0.334094532345D-06 0.000000000000D+00  6 1 21 25 -24 2 21 2 0.73397882D-01 0.14250417D-01 0.42777686D+05 0.42777686D+05 0.42777686D+05 0.11990506D+01  1  2  2  2  6  2       21 0.301829046141D-01 0.100000000000D+01
0.840420757091D-06 0.485678815039D-06 -.185790915496D-07 0.334094532345D-06 0.000000000000D+00  6 1 21 25 -24 2 21 4 0.73397882D-01 0.14250417D-01 0.42777686D+05 0.42777686D+05 0.42777686D+05 0.11990506D+01  1  2  3  2  6  2       21 0.396262215376D-02 0.100000000000D+01
0.831775198201D-06 0.000000000000D+00 0.000000000000D+00 0.334094532345D-06 0.000000000000D+00  6 1 21 25 -24 2 21 4 0.73397882D-01 0.14250417D-01 0.42777686D+05 0.42777686D+05 0.42777686D+05 0.11990506D+01  1  2 15  2  6  2       21 0.392185794976D-02 0.100000000000D+01
-.346338839133D-03 0.000000000000D+00 -.210182858178D-04 0.334094532345D-06 0.000000000000D+00  6 1 21 25 -24 2 21 4 0.73397882D-01 0.40974783D-01 0.42777686D+05 0.42777686D+05 0.42777686D+05 0.11990506D+01  1  2  5  2  6  2       21 -.216836282123D+00 0.100000000000D+01
-.123651851210D-03 0.000000000000D+00 -.726370509576D-05 0.334094532345D-06 0.000000000000D+00  6 1 -1 25 -24 2 -1 4 0.73397882D-01 0.40974783D-01 0.42777686D+05 0.42777686D+05 0.42777686D+05 0.11990506D+01  1  2  5  5  6  2       21 -.737367958503D-02 0.100000000000D+01
-.123651851210D-03 0.000000000000D+00 -.726370509576D-05 0.334094532345D-06 0.000000000000D+00  6 1 1 25 -24 2 1 4 0.73397882D-01 0.40974783D-01 0.42777686D+05 0.42777686D+05 0.42777686D+05 0.11990506D+01  1  2  5  6  6  2       21 -.150567503522D-01 0.100000000000D+01
-.123651851210D-03 0.000000000000D+00 -.726370509576D-05 0.334094532345D-06 0.000000000000D+00  6 1 -2 25 -24 2 -2 4 0.73397882D-01 0.40974783D-01 0.42777686D+05 0.42777686D+05 0.42777686D+05 0.11990506D+01  1  2  5  7  6  2       21 -.622411541743D-02 0.100000000000D+01
-.123651851210D-03 0.000000000000D+00 -.726370509576D-05 0.334094532345D-06 0.000000000000D+00  6 1 2 25 -24 2 2 4 0.73397882D-01 0.40974783D-01 0.42777686D+05 0.42777686D+05 0.42777686D+05 0.11990506D+01  1  2  5  8  6  2       21 -.208787483262D-01 0.100000000000D+01
-.123651851210D-03 0.000000000000D+00 -.726370509576D-05 0.334094532345D-06 0.000000000000D+00  6 1 -3 25 -24 2 -3 4 0.73397882D-01 0.40974783D-01 0.42777686D+05 0.42777686D+05 0.42777686D+05 0.11990506D+01  1  2  5  9  6  2       21 -.397289461640D-02 0.100000000000D+01
-.123651851210D-03 0.000000000000D+00 -.726370509576D-05 0.334094532345D-06 0.000000000000D+00  6 1 -4 25 -24 2 -4 4 0.73397882D-01 0.40974783D-01 0.42777686D+05 0.42777686D+05 0.42777686D+05 0.11990506D+01  1  2  5  9  6  2       21 -.331697577951D-02 0.100000000000D+01
-.123651851210D-03 0.000000000000D+00 -.726370509576D-05 0.334094532345D-06 0.000000000000D+00  6 1 3 25 -24 2 3 4 0.73397882D-01 0.40974783D-01 0.42777686D+05 0.42777686D+05 0.42777686D+05 0.11990506D+01  1  2  5 10  6  2       21 -.397379749949D-02 0.100000000000D+01
-.123651851210D-03 0.000000000000D+00 -.726370509576D-05 0.334094532345D-06 0.000000000000D+00  6 1 4 25 -24 2 4 4 0.73397882D-01 0.40974783D-01 0.42777686D+05 0.42777686D+05 0.42777686D+05 0.11990506D+01  1  2  5 10  6  2       21 -.331697577951D-02 0.100000000000D+01
  </mgrwgt>
  </event>
  <event>
  6     66 -.42980143E-03 0.40898561E+02 0.75467711E-02 0.11964399E+00
        1 -1    0    0  503    0 0.00000000E+00 0.00000000E+00 0.95811389E+03 0.95811394E+03 0.32000000E+00 0.0000E+00 0.9000E+01
       21 -1    0    0  501  502 0.00000000E+00 0.00000000E+00 -.16329736E+03 0.16329908E+03 0.75000000E+00 0.0000E+00 0.9000E+01
       25  1    1    2    0    0 -.21598910E+02 0.39527872E+02 0.44053051E+03 0.46013160E+03 0.12500000E+03 0.0000E+00 0.9000E+01
      -24  1    1    2    0    0 -.56868761E+01 -.48709025E+02 0.39514241E+03 0.40621380E+03 0.80419002E+02 0.0000E+00 0.9000E+01
        2  1    1    2  501    0 0.47573837E+02 0.25120723E+02 -.14138666E+03 0.15127661E+03 0.32000000E+00 0.0000E+00 0.9000E+01
       21  1    1    2  503  502 -.20288051E+02 -.15939570E+02 0.10053028E+03 0.10379101E+03 0.75000000E+00 0.0000E+00 0.9000E+01
#aMCatNLO 2  0  0  1  2 0.25800677D+02 0.00000000D+00  -5  6  0 0.00000000D+00 0.00000000D+00 0.00000000D+00 0.00000000D+00 0.00000000D+00
  <mgrwgt>
 -.1416133139D+01    2    2    0
 0.371771259617032D+03 0.000000000000000D+00 0.000000000000000D+00 0.371771259617032D+03
 0.371771259617032D+03 0.000000000000000D+00 0.000000000000000D+00 -.371771259617032D+03
 0.218136740313946D+03 -.275508565808881D+02 0.348516495003308D+02 0.173161630575480D+03
 0.188182862491382D+03 -.108021375611239D+02 -.527278949827001D+02 0.161395962452237D+03
 0.337222916428737D+03 0.383529941420120D+02 0.178762454823694D+02 -.334557593027717D+03
 0.000000000000000D+00 -.000000000000000D+00 -.000000000000000D+00 0.000000000000000D+00
 0.416390500131711D+03 0.000000000000000D+00 0.000000000000000D+00 0.416390500131711D+03
 0.375743561476429D+03 0.000000000000000D+00 0.000000000000000D+00 -.375743561476429D+03
 0.218263409485928D+03 -.215989137376167D+02 0.395278704488089D+02 0.173161630575480D+03
 0.186871031722350D+03 -.568687959769246D+01 -.487090263417640D+02 0.161395962452237D+03
 0.338855580792430D+03 0.475738447188748D+02 0.251207261109188D+02 -.334557593027717D+03
 0.481440396074308D+02 -.202880513835656D+02 -.159395702179637D+02 0.406469386552822D+02
-.260192254537D-02 0.000000000000D+00 0.000000000000D+00 0.196116263595D-04 0.000000000000D+00  6 1 21 25 -24 2 21 4 0.14805188D+00 0.24857021D-01 0.23510053D+05 0.23510053D+05 0.23510053D+05 0.12261691D+01  1  2 13  1  6  1        1 -.175955740334D+01 0.100000000000D+01
0.514418647495D-03 0.000000000000D+00 0.000000000000D+00 0.199813356382D-04 0.165457055502D-06  6 1 21 25 -24 2 21 4 0.14740114D+00 0.25122613D-01 0.23510053D+05 0.23510053D+05 0.23510053D+05 0.12261691D+01  1  2  1  1  6  1        1 0.343424263891D+00 0.100000000000D+01
  </mgrwgt>
  </event>
  <event>
  5     66 0.42980143E-03 0.42121798E+02 0.75467711E-02 0.12121179E+00
        1 -1    0    0  502    0 0.00000000E+00 0.00000000E+00 0.74521948E+03 0.74521955E+03 0.32000000E+00 0.0000E+00 0.9000E+01
       21 -1    0    0  501  502 0.00000000E+00 0.00000000E+00 -.22749991E+02 0.22762350E+02 0.75000000E+00 0.0000E+00 0.9000E+01
       25  1    1    2    0    0 -.68363365E+01 0.15324624E+02 0.31602141E+03 0.34025889E+03 0.12500000E+03 0.0000E+00 0.9000E+01
      -24  1    1    2    0    0 -.21248920E+02 0.19393253E+02 0.21989901E+03 0.23590338E+03 0.80419002E+02 0.0000E+00 0.9000E+01
        2  1    1    2  501    0 0.28085257E+02 -.34717877E+02 0.18654908E+03 0.19181964E+03 0.32000000E+00 0.0000E+00 0.9000E+01
#aMCatNLO 1  0  0  2  5 0.24698541D+02 0.00000000D+00  -5  6  0 0.00000000D+00 0.00000000D+00 0.00000000D+00 0.00000000D+00 0.00000000D+00
  <mgrwgt>
 0.1098387442D+00   32    2    0
 0.130224839766767D+03 0.000000000000000D+00 0.000000000000000D+00 0.130224839766767D+03
 0.130224839766767D+03 0.000000000000000D+00 0.000000000000000D+00 -.130224839766767D+03
 0.126691888336157D+03 -.683663835085049D+01 0.153249968802549D+02 -.120099715595426D+02
 0.856181977089306D+02 -.212491241003841D+02 0.193935052066572D+02 -.596879429372793D+01
 0.481395934884459D+02 0.280857624512345D+02 -.347185020869121D+02 0.179787658532705D+02
 0.000000000000000D+00 0.000000000000000D+00 -.000000000000000D+00 -.000000000000000D+00
 0.136586499708891D+03 0.000000000000000D+00 0.000000000000000D+00 0.136586499708891D+03
 0.157205679172134D+03 0.000000000000000D+00 0.000000000000000D+00 -.157205679172134D+03
 0.128720546429786D+03 -.696872998434702D+01 0.274075985581899D+02 -.120099715595426D+02
 0.878633213742854D+02 -.213388435271542D+02 0.276002634073157D+02 -.596879429372793D+01
 0.450342766348501D+02 0.280375757264376D+02 -.303107967200098D+02 0.179787658532705D+02
 0.321740344421033D+02 0.269997785063588D+00 -.246970652454958D+02 -.206191794632433D+02
0.100943213475D-05 0.000000000000D+00 0.000000000000D+00 0.420618317530D-06 0.000000000000D+00  6 1 21 25 -24 2 21 2 0.11465011D+00 0.35009546D-02 0.16408013D+05 0.16408013D+05 0.16408013D+05 0.12434048D+01  1  2  2  2  6  2       21 0.217074653442D-01 0.100000000000D+01
-.693110428960D-07 0.532691972391D-07 -.203775264976D-08 0.420618317530D-06 0.000000000000D+00  6 1 21 25 -24 2 21 4 0.11465011D+00 0.35009546D-02 0.16408013D+05 0.16408013D+05 0.16408013D+05 0.12434048D+01  1  2  3  2  6  2       21 -.230440880601D-02 0.100000000000D+01
0.106210349234D-06 0.000000000000D+00 0.000000000000D+00 0.420618317530D-06 0.000000000000D+00  6 1 21 25 -24 2 21 4 0.11465011D+00 0.35009546D-02 0.16408013D+05 0.16408013D+05 0.16408013D+05 0.12434048D+01  1  2 15  2  6  2       21 0.353121312043D-02 0.100000000000D+01
0.211474703872D-05 0.000000000000D+00 0.000000000000D+00 0.414398136582D-06 0.000000000000D+00  6 1 21 25 -24 2 21 4 0.11465011D+00 0.42991789D-02 0.19853903D+05 0.19853903D+05 0.19853903D+05 0.12341767D+01  1  2 12  2  6  2       21 0.486315636719D-01 0.100000000000D+01
0.160934853769D-05 0.000000000000D+00 0.000000000000D+00 0.414398136582D-06 0.000000000000D+00  6 1 21 25 -24 2 21 4 0.11465011D+00 0.45489955D-02 0.19853903D+05 0.19853903D+05 0.19853903D+05 0.12341767D+01  1  2 12  2  6  2       21 0.336721020585D-01 0.100000000000D+01
-.183161589741D-05 0.000000000000D+00 0.000000000000D+00 0.420618317530D-06 0.000000000000D+00  6 1 21 25 -24 2 21 4 0.11465011D+00 0.35009546D-02 0.16408013D+05 0.16408013D+05 0.16408013D+05 0.12434048D+01  1  2  4  2  6  2       21 -.608963828398D-01 0.100000000000D+01
-.756368220453D-05 0.000000000000D+00 -.163147298302D-05 0.420618317530D-06 0.000000000000D+00  6 1 21 25 -24 2 21 4 0.11465011D+00 0.44325905D-02 0.16408013D+05 0.16408013D+05 0.16408013D+05 0.12434048D+01  1  2  5  2  6  2       21 -.169985759381D+00 0.100000000000D+01
0.713798644562D-05 0.000000000000D+00 0.146321875823D-05 0.420618317530D-06 0.000000000000D+00  6 1 21 25 -24 2 21 4 0.11465011D+00 0.35009546D-02 0.16408013D+05 0.16408013D+05 0.16408013D+05 0.12434048D+01  1  2  6  2  6  2       21 0.237319164958D+00 0.100000000000D+01
0.125282273955D-06 0.000000000000D+00 0.000000000000D+00 0.414398136582D-06 0.000000000000D+00  6 1 -1 25 -24 2 -1 4 0.11465011D+00 0.42991789D-02 0.19853903D+05 0.19853903D+05 0.19853903D+05 0.12341767D+01  1  2 12  5  6  2       21 0.159971258496D-03 0.100000000000D+01
0.128200337187D-06 0.000000000000D+00 0.000000000000D+00 0.414398136582D-06 0.000000000000D+00  6 1 -1 25 -24 2 -1 4 0.11465011D+00 0.45489955D-02 0.19853903D+05 0.19853903D+05 0.19853903D+05 0.12341767D+01  1  2 12  5  6  2       21 0.150615821757D-03 0.100000000000D+01
-.458198315771D-06 0.000000000000D+00 -.114393383158D-06 0.420618317530D-06 0.000000000000D+00  6 1 -1 25 -24 2 -1 4 0.11465011D+00 0.44325905D-02 0.16408013D+05 0.16408013D+05 0.16408013D+05 0.12434048D+01  1  2  5  5  6  2       21 -.573638447712D-03 0.100000000000D+01
0.125282273955D-06 0.000000000000D+00 0.000000000000D+00 0.414398136582D-06 0.000000000000D+00  6 1 1 25 -24 2 1 4 0.11465011D+00 0.42991789D-02 0.19853903D+05 0.19853903D+05 0.19853903D+05 0.12341767D+01  1  2 12  6  6  2       21 0.177459013130D-03 0.100000000000D+01
0.128200337187D-06 0.000000000000D+00 0.000000000000D+00 0.414398136582D-06 0.000000000000D+00  6 1 1 25 -24 2 1 4 0.11465011D+00 0.45489955D-02 0.19853903D+05 0.19853903D+05 0.19853903D+05 0.12341767D+01  1  2 12  6  6  2       21 0.168036176236D-03 0.100000000000D+01
-.458198315771D-06 0.000000000000D+00 -.114393383158D-06 0.420618317530D-06 0.000000000000D+00  6 1 1 25 -24 2 1 4 0.11465011D+00 0.44325905D-02 0.16408013D+05 0.16408013D+05 0.16408013D+05 0.12434048D+01  1  2  5  6  6  2       21 -.638478931413D-03 0.100000000000D+01
0.125282273955D-06 0.000000000000D+00 0.000000000000D+00 0.414398136582D-06 0.000000000000D+00  6 1 -2 25 -24 2 -2 4 0.11465011D+00 0.42991789D-02 0.19853903D+05 0.19853903D+05 0.19853903D+05 0.12341767D+01  1  2 12  7  6  2       21 0.156871260129D-03 0.100000000000D+01
0.128200337187D-06 0.000000000000D+00 0.000000000000D+00 0.414398136582D-06 0.000000000000D+00  6 1 -2 25 -24 2 -2 4 0.11465011D+00 0.45489955D-02 0.19853903D+05 0.19853903D+05 0.19853903D+05 0.12341767D+01  1  2 12  7  6  2       21 0.147533492066D-03 0.100000000000D+01
-.458198315771D-06 0.000000000000D+00 -.114393383158D-06 0.420618317530D-06 0.000000000000D+00  6 1 -2 25 -24 2 -2 4 0.11465011D+00 0.44325905D-02 0.16408013D+05 0.16408013D+05 0.16408013D+05 0.12434048D+01  1  2  5  7  6  2       21 -.562149307482D-03 0.100000000000D+01
0.125282273955D-06 0.000000000000D+00 0.000000000000D+00 0.414398136582D-06 0.000000000000D+00  6 1 2 25 -24 2 2 4 0.11465011D+00 0.42991789D-02 0.19853903D+05 0.19853903D+05 0.19853903D+05 0.12341767D+01  1  2 12  8  6  2       21 0.189238859630D-03 0.100000000000D+01
0.128200337187D-06 0.000000000000D+00 0.000000000000D+00 0.414398136582D-06 0.000000000000D+00  6 1 2 25 -24 2 2 4 0.11465011D+00 0.45489955D-02 0.19853903D+05 0.19853903D+05 0.19853903D+05 0.12341767D+01  1  2 12  8  6  2       21 0.179757836933D-03 0.100000000000D+01
-.458198315771D-06 0.000000000000D+00 -.114393383158D-06 0.420618317530D-06 0.000000000000D+00  6 1 2 25 -24 2 2 4 0.11465011D+00 0.44325905D-02 0.16408013D+05 0.16408013D+05 0.16408013D+05 0.12434048D+01  1  2  5  8  6  2       21 -.682097080930D-03 0.100000000000D+01
0.125282273955D-06 0.000000000000D+00 0.000000000000D+00 0.414398136582D-06 0.000000000000D+00  6 1 -3 25 -24 2 -3 4 0.11465011D+00 0.42991789D-02 0.19853903D+05 0.19853903D+05 0.19853903D+05 0.12341767D+01  1  2 12  9  6  2       21 0.115589210217D-03 0.100000000000D+01
0.125282273955D-06 0.000000000000D+00 0.000000000000D+00 0.414398136582D-06 0.000000000000D+00  6 1 -4 25 -24 2 -4 4 0.11465011D+00 0.42991789D-02 0.19853903D+05 0.19853903D+05 0.19853903D+05 0.12341767D+01  1  2 12  9  6  2       21 0.103402604419D-03 0.100000000000D+01
0.128200337187D-06 0.000000000000D+00 0.000000000000D+00 0.414398136582D-06 0.000000000000D+00  6 1 -3 25 -24 2 -3 4 0.11465011D+00 0.45489955D-02 0.19853903D+05 0.19853903D+05 0.19853903D+05 0.12341767D+01  1  2 12  9  6  2       21 0.108222342726D-03 0.100000000000D+01
0.128200337187D-06 0.000000000000D+00 0.000000000000D+00 0.414398136582D-06 0.000000000000D+00  6 1 -4 25 -24 2 -4 4 0.11465011D+00 0.45489955D-02 0.19853903D+05 0.19853903D+05 0.19853903D+05 0.12341767D+01  1  2 12  9  6  2       21 0.966780264807D-04 0.100000000000D+01
-.458198315771D-06 0.000000000000D+00 -.114393383158D-06 0.420618317530D-06 0.000000000000D+00  6 1 -3 25 -24 2 -3 4 0.11465011D+00 0.44325905D-02 0.16408013D+05 0.16408013D+05 0.16408013D+05 0.12434048D+01  1  2  5  9  6  2       21 -.411468342613D-03 0.100000000000D+01
-.458198315771D-06 0.000000000000D+00 -.114393383158D-06 0.420618317530D-06 0.000000000000D+00  6 1 -4 25 -24 2 -4 4 0.11465011D+00 0.44325905D-02 0.16408013D+05 0.16408013D+05 0.16408013D+05 0.12434048D+01  1  2  5  9  6  2       21 -.367099796177D-03 0.100000000000D+01
0.125282273955D-06 0.000000000000D+00 0.000000000000D+00 0.414398136582D-06 0.000000000000D+00  6 1 3 25 -24 2 3 4 0.11465011D+00 0.42991789D-02 0.19853903D+05 0.19853903D+05 0.19853903D+05 0.12341767D+01  1  2 12 10  6  2       21 0.115578660886D-03 0.100000000000D+01
0.125282273955D-06 0.000000000000D+00 0.000000000000D+00 0.414398136582D-06 0.000000000000D+00  6 1 4 25 -24 2 4 4 0.11465011D+00 0.42991789D-02 0.19853903D+05 0.19853903D+05 0.19853903D+05 0.12341767D+01  1  2 12 10  6  2       21 0.103402604419D-03 0.100000000000D+01
0.128200337187D-06 0.000000000000D+00 0.000000000000D+00 0.414398136582D-06 0.000000000000D+00  6 1 3 25 -24 2 3 4 0.11465011D+00 0.45489955D-02 0.19853903D+05 0.19853903D+05 0.19853903D+05 0.12341767D+01  1  2 12 10  6  2       21 0.108212162126D-03 0.100000000000D+01
0.128200337187D-06 0.000000000000D+00 0.000000000000D+00 0.414398136582D-06 0.000000000000D+00  6 1 4 25 -24 2 4 4 0.11465011D+00 0.45489955D-02 0.19853903D+05 0.19853903D+05 0.19853903D+05 0.12341767D+01  1  2 12 10  6  2       21 0.966780264807D-04 0.100000000000D+01
-.458198315771D-06 0.000000000000D+00 -.114393383158D-06 0.420618317530D-06 0.000000000000D+00  6 1 3 25 -24 2 3 4 0.11465011D+00 0.44325905D-02 0.16408013D+05 0.16408013D+05 0.16408013D+05 0.12434048D+01  1  2  5 10  6  2       21 -.411429549245D-03 0.100000000000D+01
-.458198315771D-06 0.000000000000D+00 -.114393383158D-06 0.420618317530D-06 0.000000000000D+00  6 1 4 25 -24 2 4 4 0.11465011D+00 0.44325905D-02 0.16408013D+05 0.16408013D+05 0.16408013D+05 0.12434048D+01  1  2  5 10  6  2       21 -.367099796177D-03 0.100000000000D+01
  </mgrwgt>
  </event>
  <event>
  6     66 -.42980143E-03 0.40739369E+02 0.75467711E-02 0.12075201E+00
        1 -1    0    0  502    0 0.00000000E+00 0.00000000E+00 0.10894808E+03 0.10894855E+03 0.32000000E+00 0.0000E+00 0.9000E+01
       21 -1    0    0  501  503 0.00000000E+00 0.00000000E+00 -.50383249E+03 0.50383305E+03 0.75000000E+00 0.0000E+00 0.9000E+01
       25  1    1    2    0    0 0.11719038E+02 -.39766656E+02 -.55044266E+02 0.14273610E+03 0.12500000E+03 0.0000E+00 0.9000E+01
      -24  1    1    2    0    0 -.37623870E+02 -.19949195E+02 -.52138134E+00 0.91000076E+02 0.80419002E+02 0.0000E+00 0.9000E+01
        2  1    1    2  501    0 0.14858096E+02 0.46900846E+02 -.11158770E+02 0.50448715E+02 0.32000000E+00 0.0000E+00 0.9000E+01
       21  1    1    2  502  503 0.11046736E+02 0.12815006E+02 -.32815999E+03 0.32859671E+03 0.75000000E+00 0.0000E+00 0.9000E+01
#aMCatNLO 2  0  0  2  1 0.16919065D+02 0.00000000D+00  -5  6  0 0.00000000D+00 0.00000000D+00 0.00000000D+00 0.00000000D+00 0.00000000D+00
  <mgrwgt>
 -.1914024273D-01    3    2    0
 0.137861025149530D+03 0.000000000000000D+00 0.000000000000000D+00 0.137861025149530D+03
 0.137861025149530D+03 0.000000000000000D+00 0.000000000000000D+00 -.137861025149530D+03
 0.132417843549010D+03 0.170417509409532D+02 -.335921959992934D+02 -.221501327982841D+02
 0.912325025811059D+02 -.339269997757783D+02 -.156607469676898D+02 0.214441895036697D+02
 0.520717041689445D+02 0.168852488348251D+02 0.492529429669832D+02 0.705943294614372D+00
 0.000000000000000D+00 0.000000000000000D+00 0.000000000000000D+00 -.000000000000000D+00
 0.138397170922490D+03 0.000000000000000D+00 0.000000000000000D+00 0.138397170922490D+03
 0.396622759085165D+03 0.000000000000000D+00 0.000000000000000D+00 -.396622759085165D+03
 0.133545435646218D+03 0.117188800980014D+02 -.397671076167875D+02 -.221501327982841D+02
 0.934912609976438D+02 -.376239790660355D+02 -.199495078718309D+02 0.214441895036697D+02
 0.492039661482004D+02 0.148583625884879D+02 0.469016096735183D+02 0.705943294614372D+00
 0.258779267215593D+03 0.110467363795461D+02 0.128150058151002D+02 -.258225588162674D+03
-.485697250633D-04 0.000000000000D+00 0.000000000000D+00 0.401162585876D-06 0.000000000000D+00  6 1 21 25 -24 2 21 4 0.16696324D-01 0.77444693D-01 0.20853144D+05 0.20853144D+05 0.20853144D+05 0.12318338D+01  1  2 13  2  6  2       21 -.581908590604D-01 0.100000000000D+01
-.484941806094D-04 0.000000000000D+00 0.000000000000D+00 0.401162585876D-06 0.000000000000D+00  6 1 21 25 -24 2 21 4 0.16696324D-01 0.77771414D-01 0.20853144D+05 0.20853144D+05 0.20853144D+05 0.12318338D+01  1  2 13  2  6  2       21 -.575577508184D-01 0.100000000000D+01
0.811975822378D-04 0.000000000000D+00 0.000000000000D+00 0.405078808294D-06 0.916445111335D-07  6 1 21 25 -24 2 21 4 0.16761257D-01 0.77512466D-01 0.20853144D+05 0.20853144D+05 0.20853144D+05 0.12318338D+01  1  2  1  2  6  2       21 0.966083671482D-01 0.100000000000D+01
  </mgrwgt>
  </event>
  <event>
  6     66 -.42980143E-03 0.25983461E+02 0.75467711E-02 0.12200481E+00
        1 -1    0    0  503    0 0.00000000E+00 0.00000000E+00 0.14012564E+04 0.14012565E+04 0.32000000E+00 0.0000E+00 0.9000E+01
       21 -1    0    0  501  502 0.00000000E+00 0.00000000E+00 -.46918160E+02 0.46924154E+02 0.75000000E+00 0.0000E+00 0.9000E+01
       25  1    1    2    0    0 -.58325256E+02 0.11778395E+02 0.69955074E+03 0.71311767E+03 0.12500000E+03 0.0000E+00 0.9000E+01
      -24  1    1    2    0    0 0.46841400E+02 0.19128305E+02 0.62794653E+03 0.63509374E+03 0.80419002E+02 0.0000E+00 0.9000E+01
        2  1    1    2  501    0 0.44722939E+01 -.29246212E+02 -.30312101E+02 0.42358803E+02 0.32000000E+00 0.0000E+00 0.9000E+01
       21  1    1    2  503  502 0.70115619E+01 -.16604880E+01 0.57153085E+02 0.57610389E+02 0.75000000E+00 0.0000E+00 0.9000E+01
#aMCatNLO 2  0  0  1  2 0.72054994D+01 0.00000000D+00  -5  6  0 0.00000000D+00 0.00000000D+00 0.00000000D+00 0.00000000D+00 0.00000000D+00
  <mgrwgt>
 -.1001371205D+01    3    2    0
 0.250471677604955D+03 0.000000000000000D+00 0.000000000000000D+00 0.250471677604955D+03
 0.250471677604955D+03 0.000000000000000D+00 0.000000000000000D+00 -.250471677604955D+03
 0.167214230160712D+03 -.559790661348403D+02 0.112227798810623D+02 0.952680016304105D+02
 0.137493030418926D+03 0.487615045422879D+02 0.186735932725593D+02 0.985430365295925D+02
 0.196236094630272D+03 0.721756159255242D+01 -.298963731536216D+02 -.193811038160003D+03
 0.000000000000000D+00 0.000000000000000D+00 -.000000000000000D+00 0.000000000000000D+00
 0.261181287096592D+03 0.000000000000000D+00 0.000000000000000D+00 0.261181287096592D+03
 0.251712503649988D+03 0.000000000000000D+00 0.000000000000000D+00 -.251712503649988D+03
 0.168052250689894D+03 -.583252596639258D+02 0.117784087389844D+02 0.952680016304105D+02
 0.136886649858963D+03 0.468413966068115D+02 0.191283159397434D+02 0.985430365295925D+02
 0.196056273429886D+03 0.447230112655772D+01 -.292462367013171D+02 -.193811038160003D+03
 0.118986167678370D+02 0.701156193055656D+01 -.166048797741076D+01 0.946878344660477D+01
-.228546026190D-03 0.000000000000D+00 0.000000000000D+00 0.109035168722D-04 0.000000000000D+00  6 1 21 25 -24 2 21 4 0.21606755D+00 0.71827222D-02 0.18257844D+05 0.18257844D+05 0.18257844D+05 0.12382075D+01  1  2 13  1  6  1        1 -.743723517337D+00 0.100000000000D+01
-.309164613158D-03 0.000000000000D+00 0.000000000000D+00 0.109430742486D-04 0.000000000000D+00  6 1 21 25 -24 2 21 4 0.20672903D+00 0.71827222D-02 0.17431897D+05 0.17431897D+05 0.17431897D+05 0.12404515D+01  1  2  8  1  6  1        1 -.111227429029D+01 0.100000000000D+01
0.263566574668D-03 0.000000000000D+00 0.000000000000D+00 0.109430742486D-04 0.177673101768D-05  6 1 21 25 -24 2 21 4 0.21556830D+00 0.72183051D-02 0.18257844D+05 0.18257844D+05 0.18257844D+05 0.12382075D+01  1  2  1  1  6  1        1 0.854626602137D+00 0.100000000000D+01
  </mgrwgt>
  </event>
  <event>
  5     66 -.42980143E-03 0.20273051E+02 0.75467711E-02 0.11903089E+00
        1 -1    0    0  502    0 0.00000000E+00 0.00000000E+00 0.15175375E+04 0.15175375E+04 0.32000000E+00 0.0000E+00 0.9000E+01
       21 -1    0    0  501  502 0.00000000E+00 0.00000000E+00 -.12320268E+02 0.12343075E+02 0.75000000E+00 0.0000E+00 0.9000E+01
       25  1    1    2    0    0 -.26616136E+02 0.46743297E+02 0.48098598E+03 0.49986585E+03 0.12500000E+03 0.0000E+00 0.9000E+01
      -24  1    1    2    0    0 0.96840899E+01 -.35597844E+02 0.85892208E+03 0.86346705E+03 0.80419002E+02 0.0000E+00 0.9000E+01
        2  1    1    2  501    0 0.16932046E+02 -.11145454E+02 0.16530914E+03 0.16654768E+03 0.32000000E+00 0.0000E+00 0.9000E+01
#aMCatNLO 1  0  0  2  5 0.64651898D+02 0.00000000D+00  -5  6  0 0.00000000D+00 0.00000000D+00 0.00000000D+00 0.00000000D+00 0.00000000D+00
  <mgrwgt>
 -.1538321926D+00   12    2    0
 0.136798904359690D+03 0.000000000000000D+00 0.000000000000000D+00 0.136798904359690D+03
 0.136798904359690D+03 0.000000000000000D+00 0.000000000000000D+00 -.136798904359690D+03
 0.148929705940774D+03 -.266171266040329D+02 0.467439495072195D+02 -.605110656608923D+02
 0.102840999156289D+03 0.968340577229034D+01 -.355973934052686D+02 0.524224416494788D+02
 0.218271036223165D+02 0.169337208317426D+02 -.111465561019509D+02 0.808862401141346D+01
 0.000000000000000D+00 -.000000000000000D+00 -.000000000000000D+00 -.000000000000000D+00
 0.144257811592028D+03 0.000000000000000D+00 0.000000000000000D+00 0.144257811592028D+03
 0.423645442165549D+03 0.000000000000000D+00 0.000000000000000D+00 -.423645442165549D+03
 0.163954065793541D+03 -.259162949549873D+02 0.832027179761699D+02 -.605110656608923D+02
 0.973070369231443D+02 0.101317194620713D+02 -.122751518377782D+02 0.524224416494788D+02
 0.198716574270946D+02 0.170271223249150D+02 -.628760970752580D+01 0.808862401141346D+01
 0.286770493613797D+03 -.124254683199898D+01 -.646399564308659D+02 -.279387630573522D+03
0.113047353290D-05 0.000000000000D+00 0.000000000000D+00 0.457415136982D-06 0.000000000000D+00  6 1 21 25 -24 2 21 2 0.23346906D+00 0.18971829D-02 0.14985740D+05 0.14985740D+05 0.14985740D+05 0.12478696D+01  1  2  2  2  6  2       21 0.187227647421D-01 0.100000000000D+01
0.244098154723D-07 0.596567273072D-07 -.228210035906D-08 0.457415136982D-06 0.000000000000D+00  6 1 21 25 -24 2 21 4 0.23346906D+00 0.18971829D-02 0.14985740D+05 0.14985740D+05 0.14985740D+05 0.12478696D+01  1  2  3  2  6  2       21 0.629524310210D-03 0.100000000000D+01
0.133829323621D-06 0.000000000000D+00 0.000000000000D+00 0.457415136982D-06 0.000000000000D+00  6 1 21 25 -24 2 21 4 0.23346906D+00 0.18971829D-02 0.14985740D+05 0.14985740D+05 0.14985740D+05 0.12478696D+01  1  2 15  2  6  2       21 0.345143177071D-02 0.100000000000D+01
-.418339203726D-04 0.000000000000D+00 -.329333735258D-05 0.457415136982D-06 0.000000000000D+00  6 1 21 25 -24 2 21 4 0.23346906D+00 0.62000047D-02 0.14985740D+05 0.14985740D+05 0.14985740D+05 0.12478696D+01  1  2  5  2  6  2       21 -.153057168981D+00 0.100000000000D+01
-.154612551279D-04 0.000000000000D+00 -.121304076225D-05 0.457415136982D-06 0.000000000000D+00  6 1 -1 25 -24 2 -1 4 0.23346906D+00 0.62000047D-02 0.14985740D+05 0.14985740D+05 0.14985740D+05 0.12478696D+01  1  2  5  5  6  2       21 -.336955059423D-02 0.100000000000D+01
-.154612551279D-04 0.000000000000D+00 -.121304076225D-05 0.457415136982D-06 0.000000000000D+00  6 1 1 25 -24 2 1 4 0.23346906D+00 0.62000047D-02 0.14985740D+05 0.14985740D+05 0.14985740D+05 0.12478696D+01  1  2  5  6  6  2       21 -.390202169095D-02 0.100000000000D+01
-.154612551279D-04 0.000000000000D+00 -.121304076225D-05 0.457415136982D-06 0.000000000000D+00  6 1 -2 25 -24 2 -2 4 0.23346906D+00 0.62000047D-02 0.14985740D+05 0.14985740D+05 0.14985740D+05 0.12478696D+01  1  2  5  7  6  2       21 -.327613346599D-02 0.100000000000D+01
-.154612551279D-04 0.000000000000D+00 -.121304076225D-05 0.457415136982D-06 0.000000000000D+00  6 1 2 25 -24 2 2 4 0.23346906D+00 0.62000047D-02 0.14985740D+05 0.14985740D+05 0.14985740D+05 0.12478696D+01  1  2  5  8  6  2       21 -.425874539834D-02 0.100000000000D+01
-.154612551279D-04 0.000000000000D+00 -.121304076225D-05 0.457415136982D-06 0.000000000000D+00  6 1 -3 25 -24 2 -3 4 0.23346906D+00 0.62000047D-02 0.14985740D+05 0.14985740D+05 0.14985740D+05 0.12478696D+01  1  2  5  9  6  2       21 -.232885057257D-02 0.100000000000D+01
-.154612551279D-04 0.000000000000D+00 -.121304076225D-05 0.457415136982D-06 0.000000000000D+00  6 1 -4 25 -24 2 -4 4 0.23346906D+00 0.62000047D-02 0.14985740D+05 0.14985740D+05 0.14985740D+05 0.12478696D+01  1  2  5  9  6  2       21 -.205742640530D-02 0.100000000000D+01
-.154612551279D-04 0.000000000000D+00 -.121304076225D-05 0.457415136982D-06 0.000000000000D+00  6 1 3 25 -24 2 3 4 0.23346906D+00 0.62000047D-02 0.14985740D+05 0.14985740D+05 0.14985740D+05 0.12478696D+01  1  2  5 10  6  2       21 -.232858986159D-02 0.100000000000D+01
-.154612551279D-04 0.000000000000D+00 -.121304076225D-05 0.457415136982D-06 0.000000000000D+00  6 1 4 25 -24 2 4 4 0.23346906D+00 0.62000047D-02 0.14985740D+05 0.14985740D+05 0.14985740D+05 0.12478696D+01  1  2  5 10  6  2       21 -.205742640530D-02 0.100000000000D+01
  </mgrwgt>
  </event>
  <event>
  5     66 0.42980143E-03 0.25332696E+02 0.75467711E-02 0.12227940E+00
        1 -1    0    0  502    0 0.00000000E+00 0.00000000E+00 0.93957799E+03 0.93957804E+03 0.32000000E+00 0.0000E+00 0.9000E+01
       21 -1    0    0  501  502 0.00000000E+00 0.00000000E+00 -.16587903E+02 0.16604849E+02 0.75000000E+00 0.0000E+00 0.9000E+01
       25  1    1    2    0    0 -.35229324E+00 0.28930406E+02 0.46592098E+03 0.48326437E+03 0.12500000E+03 0.0000E+00 0.9000E+01
      -24  1    1    2    0    0 0.24894927E+02 -.35202335E+02 0.29224675E+03 0.30616065E+03 0.80419002E+02 0.0000E+00 0.9000E+01
        2  1    1    2  501    0 -.24542634E+02 0.62719293E+01 0.16482235E+03 0.16675787E+03 0.32000000E+00 0.0000E+00 0.9000E+01
#aMCatNLO 1  0  0  2  1 0.20938231D+02 0.00000000D+00  -5  6  0 0.00000000D+00 0.00000000D+00 0.00000000D+00 0.00000000D+00 0.00000000D+00
  <mgrwgt>
 0.2138097873D+00   23    2    0
 0.124874962366662D+03 0.000000000000000D+00 0.000000000000000D+00 0.124874962366662D+03
 0.124874962366662D+03 0.000000000000000D+00 0.000000000000000D+00 -.124874962366662D+03
 0.128323037902894D+03 -.351541913966628D+00 0.289302136044764D+02 -.217283586807844D+01
 0.921112544597095D+02 0.248954665031774D+02 -.352024727090891D+02 -.125804970699031D+02
 0.293156323707198D+02 -.245439245892107D+02 0.627225910461272D+01 0.147533329379816D+02
 0.000000000000000D+00 -.000000000000000D+00 0.000000000000000D+00 -.000000000000000D+00
 0.134007812870597D+03 0.000000000000000D+00 0.000000000000000D+00 0.134007812870597D+03
 0.137918593853084D+03 0.000000000000000D+00 0.000000000000000D+00 -.137918593853084D+03
 0.127871972461575D+03 0.964913148078129D+01 0.250681947329840D+02 -.217283586807844D+01
 0.954445954559326D+02 0.322167831658723D+02 -.380297886306698D+02 -.125804970699031D+02
 0.273095169344975D+02 -.223335395261890D+02 0.541866170274798D+01 0.147533329379816D+02
 0.213003218716750D+02 -.195323751204646D+02 0.754293219493779D+01 -.391078098248720D+01
0.154176547382D-05 0.000000000000D+00 0.000000000000D+00 0.524200934120D-06 0.000000000000D+00  6 1 21 25 -24 2 21 2 0.14455177D+00 0.25532928D-02 0.14992218D+05 0.14992218D+05 0.14992218D+05 0.12478482D+01  1  2  2  2  6  2       21 0.391933859893D-01 0.100000000000D+01
-.389617283634D-07 0.813611993261D-07 -.311238028932D-08 0.524200934120D-06 0.000000000000D+00  6 1 21 25 -24 2 21 4 0.14455177D+00 0.25532928D-02 0.14992218D+05 0.14992218D+05 0.14992218D+05 0.12478482D+01  1  2  3  2  6  2       21 -.154225509855D-02 0.100000000000D+01
0.164034772206D-06 0.000000000000D+00 0.000000000000D+00 0.524200934120D-06 0.000000000000D+00  6 1 21 25 -24 2 21 4 0.14455177D+00 0.25532928D-02 0.14992218D+05 0.14992218D+05 0.14992218D+05 0.12478482D+01  1  2 15  2  6  2       21 0.649312734317D-02 0.100000000000D+01
0.221908376141D-05 0.000000000000D+00 0.000000000000D+00 0.517293976076D-06 0.000000000000D+00  6 1 21 25 -24 2 21 4 0.14455177D+00 0.29051006D-02 0.17740253D+05 0.17740253D+05 0.17740253D+05 0.12396000D+01  1  2 12  2  6  2       21 0.694303017814D-01 0.100000000000D+01
-.240011215131D-06 0.000000000000D+00 0.000000000000D+00 0.524200934120D-06 0.000000000000D+00  6 1 21 25 -24 2 21 4 0.14455177D+00 0.25532928D-02 0.14992218D+05 0.14992218D+05 0.14992218D+05 0.12478482D+01  1  2  4  2  6  2       21 -.950056724362D-02 0.100000000000D+01
-.125470139035D-04 0.000000000000D+00 -.315038558538D-05 0.524200934120D-06 0.000000000000D+00  6 1 21 25 -24 2 21 4 0.14455177D+00 0.30333284D-02 0.14992218D+05 0.14992218D+05 0.14992218D+05 0.12478482D+01  1  2  5  2  6  2       21 -.374888594283D+00 0.100000000000D+01
0.123561388399D-04 0.000000000000D+00 0.297096682603D-05 0.524200934120D-06 0.000000000000D+00  6 1 21 25 -24 2 21 4 0.14455177D+00 0.25532928D-02 0.14992218D+05 0.14992218D+05 0.14992218D+05 0.12478482D+01  1  2  6  2  6  2       21 0.489103510666D+00 0.100000000000D+01
0.758884651043D-07 0.000000000000D+00 0.000000000000D+00 0.517293976076D-06 0.000000000000D+00  6 1 -1 25 -24 2 -1 4 0.14455177D+00 0.29051006D-02 0.17740253D+05 0.17740253D+05 0.17740253D+05 0.12396000D+01  1  2 12  5  6  2       21 0.122123842478D-03 0.100000000000D+01
-.492529555568D-06 0.000000000000D+00 -.151153979253D-06 0.524200934120D-06 0.000000000000D+00  6 1 -1 25 -24 2 -1 4 0.14455177D+00 0.30333284D-02 0.14992218D+05 0.14992218D+05 0.14992218D+05 0.12478482D+01  1  2  5  5  6  2       21 -.761182816402D-03 0.100000000000D+01
0.758884651043D-07 0.000000000000D+00 0.000000000000D+00 0.517293976076D-06 0.000000000000D+00  6 1 1 25 -24 2 1 4 0.14455177D+00 0.29051006D-02 0.17740253D+05 0.17740253D+05 0.17740253D+05 0.12396000D+01  1  2 12  6  6  2       21 0.131171619358D-03 0.100000000000D+01
-.492529555568D-06 0.000000000000D+00 -.151153979253D-06 0.524200934120D-06 0.000000000000D+00  6 1 1 25 -24 2 1 4 0.14455177D+00 0.30333284D-02 0.14992218D+05 0.14992218D+05 0.14992218D+05 0.12478482D+01  1  2  5  6  6  2       21 -.820252186250D-03 0.100000000000D+01
0.758884651043D-07 0.000000000000D+00 0.000000000000D+00 0.517293976076D-06 0.000000000000D+00  6 1 -2 25 -24 2 -2 4 0.14455177D+00 0.29051006D-02 0.17740253D+05 0.17740253D+05 0.17740253D+05 0.12396000D+01  1  2 12  7  6  2       21 0.120501836101D-03 0.100000000000D+01
-.492529555568D-06 0.000000000000D+00 -.151153979253D-06 0.524200934120D-06 0.000000000000D+00  6 1 -2 25 -24 2 -2 4 0.14455177D+00 0.30333284D-02 0.14992218D+05 0.14992218D+05 0.14992218D+05 0.12478482D+01  1  2  5  7  6  2       21 -.750597960019D-03 0.100000000000D+01
0.758884651043D-07 0.000000000000D+00 0.000000000000D+00 0.517293976076D-06 0.000000000000D+00  6 1 2 25 -24 2 2 4 0.14455177D+00 0.29051006D-02 0.17740253D+05 0.17740253D+05 0.17740253D+05 0.12396000D+01  1  2 12  8  6  2       21 0.137326633404D-03 0.100000000000D+01
-.492529555568D-06 0.000000000000D+00 -.151153979253D-06 0.524200934120D-06 0.000000000000D+00  6 1 2 25 -24 2 2 4 0.14455177D+00 0.30333284D-02 0.14992218D+05 0.14992218D+05 0.14992218D+05 0.12478482D+01  1  2  5  8  6  2       21 -.860366687186D-03 0.100000000000D+01
0.758884651043D-07 0.000000000000D+00 0.000000000000D+00 0.517293976076D-06 0.000000000000D+00  6 1 -3 25 -24 2 -3 4 0.14455177D+00 0.29051006D-02 0.17740253D+05 0.17740253D+05 0.17740253D+05 0.12396000D+01  1  2 12  9  6  2       21 0.913041318892D-04 0.100000000000D+01
0.758884651043D-07 0.000000000000D+00 0.000000000000D+00 0.517293976076D-06 0.000000000000D+00  6 1 -4 25 -24 2 -4 4 0.14455177D+00 0.29051006D-02 0.17740253D+05 0.17740253D+05 0.17740253D+05 0.12396000D+01  1  2 12  9  6  2       21 0.823101250835D-04 0.100000000000D+01
-.492529555568D-06 0.000000000000D+00 -.151153979253D-06 0.524200934120D-06 0.000000000000D+00  6 1 -3 25 -24 2 -3 4 0.14455177D+00 0.30333284D-02 0.14992218D+05 0.14992218D+05 0.14992218D+05 0.12478482D+01  1  2  5  9  6  2       21 -.564764582771D-03 0.100000000000D+01
-.492529555568D-06 0.000000000000D+00 -.151153979253D-06 0.524200934120D-06 0.000000000000D+00  6 1 -4 25 -24 2 -4 4 0.14455177D+00 0.30333284D-02 0.14992218D+05 0.14992218D+05 0.14992218D+05 0.12478482D+01  1  2  5  9  6  2       21 -.507790969456D-03 0.100000000000D+01
0.758884651043D-07 0.000000000000D+00 0.000000000000D+00 0.517293976076D-06 0.000000000000D+00  6 1 3 25 -24 2 3 4 0.14455177D+00 0.29051006D-02 0.17740253D+05 0.17740253D+05 0.17740253D+05 0.12396000D+01  1  2 12 10  6  2       21 0.912974396249D-04 0.100000000000D+01
0.758884651043D-07 0.000000000000D+00 0.000000000000D+00 0.517293976076D-06 0.000000000000D+00  6 1 4 25 -24 2 4 4 0.14455177D+00 0.29051006D-02 0.17740253D+05 0.17740253D+05 0.17740253D+05 0.12396000D+01  1  2 12 10  6  2       21 0.823101250835D-04 0.100000000000D+01
-.492529555568D-06 0.000000000000D+00 -.151153979253D-06 0.524200934120D-06 0.000000000000D+00  6 1 3 25 -24 2 3 4 0.14455177D+00 0.30333284D-02 0.14992218D+05 0.14992218D+05 0.14992218D+05 0.12478482D+01  1  2  5 10  6  2       21 -.564721462828D-03 0.100000000000D+01
-.492529555568D-06 0.000000000000D+00 -.151153979253D-06 0.524200934120D-06 0.000000000000D+00  6 1 4 25 -24 2 4 4 0.14455177D+00 0.30333284D-02 0.14992218D+05 0.14992218D+05 0.14992218D+05 0.12478482D+01  1  2  5 10  6  2       21 -.507790969456D-03 0.100000000000D+01
  </mgrwgt>
  </event>
  <event>
  6     66 -.42980143E-03 0.20983662E+02 0.75467711E-02 0.11817190E+00
        1 -1    0    0  502    0 0.00000000E+00 0.00000000E+00 0.26774065E+03 0.26774084E+03 0.32000000E+00 0.0000E+00 0.9000E+01
       21 -1    0    0  501  503 0.00000000E+00 0.00000000E+00 -.12062015E+03 0.12062248E+03 0.75000000E+00 0.0000E+00 0.9000E+01
       25  1    1    2    0    0 0.68247522E+01 0.91649472E+02 0.10437149E+03 0.18698827E+03 0.12500000E+03 0.0000E+00 0.9000E+01
      -24  1    1    2    0    0 0.17402320E+02 -.11358778E+03 0.68307416E+02 0.15600687E+03 0.80419002E+02 0.0000E+00 0.9000E+01
        2  1    1    2  501    0 -.23976039E+02 0.11081235E+02 -.16009334E+02 0.30887625E+02 0.32000000E+00 0.0000E+00 0.9000E+01
       21  1    1    2  502  503 -.25103324E+00 0.10857077E+02 -.95490758E+01 0.14480556E+02 0.75000000E+00 0.0000E+00 0.9000E+01
#aMCatNLO 2  0  0  2  1 0.10859979D+02 0.00000000D+00  -5  6  0 0.00000000D+00 0.00000000D+00 0.00000000D+00 0.00000000D+00 0.00000000D+00
  <mgrwgt>
 -.1249993821D+00    2    2    0
 0.169650395215548D+03 0.000000000000000D+00 0.000000000000000D+00 0.169650395215548D+03
 0.169650395215548D+03 0.000000000000000D+00 0.000000000000000D+00 -.169650395215548D+03
 0.160781177694161D+03 0.670727389591188D+01 0.967446020546435D+02 0.286545206013872D+02
 0.136719523091595D+03 0.173001542989886D+02 -.109157059412508D+03 0.323312258785471D+01
 0.418000896453406D+02 -.240074281949004D+02 0.124124573578645D+02 -.318876431892419D+02
 0.000000000000000D+00 -.000000000000000D+00 0.000000000000000D+00 -.000000000000000D+00
 0.171308120521246D+03 0.000000000000000D+00 0.000000000000000D+00 0.171308120521246D+03
 0.188507241145840D+03 0.000000000000000D+00 0.000000000000000D+00 -.188507241145840D+03
 0.157772803692233D+03 0.682508553813015D+01 0.916493002777968D+02 0.286545206013872D+02
 0.140295185079335D+03 0.174026033644380D+02 -.113587936492157D+03 0.323312258785471D+01
 0.414065545006495D+02 -.239766556666537D+02 0.110815590281140D+02 -.318876431892419D+02
 0.203408183948682D+02 -.251033235914399D+00 0.108570771862463D+02 -.171991206245949D+02
-.249468231293D-04 0.000000000000D+00 0.000000000000D+00 0.947522958930D-06 0.000000000000D+00  6 1 21 25 -24 2 21 4 0.40790830D-01 0.18632415D-01 0.27669069D+05 0.27669069D+05 0.27669069D+05 0.12186024D+01  1  2 13  2  6  2       21 -.162151387593D+00 0.100000000000D+01
0.574177329693D-05 0.000000000000D+00 0.000000000000D+00 0.952254490225D-06 0.126297657307D-06  6 1 21 25 -24 2 21 4 0.41189414D-01 0.18556397D-01 0.27669069D+05 0.27669069D+05 0.27669069D+05 0.12186024D+01  1  2  1  2  6  2       21 0.371520054714D-01 0.100000000000D+01
  </mgrwgt>
  </event>
  <event>
  5     66 -.42980143E-03 0.26587440E+02 0.75467711E-02 0.11915851E+00
        1 -1    0    0  502    0 0.00000000E+00 0.00000000E+00 0.71591556E+03 0.71591564E+03 0.32000000E+00 0.0000E+00 0.9000E+01
       21 -1    0    0  501  502 0.00000000E+00 0.00000000E+00 -.20439964E+03 0.20440101E+03 0.75000000E+00 0.0000E+00 0.9000E+01
       25  1    1    2    0    0 0.28900677E+02 0.66133928E+01 0.50408296E+03 0.52019574E+03 0.12500000E+03 0.0000E+00 0.9000E+01
      -24  1    1    2    0    0 -.44519331E+02 0.14902863E+02 0.19213678E+03 0.21351305E+03 0.80419002E+02 0.0000E+00 0.9000E+01
        2  1    1    2  501    0 0.15618654E+02 -.21516256E+02 -.18470381E+03 0.18660785E+03 0.32000000E+00 0.0000E+00 0.9000E+01
#aMCatNLO 1  0  0  1  2 0.74529228D+01 0.00000000D+00  -5  6  0 0.00000000D+00 0.00000000D+00 0.00000000D+00 0.00000000D+00 0.00000000D+00
  <mgrwgt>
 -.2389221383D+01    5    2    0
 0.382535681090213D+03 0.000000000000000D+00 0.000000000000000D+00 0.382535681090213D+03
 0.382535681090213D+03 0.000000000000000D+00 0.000000000000000D+00 -.382535681090213D+03
 0.288729119803809D+03 0.289006747775812D+02 0.661339624373388D+01 0.258574009927924D+03
 0.128378361855227D+03 -.445193319567166D+02 0.149028647657666D+02 0.883726289196032D+02
 0.347963880521391D+03 0.156186571791355D+02 -.215162610095005D+02 -.346946638847527D+03
 0.000000000000000D+00 -.000000000000000D+00 -.000000000000000D+00 0.000000000000000D+00
 0.900646549780607D+03 0.000000000000000D+00 0.000000000000000D+00 0.900646549780607D+03
 0.385282035197890D+03 0.000000000000000D+00 0.000000000000000D+00 -.385282035197890D+03
 0.291212998662039D+03 0.412399685697587D+02 0.248748260676543D+02 0.258574009927924D+03
 0.127792407055415D+03 -.390688459893958D+02 0.229692637570599D+02 0.883726289196032D+02
 0.348279012349716D+03 0.304324555433218D+02 0.407290192821485D+00 -.346946638847527D+03
 0.518644166911326D+03 -.326035781236847D+02 -.482513800175357D+02 0.515364514582717D+03
0.253898888447D-03 0.000000000000D+00 0.000000000000D+00 0.503777141449D-04 0.000000000000D+00  6 1 21 25 -24 2 21 2 0.11014097D+00 0.31446209D-01 0.15397708D+05 0.15397708D+05 0.15397708D+05 0.12465290D+01  1  2  2  1  6  1        1 0.120302234354D+00 0.100000000000D+01
0.887477093105D-04 0.133986124494D-04 -.512548704262D-06 0.503777141449D-04 0.000000000000D+00  6 1 21 25 -24 2 21 4 0.11014097D+00 0.31446209D-01 0.15397708D+05 0.15397708D+05 0.15397708D+05 0.12465290D+01  1  2  3  1  6  1        1 0.653393526958D-01 0.100000000000D+01
0.258691777717D-04 0.000000000000D+00 0.000000000000D+00 0.503777141449D-04 0.000000000000D+00  6 1 21 25 -24 2 21 4 0.11014097D+00 0.31446209D-01 0.15397708D+05 0.15397708D+05 0.15397708D+05 0.12465290D+01  1  2 15  1  6  1        1 0.190458474197D-01 0.100000000000D+01
-.155716111056D-01 0.000000000000D+00 -.239727960401D-03 0.503777141449D-04 0.000000000000D+00  6 1 21 25 -24 2 21 4 0.25974319D+00 0.31446209D-01 0.15397708D+05 0.15397708D+05 0.15397708D+05 0.12465290D+01  1  2  5  1  6  1        1 -.237353862946D+01 0.100000000000D+01
-.144310968187D-02 0.000000000000D+00 -.224497974188D-04 0.503777141449D-04 0.000000000000D+00  6 21 21 25 -24 2 -1 4 0.25974319D+00 0.31446209D-01 0.15397708D+05 0.15397708D+05 0.15397708D+05 0.12465290D+01  1  2  5  4  6  1        1 -.220370187932D+00 0.100000000000D+01
  </mgrwgt>
  </event>
  <event>
  5     66 0.42980143E-03 0.19647915E+03 0.75467711E-02 0.97155713E-01
        1 -1    0    0  502    0 0.00000000E+00 0.00000000E+00 0.10553363E+04 0.10553363E+04 0.32000000E+00 0.0000E+00 0.9000E+01
       21 -1    0    0  501  502 0.00000000E+00 0.00000000E+00 -.90470071E+02 0.90473180E+02 0.75000000E+00 0.0000E+00 0.9000E+01
       25  1    1    2    0    0 0.42893913E+02 -.71090582E+02 0.10554751E+03 0.18346399E+03 0.12500000E+03 0.0000E+00 0.9000E+01
      -24  1    1    2    0    0 -.17429824E+03 -.74980950E+02 0.61626364E+03 0.64980775E+03 0.80419002E+02 0.0000E+00 0.9000E+01
        2  1    1    2  501    0 0.13140433E+03 0.14607153E+03 0.24305504E+03 0.31253775E+03 0.32000000E+00 0.0000E+00 0.9000E+01
#aMCatNLO 1  0  0  2  1 0.58848872D+03 0.00000000D+00  -5  6  0 0.00000000D+00 0.00000000D+00 0.00000000D+00 0.00000000D+00 0.00000000D+00
  <mgrwgt>
 0.7504687223D-01    3    2    0
 0.308995396479092D+03 0.000000000000000D+00 0.000000000000000D+00 0.308995396479092D+03
 0.308995396479092D+03 0.000000000000000D+00 0.000000000000000D+00 -.308995396479092D+03
 0.175367595433964D+03 0.428938655597858D+02 -.710906351569253D+02 -.907470738845865D+02
 0.242631419641378D+03 -.174298308033233D+03 -.749810233759891D+02 0.128065357505696D+03
 0.199991777882841D+03 0.131404442473447D+03 0.146071658532914D+03 -.373182836211092D+02
 0.000000000000000D+00 -.000000000000000D+00 0.000000000000000D+00 0.000000000000000D+00
 0.126619578920724D+04 0.000000000000000D+00 0.000000000000000D+00 0.126619578920724D+04
 0.529813302606034D+03 0.000000000000000D+00 0.000000000000000D+00 -.529813302606034D+03
 0.314553248003725D+03 0.681289106762778D+02 -.265409430769033D+03 -.907470738845865D+02
 0.384474327918569D+03 -.141997086224736D+03 -.323711885145862D+03 0.128065357505696D+03
 0.154337288837183D+03 0.149655370362172D+03 0.553304210608690D+01 -.373182836211092D+02
 0.942644227053798D+03 -.757871948137134D+02 0.583588273808809D+03 0.736382486601207D+03
0.713676968766D-04 0.000000000000D+00 0.000000000000D+00 0.577623607262D-07 0.000000000000D+00  6 1 21 25 -24 2 21 2 0.16235967D+00 0.13918715D-01 0.76347883D+05 0.76347883D+05 0.76347883D+05 0.11744943D+01  1  2  2  2  6  2       21 0.706486367351D-01 0.100000000000D+01
-.625586599480D-05 0.376617683405D-05 -.144070818049D-06 0.577623607262D-07 0.000000000000D+00  6 1 21 25 -24 2 21 4 0.16235967D+00 0.13918715D-01 0.76347883D+05 0.76347883D+05 0.76347883D+05 0.11744943D+01  1  2  3  2  6  2       21 -.854262481233D-02 0.100000000000D+01
0.947674628279D-05 0.000000000000D+00 0.000000000000D+00 0.577623607262D-07 0.000000000000D+00  6 1 21 25 -24 2 21 4 0.16235967D+00 0.13918715D-01 0.76347883D+05 0.76347883D+05 0.76347883D+05 0.11744943D+01  1  2 15  2  6  2       21 0.129408603066D-01 0.100000000000D+01
  </mgrwgt>
  </event>
  <event>
  6     66 -.42980143E-03 0.80127676E+02 0.75467711E-02 0.11698073E+00
        1 -1    0    0  502    0 0.00000000E+00 0.00000000E+00 0.39268322E+04 0.39268322E+04 0.32000000E+00 0.0000E+00 0.9000E+01
       21 -1    0    0  503  502 0.00000000E+00 0.00000000E+00 -.21148168E+03 0.21148301E+03 0.75000000E+00 0.0000E+00 0.9000E+01
       25  1    1    2    0    0 -.11041549E+03 -.41265252E+02 0.20919821E+04 0.20990256E+04 0.12500000E+03 0.0000E+00 0.9000E+01
      -24  1    1    2    0    0 0.23343358E+02 0.19156785E+02 0.18094589E+04 0.18114968E+04 0.80419002E+02 0.0000E+00 0.9000E+01
        2  1    1    2  501    0 0.85540530E+02 0.10174657E+02 -.19474891E+03 0.21295057E+03 0.32000000E+00 0.0000E+00 0.9000E+01
       21  1    1    2  503  501 0.15316004E+01 0.11933811E+02 0.86584301E+01 0.14842255E+02 0.75000000E+00 0.0000E+00 0.9000E+01
#aMCatNLO 2  0  0  2  1 0.12031693D+02 0.00000000D+00  -5  6  0 0.00000000D+00 0.00000000D+00 0.00000000D+00 0.00000000D+00 0.00000000D+00
  <mgrwgt>
 -.1471648277D+00    3    2    0
 0.903232857354182D+03 0.000000000000000D+00 0.000000000000000D+00 0.903232857354182D+03
 0.903232857354182D+03 0.000000000000000D+00 0.000000000000000D+00 -.903232857354182D+03
 0.498365583609056D+03 -.109992808506298D+03 -.379718305365325D+02 0.468191175791040D+03
 0.422269547134740D+03 0.237013055015743D+02 0.219458216212943D+02 0.413280756283057D+03
 0.885830583964568D+03 0.862915030047240D+02 0.160260089152382D+02 -.881471932074097D+03
 0.000000000000000D+00 0.000000000000000D+00 0.000000000000000D+00 -.000000000000000D+00
 0.905955110021627D+03 0.000000000000000D+00 0.000000000000000D+00 0.905955110021627D+03
 0.916645738935157D+03 0.000000000000000D+00 0.000000000000000D+00 -.916645738935157D+03
 0.498720742180168D+03 -.110415490462392D+03 -.412652524297388D+02 0.468191175791040D+03
 0.422113840302814D+03 0.233433569341694D+02 0.191567845414353D+02 0.413280756283057D+03
 0.885671199421317D+03 0.855405330840076D+02 0.101746572254645D+02 -.881471932074097D+03
 0.160950670524859D+02 0.153160044421526D+01 0.119338106628391D+02 -.106906289135301D+02
-.810995221220D-02 0.000000000000D+00 0.000000000000D+00 0.249853033146D-04 0.000000000000D+00  6 1 21 25 -24 2 21 4 0.60230703D+00 0.32583308D-01 0.31664259D+05 0.31664259D+05 0.31664259D+05 0.12124451D+01  1  2 13  2  6  2       21 -.281559218747D-01 0.100000000000D+01
-.792418259412D-01 0.000000000000D+00 0.000000000000D+00 0.250995993876D-04 0.000000000000D+00  6 1 21 25 -24 2 21 4 0.60230703D+00 0.32059357D-01 0.29792339D+05 0.29792339D+05 0.29792339D+05 0.12152151D+01  1  2  8  2  6  2       21 -.288675695307D+00 0.100000000000D+01
0.498242390339D-01 0.000000000000D+00 0.000000000000D+00 0.250995993876D-04 0.135900526518D-05  6 1 21 25 -24 2 21 4 0.60412233D+00 0.32535434D-01 0.31664259D+05 0.31664259D+05 0.31664259D+05 0.12124451D+01  1  2  1  2  6  2       21 0.169666789472D+00 0.100000000000D+01
  </mgrwgt>
  </event>
  <event>
  6     66 -.42980143E-03 0.71091130E+01 0.75467711E-02 0.12368842E+00
        1 -1    0    0  502    0 0.00000000E+00 0.00000000E+00 0.41102037E+02 0.41103283E+02 0.32000000E+00 0.0000E+00 0.9000E+01
       21 -1    0    0  501  502 -.00000000E+00 -.00000000E+00 -.44475127E+03 0.44475190E+03 0.75000000E+00 0.0000E+00 0.9000E+01
       25  1    1    2    0    0 0.29503126E+02 -.38490269E+02 -.14305506E+03 0.19606551E+03 0.12500000E+03 0.0000E+00 0.9000E+01
      -24  1    1    2    0    0 -.48789186E+01 0.30312003E+02 -.13139150E+03 0.15707821E+03 0.80419002E+02 0.0000E+00 0.9000E+01
        2  1    1    2  503    0 -.11774024E+02 0.51989534E+01 -.97781437E+02 0.98625395E+02 0.32000000E+00 0.0000E+00 0.9000E+01
       21  1    1    2  501  503 -.12850183E+02 0.29793123E+01 -.31421228E+02 0.34086062E+02 0.75000000E+00 0.0000E+00 0.9000E+01
#aMCatNLO 2  0  0  5  2 0.72577975D+01 0.00000000D+00  -5  6  0 0.00000000D+00 0.00000000D+00 0.00000000D+00 0.00000000D+00 0.00000000D+00
  <mgrwgt>
 -.1326180344D+00    1    2    0
 0.135205914540378D+03 0.000000000000000D+00 0.000000000000000D+00 0.135205914540378D+03
 0.135205914540378D+03 -.000000000000000D+00 -.000000000000000D+00 -.135205914540378D+03
 0.139286111116932D+03 0.303297555404882D+02 -.387648115507948D+02 0.367833666806598D+02
 0.859978492538944D+02 -.436723928975268D+01 0.301420627251384D+02 -.892971211668033D+00
 0.451278687099301D+02 -.259625162507356D+02 0.862274882565644D+01 -.358903954689918D+02
 0.000000000000000D+00 -.000000000000000D+00 0.000000000000000D+00 0.000000000000000D+00
 0.135205914540378D+03 0.000000000000000D+00 0.000000000000000D+00 0.135205914540378D+03
 0.135205914540378D+03 -.000000000000000D+00 -.000000000000000D+00 -.135205914540378D+03
 0.138731699387294D+03 0.294992699562724D+02 -.384889881857996D+02 0.356353093906442D+02
 0.860957634208757D+02 -.488131162275471D+01 0.303127979714021D+02 -.160362110218423D+01
 0.309828710183835D+02 -.115410162263056D+02 0.513706232271892D+01 -.282905254758275D+02
 0.146014952542029D+02 -.130769421072121D+02 0.303912789167852D+01 -.574116281263255D+01
-.221576720007D-04 0.000000000000D+00 0.000000000000D+00 0.166096834610D-05 0.000000000000D+00  6 1 21 25 -24 2 21 4 0.63235348D-02 0.68423416D-01 0.15155559D+05 0.15155559D+05 0.15155559D+05 0.12473121D+01  1  2 13  3  6  5        2 -.132618034356D+00 0.100000000000D+01
  </mgrwgt>
  </event>
  <event>
  5     66 0.42980143E-03 0.31696228E+02 0.75467711E-02 0.12229664E+00
        1 -1    0    0  502    0 0.00000000E+00 0.00000000E+00 0.11115697E+02 0.11120303E+02 0.32000000E+00 0.0000E+00 0.9000E+01
       21 -1    0    0  501  502 0.00000000E+00 0.00000000E+00 -.14351472E+04 0.14351474E+04 0.75000000E+00 0.0000E+00 0.9000E+01
       25  1    1    2    0    0 -.29323767E+02 -.30493274E+02 -.60151864E+03 0.61582416E+03 0.12500000E+03 0.0000E+00 0.9000E+01
      -24  1    1    2    0    0 0.12032809E+01 0.13732732E+02 -.56634411E+03 0.57219132E+03 0.80419002E+02 0.0000E+00 0.9000E+01
        2  1    1    2  501    0 0.28120487E+02 0.16760542E+02 -.25616878E+03 0.25825225E+03 0.32000000E+00 0.0000E+00 0.9000E+01
#aMCatNLO 1  0  0  2  1 0.19187460D+02 0.00000000D+00  -5  6  0 0.00000000D+00 0.00000000D+00 0.00000000D+00 0.00000000D+00 0.00000000D+00
  <mgrwgt>
 0.1227278410D+00   32    2    0
 0.126317592618718D+03 0.000000000000000D+00 0.000000000000000D+00 0.126317592618718D+03
 0.126317592618718D+03 0.000000000000000D+00 0.000000000000000D+00 -.126317592618718D+03
 0.134839374150092D+03 -.293244140705935D+02 -.304936597710355D+02 0.276924587997022D+02
 0.833215113441286D+02 0.120288130497717D+01 0.137324937359893D+02 -.168887533778066D+02
 0.344742997432162D+02 0.281215327656163D+02 0.167611660350462D+02 -.108037054218956D+02
 0.000000000000000D+00 0.000000000000000D+00 0.000000000000000D+00 -.000000000000000D+00
 0.128821084783572D+03 0.000000000000000D+00 0.000000000000000D+00 0.128821084783572D+03
 0.169696653085863D+03 0.000000000000000D+00 0.000000000000000D+00 -.169696653085863D+03
 0.138427309904833D+03 -.357929233684403D+02 -.385890462418598D+02 0.276924587997022D+02
 0.826896404008103D+02 -.272677694195557D+01 0.881449783579452D+01 -.168887533778066D+02
 0.322458241114069D+02 0.265421973885296D+02 0.147846163145692D+02 -.108037054218956D+02
 0.451549634523848D+02 0.119775029218663D+02 0.149899320914961D+02 -.408755683022906D+02
0.147933086356D-04 0.000000000000D+00 0.000000000000D+00 0.803043295271D-06 0.000000000000D+00  6 1 21 25 -24 2 21 2 0.17104766D-02 0.22079225D+00 0.15165274D+05 0.15165274D+05 0.15165274D+05 0.12472804D+01  1  2  2  2  6  2       21 0.185003544177D-01 0.100000000000D+01
0.289304702694D-07 0.780664344242D-06 -.298634279941D-07 0.803043295271D-06 0.000000000000D+00  6 1 21 25 -24 2 21 4 0.17104766D-02 0.22079225D+00 0.15165274D+05 0.15165274D+05 0.15165274D+05 0.12472804D+01  1  2  3  2  6  2       21 0.562857422302D-04 0.100000000000D+01
0.154555915191D-05 0.000000000000D+00 0.000000000000D+00 0.803043295271D-06 0.000000000000D+00  6 1 21 25 -24 2 21 4 0.17104766D-02 0.22079225D+00 0.15165274D+05 0.15165274D+05 0.15165274D+05 0.12472804D+01  1  2 15  2  6  2       21 0.300696612312D-02 0.100000000000D+01
0.666960535067D-04 0.000000000000D+00 0.000000000000D+00 0.793295861346D-06 0.000000000000D+00  6 1 21 25 -24 2 21 4 0.17104766D-02 0.29825451D+00 0.17708321D+05 0.17708321D+05 0.17708321D+05 0.12396874D+01  1  2 12  2  6  2       21 0.452741412431D-01 0.100000000000D+01
0.529909741683D-04 0.000000000000D+00 0.000000000000D+00 0.793295861346D-06 0.000000000000D+00  6 1 21 25 -24 2 21 4 0.17104766D-02 0.32050588D+00 0.17708321D+05 0.17708321D+05 0.17708321D+05 0.12396874D+01  1  2 12  2  6  2       21 0.269429463371D-01 0.100000000000D+01
-.638338771021D-04 0.000000000000D+00 0.000000000000D+00 0.803043295271D-06 0.000000000000D+00  6 1 21 25 -24 2 21 4 0.17104766D-02 0.22079225D+00 0.15165274D+05 0.15165274D+05 0.15165274D+05 0.12472804D+01  1  2  4  2  6  2       21 -.124192144776D+00 0.100000000000D+01
-.154524136551D-03 0.000000000000D+00 -.161289017512D-04 0.803043295271D-06 0.000000000000D+00  6 1 21 25 -24 2 21 4 0.17104766D-02 0.29853291D+00 0.15165274D+05 0.15165274D+05 0.15165274D+05 0.12472804D+01  1  2  5  2  6  2       21 -.108193601858D+00 0.100000000000D+01
0.136383171791D-03 0.000000000000D+00 0.135333834985D-04 0.803043295271D-06 0.000000000000D+00  6 1 21 25 -24 2 21 4 0.17104766D-02 0.22079225D+00 0.15165274D+05 0.15165274D+05 0.15165274D+05 0.12472804D+01  1  2  6  2  6  2       21 0.265340590060D+00 0.100000000000D+01
0.629798903269D-05 0.000000000000D+00 0.000000000000D+00 0.793295861346D-06 0.000000000000D+00  6 1 -1 25 -24 2 -1 4 0.17104766D-02 0.29825451D+00 0.17708321D+05 0.17708321D+05 0.17708321D+05 0.12396874D+01  1  2 12  5  6  2       21 0.445693031698D-03 0.100000000000D+01
0.650942379642D-05 0.000000000000D+00 0.000000000000D+00 0.793295861346D-06 0.000000000000D+00  6 1 -1 25 -24 2 -1 4 0.17104766D-02 0.32050588D+00 0.17708321D+05 0.17708321D+05 0.17708321D+05 0.12396874D+01  1  2 12  5  6  2       21 0.336007952809D-03 0.100000000000D+01
-.127625647602D-04 0.000000000000D+00 -.152883929333D-05 0.803043295271D-06 0.000000000000D+00  6 1 -1 25 -24 2 -1 4 0.17104766D-02 0.29853291D+00 0.15165274D+05 0.15165274D+05 0.15165274D+05 0.12472804D+01  1  2  5  5  6  2       21 -.921675918448D-03 0.100000000000D+01
0.629798903269D-05 0.000000000000D+00 0.000000000000D+00 0.793295861346D-06 0.000000000000D+00  6 1 1 25 -24 2 1 4 0.17104766D-02 0.29825451D+00 0.17708321D+05 0.17708321D+05 0.17708321D+05 0.12396874D+01  1  2 12  6  6  2       21 0.492248851421D-02 0.100000000000D+01
0.650942379642D-05 0.000000000000D+00 0.000000000000D+00 0.793295861346D-06 0.000000000000D+00  6 1 1 25 -24 2 1 4 0.17104766D-02 0.32050588D+00 0.17708321D+05 0.17708321D+05 0.17708321D+05 0.12396874D+01  1  2 12  6  6  2       21 0.411728814029D-02 0.100000000000D+01
-.127625647602D-04 0.000000000000D+00 -.152883929333D-05 0.803043295271D-06 0.000000000000D+00  6 1 1 25 -24 2 1 4 0.17104766D-02 0.29853291D+00 0.15165274D+05 0.15165274D+05 0.15165274D+05 0.12472804D+01  1  2  5  6  6  2       21 -.101871091300D-01 0.100000000000D+01
0.629798903269D-05 0.000000000000D+00 0.000000000000D+00 0.793295861346D-06 0.000000000000D+00  6 1 -2 25 -24 2 -2 4 0.17104766D-02 0.29825451D+00 0.17708321D+05 0.17708321D+05 0.17708321D+05 0.12396874D+01  1  2 12  7  6  2       21 0.366861492006D-03 0.100000000000D+01
0.650942379642D-05 0.000000000000D+00 0.000000000000D+00 0.793295861346D-06 0.000000000000D+00  6 1 -2 25 -24 2 -2 4 0.17104766D-02 0.32050588D+00 0.17708321D+05 0.17708321D+05 0.17708321D+05 0.12396874D+01  1  2 12  7  6  2       21 0.282344413495D-03 0.100000000000D+01
-.127625647602D-04 0.000000000000D+00 -.152883929333D-05 0.803043295271D-06 0.000000000000D+00  6 1 -2 25 -24 2 -2 4 0.17104766D-02 0.29853291D+00 0.15165274D+05 0.15165274D+05 0.15165274D+05 0.12472804D+01  1  2  5  7  6  2       21 -.758155152115D-03 0.100000000000D+01
0.629798903269D-05 0.000000000000D+00 0.000000000000D+00 0.793295861346D-06 0.000000000000D+00  6 1 2 25 -24 2 2 4 0.17104766D-02 0.29825451D+00 0.17708321D+05 0.17708321D+05 0.17708321D+05 0.12396874D+01  1  2 12  8  6  2       21 0.120092796967D-01 0.100000000000D+01
0.650942379642D-05 0.000000000000D+00 0.000000000000D+00 0.793295861346D-06 0.000000000000D+00  6 1 2 25 -24 2 2 4 0.17104766D-02 0.32050588D+00 0.17708321D+05 0.17708321D+05 0.17708321D+05 0.12396874D+01  1  2 12  8  6  2       21 0.104673223987D-01 0.100000000000D+01
-.127625647602D-04 0.000000000000D+00 -.152883929333D-05 0.803043295271D-06 0.000000000000D+00  6 1 2 25 -24 2 2 4 0.17104766D-02 0.29853291D+00 0.15165274D+05 0.15165274D+05 0.15165274D+05 0.12472804D+01  1  2  5  8  6  2       21 -.248390285876D-01 0.100000000000D+01
0.629798903269D-05 0.000000000000D+00 0.000000000000D+00 0.793295861346D-06 0.000000000000D+00  6 1 -3 25 -24 2 -3 4 0.17104766D-02 0.29825451D+00 0.17708321D+05 0.17708321D+05 0.17708321D+05 0.12396874D+01  1  2 12  9  6  2       21 0.259391172393D-03 0.100000000000D+01
0.629798903269D-05 0.000000000000D+00 0.000000000000D+00 0.793295861346D-06 0.000000000000D+00  6 1 -4 25 -24 2 -4 4 0.17104766D-02 0.29825451D+00 0.17708321D+05 0.17708321D+05 0.17708321D+05 0.12396874D+01  1  2 12  9  6  2       21 0.183393587534D-03 0.100000000000D+01
0.650942379642D-05 0.000000000000D+00 0.000000000000D+00 0.793295861346D-06 0.000000000000D+00  6 1 -3 25 -24 2 -3 4 0.17104766D-02 0.32050588D+00 0.17708321D+05 0.17708321D+05 0.17708321D+05 0.12396874D+01  1  2 12  9  6  2       21 0.205214472943D-03 0.100000000000D+01
0.650942379642D-05 0.000000000000D+00 0.000000000000D+00 0.793295861346D-06 0.000000000000D+00  6 1 -4 25 -24 2 -4 4 0.17104766D-02 0.32050588D+00 0.17708321D+05 0.17708321D+05 0.17708321D+05 0.12396874D+01  1  2 12  9  6  2       21 0.140673818400D-03 0.100000000000D+01
-.127625647602D-04 0.000000000000D+00 -.152883929333D-05 0.803043295271D-06 0.000000000000D+00  6 1 -3 25 -24 2 -3 4 0.17104766D-02 0.29853291D+00 0.15165274D+05 0.15165274D+05 0.15165274D+05 0.12472804D+01  1  2  5  9  6  2       21 -.535108549620D-03 0.100000000000D+01
-.127625647602D-04 0.000000000000D+00 -.152883929333D-05 0.803043295271D-06 0.000000000000D+00  6 1 -4 25 -24 2 -4 4 0.17104766D-02 0.29853291D+00 0.15165274D+05 0.15165274D+05 0.15165274D+05 0.12472804D+01  1  2  5  9  6  2       21 -.377931023065D-03 0.100000000000D+01
0.629798903269D-05 0.000000000000D+00 0.000000000000D+00 0.793295861346D-06 0.000000000000D+00  6 1 3 25 -24 2 3 4 0.17104766D-02 0.29825451D+00 0.17708321D+05 0.17708321D+05 0.17708321D+05 0.12396874D+01  1  2 12 10  6  2       21 0.263450879078D-03 0.100000000000D+01
0.629798903269D-05 0.000000000000D+00 0.000000000000D+00 0.793295861346D-06 0.000000000000D+00  6 1 4 25 -24 2 4 4 0.17104766D-02 0.29825451D+00 0.17708321D+05 0.17708321D+05 0.17708321D+05 0.12396874D+01  1  2 12 10  6  2       21 0.183393587534D-03 0.100000000000D+01
0.650942379642D-05 0.000000000000D+00 0.000000000000D+00 0.793295861346D-06 0.000000000000D+00  6 1 3 25 -24 2 3 4 0.17104766D-02 0.32050588D+00 0.17708321D+05 0.17708321D+05 0.17708321D+05 0.12396874D+01  1  2 12 10  6  2       21 0.209228038114D-03 0.100000000000D+01
0.650942379642D-05 0.000000000000D+00 0.000000000000D+00 0.793295861346D-06 0.000000000000D+00  6 1 4 25 -24 2 4 4 0.17104766D-02 0.32050588D+00 0.17708321D+05 0.17708321D+05 0.17708321D+05 0.12396874D+01  1  2 12 10  6  2       21 0.140673818400D-03 0.100000000000D+01
-.127625647602D-04 0.000000000000D+00 -.152883929333D-05 0.803043295271D-06 0.000000000000D+00  6 1 3 25 -24 2 3 4 0.17104766D-02 0.29853291D+00 0.15165274D+05 0.15165274D+05 0.15165274D+05 0.12472804D+01  1  2  5 10  6  2       21 -.543461950985D-03 0.100000000000D+01
-.127625647602D-04 0.000000000000D+00 -.152883929333D-05 0.803043295271D-06 0.000000000000D+00  6 1 4 25 -24 2 4 4 0.17104766D-02 0.29853291D+00 0.15165274D+05 0.15165274D+05 0.15165274D+05 0.12472804D+01  1  2  5 10  6  2       21 -.377931023065D-03 0.100000000000D+01
  </mgrwgt>
  </event>
  <event>
  6     66 0.42980143E-03 0.49591197E+02 0.75467711E-02 0.11832949E+00
        1 -1    0    0  502    0 0.00000000E+00 0.00000000E+00 0.13250111E+04 0.13250112E+04 0.32000000E+00 0.0000E+00 0.9000E+01
       21 -1    0    0  501  502 0.00000000E+00 0.00000000E+00 -.44532724E+02 0.44539039E+02 0.75000000E+00 0.0000E+00 0.9000E+01
       25  1    1    2    0    0 -.45141877E+02 0.96806562E+02 0.86499940E+03 0.88048751E+03 0.12500000E+03 0.0000E+00 0.9000E+01
      -24  1    1    2    0    0 0.22194843E+02 -.34544557E+02 0.39808332E+03 0.40819540E+03 0.80419002E+02 0.0000E+00 0.9000E+01
        2  1    1    2  503    0 0.16690116E+02 -.47023372E+01 0.14974515E+02 0.22913106E+02 0.32000000E+00 0.0000E+00 0.9000E+01
       21  1    1    2  501  503 0.62569181E+01 -.57559667E+02 0.24211791E+01 0.57954197E+02 0.75000000E+00 0.0000E+00 0.9000E+01
#aMCatNLO 2  0  0  5  2 0.13968903D+02 0.00000000D+00  -5  6  0 0.00000000D+00 0.00000000D+00 0.00000000D+00 0.00000000D+00 0.00000000D+00
  <mgrwgt>
 0.4466651320D-01    1    2    0
 0.242921192882948D+03 0.000000000000000D+00 0.000000000000000D+00 0.242921192882948D+03
 0.242921192882948D+03 -.000000000000000D+00 -.000000000000000D+00 -.242921192882948D+03
 0.203830706902925D+03 -.454199946657420D+02 0.975611750419532D+02 0.119753072134053D+03
 0.101788356145720D+03 0.220556207522276D+02 -.341668071000479D+02 0.473268674042489D+02
 0.180223322717252D+03 0.233643739135144D+02 -.633943679419053D+02 -.167079939538302D+03
 0.000000000000000D+00 0.000000000000000D+00 0.000000000000000D+00 -.000000000000000D+00
 0.242921192882948D+03 0.000000000000000D+00 0.000000000000000D+00 0.242921192882948D+03
 0.242921192882948D+03 -.000000000000000D+00 -.000000000000000D+00 -.242921192882948D+03
 0.202284100705639D+03 -.451488945814708D+02 0.968256013623424D+02 0.117814420327823D+03
 0.101495116990730D+03 0.221913217059129D+02 -.345350034069484D+02 0.463564623242341D+02
 0.245711000964412D+02 0.163278152194426D+02 -.459768448271842D+01 -.177764649890365D+02
 0.157492067973087D+03 0.662975765611533D+01 -.576929134726756D+02 -.146394417663021D+03
0.120243816566D-04 0.000000000000D+00 0.000000000000D+00 0.144121212155D-05 0.120609948413D-07  6 1 21 25 -24 2 21 4 0.20384836D+00 0.68516770D-02 0.27185401D+05 0.27185401D+05 0.27185401D+05 0.12194147D+01  1  2  1  3  6  5        2 0.446665132016D-01 0.100000000000D+01
  </mgrwgt>
  </event>
  <event>
  6     66 0.42980143E-03 0.28374340E+02 0.75467711E-02 0.12003805E+00
        1 -1    0    0  503    0 0.00000000E+00 0.00000000E+00 0.17869056E+04 0.17869057E+04 0.32000000E+00 0.0000E+00 0.9000E+01
       21 -1    0    0  501  502 0.00000000E+00 0.00000000E+00 -.14719084E+02 0.14738179E+02 0.75000000E+00 0.0000E+00 0.9000E+01
       25  1    1    2    0    0 -.56850974E+02 -.27720662E+02 0.77440100E+03 0.78697038E+03 0.12500000E+03 0.0000E+00 0.9000E+01
      -24  1    1    2    0    0 -.58153859E+01 -.17813430E+02 0.47270159E+03 0.47985951E+03 0.80419002E+02 0.0000E+00 0.9000E+01
        2  1    1    2  501    0 0.25927470E+02 0.19992676E+02 0.67239793E+02 0.74787920E+02 0.32000000E+00 0.0000E+00 0.9000E+01
       21  1    1    2  503  502 0.36738890E+02 0.25541415E+02 0.45784417E+03 0.46002604E+03 0.75000000E+00 0.0000E+00 0.9000E+01
#aMCatNLO 2  0  0  1  2 0.44744943D+02 0.00000000D+00  -5  6  0 0.00000000D+00 0.00000000D+00 0.00000000D+00 0.00000000D+00 0.00000000D+00
  <mgrwgt>
 0.1716566586D-01    1    2    0
 0.132702981767464D+03 0.000000000000000D+00 0.000000000000000D+00 0.132702981767464D+03
 0.132702981767464D+03 0.000000000000000D+00 0.000000000000000D+00 -.132702981767464D+03
 0.132584783364345D+03 -.380395003184565D+02 -.146426689618689D+02 0.170971764032989D+02
 0.822426955975039D+02 0.558118967850658D+01 -.989037536178376D+01 0.129489699107187D+02
 0.505784845730786D+02 0.324583106399499D+02 0.245330443236527D+02 -.300461463140176D+02
 0.000000000000000D+00 0.000000000000000D+00 0.000000000000000D+00 0.000000000000000D+00
 0.181080585491283D+03 0.000000000000000D+00 0.000000000000000D+00 0.181080585491283D+03
 0.145338554718756D+03 0.000000000000000D+00 0.000000000000000D+00 -.145338554718756D+03
 0.141130564908168D+03 -.568513253972426D+02 -.277209255060114D+02 0.170971764032989D+02
 0.835825149374135D+02 -.581559487860192D+01 -.178135870433696D+02 0.129489699107187D+02
 0.444382445812821D+02 0.259280298219717D+02 0.199930973761806D+02 -.300461463140176D+02
 0.572678157831757D+02 0.367388904538728D+02 0.255414151732003D+02 0.357420307725273D+02
0.140899978184D-05 0.000000000000D+00 0.000000000000D+00 0.918270514836D-06 0.473137218631D-08  6 1 21 25 -24 2 21 4 0.27490559D+00 0.22659089D-02 0.22522602D+05 0.22522602D+05 0.22522602D+05 0.12281867D+01  1  2  1  1  6  1        1 0.171656658638D-01 0.100000000000D+01
  </mgrwgt>
  </event>
  <event>
  5     66 -.42980143E-03 0.41212586E+02 0.75467711E-02 0.11949624E+00
        1 -1    0    0  502    0 0.00000000E+00 0.00000000E+00 0.25836230E+02 0.25838212E+02 0.32000000E+00 0.0000E+00 0.9000E+01
       21 -1    0    0  501  502 0.00000000E+00 0.00000000E+00 -.12130205E+04 0.12130207E+04 0.75000000E+00 0.0000E+00 0.9000E+01
       25  1    1    2    0    0 0.20108546E+02 -.12956756E+02 -.33713979E+03 0.36036158E+03 0.12500000E+03 0.0000E+00 0.9000E+01
      -24  1    1    2    0    0 -.10862887E+02 -.27205231E+02 -.12057029E+03 0.14785986E+03 0.80419002E+02 0.0000E+00 0.9000E+01
        2  1    1    2  501    0 -.92456588E+01 0.40161987E+02 -.72947415E+03 0.73063747E+03 0.32000000E+00 0.0000E+00 0.9000E+01
#aMCatNLO 1  0  0  1  2 0.44744943D+02 0.00000000D+00  -5  6  0 0.00000000D+00 0.00000000D+00 0.00000000D+00 0.00000000D+00 0.00000000D+00
  <mgrwgt>
 -.3770711980D+00    5    2    0
 0.177034593747875D+03 0.000000000000000D+00 0.000000000000000D+00 0.177034593747875D+03
 0.177034593747875D+03 0.000000000000000D+00 0.000000000000000D+00 -.177034593747875D+03
 0.130455087765040D+03 0.201085604767499D+02 -.129568177801017D+02 0.286582726686463D+02
 0.113080699138827D+03 -.108628750239770D+02 -.272052852186169D+02 0.739046613262147D+02
 0.110533400591882D+03 -.924568545277289D+01 0.401621029987186D+02 -.102562933994861D+03
 0.000000000000000D+00 0.000000000000000D+00 -.000000000000000D+00 0.000000000000000D+00
 0.455546464385530D+03 0.000000000000000D+00 0.000000000000000D+00 0.455546464385530D+03
 0.180255867996385D+03 0.000000000000000D+00 0.000000000000000D+00 -.180255867996385D+03
 0.129373231985394D+03 0.167838673670334D+02 0.307219110766390D+01 0.286582726686463D+02
 0.110891118070404D+03 -.137287579968625D+02 -.133882915510135D+02 0.739046613262147D+02
 0.116626982220163D+03 -.121523684512281D+02 0.541758017307885D+02 -.102562933994861D+03
 0.278911000105952D+03 0.909725908105727D+01 -.438597012874389D+02 0.275290596389145D+03
0.212992956611D-04 0.000000000000D+00 0.000000000000D+00 0.230181863564D-05 0.000000000000D+00  6 1 21 25 -24 2 21 2 0.39749750D-02 0.18661870D+00 0.16137786D+05 0.16137786D+05 0.16137786D+05 0.12442189D+01  1  2  2  1  6  1        1 0.134298033812D-01 0.100000000000D+01
0.148493945706D-05 0.112399471205D-05 -.429971413406D-07 0.230181863564D-05 0.000000000000D+00  6 1 21 25 -24 2 21 4 0.39749750D-02 0.18661870D+00 0.16137786D+05 0.16137786D+05 0.16137786D+05 0.12442189D+01  1  2  3  1  6  1        1 0.144946162639D-02 0.100000000000D+01
0.212435155685D-05 0.000000000000D+00 0.000000000000D+00 0.230181863564D-05 0.000000000000D+00  6 1 21 25 -24 2 21 4 0.39749750D-02 0.18661870D+00 0.16137786D+05 0.16137786D+05 0.16137786D+05 0.12442189D+01  1  2 15  1  6  1        1 0.207359703991D-02 0.100000000000D+01
-.658018433926D-03 0.000000000000D+00 -.226069260927D-04 0.230181863564D-05 0.000000000000D+00  6 1 21 25 -24 2 21 4 0.10362994D-01 0.18661870D+00 0.16137786D+05 0.16137786D+05 0.16137786D+05 0.12442189D+01  1  2  5  1  6  1        1 -.176154397363D+00 0.100000000000D+01
-.685350360389D-04 0.000000000000D+00 -.240127961064D-05 0.230181863564D-05 0.000000000000D+00  6 21 21 25 -24 2 -1 4 0.10362994D-01 0.18661870D+00 0.16137786D+05 0.16137786D+05 0.16137786D+05 0.12442189D+01  1  2  5  4  6  1        1 -.217869662649D+00 0.100000000000D+01
  </mgrwgt>
  </event>
  <event>
  5     66 0.42980143E-03 0.29554999E+02 0.75467711E-02 0.12446141E+00
        1 -1    0    0  502    0 0.00000000E+00 0.00000000E+00 0.20219992E+04 0.20219993E+04 0.32000000E+00 0.0000E+00 0.9000E+01
       21 -1    0    0  501  502 0.00000000E+00 0.00000000E+00 -.16013948E+02 0.16031501E+02 0.75000000E+00 0.0000E+00 0.9000E+01
       25  1    1    2    0    0 0.18930843E+02 0.84434747E+01 0.13200003E+04 0.13260677E+04 0.12500000E+03 0.0000E+00 0.9000E+01
      -24  1    1    2    0    0 -.15609192E+01 0.15468438E+02 0.67573278E+03 0.68067886E+03 0.80419002E+02 0.0000E+00 0.9000E+01
        2  1    1    2  501    0 -.17369924E+02 -.23911913E+02 0.10252229E+02 0.31284252E+02 0.32000000E+00 0.0000E+00 0.9000E+01
#aMCatNLO 1  0  0  5  2 0.17125322D+02 0.00000000D+00  -5  6  0 0.00000000D+00 0.00000000D+00 0.00000000D+00 0.00000000D+00 0.00000000D+00
  <mgrwgt>
 0.1636212847D+00    3    2    0
 0.179994730851575D+03 0.000000000000000D+00 0.000000000000000D+00 0.179994730851575D+03
 0.179994730851575D+03 -.000000000000000D+00 -.000000000000000D+00 -.179994730851575D+03
 0.151853209782708D+03 0.189308688193076D+02 0.844351060382028D+01 0.836942450574735D+02
 0.881538638592099D+02 -.156090406061008D+01 0.154684587138263D+02 0.325910742760927D+02
 0.119982388061231D+03 -.173699647586976D+02 -.239119693176466D+02 -.116285319333566D+03
 0.000000000000000D+00 0.000000000000000D+00 0.000000000000000D+00 0.000000000000000D+00
 0.179994730851575D+03 0.000000000000000D+00 0.000000000000000D+00 0.179994730851575D+03
 0.179994730851575D+03 -.000000000000000D+00 -.000000000000000D+00 -.179994730851575D+03
 0.138596216481731D+03 0.150708861583795D+02 0.312975273286400D+01 0.578531266335971D+02
 0.832747523891975D+02 -.383913712450779D+01 0.123321806684093D+02 0.173391688731771D+02
 0.320513297608679D+02 -.114134270358592D+02 -.128354068107429D+01 0.299227997696913D+02
 0.106067163071353D+03 0.181678001987498D+00 -.141783927201990D+02 -.105115095276466D+03
0.224841125790D-04 0.000000000000D+00 0.000000000000D+00 0.628280647741D-05 0.000000000000D+00  6 1 21 25 -24 2 21 2 0.31107816D+00 0.24650365D-02 0.14181244D+05 0.14181244D+05 0.14181244D+05 0.12506111D+01  1  2  2  3  6  5        2 0.117148150338D+00 0.100000000000D+01
0.338389492666D-05 0.118651921857D-05 -.453889453370D-07 0.628280647741D-05 0.000000000000D+00  6 1 21 25 -24 2 21 4 0.31107816D+00 0.24650365D-02 0.14181244D+05 0.14181244D+05 0.14181244D+05 0.12506111D+01  1  2  3  3  6  5        2 0.275753567993D-01 0.100000000000D+01
0.231903049949D-05 0.000000000000D+00 0.000000000000D+00 0.628280647741D-05 0.000000000000D+00  6 1 21 25 -24 2 21 4 0.31107816D+00 0.24650365D-02 0.14181244D+05 0.14181244D+05 0.14181244D+05 0.12506111D+01  1  2 15  3  6  5        2 0.188977775132D-01 0.100000000000D+01
  </mgrwgt>
  </event>
  <event>
  5     66 0.42980143E-03 0.89774732E+02 0.75467711E-02 0.11322787E+00
        1 -1    0    0  502    0 0.00000000E+00 0.00000000E+00 0.19242963E+03 0.19242990E+03 0.32000000E+00 0.0000E+00 0.9000E+01
       21 -1    0    0  501  502 0.00000000E+00 0.00000000E+00 -.34137178E+03 0.34137260E+03 0.75000000E+00 0.0000E+00 0.9000E+01
       25  1    1    2    0    0 -.14543627E+03 0.58332159E+02 -.73192519E+02 0.21339282E+03 0.12500000E+03 0.0000E+00 0.9000E+01
      -24  1    1    2    0    0 0.53336134E+02 -.33091599E+02 0.85431664E+02 0.13306232E+03 0.80419002E+02 0.0000E+00 0.9000E+01
        2  1    1    2  501    0 0.92100136E+02 -.25240560E+02 -.16118129E+03 0.18734735E+03 0.32000000E+00 0.0000E+00 0.9000E+01
#aMCatNLO 1  0  0  1  2 0.40115739D+02 0.00000000D+00  -5  6  0 0.00000000D+00 0.00000000D+00 0.00000000D+00 0.00000000D+00 0.00000000D+00
  <mgrwgt>
 0.6723967336D-01    9    2    0
 0.256301259690416D+03 0.000000000000000D+00 0.000000000000000D+00 0.256301259690416D+03
 0.256301259690416D+03 0.000000000000000D+00 0.000000000000000D+00 -.256301259690416D+03
 0.200951409003943D+03 -.145436354402697D+03 0.583321818024015D+02 -.142159123834708D+02
 0.163388577865880D+03 0.533360655791049D+02 -.330915803193625D+02 0.127627672717060D+03
 0.148262532511010D+03 0.921002888235925D+02 -.252406014830390D+02 -.113411760333589D+03
 0.000000000000000D+00 -.000000000000000D+00 -.000000000000000D+00 0.000000000000000D+00
 0.280428382633157D+03 0.000000000000000D+00 0.000000000000000D+00 0.280428382633157D+03
 0.274319636077652D+03 0.000000000000000D+00 0.000000000000000D+00 -.274319636077652D+03
 0.193726048666407D+03 -.131872903122769D+03 0.656675505023390D+02 -.142159123834708D+02
 0.166327694587080D+03 0.646670664019349D+02 -.269635626740486D+02 0.127627672717060D+03
 0.154116088015484D+03 0.102491806271312D+03 -.196206740576603D+02 -.113411760333589D+03
 0.405781874418378D+02 -.352859695504774D+02 -.190833137706301D+02 0.610874655550437D+01
0.176097772242D-04 0.000000000000D+00 0.000000000000D+00 0.213872845537D-06 0.000000000000D+00  6 1 21 25 -24 2 21 2 0.29604642D-01 0.52518818D-01 0.39592843D+05 0.39592843D+05 0.39592843D+05 0.12024517D+01  1  2  2  1  6  1        1 0.145908981198D-01 0.100000000000D+01
-.347102926226D-06 0.929293475015D-06 -.355490666139D-07 0.213872845537D-06 0.000000000000D+00  6 1 21 25 -24 2 21 4 0.29604642D-01 0.52518818D-01 0.39592843D+05 0.39592843D+05 0.39592843D+05 0.12024517D+01  1  2  3  1  6  1        1 -.415835676365D-03 0.100000000000D+01
0.174238583977D-05 0.000000000000D+00 0.000000000000D+00 0.213872845537D-06 0.000000000000D+00  6 1 21 25 -24 2 21 4 0.29604642D-01 0.52518818D-01 0.39592843D+05 0.39592843D+05 0.39592843D+05 0.12024517D+01  1  2 15  1  6  1        1 0.208741021589D-02 0.100000000000D+01
0.743821806101D-04 0.000000000000D+00 0.000000000000D+00 0.210466778970D-06 0.000000000000D+00  6 1 21 25 -24 2 21 4 0.33347387D-01 0.52518818D-01 0.49357545D+05 0.49357545D+05 0.49357545D+05 0.11928384D+01  1  2 12  1  6  1        1 0.738301053668D-01 0.100000000000D+01
-.466974484537D-04 0.000000000000D+00 0.000000000000D+00 0.213872845537D-06 0.000000000000D+00  6 1 21 25 -24 2 21 4 0.29604642D-01 0.52518818D-01 0.39592843D+05 0.39592843D+05 0.39592843D+05 0.12024517D+01  1  2  4  1  6  1        1 -.559444003351D-01 0.100000000000D+01
-.197922114592D-03 0.000000000000D+00 -.534711130783D-04 0.213872845537D-06 0.000000000000D+00  6 1 21 25 -24 2 21 4 0.34505896D-01 0.52518818D-01 0.39592843D+05 0.39592843D+05 0.39592843D+05 0.12024517D+01  1  2  5  1  6  1        1 -.195631721570D+00 0.100000000000D+01
0.204332708444D-03 0.000000000000D+00 0.528497094893D-04 0.213872845537D-06 0.000000000000D+00  6 1 21 25 -24 2 21 4 0.29604642D-01 0.52518818D-01 0.39592843D+05 0.39592843D+05 0.39592843D+05 0.12024517D+01  1  2  6  1  6  1        1 0.244794335050D+00 0.100000000000D+01
0.140188615622D-05 0.000000000000D+00 0.000000000000D+00 0.210466778970D-06 0.000000000000D+00  6 21 21 25 -24 2 -1 4 0.33347387D-01 0.52518818D-01 0.49357545D+05 0.49357545D+05 0.49357545D+05 0.11928384D+01  1  2 12  4  6  1        1 0.831759008443D-02 0.100000000000D+01
-.420699640092D-05 0.000000000000D+00 -.124070241876D-05 0.213872845537D-06 0.000000000000D+00  6 21 21 25 -24 2 -1 4 0.34505896D-01 0.52518818D-01 0.39592843D+05 0.39592843D+05 0.39592843D+05 0.12024517D+01  1  2  5  4  6  1        1 -.243887078908D-01 0.100000000000D+01
  </mgrwgt>
  </event>
  <event>
  6     66 -.42980143E-03 0.35115340E+02 0.75467711E-02 0.12337621E+00
        1 -1    0    0  502    0 0.00000000E+00 0.00000000E+00 0.33149865E+02 0.33151410E+02 0.32000000E+00 0.0000E+00 0.9000E+01
       21 -1    0    0  503  502 0.00000000E+00 0.00000000E+00 -.14092926E+04 0.14092928E+04 0.75000000E+00 0.0000E+00 0.9000E+01
       25  1    1    2    0    0 -.90203146E+01 -.12779365E+02 -.13048306E+03 0.18137119E+03 0.12500000E+03 0.0000E+00 0.9000E+01
      -24  1    1    2    0    0 -.24291400E+02 -.19429905E+01 -.23860151E+03 0.25296589E+03 0.80419002E+02 0.0000E+00 0.9000E+01
        2  1    1    2  501    0 0.32138554E+02 0.18935344E+02 -.97809138E+03 0.97880248E+03 0.32000000E+00 0.0000E+00 0.9000E+01
       21  1    1    2  503  501 0.11731605E+01 -.42129886E+01 -.28966766E+02 0.29304634E+02 0.75000000E+00 0.0000E+00 0.9000E+01
#aMCatNLO 2  0  0  2  1 0.43732800D+01 0.00000000D+00  -5  6  0 0.00000000D+00 0.00000000D+00 0.00000000D+00 0.00000000D+00 0.00000000D+00
  <mgrwgt>
 -.1619783324D-01    3    2    0
 0.213343173234314D+03 0.000000000000000D+00 0.000000000000000D+00 0.213343173234314D+03
 0.213343173234314D+03 0.000000000000000D+00 0.000000000000000D+00 -.213343173234314D+03
 0.188809560331275D+03 -.850138702334422D+01 -.146430376713480D+02 0.140489707590713D+03
 0.844123299924831D+02 -.240592714200461D+02 -.277665423554661D+01 0.846564530216708D+01
 0.153464456144870D+03 0.325606584433904D+02 0.174196919068946D+02 -.148955352892880D+03
 0.000000000000000D+00 0.000000000000000D+00 -.000000000000000D+00 -.000000000000000D+00
 0.214422027095457D+03 0.000000000000000D+00 0.000000000000000D+00 0.214422027095457D+03
 0.217832814869448D+03 0.000000000000000D+00 0.000000000000000D+00 -.217832814869448D+03
 0.188698270112937D+03 -.902034626238861D+01 -.127793801883221D+02 0.140489707590713D+03
 0.844554978909839D+02 -.242914136761534D+02 -.194299790924725D+01 0.846564530216708D+01
 0.153554989629339D+03 0.321385994419563D+02 0.189353666595966D+02 -.148955352892880D+03
 0.554608433164592D+01 0.117316049658569D+01 -.421298856202730D+01 -.341078777399099D+01
-.259849041969D-04 0.000000000000D+00 0.000000000000D+00 0.449299037964D-05 0.000000000000D+00  6 1 21 25 -24 2 21 4 0.50738570D-02 0.21731865D+00 0.15835745D+05 0.15835745D+05 0.15835745D+05 0.12451470D+01  1  2 13  2  6  2       21 -.117147210406D-01 0.100000000000D+01
-.972053522584D-04 0.000000000000D+00 0.000000000000D+00 0.450619488075D-05 0.000000000000D+00  6 1 21 25 -24 2 21 4 0.50738570D-02 0.21232081D+00 0.15259146D+05 0.15259146D+05 0.15259146D+05 0.12469754D+01  1  2  8  2  6  2       21 -.473511866450D-01 0.100000000000D+01
0.950418895075D-04 0.000000000000D+00 0.000000000000D+00 0.450619488075D-05 0.206764988474D-05  6 1 21 25 -24 2 21 4 0.50995150D-02 0.21678894D+00 0.15835745D+05 0.15835745D+05 0.15835745D+05 0.12451470D+01  1  2  1  2  6  2       21 0.428680744436D-01 0.100000000000D+01
  </mgrwgt>
  </event>
  <event>
  5     66 0.42980143E-03 0.47417789E+02 0.75467711E-02 0.11747902E+00
        1 -1    0    0  502    0 0.00000000E+00 0.00000000E+00 0.44423347E+03 0.44423359E+03 0.32000000E+00 0.0000E+00 0.9000E+01
       21 -1    0    0  501  502 0.00000000E+00 0.00000000E+00 -.17088953E+03 0.17089117E+03 0.75000000E+00 0.0000E+00 0.9000E+01
       25  1    1    2    0    0 0.94518296E+02 0.60593434E+02 0.19162821E+03 0.25485612E+03 0.12500000E+03 0.0000E+00 0.9000E+01
      -24  1    1    2    0    0 -.75787349E+02 -.17032042E+02 0.20205327E+03 0.23092542E+03 0.80419002E+02 0.0000E+00 0.9000E+01
        2  1    1    2  501    0 -.18730947E+02 -.43561391E+02 -.12033753E+03 0.12934321E+03 0.32000000E+00 0.0000E+00 0.9000E+01
#aMCatNLO 1  0  0  2  1 0.16487852D+02 0.00000000D+00  -5  6  0 0.00000000D+00 0.00000000D+00 0.00000000D+00 0.00000000D+00 0.00000000D+00
  <mgrwgt>
 0.5238590382D-01   23    2    0
 0.275527474366997D+03 0.000000000000000D+00 0.000000000000000D+00 0.275527474366997D+03
 0.275527474366997D+03 0.000000000000000D+00 0.000000000000000D+00 -.275527474366997D+03
 0.189432881127102D+03 0.945183035914659D+02 0.605934519696853D+02 0.874902298357011D+02
 0.157548594941235D+03 -.757873423189043D+02 -.170320267763990D+02 0.110997894672431D+03
 0.204073472665656D+03 -.187309612725615D+02 -.435614251932864D+02 -.198488124508132D+03
 0.000000000000000D+00 0.000000000000000D+00 -.000000000000000D+00 -.000000000000000D+00
 0.276487484088975D+03 0.000000000000000D+00 0.000000000000000D+00 0.276487484088975D+03
 0.356876817063010D+03 0.000000000000000D+00 0.000000000000000D+00 -.356876817063010D+03
 0.187032486571880D+03 0.889667766128972D+02 0.615347330835805D+02 0.874902298357011D+02
 0.159769599395835D+03 -.804666585795742D+02 -.162386320871334D+02 0.110997894672431D+03
 0.204499470160230D+03 -.247559609389976D+02 -.425398651037589D+02 -.198488124508132D+03
 0.820627450240394D+02 0.162558429056746D+02 -.275623589268816D+01 -.803893329740357D+02
0.405022058973D-05 0.000000000000D+00 0.000000000000D+00 0.286970169987D-05 0.000000000000D+00  6 1 21 25 -24 2 21 2 0.68343747D-01 0.26290832D-01 0.26772234D+05 0.26772234D+05 0.26772234D+05 0.12201214D+01  1  2  2  2  6  2       21 0.486611150769D-02 0.100000000000D+01
0.568415567912D-06 0.213736012585D-06 -.817622845039D-08 0.286970169987D-05 0.000000000000D+00  6 1 21 25 -24 2 21 4 0.68343747D-01 0.26290832D-01 0.26772234D+05 0.26772234D+05 0.26772234D+05 0.12201214D+01  1  2  3  2  6  2       21 0.101665936087D-02 0.100000000000D+01
0.331318247685D-06 0.000000000000D+00 0.000000000000D+00 0.286970169987D-05 0.000000000000D+00  6 1 21 25 -24 2 21 4 0.68343747D-01 0.26290832D-01 0.26772234D+05 0.26772234D+05 0.26772234D+05 0.12201214D+01  1  2 15  2  6  2       21 0.592590732823D-03 0.100000000000D+01
0.119023765152D-03 0.000000000000D+00 0.000000000000D+00 0.284577666800D-05 0.000000000000D+00  6 1 21 25 -24 2 21 4 0.68343747D-01 0.34089581D-01 0.29917031D+05 0.29917031D+05 0.29917031D+05 0.12150247D+01  1  2 12  2  6  2       21 0.126048691997D+00 0.100000000000D+01
-.992598291143D-04 0.000000000000D+00 0.000000000000D+00 0.286970169987D-05 0.000000000000D+00  6 1 21 25 -24 2 21 4 0.68343747D-01 0.26290832D-01 0.26772234D+05 0.26772234D+05 0.26772234D+05 0.12201214D+01  1  2  4  2  6  2       21 -.177534606940D+00 0.100000000000D+01
-.243796006080D-03 0.000000000000D+00 -.600102394241D-05 0.286970169987D-05 0.000000000000D+00  6 1 21 25 -24 2 21 4 0.68343747D-01 0.34111113D-01 0.26772234D+05 0.26772234D+05 0.26772234D+05 0.12201214D+01  1  2  5  2  6  2       21 -.263058398994D+00 0.100000000000D+01
0.206772038604D-03 0.000000000000D+00 0.525926804090D-05 0.286970169987D-05 0.000000000000D+00  6 1 21 25 -24 2 21 4 0.68343747D-01 0.26290832D-01 0.26772234D+05 0.26772234D+05 0.26772234D+05 0.12201214D+01  1  2  6  2  6  2       21 0.369829294763D+00 0.100000000000D+01
0.109165117837D-04 0.000000000000D+00 0.000000000000D+00 0.284577666800D-05 0.000000000000D+00  6 1 -1 25 -24 2 -1 4 0.68343747D-01 0.34089581D-01 0.29917031D+05 0.29917031D+05 0.29917031D+05 0.12150247D+01  1  2 12  5  6  2       21 0.104186711028D-02 0.100000000000D+01
-.224621885408D-04 0.000000000000D+00 -.474754525536D-06 0.286970169987D-05 0.000000000000D+00  6 1 -1 25 -24 2 -1 4 0.68343747D-01 0.34111113D-01 0.26772234D+05 0.26772234D+05 0.26772234D+05 0.12201214D+01  1  2  5  5  6  2       21 -.217897565729D-02 0.100000000000D+01
0.109165117837D-04 0.000000000000D+00 0.000000000000D+00 0.284577666800D-05 0.000000000000D+00  6 1 1 25 -24 2 1 4 0.68343747D-01 0.34089581D-01 0.29917031D+05 0.29917031D+05 0.29917031D+05 0.12150247D+01  1  2 12  6  6  2       21 0.194048900177D-02 0.100000000000D+01
-.224621885408D-04 0.000000000000D+00 -.474754525536D-06 0.286970169987D-05 0.000000000000D+00  6 1 1 25 -24 2 1 4 0.68343747D-01 0.34111113D-01 0.26772234D+05 0.26772234D+05 0.26772234D+05 0.12201214D+01  1  2  5  6  6  2       21 -.405931388757D-02 0.100000000000D+01
0.109165117837D-04 0.000000000000D+00 0.000000000000D+00 0.284577666800D-05 0.000000000000D+00  6 1 -2 25 -24 2 -2 4 0.68343747D-01 0.34089581D-01 0.29917031D+05 0.29917031D+05 0.29917031D+05 0.12150247D+01  1  2 12  7  6  2       21 0.900612732270D-03 0.100000000000D+01
-.224621885408D-04 0.000000000000D+00 -.474754525536D-06 0.286970169987D-05 0.000000000000D+00  6 1 -2 25 -24 2 -2 4 0.68343747D-01 0.34111113D-01 0.26772234D+05 0.26772234D+05 0.26772234D+05 0.12201214D+01  1  2  5  7  6  2       21 -.188301599058D-02 0.100000000000D+01
0.109165117837D-04 0.000000000000D+00 0.000000000000D+00 0.284577666800D-05 0.000000000000D+00  6 1 2 25 -24 2 2 4 0.68343747D-01 0.34089581D-01 0.29917031D+05 0.29917031D+05 0.29917031D+05 0.12150247D+01  1  2 12  8  6  2       21 0.260489093886D-02 0.100000000000D+01
-.224621885408D-04 0.000000000000D+00 -.474754525536D-06 0.286970169987D-05 0.000000000000D+00  6 1 2 25 -24 2 2 4 0.68343747D-01 0.34111113D-01 0.26772234D+05 0.26772234D+05 0.26772234D+05 0.12201214D+01  1  2  5  8  6  2       21 -.544831441450D-02 0.100000000000D+01
0.109165117837D-04 0.000000000000D+00 0.000000000000D+00 0.284577666800D-05 0.000000000000D+00  6 1 -3 25 -24 2 -3 4 0.68343747D-01 0.34089581D-01 0.29917031D+05 0.29917031D+05 0.29917031D+05 0.12150247D+01  1  2 12  9  6  2       21 0.574868635018D-03 0.100000000000D+01
0.109165117837D-04 0.000000000000D+00 0.000000000000D+00 0.284577666800D-05 0.000000000000D+00  6 1 -4 25 -24 2 -4 4 0.68343747D-01 0.34089581D-01 0.29917031D+05 0.29917031D+05 0.29917031D+05 0.12150247D+01  1  2 12  9  6  2       21 0.481858337412D-03 0.100000000000D+01
-.224621885408D-04 0.000000000000D+00 -.474754525536D-06 0.286970169987D-05 0.000000000000D+00  6 1 -3 25 -24 2 -3 4 0.68343747D-01 0.34111113D-01 0.26772234D+05 0.26772234D+05 0.26772234D+05 0.12201214D+01  1  2  5  9  6  2       21 -.119911572965D-02 0.100000000000D+01
-.224621885408D-04 0.000000000000D+00 -.474754525536D-06 0.286970169987D-05 0.000000000000D+00  6 1 -4 25 -24 2 -4 4 0.68343747D-01 0.34111113D-01 0.26772234D+05 0.26772234D+05 0.26772234D+05 0.12201214D+01  1  2  5  9  6  2       21 -.100392265344D-02 0.100000000000D+01
0.109165117837D-04 0.000000000000D+00 0.000000000000D+00 0.284577666800D-05 0.000000000000D+00  6 1 3 25 -24 2 3 4 0.68343747D-01 0.34089581D-01 0.29917031D+05 0.29917031D+05 0.29917031D+05 0.12150247D+01  1  2 12 10  6  2       21 0.574921765685D-03 0.100000000000D+01
0.109165117837D-04 0.000000000000D+00 0.000000000000D+00 0.284577666800D-05 0.000000000000D+00  6 1 4 25 -24 2 4 4 0.68343747D-01 0.34089581D-01 0.29917031D+05 0.29917031D+05 0.29917031D+05 0.12150247D+01  1  2 12 10  6  2       21 0.481858337412D-03 0.100000000000D+01
-.224621885408D-04 0.000000000000D+00 -.474754525536D-06 0.286970169987D-05 0.000000000000D+00  6 1 3 25 -24 2 3 4 0.68343747D-01 0.34111113D-01 0.26772234D+05 0.26772234D+05 0.26772234D+05 0.12201214D+01  1  2  5 10  6  2       21 -.119922448196D-02 0.100000000000D+01
-.224621885408D-04 0.000000000000D+00 -.474754525536D-06 0.286970169987D-05 0.000000000000D+00  6 1 4 25 -24 2 4 4 0.68343747D-01 0.34111113D-01 0.26772234D+05 0.26772234D+05 0.26772234D+05 0.12201214D+01  1  2  5 10  6  2       21 -.100392265344D-02 0.100000000000D+01
  </mgrwgt>
  </event>
  <event>
  6     66 -.42980143E-03 0.13971813E+02 0.75467711E-02 0.11909961E+00
        3 -1    0    0  502    0 0.00000000E+00 0.00000000E+00 0.30239074E+03 0.30239115E+03 0.50000000E+00 0.0000E+00 0.9000E+01
       21 -1    0    0  501  502 0.00000000E+00 0.00000000E+00 -.10786626E+03 0.10786887E+03 0.75000000E+00 0.0000E+00 0.9000E+01
       25  1    1    2    0    0 0.58829724E+02 0.70389097E+02 0.17756314E+02 0.15606360E+03 0.12500000E+03 0.0000E+00 0.9000E+01
      -24  1    1    2    0    0 -.59361395E+02 -.91397686E+02 0.10080291E+03 0.16883647E+03 0.80419002E+02 0.0000E+00 0.9000E+01
        4  1    1    2  503    0 0.66381311E+01 0.16776232E+02 0.75755237E+02 0.77889442E+02 0.15500000E+01 0.0000E+00 0.9000E+01
       21  1    1    2  501  503 -.61064598E+01 0.42323565E+01 0.21001460E+00 0.74704952E+01 0.75000000E+00 0.0000E+00 0.9000E+01
#aMCatNLO 2  0  0  5  2 0.85228676D+01 0.00000000D+00  -5  6  0 0.00000000D+00 0.00000000D+00 0.00000000D+00 0.00000000D+00 0.00000000D+00
  <mgrwgt>
 -.6239538680D-01    2    2    0
 0.180605583749115D+03 0.000000000000000D+00 0.000000000000000D+00 0.180605583749115D+03
 0.180605583749115D+03 -.000000000000000D+00 -.000000000000000D+00 -.180605583749115D+03
 0.168463764447879D+03 0.587712874963061D+02 0.680800319856331D+02 -.683087471910601D+02
 0.138192915074343D+03 -.594093165883499D+02 -.932912662339403D+02 0.199333531887457D+02
 0.545544879760086D+02 0.638029092043889D+00 0.252112342483071D+02 0.483753940023144D+02
 0.000000000000000D+00 0.000000000000000D+00 0.000000000000000D+00 -.000000000000000D+00
 0.180605583749115D+03 0.000000000000000D+00 0.000000000000000D+00 0.180605583749115D+03
 0.180605583749115D+03 -.000000000000000D+00 -.000000000000000D+00 -.180605583749115D+03
 0.167672882467638D+03 0.588314210342194D+02 0.704561629950467D+02 -.637494196845452D+02
 0.137457963175171D+03 -.593600037190446D+02 -.913427057137142D+02 0.236722571224006D+02
 0.474325822839870D+02 0.686909565237010D+01 0.164619932241281D+02 0.439507470486515D+02
 0.864773957143372D+01 -.634051296754489D+01 0.442454949453940D+01 -.387358448650690D+01
-.104553928909D-04 0.000000000000D+00 0.000000000000D+00 0.139830999553D-06 0.000000000000D+00  6 3 21 25 -24 4 21 4 0.46521884D-01 0.16595041D-01 0.24972672D+05 0.24972672D+05 0.24972672D+05 0.12233486D+01  1  2 13  3  6  5        4 -.172780903475D-01 0.100000000000D+01
-.272994777470D-04 0.000000000000D+00 0.000000000000D+00 0.139837365293D-06 0.000000000000D+00  6 3 21 25 -24 4 21 4 0.46521884D-01 0.16595041D-01 0.24957744D+05 0.24957744D+05 0.24957744D+05 0.12233764D+01  1  2  8  3  6  5        4 -.451172964561D-01 0.100000000000D+01
  </mgrwgt>
  </event>
  <event>
  6     66 -.42980143E-03 0.26829846E+02 0.75467711E-02 0.12313874E+00
        1 -1    0    0  502    0 0.00000000E+00 0.00000000E+00 0.92515873E+03 0.92515879E+03 0.32000000E+00 0.0000E+00 0.9000E+01
       21 -1    0    0  503  502 0.00000000E+00 0.00000000E+00 -.11490841E+03 0.11491086E+03 0.75000000E+00 0.0000E+00 0.9000E+01
       25  1    1    2    0    0 0.14063328E+02 0.20531010E+02 0.57774784E+03 0.59163913E+03 0.12500000E+03 0.0000E+00 0.9000E+01
      -24  1    1    2    0    0 0.17353985E+02 -.37952602E+02 0.31326049E+03 0.32609954E+03 0.80419002E+02 0.0000E+00 0.9000E+01
        2  1    1    2  501    0 -.24837409E+02 0.17047320E+02 0.96850016E+01 0.31645058E+02 0.32000000E+00 0.0000E+00 0.9000E+01
       21  1    1    2  503  501 -.65799034E+01 0.37427211E+00 -.90443009E+02 0.90685917E+02 0.75000000E+00 0.0000E+00 0.9000E+01
#aMCatNLO 2  0  0  2  1 0.65905393D+01 0.00000000D+00  -5  6  0 0.00000000D+00 0.00000000D+00 0.00000000D+00 0.00000000D+00 0.00000000D+00
  <mgrwgt>
 -.2414613396D+00    3    2    0
 0.150031299130040D+03 0.000000000000000D+00 0.000000000000000D+00 0.150031299130040D+03
 0.150031299130040D+03 0.000000000000000D+00 0.000000000000000D+00 -.150031299130040D+03
 0.137418414432171D+03 0.110477070671625D+02 0.207024702386152D+02 0.520401433475084D+02
 0.910263163178090D+02 0.153537932107646D+02 -.378388761361681D+02 0.122904350944994D+02
 0.716178675101011D+02 -.264015002779271D+02 0.171364058975529D+02 -.643305784420079D+02
 0.000000000000000D+00 -.000000000000000D+00 0.000000000000000D+00 -.000000000000000D+00
 0.150086934663952D+03 0.000000000000000D+00 0.000000000000000D+00 0.150086934663952D+03
 0.708319262001862D+03 0.000000000000000D+00 0.000000000000000D+00 -.708319262001862D+03
 0.137667993050888D+03 0.140634506910972D+02 0.205309314374491D+02 0.520401433475084D+02
 0.914321513724558D+02 0.173540663816725D+02 -.379526538654880D+02 0.122904350944994D+02
 0.710348220209637D+02 -.248376137056073D+02 0.170474503160352D+02 -.643305784420079D+02
 0.558271230221507D+03 -.657990336716232D+01 0.374272112003722D+00 -.558232327337910D+03
-.588632028354D-03 0.000000000000D+00 0.000000000000D+00 0.215477260880D-05 0.000000000000D+00  6 1 21 25 -24 2 21 4 0.14227931D+00 0.17675264D-01 0.16227081D+05 0.16227081D+05 0.16227081D+05 0.12439482D+01  1  2 13  2  6  2       21 -.859141337820D+00 0.100000000000D+01
-.588421726281D-03 0.000000000000D+00 0.000000000000D+00 0.215477260880D-05 0.000000000000D+00  6 1 21 25 -24 2 21 4 0.14227931D+00 0.17721180D-01 0.16227081D+05 0.16227081D+05 0.16227081D+05 0.12439482D+01  1  2 13  2  6  2       21 -.854773003160D+00 0.100000000000D+01
0.100976426744D-02 0.000000000000D+00 0.000000000000D+00 0.216279041591D-05 0.729264521179D-05  6 1 21 25 -24 2 21 4 0.14233207D+00 0.17678380D-01 0.16227081D+05 0.16227081D+05 0.16227081D+05 0.12439482D+01  1  2  1  2  6  2       21 0.147245300140D+01 0.100000000000D+01
  </mgrwgt>
  </event>
  <event>
  5     66 0.42980143E-03 0.65553476E+02 0.75467711E-02 0.11778043E+00
        1 -1    0    0  502    0 0.00000000E+00 0.00000000E+00 0.12191343E+04 0.12191343E+04 0.32000000E+00 0.0000E+00 0.9000E+01
       21 -1    0    0  501  502 0.00000000E+00 0.00000000E+00 -.23540391E+02 0.23552335E+02 0.75000000E+00 0.0000E+00 0.9000E+01
       25  1    1    2    0    0 -.94669328E+02 -.35989140E+02 0.54234497E+03 0.56570361E+03 0.12500000E+03 0.0000E+00 0.9000E+01
      -24  1    1    2    0    0 0.40341164E+02 -.69397160E+00 0.52805217E+03 0.53566240E+03 0.80419002E+02 0.0000E+00 0.9000E+01
        2  1    1    2  501    0 0.54328163E+02 0.36683112E+02 0.12519674E+03 0.14132065E+03 0.32000000E+00 0.0000E+00 0.9000E+01
#aMCatNLO 1  0  0  1  2 0.23886699D+02 0.00000000D+00  -5  6  0 0.00000000D+00 0.00000000D+00 0.00000000D+00 0.00000000D+00 0.00000000D+00
  <mgrwgt>
 0.1881156374D+00    9    2    0
 0.169429468457684D+03 0.000000000000000D+00 0.000000000000000D+00 0.169429468457684D+03
 0.169429468457684D+03 0.000000000000000D+00 0.000000000000000D+00 -.169429468457684D+03
 0.161034681726829D+03 -.946695534053727D+02 -.359892923339517D+02 -.704380679673933D+01
 0.101294540710792D+03 0.403410225022321D+02 -.694067466934186D+00 0.465348062987853D+02
 0.765297144777462D+02 0.543285309031406D+02 0.366833598008859D+02 -.394909995020460D+02
 0.000000000000000D+00 0.000000000000000D+00 0.000000000000000D+00 0.000000000000000D+00
 0.188820537733422D+03 0.000000000000000D+00 0.000000000000000D+00 0.188820537733422D+03
 0.177369077302583D+03 0.000000000000000D+00 0.000000000000000D+00 -.177369077302583D+03
 0.168299924795228D+03 -.103960961932598D+03 -.429228128847396D+02 -.704380679673933D+01
 0.992960789793097D+02 0.346818255719356D+02 -.491712558586118D+01 0.465348062987853D+02
 0.721037953543504D+02 0.501351827601392D+02 0.335541608811618D+02 -.394909995020460D+02
 0.264898159071172D+02 0.191439536005232D+02 0.142857775894390D+02 0.114514604308384D+02
0.202300968237D-05 0.000000000000D+00 0.000000000000D+00 0.334524331067D-06 0.000000000000D+00  6 1 21 25 -24 2 21 2 0.18756004D+00 0.36225206D-02 0.25028313D+05 0.25028313D+05 0.25028313D+05 0.12232449D+01  1  2  2  1  6  1        1 0.176190686851D-01 0.100000000000D+01
-.601513727443D-07 0.106757153926D-06 -.408387369378D-08 0.334524331067D-06 0.000000000000D+00  6 1 21 25 -24 2 21 4 0.18756004D+00 0.36225206D-02 0.25028313D+05 0.25028313D+05 0.25028313D+05 0.12232449D+01  1  2  3  1  6  1        1 -.783894088130D-03 0.100000000000D+01
0.205272258109D-06 0.000000000000D+00 0.000000000000D+00 0.334524331067D-06 0.000000000000D+00  6 1 21 25 -24 2 21 4 0.18756004D+00 0.36225206D-02 0.25028313D+05 0.25028313D+05 0.25028313D+05 0.12232449D+01  1  2 15  1  6  1        1 0.267511284028D-02 0.100000000000D+01
0.111660070336D-04 0.000000000000D+00 0.000000000000D+00 0.330890164024D-06 0.000000000000D+00  6 1 21 25 -24 2 21 4 0.21304814D+00 0.36225206D-02 0.28914192D+05 0.28914192D+05 0.28914192D+05 0.12165823D+01  1  2 12  1  6  1        1 0.109963241101D+00 0.100000000000D+01
-.247330723549D-05 0.000000000000D+00 0.000000000000D+00 0.334524331067D-06 0.000000000000D+00  6 1 21 25 -24 2 21 4 0.18756004D+00 0.36225206D-02 0.25028313D+05 0.25028313D+05 0.25028313D+05 0.12232449D+01  1  2  4  1  6  1        1 -.322321973975D-01 0.100000000000D+01
-.283106523391D-04 0.000000000000D+00 -.581674558299D-05 0.334524331067D-06 0.000000000000D+00  6 1 21 25 -24 2 21 4 0.21441287D+00 0.36225206D-02 0.25028313D+05 0.25028313D+05 0.25028313D+05 0.12232449D+01  1  2  5  1  6  1        1 -.281638631991D+00 0.100000000000D+01
0.288817138378D-04 0.000000000000D+00 0.576506078185D-05 0.334524331067D-06 0.000000000000D+00  6 1 21 25 -24 2 21 4 0.18756004D+00 0.36225206D-02 0.25028313D+05 0.25028313D+05 0.25028313D+05 0.12232449D+01  1  2  6  1  6  1        1 0.376387166237D+00 0.100000000000D+01
0.222767735064D-06 0.000000000000D+00 0.000000000000D+00 0.330890164024D-06 0.000000000000D+00  6 21 21 25 -24 2 -1 4 0.21304814D+00 0.36225206D-02 0.28914192D+05 0.28914192D+05 0.28914192D+05 0.12165823D+01  1  2 12  4  6  1        1 0.254668503038D-02 0.100000000000D+01
-.555352116351D-06 0.000000000000D+00 -.120849750212D-06 0.334524331067D-06 0.000000000000D+00  6 21 21 25 -24 2 -1 4 0.21441287D+00 0.36225206D-02 0.25028313D+05 0.25028313D+05 0.25028313D+05 0.12232449D+01  1  2  5  4  6  1        1 -.642091302398D-02 0.100000000000D+01
  </mgrwgt>
  </event>
  <event>
  5     66 0.42980143E-03 0.53333257E+02 0.75467711E-02 0.11714838E+00
        3 -1    0    0  502    0 0.00000000E+00 0.00000000E+00 0.17451628E+04 0.17451629E+04 0.50000000E+00 0.0000E+00 0.9000E+01
       21 -1    0    0  501  502 0.00000000E+00 0.00000000E+00 -.19525911E+02 0.19540310E+02 0.75000000E+00 0.0000E+00 0.9000E+01
       25  1    1    2    0    0 0.10070101E+03 -.89106660E+02 0.64511567E+03 0.67073088E+03 0.12500000E+03 0.0000E+00 0.9000E+01
      -24  1    1    2    0    0 -.70061792E+02 0.45470612E+02 0.66364978E+03 0.67370207E+03 0.80419002E+02 0.0000E+00 0.9000E+01
        4  1    1    2  501    0 -.30639215E+02 0.43636049E+02 0.41687144E+03 0.42027023E+03 0.15500000E+01 0.0000E+00 0.9000E+01
#aMCatNLO 1  0  0  5  1 0.55192535D+00 0.00000000D+00  -5  6  0 0.00000000D+00 0.00000000D+00 0.00000000D+00 0.00000000D+00 0.00000000D+00
  <mgrwgt>
 0.3163571655D-02    7    2    0
 0.184631148304210D+03 0.000000000000000D+00 0.000000000000000D+00 0.184631148304210D+03
 0.184631148304210D+03 -.000000000000000D+00 -.000000000000000D+00 -.184631148304210D+03
 0.190672880204223D+03 0.100706227887142D+03 -.891140964378218D+02 -.514595056931909D+02
 0.118246739258089D+03 -.700585535785802D+02 0.454659997317467D+02 0.232318171839835D+02
 0.603426771461076D+02 -.306476743085615D+02 0.436480967060751D+02 0.282276885092074D+02
 0.000000000000000D+00 0.000000000000000D+00 0.000000000000000D+00 -.000000000000000D+00
 0.184631148304210D+03 0.000000000000000D+00 0.000000000000000D+00 0.184631148304210D+03
 0.184631148304210D+03 -.000000000000000D+00 -.000000000000000D+00 -.184631148304210D+03
 0.189225085671955D+03 0.996991181828582D+02 -.876797813467772D+02 -.505319188642232D+02
 0.119081420855768D+03 -.706877106539522D+02 0.463620386478701D+02 0.238112950839429D+02
 0.589999440226915D+02 -.301580678851040D+02 0.423053701061528D+02 0.279596136650637D+02
 0.195584605800513D+01 0.114666035619789D+01 -.987627407245735D+00 -.123898988478333D+01
0.743539191243D-05 0.000000000000D+00 0.000000000000D+00 0.129431043029D-06 0.000000000000D+00  6 3 21 25 -24 4 21 2 0.26848770D+00 0.30050994D-02 0.31129828D+05 0.31129828D+05 0.31129828D+05 0.12132169D+01  1  2  2  3  6  5        4 0.227116196059D-02 0.100000000000D+01
-.469354236694D-06 0.392376411152D-06 -.150099140398D-07 0.129431043029D-06 0.000000000000D+00  6 3 21 25 -24 4 21 4 0.26848770D+00 0.30050994D-02 0.31129828D+05 0.31129828D+05 0.31129828D+05 0.12132169D+01  1  2  3  3  6  5        4 -.211019166125D-03 0.100000000000D+01
0.798680631254D-06 0.000000000000D+00 0.000000000000D+00 0.129431043029D-06 0.000000000000D+00  6 3 21 25 -24 4 21 4 0.26848770D+00 0.30050994D-02 0.31129828D+05 0.31129828D+05 0.31129828D+05 0.12132169D+01  1  2 15  3  6  5        4 0.359082559890D-03 0.100000000000D+01
-.763412178478D-04 0.000000000000D+00 0.000000000000D+00 0.129431043029D-06 0.000000000000D+00  6 3 21 25 -24 4 21 4 0.26848770D+00 0.30050994D-02 0.31129828D+05 0.31129828D+05 0.31129828D+05 0.12132169D+01  1  2  4  3  6  5        4 -.343226051280D-01 0.100000000000D+01
0.143082129422D-13 0.000000000000D+00 0.000000000000D+00 0.129431043029D-06 0.000000000000D+00  6 3 21 25 -24 4 21 4 0.26848770D+00 0.30050994D-02 0.31129828D+05 0.31129828D+05 0.31129828D+05 0.12132169D+01  1  2  5  3  6  5        4 0.643289636642D-11 0.100000000000D+01
-.147794870228D-13 0.000000000000D+00 0.000000000000D+00 0.129431043029D-06 0.000000000000D+00  6 3 21 25 -24 4 21 4 0.26848770D+00 0.30050994D-02 0.31129828D+05 0.31129828D+05 0.31129828D+05 0.12132169D+01  1  2  6  3  6  5        4 -.664477868413D-11 0.100000000000D+01
0.779713432401D-04 0.000000000000D+00 0.000000000000D+00 0.129431043029D-06 0.821248276234D-06  6 3 21 25 -24 4 21 4 0.26848770D+00 0.30050994D-02 0.31063589D+05 0.31063589D+05 0.31063589D+05 0.12133136D+01  1  2 11  3  6  5        4 0.350669514289D-01 0.100000000000D+01
  </mgrwgt>
  </event>
  <event>
  6     66 0.42980143E-03 0.38864296E+02 0.75467711E-02 0.12058245E+00
        1 -1    0    0  502    0 0.00000000E+00 0.00000000E+00 0.22296763E+04 0.22296763E+04 0.32000000E+00 0.0000E+00 0.9000E+01
       21 -1    0    0  501  502 0.00000000E+00 0.00000000E+00 -.14001390E+02 0.14021463E+02 0.75000000E+00 0.0000E+00 0.9000E+01
       25  1    1    2    0    0 0.61858785E+02 -.16532630E+02 0.16801437E+04 0.16860034E+04 0.12500000E+03 0.0000E+00 0.9000E+01
      -24  1    1    2    0    0 -.46473442E+02 -.31939590E+02 0.37603133E+03 0.38864727E+03 0.80419002E+02 0.0000E+00 0.9000E+01
        2  1    1    2  503    0 -.81409730E+01 0.42871509E+02 0.14815667E+03 0.15444981E+03 0.32000000E+00 0.0000E+00 0.9000E+01
       21  1    1    2  501  503 -.72443698E+01 0.56007112E+01 0.11343224E+02 0.14597263E+02 0.75000000E+00 0.0000E+00 0.9000E+01
#aMCatNLO 2  0  0  5  2 0.10625641D+02 0.00000000D+00  -5  6  0 0.00000000D+00 0.00000000D+00 0.00000000D+00 0.00000000D+00 0.00000000D+00
  <mgrwgt>
 0.1741586812D+00    2    2    0
 0.176751555533667D+03 0.000000000000000D+00 0.000000000000000D+00 0.176751555533667D+03
 0.176751555533667D+03 -.000000000000000D+00 -.000000000000000D+00 -.176751555533667D+03
 0.171388384716506D+03 0.622747661985268D+02 -.178431987684777D+02 0.977366470079694D+02
 0.109653104325275D+03 -.462062354071984D+02 -.327814358853545D+02 -.484453156103673D+02
 0.724616220255529D+02 -.160685307913284D+02 0.506246346538322D+02 -.492913313976021D+02
 0.000000000000000D+00 0.000000000000000D+00 0.000000000000000D+00 -.000000000000000D+00
 0.176751555533667D+03 0.000000000000000D+00 0.000000000000000D+00 0.176751555533667D+03
 0.176751555533667D+03 -.000000000000000D+00 -.000000000000000D+00 -.176751555533667D+03
 0.170376130325493D+03 0.618570062694116D+02 -.165270271745022D+02 0.964551394838484D+02
 0.109883555734768D+03 -.464745886607057D+02 -.319359767955722D+02 -.492685078064698D+02
 0.514568044785531D+02 -.806184938711804D+01 0.427529161137493D+02 -.274772173877594D+02
 0.217866205285197D+02 -.732056822158785D+01 0.571008785632505D+01 -.197094142896192D+02
-.655102491543D-05 0.000000000000D+00 0.000000000000D+00 0.387767265493D-06 0.000000000000D+00  6 1 21 25 -24 2 21 4 0.34302867D+00 0.21556059D-02 0.21236277D+05 0.21236277D+05 0.21236277D+05 0.12309686D+01  1  2 13  3  6  5        2 -.455917202960D-01 0.100000000000D+01
0.315756972040D-04 0.000000000000D+00 0.000000000000D+00 0.387599273395D-06 0.110055463488D-06  6 1 21 25 -24 2 21 4 0.34302867D+00 0.21556059D-02 0.21236277D+05 0.21236277D+05 0.21236277D+05 0.12309686D+01  1  2  1  3  6  5        2 0.219750401450D+00 0.100000000000D+01
  </mgrwgt>
  </event>
  <event>
  6     66 0.42980143E-03 0.26949408E+02 0.75467711E-02 0.11383665E+00
        1 -1    0    0  502    0 0.00000000E+00 0.00000000E+00 0.19171889E+03 0.19171916E+03 0.32000000E+00 0.0000E+00 0.9000E+01
       21 -1    0    0  501  502 -.00000000E+00 -.00000000E+00 -.28163512E+03 0.28163612E+03 0.75000000E+00 0.0000E+00 0.9000E+01
       25  1    1    2    0    0 0.12224264E+03 -.40964384E+02 -.10356739E+03 0.20729821E+03 0.12500000E+03 0.0000E+00 0.9000E+01
      -24  1    1    2    0    0 -.14746744E+03 0.39589289E+02 0.45415889E+02 0.17844825E+03 0.80419002E+02 0.0000E+00 0.9000E+01
        2  1    1    2  503    0 -.39156228E+01 0.32563420E+02 -.30669620E+02 0.44904748E+02 0.32000000E+00 0.0000E+00 0.9000E+01
       21  1    1    2  501  503 0.29140428E+02 -.31188325E+02 -.10951025E+01 0.42704074E+02 0.75000000E+00 0.0000E+00 0.9000E+01
#aMCatNLO 2  0  0  5  2 0.38353880D+02 0.00000000D+00  -5  6  0 0.00000000D+00 0.00000000D+00 0.00000000D+00 0.00000000D+00 0.00000000D+00
  <mgrwgt>
 0.6548190059D-01    1    2    0
 0.232368401035644D+03 0.000000000000000D+00 0.000000000000000D+00 0.232368401035644D+03
 0.232368401035644D+03 -.000000000000000D+00 -.000000000000000D+00 -.232368401035644D+03
 0.175818226381422D+03 0.103137580331503D+03 -.420058695428001D+02 -.537140128385976D+02
 0.212316353679702D+03 -.168443736417511D+03 0.384457963013652D+02 0.935929831447619D+02
 0.766022220101636D+02 0.653061560860083D+02 0.356007324143490D+01 -.398789703061643D+02
 0.000000000000000D+00 0.000000000000000D+00 0.000000000000000D+00 0.000000000000000D+00
 0.232368401035644D+03 0.000000000000000D+00 0.000000000000000D+00 0.232368401035644D+03
 0.232368401035644D+03 -.000000000000000D+00 -.000000000000000D+00 -.232368401035644D+03
 0.191062751746334D+03 0.122192696702408D+03 -.409671066761701D+02 -.653499514005773D+02
 0.190595389366890D+03 -.147517249058758D+03 0.395865743251858D+02 0.808142985917630D+02
 0.393101772594959D+02 -.495903500477714D+01 0.323417769270102D+02 -.217877826590476D+02
 0.437684836985673D+02 0.302835873611275D+02 -.309612445760260D+02 0.632343546786187D+01
0.374268190630D-04 0.000000000000D+00 0.000000000000D+00 0.156782256263D-06 0.153447356857D-08  6 1 21 25 -24 2 21 4 0.29495312D-01 0.43328578D-01 0.45835066D+05 0.45835066D+05 0.45835066D+05 0.11960408D+01  1  2  1  3  6  5        2 0.654819005885D-01 0.100000000000D+01
  </mgrwgt>
  </event>
  <event>
  5     66 -.42980143E-03 0.21218003E+02 0.75467711E-02 0.12161376E+00
        1 -1    0    0  502    0 0.00000000E+00 0.00000000E+00 0.74657615E+03 0.74657621E+03 0.32000000E+00 0.0000E+00 0.9000E+01
       21 -1    0    0  501  502 0.00000000E+00 0.00000000E+00 -.79069390E+02 0.79072947E+02 0.75000000E+00 0.0000E+00 0.9000E+01
       25  1    1    2    0    0 -.72888765E+02 0.41379231E+02 0.15728720E+03 0.21769078E+03 0.12500000E+03 0.0000E+00 0.9000E+01
      -24  1    1    2    0    0 0.54495352E+02 -.30801698E+02 0.55187696E+03 0.56120752E+03 0.80419002E+02 0.0000E+00 0.9000E+01
        2  1    1    2  501    0 0.18393414E+02 -.10577533E+02 -.41657399E+02 0.46750863E+02 0.32000000E+00 0.0000E+00 0.9000E+01
#aMCatNLO 1  0  0  5  1 0.18615054D+01 0.00000000D+00  -5  6  0 0.00000000D+00 0.00000000D+00 0.00000000D+00 0.00000000D+00 0.00000000D+00
  <mgrwgt>
 -.1383735063D+00    7    2    0
 0.242966699463877D+03 0.000000000000000D+00 0.000000000000000D+00 0.242966699463877D+03
 0.242966699463877D+03 -.000000000000000D+00 -.000000000000000D+00 -.242966699463877D+03
 0.153819300129364D+03 -.728887812224051D+02 0.413792398266564D+02 -.317861790023259D+02
 0.195456781724937D+03 0.544953314371188D+02 -.308016858542634D+02 0.166786248138128D+03
 0.136657317073452D+03 0.183934497852863D+02 -.105775539723930D+02 -.135000069135802D+03
 0.000000000000000D+00 0.000000000000000D+00 0.000000000000000D+00 -.000000000000000D+00
 0.242966699463877D+03 0.000000000000000D+00 0.000000000000000D+00 0.242966699463877D+03
 0.242966699463877D+03 -.000000000000000D+00 -.000000000000000D+00 -.242966699463877D+03
 0.153845528921172D+03 -.728594204006773D+02 0.413623552465410D+02 -.320016748994738D+02
 0.195237117766027D+03 0.545326158221051D+02 -.308231270520334D+02 0.166512596669284D+03
 0.133948585893383D+03 0.179634964129960D+02 -.122222797406352D+02 -.132174703848350D+03
 0.290216634717067D+01 0.363308165576310D+00 0.168305154612769D+01 -.233621792146040D+01
0.185761294572D-04 0.000000000000D+00 0.000000000000D+00 0.358342008291D-05 0.000000000000D+00  6 1 21 25 -24 2 21 2 0.11485815D+00 0.12164800D-01 0.18718000D+05 0.18718000D+05 0.18718000D+05 0.12370061D+01  1  2  2  3  6  5        2 0.470120756723D-01 0.100000000000D+01
0.457327158768D-05 0.980289283383D-06 -.374998533539D-07 0.358342008291D-05 0.000000000000D+00  6 1 21 25 -24 2 21 4 0.11485815D+00 0.12164800D-01 0.18718000D+05 0.18718000D+05 0.18718000D+05 0.12370061D+01  1  2  3  3  6  5        2 0.177102562666D-01 0.100000000000D+01
0.187329637010D-05 0.000000000000D+00 0.000000000000D+00 0.358342008291D-05 0.000000000000D+00  6 1 21 25 -24 2 21 4 0.11485815D+00 0.12164800D-01 0.18718000D+05 0.18718000D+05 0.18718000D+05 0.12370061D+01  1  2 15  3  6  5        2 0.725444753097D-02 0.100000000000D+01
-.632854387693D-03 0.000000000000D+00 0.000000000000D+00 0.358342008291D-05 0.000000000000D+00  6 1 21 25 -24 2 21 4 0.11485815D+00 0.12164800D-01 0.18718000D+05 0.18718000D+05 0.18718000D+05 0.12370061D+01  1  2  4  3  6  5        2 -.245076487818D+01 0.100000000000D+01
-.685191374387D-03 0.000000000000D+00 0.000000000000D+00 0.358342008291D-05 0.000000000000D+00  6 1 21 25 -24 2 21 4 0.11485815D+00 0.12164800D-01 0.18718000D+05 0.18718000D+05 0.18718000D+05 0.12370061D+01  1  2  5  3  6  5        2 -.265344285801D+01 0.100000000000D+01
0.699897133654D-03 0.000000000000D+00 -.000000000000D+00 0.358342008291D-05 0.000000000000D+00  6 1 21 25 -24 2 21 4 0.11485815D+00 0.12164800D-01 0.18718000D+05 0.18718000D+05 0.18718000D+05 0.12370061D+01  1  2  6  3  6  5        2 0.271039175339D+01 0.100000000000D+01
0.565384324865D-03 0.000000000000D+00 0.000000000000D+00 0.358342008291D-05 0.995102609919D-05  6 1 21 25 -24 2 21 4 0.11485815D+00 0.12164800D-01 0.19025522D+05 0.19025522D+05 0.19025522D+05 0.12362215D+01  1  2 11  3  6  5        2 0.218346569700D+01 0.100000000000D+01
  </mgrwgt>
  </event>
  <event>
  5     66 0.42980143E-03 0.28116918E+02 0.75467711E-02 0.12134747E+00
        1 -1    0    0  502    0 0.00000000E+00 0.00000000E+00 0.48921608E+03 0.48921618E+03 0.32000000E+00 0.0000E+00 0.9000E+01
       21 -1    0    0  501  502 0.00000000E+00 0.00000000E+00 -.34371973E+02 0.34380154E+02 0.75000000E+00 0.0000E+00 0.9000E+01
       25  1    1    2    0    0 0.29102254E+02 0.30670991E+02 0.21051747E+03 0.24845574E+03 0.12500000E+03 0.0000E+00 0.9000E+01
      -24  1    1    2    0    0 -.63707748E+01 -.47216842E+02 0.21536589E+03 0.23477585E+03 0.80419002E+02 0.0000E+00 0.9000E+01
        2  1    1    2  501    0 -.22731479E+02 0.16545850E+02 0.28960739E+02 0.40364739E+02 0.32000000E+00 0.0000E+00 0.9000E+01
#aMCatNLO 1  0  0  1  2 0.25214124D+02 0.00000000D+00  -5  6  0 0.00000000D+00 0.00000000D+00 0.00000000D+00 0.00000000D+00 0.00000000D+00
  <mgrwgt>
 0.3596076050D+00    9    2    0
 0.129682268671057D+03 0.000000000000000D+00 0.000000000000000D+00 0.129682268671057D+03
 0.129682268671057D+03 0.000000000000000D+00 0.000000000000000D+00 -.129682268671057D+03
 0.132392376564215D+03 0.291028846630232D+02 0.306705324754139D+02 -.107276238881766D+02
 0.962734512522985D+02 -.637031631256883D+01 -.472171753159810D+02 0.230503554618120D+02
 0.306987095256013D+02 -.227325683504544D+02 0.165466428405671D+02 -.123227315736355D+02
 0.000000000000000D+00 -.000000000000000D+00 0.000000000000000D+00 0.000000000000000D+00
 0.156024830263435D+03 0.000000000000000D+00 0.000000000000000D+00 0.156024830263435D+03
 0.136470483954839D+03 0.000000000000000D+00 0.000000000000000D+00 -.136470483954839D+03
 0.135756443439552D+03 0.421006044420590D+02 0.302864512064943D+02 -.107276238881766D+02
 0.962438710937449D+02 0.296139064190898D+01 -.474929262868584D+02 0.230503554618120D+02
 0.285869362713786D+02 -.198588722775890D+02 0.164617254202103D+02 -.123227315736355D+02
 0.319080634135984D+02 -.252031228063790D+02 0.744749660153837D+00 0.195543463085960D+02
0.199530183954D-05 0.000000000000D+00 0.000000000000D+00 0.919944959057D-06 0.000000000000D+00  6 1 21 25 -24 2 21 2 0.75264649D-01 0.52886332D-02 0.16071553D+05 0.16071553D+05 0.16071553D+05 0.12444207D+01  1  2  2  1  6  1        1 0.383875870462D-01 0.100000000000D+01
0.559353784546D-07 0.105294970888D-06 -.402793954208D-08 0.919944959057D-06 0.000000000000D+00  6 1 21 25 -24 2 21 4 0.75264649D-01 0.52886332D-02 0.16071553D+05 0.16071553D+05 0.16071553D+05 0.12444207D+01  1  2  3  1  6  1        1 0.166649209291D-02 0.100000000000D+01
0.191675357060D-06 0.000000000000D+00 0.000000000000D+00 0.919944959057D-06 0.000000000000D+00  6 1 21 25 -24 2 21 4 0.75264649D-01 0.52886332D-02 0.16071553D+05 0.16071553D+05 0.16071553D+05 0.12444207D+01  1  2 15  1  6  1        1 0.571061599601D-02 0.100000000000D+01
0.104180067815D-04 0.000000000000D+00 0.000000000000D+00 0.905874334146D-06 0.000000000000D+00  6 1 21 25 -24 2 21 4 0.92235673D-01 0.52886332D-02 0.19569705D+05 0.19569705D+05 0.19569705D+05 0.12348673D+01  1  2 12  1  6  1        1 0.230431639172D+00 0.100000000000D+01
-.217304751962D-05 0.000000000000D+00 0.000000000000D+00 0.919944959057D-06 0.000000000000D+00  6 1 21 25 -24 2 21 4 0.75264649D-01 0.52886332D-02 0.16071553D+05 0.16071553D+05 0.16071553D+05 0.12444207D+01  1  2  4  1  6  1        1 -.647419684824D-01 0.100000000000D+01
-.191698138403D-04 0.000000000000D+00 -.418971306844D-05 0.919944959057D-06 0.000000000000D+00  6 1 21 25 -24 2 21 4 0.93869754D-01 0.52886332D-02 0.16071553D+05 0.16071553D+05 0.16071553D+05 0.12444207D+01  1  2  5  1  6  1        1 -.426012750910D+00 0.100000000000D+01
0.197125895426D-04 0.000000000000D+00 0.408953076332D-05 0.919944959057D-06 0.000000000000D+00  6 1 21 25 -24 2 21 4 0.75264649D-01 0.52886332D-02 0.16071553D+05 0.16071553D+05 0.16071553D+05 0.12444207D+01  1  2  6  1  6  1        1 0.587300479786D+00 0.100000000000D+01
0.301931360872D-06 0.000000000000D+00 0.000000000000D+00 0.905874334146D-06 0.000000000000D+00  6 21 21 25 -24 2 -1 4 0.92235673D-01 0.52886332D-02 0.19569705D+05 0.19569705D+05 0.19569705D+05 0.12348673D+01  1  2 12  4  6  1        1 0.172958206354D-01 0.100000000000D+01
-.534461822620D-06 0.000000000000D+00 -.129301997374D-06 0.919944959057D-06 0.000000000000D+00  6 21 21 25 -24 2 -1 4 0.93869754D-01 0.52886332D-02 0.16071553D+05 0.16071553D+05 0.16071553D+05 0.12444207D+01  1  2  5  4  6  1        1 -.304303103449D-01 0.100000000000D+01
  </mgrwgt>
  </event>
  <event>
  6     66 0.42980143E-03 0.20512455E+02 0.75467711E-02 0.11965707E+00
        1 -1    0    0  502    0 0.00000000E+00 0.00000000E+00 0.83497113E+03 0.83497119E+03 0.32000000E+00 0.0000E+00 0.9000E+01
       21 -1    0    0  501  502 0.00000000E+00 0.00000000E+00 -.55892237E+02 0.55897268E+02 0.75000000E+00 0.0000E+00 0.9000E+01
       25  1    1    2    0    0 0.68767891E+02 0.53885625E+02 0.47623967E+03 0.50006190E+03 0.12500000E+03 0.0000E+00 0.9000E+01
      -24  1    1    2    0    0 -.52485867E+02 -.44495278E+02 0.32068354E+03 0.33769771E+03 0.80419002E+02 0.0000E+00 0.9000E+01
        2  1    1    2  503    0 -.29475388E+02 0.33276092E+01 -.18130346E+02 0.34766123E+02 0.32000000E+00 0.0000E+00 0.9000E+01
       21  1    1    2  501  503 0.13193364E+02 -.12717956E+02 0.28603323E+00 0.18342725E+02 0.75000000E+00 0.0000E+00 0.9000E+01
#aMCatNLO 2  0  0  5  2 0.22621719D+02 0.00000000D+00  -5  6  0 0.00000000D+00 0.00000000D+00 0.00000000D+00 0.00000000D+00 0.00000000D+00
  <mgrwgt>
 0.8783808344D-01    1    2    0
 0.216033961670262D+03 0.000000000000000D+00 0.000000000000000D+00 0.216033961670262D+03
 0.216033961670262D+03 -.000000000000000D+00 -.000000000000000D+00 -.216033961670262D+03
 0.174033771326201D+03 0.691514858071584D+02 0.541068562126402D+02 0.833862919397884D+02
 0.118841450268410D+03 -.522235149953862D+02 -.443439716265106D+02 0.544278514130623D+02
 0.139192701745912D+03 -.169279708117722D+02 -.976288458612957D+01 -.137814143352851D+03
 0.000000000000000D+00 0.000000000000000D+00 0.000000000000000D+00 -.000000000000000D+00
 0.216033961670262D+03 0.000000000000000D+00 0.000000000000000D+00 0.216033961670262D+03
 0.216033961670262D+03 -.000000000000000D+00 -.000000000000000D+00 -.216033961670262D+03
 0.172331882907780D+03 0.687668199200057D+02 0.538850074924213D+02 0.802546466702825D+02
 0.118049793858148D+03 -.524866010706560D+02 -.444957015070519D+02 0.522860127665689D+02
 0.104200438105332D+03 -.295146685490767D+02 0.337971649906912D+01 -.998758887728529D+02
 0.374858084692636D+02 0.132344496997269D+02 -.127690224844386D+02 -.326647706639985D+02
0.151442252526D-04 0.000000000000D+00 0.000000000000D+00 0.843000338126D-05 0.970453951698D-07  6 1 21 25 -24 2 21 4 0.12845749D+00 0.85991974D-02 0.23476502D+05 0.23476502D+05 0.23476502D+05 0.12262361D+01  1  2  1  3  6  5        2 0.878380834434D-01 0.100000000000D+01
  </mgrwgt>
  </event>
  <event>
  5     66 0.42980143E-03 0.25178352E+02 0.75467711E-02 0.11455716E+00
        1 -1    0    0  502    0 0.00000000E+00 0.00000000E+00 0.13717551E+04 0.13717551E+04 0.32000000E+00 0.0000E+00 0.9000E+01
       21 -1    0    0  501  502 0.00000000E+00 0.00000000E+00 -.20440675E+02 0.20454430E+02 0.75000000E+00 0.0000E+00 0.9000E+01
       25  1    1    2    0    0 -.87574449E+02 -.24037288E+02 0.97879185E+03 0.99091148E+03 0.12500000E+03 0.0000E+00 0.9000E+01
      -24  1    1    2    0    0 0.77306530E+02 0.47024776E+02 0.27294086E+03 0.29858258E+03 0.80419002E+02 0.0000E+00 0.9000E+01
        2  1    1    2  501    0 0.10267918E+02 -.22987488E+02 0.99581704E+02 0.10271549E+03 0.32000000E+00 0.0000E+00 0.9000E+01
#aMCatNLO 1  0  0  2  5 0.26101389D+02 0.00000000D+00  -5  6  0 0.00000000D+00 0.00000000D+00 0.00000000D+00 0.00000000D+00 0.00000000D+00
  <mgrwgt>
 0.2772209866D+00   14    2    0
 0.167478956853582D+03 0.000000000000000D+00 0.000000000000000D+00 0.167478956853582D+03
 0.167478956853582D+03 0.000000000000000D+00 0.000000000000000D+00 -.167478956853582D+03
 0.169874856334854D+03 -.875748690306639D+02 -.240363466562399D+02 0.706071042351290D+02
 0.139900041224142D+03 0.773061841723312D+02 0.470255510170349D+02 -.701224430578681D+02
 0.251830161481680D+02 0.102686848583327D+02 -.229892043607950D+02 -.484661177260875D+00
 0.000000000000000D+00 -.000000000000000D+00 0.000000000000000D+00 -.000000000000000D+00
 0.221027222235758D+03 0.000000000000000D+00 0.000000000000000D+00 0.221027222235758D+03
 0.222605976788923D+03 0.000000000000000D+00 0.000000000000000D+00 -.222605976788923D+03
 0.172590922672504D+03 -.678884940422081D+02 -.675900569400325D+02 0.706071042351290D+02
 0.142323956722423D+03 0.935296079270238D+02 0.111331991524875D+02 -.701224430578681D+02
 0.333511289260573D+02 0.136334739852928D+02 -.304333910578183D+02 -.484661177260875D+00
 0.953671907036963D+02 -.392745878701086D+02 0.868902488453633D+02 -.157875455316517D+01
0.155006947175D-04 0.000000000000D+00 0.000000000000D+00 0.363772499593D-06 0.000000000000D+00  6 1 21 25 -24 2 21 2 0.21104031D+00 0.31457802D-02 0.22611382D+05 0.22611382D+05 0.22611382D+05 0.12280013D+01  1  2  2  2  6  2       21 0.135743700054D+00 0.100000000000D+01
0.729640570810D-06 0.817994133360D-06 -.312914366864D-07 0.363772499593D-06 0.000000000000D+00  6 1 21 25 -24 2 21 4 0.21104031D+00 0.31457802D-02 0.22611382D+05 0.22611382D+05 0.22611382D+05 0.12280013D+01  1  2  3  2  6  2       21 0.963551972205D-02 0.100000000000D+01
0.159182203859D-05 0.000000000000D+00 0.000000000000D+00 0.363772499593D-06 0.000000000000D+00  6 1 21 25 -24 2 21 4 0.21104031D+00 0.31457802D-02 0.22611382D+05 0.22611382D+05 0.22611382D+05 0.12280013D+01  1  2 15  2  6  2       21 0.210213538836D-01 0.100000000000D+01
-.162717405128D-05 0.000000000000D+00 0.000000000000D+00 0.363772499593D-06 0.000000000000D+00  6 1 21 25 -24 2 21 4 0.21104031D+00 0.31457802D-02 0.22611382D+05 0.22611382D+05 0.22611382D+05 0.12280013D+01  1  2  4  2  6  2       21 -.214882070564D-01 0.100000000000D+01
-.204387959184D-04 0.000000000000D+00 -.196084490443D-04 0.363772499593D-06 0.000000000000D+00  6 1 21 25 -24 2 21 4 0.21104031D+00 0.56993956D-02 0.22611382D+05 0.22611382D+05 0.22611382D+05 0.12280013D+01  1  2  5  2  6  2       21 -.999073955010D-01 0.100000000000D+01
0.180322674786D-04 0.000000000000D+00 0.105438679769D-04 0.363772499593D-06 0.000000000000D+00  6 1 21 25 -24 2 21 4 0.21104031D+00 0.31457802D-02 0.22611382D+05 0.22611382D+05 0.22611382D+05 0.12280013D+01  1  2  6  2  6  2       21 0.238131315437D+00 0.100000000000D+01
-.292644771349D-05 0.000000000000D+00 -.413777836931D-05 0.363772499593D-06 0.000000000000D+00  6 1 -1 25 -24 2 -1 4 0.21104031D+00 0.56993956D-02 0.22611382D+05 0.22611382D+05 0.22611382D+05 0.12280013D+01  1  2  5  5  6  2       21 -.842492401091D-03 0.100000000000D+01
-.292644771349D-05 0.000000000000D+00 -.413777836931D-05 0.363772499593D-06 0.000000000000D+00  6 1 1 25 -24 2 1 4 0.21104031D+00 0.56993956D-02 0.22611382D+05 0.22611382D+05 0.22611382D+05 0.12280013D+01  1  2  5  6  6  2       21 -.964304483630D-03 0.100000000000D+01
-.292644771349D-05 0.000000000000D+00 -.413777836931D-05 0.363772499593D-06 0.000000000000D+00  6 1 -2 25 -24 2 -2 4 0.21104031D+00 0.56993956D-02 0.22611382D+05 0.22611382D+05 0.22611382D+05 0.12280013D+01  1  2  5  7  6  2       21 -.821099563722D-03 0.100000000000D+01
-.292644771349D-05 0.000000000000D+00 -.413777836931D-05 0.363772499593D-06 0.000000000000D+00  6 1 2 25 -24 2 2 4 0.21104031D+00 0.56993956D-02 0.22611382D+05 0.22611382D+05 0.22611382D+05 0.12280013D+01  1  2  5  8  6  2       21 -.104610021989D-02 0.100000000000D+01
-.292644771349D-05 0.000000000000D+00 -.413777836931D-05 0.363772499593D-06 0.000000000000D+00  6 1 -3 25 -24 2 -3 4 0.21104031D+00 0.56993956D-02 0.22611382D+05 0.22611382D+05 0.22611382D+05 0.12280013D+01  1  2  5  9  6  2       21 -.593182826623D-03 0.100000000000D+01
-.292644771349D-05 0.000000000000D+00 -.413777836931D-05 0.363772499593D-06 0.000000000000D+00  6 1 -4 25 -24 2 -4 4 0.21104031D+00 0.56993956D-02 0.22611382D+05 0.22611382D+05 0.22611382D+05 0.12280013D+01  1  2  5  9  6  2       21 -.527499650115D-03 0.100000000000D+01
-.292644771349D-05 0.000000000000D+00 -.413777836931D-05 0.363772499593D-06 0.000000000000D+00  6 1 3 25 -24 2 3 4 0.21104031D+00 0.56993956D-02 0.22611382D+05 0.22611382D+05 0.22611382D+05 0.12280013D+01  1  2  5 10  6  2       21 -.593121099913D-03 0.100000000000D+01
-.292644771349D-05 0.000000000000D+00 -.413777836931D-05 0.363772499593D-06 0.000000000000D+00  6 1 4 25 -24 2 4 4 0.21104031D+00 0.56993956D-02 0.22611382D+05 0.22611382D+05 0.22611382D+05 0.12280013D+01  1  2  5 10  6  2       21 -.527499650115D-03 0.100000000000D+01
  </mgrwgt>
  </event>
  <event>
  5     66 0.42980143E-03 0.18176892E+03 0.75467711E-02 0.10440417E+00
        3 -1    0    0  502    0 0.00000000E+00 0.00000000E+00 0.24504080E+04 0.24504080E+04 0.50000000E+00 0.0000E+00 0.9000E+01
       21 -1    0    0  501  502 0.00000000E+00 0.00000000E+00 -.20763200E+03 0.20763336E+03 0.75000000E+00 0.0000E+00 0.9000E+01
       25  1    1    2    0    0 -.17070625E+03 0.14110324E+02 0.51356735E+03 0.55562230E+03 0.12500000E+03 0.0000E+00 0.9000E+01
      -24  1    1    2    0    0 0.34766547E+03 0.72985577E+02 0.18403337E+04 0.18760313E+04 0.80419002E+02 0.0000E+00 0.9000E+01
        4  1    1    2  501    0 -.17695922E+03 -.87095901E+02 -.11112503E+03 0.22638780E+03 0.15500000E+01 0.0000E+00 0.9000E+01
#aMCatNLO 1  0  0  2  1 0.24118863D+02 0.00000000D+00  -5  6  0 0.00000000D+00 0.00000000D+00 0.00000000D+00 0.00000000D+00 0.00000000D+00
  <mgrwgt>
 0.3869007460D-02   32    2    0
 0.713291654626137D+03 0.000000000000000D+00 0.000000000000000D+00 0.713291654626137D+03
 0.713291654626137D+03 0.000000000000000D+00 0.000000000000000D+00 -.713291654626137D+03
 0.227852538840101D+03 -.170706149605538D+03 0.141103708748209D+02 0.833791783151309D+02
 0.602217762935565D+03 0.347665717881417D+03 0.729857013647291D+02 0.479583834221968D+03
 0.596513007476608D+03 -.176959568275878D+03 -.870960722395500D+02 -.562963012537099D+03
 0.000000000000000D+00 -.000000000000000D+00 0.000000000000000D+00 -.000000000000000D+00
 0.715125269165859D+03 0.000000000000000D+00 0.000000000000000D+00 0.715125269165859D+03
 0.797375599658878D+03 0.000000000000000D+00 0.000000000000000D+00 -.797375599658878D+03
 0.226079610430622D+03 -.168569212022240D+03 0.109235357900588D+02 0.833791783151309D+02
 0.604552544414012D+03 0.353346727319340D+03 0.645135586427622D+02 0.479583834221968D+03
 0.596155025423316D+03 -.171344946910115D+03 -.954692098060916D+02 -.562963012537099D+03
 0.857136885567868D+02 -.134325683869858D+02 0.200321153732706D+02 -.822503304930185D+02
0.142106819364D-03 0.000000000000D+00 0.000000000000D+00 0.146421339825D-06 0.000000000000D+00  6 3 21 25 -24 4 21 2 0.37698595D+00 0.31943493D-01 0.14958080D+06 0.14958080D+06 0.14958080D+06 0.11478411D+01  1  2  2  2  6  2       21 0.141862487937D-03 0.100000000000D+01
0.664851693286D-05 0.749918288626D-05 -.286872725507D-06 0.146421339825D-06 0.000000000000D+00  6 3 21 25 -24 4 21 4 0.37698595D+00 0.31943493D-01 0.14958080D+06 0.14958080D+06 0.14958080D+06 0.11478411D+01  1  2  3  2  6  2       21 0.874461994095D-05 0.100000000000D+01
0.144836966733D-04 0.000000000000D+00 0.000000000000D+00 0.146421339825D-06 0.000000000000D+00  6 3 21 25 -24 4 21 4 0.37698595D+00 0.31943493D-01 0.14958080D+06 0.14958080D+06 0.14958080D+06 0.11478411D+01  1  2 15  2  6  2       21 0.190500263483D-04 0.100000000000D+01
0.456162468943D-02 0.000000000000D+00 0.000000000000D+00 0.145803710997D-06 0.000000000000D+00  6 3 21 25 -24 4 21 4 0.37698595D+00 0.35747234D-01 0.15939589D+06 0.15939589D+06 0.15939589D+06 0.11454176D+01  1  2 12  2  6  2       21 0.472204402369D-02 0.100000000000D+01
0.309791908548D-02 0.000000000000D+00 0.000000000000D+00 0.145803710997D-06 0.000000000000D+00  6 3 21 25 -24 4 21 4 0.37698595D+00 0.37460627D-01 0.15939589D+06 0.15939589D+06 0.15939589D+06 0.11454176D+01  1  2 12  2  6  2       21 0.291613838454D-02 0.100000000000D+01
-.473847430564D-02 0.000000000000D+00 0.000000000000D+00 0.146421339825D-06 0.000000000000D+00  6 3 21 25 -24 4 21 4 0.37698595D+00 0.31943493D-01 0.14958080D+06 0.14958080D+06 0.14958080D+06 0.11478411D+01  1  2  4  2  6  2       21 -.623239097099D-02 0.100000000000D+01
-.100478885098D-01 0.000000000000D+00 -.404294112392D-03 0.146421339825D-06 0.000000000000D+00  6 3 21 25 -24 4 21 4 0.37698595D+00 0.35758951D-01 0.14958080D+06 0.14958080D+06 0.14958080D+06 0.11478411D+01  1  2  5  2  6  2       21 -.105356684578D-01 0.100000000000D+01
0.977792987072D-02 0.000000000000D+00 0.394182686268D-03 0.146421339825D-06 0.000000000000D+00  6 3 21 25 -24 4 21 4 0.37698595D+00 0.31943493D-01 0.14958080D+06 0.14958080D+06 0.14958080D+06 0.11478411D+01  1  2  6  2  6  2       21 0.128606546982D-01 0.100000000000D+01
0.141312183358D-03 0.000000000000D+00 0.000000000000D+00 0.145803710997D-06 0.000000000000D+00  6 3 -3 25 -24 4 -3 4 0.37698595D+00 0.35747234D-01 0.15939589D+06 0.15939589D+06 0.15939589D+06 0.11454176D+01  1  2 12  5  6  2       21 0.787389704170D-05 0.100000000000D+01
0.146323148549D-03 0.000000000000D+00 0.000000000000D+00 0.145803710997D-06 0.000000000000D+00  6 3 -3 25 -24 4 -3 4 0.37698595D+00 0.37460627D-01 0.15939589D+06 0.15939589D+06 0.15939589D+06 0.11454176D+01  1  2 12  5  6  2       21 0.744453181053D-05 0.100000000000D+01
-.311941915010D-03 0.000000000000D+00 -.118459006308D-04 0.146421339825D-06 0.000000000000D+00  6 3 -3 25 -24 4 -3 4 0.37698595D+00 0.35758951D-01 0.14958080D+06 0.14958080D+06 0.14958080D+06 0.11478411D+01  1  2  5  5  6  2       21 -.175590962585D-04 0.100000000000D+01
0.141312183358D-03 0.000000000000D+00 0.000000000000D+00 0.145803710997D-06 0.000000000000D+00  6 3 3 25 -24 4 3 4 0.37698595D+00 0.35747234D-01 0.15939589D+06 0.15939589D+06 0.15939589D+06 0.11454176D+01  1  2 12  6  6  2       21 0.787507782708D-05 0.100000000000D+01
0.146323148549D-03 0.000000000000D+00 0.000000000000D+00 0.145803710997D-06 0.000000000000D+00  6 3 3 25 -24 4 3 4 0.37698595D+00 0.37460627D-01 0.15939589D+06 0.15939589D+06 0.15939589D+06 0.11454176D+01  1  2 12  6  6  2       21 0.744588129768D-05 0.100000000000D+01
-.311941915010D-03 0.000000000000D+00 -.118459006308D-04 0.146421339825D-06 0.000000000000D+00  6 3 3 25 -24 4 3 4 0.37698595D+00 0.35758951D-01 0.14958080D+06 0.14958080D+06 0.14958080D+06 0.11478411D+01  1  2  5  6  6  2       21 -.175617153272D-04 0.100000000000D+01
0.141312183358D-03 0.000000000000D+00 0.000000000000D+00 0.145803710997D-06 0.000000000000D+00  6 3 -4 25 -24 4 -4 4 0.37698595D+00 0.35747234D-01 0.15939589D+06 0.15939589D+06 0.15939589D+06 0.11454176D+01  1  2 12  7  6  2       21 0.668569255419D-05 0.100000000000D+01
0.146323148549D-03 0.000000000000D+00 0.000000000000D+00 0.145803710997D-06 0.000000000000D+00  6 3 -4 25 -24 4 -4 4 0.37698595D+00 0.37460627D-01 0.15939589D+06 0.15939589D+06 0.15939589D+06 0.11454176D+01  1  2 12  7  6  2       21 0.630916065399D-05 0.100000000000D+01
-.311941915010D-03 0.000000000000D+00 -.118459006308D-04 0.146421339825D-06 0.000000000000D+00  6 3 -4 25 -24 4 -4 4 0.37698595D+00 0.35758951D-01 0.14958080D+06 0.14958080D+06 0.14958080D+06 0.11478411D+01  1  2  5  7  6  2       21 -.149018427598D-04 0.100000000000D+01
0.141312183358D-03 0.000000000000D+00 0.000000000000D+00 0.145803710997D-06 0.000000000000D+00  6 3 4 25 -24 4 4 4 0.37698595D+00 0.35747234D-01 0.15939589D+06 0.15939589D+06 0.15939589D+06 0.11454176D+01  1  2 12  8  6  2       21 0.668569255419D-05 0.100000000000D+01
0.146323148549D-03 0.000000000000D+00 0.000000000000D+00 0.145803710997D-06 0.000000000000D+00  6 3 4 25 -24 4 4 4 0.37698595D+00 0.37460627D-01 0.15939589D+06 0.15939589D+06 0.15939589D+06 0.11454176D+01  1  2 12  8  6  2       21 0.630916065399D-05 0.100000000000D+01
-.311941915010D-03 0.000000000000D+00 -.118459006308D-04 0.146421339825D-06 0.000000000000D+00  6 3 4 25 -24 4 4 4 0.37698595D+00 0.35758951D-01 0.14958080D+06 0.14958080D+06 0.14958080D+06 0.11478411D+01  1  2  5  8  6  2       21 -.149018427598D-04 0.100000000000D+01
0.141312183358D-03 0.000000000000D+00 0.000000000000D+00 0.145803710997D-06 0.000000000000D+00  6 3 -1 25 -24 4 -1 4 0.37698595D+00 0.35747234D-01 0.15939589D+06 0.15939589D+06 0.15939589D+06 0.11454176D+01  1  2 12  9  6  2       21 0.139102210828D-04 0.100000000000D+01
0.141312183358D-03 0.000000000000D+00 0.000000000000D+00 0.145803710997D-06 0.000000000000D+00  6 3 -2 25 -24 4 -2 4 0.37698595D+00 0.35747234D-01 0.15939589D+06 0.15939589D+06 0.15939589D+06 0.11454176D+01  1  2 12  9  6  2       21 0.119858762709D-04 0.100000000000D+01
0.146323148549D-03 0.000000000000D+00 0.000000000000D+00 0.145803710997D-06 0.000000000000D+00  6 3 -1 25 -24 4 -1 4 0.37698595D+00 0.37460627D-01 0.15939589D+06 0.15939589D+06 0.15939589D+06 0.11454176D+01  1  2 12  9  6  2       21 0.132575467105D-04 0.100000000000D+01
0.146323148549D-03 0.000000000000D+00 0.000000000000D+00 0.145803710997D-06 0.000000000000D+00  6 3 -2 25 -24 4 -2 4 0.37698595D+00 0.37460627D-01 0.15939589D+06 0.15939589D+06 0.15939589D+06 0.11454176D+01  1  2 12  9  6  2       21 0.113548862818D-04 0.100000000000D+01
-.311941915010D-03 0.000000000000D+00 -.118459006308D-04 0.146421339825D-06 0.000000000000D+00  6 3 -1 25 -24 4 -1 4 0.37698595D+00 0.35758951D-01 0.14958080D+06 0.14958080D+06 0.14958080D+06 0.11478411D+01  1  2  5  9  6  2       21 -.310576498698D-04 0.100000000000D+01
-.311941915010D-03 0.000000000000D+00 -.118459006308D-04 0.146421339825D-06 0.000000000000D+00  6 3 -2 25 -24 4 -2 4 0.37698595D+00 0.35758951D-01 0.14958080D+06 0.14958080D+06 0.14958080D+06 0.11478411D+01  1  2  5  9  6  2       21 -.267573280048D-04 0.100000000000D+01
0.141312183358D-03 0.000000000000D+00 0.000000000000D+00 0.145803710997D-06 0.000000000000D+00  6 3 1 25 -24 4 1 4 0.37698595D+00 0.35747234D-01 0.15939589D+06 0.15939589D+06 0.15939589D+06 0.11454176D+01  1  2 12 10  6  2       21 0.265445059903D-04 0.100000000000D+01
0.141312183358D-03 0.000000000000D+00 0.000000000000D+00 0.145803710997D-06 0.000000000000D+00  6 3 2 25 -24 4 2 4 0.37698595D+00 0.35747234D-01 0.15939589D+06 0.15939589D+06 0.15939589D+06 0.11454176D+01  1  2 12 10  6  2       21 0.360648013907D-04 0.100000000000D+01
0.146323148549D-03 0.000000000000D+00 0.000000000000D+00 0.145803710997D-06 0.000000000000D+00  6 3 1 25 -24 4 1 4 0.37698595D+00 0.37460627D-01 0.15939589D+06 0.15939589D+06 0.15939589D+06 0.11454176D+01  1  2 12 10  6  2       21 0.258927300354D-04 0.100000000000D+01
0.146323148549D-03 0.000000000000D+00 0.000000000000D+00 0.145803710997D-06 0.000000000000D+00  6 3 2 25 -24 4 2 4 0.37698595D+00 0.37460627D-01 0.15939589D+06 0.15939589D+06 0.15939589D+06 0.11454176D+01  1  2 12 10  6  2       21 0.354663152921D-04 0.100000000000D+01
-.311941915010D-03 0.000000000000D+00 -.118459006308D-04 0.146421339825D-06 0.000000000000D+00  6 3 1 25 -24 4 1 4 0.37698595D+00 0.35758951D-01 0.14958080D+06 0.14958080D+06 0.14958080D+06 0.11478411D+01  1  2  5 10  6  2       21 -.592717151934D-04 0.100000000000D+01
-.311941915010D-03 0.000000000000D+00 -.118459006308D-04 0.146421339825D-06 0.000000000000D+00  6 3 2 25 -24 4 2 4 0.37698595D+00 0.35758951D-01 0.14958080D+06 0.14958080D+06 0.14958080D+06 0.11478411D+01  1  2  5 10  6  2       21 -.805221389462D-04 0.100000000000D+01
  </mgrwgt>
  </event>
  <event>
  5     66 0.42980143E-03 0.26592666E+02 0.75467711E-02 0.12375291E+00
        1 -1    0    0  502    0 0.00000000E+00 0.00000000E+00 0.38427442E+04 0.38427443E+04 0.32000000E+00 0.0000E+00 0.9000E+01
       21 -1    0    0  501  502 0.00000000E+00 0.00000000E+00 -.95086574E+01 0.95381898E+01 0.75000000E+00 0.0000E+00 0.9000E+01
       25  1    1    2    0    0 -.13747494E+02 -.29253350E+02 0.30387415E+04 0.30414831E+04 0.12500000E+03 0.0000E+00 0.9000E+01
      -24  1    1    2    0    0 0.82095272E+01 0.32437839E+01 0.77124099E+03 0.77547263E+03 0.80419002E+02 0.0000E+00 0.9000E+01
        2  1    1    2  501    0 0.55379669E+01 0.26009566E+02 0.23253135E+02 0.35326722E+02 0.32000000E+00 0.0000E+00 0.9000E+01
#aMCatNLO 1  0  0  2  1 0.12193332D+02 0.00000000D+00  -5  6  0 0.00000000D+00 0.00000000D+00 0.00000000D+00 0.00000000D+00 0.00000000D+00
  <mgrwgt>
 0.2342881987D+00   23    2    0
 0.191301457487278D+03 0.000000000000000D+00 0.000000000000000D+00 0.191301457487278D+03
 0.191301457487278D+03 0.000000000000000D+00 0.000000000000000D+00 -.191301457487278D+03
 0.178880205062756D+03 -.137475029366898D+02 -.292533911248784D+02 0.123807806837833D+03
 0.810009198855332D+02 0.820952323112135D+01 0.324376519523592D+01 -.400184752431715D+01
 0.122721790026266D+03 0.553797970556848D+01 0.260096259296424D+02 -.119805959313516D+03
 0.000000000000000D+00 -.000000000000000D+00 0.000000000000000D+00 -.000000000000000D+00
 0.194286310667855D+03 0.000000000000000D+00 0.000000000000000D+00 0.194286310667855D+03
 0.204270056452171D+03 0.000000000000000D+00 0.000000000000000D+00 -.204270056452171D+03
 0.179639598719881D+03 -.113917069231057D+02 -.344563696233916D+02 0.123807806837833D+03
 0.810557858929897D+02 0.927438084127191D+01 0.891935402824378D+00 -.400184752431715D+01
 0.122101778237576D+03 0.714668968493990D+01 0.224566513152238D+02 -.119805959313516D+03
 0.157592042695794D+02 -.502936360310615D+01 0.111077829053435D+02 -.998374578431568D+01
0.339536106825D-04 0.000000000000D+00 0.000000000000D+00 0.526547912270D-05 0.000000000000D+00  6 1 21 25 -24 2 21 2 0.59119370D+00 0.14651431D-02 0.13995609D+05 0.13995609D+05 0.13995609D+05 0.12512686D+01  1  2  2  2  6  2       21 0.226657966858D-01 0.100000000000D+01
0.577706559442D-05 0.179178126213D-05 -.685425574992D-07 0.526547912270D-05 0.000000000000D+00  6 1 21 25 -24 2 21 4 0.59119370D+00 0.14651431D-02 0.13995609D+05 0.13995609D+05 0.13995609D+05 0.12512686D+01  1  2  3  2  6  2       21 0.603800400939D-02 0.100000000000D+01
0.326822154607D-05 0.000000000000D+00 0.000000000000D+00 0.526547912270D-05 0.000000000000D+00  6 1 21 25 -24 2 21 4 0.59119370D+00 0.14651431D-02 0.13995609D+05 0.13995609D+05 0.13995609D+05 0.12512686D+01  1  2 15  2  6  2       21 0.341584052946D-02 0.100000000000D+01
0.157268540212D-03 0.000000000000D+00 0.000000000000D+00 0.523000481488D-05 0.000000000000D+00  6 1 21 25 -24 2 21 4 0.59119370D+00 0.15753935D-02 0.15237209D+05 0.15237209D+05 0.15237209D+05 0.12470465D+01  1  2 12  2  6  2       21 0.143822823535D+00 0.100000000000D+01
-.348701478312D-04 0.000000000000D+00 0.000000000000D+00 0.526547912270D-05 0.000000000000D+00  6 1 21 25 -24 2 21 4 0.59119370D+00 0.14651431D-02 0.13995609D+05 0.13995609D+05 0.13995609D+05 0.12512686D+01  1  2  4  2  6  2       21 -.364451621626D-01 0.100000000000D+01
-.680992488443D-03 0.000000000000D+00 -.119139623865D-03 0.526547912270D-05 0.000000000000D+00  6 1 21 25 -24 2 21 4 0.59119370D+00 0.16074072D-02 0.13995609D+05 0.13995609D+05 0.13995609D+05 0.12512686D+01  1  2  5  2  6  2       21 -.613948069918D+00 0.100000000000D+01
0.681013067997D-03 0.000000000000D+00 0.117117999863D-03 0.526547912270D-05 0.000000000000D+00  6 1 21 25 -24 2 21 4 0.59119370D+00 0.14651431D-02 0.13995609D+05 0.13995609D+05 0.13995609D+05 0.12512686D+01  1  2  6  2  6  2       21 0.711773056374D+00 0.100000000000D+01
0.303885004365D-05 0.000000000000D+00 0.000000000000D+00 0.523000481488D-05 0.000000000000D+00  6 1 -1 25 -24 2 -1 4 0.59119370D+00 0.15753935D-02 0.15237209D+05 0.15237209D+05 0.15237209D+05 0.12470465D+01  1  2 12  5  6  2       21 0.128135707998D-03 0.100000000000D+01
-.133585645381D-04 0.000000000000D+00 -.279422191931D-05 0.526547912270D-05 0.000000000000D+00  6 1 -1 25 -24 2 -1 4 0.59119370D+00 0.16074072D-02 0.13995609D+05 0.13995609D+05 0.13995609D+05 0.12512686D+01  1  2  5  5  6  2       21 -.556474174428D-03 0.100000000000D+01
0.303885004365D-05 0.000000000000D+00 0.000000000000D+00 0.523000481488D-05 0.000000000000D+00  6 1 1 25 -24 2 1 4 0.59119370D+00 0.15753935D-02 0.15237209D+05 0.15237209D+05 0.15237209D+05 0.12470465D+01  1  2 12  6  6  2       21 0.133328957707D-03 0.100000000000D+01
-.133585645381D-04 0.000000000000D+00 -.279422191931D-05 0.526547912270D-05 0.000000000000D+00  6 1 1 25 -24 2 1 4 0.59119370D+00 0.16074072D-02 0.13995609D+05 0.13995609D+05 0.13995609D+05 0.12512686D+01  1  2  5  6  6  2       21 -.579533646827D-03 0.100000000000D+01
0.303885004365D-05 0.000000000000D+00 0.000000000000D+00 0.523000481488D-05 0.000000000000D+00  6 1 -2 25 -24 2 -2 4 0.59119370D+00 0.15753935D-02 0.15237209D+05 0.15237209D+05 0.15237209D+05 0.12470465D+01  1  2 12  7  6  2       21 0.127211645748D-03 0.100000000000D+01
-.133585645381D-04 0.000000000000D+00 -.279422191931D-05 0.526547912270D-05 0.000000000000D+00  6 1 -2 25 -24 2 -2 4 0.59119370D+00 0.16074072D-02 0.13995609D+05 0.13995609D+05 0.13995609D+05 0.12512686D+01  1  2  5  7  6  2       21 -.552367123848D-03 0.100000000000D+01
0.303885004365D-05 0.000000000000D+00 0.000000000000D+00 0.523000481488D-05 0.000000000000D+00  6 1 2 25 -24 2 2 4 0.59119370D+00 0.15753935D-02 0.15237209D+05 0.15237209D+05 0.15237209D+05 0.12470465D+01  1  2 12  8  6  2       21 0.136922091050D-03 0.100000000000D+01
-.133585645381D-04 0.000000000000D+00 -.279422191931D-05 0.526547912270D-05 0.000000000000D+00  6 1 2 25 -24 2 2 4 0.59119370D+00 0.16074072D-02 0.13995609D+05 0.13995609D+05 0.13995609D+05 0.12512686D+01  1  2  5  8  6  2       21 -.595478855930D-03 0.100000000000D+01
0.303885004365D-05 0.000000000000D+00 0.000000000000D+00 0.523000481488D-05 0.000000000000D+00  6 1 -3 25 -24 2 -3 4 0.59119370D+00 0.15753935D-02 0.15237209D+05 0.15237209D+05 0.15237209D+05 0.12470465D+01  1  2 12  9  6  2       21 0.100410644422D-03 0.100000000000D+01
0.303885004365D-05 0.000000000000D+00 0.000000000000D+00 0.523000481488D-05 0.000000000000D+00  6 1 -4 25 -24 2 -4 4 0.59119370D+00 0.15753935D-02 0.15237209D+05 0.15237209D+05 0.15237209D+05 0.12470465D+01  1  2 12  9  6  2       21 0.913924747412D-04 0.100000000000D+01
-.133585645381D-04 0.000000000000D+00 -.279422191931D-05 0.526547912270D-05 0.000000000000D+00  6 1 -3 25 -24 2 -3 4 0.59119370D+00 0.16074072D-02 0.13995609D+05 0.13995609D+05 0.13995609D+05 0.12512686D+01  1  2  5  9  6  2       21 -.434617493481D-03 0.100000000000D+01
-.133585645381D-04 0.000000000000D+00 -.279422191931D-05 0.526547912270D-05 0.000000000000D+00  6 1 -4 25 -24 2 -4 4 0.59119370D+00 0.16074072D-02 0.13995609D+05 0.13995609D+05 0.13995609D+05 0.12512686D+01  1  2  5  9  6  2       21 -.395111630824D-03 0.100000000000D+01
0.303885004365D-05 0.000000000000D+00 0.000000000000D+00 0.523000481488D-05 0.000000000000D+00  6 1 3 25 -24 2 3 4 0.59119370D+00 0.15753935D-02 0.15237209D+05 0.15237209D+05 0.15237209D+05 0.12470465D+01  1  2 12 10  6  2       21 0.100405659569D-03 0.100000000000D+01
0.303885004365D-05 0.000000000000D+00 0.000000000000D+00 0.523000481488D-05 0.000000000000D+00  6 1 4 25 -24 2 4 4 0.59119370D+00 0.15753935D-02 0.15237209D+05 0.15237209D+05 0.15237209D+05 0.12470465D+01  1  2 12 10  6  2       21 0.913924747412D-04 0.100000000000D+01
-.133585645381D-04 0.000000000000D+00 -.279422191931D-05 0.526547912270D-05 0.000000000000D+00  6 1 3 25 -24 2 3 4 0.59119370D+00 0.16074072D-02 0.13995609D+05 0.13995609D+05 0.13995609D+05 0.12512686D+01  1  2  5 10  6  2       21 -.434595450053D-03 0.100000000000D+01
-.133585645381D-04 0.000000000000D+00 -.279422191931D-05 0.526547912270D-05 0.000000000000D+00  6 1 4 25 -24 2 4 4 0.59119370D+00 0.16074072D-02 0.13995609D+05 0.13995609D+05 0.13995609D+05 0.12512686D+01  1  2  5 10  6  2       21 -.395111630824D-03 0.100000000000D+01
  </mgrwgt>
  </event>
  <event>
  6     66 0.42980143E-03 0.19921744E+02 0.75467711E-02 0.12228966E+00
        1 -1    0    0  502    0 0.00000000E+00 0.00000000E+00 0.60217778E+03 0.60217786E+03 0.32000000E+00 0.0000E+00 0.9000E+01
       21 -1    0    0  503  502 0.00000000E+00 0.00000000E+00 -.48421460E+02 0.48427269E+02 0.75000000E+00 0.0000E+00 0.9000E+01
       25  1    1    2    0    0 -.12045031E+02 -.43972419E+02 0.30094300E+03 0.32904460E+03 0.12500000E+03 0.0000E+00 0.9000E+01
      -24  1    1    2    0    0 -.18785497E+02 0.27535673E+02 0.13107836E+03 0.15735266E+03 0.80419002E+02 0.0000E+00 0.9000E+01
        2  1    1    2  501    0 0.15612273E+02 -.78479086E+01 0.13245301E+03 0.13360103E+03 0.32000000E+00 0.0000E+00 0.9000E+01
       21  1    1    2  503  501 0.15218255E+02 0.24284654E+02 -.10718053E+02 0.30606844E+02 0.75000000E+00 0.0000E+00 0.9000E+01
#aMCatNLO 2  0  0  2  1 0.57763443D+02 0.00000000D+00  -5  6  0 0.00000000D+00 0.00000000D+00 0.00000000D+00 0.00000000D+00 0.00000000D+00
  <mgrwgt>
 0.1397698213D+00    1    2    0
 0.127421762671435D+03 0.000000000000000D+00 0.000000000000000D+00 0.127421762671435D+03
 0.127421762671435D+03 0.000000000000000D+00 0.000000000000000D+00 -.127421762671435D+03
 0.129025477517523D+03 -.424363234227498D+01 -.315224347148072D+02 0.330174844878585D+01
 0.939826838049622D+02 -.132531450215494D+02 0.363645787728679D+02 -.294533607339235D+02
 0.318353640203848D+02 0.174967773638244D+02 -.484214405806066D+01 0.261516122851376D+02
 0.000000000000000D+00 0.000000000000000D+00 0.000000000000000D+00 -.000000000000000D+00
 0.130376600943776D+03 0.000000000000000D+00 0.000000000000000D+00 0.130376600943776D+03
 0.223656772818725D+03 0.000000000000000D+00 0.000000000000000D+00 -.223656772818725D+03
 0.133096046380933D+03 -.120454773311042D+02 -.439722923587383D+02 0.330174844878585D+01
 0.919012572409410D+02 -.187858371575627D+02 0.275357402635554D+02 -.294533607339235D+02
 0.314526176836148D+02 0.156130594013813D+02 -.784810232912482D+01 0.261516122851376D+02
 0.975834524570113D+02 0.152182550872856D+02 0.242846544243077D+02 -.932801718749491D+02
0.112247033351D-04 0.000000000000D+00 0.000000000000D+00 0.386058700244D-06 0.143775879846D-07  6 1 21 25 -24 2 21 4 0.92642180D-01 0.74498277D-02 0.17721246D+05 0.17721246D+05 0.17721246D+05 0.12396520D+01  1  2  1  2  6  2       21 0.139769821252D+00 0.100000000000D+01
  </mgrwgt>
  </event>
  <event>
  5     66 0.42980143E-03 0.24471991E+02 0.75467711E-02 0.12401446E+00
        1 -1    0    0  502    0 0.00000000E+00 0.00000000E+00 0.19680050E+04 0.19680050E+04 0.32000000E+00 0.0000E+00 0.9000E+01
       21 -1    0    0  501  502 0.00000000E+00 0.00000000E+00 -.90089261E+01 0.90400912E+01 0.75000000E+00 0.0000E+00 0.9000E+01
       25  1    1    2    0    0 -.11690729E+02 -.20770756E+02 0.10490449E+04 0.10567347E+04 0.12500000E+03 0.0000E+00 0.9000E+01
      -24  1    1    2    0    0 0.95726203E+01 -.36088336E+01 0.32887723E+03 0.33872129E+03 0.80419002E+02 0.0000E+00 0.9000E+01
        2  1    1    2  501    0 0.21181088E+01 0.24379589E+02 0.58107389E+03 0.58158905E+03 0.32000000E+00 0.0000E+00 0.9000E+01
#aMCatNLO 1  0  0  2  1 0.10913495D+02 0.00000000D+00  -5  6  0 0.00000000D+00 0.00000000D+00 0.00000000D+00 0.00000000D+00 0.00000000D+00
  <mgrwgt>
 0.2295124459D+00   23    2    0
 0.133268316018433D+03 0.000000000000000D+00 0.000000000000000D+00 0.133268316018433D+03
 0.133268316018433D+03 0.000000000000000D+00 0.000000000000000D+00 -.133268316018433D+03
 0.128077731400167D+03 -.116907570905324D+02 -.207710775322359D+02 0.145187402143997D+02
 0.952893604445601D+02 0.957259950795135D+01 -.360907307521506D+01 -.500817949933993D+02
 0.431695401921397D+02 0.211815758258101D+01 0.243801506074510D+02 0.355630547789997D+02
 0.000000000000000D+00 -.000000000000000D+00 0.000000000000000D+00 -.000000000000000D+00
 0.138156923769711D+03 0.000000000000000D+00 0.000000000000000D+00 0.138156923769711D+03
 0.139613283029941D+03 0.000000000000000D+00 0.000000000000000D+00 -.139613283029941D+03
 0.128327227918367D+03 -.754186967935320D+01 -.239834069627090D+02 0.145187402143997D+02
 0.957695926649954D+02 0.126641235075498D+02 -.600272528717071D+01 -.500817949933993D+02
 0.426631475360267D+02 0.350701588910332D+01 0.233048092036864D+02 0.355630547789997D+02
 0.110102386802631D+02 -.862926971729990D+01 0.668132304619336D+01 -.145635926022983D+01
0.245710883040D-05 0.000000000000D+00 0.000000000000D+00 0.323271702263D-06 0.000000000000D+00  6 1 21 25 -24 2 21 2 0.30277239D+00 0.13883879D-02 0.13547942D+05 0.13547942D+05 0.13547942D+05 0.12528952D+01  1  2  2  2  6  2       21 0.349588909511D-01 0.100000000000D+01
-.206854173154D-06 0.129665195330D-06 -.496019480414D-08 0.323271702263D-06 0.000000000000D+00  6 1 21 25 -24 2 21 4 0.30277239D+00 0.13883879D-02 0.13547942D+05 0.13547942D+05 0.13547942D+05 0.12528952D+01  1  2  3  2  6  2       21 -.461984069047D-02 0.100000000000D+01
0.249554426517D-06 0.000000000000D+00 0.000000000000D+00 0.323271702263D-06 0.000000000000D+00  6 1 21 25 -24 2 21 4 0.30277239D+00 0.13883879D-02 0.13547942D+05 0.13547942D+05 0.13547942D+05 0.12528952D+01  1  2 15  2  6  2       21 0.557349980682D-02 0.100000000000D+01
0.593492077720D-05 0.000000000000D+00 0.000000000000D+00 0.320937478312D-06 0.000000000000D+00  6 1 21 25 -24 2 21 4 0.30277239D+00 0.14788882D-02 0.14837070D+05 0.14837070D+05 0.14837070D+05 0.12483636D+01  1  2 12  2  6  2       21 0.118098872540D+00 0.100000000000D+01
-.241663449986D-05 0.000000000000D+00 0.000000000000D+00 0.323271702263D-06 0.000000000000D+00  6 1 21 25 -24 2 21 4 0.30277239D+00 0.13883879D-02 0.13547942D+05 0.13547942D+05 0.13547942D+05 0.12528952D+01  1  2  4  2  6  2       21 -.539726427861D-01 0.100000000000D+01
-.447477938382D-04 0.000000000000D+00 -.892560783819D-05 0.323271702263D-06 0.000000000000D+00  6 1 21 25 -24 2 21 4 0.30277239D+00 0.15180167D-02 0.13547942D+05 0.13547942D+05 0.13547942D+05 0.12528952D+01  1  2  5  2  6  2       21 -.867037948723D+00 0.100000000000D+01
0.448271831211D-04 0.000000000000D+00 0.878496645845D-05 0.323271702263D-06 0.000000000000D+00  6 1 21 25 -24 2 21 4 0.30277239D+00 0.13883879D-02 0.13547942D+05 0.13547942D+05 0.13547942D+05 0.12528952D+01  1  2  6  2  6  2       21 0.100116155002D+01 0.100000000000D+01
0.974584970150D-07 0.000000000000D+00 0.000000000000D+00 0.320937478312D-06 0.000000000000D+00  6 1 -1 25 -24 2 -1 4 0.30277239D+00 0.14788882D-02 0.14837070D+05 0.14837070D+05 0.14837070D+05 0.12483636D+01  1  2 12  5  6  2       21 0.884580181929D-04 0.100000000000D+01
-.839559571539D-06 0.000000000000D+00 -.200742415574D-06 0.323271702263D-06 0.000000000000D+00  6 1 -1 25 -24 2 -1 4 0.30277239D+00 0.15180167D-02 0.13547942D+05 0.13547942D+05 0.13547942D+05 0.12528952D+01  1  2  5  5  6  2       21 -.744213597552D-03 0.100000000000D+01
0.974584970150D-07 0.000000000000D+00 0.000000000000D+00 0.320937478312D-06 0.000000000000D+00  6 1 1 25 -24 2 1 4 0.30277239D+00 0.14788882D-02 0.14837070D+05 0.14837070D+05 0.14837070D+05 0.12483636D+01  1  2 12  6  6  2       21 0.918290740195D-04 0.100000000000D+01
-.839559571539D-06 0.000000000000D+00 -.200742415574D-06 0.323271702263D-06 0.000000000000D+00  6 1 1 25 -24 2 1 4 0.30277239D+00 0.15180167D-02 0.13547942D+05 0.13547942D+05 0.13547942D+05 0.12528952D+01  1  2  5  6  6  2       21 -.773389242441D-03 0.100000000000D+01
0.974584970150D-07 0.000000000000D+00 0.000000000000D+00 0.320937478312D-06 0.000000000000D+00  6 1 -2 25 -24 2 -2 4 0.30277239D+00 0.14788882D-02 0.14837070D+05 0.14837070D+05 0.14837070D+05 0.12483636D+01  1  2 12  7  6  2       21 0.878601789882D-04 0.100000000000D+01
-.839559571539D-06 0.000000000000D+00 -.200742415574D-06 0.323271702263D-06 0.000000000000D+00  6 1 -2 25 -24 2 -2 4 0.30277239D+00 0.15180167D-02 0.13547942D+05 0.13547942D+05 0.13547942D+05 0.12528952D+01  1  2  5  7  6  2       21 -.739032102892D-03 0.100000000000D+01
0.974584970150D-07 0.000000000000D+00 0.000000000000D+00 0.320937478312D-06 0.000000000000D+00  6 1 2 25 -24 2 2 4 0.30277239D+00 0.14788882D-02 0.14837070D+05 0.14837070D+05 0.14837070D+05 0.12483636D+01  1  2 12  8  6  2       21 0.941648627705D-04 0.100000000000D+01
-.839559571539D-06 0.000000000000D+00 -.200742415574D-06 0.323271702263D-06 0.000000000000D+00  6 1 2 25 -24 2 2 4 0.30277239D+00 0.15180167D-02 0.13547942D+05 0.13547942D+05 0.13547942D+05 0.12528952D+01  1  2  5  8  6  2       21 -.793590690748D-03 0.100000000000D+01
0.974584970150D-07 0.000000000000D+00 0.000000000000D+00 0.320937478312D-06 0.000000000000D+00  6 1 -3 25 -24 2 -3 4 0.30277239D+00 0.14788882D-02 0.14837070D+05 0.14837070D+05 0.14837070D+05 0.12483636D+01  1  2 12  9  6  2       21 0.696112202734D-04 0.100000000000D+01
0.974584970150D-07 0.000000000000D+00 0.000000000000D+00 0.320937478312D-06 0.000000000000D+00  6 1 -4 25 -24 2 -4 4 0.30277239D+00 0.14788882D-02 0.14837070D+05 0.14837070D+05 0.14837070D+05 0.12483636D+01  1  2 12  9  6  2       21 0.634045557208D-04 0.100000000000D+01
-.839559571539D-06 0.000000000000D+00 -.200742415574D-06 0.323271702263D-06 0.000000000000D+00  6 1 -3 25 -24 2 -3 4 0.30277239D+00 0.15180167D-02 0.13547942D+05 0.13547942D+05 0.13547942D+05 0.12528952D+01  1  2  5  9  6  2       21 -.583383566611D-03 0.100000000000D+01
-.839559571539D-06 0.000000000000D+00 -.200742415574D-06 0.323271702263D-06 0.000000000000D+00  6 1 -4 25 -24 2 -4 4 0.30277239D+00 0.15180167D-02 0.13547942D+05 0.13547942D+05 0.13547942D+05 0.12528952D+01  1  2  5  9  6  2       21 -.530655686490D-03 0.100000000000D+01
0.974584970150D-07 0.000000000000D+00 0.000000000000D+00 0.320937478312D-06 0.000000000000D+00  6 1 3 25 -24 2 3 4 0.30277239D+00 0.14788882D-02 0.14837070D+05 0.14837070D+05 0.14837070D+05 0.12483636D+01  1  2 12 10  6  2       21 0.696079049256D-04 0.100000000000D+01
0.974584970150D-07 0.000000000000D+00 0.000000000000D+00 0.320937478312D-06 0.000000000000D+00  6 1 4 25 -24 2 4 4 0.30277239D+00 0.14788882D-02 0.14837070D+05 0.14837070D+05 0.14837070D+05 0.12483636D+01  1  2 12 10  6  2       21 0.634045557208D-04 0.100000000000D+01
-.839559571539D-06 0.000000000000D+00 -.200742415574D-06 0.323271702263D-06 0.000000000000D+00  6 1 3 25 -24 2 3 4 0.30277239D+00 0.15180167D-02 0.13547942D+05 0.13547942D+05 0.13547942D+05 0.12528952D+01  1  2  5 10  6  2       21 -.583355041975D-03 0.100000000000D+01
-.839559571539D-06 0.000000000000D+00 -.200742415574D-06 0.323271702263D-06 0.000000000000D+00  6 1 4 25 -24 2 4 4 0.30277239D+00 0.15180167D-02 0.13547942D+05 0.13547942D+05 0.13547942D+05 0.12528952D+01  1  2  5 10  6  2       21 -.530655686490D-03 0.100000000000D+01
  </mgrwgt>
  </event>
  <event>
  5     66 0.42980143E-03 0.23783323E+02 0.75467711E-02 0.12231105E+00
        3 -1    0    0  502    0 0.00000000E+00 0.00000000E+00 0.77012933E+02 0.77014556E+02 0.50000000E+00 0.0000E+00 0.9000E+01
       21 -1    0    0  501  502 0.00000000E+00 0.00000000E+00 -.21429743E+03 0.21429874E+03 0.75000000E+00 0.0000E+00 0.9000E+01
       25  1    1    2    0    0 0.21180585E+02 0.93144958E+01 -.56322557E+02 0.13904175E+03 0.12500000E+03 0.0000E+00 0.9000E+01
      -24  1    1    2    0    0 -.43847804E+02 -.21763012E+01 -.30658230E+02 0.96615264E+02 0.80419002E+02 0.0000E+00 0.9000E+01
        4  1    1    2  501    0 0.22667219E+02 -.71381946E+01 -.50303709E+02 0.55656287E+02 0.15500000E+01 0.0000E+00 0.9000E+01
#aMCatNLO 1  0  0  2  1 0.22187629D+02 0.00000000D+00  -5  6  0 0.00000000D+00 0.00000000D+00 0.00000000D+00 0.00000000D+00 0.00000000D+00
  <mgrwgt>
 0.5942178609D-01   23    2    0
 0.128468288630587D+03 0.000000000000000D+00 0.000000000000000D+00 0.128468288630587D+03
 0.128468288630587D+03 0.000000000000000D+00 0.000000000000000D+00 -.128468288630587D+03
 0.127550458591989D+03 0.211702697536133D+02 0.931774433237752D+01 0.104459947416471D+02
 0.931659122370716D+02 -.438553389147430D+02 -.217392843932325D+01 0.168717080465765D+02
 0.362202064321120D+02 0.226850691611297D+02 -.714381589305427D+01 -.273177027882235D+02
 0.000000000000000D+00 -.000000000000000D+00 -.000000000000000D+00 -.000000000000000D+00
 0.136579319604748D+03 0.000000000000000D+00 0.000000000000000D+00 0.136579319604748D+03
 0.145070335245438D+03 0.000000000000000D+00 0.000000000000000D+00 -.145070335245438D+03
 0.129634164785407D+03 0.266968505354386D+02 0.189255394891632D+02 0.104459947416471D+02
 0.914616114221429D+02 -.398879208372100D+02 0.472330905616788D+01 0.168717080465765D+02
 0.367970224585400D+02 0.242541194745968D+02 -.441606891936339D+01 -.273177027882235D+02
 0.237568561840963D+02 -.110630491728253D+02 -.192327796259677D+02 -.849101564069030D+01
0.287595936321D-05 0.000000000000D+00 0.000000000000D+00 0.185654349148D-05 0.000000000000D+00  6 3 21 25 -24 4 21 2 0.11848369D-01 0.32969061D-01 0.14705299D+05 0.14705299D+05 0.14705299D+05 0.12488061D+01  1  2  2  2  6  2       21 0.105393787077D-01 0.100000000000D+01
0.195646903265D-06 0.151768545202D-06 -.580573335371D-08 0.185654349148D-05 0.000000000000D+00  6 3 21 25 -24 4 21 4 0.11848369D-01 0.32969061D-01 0.14705299D+05 0.14705299D+05 0.14705299D+05 0.12488061D+01  1  2  3  2  6  2       21 0.111813767692D-02 0.100000000000D+01
0.262777478194D-06 0.000000000000D+00 0.000000000000D+00 0.185654349148D-05 0.000000000000D+00  6 3 21 25 -24 4 21 4 0.11848369D-01 0.32969061D-01 0.14705299D+05 0.14705299D+05 0.14705299D+05 0.12488061D+01  1  2 15  2  6  2       21 0.150179427382D-02 0.100000000000D+01
0.469941497430D-05 0.000000000000D+00 0.000000000000D+00 0.182974527935D-05 0.000000000000D+00  6 3 21 25 -24 4 21 4 0.11848369D-01 0.38166485D-01 0.17681700D+05 0.17681700D+05 0.17681700D+05 0.12397604D+01  1  2 12  2  6  2       21 0.196898005686D-01 0.100000000000D+01
-.113852693470D-05 0.000000000000D+00 0.000000000000D+00 0.185654349148D-05 0.000000000000D+00  6 3 21 25 -24 4 21 4 0.11848369D-01 0.32969061D-01 0.14705299D+05 0.14705299D+05 0.14705299D+05 0.12488061D+01  1  2  4  2  6  2       21 -.650677235689D-02 0.100000000000D+01
-.233354736902D-04 0.000000000000D+00 -.558637089784D-05 0.185654349148D-05 0.000000000000D+00  6 3 21 25 -24 4 21 4 0.11848369D-01 0.39336637D-01 0.14705299D+05 0.14705299D+05 0.14705299D+05 0.12488061D+01  1  2  5  2  6  2       21 -.942106610788D-01 0.100000000000D+01
0.227325879710D-04 0.000000000000D+00 0.525279024751D-05 0.185654349148D-05 0.000000000000D+00  6 3 21 25 -24 4 21 4 0.11848369D-01 0.32969061D-01 0.14705299D+05 0.14705299D+05 0.14705299D+05 0.12488061D+01  1  2  6  2  6  2       21 0.129918555725D+00 0.100000000000D+01
0.186045424462D-06 0.000000000000D+00 0.000000000000D+00 0.182974527935D-05 0.000000000000D+00  6 3 -3 25 -24 4 -3 4 0.11848369D-01 0.38166485D-01 0.17681700D+05 0.17681700D+05 0.17681700D+05 0.12397604D+01  1  2 12  5  6  2       21 0.381882284293D-04 0.100000000000D+01
-.102168228278D-05 0.000000000000D+00 -.276038129443D-06 0.185654349148D-05 0.000000000000D+00  6 3 -3 25 -24 4 -3 4 0.11848369D-01 0.39336637D-01 0.14705299D+05 0.14705299D+05 0.14705299D+05 0.12488061D+01  1  2  5  5  6  2       21 -.200788252292D-03 0.100000000000D+01
0.186045424462D-06 0.000000000000D+00 0.000000000000D+00 0.182974527935D-05 0.000000000000D+00  6 3 3 25 -24 4 3 4 0.11848369D-01 0.38166485D-01 0.17681700D+05 0.17681700D+05 0.17681700D+05 0.12397604D+01  1  2 12  6  6  2       21 0.381941456034D-04 0.100000000000D+01
-.102168228278D-05 0.000000000000D+00 -.276038129443D-06 0.185654349148D-05 0.000000000000D+00  6 3 3 25 -24 4 3 4 0.11848369D-01 0.39336637D-01 0.14705299D+05 0.14705299D+05 0.14705299D+05 0.12488061D+01  1  2  5  6  6  2       21 -.200823080280D-03 0.100000000000D+01
0.186045424462D-06 0.000000000000D+00 0.000000000000D+00 0.182974527935D-05 0.000000000000D+00  6 3 -4 25 -24 4 -4 4 0.11848369D-01 0.38166485D-01 0.17681700D+05 0.17681700D+05 0.17681700D+05 0.12397604D+01  1  2 12  7  6  2       21 0.316780104411D-04 0.100000000000D+01
-.102168228278D-05 0.000000000000D+00 -.276038129443D-06 0.185654349148D-05 0.000000000000D+00  6 3 -4 25 -24 4 -4 4 0.11848369D-01 0.39336637D-01 0.14705299D+05 0.14705299D+05 0.14705299D+05 0.12488061D+01  1  2  5  7  6  2       21 -.165980627308D-03 0.100000000000D+01
0.186045424462D-06 0.000000000000D+00 0.000000000000D+00 0.182974527935D-05 0.000000000000D+00  6 3 4 25 -24 4 4 4 0.11848369D-01 0.38166485D-01 0.17681700D+05 0.17681700D+05 0.17681700D+05 0.12397604D+01  1  2 12  8  6  2       21 0.316780104411D-04 0.100000000000D+01
-.102168228278D-05 0.000000000000D+00 -.276038129443D-06 0.185654349148D-05 0.000000000000D+00  6 3 4 25 -24 4 4 4 0.11848369D-01 0.39336637D-01 0.14705299D+05 0.14705299D+05 0.14705299D+05 0.12488061D+01  1  2  5  8  6  2       21 -.165980627308D-03 0.100000000000D+01
0.186045424462D-06 0.000000000000D+00 0.000000000000D+00 0.182974527935D-05 0.000000000000D+00  6 3 -1 25 -24 4 -1 4 0.11848369D-01 0.38166485D-01 0.17681700D+05 0.17681700D+05 0.17681700D+05 0.12397604D+01  1  2 12  9  6  2       21 0.714683026620D-04 0.100000000000D+01
0.186045424462D-06 0.000000000000D+00 0.000000000000D+00 0.182974527935D-05 0.000000000000D+00  6 3 -2 25 -24 4 -2 4 0.11848369D-01 0.38166485D-01 0.17681700D+05 0.17681700D+05 0.17681700D+05 0.12397604D+01  1  2 12  9  6  2       21 0.607976041858D-04 0.100000000000D+01
-.102168228278D-05 0.000000000000D+00 -.276038129443D-06 0.185654349148D-05 0.000000000000D+00  6 3 -1 25 -24 4 -1 4 0.11848369D-01 0.39336637D-01 0.14705299D+05 0.14705299D+05 0.14705299D+05 0.12488061D+01  1  2  5  9  6  2       21 -.379555715664D-03 0.100000000000D+01
-.102168228278D-05 0.000000000000D+00 -.276038129443D-06 0.185654349148D-05 0.000000000000D+00  6 3 -2 25 -24 4 -2 4 0.11848369D-01 0.39336637D-01 0.14705299D+05 0.14705299D+05 0.14705299D+05 0.12488061D+01  1  2  5  9  6  2       21 -.321397084092D-03 0.100000000000D+01
0.186045424462D-06 0.000000000000D+00 0.000000000000D+00 0.182974527935D-05 0.000000000000D+00  6 3 1 25 -24 4 1 4 0.11848369D-01 0.38166485D-01 0.17681700D+05 0.17681700D+05 0.17681700D+05 0.12397604D+01  1  2 12 10  6  2       21 0.140583574637D-03 0.100000000000D+01
0.186045424462D-06 0.000000000000D+00 0.000000000000D+00 0.182974527935D-05 0.000000000000D+00  6 3 2 25 -24 4 2 4 0.11848369D-01 0.38166485D-01 0.17681700D+05 0.17681700D+05 0.17681700D+05 0.12397604D+01  1  2 12 10  6  2       21 0.192098326360D-03 0.100000000000D+01
-.102168228278D-05 0.000000000000D+00 -.276038129443D-06 0.185654349148D-05 0.000000000000D+00  6 3 1 25 -24 4 1 4 0.11848369D-01 0.39336637D-01 0.14705299D+05 0.14705299D+05 0.14705299D+05 0.12488061D+01  1  2  5 10  6  2       21 -.758006585983D-03 0.100000000000D+01
-.102168228278D-05 0.000000000000D+00 -.276038129443D-06 0.185654349148D-05 0.000000000000D+00  6 3 2 25 -24 4 2 4 0.11848369D-01 0.39336637D-01 0.14705299D+05 0.14705299D+05 0.14705299D+05 0.12488061D+01  1  2  5 10  6  2       21 -.104060165223D-02 0.100000000000D+01
  </mgrwgt>
  </event>
  <event>
  5     66 -.42980143E-03 0.61246231E+02 0.75467711E-02 0.11726146E+00
        1 -1    0    0  502    0 0.00000000E+00 0.00000000E+00 0.12579120E+04 0.12579120E+04 0.32000000E+00 0.0000E+00 0.9000E+01
       21 -1    0    0  501  502 0.00000000E+00 0.00000000E+00 -.21108637E+02 0.21121956E+02 0.75000000E+00 0.0000E+00 0.9000E+01
       25  1    1    2    0    0 0.35591151E+02 -.31603390E+01 0.84391181E+03 0.85386701E+03 0.12500000E+03 0.0000E+00 0.9000E+01
      -24  1    1    2    0    0 0.24886060E+02 -.65131391E+01 0.31477862E+03 0.32590571E+03 0.80419002E+02 0.0000E+00 0.9000E+01
        2  1    1    2  501    0 -.60477211E+02 0.96734781E+01 0.78112933E+02 0.99261281E+02 0.32000000E+00 0.0000E+00 0.9000E+01
#aMCatNLO 1  0  0  2  5 0.22061670D+01 0.00000000D+00  -5  6  0 0.00000000D+00 0.00000000D+00 0.00000000D+00 0.00000000D+00 0.00000000D+00
  <mgrwgt>
 -.1323759012D+00   12    2    0
 0.162976536199103D+03 0.000000000000000D+00 0.000000000000000D+00 0.162976536199103D+03
 0.162976536199103D+03 0.000000000000000D+00 0.000000000000000D+00 -.162976536199103D+03
 0.148401745099822D+03 0.355913137396449D+02 -.316036498366396D+01 0.715635970876861D+02
 0.844453981432073D+02 0.248861523357928D+02 -.651315393686703D+01 -.143790156431053D+01
 0.931059291551766D+02 -.604774660754376D+02 0.967351892053099D+01 -.701256955233756D+02
 0.000000000000000D+00 0.000000000000000D+00 0.000000000000000D+00 -.000000000000000D+00
 0.170387300022842D+03 0.000000000000000D+00 0.000000000000000D+00 0.170387300022842D+03
 0.423289899232119D+03 0.000000000000000D+00 0.000000000000000D+00 -.423289899232119D+03
 0.148746244044534D+03 0.224386732620134D+02 -.295905834931994D+02 0.715635970876861D+02
 0.850742418889531D+02 0.173827164698433D+02 -.215913011611149D+02 -.143790156431053D+01
 0.986314746013086D+02 -.689643252494986D+02 -.738081650447852D+01 -.701256955233756D+02
 0.261225238720166D+03 0.291429355176419D+02 0.585627011587928D+02 -.252902599209277D+03
0.123979227338D-05 0.000000000000D+00 0.000000000000D+00 0.817652680771D-06 0.000000000000D+00  6 1 21 25 -24 2 21 2 0.19352595D+00 0.32485103D-02 0.19000698D+05 0.19000698D+05 0.19000698D+05 0.12362843D+01  1  2  2  2  6  2       21 0.124425540922D-01 0.100000000000D+01
-.133097267856D-07 0.654256357343D-07 -.250278339998D-08 0.817652680771D-06 0.000000000000D+00  6 1 21 25 -24 2 21 4 0.19352595D+00 0.32485103D-02 0.19000698D+05 0.19000698D+05 0.19000698D+05 0.12362843D+01  1  2  3  2  6  2       21 -.204158019989D-03 0.100000000000D+01
0.115360352275D-06 0.000000000000D+00 0.000000000000D+00 0.817652680771D-06 0.000000000000D+00  6 1 21 25 -24 2 21 4 0.19352595D+00 0.32485103D-02 0.19000698D+05 0.19000698D+05 0.19000698D+05 0.12362843D+01  1  2 15  2  6  2       21 0.176951349078D-02 0.100000000000D+01
-.440336675189D-04 0.000000000000D+00 -.258403590533D-05 0.817652680771D-06 0.000000000000D+00  6 1 21 25 -24 2 21 4 0.19352595D+00 0.87953806D-02 0.19000698D+05 0.19000698D+05 0.19000698D+05 0.12362843D+01  1  2  5  2  6  2       21 -.125521628058D+00 0.100000000000D+01
-.160769067747D-04 0.000000000000D+00 -.860262039099D-06 0.817652680771D-06 0.000000000000D+00  6 1 -1 25 -24 2 -1 4 0.19352595D+00 0.87953806D-02 0.19000698D+05 0.19000698D+05 0.19000698D+05 0.12362843D+01  1  2  5  5  6  2       21 -.295375600487D-02 0.100000000000D+01
-.160769067747D-04 0.000000000000D+00 -.860262039099D-06 0.817652680771D-06 0.000000000000D+00  6 1 1 25 -24 2 1 4 0.19352595D+00 0.87953806D-02 0.19000698D+05 0.19000698D+05 0.19000698D+05 0.12362843D+01  1  2  5  6  6  2       21 -.361250380664D-02 0.100000000000D+01
-.160769067747D-04 0.000000000000D+00 -.860262039099D-06 0.817652680771D-06 0.000000000000D+00  6 1 -2 25 -24 2 -2 4 0.19352595D+00 0.87953806D-02 0.19000698D+05 0.19000698D+05 0.19000698D+05 0.12362843D+01  1  2  5  7  6  2       21 -.283906952053D-02 0.100000000000D+01
-.160769067747D-04 0.000000000000D+00 -.860262039099D-06 0.817652680771D-06 0.000000000000D+00  6 1 2 25 -24 2 2 4 0.19352595D+00 0.87953806D-02 0.19000698D+05 0.19000698D+05 0.19000698D+05 0.12362843D+01  1  2  5  8  6  2       21 -.405616932924D-02 0.100000000000D+01
-.160769067747D-04 0.000000000000D+00 -.860262039099D-06 0.817652680771D-06 0.000000000000D+00  6 1 -3 25 -24 2 -3 4 0.19352595D+00 0.87953806D-02 0.19000698D+05 0.19000698D+05 0.19000698D+05 0.12362843D+01  1  2  5  9  6  2       21 -.197191452726D-02 0.100000000000D+01
-.160769067747D-04 0.000000000000D+00 -.860262039099D-06 0.817652680771D-06 0.000000000000D+00  6 1 -4 25 -24 2 -4 4 0.19352595D+00 0.87953806D-02 0.19000698D+05 0.19000698D+05 0.19000698D+05 0.12362843D+01  1  2  5  9  6  2       21 -.172854962826D-02 0.100000000000D+01
-.160769067747D-04 0.000000000000D+00 -.860262039099D-06 0.817652680771D-06 0.000000000000D+00  6 1 3 25 -24 2 3 4 0.19352595D+00 0.87953806D-02 0.19000698D+05 0.19000698D+05 0.19000698D+05 0.12362843D+01  1  2  5 10  6  2       21 -.197167021813D-02 0.100000000000D+01
-.160769067747D-04 0.000000000000D+00 -.860262039099D-06 0.817652680771D-06 0.000000000000D+00  6 1 4 25 -24 2 4 4 0.19352595D+00 0.87953806D-02 0.19000698D+05 0.19000698D+05 0.19000698D+05 0.12362843D+01  1  2  5 10  6  2       21 -.172854962826D-02 0.100000000000D+01
  </mgrwgt>
  </event>
  <event>
  6     66 0.42980143E-03 0.12093913E+03 0.75467711E-02 0.11565135E+00
        1 -1    0    0  502    0 0.00000000E+00 0.00000000E+00 0.43283351E+03 0.43283363E+03 0.32000000E+00 0.0000E+00 0.9000E+01
       21 -1    0    0  501  502 0.00000000E+00 0.00000000E+00 -.12445495E+03 0.12445721E+03 0.75000000E+00 0.0000E+00 0.9000E+01
       25  1    1    2    0    0 -.57540309E+02 -.77852791E+02 0.21618616E+03 0.26783092E+03 0.12500000E+03 0.0000E+00 0.9000E+01
      -24  1    1    2    0    0 0.34132279E+02 -.45346359E+02 0.12326282E+03 0.15774106E+03 0.80419002E+02 0.0000E+00 0.9000E+01
        2  1    1    2  503    0 0.28477688E+02 0.11079295E+03 -.25601932E+02 0.11722465E+03 0.32000000E+00 0.0000E+00 0.9000E+01
       21  1    1    2  501  503 -.50696584E+01 0.12406198E+02 -.54684946E+01 0.14494210E+02 0.75000000E+00 0.0000E+00 0.9000E+01
#aMCatNLO 2  0  0  5  2 0.81449840D+01 0.00000000D+00  -5  6  0 0.00000000D+00 0.00000000D+00 0.00000000D+00 0.00000000D+00 0.00000000D+00
  <mgrwgt>
 0.2944687423D-01    5    2    0
 0.232096827188269D+03 0.000000000000000D+00 0.000000000000000D+00 0.232096827188269D+03
 0.232096827188269D+03 -.000000000000000D+00 -.000000000000000D+00 -.232096827188269D+03
 0.178405468539728D+03 -.576345084190980D+02 -.783485742012005D+02 0.821174498191942D+02
 0.107720463268968D+03 0.340753863362955D+02 -.456457915424550D+02 0.434949653753801D+02
 0.178067722567842D+03 0.235591220828025D+02 0.123994365743655D+03 -.125612415194574D+03
 0.000000000000000D+00 0.000000000000000D+00 0.000000000000000D+00 -.000000000000000D+00
 0.232096827188269D+03 0.000000000000000D+00 0.000000000000000D+00 0.232096827188269D+03
 0.232096827188269D+03 -.000000000000000D+00 -.000000000000000D+00 -.232096827188269D+03
 0.177926296889528D+03 -.575401883579695D+02 -.778521568849937D+02 0.816145545653723D+02
 0.107489412830434D+03 0.341323518124009D+02 -.453459756981231D+02 0.431912371205173D+02
 0.157771125104371D+03 0.285110801193702D+02 0.110815921789856D+03 -.108621718385369D+03
 0.210068195522047D+02 -.510324357380169D+01 0.123822107932604D+02 -.161840733005201D+02
-.122722829198D-04 0.000000000000D+00 0.000000000000D+00 0.533298210430D-06 0.000000000000D+00  6 1 21 25 -24 2 21 4 0.66589953D-01 0.19147099D-01 0.36931515D+05 0.36931515D+05 0.36931515D+05 0.12055363D+01  1  2 13  3  6  5        2 -.390896065318D-01 0.100000000000D+01
-.254679824454D-06 0.000000000000D+00 0.000000000000D+00 0.533545965174D-06 0.000000000000D+00  6 1 21 25 -24 2 21 4 0.66589953D-01 0.19147099D-01 0.36699975D+05 0.36699975D+05 0.36699975D+05 0.12058163D+01  1  2  8  3  6  5        2 -.812033034083D-03 0.100000000000D+01
-.407613861249D-11 0.000000000000D+00 0.000000000000D+00 0.533545965174D-06 0.000000000000D+00  6 1 21 25 -24 2 21 4 0.66589953D-01 0.19147099D-01 0.36699975D+05 0.36699975D+05 0.36699975D+05 0.12058163D+01  1  2  9  3  6  5        2 -.129965505196D-07 0.100000000000D+01
0.458514667189D-11 0.000000000000D+00 0.000000000000D+00 0.533545965174D-06 0.000000000000D+00  6 1 21 25 -24 2 21 4 0.66589953D-01 0.19147099D-01 0.36699975D+05 0.36699975D+05 0.36699975D+05 0.12058163D+01  1  2 10  3  6  5        2 0.146194955634D-07 0.100000000000D+01
0.217721444912D-04 0.000000000000D+00 0.000000000000D+00 0.533545965174D-06 0.898683187695D-07  6 1 21 25 -24 2 21 4 0.66589953D-01 0.19147099D-01 0.36931515D+05 0.36931515D+05 0.36931515D+05 0.12055363D+01  1  2  1  3  6  5        2 0.693485121777D-01 0.100000000000D+01
  </mgrwgt>
  </event>
  <event>
  5     66 0.42980143E-03 0.26708862E+02 0.75467711E-02 0.12162964E+00
        1 -1    0    0  502    0 0.00000000E+00 0.00000000E+00 0.24290619E+04 0.24290620E+04 0.32000000E+00 0.0000E+00 0.9000E+01
       21 -1    0    0  501  502 0.00000000E+00 0.00000000E+00 -.17211785E+02 0.17228118E+02 0.75000000E+00 0.0000E+00 0.9000E+01
       25  1    1    2    0    0 0.25977127E+02 0.45172602E+02 0.12417982E+04 0.12491610E+04 0.12500000E+03 0.0000E+00 0.9000E+01
      -24  1    1    2    0    0 -.44406604E+02 -.25840887E+02 0.11662515E+04 0.11701494E+04 0.80419002E+02 0.0000E+00 0.9000E+01
        2  1    1    2  501    0 0.18429477E+02 -.19331716E+02 0.38004336E+01 0.26979743E+02 0.32000000E+00 0.0000E+00 0.9000E+01
#aMCatNLO 1  0  0  2  1 0.19676801D+02 0.00000000D+00  -5  6  0 0.00000000D+00 0.00000000D+00 0.00000000D+00 0.00000000D+00 0.00000000D+00
  <mgrwgt>
 0.3002873220D+00   23    2    0
 0.204520159476210D+03 0.000000000000000D+00 0.000000000000000D+00 0.204520159476210D+03
 0.204520159476210D+03 0.000000000000000D+00 0.000000000000000D+00 -.204520159476210D+03
 0.148589131050067D+03 0.259771096500869D+02 0.451726210660965D+02 0.611420799978241D+02
 0.121506083168605D+03 -.444066186147063D+02 -.258408716532557D+02 0.752117934104312D+02
 0.138945104733749D+03 0.184295089646194D+02 -.193317494128408D+02 -.136353873408255D+03
 0.000000000000000D+00 -.000000000000000D+00 -.000000000000000D+00 -.000000000000000D+00
 0.208658641250937D+03 0.000000000000000D+00 0.000000000000000D+00 0.208658641250937D+03
 0.229563062494523D+03 0.000000000000000D+00 0.000000000000000D+00 -.229563062494523D+03
 0.151227704445601D+03 0.284016260636180D+02 0.519597178819159D+02 0.611420799978241D+02
 0.119757350478215D+03 -.424556035761594D+02 -.203792761442148D+02 0.752117934104312D+02
 0.138528264780697D+03 0.206733413951544D+02 -.130504523015805D+02 -.136353873408255D+03
 0.287083840409459D+02 -.661936388261297D+01 -.185299894361205D+02 -.209044212435853D+02
0.138260730319D-04 0.000000000000D+00 0.000000000000D+00 0.729458588239D-05 0.000000000000D+00  6 1 21 25 -24 2 21 2 0.37370309D+00 0.26492250D-02 0.16585017D+05 0.16585017D+05 0.16585017D+05 0.12428797D+01  1  2  2  2  6  2       21 0.346362763968D-01 0.100000000000D+01
0.285998484935D-05 0.729621919124D-06 -.279108579832D-07 0.729458588239D-05 0.000000000000D+00  6 1 21 25 -24 2 21 4 0.37370309D+00 0.26492250D-02 0.16585017D+05 0.16585017D+05 0.16585017D+05 0.12428797D+01  1  2  3  2  6  2       21 0.110676214907D-01 0.100000000000D+01
0.122487321623D-05 0.000000000000D+00 0.000000000000D+00 0.729458588239D-05 0.000000000000D+00  6 1 21 25 -24 2 21 4 0.37370309D+00 0.26492250D-02 0.16585017D+05 0.16585017D+05 0.16585017D+05 0.12428797D+01  1  2 15  2  6  2       21 0.474003669438D-02 0.100000000000D+01
0.602817649857D-04 0.000000000000D+00 0.000000000000D+00 0.721758183386D-05 0.000000000000D+00  6 1 21 25 -24 2 21 4 0.37370309D+00 0.29982808D-02 0.18993617D+05 0.18993617D+05 0.18993617D+05 0.12363022D+01  1  2 12  2  6  2       21 0.185752930885D+00 0.100000000000D+01
-.176555754399D-04 0.000000000000D+00 0.000000000000D+00 0.729458588239D-05 0.000000000000D+00  6 1 21 25 -24 2 21 4 0.37370309D+00 0.26492250D-02 0.16585017D+05 0.16585017D+05 0.16585017D+05 0.12428797D+01  1  2  4  2  6  2       21 -.683238675945D-01 0.100000000000D+01
-.193492703654D-03 0.000000000000D+00 -.336886928090D-04 0.729458588239D-05 0.000000000000D+00  6 1 21 25 -24 2 21 4 0.37370309D+00 0.30452847D-02 0.16585017D+05 0.16585017D+05 0.16585017D+05 0.12428797D+01  1  2  5  2  6  2       21 -.596154884623D+00 0.100000000000D+01
0.189651695435D-03 0.000000000000D+00 0.324158811200D-04 0.729458588239D-05 0.000000000000D+00  6 1 21 25 -24 2 21 4 0.37370309D+00 0.26492250D-02 0.16585017D+05 0.16585017D+05 0.16585017D+05 0.12428797D+01  1  2  6  2  6  2       21 0.733917587228D+00 0.100000000000D+01
0.196393630166D-05 0.000000000000D+00 0.000000000000D+00 0.721758183386D-05 0.000000000000D+00  6 1 -1 25 -24 2 -1 4 0.37370309D+00 0.29982808D-02 0.18993617D+05 0.18993617D+05 0.18993617D+05 0.12363022D+01  1  2 12  5  6  2       21 0.313403402307D-03 0.100000000000D+01
-.673644394470D-05 0.000000000000D+00 -.125886964140D-05 0.729458588239D-05 0.000000000000D+00  6 1 -1 25 -24 2 -1 4 0.37370309D+00 0.30452847D-02 0.16585017D+05 0.16585017D+05 0.16585017D+05 0.12428797D+01  1  2  5  5  6  2       21 -.107586904118D-02 0.100000000000D+01
0.196393630166D-05 0.000000000000D+00 0.000000000000D+00 0.721758183386D-05 0.000000000000D+00  6 1 1 25 -24 2 1 4 0.37370309D+00 0.29982808D-02 0.18993617D+05 0.18993617D+05 0.18993617D+05 0.12363022D+01  1  2 12  6  6  2       21 0.337333486688D-03 0.100000000000D+01
-.673644394470D-05 0.000000000000D+00 -.125886964140D-05 0.729458588239D-05 0.000000000000D+00  6 1 1 25 -24 2 1 4 0.37370309D+00 0.30452847D-02 0.16585017D+05 0.16585017D+05 0.16585017D+05 0.12428797D+01  1  2  5  6  6  2       21 -.115951984087D-02 0.100000000000D+01
0.196393630166D-05 0.000000000000D+00 0.000000000000D+00 0.721758183386D-05 0.000000000000D+00  6 1 -2 25 -24 2 -2 4 0.37370309D+00 0.29982808D-02 0.18993617D+05 0.18993617D+05 0.18993617D+05 0.12363022D+01  1  2 12  7  6  2       21 0.309116960255D-03 0.100000000000D+01
-.673644394470D-05 0.000000000000D+00 -.125886964140D-05 0.729458588239D-05 0.000000000000D+00  6 1 -2 25 -24 2 -2 4 0.37370309D+00 0.30452847D-02 0.16585017D+05 0.16585017D+05 0.16585017D+05 0.12428797D+01  1  2  5  7  6  2       21 -.106088477239D-02 0.100000000000D+01
0.196393630166D-05 0.000000000000D+00 0.000000000000D+00 0.721758183386D-05 0.000000000000D+00  6 1 2 25 -24 2 2 4 0.37370309D+00 0.29982808D-02 0.18993617D+05 0.18993617D+05 0.18993617D+05 0.12363022D+01  1  2 12  8  6  2       21 0.353599832948D-03 0.100000000000D+01
-.673644394470D-05 0.000000000000D+00 -.125886964140D-05 0.729458588239D-05 0.000000000000D+00  6 1 2 25 -24 2 2 4 0.37370309D+00 0.30452847D-02 0.16585017D+05 0.16585017D+05 0.16585017D+05 0.12428797D+01  1  2  5  8  6  2       21 -.121633510246D-02 0.100000000000D+01
0.196393630166D-05 0.000000000000D+00 0.000000000000D+00 0.721758183386D-05 0.000000000000D+00  6 1 -3 25 -24 2 -3 4 0.37370309D+00 0.29982808D-02 0.18993617D+05 0.18993617D+05 0.18993617D+05 0.12363022D+01  1  2 12  9  6  2       21 0.233997375724D-03 0.100000000000D+01
0.196393630166D-05 0.000000000000D+00 0.000000000000D+00 0.721758183386D-05 0.000000000000D+00  6 1 -4 25 -24 2 -4 4 0.37370309D+00 0.29982808D-02 0.18993617D+05 0.18993617D+05 0.18993617D+05 0.12363022D+01  1  2 12  9  6  2       21 0.210949826024D-03 0.100000000000D+01
-.673644394470D-05 0.000000000000D+00 -.125886964140D-05 0.729458588239D-05 0.000000000000D+00  6 1 -3 25 -24 2 -3 4 0.37370309D+00 0.30452847D-02 0.16585017D+05 0.16585017D+05 0.16585017D+05 0.12428797D+01  1  2  5  9  6  2       21 -.799784956945D-03 0.100000000000D+01
-.673644394470D-05 0.000000000000D+00 -.125886964140D-05 0.729458588239D-05 0.000000000000D+00  6 1 -4 25 -24 2 -4 4 0.37370309D+00 0.30452847D-02 0.16585017D+05 0.16585017D+05 0.16585017D+05 0.12428797D+01  1  2  5  9  6  2       21 -.719795607850D-03 0.100000000000D+01
0.196393630166D-05 0.000000000000D+00 0.000000000000D+00 0.721758183386D-05 0.000000000000D+00  6 1 3 25 -24 2 3 4 0.37370309D+00 0.29982808D-02 0.18993617D+05 0.18993617D+05 0.18993617D+05 0.12363022D+01  1  2 12 10  6  2       21 0.233979985696D-03 0.100000000000D+01
0.196393630166D-05 0.000000000000D+00 0.000000000000D+00 0.721758183386D-05 0.000000000000D+00  6 1 4 25 -24 2 4 4 0.37370309D+00 0.29982808D-02 0.18993617D+05 0.18993617D+05 0.18993617D+05 0.12363022D+01  1  2 12 10  6  2       21 0.210949826024D-03 0.100000000000D+01
-.673644394470D-05 0.000000000000D+00 -.125886964140D-05 0.729458588239D-05 0.000000000000D+00  6 1 3 25 -24 2 3 4 0.37370309D+00 0.30452847D-02 0.16585017D+05 0.16585017D+05 0.16585017D+05 0.12428797D+01  1  2  5 10  6  2       21 -.799724268039D-03 0.100000000000D+01
-.673644394470D-05 0.000000000000D+00 -.125886964140D-05 0.729458588239D-05 0.000000000000D+00  6 1 4 25 -24 2 4 4 0.37370309D+00 0.30452847D-02 0.16585017D+05 0.16585017D+05 0.16585017D+05 0.12428797D+01  1  2  5 10  6  2       21 -.719795607850D-03 0.100000000000D+01
  </mgrwgt>
  </event>
  <event>
  5     66 -.42980143E-03 0.23522568E+02 0.75467711E-02 0.12210923E+00
        1 -1    0    0  502    0 0.00000000E+00 0.00000000E+00 0.90303448E+02 0.90304015E+02 0.32000000E+00 0.0000E+00 0.9000E+01
       21 -1    0    0  501  502 0.00000000E+00 0.00000000E+00 -.23178477E+03 0.23178598E+03 0.75000000E+00 0.0000E+00 0.9000E+01
       25  1    1    2    0    0 0.88774161E+01 -.12314515E+02 -.68488209E+02 0.14333908E+03 0.12500000E+03 0.0000E+00 0.9000E+01
      -24  1    1    2    0    0 -.80347186E+01 0.35821689E+02 0.13220559E+02 0.89385397E+02 0.80419002E+02 0.0000E+00 0.9000E+01
        2  1    1    2  501    0 -.84269748E+00 -.23507174E+02 -.86213669E+02 0.89365522E+02 0.32000000E+00 0.0000E+00 0.9000E+01
#aMCatNLO 1  0  0  1  1 0.29323394D+02 0.00000000D+00  -5  6  0 0.00000000D+00 0.00000000D+00 0.00000000D+00 0.00000000D+00 0.00000000D+00
  <mgrwgt>
 -.2015591521D+00    5    2    0
 0.144676363946477D+03 0.000000000000000D+00 0.000000000000000D+00 0.144676363946477D+03
 0.144676363946477D+03 0.000000000000000D+00 0.000000000000000D+00 -.144676363946477D+03
 0.126068521281928D+03 0.887742178638293D+01 -.123143552048138D+02 -.614980459269789D+01
 0.105962937103564D+03 -.803471377221433D+01 0.358218234201971D+02 0.584223281519502D+02
 0.573212695074611D+02 -.842708014168607D+00 -.235074682153833D+02 -.522725235592524D+02
 0.000000000000000D+00 0.000000000000000D+00 -.000000000000000D+00 0.000000000000000D+00
 0.557209798951722D+03 0.000000000000000D+00 0.000000000000000D+00 0.557209798951722D+03
 0.145939407876183D+03 0.000000000000000D+00 0.000000000000000D+00 -.145939407876183D+03
 0.125533557267562D+03 -.344275536102008D+01 -.916522445136969D+01 -.614980459269789D+01
 0.108193566740360D+03 -.185212967123733D+02 0.385022735825845D+02 0.584223281519502D+02
 0.571076445268321D+02 -.644593871804429D+01 -.220752399351320D+02 -.522725235592524D+02
 0.412314438293151D+03 0.284099907914377D+02 -.726180919608283D+01 0.411270391075539D+03
0.667428638068D-06 0.000000000000D+00 0.000000000000D+00 0.259394699739D-05 0.000000000000D+00  6 1 21 25 -24 2 21 2 0.13892975D-01 0.35659332D-01 0.14142365D+05 0.14142365D+05 0.14142365D+05 0.12507480D+01  1  2  2  1  6  1        1 0.348110075986D-02 0.100000000000D+01
0.692793716099D-07 0.352211768780D-07 -.134734612554D-08 0.259394699739D-05 0.000000000000D+00  6 1 21 25 -24 2 21 4 0.13892975D-01 0.35659332D-01 0.14142365D+05 0.14142365D+05 0.14142365D+05 0.12507480D+01  1  2  3  1  6  1        1 0.565269235839D-03 0.100000000000D+01
0.699706895939D-07 0.000000000000D+00 0.000000000000D+00 0.259394699739D-05 0.000000000000D+00  6 1 21 25 -24 2 21 4 0.13892975D-01 0.35659332D-01 0.14142365D+05 0.14142365D+05 0.14142365D+05 0.12507480D+01  1  2 15  1  6  1        1 0.570909887298D-03 0.100000000000D+01
-.815345987105D-04 0.000000000000D+00 -.803676078877D-06 0.259394699739D-05 0.000000000000D+00  6 1 21 25 -24 2 21 4 0.53628795D-01 0.35659332D-01 0.14142365D+05 0.14142365D+05 0.14142365D+05 0.12507480D+01  1  2  5  1  6  1        1 -.122650976391D+00 0.100000000000D+01
-.130658555939D-04 0.000000000000D+00 -.128926509427D-06 0.259394699739D-05 0.000000000000D+00  6 21 21 25 -24 2 -1 4 0.53628795D-01 0.35659332D-01 0.14142365D+05 0.14142365D+05 0.14142365D+05 0.12507480D+01  1  2  5  4  6  1        1 -.835254555873D-01 0.100000000000D+01
  </mgrwgt>
  </event>
  <event>
  5     66 0.42980143E-03 0.20645670E+02 0.75467711E-02 0.11818275E+00
        1 -1    0    0  502    0 0.00000000E+00 0.00000000E+00 0.45483309E+03 0.45483321E+03 0.32000000E+00 0.0000E+00 0.9000E+01
       21 -1    0    0  501  502 0.00000000E+00 0.00000000E+00 -.74087273E+02 0.74091069E+02 0.75000000E+00 0.0000E+00 0.9000E+01
       25  1    1    2    0    0 -.53274466E+02 0.11181793E+03 0.16593609E+03 0.24187022E+03 0.12500000E+03 0.0000E+00 0.9000E+01
      -24  1    1    2    0    0 0.59154337E+02 -.92027730E+02 0.22593886E+03 0.26359803E+03 0.80419002E+02 0.0000E+00 0.9000E+01
        2  1    1    2  501    0 -.58798716E+01 -.19790204E+02 -.11129126E+02 0.23456021E+02 0.32000000E+00 0.0000E+00 0.9000E+01
#aMCatNLO 1  0  0  5  2 0.10218930D+01 0.00000000D+00  -5  6  0 0.00000000D+00 0.00000000D+00 0.00000000D+00 0.00000000D+00 0.00000000D+00
  <mgrwgt>
 0.1079366090D+00    8    2    0
 0.183571177478408D+03 0.000000000000000D+00 0.000000000000000D+00 0.183571177478408D+03
 0.183571177478408D+03 -.000000000000000D+00 -.000000000000000D+00 -.183571177478408D+03
 0.176366454479726D+03 -.532743952638134D+02 0.111818171157868D+03 -.117754691598200D+02
 0.145442596848697D+03 0.591543953136203D+02 -.920275349269635D+02 0.521346655697382D+02
 0.453333036283930D+02 -.588000004980689D+01 -.197906362309045D+02 -.403591964099182D+02
 0.000000000000000D+00 -.000000000000000D+00 0.000000000000000D+00 0.000000000000000D+00
 0.183571177478408D+03 0.000000000000000D+00 0.000000000000000D+00 0.183571177478408D+03
 0.183571177478408D+03 -.000000000000000D+00 -.000000000000000D+00 -.183571177478408D+03
 0.176362295146174D+03 -.532774244495609D+02 0.111807975662511D+03 -.117962609117775D+02
 0.145440755946948D+03 0.591518972475925D+02 -.920359428037694D+02 0.521175193220158D+02
 0.175089437898205D+02 -.125494734394110D+01 -.773099238764989D+01 -.156595011574803D+02
 0.278303600738732D+02 -.461952545409049D+01 -.120410404710922D+02 -.246617572527581D+02
0.136365382274D-05 0.000000000000D+00 0.000000000000D+00 0.155694599716D-05 0.000000000000D+00  6 1 21 25 -24 2 21 2 0.69974623D-01 0.11398343D-01 0.27621786D+05 0.27621786D+05 0.27621786D+05 0.12186812D+01  1  2  2  3  6  5        2 0.736861441316D-02 0.100000000000D+01
0.205895831948D-06 0.719619892698D-07 -.275282418202D-08 0.155694599716D-05 0.000000000000D+00  6 1 21 25 -24 2 21 4 0.69974623D-01 0.11398343D-01 0.27621786D+05 0.27621786D+05 0.27621786D+05 0.12186812D+01  1  2  3  3  6  5        2 0.165237814070D-02 0.100000000000D+01
0.134842741170D-06 0.000000000000D+00 0.000000000000D+00 0.155694599716D-05 0.000000000000D+00  6 1 21 25 -24 2 21 4 0.69974623D-01 0.11398343D-01 0.27621786D+05 0.27621786D+05 0.27621786D+05 0.12186812D+01  1  2 15  3  6  5        2 0.108215497046D-02 0.100000000000D+01
0.623215110895D-09 0.000000000000D+00 0.000000000000D+00 0.155688775242D-05 0.000000000000D+00  6 1 21 25 -24 2 21 4 0.69974623D-01 0.11398343D-01 0.27635472D+05 0.27635472D+05 0.27635472D+05 0.12186584D+01  1  2 12  3  6  5        2 0.500111070329D-05 0.100000000000D+01
-.125593821147D-03 0.000000000000D+00 0.000000000000D+00 0.155694599716D-05 0.000000000000D+00  6 1 21 25 -24 2 21 4 0.69974623D-01 0.11398343D-01 0.27621786D+05 0.27621786D+05 0.27621786D+05 0.12186812D+01  1  2  4  3  6  5        2 -.100792950837D+01 0.100000000000D+01
-.546153791474D-04 0.000000000000D+00 0.000000000000D+00 0.155694599716D-05 0.000000000000D+00  6 1 21 25 -24 2 21 4 0.69974623D-01 0.11398343D-01 0.27621786D+05 0.27621786D+05 0.27621786D+05 0.12186812D+01  1  2  5  3  6  5        2 -.438305417818D+00 0.100000000000D+01
0.136226724113D-03 0.000000000000D+00 -.000000000000D+00 0.155694599716D-05 0.000000000000D+00  6 1 21 25 -24 2 21 4 0.69974623D-01 0.11398343D-01 0.27621786D+05 0.27621786D+05 0.27621786D+05 0.12186812D+01  1  2  6  3  6  5        2 0.109326186438D+01 0.100000000000D+01
0.561767849812D-04 0.000000000000D+00 0.000000000000D+00 0.155694599716D-05 0.269543896710D-05  6 1 21 25 -24 2 21 4 0.69974623D-01 0.11398343D-01 0.27635472D+05 0.27635472D+05 0.27635472D+05 0.12186584D+01  1  2 11  3  6  5        2 0.450801522194D+00 0.100000000000D+01
  </mgrwgt>
  </event>
  <event>
  5     66 0.42980143E-03 0.93999520E+02 0.75467711E-02 0.11293494E+00
        1 -1    0    0  502    0 0.00000000E+00 0.00000000E+00 0.25688031E+03 0.25688051E+03 0.32000000E+00 0.0000E+00 0.9000E+01
       21 -1    0    0  501  502 0.00000000E+00 0.00000000E+00 -.28420327E+03 0.28420426E+03 0.75000000E+00 0.0000E+00 0.9000E+01
       25  1    1    2    0    0 -.36108302E+02 -.37853628E+02 0.22993217E+02 0.13744233E+03 0.12500000E+03 0.0000E+00 0.9000E+01
      -24  1    1    2    0    0 -.49297529E+01 0.15401504E+03 0.10678389E+03 0.20399743E+03 0.80419002E+02 0.0000E+00 0.9000E+01
        2  1    1    2  501    0 0.41038055E+02 -.11616142E+03 -.15710007E+03 0.19964501E+03 0.32000000E+00 0.0000E+00 0.9000E+01
#aMCatNLO 1  0  0  2  5 0.18497505D+02 0.00000000D+00  -5  6  0 0.00000000D+00 0.00000000D+00 0.00000000D+00 0.00000000D+00 0.00000000D+00
  <mgrwgt>
 0.3941004404D-01   32    2    0
 0.270197236713074D+03 0.000000000000000D+00 0.000000000000000D+00 0.270197236713074D+03
 0.270197236713074D+03 0.000000000000000D+00 0.000000000000000D+00 -.270197236713074D+03
 0.138780467650858D+03 -.361083170048994D+02 -.378535861323320D+02 0.299718811786439D+02
 0.209657222385583D+03 -.492977497995968D+01 0.154015107283322D+03 0.117234717516703D+03
 0.191956783389706D+03 0.410380919848591D+02 -.116161521150990D+03 -.147206598695347D+03
 0.000000000000000D+00 0.000000000000000D+00 0.000000000000000D+00 -.000000000000000D+00
 0.271452083002148D+03 0.000000000000000D+00 0.000000000000000D+00 0.271452083002148D+03
 0.348359561340003D+03 0.000000000000000D+00 0.000000000000000D+00 -.348359561340003D+03
 0.140281740330114D+03 -.366168991905499D+02 -.426011232519505D+02 0.299718811786439D+02
 0.204556095759586D+03 -.568466585605497D+01 0.146968316112413D+03 0.117234717516703D+03
 0.195873126075885D+03 0.403312840496544D+02 -.122759465403662D+03 -.147206598695347D+03
 0.791006821765649D+02 0.197028099695046D+01 0.183922725431996D+02 -.769074783378551D+02
0.364726782825D-05 0.000000000000D+00 0.000000000000D+00 0.248007851708D-06 0.000000000000D+00  6 1 21 25 -24 2 21 2 0.39520140D-01 0.43723672D-01 0.46768248D+05 0.46768248D+05 0.46768248D+05 0.11951664D+01  1  2  2  2  6  2       21 0.302574910823D-02 0.100000000000D+01
-.863528776290D-07 0.192471611155D-06 -.736278292079D-08 0.248007851708D-06 0.000000000000D+00  6 1 21 25 -24 2 21 4 0.39520140D-01 0.43723672D-01 0.46768248D+05 0.46768248D+05 0.46768248D+05 0.11951664D+01  1  2  3  2  6  2       21 -.102329022919D-03 0.100000000000D+01
0.348068975089D-06 0.000000000000D+00 0.000000000000D+00 0.248007851708D-06 0.000000000000D+00  6 1 21 25 -24 2 21 4 0.39520140D-01 0.43723672D-01 0.46768248D+05 0.46768248D+05 0.46768248D+05 0.11951664D+01  1  2 15  2  6  2       21 0.412465213751D-03 0.100000000000D+01
0.746663746377D-04 0.000000000000D+00 0.000000000000D+00 0.246403485066D-06 0.000000000000D+00  6 1 21 25 -24 2 21 4 0.39520140D-01 0.56453168D-01 0.51162634D+05 0.51162634D+05 0.51162634D+05 0.11912944D+01  1  2 12  2  6  2       21 0.510457589185D-01 0.100000000000D+01
0.678784932127D-04 0.000000000000D+00 0.000000000000D+00 0.246403485066D-06 0.000000000000D+00  6 1 21 25 -24 2 21 4 0.39520140D-01 0.57688095D-01 0.51162634D+05 0.51162634D+05 0.51162634D+05 0.11912944D+01  1  2 12  2  6  2       21 0.443078196561D-01 0.100000000000D+01
-.100283831152D-03 0.000000000000D+00 0.000000000000D+00 0.248007851708D-06 0.000000000000D+00  6 1 21 25 -24 2 21 4 0.39520140D-01 0.43723672D-01 0.46768248D+05 0.46768248D+05 0.46768248D+05 0.11951664D+01  1  2  4  2  6  2       21 -.118837342056D+00 0.100000000000D+01
-.156008157974D-03 0.000000000000D+00 -.536078295273D-05 0.248007851708D-06 0.000000000000D+00  6 1 21 25 -24 2 21 4 0.39520140D-01 0.56493938D-01 0.46768248D+05 0.46768248D+05 0.46768248D+05 0.11951664D+01  1  2  5  2  6  2       21 -.108217904828D+00 0.100000000000D+01
0.141755119556D-03 0.000000000000D+00 0.471733571599D-05 0.248007851708D-06 0.000000000000D+00  6 1 21 25 -24 2 21 4 0.39520140D-01 0.43723672D-01 0.46768248D+05 0.46768248D+05 0.46768248D+05 0.11951664D+01  1  2  6  2  6  2       21 0.167981233240D+00 0.100000000000D+01
0.524813835638D-05 0.000000000000D+00 0.000000000000D+00 0.246403485066D-06 0.000000000000D+00  6 1 -1 25 -24 2 -1 4 0.39520140D-01 0.56453168D-01 0.51162634D+05 0.51162634D+05 0.51162634D+05 0.11912944D+01  1  2 12  5  6  2       21 0.371641064778D-03 0.100000000000D+01
0.524778986453D-05 0.000000000000D+00 0.000000000000D+00 0.246403485066D-06 0.000000000000D+00  6 1 -1 25 -24 2 -1 4 0.39520140D-01 0.57688095D-01 0.51162634D+05 0.51162634D+05 0.51162634D+05 0.11912944D+01  1  2 12  5  6  2       21 0.356646245857D-03 0.100000000000D+01
-.105031833610D-04 0.000000000000D+00 -.415810706867D-06 0.248007851708D-06 0.000000000000D+00  6 1 -1 25 -24 2 -1 4 0.39520140D-01 0.56493938D-01 0.46768248D+05 0.46768248D+05 0.46768248D+05 0.11951664D+01  1  2  5  5  6  2       21 -.752896979665D-03 0.100000000000D+01
0.524813835638D-05 0.000000000000D+00 0.000000000000D+00 0.246403485066D-06 0.000000000000D+00  6 1 1 25 -24 2 1 4 0.39520140D-01 0.56453168D-01 0.51162634D+05 0.51162634D+05 0.51162634D+05 0.11912944D+01  1  2 12  6  6  2       21 0.912513638972D-03 0.100000000000D+01
0.524778986453D-05 0.000000000000D+00 0.000000000000D+00 0.246403485066D-06 0.000000000000D+00  6 1 1 25 -24 2 1 4 0.39520140D-01 0.57688095D-01 0.51162634D+05 0.51162634D+05 0.51162634D+05 0.11912944D+01  1  2 12  6  6  2       21 0.887657846869D-03 0.100000000000D+01
-.105031833610D-04 0.000000000000D+00 -.415810706867D-06 0.248007851708D-06 0.000000000000D+00  6 1 1 25 -24 2 1 4 0.39520140D-01 0.56493938D-01 0.46768248D+05 0.46768248D+05 0.46768248D+05 0.11951664D+01  1  2  5  6  6  2       21 -.184914400558D-02 0.100000000000D+01
0.524813835638D-05 0.000000000000D+00 0.000000000000D+00 0.246403485066D-06 0.000000000000D+00  6 1 -2 25 -24 2 -2 4 0.39520140D-01 0.56453168D-01 0.51162634D+05 0.51162634D+05 0.51162634D+05 0.11912944D+01  1  2 12  7  6  2       21 0.299465871210D-03 0.100000000000D+01
0.524778986453D-05 0.000000000000D+00 0.000000000000D+00 0.246403485066D-06 0.000000000000D+00  6 1 -2 25 -24 2 -2 4 0.39520140D-01 0.57688095D-01 0.51162634D+05 0.51162634D+05 0.51162634D+05 0.11912944D+01  1  2 12  7  6  2       21 0.286445103895D-03 0.100000000000D+01
-.105031833610D-04 0.000000000000D+00 -.415810706867D-06 0.248007851708D-06 0.000000000000D+00  6 1 -2 25 -24 2 -2 4 0.39520140D-01 0.56493938D-01 0.46768248D+05 0.46768248D+05 0.46768248D+05 0.11951664D+01  1  2  5  7  6  2       21 -.606433488448D-03 0.100000000000D+01
0.524813835638D-05 0.000000000000D+00 0.000000000000D+00 0.246403485066D-06 0.000000000000D+00  6 1 2 25 -24 2 2 4 0.39520140D-01 0.56453168D-01 0.51162634D+05 0.51162634D+05 0.51162634D+05 0.11912944D+01  1  2 12  8  6  2       21 0.134227496497D-02 0.100000000000D+01
0.524778986453D-05 0.000000000000D+00 0.000000000000D+00 0.246403485066D-06 0.000000000000D+00  6 1 2 25 -24 2 2 4 0.39520140D-01 0.57688095D-01 0.51162634D+05 0.51162634D+05 0.51162634D+05 0.11912944D+01  1  2 12  8  6  2       21 0.131109973241D-02 0.100000000000D+01
-.105031833610D-04 0.000000000000D+00 -.415810706867D-06 0.248007851708D-06 0.000000000000D+00  6 1 2 25 -24 2 2 4 0.39520140D-01 0.56493938D-01 0.46768248D+05 0.46768248D+05 0.46768248D+05 0.11951664D+01  1  2  5  8  6  2       21 -.271955072153D-02 0.100000000000D+01
0.524813835638D-05 0.000000000000D+00 0.000000000000D+00 0.246403485066D-06 0.000000000000D+00  6 1 -3 25 -24 2 -3 4 0.39520140D-01 0.56453168D-01 0.51162634D+05 0.51162634D+05 0.51162634D+05 0.11912944D+01  1  2 12  9  6  2       21 0.190386809336D-03 0.100000000000D+01
0.524813835638D-05 0.000000000000D+00 0.000000000000D+00 0.246403485066D-06 0.000000000000D+00  6 1 -4 25 -24 2 -4 4 0.39520140D-01 0.56453168D-01 0.51162634D+05 0.51162634D+05 0.51162634D+05 0.11912944D+01  1  2 12  9  6  2       21 0.157140814945D-03 0.100000000000D+01
0.524778986453D-05 0.000000000000D+00 0.000000000000D+00 0.246403485066D-06 0.000000000000D+00  6 1 -3 25 -24 2 -3 4 0.39520140D-01 0.57688095D-01 0.51162634D+05 0.51162634D+05 0.51162634D+05 0.11912944D+01  1  2 12  9  6  2       21 0.182063721084D-03 0.100000000000D+01
0.524778986453D-05 0.000000000000D+00 0.000000000000D+00 0.246403485066D-06 0.000000000000D+00  6 1 -4 25 -24 2 -4 4 0.39520140D-01 0.57688095D-01 0.51162634D+05 0.51162634D+05 0.51162634D+05 0.11912944D+01  1  2 12  9  6  2       21 0.150137407977D-03 0.100000000000D+01
-.105031833610D-04 0.000000000000D+00 -.415810706867D-06 0.248007851708D-06 0.000000000000D+00  6 1 -3 25 -24 2 -3 4 0.39520140D-01 0.56493938D-01 0.46768248D+05 0.46768248D+05 0.46768248D+05 0.11951664D+01  1  2  5  9  6  2       21 -.384892842658D-03 0.100000000000D+01
-.105031833610D-04 0.000000000000D+00 -.415810706867D-06 0.248007851708D-06 0.000000000000D+00  6 1 -4 25 -24 2 -4 4 0.39520140D-01 0.56493938D-01 0.46768248D+05 0.46768248D+05 0.46768248D+05 0.11951664D+01  1  2  5  9  6  2       21 -.317398019684D-03 0.100000000000D+01
0.524813835638D-05 0.000000000000D+00 0.000000000000D+00 0.246403485066D-06 0.000000000000D+00  6 1 3 25 -24 2 3 4 0.39520140D-01 0.56453168D-01 0.51162634D+05 0.51162634D+05 0.51162634D+05 0.11912944D+01  1  2 12 10  6  2       21 0.190499714117D-03 0.100000000000D+01
0.524813835638D-05 0.000000000000D+00 0.000000000000D+00 0.246403485066D-06 0.000000000000D+00  6 1 4 25 -24 2 4 4 0.39520140D-01 0.56453168D-01 0.51162634D+05 0.51162634D+05 0.51162634D+05 0.11912944D+01  1  2 12 10  6  2       21 0.157140814945D-03 0.100000000000D+01
0.524778986453D-05 0.000000000000D+00 0.000000000000D+00 0.246403485066D-06 0.000000000000D+00  6 1 3 25 -24 2 3 4 0.39520140D-01 0.57688095D-01 0.51162634D+05 0.51162634D+05 0.51162634D+05 0.11912944D+01  1  2 12 10  6  2       21 0.182177624035D-03 0.100000000000D+01
0.524778986453D-05 0.000000000000D+00 0.000000000000D+00 0.246403485066D-06 0.000000000000D+00  6 1 4 25 -24 2 4 4 0.39520140D-01 0.57688095D-01 0.51162634D+05 0.51162634D+05 0.51162634D+05 0.11912944D+01  1  2 12 10  6  2       21 0.150137407977D-03 0.100000000000D+01
-.105031833610D-04 0.000000000000D+00 -.415810706867D-06 0.248007851708D-06 0.000000000000D+00  6 1 3 25 -24 2 3 4 0.39520140D-01 0.56493938D-01 0.46768248D+05 0.46768248D+05 0.46768248D+05 0.11951664D+01  1  2  5 10  6  2       21 -.385120898592D-03 0.100000000000D+01
-.105031833610D-04 0.000000000000D+00 -.415810706867D-06 0.248007851708D-06 0.000000000000D+00  6 1 4 25 -24 2 4 4 0.39520140D-01 0.56493938D-01 0.46768248D+05 0.46768248D+05 0.46768248D+05 0.11951664D+01  1  2  5 10  6  2       21 -.317398019684D-03 0.100000000000D+01
  </mgrwgt>
  </event>
  <event>
  6     66 0.42980143E-03 0.14520187E+02 0.75467711E-02 0.11068024E+00
        1 -1    0    0  502    0 0.00000000E+00 0.00000000E+00 0.11484605E+04 0.11484606E+04 0.32000000E+00 0.0000E+00 0.9000E+01
       21 -1    0    0  501  502 0.00000000E+00 0.00000000E+00 -.66163315E+02 0.66167566E+02 0.75000000E+00 0.0000E+00 0.9000E+01
       25  1    1    2    0    0 0.21543832E+03 0.87885199E+02 0.45644332E+03 0.52735470E+03 0.12500000E+03 0.0000E+00 0.9000E+01
      -24  1    1    2    0    0 -.16839733E+03 -.74510611E+02 0.52213148E+03 0.55946223E+03 0.80419002E+02 0.0000E+00 0.9000E+01
        2  1    1    2  503    0 -.20915534E+02 -.20174157E+02 0.95131634E+02 0.99471536E+02 0.32000000E+00 0.0000E+00 0.9000E+01
       21  1    1    2  501  503 -.26125454E+02 0.67995680E+01 0.85907998E+01 0.28339686E+02 0.75000000E+00 0.0000E+00 0.9000E+01
#aMCatNLO 2  0  0  5  2 0.27127371D+02 0.00000000D+00  -5  6  0 0.00000000D+00 0.00000000D+00 0.00000000D+00 0.00000000D+00 0.00000000D+00
  <mgrwgt>
 0.1360618803D+00    2    2    0
 0.275660236071010D+03 0.000000000000000D+00 0.000000000000000D+00 0.275660236071010D+03
 0.275660236071010D+03 -.000000000000000D+00 -.000000000000000D+00 -.275660236071010D+03
 0.274931117154462D+03 0.226040199463532D+03 0.908995010403347D+02 -.246013844509946D+02
 0.201311806080699D+03 -.160380358542705D+03 -.722312419211593D+02 0.558570997935171D+02
 0.750775489068588D+02 -.656598409208269D+02 -.186682591191755D+02 -.312557153425226D+02
 0.000000000000000D+00 0.000000000000000D+00 0.000000000000000D+00 0.000000000000000D+00
 0.275660236071010D+03 0.000000000000000D+00 0.000000000000000D+00 0.275660236071010D+03
 0.275660236071010D+03 -.000000000000000D+00 -.000000000000000D+00 -.275660236071010D+03
 0.265849971763832D+03 0.215515005215771D+03 0.879070013519213D+02 -.296116383705775D+02
 0.207521627806395D+03 -.168337462433390D+03 -.744935879029082D+02 0.520693206781515D+02
 0.318247755311043D+02 -.202482462046197D+02 -.198653617928854D+02 0.144288691199292D+02
 0.461240970406887D+02 -.269292965777614D+02 0.645194834387233D+01 -.368865514275033D+02
-.113103348155D-04 0.000000000000D+00 0.000000000000D+00 0.103963962052D-06 0.000000000000D+00  6 1 21 25 -24 2 21 4 0.17668657D+00 0.10179302D-01 0.67895703D+05 0.67895703D+05 0.67895703D+05 0.11793426D+01  1  2 13  3  6  5        2 -.237263247720D-01 0.100000000000D+01
0.761710090589D-04 0.000000000000D+00 0.000000000000D+00 0.103566865996D-06 0.284912466788D-08  6 1 21 25 -24 2 21 4 0.17668657D+00 0.10179302D-01 0.67895703D+05 0.67895703D+05 0.67895703D+05 0.11793426D+01  1  2  1  3  6  5        2 0.159788205090D+00 0.100000000000D+01
  </mgrwgt>
  </event>
  <event>
  5     66 0.42980143E-03 0.34853543E+02 0.75467711E-02 0.10763847E+00
        1 -1    0    0  502    0 0.00000000E+00 0.00000000E+00 0.60155786E+03 0.60155795E+03 0.32000000E+00 0.0000E+00 0.9000E+01
       21 -1    0    0  501  502 0.00000000E+00 0.00000000E+00 -.22756938E+03 0.22757062E+03 0.75000000E+00 0.0000E+00 0.9000E+01
       25  1    1    2    0    0 0.28748690E+03 -.35205279E+02 0.22651466E+03 0.38835811E+03 0.12500000E+03 0.0000E+00 0.9000E+01
      -24  1    1    2    0    0 -.26456994E+03 0.61465066E+02 0.22107856E+03 0.35933015E+03 0.80419002E+02 0.0000E+00 0.9000E+01
        2  1    1    2  501    0 -.22916955E+02 -.26259786E+02 -.73604743E+02 0.81440308E+02 0.32000000E+00 0.0000E+00 0.9000E+01
#aMCatNLO 1  0  0  2  1 0.28629654D+01 0.00000000D+00  -5  6  0 0.00000000D+00 0.00000000D+00 0.00000000D+00 0.00000000D+00 0.00000000D+00
  <mgrwgt>
 0.7311014626D+00   41    2    0
 0.369995539377536D+03 0.000000000000000D+00 0.000000000000000D+00 0.369995539377536D+03
 0.369995539377536D+03 0.000000000000000D+00 0.000000000000000D+00 -.369995539377536D+03
 0.320659228232214D+03 0.287486930797056D+03 -.352052439901637D+02 0.575256122693300D+02
 0.290881977289451D+03 -.264569916836003D+03 0.614650976843516D+02 0.661052919931042D+02
 0.128449873233407D+03 -.229170139610527D+02 -.262598536941879D+02 -.123630904262434D+03
 0.000000000000000D+00 0.000000000000000D+00 0.000000000000000D+00 -.000000000000000D+00
 0.370029437684917D+03 0.000000000000000D+00 0.000000000000000D+00 0.370029437684917D+03
 0.435825396958048D+03 0.000000000000000D+00 0.000000000000000D+00 -.435825396958048D+03
 0.319981996291113D+03 0.286621101496952D+03 -.360919112843640D+02 0.575256122693300D+02
 0.291429151864730D+03 -.265356912767733D+03 0.606591610485160D+02 0.661052919931042D+02
 0.128585468869030D+03 -.232643983032327D+02 -.266155985675613D+02 -.123630904262434D+03
 0.658582176180917D+02 0.200020957401317D+01 0.204834880340927D+01 -.657959592731311D+02
0.131062298792D-04 0.000000000000D+00 0.000000000000D+00 0.645891821202D-06 0.000000000000D+00  6 1 21 25 -24 2 21 2 0.92547465D-01 0.35010776D-01 0.10035638D+06 0.10035638D+06 0.10035638D+06 0.11634298D+01  1  2  2  2  6  2       21 0.521719042183D-02 0.100000000000D+01
0.306352448342D-05 0.691634752319D-06 -.264577020540D-07 0.645891821202D-06 0.000000000000D+00  6 1 21 25 -24 2 21 4 0.92547465D-01 0.35010776D-01 0.10035638D+06 0.10035638D+06 0.10035638D+06 0.11634298D+01  1  2  3  2  6  2       21 0.165067128511D-02 0.100000000000D+01
0.120241846327D-05 0.000000000000D+00 0.000000000000D+00 0.645891821202D-06 0.000000000000D+00  6 1 21 25 -24 2 21 4 0.92547465D-01 0.35010776D-01 0.10035638D+06 0.10035638D+06 0.10035638D+06 0.11634298D+01  1  2 15  2  6  2       21 0.647880452972D-03 0.100000000000D+01
0.140429143040D-03 0.000000000000D+00 0.000000000000D+00 0.645441414798D-06 0.000000000000D+00  6 1 21 25 -24 2 21 4 0.92547465D-01 0.41241343D-01 0.10138313D+06 0.10138313D+06 0.10138313D+06 0.11630240D+01  1  2 12  2  6  2       21 0.541632844427D-01 0.100000000000D+01
0.134175686599D-03 0.000000000000D+00 0.000000000000D+00 0.645441414798D-06 0.000000000000D+00  6 1 21 25 -24 2 21 4 0.92547465D-01 0.41504308D-01 0.10138313D+06 0.10138313D+06 0.10138313D+06 0.11630240D+01  1  2 12  2  6  2       21 0.510799454329D-01 0.100000000000D+01
-.195626501336D-01 0.000000000000D+00 0.000000000000D+00 0.645891821202D-06 0.000000000000D+00  6 1 21 25 -24 2 21 4 0.92547465D-01 0.35010776D-01 0.10035638D+06 0.10035638D+06 0.10035638D+06 0.11634298D+01  1  2  4  2  6  2       21 -.105406387352D+02 0.100000000000D+01
-.237196017162D-01 0.000000000000D+00 -.269886171479D-04 0.645891821202D-06 0.000000000000D+00  6 1 21 25 -24 2 21 4 0.92547465D-01 0.41241588D-01 0.10035638D+06 0.10035638D+06 0.10035638D+06 0.11634298D+01  1  2  5  2  6  2       21 -.916533141983D+01 0.100000000000D+01
0.230593857195D-01 0.000000000000D+00 0.255938019827D-04 0.645891821202D-06 0.000000000000D+00  6 1 21 25 -24 2 21 4 0.92547465D-01 0.35010776D-01 0.10035638D+06 0.10035638D+06 0.10035638D+06 0.11634298D+01  1  2  6  2  6  2       21 0.124247304258D+02 0.100000000000D+01
0.204090987265D-01 0.000000000000D+00 0.000000000000D+00 0.645891821202D-06 0.116725355176D-05  6 1 21 25 -24 2 21 4 0.92555944D-01 0.41239917D-01 0.10138313D+06 0.10138313D+06 0.10138313D+06 0.11630240D+01  1  2 11  2  6  2       21 0.787130225876D+01 0.100000000000D+01
0.494184030130D-05 0.000000000000D+00 0.000000000000D+00 0.645441414798D-06 0.000000000000D+00  6 1 -1 25 -24 2 -1 4 0.92547465D-01 0.41241343D-01 0.10138313D+06 0.10138313D+06 0.10138313D+06 0.11630240D+01  1  2 12  5  6  2       21 0.185959320399D-03 0.100000000000D+01
0.489693322569D-05 0.000000000000D+00 0.000000000000D+00 0.645441414798D-06 0.000000000000D+00  6 1 -1 25 -24 2 -1 4 0.92547465D-01 0.41504308D-01 0.10138313D+06 0.10138313D+06 0.10138313D+06 0.11630240D+01  1  2 12  5  6  2       21 0.182174928019D-03 0.100000000000D+01
-.834590672590D-03 0.000000000000D+00 -.121955209866D-05 0.645891821202D-06 0.000000000000D+00  6 1 -1 25 -24 2 -1 4 0.92547465D-01 0.41241588D-01 0.10035638D+06 0.10035638D+06 0.10035638D+06 0.11634298D+01  1  2  5  5  6  2       21 -.314545914445D-01 0.100000000000D+01
0.886538425440D-03 0.000000000000D+00 0.000000000000D+00 0.645891821202D-06 0.498561671721D-07  6 1 -1 25 -24 2 -1 4 0.92555944D-01 0.41239917D-01 0.10138313D+06 0.10138313D+06 0.10138313D+06 0.11630240D+01  1  2 11  5  6  2       21 0.333578445439D-01 0.100000000000D+01
0.494184030130D-05 0.000000000000D+00 0.000000000000D+00 0.645441414798D-06 0.000000000000D+00  6 1 1 25 -24 2 1 4 0.92547465D-01 0.41241343D-01 0.10138313D+06 0.10138313D+06 0.10138313D+06 0.11630240D+01  1  2 12  6  6  2       21 0.381447186728D-03 0.100000000000D+01
0.489693322569D-05 0.000000000000D+00 0.000000000000D+00 0.645441414798D-06 0.000000000000D+00  6 1 1 25 -24 2 1 4 0.92547465D-01 0.41504308D-01 0.10138313D+06 0.10138313D+06 0.10138313D+06 0.11630240D+01  1  2 12  6  6  2       21 0.374950386566D-03 0.100000000000D+01
-.834590672590D-03 0.000000000000D+00 -.121955209866D-05 0.645891821202D-06 0.000000000000D+00  6 1 1 25 -24 2 1 4 0.92547465D-01 0.41241588D-01 0.10035638D+06 0.10035638D+06 0.10035638D+06 0.11634298D+01  1  2  5  6  6  2       21 -.645202059592D-01 0.100000000000D+01
0.886684730262D-03 0.000000000000D+00 0.000000000000D+00 0.645891821202D-06 0.498650503656D-07  6 1 1 25 -24 2 1 4 0.92555944D-01 0.41239917D-01 0.10138313D+06 0.10138313D+06 0.10138313D+06 0.11630240D+01  1  2 11  6  6  2       21 0.684349784543D-01 0.100000000000D+01
0.494184030130D-05 0.000000000000D+00 0.000000000000D+00 0.645441414798D-06 0.000000000000D+00  6 1 -2 25 -24 2 -2 4 0.92547465D-01 0.41241343D-01 0.10138313D+06 0.10138313D+06 0.10138313D+06 0.11630240D+01  1  2 12  7  6  2       21 0.157112661022D-03 0.100000000000D+01
0.489693322569D-05 0.000000000000D+00 0.000000000000D+00 0.645441414798D-06 0.000000000000D+00  6 1 -2 25 -24 2 -2 4 0.92547465D-01 0.41504308D-01 0.10138313D+06 0.10138313D+06 0.10138313D+06 0.11630240D+01  1  2 12  7  6  2       21 0.153781749456D-03 0.100000000000D+01
-.834590672590D-03 0.000000000000D+00 -.121955209866D-05 0.645891821202D-06 0.000000000000D+00  6 1 -2 25 -24 2 -2 4 0.92547465D-01 0.41241588D-01 0.10035638D+06 0.10035638D+06 0.10035638D+06 0.11634298D+01  1  2  5  7  6  2       21 -.265746831111D-01 0.100000000000D+01
0.117375700425D-02 0.000000000000D+00 0.000000000000D+00 0.645891821202D-06 0.670366052059D-07  6 1 -2 25 -24 2 -2 4 0.92555944D-01 0.41239917D-01 0.10138313D+06 0.10138313D+06 0.10138313D+06 0.11630240D+01  1  2 11  7  6  2       21 0.373141794422D-01 0.100000000000D+01
0.494184030130D-05 0.000000000000D+00 0.000000000000D+00 0.645441414798D-06 0.000000000000D+00  6 1 2 25 -24 2 2 4 0.92547465D-01 0.41241343D-01 0.10138313D+06 0.10138313D+06 0.10138313D+06 0.11630240D+01  1  2 12  8  6  2       21 0.530792479922D-03 0.100000000000D+01
0.489693322569D-05 0.000000000000D+00 0.000000000000D+00 0.645441414798D-06 0.000000000000D+00  6 1 2 25 -24 2 2 4 0.92547465D-01 0.41504308D-01 0.10138313D+06 0.10138313D+06 0.10138313D+06 0.11630240D+01  1  2 12  8  6  2       21 0.522342653968D-03 0.100000000000D+01
-.834590672590D-03 0.000000000000D+00 -.121955209866D-05 0.645891821202D-06 0.000000000000D+00  6 1 2 25 -24 2 2 4 0.92547465D-01 0.41241588D-01 0.10035638D+06 0.10035638D+06 0.10035638D+06 0.11634298D+01  1  2  5  8  6  2       21 -.897789755080D-01 0.100000000000D+01
0.879214266651D-03 0.000000000000D+00 0.000000000000D+00 0.645891821202D-06 0.247569632568D-07  6 1 2 25 -24 2 2 4 0.92555944D-01 0.41239917D-01 0.10138313D+06 0.10138313D+06 0.10138313D+06 0.11630240D+01  1  2 11  8  6  2       21 0.944259375872D-01 0.100000000000D+01
0.494184030130D-05 0.000000000000D+00 0.000000000000D+00 0.645441414798D-06 0.000000000000D+00  6 1 -3 25 -24 2 -3 4 0.92547465D-01 0.41241343D-01 0.10138313D+06 0.10138313D+06 0.10138313D+06 0.11630240D+01  1  2 12  9  6  2       21 0.101859209053D-03 0.100000000000D+01
0.494184030130D-05 0.000000000000D+00 0.000000000000D+00 0.645441414798D-06 0.000000000000D+00  6 1 -4 25 -24 2 -4 4 0.92547465D-01 0.41241343D-01 0.10138313D+06 0.10138313D+06 0.10138313D+06 0.11630240D+01  1  2 12  9  6  2       21 0.856791665714D-04 0.100000000000D+01
0.489693322569D-05 0.000000000000D+00 0.000000000000D+00 0.645441414798D-06 0.000000000000D+00  6 1 -3 25 -24 2 -3 4 0.92547465D-01 0.41504308D-01 0.10138313D+06 0.10138313D+06 0.10138313D+06 0.11630240D+01  1  2 12  9  6  2       21 0.996776167932D-04 0.100000000000D+01
0.489693322569D-05 0.000000000000D+00 0.000000000000D+00 0.645441414798D-06 0.000000000000D+00  6 1 -4 25 -24 2 -4 4 0.92547465D-01 0.41504308D-01 0.10138313D+06 0.10138313D+06 0.10138313D+06 0.11630240D+01  1  2 12  9  6  2       21 0.838223329644D-04 0.100000000000D+01
-.834590672590D-03 0.000000000000D+00 -.121955209866D-05 0.645891821202D-06 0.000000000000D+00  6 1 -3 25 -24 2 -3 4 0.92547465D-01 0.41241588D-01 0.10035638D+06 0.10035638D+06 0.10035638D+06 0.11634298D+01  1  2  5  9  6  2       21 -.172258589751D-01 0.100000000000D+01
-.834590672590D-03 0.000000000000D+00 -.121955209866D-05 0.645891821202D-06 0.000000000000D+00  6 1 -4 25 -24 2 -4 4 0.92547465D-01 0.41241588D-01 0.10035638D+06 0.10035638D+06 0.10035638D+06 0.11634298D+01  1  2  5  9  6  2       21 -.144883498369D-01 0.100000000000D+01
0.886410665666D-03 0.000000000000D+00 0.000000000000D+00 0.645891821202D-06 0.498489823593D-07  6 1 -3 25 -24 2 -3 4 0.92555944D-01 0.41239917D-01 0.10138313D+06 0.10138313D+06 0.10138313D+06 0.11630240D+01  1  2 11  9  6  2       21 0.182692329635D-01 0.100000000000D+01
0.886410665666D-03 0.000000000000D+00 0.000000000000D+00 0.645891821202D-06 0.498489823593D-07  6 1 -4 25 -24 2 -4 4 0.92555944D-01 0.41239917D-01 0.10138313D+06 0.10138313D+06 0.10138313D+06 0.11630240D+01  1  2 11  9  6  2       21 0.153672395551D-01 0.100000000000D+01
0.494184030130D-05 0.000000000000D+00 0.000000000000D+00 0.645441414798D-06 0.000000000000D+00  6 1 3 25 -24 2 3 4 0.92547465D-01 0.41241343D-01 0.10138313D+06 0.10138313D+06 0.10138313D+06 0.11630240D+01  1  2 12 10  6  2       21 0.101884462604D-03 0.100000000000D+01
0.494184030130D-05 0.000000000000D+00 0.000000000000D+00 0.645441414798D-06 0.000000000000D+00  6 1 4 25 -24 2 4 4 0.92547465D-01 0.41241343D-01 0.10138313D+06 0.10138313D+06 0.10138313D+06 0.11630240D+01  1  2 12 10  6  2       21 0.856791665714D-04 0.100000000000D+01
0.489693322569D-05 0.000000000000D+00 0.000000000000D+00 0.645441414798D-06 0.000000000000D+00  6 1 3 25 -24 2 3 4 0.92547465D-01 0.41504308D-01 0.10138313D+06 0.10138313D+06 0.10138313D+06 0.11630240D+01  1  2 12 10  6  2       21 0.997028692511D-04 0.100000000000D+01
0.489693322569D-05 0.000000000000D+00 0.000000000000D+00 0.645441414798D-06 0.000000000000D+00  6 1 4 25 -24 2 4 4 0.92547465D-01 0.41504308D-01 0.10138313D+06 0.10138313D+06 0.10138313D+06 0.11630240D+01  1  2 12 10  6  2       21 0.838223329644D-04 0.100000000000D+01
-.834590672590D-03 0.000000000000D+00 -.121955209866D-05 0.645891821202D-06 0.000000000000D+00  6 1 3 25 -24 2 3 4 0.92547465D-01 0.41241588D-01 0.10035638D+06 0.10035638D+06 0.10035638D+06 0.11634298D+01  1  2  5 10  6  2       21 -.172301268508D-01 0.100000000000D+01
-.834590672590D-03 0.000000000000D+00 -.121955209866D-05 0.645891821202D-06 0.000000000000D+00  6 1 4 25 -24 2 4 4 0.92547465D-01 0.41241588D-01 0.10035638D+06 0.10035638D+06 0.10035638D+06 0.11634298D+01  1  2  5 10  6  2       21 -.144883498369D-01 0.100000000000D+01
0.886410665666D-03 0.000000000000D+00 0.000000000000D+00 0.645891821202D-06 0.498489823593D-07  6 1 3 25 -24 2 3 4 0.92555944D-01 0.41239917D-01 0.10138313D+06 0.10138313D+06 0.10138313D+06 0.11630240D+01  1  2 11 10  6  2       21 0.182737618470D-01 0.100000000000D+01
0.886410665666D-03 0.000000000000D+00 0.000000000000D+00 0.645891821202D-06 0.498489823593D-07  6 1 4 25 -24 2 4 4 0.92555944D-01 0.41239917D-01 0.10138313D+06 0.10138313D+06 0.10138313D+06 0.11630240D+01  1  2 11 10  6  2       21 0.153672395551D-01 0.100000000000D+01
  </mgrwgt>
  </event>
  <event>
  5     66 0.42980143E-03 0.57066379E+02 0.75467711E-02 0.11892283E+00
        3 -1    0    0  502    0 0.00000000E+00 0.00000000E+00 0.23745373E+02 0.23750636E+02 0.50000000E+00 0.0000E+00 0.9000E+01
       21 -1    0    0  501  502 0.00000000E+00 0.00000000E+00 -.11233814E+04 0.11233816E+04 0.75000000E+00 0.0000E+00 0.9000E+01
       25  1    1    2    0    0 -.34180176E+01 -.98757632E+02 -.54860066E+03 0.57127265E+03 0.12500000E+03 0.0000E+00 0.9000E+01
      -24  1    1    2    0    0 -.14664808E+02 0.43553947E+02 -.44884515E+03 0.45830251E+03 0.80419002E+02 0.0000E+00 0.9000E+01
        4  1    1    2  501    0 0.18082826E+02 0.55203685E+02 -.10219018E+03 0.11755709E+03 0.15500000E+01 0.0000E+00 0.9000E+01
#aMCatNLO 1  0  0  1  2 0.91131526D+01 0.00000000D+00  -5  6  0 0.00000000D+00 0.00000000D+00 0.00000000D+00 0.00000000D+00 0.00000000D+00
  <mgrwgt>
 0.1444791765D-02   11    2    0
 0.163334846086956D+03 0.000000000000000D+00 0.000000000000000D+00 0.163334846086956D+03
 0.163334846086956D+03 0.000000000000000D+00 0.000000000000000D+00 -.163334846086956D+03
 0.159383251798330D+03 -.342025613445842D+01 -.987644658566598D+02 -.345008490230795D+01
 0.984697241290162D+02 -.146661913182031D+02 0.435497243796926D+02 -.334274580897904D+02
 0.688167162465651D+02 0.180864474526616D+02 0.552147414769671D+02 0.368775429920983D+02
 0.000000000000000D+00 0.000000000000000D+00 0.000000000000000D+00 0.000000000000000D+00
 0.293154645073993D+03 0.000000000000000D+00 0.000000000000000D+00 0.293154645073993D+03
 0.163558402157185D+03 0.000000000000000D+00 0.000000000000000D+00 -.163558402157185D+03
 0.161019616382592D+03 -.717442828431819D+01 -.101187654152852D+03 -.345008490230795D+01
 0.981929329935200D+02 -.169704948797741D+02 0.420623761179779D+02 -.334274580897904D+02
 0.675842335576340D+02 0.164882325244475D+02 0.541831490101720D+02 0.368775429920983D+02
 0.129916264297432D+03 0.765669063964476D+01 0.494212902470165D+01 0.129596242916807D+03
0.101401550085D-05 0.000000000000D+00 0.000000000000D+00 0.198002238329D-06 0.000000000000D+00  6 3 21 25 -24 4 21 2 0.36535584D-02 0.17282833D+00 0.24035811D+05 0.24035811D+05 0.24035811D+05 0.12251332D+01  1  2  2  1  6  1        3 0.574104862250D-03 0.100000000000D+01
-.907480868340D-07 0.535110681133D-07 -.204700514539D-08 0.198002238329D-06 0.000000000000D+00  6 3 21 25 -24 4 21 4 0.36535584D-02 0.17282833D+00 0.24035811D+05 0.24035811D+05 0.24035811D+05 0.12251332D+01  1  2  3  1  6  1        3 -.771171080905D-04 0.100000000000D+01
0.106341951409D-06 0.000000000000D+00 0.000000000000D+00 0.198002238329D-06 0.000000000000D+00  6 3 21 25 -24 4 21 4 0.36535584D-02 0.17282833D+00 0.24035811D+05 0.24035811D+05 0.24035811D+05 0.12251332D+01  1  2 15  1  6  1        3 0.903686683374D-04 0.100000000000D+01
0.267149904703D-03 0.000000000000D+00 0.000000000000D+00 0.197141735430D-06 0.000000000000D+00  6 3 21 25 -24 4 21 4 0.65580952D-02 0.17282833D+00 0.25449842D+05 0.25449842D+05 0.25449842D+05 0.12224681D+01  1  2 12  1  6  1        3 0.889388982629D-01 0.100000000000D+01
-.224646841449D-03 0.000000000000D+00 0.000000000000D+00 0.198002238329D-06 0.000000000000D+00  6 3 21 25 -24 4 21 4 0.36535584D-02 0.17282833D+00 0.24035811D+05 0.24035811D+05 0.24035811D+05 0.12251332D+01  1  2  4  1  6  1        3 -.190903360706D+00 0.100000000000D+01
-.267200212417D-03 0.000000000000D+00 -.117807044539D-05 0.198002238329D-06 0.000000000000D+00  6 3 21 25 -24 4 21 4 0.65614707D-02 0.17282833D+00 0.24035811D+05 0.24035811D+05 0.24035811D+05 0.12251332D+01  1  2  5  1  6  1        3 -.897413041330D-01 0.100000000000D+01
0.227876837298D-03 0.000000000000D+00 0.100144873439D-05 0.198002238329D-06 0.000000000000D+00  6 3 21 25 -24 4 21 4 0.36535584D-02 0.17282833D+00 0.24035811D+05 0.24035811D+05 0.24035811D+05 0.12251332D+01  1  2  6  1  6  1        3 0.193648189249D+00 0.100000000000D+01
0.299931939747D-07 0.000000000000D+00 0.000000000000D+00 0.198002238329D-06 0.222949539483D-07  6 3 21 25 -24 4 21 4 0.65574349D-02 0.17306488D+00 0.25449842D+05 0.25449842D+05 0.25449842D+05 0.12224681D+01  1  2 11  1  6  1        3 0.994945420627D-05 0.100000000000D+01
0.171510548370D-04 0.000000000000D+00 0.000000000000D+00 0.197141735430D-06 0.000000000000D+00  6 21 21 25 -24 4 -3 4 0.65580952D-02 0.17282833D+00 0.25449842D+05 0.25449842D+05 0.25449842D+05 0.12224681D+01  1  2 12  4  6  1        3 0.135178380604D+00 0.100000000000D+01
-.171049430082D-04 0.000000000000D+00 -.756898862633D-07 0.198002238329D-06 0.000000000000D+00  6 21 21 25 -24 4 -3 4 0.65614707D-02 0.17282833D+00 0.24035811D+05 0.24035811D+05 0.24035811D+05 0.12251332D+01  1  2  5  4  6  1        3 -.136288848366D+00 0.100000000000D+01
0.197759866029D-08 0.000000000000D+00 0.000000000000D+00 0.198002238329D-06 0.146543544279D-08  6 21 21 25 -24 4 -3 4 0.65574349D-02 0.17306488D+00 0.25449842D+05 0.25449842D+05 0.25449842D+05 0.12224681D+01  1  2 11  4  6  1        3 0.155309782317D-04 0.100000000000D+01
  </mgrwgt>
  </event>
  <event>
  6     66 -.42980143E-03 0.13266963E+02 0.75467711E-02 0.11639209E+00
        3 -1    0    0  503    0 0.00000000E+00 0.00000000E+00 0.51760759E+03 0.51760783E+03 0.50000000E+00 0.0000E+00 0.9000E+01
       21 -1    0    0  501  502 0.00000000E+00 0.00000000E+00 -.61754360E+03 0.61754405E+03 0.75000000E+00 0.0000E+00 0.9000E+01
       25  1    1    2    0    0 0.37028548E+02 0.14033234E+03 0.23899141E+03 0.30627794E+03 0.12500000E+03 0.0000E+00 0.9000E+01
      -24  1    1    2    0    0 -.23123787E+02 -.11235059E+03 0.18882964E+03 0.23511958E+03 0.80419002E+02 0.0000E+00 0.9000E+01
        4  1    1    2  501    0 0.28044051E+01 -.15238290E+02 -.55728609E+03 0.55750360E+03 0.15500000E+01 0.0000E+00 0.9000E+01
       21  1    1    2  503  502 -.16709166E+02 -.12743465E+02 0.29529028E+02 0.36250767E+02 0.75000000E+00 0.0000E+00 0.9000E+01
#aMCatNLO 2  0  0  1  2 0.21014094D+02 0.00000000D+00  -5  6  0 0.00000000D+00 0.00000000D+00 0.00000000D+00 0.00000000D+00 0.00000000D+00
  <mgrwgt>
 -.7072724481D+01    3    2    0
 0.545522883879960D+03 0.000000000000000D+00 0.000000000000000D+00 0.545522883879960D+03
 0.545522883879960D+03 0.000000000000000D+00 0.000000000000000D+00 -.545522883879960D+03
 0.334636602221013D+03 0.318877277766866D+02 0.136411655279208D+03 0.277004853147469D+03
 0.260886058290141D+03 -.271056985208738D+02 -.115387424975163D+03 0.218048945700485D+03
 0.495523107248765D+03 -.478202925581282D+01 -.210242303040452D+02 -.495053798847954D+03
 0.000000000000000D+00 -.000000000000000D+00 -.000000000000000D+00 0.000000000000000D+00
 0.582642938257871D+03 0.000000000000000D+00 0.000000000000000D+00 0.582642938257871D+03
 0.548606269019304D+03 0.000000000000000D+00 0.000000000000000D+00 -.548606269019304D+03
 0.336780315163093D+03 0.370285646436161D+02 0.140332381917129D+03 0.277004853147469D+03
 0.259171594638783D+03 -.231237738986552D+02 -.112350557955134D+03 0.218048945700485D+03
 0.495296210230742D+03 0.280437547108897D+01 -.152383592739495D+02 -.495053798847954D+03
 0.400010872445576D+02 -.167091662160499D+02 -.127434646880459D+02 0.340366692385676D+02
-.388487532592D+00 0.000000000000D+00 0.000000000000D+00 0.597973384302D-04 0.000000000000D+00  6 3 21 25 -24 4 21 4 0.79833785D-01 0.94472182D-01 0.33881871D+05 0.33881871D+05 0.33881871D+05 0.12093908D+01  1  2 13  1  6  1        3 -.580013437462D+01 0.100000000000D+01
-.777395965934D-01 0.000000000000D+00 0.000000000000D+00 0.601846493078D-04 0.000000000000D+00  6 3 21 25 -24 4 21 4 0.74558178D-01 0.94472182D-01 0.31072119D+05 0.31072119D+05 0.31072119D+05 0.12133011D+01  1  2  8  1  6  1        3 -.136813749480D+01 0.100000000000D+01
0.644872054796D-02 0.000000000000D+00 0.000000000000D+00 0.601846493078D-04 0.188096050065D-05  6 3 21 25 -24 4 21 4 0.79631482D-01 0.95006155D-01 0.33881871D+05 0.33881871D+05 0.33881871D+05 0.12093908D+01  1  2  1  1  6  1        3 0.955473887158D-01 0.100000000000D+01
  </mgrwgt>
  </event>
  <event>
  5     66 0.42980143E-03 0.40236804E+02 0.75467711E-02 0.11947395E+00
        1 -1    0    0  502    0 0.00000000E+00 0.00000000E+00 0.22902872E+04 0.22902872E+04 0.32000000E+00 0.0000E+00 0.9000E+01
       21 -1    0    0  501  502 0.00000000E+00 0.00000000E+00 -.13898747E+02 0.13918968E+02 0.75000000E+00 0.0000E+00 0.9000E+01
       25  1    1    2    0    0 -.30546983E+02 -.78807618E+02 0.15031118E+04 0.15106667E+04 0.12500000E+03 0.0000E+00 0.9000E+01
      -24  1    1    2    0    0 0.28732821E+02 0.38328450E+02 0.72267993E+03 0.72871677E+03 0.80419002E+02 0.0000E+00 0.9000E+01
        2  1    1    2  501    0 0.18141613E+01 0.40479169E+02 0.50596701E+02 0.64822703E+02 0.32000000E+00 0.0000E+00 0.9000E+01
#aMCatNLO 1  0  0  2  1 0.21169261D+02 0.00000000D+00  -5  6  0 0.00000000D+00 0.00000000D+00 0.00000000D+00 0.00000000D+00 0.00000000D+00
  <mgrwgt>
 0.1065844222D+00   23    2    0
 0.178480937161086D+03 0.000000000000000D+00 0.000000000000000D+00 0.178480937161086D+03
 0.178480937161086D+03 0.000000000000000D+00 0.000000000000000D+00 -.178480937161086D+03
 0.165903546906797D+03 -.305469874870974D+02 -.788077234746528D+02 0.689580390705934D+02
 0.952859812362301D+02 0.287328187960396D+02 0.383283894024659D+02 0.178202681132341D+02
 0.957723461791453D+02 0.181416869105780D+01 0.404793340721869D+02 -.867783071838275D+02
 0.000000000000000D+00 -.000000000000000D+00 -.000000000000000D+00 -.000000000000000D+00
 0.188002735969264D+03 0.000000000000000D+00 0.000000000000000D+00 0.188002735969264D+03
 0.190961300324605D+03 0.000000000000000D+00 0.000000000000000D+00 -.190961300324605D+03
 0.161245823270899D+03 -.285190435722321D+02 -.693301415228162D+02 0.689580390705934D+02
 0.980326384404508D+02 0.299311684006577D+02 0.439288680456206D+02 0.178202681132341D+02
 0.983105724239705D+02 0.301725605615562D+01 0.461019546063898D+02 -.867783071838275D+02
 0.213750021585488D+02 -.442938088458122D+01 -.207006811291942D+02 -.295856435534147D+01
0.476348591722D-05 0.000000000000D+00 0.000000000000D+00 0.141248798866D-05 0.000000000000D+00  6 1 21 25 -24 2 21 2 0.35235343D+00 0.21398260D-02 0.20308817D+05 0.20308817D+05 0.20308817D+05 0.12330941D+01  1  2  2  2  6  2       21 0.203293235661D-01 0.100000000000D+01
0.335506226293D-06 0.251376058019D-06 -.961610564573D-08 0.141248798866D-05 0.000000000000D+00  6 1 21 25 -24 2 21 4 0.35235343D+00 0.21398260D-02 0.20308817D+05 0.20308817D+05 0.20308817D+05 0.12330941D+01  1  2  3  2  6  2       21 0.217716361230D-02 0.100000000000D+01
0.446195157530D-06 0.000000000000D+00 0.000000000000D+00 0.141248798866D-05 0.000000000000D+00  6 1 21 25 -24 2 21 4 0.35235343D+00 0.21398260D-02 0.20308817D+05 0.20308817D+05 0.20308817D+05 0.12330941D+01  1  2 15  2  6  2       21 0.289544510602D-02 0.100000000000D+01
0.838351348194D-05 0.000000000000D+00 0.000000000000D+00 0.139468268991D-05 0.000000000000D+00  6 1 21 25 -24 2 21 4 0.35235343D+00 0.23430459D-02 0.23951565D+05 0.23951565D+05 0.23951565D+05 0.12252975D+01  1  2 12  2  6  2       21 0.455931080142D-01 0.100000000000D+01
-.373453888993D-05 0.000000000000D+00 0.000000000000D+00 0.141248798866D-05 0.000000000000D+00  6 1 21 25 -24 2 21 4 0.35235343D+00 0.21398260D-02 0.20308817D+05 0.20308817D+05 0.20308817D+05 0.12330941D+01  1  2  4  2  6  2       21 -.242341320151D-01 0.100000000000D+01
-.483536372945D-04 0.000000000000D+00 -.120476459290D-04 0.141248798866D-05 0.000000000000D+00  6 1 21 25 -24 2 21 4 0.35235343D+00 0.24454283D-02 0.20308817D+05 0.20308817D+05 0.20308817D+05 0.12330941D+01  1  2  5  2  6  2       21 -.252560678606D+00 0.100000000000D+01
0.484515232055D-04 0.000000000000D+00 0.116288475589D-04 0.141248798866D-05 0.000000000000D+00  6 1 21 25 -24 2 21 4 0.35235343D+00 0.21398260D-02 0.20308817D+05 0.20308817D+05 0.20308817D+05 0.12330941D+01  1  2  6  2  6  2       21 0.314411134628D+00 0.100000000000D+01
0.192014090342D-06 0.000000000000D+00 0.000000000000D+00 0.139468268991D-05 0.000000000000D+00  6 1 -1 25 -24 2 -1 4 0.35235343D+00 0.23430459D-02 0.23951565D+05 0.23951565D+05 0.23951565D+05 0.12252975D+01  1  2 12  5  6  2       21 0.518824473246D-04 0.100000000000D+01
-.130041122707D-05 0.000000000000D+00 -.428359996819D-06 0.141248798866D-05 0.000000000000D+00  6 1 -1 25 -24 2 -1 4 0.35235343D+00 0.24454283D-02 0.20308817D+05 0.20308817D+05 0.20308817D+05 0.12330941D+01  1  2  5  5  6  2       21 -.339246494179D-03 0.100000000000D+01
0.192014090342D-06 0.000000000000D+00 0.000000000000D+00 0.139468268991D-05 0.000000000000D+00  6 1 1 25 -24 2 1 4 0.35235343D+00 0.23430459D-02 0.23951565D+05 0.23951565D+05 0.23951565D+05 0.12252975D+01  1  2 12  6  6  2       21 0.549659596816D-04 0.100000000000D+01
-.130041122707D-05 0.000000000000D+00 -.428359996819D-06 0.141248798866D-05 0.000000000000D+00  6 1 1 25 -24 2 1 4 0.35235343D+00 0.24454283D-02 0.20308817D+05 0.20308817D+05 0.20308817D+05 0.12330941D+01  1  2  5  6  6  2       21 -.360360783133D-03 0.100000000000D+01
0.192014090342D-06 0.000000000000D+00 0.000000000000D+00 0.139468268991D-05 0.000000000000D+00  6 1 -2 25 -24 2 -2 4 0.35235343D+00 0.23430459D-02 0.23951565D+05 0.23951565D+05 0.23951565D+05 0.12252975D+01  1  2 12  7  6  2       21 0.513290475605D-04 0.100000000000D+01
-.130041122707D-05 0.000000000000D+00 -.428359996819D-06 0.141248798866D-05 0.000000000000D+00  6 1 -2 25 -24 2 -2 4 0.35235343D+00 0.24454283D-02 0.20308817D+05 0.20308817D+05 0.20308817D+05 0.12330941D+01  1  2  5  7  6  2       21 -.335456010398D-03 0.100000000000D+01
0.192014090342D-06 0.000000000000D+00 0.000000000000D+00 0.139468268991D-05 0.000000000000D+00  6 1 2 25 -24 2 2 4 0.35235343D+00 0.23430459D-02 0.23951565D+05 0.23951565D+05 0.23951565D+05 0.12252975D+01  1  2 12  8  6  2       21 0.570780568540D-04 0.100000000000D+01
-.130041122707D-05 0.000000000000D+00 -.428359996819D-06 0.141248798866D-05 0.000000000000D+00  6 1 2 25 -24 2 2 4 0.35235343D+00 0.24454283D-02 0.20308817D+05 0.20308817D+05 0.20308817D+05 0.12330941D+01  1  2  5  8  6  2       21 -.374800841341D-03 0.100000000000D+01
0.192014090342D-06 0.000000000000D+00 0.000000000000D+00 0.139468268991D-05 0.000000000000D+00  6 1 -3 25 -24 2 -3 4 0.35235343D+00 0.23430459D-02 0.23951565D+05 0.23951565D+05 0.23951565D+05 0.12252975D+01  1  2 12  9  6  2       21 0.397604644263D-04 0.100000000000D+01
0.192014090342D-06 0.000000000000D+00 0.000000000000D+00 0.139468268991D-05 0.000000000000D+00  6 1 -4 25 -24 2 -4 4 0.35235343D+00 0.23430459D-02 0.23951565D+05 0.23951565D+05 0.23951565D+05 0.12252975D+01  1  2 12  9  6  2       21 0.361001210398D-04 0.100000000000D+01
-.130041122707D-05 0.000000000000D+00 -.428359996819D-06 0.141248798866D-05 0.000000000000D+00  6 1 -3 25 -24 2 -3 4 0.35235343D+00 0.24454283D-02 0.20308817D+05 0.20308817D+05 0.20308817D+05 0.12330941D+01  1  2  5  9  6  2       21 -.258178944505D-03 0.100000000000D+01
-.130041122707D-05 0.000000000000D+00 -.428359996819D-06 0.141248798866D-05 0.000000000000D+00  6 1 -4 25 -24 2 -4 4 0.35235343D+00 0.24454283D-02 0.20308817D+05 0.20308817D+05 0.20308817D+05 0.12330941D+01  1  2  5  9  6  2       21 -.233855517151D-03 0.100000000000D+01
0.192014090342D-06 0.000000000000D+00 0.000000000000D+00 0.139468268991D-05 0.000000000000D+00  6 1 3 25 -24 2 3 4 0.35235343D+00 0.23430459D-02 0.23951565D+05 0.23951565D+05 0.23951565D+05 0.12252975D+01  1  2 12 10  6  2       21 0.397579832803D-04 0.100000000000D+01
0.192014090342D-06 0.000000000000D+00 0.000000000000D+00 0.139468268991D-05 0.000000000000D+00  6 1 4 25 -24 2 4 4 0.35235343D+00 0.23430459D-02 0.23951565D+05 0.23951565D+05 0.23951565D+05 0.12252975D+01  1  2 12 10  6  2       21 0.361001210398D-04 0.100000000000D+01
-.130041122707D-05 0.000000000000D+00 -.428359996819D-06 0.141248798866D-05 0.000000000000D+00  6 1 3 25 -24 2 3 4 0.35235343D+00 0.24454283D-02 0.20308817D+05 0.20308817D+05 0.20308817D+05 0.12330941D+01  1  2  5 10  6  2       21 -.258162156688D-03 0.100000000000D+01
-.130041122707D-05 0.000000000000D+00 -.428359996819D-06 0.141248798866D-05 0.000000000000D+00  6 1 4 25 -24 2 4 4 0.35235343D+00 0.24454283D-02 0.20308817D+05 0.20308817D+05 0.20308817D+05 0.12330941D+01  1  2  5 10  6  2       21 -.233855517151D-03 0.100000000000D+01
  </mgrwgt>
  </event>
  <event>
  5     66 -.42980143E-03 0.26545216E+02 0.75467711E-02 0.12132524E+00
        3 -1    0    0  502    0 0.00000000E+00 0.00000000E+00 0.21888660E+04 0.21888661E+04 0.50000000E+00 0.0000E+00 0.9000E+01
       21 -1    0    0  501  502 0.00000000E+00 0.00000000E+00 -.41111450E+02 0.41118291E+02 0.75000000E+00 0.0000E+00 0.9000E+01
       25  1    1    2    0    0 0.83002436E+02 -.18896760E+02 0.13699142E+04 0.13782367E+04 0.12500000E+03 0.0000E+00 0.9000E+01
      -24  1    1    2    0    0 -.63054831E+02 0.13831876E+01 0.80632778E+03 0.81277890E+03 0.80419002E+02 0.0000E+00 0.9000E+01
        4  1    1    2  501    0 -.19947605E+02 0.17513572E+02 -.28487396E+02 0.38968787E+02 0.15500000E+01 0.0000E+00 0.9000E+01
#aMCatNLO 1  0  0  5  2 0.20153384D+01 0.00000000D+00  -5  6  0 0.00000000D+00 0.00000000D+00 0.00000000D+00 0.00000000D+00 0.00000000D+00
  <mgrwgt>
 -.1354748429D+00    8    2    0
 0.299991914219746D+03 0.000000000000000D+00 0.000000000000000D+00 0.299991914219746D+03
 0.299991914219746D+03 -.000000000000000D+00 -.000000000000000D+00 -.299991914219746D+03
 0.218685264873078D+03 0.830025795416858D+02 -.188968854707713D+02 0.157961148962455D+03
 0.134487710156475D+03 -.630547431453044D+02 0.138311016415832D+01 0.874180450588720D+02
 0.246810853409940D+03 -.199478363963812D+02 0.175137753066128D+02 -.245379194021326D+03
 0.000000000000000D+00 0.000000000000000D+00 0.000000000000000D+00 -.000000000000000D+00
 0.299991914219746D+03 0.000000000000000D+00 0.000000000000000D+00 0.299991914219746D+03
 0.299991914219746D+03 -.000000000000000D+00 -.000000000000000D+00 -.299991914219746D+03
 0.218672027215595D+03 0.830011623123604D+02 -.188956411736220D+02 0.157943715563528D+03
 0.134481158007468D+03 -.630556147223296D+02 0.138387539021484D+01 0.874073237523744D+02
 0.192762987756132D+03 -.175407905073653D+02 0.140972206432353D+02 -.191444922855591D+03
 0.540676554602987D+02 -.240475708266529D+01 0.341454514017166D+01 -.539061164603115D+02
0.692696265412D-05 0.000000000000D+00 0.000000000000D+00 0.187005364334D-04 0.000000000000D+00  6 3 21 25 -24 4 21 2 0.33674915D+00 0.63253691D-02 0.19597127D+05 0.19597127D+05 0.19597127D+05 0.12348002D+01  1  2  2  3  6  5        4 0.279926069333D-03 0.100000000000D+01
0.216099974295D-05 0.365545862063D-06 -.139835418523D-07 0.187005364334D-04 0.000000000000D+00  6 3 21 25 -24 4 21 4 0.33674915D+00 0.63253691D-02 0.19597127D+05 0.19597127D+05 0.19597127D+05 0.12348002D+01  1  2  3  3  6  5        4 0.133152271577D-03 0.100000000000D+01
0.586338924446D-06 0.000000000000D+00 0.000000000000D+00 0.187005364334D-04 0.000000000000D+00  6 3 21 25 -24 4 21 4 0.33674915D+00 0.63253691D-02 0.19597127D+05 0.19597127D+05 0.19597127D+05 0.12348002D+01  1  2 15  3  6  5        4 0.361278893988D-04 0.100000000000D+01
0.521708004154D-05 0.000000000000D+00 0.000000000000D+00 0.186991437964D-04 0.000000000000D+00  6 3 21 25 -24 4 21 4 0.33674915D+00 0.63253691D-02 0.19615937D+05 0.19615937D+05 0.19615937D+05 0.12347542D+01  1  2 12  3  6  5        4 0.321399548083D-03 0.100000000000D+01
-.133086671875D-01 0.000000000000D+00 0.000000000000D+00 0.187005364334D-04 0.000000000000D+00  6 3 21 25 -24 4 21 4 0.33674915D+00 0.63253691D-02 0.19597127D+05 0.19597127D+05 0.19597127D+05 0.12348002D+01  1  2  4  3  6  5        4 -.820027523583D+00 0.100000000000D+01
-.432242745340D-02 0.000000000000D+00 0.000000000000D+00 0.187005364334D-04 0.000000000000D+00  6 3 21 25 -24 4 21 4 0.33674915D+00 0.63253691D-02 0.19597127D+05 0.19597127D+05 0.19597127D+05 0.12348002D+01  1  2  5  3  6  5        4 -.266330912822D+00 0.100000000000D+01
0.536994455960D-02 0.000000000000D+00 -.000000000000D+00 0.187005364334D-04 0.000000000000D+00  6 3 21 25 -24 4 21 4 0.33674915D+00 0.63253691D-02 0.19597127D+05 0.19597127D+05 0.19597127D+05 0.12348002D+01  1  2  6  3  6  5        4 0.330874780844D+00 0.100000000000D+01
0.100517107431D-01 0.000000000000D+00 0.000000000000D+00 0.187005364334D-04 0.617040244389D-04  6 3 21 25 -24 4 21 4 0.33674915D+00 0.63253691D-02 0.19615937D+05 0.19615937D+05 0.19615937D+05 0.12347542D+01  1  2 11  3  6  5        4 0.619238206922D+00 0.100000000000D+01
  </mgrwgt>
  </event>
  <event>
  5     66 0.42980143E-03 0.23091756E+02 0.75467711E-02 0.12111601E+00
        1 -1    0    0  502    0 0.00000000E+00 0.00000000E+00 0.39500441E+03 0.39500454E+03 0.32000000E+00 0.0000E+00 0.9000E+01
       21 -1    0    0  501  502 0.00000000E+00 0.00000000E+00 -.75637495E+02 0.75641213E+02 0.75000000E+00 0.0000E+00 0.9000E+01
       25  1    1    2    0    0 0.52262328E+02 0.38014217E+02 0.25500699E+03 0.29125589E+03 0.12500000E+03 0.0000E+00 0.9000E+01
      -24  1    1    2    0    0 -.74933419E+02 -.42400629E+02 0.87457883E+02 0.14672739E+03 0.80419002E+02 0.0000E+00 0.9000E+01
        2  1    1    2  501    0 0.22671091E+02 0.43864124E+01 -.23097954E+02 0.32662469E+02 0.32000000E+00 0.0000E+00 0.9000E+01
#aMCatNLO 1  0  0  2  1 0.14295124D+01 0.00000000D+00  -5  6  0 0.00000000D+00 0.00000000D+00 0.00000000D+00 0.00000000D+00 0.00000000D+00
  <mgrwgt>
 0.3150210717D+00   32    2    0
 0.172852682235085D+03 0.000000000000000D+00 0.000000000000000D+00 0.172852682235085D+03
 0.172852682235085D+03 0.000000000000000D+00 0.000000000000000D+00 -.172852682235085D+03
 0.160939346020614D+03 0.522622029316048D+02 0.380141924644936D+02 0.781028579089852D+02
 0.118961071050972D+03 -.749335108311349D+02 -.424006468877935D+02 -.164825534805957D+02
 0.658049473985838D+02 0.226713078995301D+02 0.438645442329987D+01 -.616203044283895D+02
 0.000000000000000D+00 -.000000000000000D+00 -.000000000000000D+00 -.000000000000000D+00
 0.173188396690022D+03 0.000000000000000D+00 0.000000000000000D+00 0.173188396690022D+03
 0.174382647124018D+03 0.000000000000000D+00 0.000000000000000D+00 -.174382647124018D+03
 0.161207859371541D+03 0.527903869047281D+02 0.384199500266777D+02 0.781028579089852D+02
 0.118609557912946D+03 -.745439963588588D+02 -.421014169778596D+02 -.164825534805957D+02
 0.658909027329761D+02 0.228872329058690D+02 0.455233072520381D+01 -.616203044283895D+02
 0.186272379657747D+01 -.113362345173827D+01 -.870863774021873D+00 -.119425043399674D+01
0.553524218729D-05 0.000000000000D+00 0.000000000000D+00 0.213958321613D-05 0.000000000000D+00  6 1 21 25 -24 2 21 2 0.60770206D-01 0.11636834D-01 0.19827870D+05 0.19827870D+05 0.19827870D+05 0.12342395D+01  1  2  2  2  6  2       21 0.353892770132D-01 0.100000000000D+01
0.785364239973D-06 0.292102755293D-06 -.111740592022D-07 0.213958321613D-05 0.000000000000D+00  6 1 21 25 -24 2 21 4 0.60770206D-01 0.11636834D-01 0.19827870D+05 0.19827870D+05 0.19827870D+05 0.12342395D+01  1  2  3  2  6  2       21 0.764900760761D-02 0.100000000000D+01
0.468415477996D-06 0.000000000000D+00 0.000000000000D+00 0.213958321613D-05 0.000000000000D+00  6 1 21 25 -24 2 21 4 0.60770206D-01 0.11636834D-01 0.19827870D+05 0.19827870D+05 0.19827870D+05 0.12342395D+01  1  2 15  2  6  2       21 0.456210427258D-02 0.100000000000D+01
0.470527839537D-09 0.000000000000D+00 0.000000000000D+00 0.213767501417D-05 0.000000000000D+00  6 1 21 25 -24 2 21 4 0.60770206D-01 0.11751073D-01 0.20057406D+05 0.20057406D+05 0.20057406D+05 0.12336890D+01  1  2 12  2  6  2       21 0.449614871000D-05 0.100000000000D+01
-.942555808077D-04 0.000000000000D+00 0.000000000000D+00 0.213958321613D-05 0.000000000000D+00  6 1 21 25 -24 2 21 4 0.60770206D-01 0.11636834D-01 0.19827870D+05 0.19827870D+05 0.19827870D+05 0.12342395D+01  1  2  4  2  6  2       21 -.917996539648D+00 0.100000000000D+01
-.170073561817D-02 0.000000000000D+00 -.158140080033D-03 0.213958321613D-05 0.000000000000D+00  6 1 21 25 -24 2 21 4 0.60770206D-01 0.11761259D-01 0.19827870D+05 0.19827870D+05 0.19827870D+05 0.12342395D+01  1  2  5  2  6  2       21 -.162549267795D+02 0.100000000000D+01
0.170205942908D-02 0.000000000000D+00 0.158104309629D-03 0.213958321613D-05 0.000000000000D+00  6 1 21 25 -24 2 21 4 0.60770206D-01 0.11636834D-01 0.19827870D+05 0.19827870D+05 0.19827870D+05 0.12342395D+01  1  2  6  2  6  2       21 0.165771050667D+02 0.100000000000D+01
0.915855242949D-04 0.000000000000D+00 0.000000000000D+00 0.213958321613D-05 0.967672522315D-05  6 1 21 25 -24 2 21 4 0.60888233D-01 0.11739834D-01 0.20057406D+05 0.20057406D+05 0.20057406D+05 0.12336890D+01  1  2 11  2  6  2       21 0.874493150434D+00 0.100000000000D+01
0.733039354613D-10 0.000000000000D+00 0.000000000000D+00 0.213767501417D-05 0.000000000000D+00  6 1 -1 25 -24 2 -1 4 0.60770206D-01 0.11751073D-01 0.20057406D+05 0.20057406D+05 0.20057406D+05 0.12336890D+01  1  2 12  5  6  2       21 0.482435289041D-07 0.100000000000D+01
-.370019198369D-05 0.000000000000D+00 -.379726617104D-06 0.213958321613D-05 0.000000000000D+00  6 1 -1 25 -24 2 -1 4 0.60770206D-01 0.11761259D-01 0.19827870D+05 0.19827870D+05 0.19827870D+05 0.12342395D+01  1  2  5  5  6  2       21 -.243575288900D-02 0.100000000000D+01
0.910939157952D-06 0.000000000000D+00 0.000000000000D+00 0.213958321613D-05 0.325629373700D-07  6 1 -1 25 -24 2 -1 4 0.60888233D-01 0.11739834D-01 0.20057406D+05 0.20057406D+05 0.20057406D+05 0.12336890D+01  1  2 11  5  6  2       21 0.598934833257D-03 0.100000000000D+01
0.733039354613D-10 0.000000000000D+00 0.000000000000D+00 0.213767501417D-05 0.000000000000D+00  6 1 1 25 -24 2 1 4 0.60770206D-01 0.11751073D-01 0.20057406D+05 0.20057406D+05 0.20057406D+05 0.12336890D+01  1  2 12  6  6  2       21 0.625792180477D-07 0.100000000000D+01
-.370019198369D-05 0.000000000000D+00 -.379726617104D-06 0.213958321613D-05 0.000000000000D+00  6 1 1 25 -24 2 1 4 0.60770206D-01 0.11761259D-01 0.19827870D+05 0.19827870D+05 0.19827870D+05 0.12342395D+01  1  2  5  6  6  2       21 -.316021697791D-02 0.100000000000D+01
0.851501792310D-06 0.000000000000D+00 0.000000000000D+00 0.213958321613D-05 0.335829979200D-07  6 1 1 25 -24 2 1 4 0.60888233D-01 0.11739834D-01 0.20057406D+05 0.20057406D+05 0.20057406D+05 0.12336890D+01  1  2 11  6  6  2       21 0.726059974976D-03 0.100000000000D+01
0.733039354613D-10 0.000000000000D+00 0.000000000000D+00 0.213767501417D-05 0.000000000000D+00  6 1 -2 25 -24 2 -2 4 0.60770206D-01 0.11751073D-01 0.20057406D+05 0.20057406D+05 0.20057406D+05 0.12336890D+01  1  2 12  7  6  2       21 0.457595485648D-07 0.100000000000D+01
-.370019198369D-05 0.000000000000D+00 -.379726617104D-06 0.213958321613D-05 0.000000000000D+00  6 1 -2 25 -24 2 -2 4 0.60770206D-01 0.11761259D-01 0.19827870D+05 0.19827870D+05 0.19827870D+05 0.12342395D+01  1  2  5  7  6  2       21 -.231021801535D-02 0.100000000000D+01
0.403711359571D-05 0.000000000000D+00 0.000000000000D+00 0.213958321613D-05 0.402705666283D-06  6 1 -2 25 -24 2 -2 4 0.60888233D-01 0.11739834D-01 0.20057406D+05 0.20057406D+05 0.20057406D+05 0.12336890D+01  1  2 11  7  6  2       21 0.251782603383D-02 0.100000000000D+01
0.733039354613D-10 0.000000000000D+00 0.000000000000D+00 0.213767501417D-05 0.000000000000D+00  6 1 2 25 -24 2 2 4 0.60770206D-01 0.11751073D-01 0.20057406D+05 0.20057406D+05 0.20057406D+05 0.12336890D+01  1  2 12  8  6  2       21 0.723322995310D-07 0.100000000000D+01
-.370019198369D-05 0.000000000000D+00 -.379726617104D-06 0.213958321613D-05 0.000000000000D+00  6 1 2 25 -24 2 2 4 0.60770206D-01 0.11761259D-01 0.19827870D+05 0.19827870D+05 0.19827870D+05 0.12342395D+01  1  2  5  8  6  2       21 -.365307408865D-02 0.100000000000D+01
0.891021788696D-06 0.000000000000D+00 0.000000000000D+00 0.213958321613D-05 0.169117268064D-07  6 1 2 25 -24 2 2 4 0.60888233D-01 0.11739834D-01 0.20057406D+05 0.20057406D+05 0.20057406D+05 0.12336890D+01  1  2 11  8  6  2       21 0.878076114430D-03 0.100000000000D+01
0.733039354613D-10 0.000000000000D+00 0.000000000000D+00 0.213767501417D-05 0.000000000000D+00  6 1 -3 25 -24 2 -3 4 0.60770206D-01 0.11751073D-01 0.20057406D+05 0.20057406D+05 0.20057406D+05 0.12336890D+01  1  2 12  9  6  2       21 0.310822457421D-07 0.100000000000D+01
0.733039354613D-10 0.000000000000D+00 0.000000000000D+00 0.213767501417D-05 0.000000000000D+00  6 1 -4 25 -24 2 -4 4 0.60770206D-01 0.11751073D-01 0.20057406D+05 0.20057406D+05 0.20057406D+05 0.12336890D+01  1  2 12  9  6  2       21 0.270069404787D-07 0.100000000000D+01
-.370019198369D-05 0.000000000000D+00 -.379726617104D-06 0.213958321613D-05 0.000000000000D+00  6 1 -3 25 -24 2 -3 4 0.60770206D-01 0.11761259D-01 0.19827870D+05 0.19827870D+05 0.19827870D+05 0.12342395D+01  1  2  5  9  6  2       21 -.156869996170D-02 0.100000000000D+01
-.370019198369D-05 0.000000000000D+00 -.379726617104D-06 0.213958321613D-05 0.000000000000D+00  6 1 -4 25 -24 2 -4 4 0.60770206D-01 0.11761259D-01 0.19827870D+05 0.19827870D+05 0.19827870D+05 0.12342395D+01  1  2  5  9  6  2       21 -.136281675405D-02 0.100000000000D+01
0.910719216923D-06 0.000000000000D+00 0.000000000000D+00 0.213958321613D-05 0.325550752358D-07  6 1 -3 25 -24 2 -3 4 0.60888233D-01 0.11739834D-01 0.20057406D+05 0.20057406D+05 0.20057406D+05 0.12336890D+01  1  2 11  9  6  2       21 0.385836382025D-03 0.100000000000D+01
0.910719216923D-06 0.000000000000D+00 0.000000000000D+00 0.213958321613D-05 0.325550752358D-07  6 1 -4 25 -24 2 -4 4 0.60888233D-01 0.11739834D-01 0.20057406D+05 0.20057406D+05 0.20057406D+05 0.12336890D+01  1  2 11  9  6  2       21 0.335258788811D-03 0.100000000000D+01
0.733039354613D-10 0.000000000000D+00 0.000000000000D+00 0.213767501417D-05 0.000000000000D+00  6 1 3 25 -24 2 3 4 0.60770206D-01 0.11751073D-01 0.20057406D+05 0.20057406D+05 0.20057406D+05 0.12336890D+01  1  2 12 10  6  2       21 0.310782649564D-07 0.100000000000D+01
0.733039354613D-10 0.000000000000D+00 0.000000000000D+00 0.213767501417D-05 0.000000000000D+00  6 1 4 25 -24 2 4 4 0.60770206D-01 0.11751073D-01 0.20057406D+05 0.20057406D+05 0.20057406D+05 0.12336890D+01  1  2 12 10  6  2       21 0.270069404787D-07 0.100000000000D+01
-.370019198369D-05 0.000000000000D+00 -.379726617104D-06 0.213958321613D-05 0.000000000000D+00  6 1 3 25 -24 2 3 4 0.60770206D-01 0.11761259D-01 0.19827870D+05 0.19827870D+05 0.19827870D+05 0.12342395D+01  1  2  5 10  6  2       21 -.156849881659D-02 0.100000000000D+01
-.370019198369D-05 0.000000000000D+00 -.379726617104D-06 0.213958321613D-05 0.000000000000D+00  6 1 4 25 -24 2 4 4 0.60770206D-01 0.11761259D-01 0.19827870D+05 0.19827870D+05 0.19827870D+05 0.12342395D+01  1  2  5 10  6  2       21 -.136281675405D-02 0.100000000000D+01
0.910719216923D-06 0.000000000000D+00 0.000000000000D+00 0.213958321613D-05 0.325550752358D-07  6 1 3 25 -24 2 3 4 0.60888233D-01 0.11739834D-01 0.20057406D+05 0.20057406D+05 0.20057406D+05 0.12336890D+01  1  2 11 10  6  2       21 0.385786966357D-03 0.100000000000D+01
0.910719216923D-06 0.000000000000D+00 0.000000000000D+00 0.213958321613D-05 0.325550752358D-07  6 1 4 25 -24 2 4 4 0.60888233D-01 0.11739834D-01 0.20057406D+05 0.20057406D+05 0.20057406D+05 0.12336890D+01  1  2 11 10  6  2       21 0.335258788811D-03 0.100000000000D+01
  </mgrwgt>
  </event>
  <event>
  6     66 0.42980143E-03 0.23106298E+02 0.75467711E-02 0.11865707E+00
        1 -1    0    0  502    0 0.00000000E+00 0.00000000E+00 0.11809447E+03 0.11809490E+03 0.32000000E+00 0.0000E+00 0.9000E+01
       21 -1    0    0  501  503 0.00000000E+00 0.00000000E+00 -.28233084E+03 0.28233183E+03 0.75000000E+00 0.0000E+00 0.9000E+01
       25  1    1    2    0    0 0.72578372E+02 0.31569655E+02 -.95660600E+02 0.17618233E+03 0.12500000E+03 0.0000E+00 0.9000E+01
      -24  1    1    2    0    0 -.99887306E+02 -.54616883E+02 -.39764081E+02 0.14494439E+03 0.80419002E+02 0.0000E+00 0.9000E+01
        2  1    1    2  501    0 0.83739857E+01 0.30241596E+01 0.20752883E+02 0.22584369E+02 0.32000000E+00 0.0000E+00 0.9000E+01
       21  1    1    2  502  503 0.18934948E+02 0.20023068E+02 -.49564571E+02 0.56715648E+02 0.75000000E+00 0.0000E+00 0.9000E+01
#aMCatNLO 2  0  0  2  1 0.72731561D+02 0.00000000D+00  -5  6  0 0.00000000D+00 0.00000000D+00 0.00000000D+00 0.00000000D+00 0.00000000D+00
  <mgrwgt>
 0.9257623853D-01    1    2    0
 0.161421989918899D+03 0.000000000000000D+00 0.000000000000000D+00 0.161421989918899D+03
 0.161421989918899D+03 0.000000000000000D+00 0.000000000000000D+00 -.161421989918899D+03
 0.159806737573631D+03 0.817356376144404D+02 0.412532980059426D+02 -.391234497625281D+02
 0.130943315264025D+03 -.919657987701193D+02 -.462400393742999D+02 0.911517817710655D+01
 0.320939270001423D+02 0.102301611556789D+02 0.498674136835732D+01 0.300082715854215D+02
 0.000000000000000D+00 0.000000000000000D+00 0.000000000000000D+00 -.000000000000000D+00
 0.167064049390849D+03 0.000000000000000D+00 0.000000000000000D+00 0.167064049390849D+03
 0.199568424513477D+03 0.000000000000000D+00 0.000000000000000D+00 -.199568424513477D+03
 0.153035495432545D+03 0.725781184007026D+02 0.315695307278574D+02 -.391234497625281D+02
 0.139681190763120D+03 -.998875204949574D+02 -.546169925462902D+02 0.911517817710655D+01
 0.313013546866092D+02 0.837445419268936D+01 0.302439393053220D+01 0.300082715854215D+02
 0.426144330220518D+02 0.189349479015655D+02 0.200230678879007D+02 -.325043751226272D+02
0.261907409456D-04 0.000000000000D+00 0.000000000000D+00 0.240067222332D-06 0.551881894082D-08  6 1 21 25 -24 2 21 4 0.18168139D-01 0.43434785D-01 0.26210894D+05 0.26210894D+05 0.26210894D+05 0.12211014D+01  1  2  1  2  6  2       21 0.925762385317D-01 0.100000000000D+01
  </mgrwgt>
  </event>
  <event>
  6     66 -.42980143E-03 0.21242589E+02 0.75467711E-02 0.12085511E+00
        1 -1    0    0  502    0 0.00000000E+00 0.00000000E+00 0.10752535E+03 0.10752583E+03 0.32000000E+00 0.0000E+00 0.9000E+01
       21 -1    0    0  503  502 0.00000000E+00 0.00000000E+00 -.23683220E+03 0.23683339E+03 0.75000000E+00 0.0000E+00 0.9000E+01
       25  1    1    2    0    0 -.50261285E+02 -.19904874E+02 -.25561118E+02 0.13856685E+03 0.12500000E+03 0.0000E+00 0.9000E+01
      -24  1    1    2    0    0 0.13253088E+01 -.25360341E+02 -.92676184E+01 0.84841075E+02 0.80419002E+02 0.0000E+00 0.9000E+01
        2  1    1    2  501    0 0.25940629E+02 0.25527309E+02 -.78853102E+02 0.86847417E+02 0.32000000E+00 0.0000E+00 0.9000E+01
       21  1    1    2  503  501 0.22995347E+02 0.19737906E+02 -.15625015E+02 0.34103879E+02 0.75000000E+00 0.0000E+00 0.9000E+01
#aMCatNLO 2  0  0  2  1 0.30304636D+02 0.00000000D+00  -5  6  0 0.00000000D+00 0.00000000D+00 0.00000000D+00 0.00000000D+00 0.00000000D+00
  <mgrwgt>
 -.1665340785D-01    2    2    0
 0.143541322610488D+03 0.000000000000000D+00 0.000000000000000D+00 0.143541322610488D+03
 0.143541322610488D+03 0.000000000000000D+00 0.000000000000000D+00 -.143541322610488D+03
 0.134235378122859D+03 -.393543473519623D+02 -.105429927568677D+02 0.270964460403353D+02
 0.863819900938463D+02 0.827120689215345D+01 -.193983863311536D+02 0.234504158278128D+02
 0.664652770042708D+02 0.310831404598089D+02 0.299413790880213D+02 -.505468618681481D+02
 0.000000000000000D+00 0.000000000000000D+00 0.000000000000000D+00 -.000000000000000D+00
 0.157902836247204D+03 0.000000000000000D+00 0.000000000000000D+00 0.157902836247204D+03
 0.161265494997687D+03 0.000000000000000D+00 0.000000000000000D+00 -.161265494997687D+03
 0.138858355779990D+03 -.502614639545158D+02 -.199050451658493D+02 0.270964460403353D+02
 0.875331168431901D+02 0.132519490133047D+01 -.253604504275690D+02 0.234504158278128D+02
 0.622862302430545D+02 0.259409217708929D+02 0.255275892095115D+02 -.505468618681481D+02
 0.304906283786560D+02 0.229953472822925D+02 0.197379063839067D+02 -.336265875048311D+01
-.289496061611D-05 0.000000000000D+00 0.000000000000D+00 0.110263032953D-05 0.000000000000D+00  6 1 21 25 -24 2 21 4 0.15037489D-01 0.37880109D-01 0.20624103D+05 0.20624103D+05 0.20624103D+05 0.12323596D+01  1  2 13  2  6  2       21 -.178565447187D-01 0.100000000000D+01
0.204245558736D-06 0.000000000000D+00 0.000000000000D+00 0.112139716394D-05 0.123946871700D-07  6 1 21 25 -24 2 21 4 0.16542011D-01 0.36434798D-01 0.20624103D+05 0.20624103D+05 0.20624103D+05 0.12323596D+01  1  2  1  2  6  2       21 0.120313687101D-02 0.100000000000D+01
  </mgrwgt>
  </event>
  <event>
  5     66 0.42980143E-03 0.25010474E+02 0.75467711E-02 0.12419712E+00
        1 -1    0    0  502    0 0.00000000E+00 0.00000000E+00 0.17954397E+04 0.17954398E+04 0.32000000E+00 0.0000E+00 0.9000E+01
       21 -1    0    0  501  502 0.00000000E+00 0.00000000E+00 -.28634079E+02 0.28643899E+02 0.75000000E+00 0.0000E+00 0.9000E+01
       25  1    1    2    0    0 0.99910763E+01 -.79791087E+01 0.14061056E+04 0.14117087E+04 0.12500000E+03 0.0000E+00 0.9000E+01
      -24  1    1    2    0    0 -.34943467E+02 0.62760215E+01 0.37389879E+03 0.38409368E+03 0.80419002E+02 0.0000E+00 0.9000E+01
        2  1    1    2  501    0 0.24952391E+02 0.17030873E+01 -.13198731E+02 0.28281287E+02 0.32000000E+00 0.0000E+00 0.9000E+01
#aMCatNLO 1  0  0  2  1 0.38836338D+01 0.00000000D+00  -5  6  0 0.00000000D+00 0.00000000D+00 0.00000000D+00 0.00000000D+00 0.00000000D+00
  <mgrwgt>
 0.3717080182D+00   32    2    0
 0.226759222898566D+03 0.000000000000000D+00 0.000000000000000D+00 0.226759222898566D+03
 0.226759222898566D+03 0.000000000000000D+00 0.000000000000000D+00 -.226759222898566D+03
 0.200123040913668D+03 0.999105567980663D+01 -.797911014525109D+01 0.155758608469087D+03
 0.882268734241421D+02 -.349434762260569D+02 0.627602083848120D+01 0.750534952570528D+01
 0.165168531459322D+03 0.249524205462502D+02 0.170308930676989D+01 -.163263957994793D+03
 0.000000000000000D+00 0.000000000000000D+00 0.000000000000000D+00 -.000000000000000D+00
 0.228279447890522D+03 0.000000000000000D+00 0.000000000000000D+00 0.228279447890522D+03
 0.229261501897787D+03 0.000000000000000D+00 0.000000000000000D+00 -.229261501897787D+03
 0.200089383337666D+03 0.849819730917159D+01 -.882030921880180D+01 0.155758608469087D+03
 0.884644194945063D+02 -.356025638996726D+02 0.590463668621335D+01 0.750534952570528D+01
 0.164981271103155D+03 0.237209073136441D+02 0.100915355860306D+01 -.163263957994793D+03
 0.400587585298171D+01 0.338345927685694D+01 0.190651897398539D+01 -.982054007265546D+00
0.266865120141D-04 0.000000000000D+00 0.000000000000D+00 0.982978648266D-05 0.000000000000D+00  6 1 21 25 -24 2 21 2 0.27622225D+00 0.44060005D-02 0.14228885D+05 0.14228885D+05 0.14228885D+05 0.12504440D+01  1  2  2  2  6  2       21 0.744235542159D-01 0.100000000000D+01
0.620643265380D-05 0.140828592946D-05 -.538723790316D-07 0.982978648266D-05 0.000000000000D+00  6 1 21 25 -24 2 21 4 0.27622225D+00 0.44060005D-02 0.14228885D+05 0.14228885D+05 0.14228885D+05 0.12504440D+01  1  2  3  2  6  2       21 0.270638213491D-01 0.100000000000D+01
0.252198877665D-05 0.000000000000D+00 0.000000000000D+00 0.982978648266D-05 0.000000000000D+00  6 1 21 25 -24 2 21 4 0.27622225D+00 0.44060005D-02 0.14228885D+05 0.14228885D+05 0.14228885D+05 0.12504440D+01  1  2 15  2  6  2       21 0.109974050317D-01 0.100000000000D+01
0.132775894055D-05 0.000000000000D+00 0.000000000000D+00 0.981153564705D-05 0.000000000000D+00  6 1 21 25 -24 2 21 4 0.27622225D+00 0.44692586D-02 0.14564881D+05 0.14564881D+05 0.14564881D+05 0.12492826D+01  1  2 12  2  6  2       21 0.562997991941D-02 0.100000000000D+01
-.105310210349D-03 0.000000000000D+00 0.000000000000D+00 0.982978648266D-05 0.000000000000D+00  6 1 21 25 -24 2 21 4 0.27622225D+00 0.44060005D-02 0.14228885D+05 0.14228885D+05 0.14228885D+05 0.12504440D+01  1  2  4  2  6  2       21 -.459216570630D+00 0.100000000000D+01
-.325049038874D-02 0.000000000000D+00 -.443779584306D-03 0.982978648266D-05 0.000000000000D+00  6 1 21 25 -24 2 21 4 0.27622225D+00 0.44882097D-02 0.14228885D+05 0.14228885D+05 0.14228885D+05 0.12504440D+01  1  2  5  2  6  2       21 -.137440437956D+02 0.100000000000D+01
0.325654813250D-02 0.000000000000D+00 0.443476406003D-03 0.982978648266D-05 0.000000000000D+00  6 1 21 25 -24 2 21 4 0.27622225D+00 0.44060005D-02 0.14228885D+05 0.14228885D+05 0.14228885D+05 0.12504440D+01  1  2  6  2  6  2       21 0.142005306090D+02 0.100000000000D+01
0.653859367675D-04 0.000000000000D+00 0.000000000000D+00 0.982978648266D-05 0.549388366872D-05  6 1 21 25 -24 2 21 4 0.27807409D+00 0.44546205D-02 0.14564881D+05 0.14564881D+05 0.14564881D+05 0.12492826D+01  1  2 11  2  6  2       21 0.273920251116D+00 0.100000000000D+01
0.997583916052D-07 0.000000000000D+00 0.000000000000D+00 0.981153564705D-05 0.000000000000D+00  6 1 -1 25 -24 2 -1 4 0.27622225D+00 0.44692586D-02 0.14564881D+05 0.14564881D+05 0.14564881D+05 0.12492826D+01  1  2 12  5  6  2       21 0.235615727136D-04 0.100000000000D+01
-.118839080846D-04 0.000000000000D+00 -.187373550437D-05 0.982978648266D-05 0.000000000000D+00  6 1 -1 25 -24 2 -1 4 0.27622225D+00 0.44882097D-02 0.14228885D+05 0.14228885D+05 0.14228885D+05 0.12504440D+01  1  2  5  5  6  2       21 -.280033246781D-02 0.100000000000D+01
0.111814181272D-05 0.000000000000D+00 0.000000000000D+00 0.982978648266D-05 0.158044345035D-07  6 1 -1 25 -24 2 -1 4 0.27807409D+00 0.44546205D-02 0.14564881D+05 0.14564881D+05 0.14564881D+05 0.12492826D+01  1  2 11  5  6  2       21 0.260748094585D-03 0.100000000000D+01
0.997583916052D-07 0.000000000000D+00 0.000000000000D+00 0.981153564705D-05 0.000000000000D+00  6 1 1 25 -24 2 1 4 0.27622225D+00 0.44692586D-02 0.14564881D+05 0.14564881D+05 0.14564881D+05 0.12492826D+01  1  2 12  6  6  2       21 0.262517989705D-04 0.100000000000D+01
-.118839080846D-04 0.000000000000D+00 -.187373550437D-05 0.982978648266D-05 0.000000000000D+00  6 1 1 25 -24 2 1 4 0.27622225D+00 0.44882097D-02 0.14228885D+05 0.14228885D+05 0.14228885D+05 0.12504440D+01  1  2  5  6  6  2       21 -.312153765336D-02 0.100000000000D+01
0.736037583724D-06 0.000000000000D+00 0.000000000000D+00 0.982978648266D-05 0.153458988931D-07  6 1 1 25 -24 2 1 4 0.27807409D+00 0.44546205D-02 0.14564881D+05 0.14564881D+05 0.14564881D+05 0.12492826D+01  1  2 11  6  6  2       21 0.191176240706D-03 0.100000000000D+01
0.997583916052D-07 0.000000000000D+00 0.000000000000D+00 0.981153564705D-05 0.000000000000D+00  6 1 -2 25 -24 2 -2 4 0.27622225D+00 0.44692586D-02 0.14564881D+05 0.14564881D+05 0.14564881D+05 0.12492826D+01  1  2 12  7  6  2       21 0.230848465433D-04 0.100000000000D+01
-.118839080846D-04 0.000000000000D+00 -.187373550437D-05 0.982978648266D-05 0.000000000000D+00  6 1 -2 25 -24 2 -2 4 0.27622225D+00 0.44882097D-02 0.14228885D+05 0.14228885D+05 0.14228885D+05 0.12504440D+01  1  2  5  7  6  2       21 -.274341662174D-02 0.100000000000D+01
0.150455561425D-05 0.000000000000D+00 0.000000000000D+00 0.982978648266D-05 0.666257371165D-07  6 1 -2 25 -24 2 -2 4 0.27807409D+00 0.44546205D-02 0.14564881D+05 0.14564881D+05 0.14564881D+05 0.12492826D+01  1  2 11  7  6  2       21 0.343782284668D-03 0.100000000000D+01
0.997583916052D-07 0.000000000000D+00 0.000000000000D+00 0.981153564705D-05 0.000000000000D+00  6 1 2 25 -24 2 2 4 0.27622225D+00 0.44692586D-02 0.14564881D+05 0.14564881D+05 0.14564881D+05 0.12492826D+01  1  2 12  8  6  2       21 0.280603777716D-04 0.100000000000D+01
-.118839080846D-04 0.000000000000D+00 -.187373550437D-05 0.982978648266D-05 0.000000000000D+00  6 1 2 25 -24 2 2 4 0.27622225D+00 0.44882097D-02 0.14228885D+05 0.14228885D+05 0.14228885D+05 0.12504440D+01  1  2  5  8  6  2       21 -.333743863924D-02 0.100000000000D+01
0.108109410734D-05 0.000000000000D+00 0.000000000000D+00 0.982978648266D-05 0.254919293581D-07  6 1 2 25 -24 2 2 4 0.27807409D+00 0.44546205D-02 0.14564881D+05 0.14564881D+05 0.14564881D+05 0.12492826D+01  1  2 11  8  6  2       21 0.300090172248D-03 0.100000000000D+01
0.997583916052D-07 0.000000000000D+00 0.000000000000D+00 0.981153564705D-05 0.000000000000D+00  6 1 -3 25 -24 2 -3 4 0.27622225D+00 0.44692586D-02 0.14564881D+05 0.14564881D+05 0.14564881D+05 0.12492826D+01  1  2 12  9  6  2       21 0.168397085481D-04 0.100000000000D+01
0.997583916052D-07 0.000000000000D+00 0.000000000000D+00 0.981153564705D-05 0.000000000000D+00  6 1 -4 25 -24 2 -4 4 0.27622225D+00 0.44692586D-02 0.14564881D+05 0.14564881D+05 0.14564881D+05 0.12492826D+01  1  2 12  9  6  2       21 0.150018383218D-04 0.100000000000D+01
-.118839080846D-04 0.000000000000D+00 -.187373550437D-05 0.982978648266D-05 0.000000000000D+00  6 1 -3 25 -24 2 -3 4 0.27622225D+00 0.44882097D-02 0.14228885D+05 0.14228885D+05 0.14228885D+05 0.12504440D+01  1  2  5  9  6  2       21 -.199947900989D-02 0.100000000000D+01
-.118839080846D-04 0.000000000000D+00 -.187373550437D-05 0.982978648266D-05 0.000000000000D+00  6 1 -4 25 -24 2 -4 4 0.27622225D+00 0.44882097D-02 0.14228885D+05 0.14228885D+05 0.14228885D+05 0.12504440D+01  1  2  5  9  6  2       21 -.178062408570D-02 0.100000000000D+01
0.111824756107D-05 0.000000000000D+00 0.000000000000D+00 0.982978648266D-05 0.158059292091D-07  6 1 -3 25 -24 2 -3 4 0.27807409D+00 0.44546205D-02 0.14564881D+05 0.14564881D+05 0.14564881D+05 0.12492826D+01  1  2 11  9  6  2       21 0.186438130763D-03 0.100000000000D+01
0.111824756107D-05 0.000000000000D+00 0.000000000000D+00 0.982978648266D-05 0.158059292091D-07  6 1 -4 25 -24 2 -4 4 0.27807409D+00 0.44546205D-02 0.14564881D+05 0.14564881D+05 0.14564881D+05 0.12492826D+01  1  2 11  9  6  2       21 0.166103993832D-03 0.100000000000D+01
0.997583916052D-07 0.000000000000D+00 0.000000000000D+00 0.981153564705D-05 0.000000000000D+00  6 1 3 25 -24 2 3 4 0.27622225D+00 0.44692586D-02 0.14564881D+05 0.14564881D+05 0.14564881D+05 0.12492826D+01  1  2 12 10  6  2       21 0.168380974296D-04 0.100000000000D+01
0.997583916052D-07 0.000000000000D+00 0.000000000000D+00 0.981153564705D-05 0.000000000000D+00  6 1 4 25 -24 2 4 4 0.27622225D+00 0.44692586D-02 0.14564881D+05 0.14564881D+05 0.14564881D+05 0.12492826D+01  1  2 12 10  6  2       21 0.150018383218D-04 0.100000000000D+01
-.118839080846D-04 0.000000000000D+00 -.187373550437D-05 0.982978648266D-05 0.000000000000D+00  6 1 3 25 -24 2 3 4 0.27622225D+00 0.44882097D-02 0.14228885D+05 0.14228885D+05 0.14228885D+05 0.12504440D+01  1  2  5 10  6  2       21 -.199928689173D-02 0.100000000000D+01
-.118839080846D-04 0.000000000000D+00 -.187373550437D-05 0.982978648266D-05 0.000000000000D+00  6 1 4 25 -24 2 4 4 0.27622225D+00 0.44882097D-02 0.14228885D+05 0.14228885D+05 0.14228885D+05 0.12504440D+01  1  2  5 10  6  2       21 -.178062408570D-02 0.100000000000D+01
0.111824756107D-05 0.000000000000D+00 0.000000000000D+00 0.982978648266D-05 0.158059292091D-07  6 1 3 25 -24 2 3 4 0.27807409D+00 0.44546205D-02 0.14564881D+05 0.14564881D+05 0.14564881D+05 0.12492826D+01  1  2 11 10  6  2       21 0.186420324826D-03 0.100000000000D+01
0.111824756107D-05 0.000000000000D+00 0.000000000000D+00 0.982978648266D-05 0.158059292091D-07  6 1 4 25 -24 2 4 4 0.27807409D+00 0.44546205D-02 0.14564881D+05 0.14564881D+05 0.14564881D+05 0.12492826D+01  1  2 11 10  6  2       21 0.166103993832D-03 0.100000000000D+01
  </mgrwgt>
  </event>
  <event>
  6     66 -.42980143E-03 0.21217127E+02 0.75467711E-02 0.11600759E+00
        1 -1    0    0  503    0 0.00000000E+00 0.00000000E+00 0.22882559E+04 0.22882559E+04 0.32000000E+00 0.0000E+00 0.9000E+01
       21 -1    0    0  501  502 0.00000000E+00 0.00000000E+00 -.21060057E+02 0.21073408E+02 0.75000000E+00 0.0000E+00 0.9000E+01
       25  1    1    2    0    0 0.10433479E+03 0.51939492E+02 0.10030331E+04 0.10174890E+04 0.12500000E+03 0.0000E+00 0.9000E+01
      -24  1    1    2    0    0 -.11192403E+03 -.71205413E+02 0.10720964E+04 0.10832613E+04 0.80419002E+02 0.0000E+00 0.9000E+01
        2  1    1    2  501    0 -.88712677E+01 0.29649070E+02 0.23420368E+02 0.38812148E+02 0.32000000E+00 0.0000E+00 0.9000E+01
       21  1    1    2  503  502 0.16460511E+02 -.10383150E+02 0.16864597E+03 0.16976685E+03 0.75000000E+00 0.0000E+00 0.9000E+01
#aMCatNLO 2  0  0  1  2 0.19461711D+02 0.00000000D+00  -5  6  0 0.00000000D+00 0.00000000D+00 0.00000000D+00 0.00000000D+00 0.00000000D+00
  <mgrwgt>
 -.1902867014D+00    2    2    0
 0.208229002977648D+03 0.000000000000000D+00 0.000000000000000D+00 0.208229002977648D+03
 0.208229002977648D+03 0.000000000000000D+00 0.000000000000000D+00 -.208229002977648D+03
 0.175874669345641D+03 0.111222867237586D+03 0.475944722135328D+02 0.259063570500370D+02
 0.160291265933978D+03 -.105543156962754D+03 -.752304893575863D+02 0.492654997914406D+02
 0.802920706756779D+02 -.567971027483184D+01 0.276360171440534D+02 -.751718568414776D+02
 0.000000000000000D+00 0.000000000000000D+00 -.000000000000000D+00 0.000000000000000D+00
 0.225094924598061D+03 0.000000000000000D+00 0.000000000000000D+00 0.225094924598061D+03
 0.214147178123510D+03 0.000000000000000D+00 0.000000000000000D+00 -.214147178123510D+03
 0.172857146740810D+03 0.104334809973942D+03 0.519393999914474D+02 0.259063570500370D+02
 0.162762140576509D+03 -.111924021170188D+03 -.712054946339922D+02 0.492654997914406D+02
 0.812932082123036D+02 -.887129934873042D+01 0.296492443127739D+02 -.751718568414776D+02
 0.223296071919487D+02 0.164605105449768D+02 -.103831496702291D+02 0.109477464745515D+02
-.815695962461D-04 0.000000000000D+00 0.000000000000D+00 0.138296327715D-05 0.000000000000D+00  6 1 21 25 -24 2 21 4 0.35639287D+00 0.31513767D-02 0.35427075D+05 0.35427075D+05 0.35427075D+05 0.12073915D+01  1  2 13  1  6  1        1 -.244195204880D+00 0.100000000000D+01
0.180806027645D-04 0.000000000000D+00 0.000000000000D+00 0.139526076065D-05 0.247882094803D-07  6 1 21 25 -24 2 21 4 0.35203017D+00 0.32409435D-02 0.35427075D+05 0.35427075D+05 0.35427075D+05 0.12073915D+01  1  2  1  1  6  1        1 0.539085035007D-01 0.100000000000D+01
  </mgrwgt>
  </event>
  <event>
  5     66 0.42980143E-03 0.10245704E+03 0.75467711E-02 0.11102758E+00
        1 -1    0    0  502    0 0.00000000E+00 0.00000000E+00 0.17969898E+04 0.17969898E+04 0.32000000E+00 0.0000E+00 0.9000E+01
       21 -1    0    0  501  502 0.00000000E+00 0.00000000E+00 -.24380694E+02 0.24392227E+02 0.75000000E+00 0.0000E+00 0.9000E+01
       25  1    1    2    0    0 -.43363224E+02 -.31143501E+02 0.25584623E+03 0.28971120E+03 0.12500000E+03 0.0000E+00 0.9000E+01
      -24  1    1    2    0    0 0.88713944E+01 -.65332848E+02 0.95459644E+03 0.96024406E+03 0.80419002E+02 0.0000E+00 0.9000E+01
        2  1    1    2  501    0 0.34491829E+02 0.96476349E+02 0.56216641E+03 0.57142676E+03 0.32000000E+00 0.0000E+00 0.9000E+01
#aMCatNLO 1  0  0  2  5 0.10011173D+02 0.00000000D+00  -5  6  0 0.00000000D+00 0.00000000D+00 0.00000000D+00 0.00000000D+00 0.00000000D+00
  <mgrwgt>
 0.8343366988D-01    3    2    0
 0.209337973489126D+03 0.000000000000000D+00 0.000000000000000D+00 0.209337973489126D+03
 0.209337973489126D+03 0.000000000000000D+00 0.000000000000000D+00 -.209337973489126D+03
 0.177128543205351D+03 -.433632903493873D+02 -.311436881505269D+02 -.113574717945973D+03
 0.135773220879876D+03 0.887134316577759D+01 -.653329909513981D+02 0.872929041646833D+02
 0.105774182893025D+03 0.344919471836097D+02 0.964766791019250D+02 0.262818137812893D+02
 0.000000000000000D+00 -.000000000000000D+00 -.000000000000000D+00 0.000000000000000D+00
 0.555744811629536D+03 0.000000000000000D+00 0.000000000000000D+00 0.555744811629536D+03
 0.237754444642122D+03 0.000000000000000D+00 0.000000000000000D+00 -.237754444642122D+03
 0.169310879990041D+03 -.296532642324875D+01 0.115396865511278D+02 -.113574717945973D+03
 0.129373584308390D+03 0.397898540336509D+02 -.326653449531122D+02 0.872929041646833D+02
 0.144802242980893D+03 0.637114203019622D+02 0.127349168665405D+03 0.262818137812893D+02
 0.350012548992334D+03 -.100535947912364D+03 -.106223510263421D+03 0.317990366987414D+03
0.240437507459D-04 0.000000000000D+00 0.000000000000D+00 0.905771456608D-07 0.000000000000D+00  6 1 21 25 -24 2 21 2 0.27646085D+00 0.37517654D-02 0.29304789D+05 0.29304789D+05 0.29304789D+05 0.12159686D+01  1  2  2  2  6  2       21 0.813719713171D-01 0.100000000000D+01
-.234494940418D-05 0.126882358582D-05 -.485374054443D-07 0.905771456608D-07 0.000000000000D+00  6 1 21 25 -24 2 21 4 0.27646085D+00 0.37517654D-02 0.29304789D+05 0.29304789D+05 0.29304789D+05 0.12159686D+01  1  2  3  2  6  2       21 -.117341271101D-01 0.100000000000D+01
0.275695949898D-05 0.000000000000D+00 0.000000000000D+00 0.905771456608D-07 0.000000000000D+00  6 1 21 25 -24 2 21 4 0.27646085D+00 0.37517654D-02 0.29304789D+05 0.29304789D+05 0.29304789D+05 0.12159686D+01  1  2 15  2  6  2       21 0.137958256757D-01 0.100000000000D+01
  </mgrwgt>
  </event>
  <event>
  6     66 0.42980143E-03 0.25545820E+02 0.75467711E-02 0.12418413E+00
        1 -1    0    0  502    0 0.00000000E+00 0.00000000E+00 0.11302498E+04 0.11302499E+04 0.32000000E+00 0.0000E+00 0.9000E+01
       21 -1    0    0  501  502 0.00000000E+00 0.00000000E+00 -.15112320E+02 0.15130919E+02 0.75000000E+00 0.0000E+00 0.9000E+01
       25  1    1    2    0    0 -.25596377E+02 -.61254925E+00 0.80033310E+03 0.81044039E+03 0.12500000E+03 0.0000E+00 0.9000E+01
      -24  1    1    2    0    0 -.42131256E+00 0.57388829E+01 0.21641296E+03 0.23094350E+03 0.80419002E+02 0.0000E+00 0.9000E+01
        2  1    1    2  503    0 -.15772304E+01 -.55063326E+01 0.11986216E+02 0.13288308E+02 0.32000000E+00 0.0000E+00 0.9000E+01
       21  1    1    2  501  503 0.27594920E+02 0.37999894E+00 0.86405231E+02 0.90708602E+02 0.75000000E+00 0.0000E+00 0.9000E+01
#aMCatNLO 2  0  0  5  2 0.62102012D+01 0.00000000D+00  -5  6  0 0.00000000D+00 0.00000000D+00 0.00000000D+00 0.00000000D+00 0.00000000D+00
  <mgrwgt>
 0.2693688476D+00    2    2    0
 0.130733982354415D+03 0.000000000000000D+00 0.000000000000000D+00 0.130733982354415D+03
 0.130733982354415D+03 -.000000000000000D+00 -.000000000000000D+00 -.130733982354415D+03
 0.138012441275262D+03 -.287172158923873D+02 0.235776499193596D-02 0.509681807855521D+02
 0.883444171430890D+02 -.243133997334640D+01 0.613492391912606D+01 -.359718136938092D+02
 0.351111062904781D+02 0.311485558657337D+02 -.613728168411799D+01 -.149963670917428D+02
 0.000000000000000D+00 0.000000000000000D+00 0.000000000000000D+00 0.000000000000000D+00
 0.130733982354415D+03 0.000000000000000D+00 0.000000000000000D+00 0.130733982354415D+03
 0.130733982354415D+03 -.000000000000000D+00 -.000000000000000D+00 -.130733982354415D+03
 0.136968497347423D+03 -.259293682531921D+02 -.546939169604207D+00 0.496259809489551D+02
 0.886448841406643D+02 -.636963940527038D+00 0.578137330162351D+01 -.368357099785929D+02
 0.629824174531919D+01 -.154132373247701D+01 -.489074826380313D+01 -.365687730916572D+01
 0.295563414754232D+02 0.281076559261961D+02 -.343685868216177D+00 -.913339366119644D+01
-.209660244824D-05 0.000000000000D+00 0.000000000000D+00 0.782677564438D-06 0.000000000000D+00  6 1 21 25 -24 2 21 4 0.17388602D+00 0.23264064D-02 0.14584049D+05 0.14584049D+05 0.14584049D+05 0.12492173D+01  1  2 13  3  6  5        2 -.706682980833D-01 0.100000000000D+01
0.100882960453D-04 0.000000000000D+00 0.000000000000D+00 0.783109433125D-06 0.751444143730D-07  6 1 21 25 -24 2 21 4 0.17388602D+00 0.23264064D-02 0.14584049D+05 0.14584049D+05 0.14584049D+05 0.12492173D+01  1  2  1  3  6  5        2 0.340037145660D+00 0.100000000000D+01
  </mgrwgt>
  </event>
  <event>
  5     66 0.42980143E-03 0.20632549E+02 0.75467711E-02 0.12191352E+00
        1 -1    0    0  502    0 0.00000000E+00 0.00000000E+00 0.53458530E+03 0.53458539E+03 0.32000000E+00 0.0000E+00 0.9000E+01
       21 -1    0    0  501  502 0.00000000E+00 0.00000000E+00 -.34083046E+02 0.34091297E+02 0.75000000E+00 0.0000E+00 0.9000E+01
       25  1    1    2    0    0 0.73457593E+02 -.40847628E+01 0.32973112E+03 0.36022259E+03 0.12500000E+03 0.0000E+00 0.9000E+01
      -24  1    1    2    0    0 -.55666706E+02 0.14529797E+02 0.14302553E+03 0.17387759E+03 0.80419002E+02 0.0000E+00 0.9000E+01
        2  1    1    2  501    0 -.17790886E+02 -.10445034E+02 0.27745592E+02 0.34576504E+02 0.32000000E+00 0.0000E+00 0.9000E+01
#aMCatNLO 1  0  0  1  2 0.68987431D+01 0.00000000D+00  -5  6  0 0.00000000D+00 0.00000000D+00 0.00000000D+00 0.00000000D+00 0.00000000D+00
  <mgrwgt>
 0.4202752060D+00   11    2    0
 0.134991365081687D+03 0.000000000000000D+00 0.000000000000000D+00 0.134991365081687D+03
 0.134991365081687D+03 0.000000000000000D+00 0.000000000000000D+00 -.134991365081687D+03
 0.147487882379069D+03 0.734586801852590D+02 -.408412440581710D+01 0.267360745424531D+02
 0.101100629081119D+03 -.556659611359207D+02 0.145302344605612D+02 -.210782898633331D+02
 0.213942187031871D+02 -.177927190493383D+02 -.104461100547441D+02 -.565778467912006D+01
 0.000000000000000D+00 0.000000000000000D+00 -.000000000000000D+00 0.000000000000000D+00
 0.144436645324101D+03 0.000000000000000D+00 0.000000000000000D+00 0.144436645324101D+03
 0.136301026213505D+03 0.000000000000000D+00 0.000000000000000D+00 -.136301026213505D+03
 0.147297986992104D+03 0.731899696436840D+02 -.328075514118551D+00 0.267360745424531D+02
 0.101605468038946D+03 -.558507368351558D+02 0.171130380835859D+02 -.210782898633331D+02
 0.211674009356401D+02 -.178315158745995D+02 -.990380616272131D+01 -.565778467912006D+01
 0.106668155709160D+02 0.492283066071412D+00 -.688115640674608D+01 0.813561911059586D+01
0.980631868641D-06 0.000000000000D+00 0.000000000000D+00 0.950367903719D-06 0.000000000000D+00  6 1 21 25 -24 2 21 2 0.82244534D-01 0.52441876D-02 0.17497444D+05 0.17497444D+05 0.17497444D+05 0.12402691D+01  1  2  2  1  6  1        1 0.169507042440D-01 0.100000000000D+01
0.688598873940D-07 0.517493654417D-07 -.197961321022D-08 0.950367903719D-06 0.000000000000D+00  6 1 21 25 -24 2 21 4 0.82244534D-01 0.52441876D-02 0.17497444D+05 0.17497444D+05 0.17497444D+05 0.12402691D+01  1  2  3  1  6  1        1 0.183096439040D-02 0.100000000000D+01
0.992862169943D-07 0.000000000000D+00 0.000000000000D+00 0.950367903719D-06 0.000000000000D+00  6 1 21 25 -24 2 21 4 0.82244534D-01 0.52441876D-02 0.17497444D+05 0.17497444D+05 0.17497444D+05 0.12402691D+01  1  2 15  1  6  1        1 0.263999165050D-02 0.100000000000D+01
0.201207617865D-04 0.000000000000D+00 0.000000000000D+00 0.946502214936D-06 0.000000000000D+00  6 1 21 25 -24 2 21 4 0.88381026D-01 0.52441876D-02 0.18433804D+05 0.18433804D+05 0.18433804D+05 0.12377441D+01  1  2 12  1  6  1        1 0.482438237279D+00 0.100000000000D+01
-.753073315564D-05 0.000000000000D+00 0.000000000000D+00 0.950367903719D-06 0.000000000000D+00  6 1 21 25 -24 2 21 4 0.82244534D-01 0.52441876D-02 0.17497444D+05 0.17497444D+05 0.17497444D+05 0.12402691D+01  1  2  4  1  6  1        1 -.200240005661D+00 0.100000000000D+01
-.474321842115D-04 0.000000000000D+00 -.558882074838D-05 0.950367903719D-06 0.000000000000D+00  6 1 21 25 -24 2 21 4 0.88523678D-01 0.52441876D-02 0.17497444D+05 0.17497444D+05 0.17497444D+05 0.12402691D+01  1  2  5  1  6  1        1 -.114340857003D+01 0.100000000000D+01
0.477292258253D-04 0.000000000000D+00 0.557372862708D-05 0.950367903719D-06 0.000000000000D+00  6 1 21 25 -24 2 21 4 0.82244534D-01 0.52441876D-02 0.17497444D+05 0.17497444D+05 0.17497444D+05 0.12402691D+01  1  2  6  1  6  1        1 0.126910624131D+01 0.100000000000D+01
0.417190532246D-06 0.000000000000D+00 0.000000000000D+00 0.950367903719D-06 0.171955227712D-06  6 1 21 25 -24 2 21 4 0.87999144D-01 0.52950658D-02 0.18433804D+05 0.18433804D+05 0.18433804D+05 0.12377441D+01  1  2 11  1  6  1        1 0.989898788414D-02 0.100000000000D+01
0.273503234750D-06 0.000000000000D+00 0.000000000000D+00 0.946502214936D-06 0.000000000000D+00  6 21 21 25 -24 2 -1 4 0.88381026D-01 0.52441876D-02 0.18433804D+05 0.18433804D+05 0.18433804D+05 0.12377441D+01  1  2 12  4  6  1        1 0.177084429171D-01 0.100000000000D+01
-.577583453826D-06 0.000000000000D+00 -.692723343210D-07 0.950367903719D-06 0.000000000000D+00  6 21 21 25 -24 2 -1 4 0.88523678D-01 0.52441876D-02 0.17497444D+05 0.17497444D+05 0.17497444D+05 0.12402691D+01  1  2  5  4  6  1        1 -.375964462990D-01 0.100000000000D+01
0.147148601249D-07 0.000000000000D+00 0.000000000000D+00 0.950367903719D-06 0.207012738501D-08  6 21 21 25 -24 2 -1 4 0.87999144D-01 0.52950658D-02 0.18433804D+05 0.18433804D+05 0.18433804D+05 0.12377441D+01  1  2 11  4  6  1        1 0.946658322143D-03 0.100000000000D+01
  </mgrwgt>
  </event>
  <event>
  5     66 0.42980143E-03 0.45226677E+02 0.75467711E-02 0.11100319E+00
        1 -1    0    0  502    0 0.00000000E+00 0.00000000E+00 0.18301007E+03 0.18301035E+03 0.32000000E+00 0.0000E+00 0.9000E+01
       21 -1    0    0  501  502 0.00000000E+00 0.00000000E+00 -.23298049E+03 0.23298170E+03 0.75000000E+00 0.0000E+00 0.9000E+01
       25  1    1    2    0    0 0.64990171E+02 -.67676641E+02 0.81567634E+02 0.17630125E+03 0.12500000E+03 0.0000E+00 0.9000E+01
      -24  1    1    2    0    0 -.58333627E+02 0.11240976E+03 -.12224394E+03 0.19351890E+03 0.80419002E+02 0.0000E+00 0.9000E+01
        2  1    1    2  501    0 -.66565440E+01 -.44733123E+02 -.92941066E+01 0.46171903E+02 0.32000000E+00 0.0000E+00 0.9000E+01
#aMCatNLO 1  0  0  2  1 0.95015681D+01 0.00000000D+00  -5  6  0 0.00000000D+00 0.00000000D+00 0.00000000D+00 0.00000000D+00 0.00000000D+00
  <mgrwgt>
 0.8393984420D-01   13    2    0
 0.206489916520396D+03 0.000000000000000D+00 0.000000000000000D+00 0.206489916520396D+03
 0.206489916520396D+03 0.000000000000000D+00 0.000000000000000D+00 -.206489916520396D+03
 0.187456684348377D+03 0.649902464476502D+02 -.676761363632415D+02 0.103495009254093D+03
 0.180139181821183D+03 -.583335551916365D+02 0.112410248707498D+03 -.997198134628082D+02
 0.453839668712312D+02 -.665669125601367D+01 -.447341123442568D+02 -.377519579128466D+01
 0.000000000000000D+00 0.000000000000000D+00 0.000000000000000D+00 -.000000000000000D+00
 0.257033144973427D+03 0.000000000000000D+00 0.000000000000000D+00 0.257033144973427D+03
 0.332061894251920D+03 0.000000000000000D+00 0.000000000000000D+00 -.332061894251920D+03
 0.176625490834509D+03 0.696147149707658D+01 -.693677517771905D+02 0.103495009254093D+03
 0.207546259242013D+03 -.120124306688244D+03 0.110608966709728D+03 -.997198134628082D+02
 0.503557543421490D+02 -.219160450909856D+02 -.451789426577715D+02 -.377519579128466D+01
 0.154567534806677D+03 0.135078880282153D+03 0.393772772523447D+01 -.750287492784929D+02
0.214329280940D-04 0.000000000000D+00 0.000000000000D+00 0.133809302222D-06 0.000000000000D+00  6 1 21 25 -24 2 21 2 0.28155510D-01 0.35843267D-01 0.30895810D+05 0.30895810D+05 0.30895810D+05 0.12135595D+01  1  2  2  2  6  2       21 0.422391051611D-01 0.100000000000D+01
-.157223311524D-06 0.113104668928D-05 -.432669067215D-07 0.133809302222D-06 0.000000000000D+00  6 1 21 25 -24 2 21 4 0.28155510D-01 0.35843267D-01 0.30895810D+05 0.30895810D+05 0.30895810D+05 0.12135595D+01  1  2  3  2  6  2       21 -.456322965271D-03 0.100000000000D+01
0.226234779730D-05 0.000000000000D+00 0.000000000000D+00 0.133809302222D-06 0.000000000000D+00  6 1 21 25 -24 2 21 4 0.28155510D-01 0.35843267D-01 0.30895810D+05 0.30895810D+05 0.30895810D+05 0.12135595D+01  1  2 15  2  6  2       21 0.656620984082D-02 0.100000000000D+01
-.454339540805D-04 0.000000000000D+00 -.275904778135D-04 0.133809302222D-06 0.000000000000D+00  6 1 21 25 -24 2 21 4 0.28155510D-01 0.69447882D-01 0.30895810D+05 0.30895810D+05 0.30895810D+05 0.12135595D+01  1  2  5  2  6  2       21 -.332367152597D-01 0.100000000000D+01
0.268150329749D-04 0.000000000000D+00 0.130566888948D-04 0.133809302222D-06 0.000000000000D+00  6 1 21 25 -24 2 21 4 0.28155510D-01 0.35843267D-01 0.30895810D+05 0.30895810D+05 0.30895810D+05 0.12135595D+01  1  2  6  2  6  2       21 0.778276150165D-01 0.100000000000D+01
-.107723171616D-04 0.000000000000D+00 -.650471896919D-05 0.133809302222D-06 0.000000000000D+00  6 1 -1 25 -24 2 -1 4 0.28155510D-01 0.69447882D-01 0.30895810D+05 0.30895810D+05 0.30895810D+05 0.12135595D+01  1  2  5  5  6  2       21 -.843767145851D-03 0.100000000000D+01
-.107723171616D-04 0.000000000000D+00 -.650471896919D-05 0.133809302222D-06 0.000000000000D+00  6 1 1 25 -24 2 1 4 0.28155510D-01 0.69447882D-01 0.30895810D+05 0.30895810D+05 0.30895810D+05 0.12135595D+01  1  2  5  6  6  2       21 -.237128837207D-02 0.100000000000D+01
-.107723171616D-04 0.000000000000D+00 -.650471896919D-05 0.133809302222D-06 0.000000000000D+00  6 1 -2 25 -24 2 -2 4 0.28155510D-01 0.69447882D-01 0.30895810D+05 0.30895810D+05 0.30895810D+05 0.12135595D+01  1  2  5  7  6  2       21 -.657843210694D-03 0.100000000000D+01
-.107723171616D-04 0.000000000000D+00 -.650471896919D-05 0.133809302222D-06 0.000000000000D+00  6 1 2 25 -24 2 2 4 0.28155510D-01 0.69447882D-01 0.30895810D+05 0.30895810D+05 0.30895810D+05 0.12135595D+01  1  2  5  8  6  2       21 -.362491466754D-02 0.100000000000D+01
-.107723171616D-04 0.000000000000D+00 -.650471896919D-05 0.133809302222D-06 0.000000000000D+00  6 1 -3 25 -24 2 -3 4 0.28155510D-01 0.69447882D-01 0.30895810D+05 0.30895810D+05 0.30895810D+05 0.12135595D+01  1  2  5  9  6  2       21 -.413881898206D-03 0.100000000000D+01
-.107723171616D-04 0.000000000000D+00 -.650471896919D-05 0.133809302222D-06 0.000000000000D+00  6 1 -4 25 -24 2 -4 4 0.28155510D-01 0.69447882D-01 0.30895810D+05 0.30895810D+05 0.30895810D+05 0.12135595D+01  1  2  5  9  6  2       21 -.337038286935D-03 0.100000000000D+01
-.107723171616D-04 0.000000000000D+00 -.650471896919D-05 0.133809302222D-06 0.000000000000D+00  6 1 3 25 -24 2 3 4 0.28155510D-01 0.69447882D-01 0.30895810D+05 0.30895810D+05 0.30895810D+05 0.12135595D+01  1  2  5 10  6  2       21 -.414275720513D-03 0.100000000000D+01
-.107723171616D-04 0.000000000000D+00 -.650471896919D-05 0.133809302222D-06 0.000000000000D+00  6 1 4 25 -24 2 4 4 0.28155510D-01 0.69447882D-01 0.30895810D+05 0.30895810D+05 0.30895810D+05 0.12135595D+01  1  2  5 10  6  2       21 -.337038286935D-03 0.100000000000D+01
  </mgrwgt>
  </event>
  <event>
  5     66 0.42980143E-03 0.40005134E+02 0.75467711E-02 0.11373357E+00
        1 -1    0    0  502    0 0.00000000E+00 0.00000000E+00 0.16022219E+04 0.16022220E+04 0.32000000E+00 0.0000E+00 0.9000E+01
       21 -1    0    0  501  502 0.00000000E+00 0.00000000E+00 -.10938270E+02 0.10963952E+02 0.75000000E+00 0.0000E+00 0.9000E+01
       25  1    1    2    0    0 -.17236930E+02 0.34538448E+02 0.57900622E+03 0.59360190E+03 0.12500000E+03 0.0000E+00 0.9000E+01
      -24  1    1    2    0    0 0.41042300E+01 0.32488233E+01 0.60434118E+03 0.60969081E+03 0.80419002E+02 0.0000E+00 0.9000E+01
        2  1    1    2  501    0 0.13132700E+02 -.37787271E+02 0.40793625E+03 0.40989320E+03 0.32000000E+00 0.0000E+00 0.9000E+01
#aMCatNLO 1  0  0  1  1 0.14247835D+03 0.00000000D+00  -5  6  0 0.00000000D+00 0.00000000D+00 0.00000000D+00 0.00000000D+00 0.00000000D+00
  <mgrwgt>
 0.5160340593D-01    5    2    0
 0.132462357248634D+03 0.000000000000000D+00 0.000000000000000D+00 0.132462357248634D+03
 0.132462357248634D+03 0.000000000000000D+00 0.000000000000000D+00 -.132462357248634D+03
 0.136745074319524D+03 -.172370969685274D+02 0.345389269447096D+02 -.398015120850656D+02
 0.825380334741669D+02 0.410412940882352D+01 0.324911264314239D+01 0.178300421827872D+02
 0.456416067035773D+02 0.131329675597038D+02 -.377880395878520D+02 0.219714699022784D+02
 0.000000000000000D+00 0.000000000000000D+00 -.000000000000000D+00 0.000000000000000D+00
 0.238179640101372D+03 0.000000000000000D+00 0.000000000000000D+00 0.238179640101372D+03
 0.208221722065026D+03 0.000000000000000D+00 0.000000000000000D+00 -.208221722065026D+03
 0.164684123945014D+03 -.931489389245998D+02 0.351422180930602D+02 -.398015120850656D+02
 0.915241591392149D+02 -.397316427468596D+02 0.359748692363923D+01 0.178300421827872D+02
 0.445992708388420D+02 -.959326889455459D+01 -.376074282769565D+02 0.219714699022784D+02
 0.145593808243327D+03 0.142473850566014D+03 -.113227673974290D+01 0.299579180363463D+02
0.287560676692D-05 0.000000000000D+00 0.000000000000D+00 0.365244492701D-06 0.000000000000D+00  6 1 21 25 -24 2 21 2 0.24649766D+00 0.16847887D-02 0.15802858D+05 0.15802858D+05 0.15802858D+05 0.12452493D+01  1  2  2  1  6  1        1 0.506334288352D-01 0.100000000000D+01
-.199479623720D-06 0.151749938184D-06 -.580502156337D-08 0.365244492701D-06 0.000000000000D+00  6 1 21 25 -24 2 21 4 0.24649766D+00 0.16847887D-02 0.15802858D+05 0.15802858D+05 0.15802858D+05 0.12452493D+01  1  2  3  1  6  1        1 -.544651852034D-02 0.100000000000D+01
0.336550626220D-06 0.000000000000D+00 0.000000000000D+00 0.365244492701D-06 0.000000000000D+00  6 1 21 25 -24 2 21 4 0.24649766D+00 0.16847887D-02 0.15802858D+05 0.15802858D+05 0.15802858D+05 0.12452493D+01  1  2 15  1  6  1        1 0.918905492481D-02 0.100000000000D+01
-.155542011070D-05 0.000000000000D+00 -.233543978867D-05 0.365244492701D-06 0.000000000000D+00  6 1 21 25 -24 2 21 4 0.52197670D+00 0.16847887D-02 0.15802858D+05 0.15802858D+05 0.15802858D+05 0.12452493D+01  1  2  5  1  6  1        1 -.278362824522D-02 0.100000000000D+01
0.189741283485D-07 0.000000000000D+00 -.189545866780D-06 0.365244492701D-06 0.000000000000D+00  6 21 21 25 -24 2 -1 4 0.52197670D+00 0.16847887D-02 0.15802858D+05 0.15802858D+05 0.15802858D+05 0.12452493D+01  1  2  5  4  6  1        1 0.110689376054D-04 0.100000000000D+01
  </mgrwgt>
  </event>
  <event>
  5     66 0.42980143E-03 0.35793101E+02 0.75467711E-02 0.11158295E+00
        1 -1    0    0  502    0 0.00000000E+00 0.00000000E+00 0.37042815E+03 0.37042829E+03 0.32000000E+00 0.0000E+00 0.9000E+01
       21 -1    0    0  501  502 0.00000000E+00 0.00000000E+00 -.72592770E+02 0.72596644E+02 0.75000000E+00 0.0000E+00 0.9000E+01
       25  1    1    2    0    0 -.80734217E+02 -.62699745E+02 0.20148919E+03 0.25820954E+03 0.12500000E+03 0.0000E+00 0.9000E+01
      -24  1    1    2    0    0 0.55447862E+02 0.37367682E+02 0.10477751E+03 0.14804172E+03 0.80419002E+02 0.0000E+00 0.9000E+01
        2  1    1    2  501    0 0.25286355E+02 0.25332063E+02 -.84313241E+01 0.36773669E+02 0.32000000E+00 0.0000E+00 0.9000E+01
#aMCatNLO 1  0  0  1  2 0.15866648D+03 0.00000000D+00  -5  6  0 0.00000000D+00 0.00000000D+00 0.00000000D+00 0.00000000D+00 0.00000000D+00
  <mgrwgt>
 0.7568386992D-01    5    2    0
 0.163985653166522D+03 0.000000000000000D+00 0.000000000000000D+00 0.163985653166522D+03
 0.163985653166522D+03 0.000000000000000D+00 0.000000000000000D+00 -.163985653166522D+03
 0.165815532310787D+03 -.807344158599390D+02 -.626999443966572D+02 0.376890146318548D+02
 0.104825307757340D+03 0.554477362129485D+02 0.373675558402950D+02 0.709531616154625D+01
 0.573304662649172D+02 0.252866796469905D+02 0.253323885563622D+02 -.447843307934010D+02
 0.000000000000000D+00 0.000000000000000D+00 0.000000000000000D+00 0.000000000000000D+00
 0.272553983163771D+03 0.000000000000000D+00 0.000000000000000D+00 0.272553983163771D+03
 0.251799467295421D+03 0.000000000000000D+00 0.000000000000000D+00 -.251799467295421D+03
 0.226194686633584D+03 -.170092479183877D+03 -.720216839738382D+02 0.376890146318548D+02
 0.878923900073388D+02 0.115180644638979D+02 0.327848584929814D+02 0.709531616154625D+01
 0.502482476739407D+02 0.764294597073249D+00 0.227742390313663D+02 -.447843307934010D+02
 0.160018126144329D+03 0.157810120122905D+03 0.164625864494906D+02 0.207545158683503D+02
0.886294894738D-05 0.000000000000D+00 0.000000000000D+00 0.838744231489D-06 0.000000000000D+00  6 1 21 25 -24 2 21 2 0.56989255D-01 0.11168427D-01 0.22778880D+05 0.22778880D+05 0.22778880D+05 0.12276537D+01  1  2  2  1  6  1        1 0.654062605656D-01 0.100000000000D+01
0.450850532702D-06 0.467710665578D-06 -.178917403960D-07 0.838744231489D-06 0.000000000000D+00  6 1 21 25 -24 2 21 4 0.56989255D-01 0.11168427D-01 0.22778880D+05 0.22778880D+05 0.22778880D+05 0.12276537D+01  1  2  3  1  6  1        1 0.501447436230D-02 0.100000000000D+01
0.822468303405D-06 0.000000000000D+00 0.000000000000D+00 0.838744231489D-06 0.000000000000D+00  6 1 21 25 -24 2 21 4 0.56989255D-01 0.11168427D-01 0.22778880D+05 0.22778880D+05 0.22778880D+05 0.12276537D+01  1  2 15  1  6  1        1 0.914770178158D-02 0.100000000000D+01
-.182986403152D-05 0.000000000000D+00 -.886830896192D-05 0.838744231489D-06 0.000000000000D+00  6 1 21 25 -24 2 21 4 0.13432764D+00 0.11168427D-01 0.22778880D+05 0.22778880D+05 0.22778880D+05 0.12276537D+01  1  2  5  1  6  1        1 -.628938100009D-02 0.100000000000D+01
0.388308889974D-06 0.000000000000D+00 -.829939338578D-06 0.838744231489D-06 0.000000000000D+00  6 21 21 25 -24 2 -1 4 0.13432764D+00 0.11168427D-01 0.22778880D+05 0.22778880D+05 0.22778880D+05 0.12276537D+01  1  2  5  4  6  1        1 0.240481421442D-02 0.100000000000D+01
  </mgrwgt>
  </event>
  <event>
  5     66 0.42980143E-03 0.30024038E+02 0.75467711E-02 0.11281215E+00
        1 -1    0    0  502    0 0.00000000E+00 0.00000000E+00 0.90845084E+02 0.90845647E+02 0.32000000E+00 0.0000E+00 0.9000E+01
       21 -1    0    0  501  502 0.00000000E+00 0.00000000E+00 -.77054639E+03 0.77054676E+03 0.75000000E+00 0.0000E+00 0.9000E+01
       25  1    1    2    0    0 0.32111767E+02 0.17847646E+03 -.28765198E+03 0.36228949E+03 0.12500000E+03 0.0000E+00 0.9000E+01
      -24  1    1    2    0    0 -.29158722E+01 -.18547880E+03 -.14154551E+03 0.24680607E+03 0.80419002E+02 0.0000E+00 0.9000E+01
        2  1    1    2  501    0 -.29195895E+02 0.70023448E+01 -.25050382E+03 0.25229685E+03 0.32000000E+00 0.0000E+00 0.9000E+01
#aMCatNLO 1  0  0  2  2 0.30272152D+01 0.00000000D+00  -5  6  0 0.00000000D+00 0.00000000D+00 0.00000000D+00 0.00000000D+00 0.00000000D+00
  <mgrwgt>
 0.5851318145D-01   13    2    0
 0.264576551332332D+03 0.000000000000000D+00 0.000000000000000D+00 0.264576551332332D+03
 0.264576551332332D+03 0.000000000000000D+00 0.000000000000000D+00 -.264576551332332D+03
 0.220268921280342D+03 0.321118459745362D+02 0.178476440294376D+03 -.289608182913265D+01
 0.219951956639309D+03 -.291579359022641D+01 -.185478822853297D+03 0.866068801873412D+02
 0.889322247450129D+02 -.291960523843098D+02 0.700238255892069D+01 -.837107983582085D+02
 0.000000000000000D+00 0.000000000000000D+00 0.000000000000000D+00 0.000000000000000D+00
 0.268066333986235D+03 0.000000000000000D+00 0.000000000000000D+00 0.268066333986235D+03
 0.265238186515246D+03 0.000000000000000D+00 0.000000000000000D+00 -.265238186515246D+03
 0.219820345392109D+03 0.308996225076566D+02 0.178137054784314D+03 -.289608182913265D+01
 0.220257694471507D+03 -.412834865537999D+01 -.185818301200738D+03 0.866068801873412D+02
 0.890837218800381D+02 -.296863963311397D+02 0.686510124483314D+01 -.837107983582085D+02
 0.414275875782672D+01 0.291512247886309D+01 0.816145171591715D+00 0.282814747098955D+01
0.160076201550D-03 0.000000000000D+00 0.000000000000D+00 0.891788348335D-06 0.000000000000D+00  6 1 21 25 -24 2 21 2 0.13976238D-01 0.11854567D+00 0.51179398D+05 0.51179398D+05 0.51179398D+05 0.11912803D+01  1  2  2  2  6  2       21 0.534074085326D-01 0.100000000000D+01
0.281875669300D-04 0.844745323645D-05 -.323147730931D-06 0.891788348335D-06 0.000000000000D+00  6 1 21 25 -24 2 21 4 0.13976238D-01 0.11854567D+00 0.51179398D+05 0.51179398D+05 0.51179398D+05 0.11912803D+01  1  2  3  2  6  2       21 0.133462805038D-01 0.100000000000D+01
0.140264932214D-04 0.000000000000D+00 0.000000000000D+00 0.891788348335D-06 0.000000000000D+00  6 1 21 25 -24 2 21 4 0.13976238D-01 0.11854567D+00 0.51179398D+05 0.51179398D+05 0.51179398D+05 0.11912803D+01  1  2 15  2  6  2       21 0.664127959262D-02 0.100000000000D+01
-.300099970739D-03 0.000000000000D+00 0.000000000000D+00 0.891788348335D-06 0.000000000000D+00  6 1 21 25 -24 2 21 4 0.13976238D-01 0.11854567D+00 0.51179398D+05 0.51179398D+05 0.51179398D+05 0.11912803D+01  1  2  4  2  6  2       21 -.142091667529D+00 0.100000000000D+01
0.271340964046D-03 0.000000000000D+00 0.000000000000D+00 0.891788348335D-06 0.736349830734D-06  6 1 21 25 -24 2 21 4 0.14160586D-01 0.11884212D+00 0.51941659D+05 0.51941659D+05 0.51941659D+05 0.11906466D+01  1  2 11  2  6  2       21 0.125150287704D+00 0.100000000000D+01
0.191120614963D-05 0.000000000000D+00 0.000000000000D+00 0.890839819752D-06 0.274223632888D-09  6 1 -1 25 -24 2 -1 4 0.14160586D-01 0.11884212D+00 0.51941659D+05 0.51941659D+05 0.51941659D+05 0.11906466D+01  1  2 11  5  6  2       21 0.105099757214D-03 0.100000000000D+01
0.307217846041D-06 0.000000000000D+00 0.000000000000D+00 0.890839819752D-06 0.573831819674D-09  6 1 1 25 -24 2 1 4 0.14160586D-01 0.11884212D+00 0.51941659D+05 0.51941659D+05 0.51941659D+05 0.11906466D+01  1  2 11  6  6  2       21 0.720160326427D-04 0.100000000000D+01
0.880145744208D-05 0.000000000000D+00 0.000000000000D+00 0.890839819752D-06 0.684184212244D-08  6 1 -2 25 -24 2 -2 4 0.14160586D-01 0.11884212D+00 0.51941659D+05 0.51941659D+05 0.51941659D+05 0.11906466D+01  1  2 11  7  6  2       21 0.356324163630D-03 0.100000000000D+01
0.332265174959D-05 0.000000000000D+00 0.000000000000D+00 0.890839819752D-06 0.590635765878D-09  6 1 2 25 -24 2 2 4 0.14160586D-01 0.11884212D+00 0.51941659D+05 0.51941659D+05 0.51941659D+05 0.11906466D+01  1  2 11  8  6  2       21 0.134722205415D-02 0.100000000000D+01
0.191000591771D-05 0.000000000000D+00 0.000000000000D+00 0.890839819752D-06 0.274051421241D-09  6 1 -3 25 -24 2 -3 4 0.14160586D-01 0.11884212D+00 0.51941659D+05 0.51941659D+05 0.51941659D+05 0.11906466D+01  1  2 11  9  6  2       21 0.496646326690D-04 0.100000000000D+01
0.191000591771D-05 0.000000000000D+00 0.000000000000D+00 0.890839819752D-06 0.274051421241D-09  6 1 -4 25 -24 2 -4 4 0.14160586D-01 0.11884212D+00 0.51941659D+05 0.51941659D+05 0.51941659D+05 0.11906466D+01  1  2 11  9  6  2       21 0.397345238893D-04 0.100000000000D+01
0.191000591771D-05 0.000000000000D+00 0.000000000000D+00 0.890839819752D-06 0.274051421241D-09  6 1 3 25 -24 2 3 4 0.14160586D-01 0.11884212D+00 0.51941659D+05 0.51941659D+05 0.51941659D+05 0.11906466D+01  1  2 11 10  6  2       21 0.497969587581D-04 0.100000000000D+01
0.191000591771D-05 0.000000000000D+00 0.000000000000D+00 0.890839819752D-06 0.274051421241D-09  6 1 4 25 -24 2 4 4 0.14160586D-01 0.11884212D+00 0.51941659D+05 0.51941659D+05 0.51941659D+05 0.11906466D+01  1  2 11 10  6  2       21 0.397345238893D-04 0.100000000000D+01
  </mgrwgt>
  </event>
  <event>
  5     66 0.42980143E-03 0.12782429E+03 0.75467711E-02 0.11217084E+00
        1 -1    0    0  502    0 0.00000000E+00 0.00000000E+00 0.11191061E+04 0.11191061E+04 0.32000000E+00 0.0000E+00 0.9000E+01
       21 -1    0    0  501  502 0.00000000E+00 0.00000000E+00 -.12457720E+03 0.12457946E+03 0.75000000E+00 0.0000E+00 0.9000E+01
       25  1    1    2    0    0 0.58779420E+02 0.76951345E+02 0.82415134E+03 0.83918232E+03 0.12500000E+03 0.0000E+00 0.9000E+01
      -24  1    1    2    0    0 -.13597463E+03 0.24930621E+02 0.21601527E+03 0.26877584E+03 0.80419002E+02 0.0000E+00 0.9000E+01
        2  1    1    2  501    0 0.77195211E+02 -.10188197E+03 -.45637714E+02 0.13572744E+03 0.32000000E+00 0.0000E+00 0.9000E+01
#aMCatNLO 1  0  0  2  2 0.34140490D+02 0.00000000D+00  -5  6  0 0.00000000D+00 0.00000000D+00 0.00000000D+00 0.00000000D+00 0.00000000D+00
  <mgrwgt>
 0.8174695874D-01    4    2    0
 0.373385235257826D+03 0.000000000000000D+00 0.000000000000000D+00 0.373385235257826D+03
 0.373385235257826D+03 0.000000000000000D+00 0.000000000000000D+00 -.373385235257826D+03
 0.300007416617570D+03 0.587794011521976D+02 0.769513705596130D+02 0.254956699450582D+03
 0.159940997520630D+03 -.135974641711451D+03 0.249306349966521D+02 0.180747991138033D+01
 0.286822056377451D+03 0.771952405592533D+02 -.101882005556265D+03 -.256764179361962D+03
 0.000000000000000D+00 0.000000000000000D+00 -.000000000000000D+00 0.000000000000000D+00
 0.621940723980963D+03 0.000000000000000D+00 0.000000000000000D+00 0.621940723980963D+03
 0.374949425512987D+03 0.000000000000000D+00 0.000000000000000D+00 -.374949425512987D+03
 0.297797881216730D+03 0.451358503954552D+02 0.775784407649337D+02 0.254956699450582D+03
 0.166370252720847D+03 -.143421956282423D+03 0.252729204588731D+02 0.180747991138033D+01
 0.283382338413834D+03 0.641816178459115D+02 -.101283887426145D+03 -.256764179361962D+03
 0.249339677142540D+03 0.341044880410563D+02 -.156747379766181D+01 0.246991298467977D+03
0.141003967951D-03 0.000000000000D+00 0.000000000000D+00 0.341314450632D-06 0.000000000000D+00  6 1 21 25 -24 2 21 2 0.17217035D+00 0.19165900D-01 0.49700861D+05 0.49700861D+05 0.49700861D+05 0.11925399D+01  1  2  2  2  6  2       21 0.729215570183D-01 0.100000000000D+01
0.518462923526D-06 0.744098381828D-05 -.284646386250D-06 0.341314450632D-06 0.000000000000D+00  6 1 21 25 -24 2 21 4 0.17217035D+00 0.19165900D-01 0.49700861D+05 0.49700861D+05 0.49700861D+05 0.11925399D+01  1  2  3  2  6  2       21 0.381318758794D-03 0.100000000000D+01
0.132552942298D-04 0.000000000000D+00 0.000000000000D+00 0.341314450632D-06 0.000000000000D+00  6 1 21 25 -24 2 21 4 0.17217035D+00 0.19165900D-01 0.49700861D+05 0.49700861D+05 0.49700861D+05 0.11925399D+01  1  2 15  2  6  2       21 0.974899479559D-02 0.100000000000D+01
-.177423320866D-05 0.000000000000D+00 0.000000000000D+00 0.341314450632D-06 0.000000000000D+00  6 1 21 25 -24 2 21 4 0.17217035D+00 0.19165900D-01 0.49700861D+05 0.49700861D+05 0.49700861D+05 0.11925399D+01  1  2  4  2  6  2       21 -.130491183504D-02 0.100000000000D+01
  </mgrwgt>
  </event>
  <event>
  6     66 0.42980143E-03 0.27612278E+02 0.75467711E-02 0.12195214E+00
        3 -1    0    0  502    0 0.00000000E+00 0.00000000E+00 0.37602779E+02 0.37606103E+02 0.50000000E+00 0.0000E+00 0.9000E+01
       21 -1    0    0  503  502 0.00000000E+00 0.00000000E+00 -.10782194E+04 0.10782197E+04 0.75000000E+00 0.0000E+00 0.9000E+01
       25  1    1    2    0    0 -.59296058E+01 0.62691071E+01 -.38294281E+03 0.40292016E+03 0.12500000E+03 0.0000E+00 0.9000E+01
      -24  1    1    2    0    0 0.14558756E+02 0.67419210E+01 -.36671229E+03 0.37576925E+03 0.80419002E+02 0.0000E+00 0.9000E+01
        4  1    1    2  501    0 0.14731585E+02 0.19011984E+02 0.15150445E+02 0.28467764E+02 0.15500000E+01 0.0000E+00 0.9000E+01
       21  1    1    2  503  501 -.23360736E+02 -.32023012E+02 -.30611201E+03 0.30866863E+03 0.75000000E+00 0.0000E+00 0.9000E+01
#aMCatNLO 2  0  0  2  5 0.24669846D+02 0.00000000D+00  -5  6  0 0.00000000D+00 0.00000000D+00 0.00000000D+00 0.00000000D+00 0.00000000D+00
  <mgrwgt>
 0.2176620960D-01    1    2    0
 0.166158376795944D+03 0.000000000000000D+00 0.000000000000000D+00 0.166158376795944D+03
 0.166158376795944D+03 0.000000000000000D+00 0.000000000000000D+00 -.166158376795944D+03
 0.132057380980210D+03 -.151542261942232D+02 -.637599133112250D+01 -.392918316492390D+02
 0.100499523568714D+03 0.748539169888890D+01 -.295423899639478D+01 -.597342419909582D+02
 0.997598490429646D+02 0.766883449533435D+01 0.933023032751728D+01 0.990260736401971D+02
 0.000000000000000D+00 -.000000000000000D+00 -.000000000000000D+00 -.000000000000000D+00
 0.173222828984409D+03 0.000000000000000D+00 0.000000000000000D+00 0.173222828984409D+03
 0.234063638238612D+03 0.000000000000000D+00 0.000000000000000D+00 -.234063638238612D+03
 0.131313781661494D+03 -.592987225465443D+01 0.626879852395005D+01 -.392918316492390D+02
 0.101453441669083D+03 0.145586248190737D+02 0.674178383475608D+01 -.597342419909582D+02
 0.101905186593709D+03 0.147319831228822D+02 0.190124292864464D+02 0.990260736401971D+02
 0.726140572987345D+02 -.233607356873015D+02 -.320230116451525D+02 -.608408092542033D+02
0.453065432877D-04 0.000000000000D+00 0.000000000000D+00 0.226337314542D-06 0.338045707026D-08  6 3 21 25 -24 4 21 4 0.57852557D-02 0.16587839D+00 0.18359127D+05 0.18359127D+05 0.18359127D+05 0.12379401D+01  1  2  1  2  6  2       21 0.217662095963D-01 0.100000000000D+01
  </mgrwgt>
  </event>
  <event>
  5     66 0.42980143E-03 0.22456016E+02 0.75467711E-02 0.12287235E+00
        1 -1    0    0  502    0 0.00000000E+00 0.00000000E+00 0.47712408E+03 0.47712419E+03 0.32000000E+00 0.0000E+00 0.9000E+01
       21 -1    0    0  501  502 0.00000000E+00 0.00000000E+00 -.38421156E+02 0.38428475E+02 0.75000000E+00 0.0000E+00 0.9000E+01
       25  1    1    2    0    0 0.45465801E+01 0.38739364E+02 0.30219811E+03 0.32934801E+03 0.12500000E+03 0.0000E+00 0.9000E+01
      -24  1    1    2    0    0 -.24868761E+02 -.48291609E+02 0.13109240E+03 0.16310416E+03 0.80419002E+02 0.0000E+00 0.9000E+01
        2  1    1    2  501    0 0.20322181E+02 0.95522443E+01 0.54124191E+01 0.23100500E+02 0.32000000E+00 0.0000E+00 0.9000E+01
#aMCatNLO 1  0  0  1  2 0.79661207D+01 0.00000000D+00  -5  6  0 0.00000000D+00 0.00000000D+00 0.00000000D+00 0.00000000D+00 0.00000000D+00
  <mgrwgt>
 0.2953202347D+00   11    2    0
 0.135401525619111D+03 0.000000000000000D+00 0.000000000000000D+00 0.135401525619111D+03
 0.135401525619111D+03 0.000000000000000D+00 0.000000000000000D+00 -.135401525619111D+03
 0.137447023744173D+03 0.454615406494026D+01 0.387391639624835D+02 0.417767159412630D+02
 0.981458294028702D+02 -.248690655171574D+02 -.482917515108779D+02 -.146568820395650D+02
 0.352101980911794D+02 0.203229114522172D+02 0.955258754839443D+01 -.271198339016980D+02
 0.000000000000000D+00 0.000000000000000D+00 0.000000000000000D+00 0.000000000000000D+00
 0.147736802497564D+03 0.000000000000000D+00 0.000000000000000D+00 0.147736802497564D+03
 0.136752363171840D+03 0.000000000000000D+00 0.000000000000000D+00 -.136752363171840D+03
 0.136359083617987D+03 0.408021993167304D+01 0.347398545709310D+02 0.417767159412630D+02
 0.996839804586786D+02 -.252057112621347D+02 -.511813240778691D+02 -.146568820395650D+02
 0.348771301479446D+02 0.202036442859340D+02 0.852886710345636D+01 -.271198339016980D+02
 0.135689714447927D+02 0.921847044527673D+00 0.791260240348172D+01 0.109844393257239D+02
0.135379805071D-05 0.000000000000D+00 0.000000000000D+00 0.171655300184D-05 0.000000000000D+00  6 1 21 25 -24 2 21 2 0.73404276D-01 0.59115183D-02 0.15680736D+05 0.15680736D+05 0.15680736D+05 0.12456311D+01  1  2  2  1  6  1        1 0.223263254549D-01 0.100000000000D+01
0.105729637978D-06 0.714418858909D-07 -.273292821787D-08 0.171655300184D-05 0.000000000000D+00  6 1 21 25 -24 2 21 4 0.73404276D-01 0.59115183D-02 0.15680736D+05 0.15680736D+05 0.15680736D+05 0.12456311D+01  1  2  3  1  6  1        1 0.270544685891D-02 0.100000000000D+01
0.123394977345D-06 0.000000000000D+00 0.000000000000D+00 0.171655300184D-05 0.000000000000D+00  6 1 21 25 -24 2 21 4 0.73404276D-01 0.59115183D-02 0.15680736D+05 0.15680736D+05 0.15680736D+05 0.12456311D+01  1  2 15  1  6  1        1 0.315747372496D-02 0.100000000000D+01
0.315565080825D-04 0.000000000000D+00 0.000000000000D+00 0.170821429256D-05 0.000000000000D+00  6 1 21 25 -24 2 21 4 0.80437270D-01 0.59115183D-02 0.16679538D+05 0.16679538D+05 0.16679538D+05 0.12426019D+01  1  2 12  1  6  1        1 0.710558221906D+00 0.100000000000D+01
-.231423979371D-04 0.000000000000D+00 0.000000000000D+00 0.171655300184D-05 0.000000000000D+00  6 1 21 25 -24 2 21 4 0.73404276D-01 0.59115183D-02 0.15680736D+05 0.15680736D+05 0.15680736D+05 0.12456311D+01  1  2  4  1  6  1        1 -.592175751323D+00 0.100000000000D+01
-.546745228132D-04 0.000000000000D+00 -.622084995914D-05 0.171655300184D-05 0.000000000000D+00  6 1 21 25 -24 2 21 4 0.80572611D-01 0.59115183D-02 0.15680736D+05 0.15680736D+05 0.15680736D+05 0.12456311D+01  1  2  5  1  6  1        1 -.123938422200D+01 0.100000000000D+01
0.550419606923D-04 0.000000000000D+00 0.619394297896D-05 0.171655300184D-05 0.000000000000D+00  6 1 21 25 -24 2 21 4 0.73404276D-01 0.59115183D-02 0.15680736D+05 0.15680736D+05 0.15680736D+05 0.12456311D+01  1  2  6  1  6  1        1 0.140843289083D+01 0.100000000000D+01
0.113823657784D-06 0.000000000000D+00 0.000000000000D+00 0.171655300184D-05 0.227810527555D-06  6 1 21 25 -24 2 21 4 0.80091513D-01 0.59704948D-02 0.16679538D+05 0.16679538D+05 0.16679538D+05 0.12426019D+01  1  2 11  1  6  1        1 0.253450949898D-02 0.100000000000D+01
0.477525952168D-06 0.000000000000D+00 0.000000000000D+00 0.170821429256D-05 0.000000000000D+00  6 21 21 25 -24 2 -1 4 0.80437270D-01 0.59115183D-02 0.16679538D+05 0.16679538D+05 0.16679538D+05 0.12426019D+01  1  2 12  4  6  1        1 0.317819363038D-01 0.100000000000D+01
-.817226360376D-06 0.000000000000D+00 -.950288136538D-07 0.171655300184D-05 0.000000000000D+00  6 21 21 25 -24 2 -1 4 0.80572611D-01 0.59115183D-02 0.15680736D+05 0.15680736D+05 0.15680736D+05 0.12456311D+01  1  2  5  4  6  1        1 -.547663355215D-01 0.100000000000D+01
0.226607818292D-08 0.000000000000D+00 0.000000000000D+00 0.171655300184D-05 0.342864993469D-08  6 21 21 25 -24 2 -1 4 0.80091513D-01 0.59704948D-02 0.16679538D+05 0.16679538D+05 0.16679538D+05 0.12426019D+01  1  2 11  4  6  1        1 0.149739002920D-03 0.100000000000D+01
  </mgrwgt>
  </event>
  <event>
  6     66 0.42980143E-03 0.64626909E+02 0.75467711E-02 0.11915115E+00
        1 -1    0    0  503    0 0.00000000E+00 0.00000000E+00 0.17078052E+04 0.17078052E+04 0.32000000E+00 0.0000E+00 0.9000E+01
       21 -1    0    0  501  502 0.00000000E+00 0.00000000E+00 -.15124205E+02 0.15142790E+02 0.75000000E+00 0.0000E+00 0.9000E+01
       25  1    1    2    0    0 -.16237997E+02 -.27982420E+02 0.61887810E+03 0.63220391E+03 0.12500000E+03 0.0000E+00 0.9000E+01
      -24  1    1    2    0    0 -.34614328E+02 0.58661104E+02 0.71127636E+03 0.71904141E+03 0.80419002E+02 0.0000E+00 0.9000E+01
        2  1    1    2  501    0 0.59171854E+02 -.37280282E+02 0.33424451E+03 0.34148298E+03 0.32000000E+00 0.0000E+00 0.9000E+01
       21  1    1    2  503  502 -.83195287E+01 0.66015985E+01 0.28281988E+02 0.30219679E+02 0.75000000E+00 0.0000E+00 0.9000E+01
#aMCatNLO 2  0  0  1  2 0.10620530D+02 0.00000000D+00  -5  6  0 0.00000000D+00 0.00000000D+00 0.00000000D+00 0.00000000D+00 0.00000000D+00
  <mgrwgt>
 0.8925279967D-01    2    2    0
 0.154104172469876D+03 0.000000000000000D+00 0.000000000000000D+00 0.154104172469876D+03
 0.154104172469876D+03 0.000000000000000D+00 0.000000000000000D+00 -.154104172469876D+03
 0.129911325804023D+03 -.197450772252507D+02 -.251995749984711D+02 -.150687065610898D+02
 0.110215678653875D+03 -.375583166042040D+02 0.609971393081351D+02 0.234307856642908D+02
 0.680813404818552D+02 0.573033938294547D+02 -.357975643096640D+02 -.836207910320107D+01
 0.000000000000000D+00 -.000000000000000D+00 0.000000000000000D+00 -.000000000000000D+00
 0.156872140554790D+03 0.000000000000000D+00 0.000000000000000D+00 0.156872140554790D+03
 0.164731372391749D+03 0.000000000000000D+00 0.000000000000000D+00 -.164731372391749D+03
 0.129995206238775D+03 -.162382637631439D+02 -.279822536189621D+02 -.150687065610898D+02
 0.107960761869726D+03 -.346145503481996D+02 0.586612422001706D+02 0.234307856642908D+02
 0.704353086030243D+02 0.591723428163035D+02 -.372805871292947D+02 -.836207910320107D+01
 0.132122362350141D+02 -.831952870496011D+01 0.660159854808618D+01 -.785923183695908D+01
-.384817717003D-06 0.000000000000D+00 0.000000000000D+00 0.312943891969D-06 0.000000000000D+00  6 1 21 25 -24 2 21 4 0.25808738D+00 0.21778869D-02 0.23149105D+05 0.23149105D+05 0.23149105D+05 0.12268954D+01  1  2  8  1  6  1        1 -.584788427696D-02 0.100000000000D+01
0.737537126015D-05 0.000000000000D+00 0.000000000000D+00 0.312943891969D-06 0.347869431374D-07  6 1 21 25 -24 2 21 4 0.26272306D+00 0.23280765D-02 0.24816345D+05 0.24816345D+05 0.24816345D+05 0.12236411D+01  1  2  1  1  6  1        1 0.951006839514D-01 0.100000000000D+01
  </mgrwgt>
  </event>
  <event>
  5     66 -.42980143E-03 0.31343431E+02 0.75467711E-02 0.12083130E+00
        3 -1    0    0  502    0 0.00000000E+00 0.00000000E+00 0.61696473E+03 0.61696493E+03 0.50000000E+00 0.0000E+00 0.9000E+01
       21 -1    0    0  501  502 0.00000000E+00 0.00000000E+00 -.27554652E+02 0.27564857E+02 0.75000000E+00 0.0000E+00 0.9000E+01
       25  1    1    2    0    0 -.39739406E+02 -.25492633E+02 0.27580737E+03 0.30646990E+03 0.12500000E+03 0.0000E+00 0.9000E+01
      -24  1    1    2    0    0 0.26129719E+02 -.27154094E+01 0.27813816E+03 0.29072012E+03 0.80419002E+02 0.0000E+00 0.9000E+01
        4  1    1    2  501    0 0.13609687E+02 0.28208042E+02 0.35464553E+02 0.47339774E+02 0.15500000E+01 0.0000E+00 0.9000E+01
#aMCatNLO 1  0  0  2  2 0.35887317D+02 0.00000000D+00  -5  6  0 0.00000000D+00 0.00000000D+00 0.00000000D+00 0.00000000D+00 0.00000000D+00
  <mgrwgt>
 -.2847949266D-01   12    2    0
 0.130397862142058D+03 0.000000000000000D+00 0.000000000000000D+00 0.130397862142058D+03
 0.130397862142058D+03 0.000000000000000D+00 0.000000000000000D+00 -.130397862142058D+03
 0.134075301460393D+03 -.397456060898245D+02 -.255054831943692D+02 -.109974353951058D+02
 0.898811351568504D+02 0.261255622024455D+02 -.272402424326554D+01 0.303551839764105D+02
 0.368392876668728D+02 0.136200438873790D+02 0.282295074376347D+02 -.193577485813047D+02
 0.000000000000000D+00 -.000000000000000D+00 0.000000000000000D+00 -.000000000000000D+00
 0.132903582425739D+03 0.000000000000000D+00 0.000000000000000D+00 0.132903582425739D+03
 0.383775560487728D+03 0.000000000000000D+00 0.000000000000000D+00 -.383775560487728D+03
 0.136501522474788D+03 -.326900907915117D+02 -.426389495263217D+02 -.109974353951058D+02
 0.924436427635911D+02 0.308798321401669D+02 -.142691942934874D+02 0.303551839764105D+02
 0.343081524937598D+02 0.154752724512614D+02 0.237243090512096D+02 -.193577485813047D+02
 0.253425825181328D+03 -.136650137999166D+02 0.331838347685994D+02 -.250871978061990D+03
0.455621215251D-06 0.000000000000D+00 0.000000000000D+00 0.950298018134D-06 0.000000000000D+00  6 3 21 25 -24 4 21 2 0.94918451D-01 0.42399778D-02 0.15570930D+05 0.15570930D+05 0.15570930D+05 0.12459773D+01  1  2  2  2  6  2       21 0.123079550948D-02 0.100000000000D+01
0.877596506340D-08 0.240437920947D-07 -.919767963300D-09 0.950298018134D-06 0.000000000000D+00  6 3 21 25 -24 4 21 4 0.94918451D-01 0.42399778D-02 0.15570930D+05 0.15570930D+05 0.15570930D+05 0.12459773D+01  1  2  3  2  6  2       21 0.368041765343D-04 0.100000000000D+01
0.509432631674D-07 0.000000000000D+00 0.000000000000D+00 0.950298018134D-06 0.000000000000D+00  6 3 21 25 -24 4 21 4 0.94918451D-01 0.42399778D-02 0.15570930D+05 0.15570930D+05 0.15570930D+05 0.12459773D+01  1  2 15  2  6  2       21 0.213643153465D-03 0.100000000000D+01
-.395221568162D-04 0.000000000000D+00 -.112014045528D-05 0.950298018134D-06 0.000000000000D+00  6 3 21 25 -24 4 21 4 0.94918451D-01 0.12640089D-01 0.15570930D+05 0.15570930D+05 0.15570930D+05 0.12459773D+01  1  2  5  2  6  2       21 -.254334275137D-01 0.100000000000D+01
-.140731427539D-04 0.000000000000D+00 -.394930128561D-06 0.950298018134D-06 0.000000000000D+00  6 3 -3 25 -24 4 -3 4 0.94918451D-01 0.12640089D-01 0.15570930D+05 0.15570930D+05 0.15570930D+05 0.12459773D+01  1  2  5  5  6  2       21 -.400584080582D-03 0.100000000000D+01
-.140731427539D-04 0.000000000000D+00 -.394930128561D-06 0.950298018134D-06 0.000000000000D+00  6 3 3 25 -24 4 3 4 0.94918451D-01 0.12640089D-01 0.15570930D+05 0.15570930D+05 0.15570930D+05 0.12459773D+01  1  2  5  6  6  2       21 -.400531560651D-03 0.100000000000D+01
-.140731427539D-04 0.000000000000D+00 -.394930128561D-06 0.950298018134D-06 0.000000000000D+00  6 3 -4 25 -24 4 -4 4 0.94918451D-01 0.12640089D-01 0.15570930D+05 0.15570930D+05 0.15570930D+05 0.12459773D+01  1  2  5  7  6  2       21 -.346237682662D-03 0.100000000000D+01
-.140731427539D-04 0.000000000000D+00 -.394930128561D-06 0.950298018134D-06 0.000000000000D+00  6 3 4 25 -24 4 4 4 0.94918451D-01 0.12640089D-01 0.15570930D+05 0.15570930D+05 0.15570930D+05 0.12459773D+01  1  2  5  8  6  2       21 -.346237682662D-03 0.100000000000D+01
-.140731427539D-04 0.000000000000D+00 -.394930128561D-06 0.950298018134D-06 0.000000000000D+00  6 3 -1 25 -24 4 -1 4 0.94918451D-01 0.12640089D-01 0.15570930D+05 0.15570930D+05 0.15570930D+05 0.12459773D+01  1  2  5  9  6  2       21 -.631714134281D-03 0.100000000000D+01
-.140731427539D-04 0.000000000000D+00 -.394930128561D-06 0.950298018134D-06 0.000000000000D+00  6 3 -2 25 -24 4 -2 4 0.94918451D-01 0.12640089D-01 0.15570930D+05 0.15570930D+05 0.15570930D+05 0.12459773D+01  1  2  5  9  6  2       21 -.596706139829D-03 0.100000000000D+01
-.140731427539D-04 0.000000000000D+00 -.394930128561D-06 0.950298018134D-06 0.000000000000D+00  6 3 1 25 -24 4 1 4 0.94918451D-01 0.12640089D-01 0.15570930D+05 0.15570930D+05 0.15570930D+05 0.12459773D+01  1  2  5 10  6  2       21 -.833803227494D-03 0.100000000000D+01
-.140731427539D-04 0.000000000000D+00 -.394930128561D-06 0.950298018134D-06 0.000000000000D+00  6 3 2 25 -24 4 2 4 0.94918451D-01 0.12640089D-01 0.15570930D+05 0.15570930D+05 0.15570930D+05 0.12459773D+01  1  2  5 10  6  2       21 -.971493475647D-03 0.100000000000D+01
  </mgrwgt>
  </event>
  <event>
  6     66 0.42980143E-03 0.19786221E+02 0.75467711E-02 0.12271921E+00
        3 -1    0    0  502    0 0.00000000E+00 0.00000000E+00 0.75897487E+02 0.75899134E+02 0.50000000E+00 0.0000E+00 0.9000E+01
       21 -1    0    0  501  502 -.00000000E+00 -.00000000E+00 -.30635959E+03 0.30636051E+03 0.75000000E+00 0.0000E+00 0.9000E+01
       25  1    1    2    0    0 0.46966878E+02 0.89006787E+01 -.11868391E+03 0.17887420E+03 0.12500000E+03 0.0000E+00 0.9000E+01
      -24  1    1    2    0    0 -.32528973E+02 -.31665120E+02 -.12839708E+02 0.93235658E+02 0.80419002E+02 0.0000E+00 0.9000E+01
        4  1    1    2  503    0 -.19677349E+02 0.15098975E+02 -.97629844E+02 0.10074307E+03 0.15500000E+01 0.0000E+00 0.9000E+01
       21  1    1    2  501  503 0.52394446E+01 0.76654669E+01 -.13086396E+01 0.94067104E+01 0.75000000E+00 0.0000E+00 0.9000E+01
#aMCatNLO 2  0  0  5  2 0.10815250D+02 0.00000000D+00  -5  6  0 0.00000000D+00 0.00000000D+00 0.00000000D+00 0.00000000D+00 0.00000000D+00
  <mgrwgt>
 0.5407300205D-01    2    2    0
 0.152487419249473D+03 0.000000000000000D+00 0.000000000000000D+00 0.152487419249473D+03
 0.152487419249473D+03 -.000000000000000D+00 -.000000000000000D+00 -.152487419249473D+03
 0.134596719636285D+03 0.488915239587844D+02 0.586606256270082D+01 -.815384153921846D+01
 0.109732113813239D+03 -.309778022230493D+02 -.341108720469728D+02 0.587430423554634D+02
 0.606460050494221D+02 -.179137217357352D+02 0.282448094842719D+02 -.505892008162449D+02
 0.000000000000000D+00 0.000000000000000D+00 0.000000000000000D+00 0.000000000000000D+00
 0.152487419249473D+03 0.000000000000000D+00 0.000000000000000D+00 0.152487419249473D+03
 0.152487419249473D+03 -.000000000000000D+00 -.000000000000000D+00 -.152487419249473D+03
 0.134518886155057D+03 0.469182501817199D+02 0.897735025130629D+01 -.137264603867139D+02
 0.107098488012994D+03 -.325676993952726D+02 -.316040594821974D+02 0.542530972447086D+02
 0.522492015421443D+02 -.197357843395257D+02 0.146692789600011D+02 -.461008691142480D+02
 0.111082627887502D+02 0.538523355307840D+01 0.795743027089003D+01 0.557423225625332D+01
-.219969279279D-05 0.000000000000D+00 0.000000000000D+00 0.122199393913D-05 0.000000000000D+00  6 3 21 25 -24 4 21 4 0.11676734D-01 0.47132442D-01 0.16962512D+05 0.16962512D+05 0.16962512D+05 0.12417806D+01  1  2  8  3  6  5        4 -.620362008254D-02 0.100000000000D+01
0.213703658873D-04 0.000000000000D+00 0.000000000000D+00 0.122199393913D-05 0.171406235321D-06  6 3 21 25 -24 4 21 4 0.11676734D-01 0.47132442D-01 0.16946262D+05 0.16946262D+05 0.16946262D+05 0.12418273D+01  1  2  1  3  6  5        4 0.602766221297D-01 0.100000000000D+01
  </mgrwgt>
  </event>
  <event>
  5     66 0.42980143E-03 0.39759759E+02 0.75467711E-02 0.12336519E+00
        1 -1    0    0  502    0 0.00000000E+00 0.00000000E+00 0.40470126E+02 0.40471391E+02 0.32000000E+00 0.0000E+00 0.9000E+01
       21 -1    0    0  501  502 -.00000000E+00 -.00000000E+00 -.63127316E+03 0.63127361E+03 0.75000000E+00 0.0000E+00 0.9000E+01
       25  1    1    2    0    0 0.17427765E+02 0.16432736E+02 -.33951788E+03 0.36258951E+03 0.12500000E+03 0.0000E+00 0.9000E+01
      -24  1    1    2    0    0 -.17479387E+02 0.23326549E+02 -.40480188E+02 0.94633601E+02 0.80419002E+02 0.0000E+00 0.9000E+01
        2  1    1    2  501    0 0.51621592E-01 -.39759286E+02 -.21080497E+03 0.21452189E+03 0.32000000E+00 0.0000E+00 0.9000E+01
#aMCatNLO 1  0  0  5  2 0.37339624D+01 0.00000000D+00  -5  6  0 0.00000000D+00 0.00000000D+00 0.00000000D+00 0.00000000D+00 0.00000000D+00
  <mgrwgt>
 0.5968568006D-01    5    2    0
 0.159838290153141D+03 0.000000000000000D+00 0.000000000000000D+00 0.159838290153141D+03
 0.159838290153141D+03 -.000000000000000D+00 -.000000000000000D+00 -.159838290153141D+03
 0.134446748651770D+03 0.174277651044771D+02 0.164329648496525D+02 -.433261917637076D+02
 0.124043806869194D+03 -.174793872672233D+02 0.233267604326709D+02 0.898330859801144D+02
 0.611860247853182D+02 0.516221627461328D-01 -.397597252823234D+02 -.465068942164068D+02
 0.000000000000000D+00 -.000000000000000D+00 0.000000000000000D+00 0.000000000000000D+00
 0.159838290153141D+03 0.000000000000000D+00 0.000000000000000D+00 0.159838290153141D+03
 0.159838290153141D+03 -.000000000000000D+00 -.000000000000000D+00 -.159838290153141D+03
 0.139924192848229D+03 0.174466966661513D+02 0.185175299626826D+01 -.603818145678682D+02
 0.111972101148788D+03 -.174631021982057D+02 0.107838944251966D+02 0.751617134181035D+02
 0.242321969006982D+02 0.352171371745910D+01 0.146618850792269D+02 0.189690807644971D+02
 0.435480894085677D+02 -.350530818540469D+01 -.272975325006918D+02 -.337489796147323D+02
0.268065552015D-04 0.000000000000D+00 0.000000000000D+00 0.649522932174D-06 0.000000000000D+00  6 1 21 25 -24 2 21 2 0.62263048D-02 0.97119080D-01 0.15948270D+05 0.15948270D+05 0.15948270D+05 0.12447989D+01  1  2  2  3  6  5        2 0.478300176603D-01 0.100000000000D+01
0.182171038668D-06 0.141462078249D-05 -.541147116409D-07 0.649522932174D-06 0.000000000000D+00  6 1 21 25 -24 2 21 4 0.62263048D-02 0.97119080D-01 0.15948270D+05 0.15948270D+05 0.15948270D+05 0.12447989D+01  1  2  3  3  6  5        2 0.503659794870D-03 0.100000000000D+01
0.288464529006D-05 0.000000000000D+00 0.000000000000D+00 0.649522932174D-06 0.000000000000D+00  6 1 21 25 -24 2 21 4 0.62263048D-02 0.97119080D-01 0.15948270D+05 0.15948270D+05 0.15948270D+05 0.12447989D+01  1  2 15  3  6  5        2 0.797536131805D-02 0.100000000000D+01
-.629785662771D-05 0.000000000000D+00 0.000000000000D+00 0.649522932174D-06 0.000000000000D+00  6 1 21 25 -24 2 21 4 0.62263048D-02 0.97119080D-01 0.15948270D+05 0.15948270D+05 0.15948270D+05 0.12447989D+01  1  2  4  3  6  5        2 -.174120826253D-01 0.100000000000D+01
0.751169383110D-05 0.000000000000D+00 0.000000000000D+00 0.649522932174D-06 0.804921396432D-08  6 1 21 25 -24 2 21 4 0.62263048D-02 0.97119080D-01 0.15853660D+05 0.15853660D+05 0.15853660D+05 0.12450914D+01  1  2 11  3  6  5        2 0.207887239158D-01 0.100000000000D+01
  </mgrwgt>
  </event>
  <event>
  5     66 -.42980143E-03 0.57249321E+02 0.75467711E-02 0.12081298E+00
        1 -1    0    0  502    0 0.00000000E+00 0.00000000E+00 0.43555753E+03 0.43555765E+03 0.32000000E+00 0.0000E+00 0.9000E+01
       21 -1    0    0  501  502 0.00000000E+00 0.00000000E+00 -.55646035E+02 0.55651089E+02 0.75000000E+00 0.0000E+00 0.9000E+01
       25  1    1    2    0    0 0.74741673E+02 0.28981269E+01 0.28391836E+03 0.31910712E+03 0.12500000E+03 0.0000E+00 0.9000E+01
      -24  1    1    2    0    0 -.20356964E+02 -.20778723E+02 0.54744301E+02 0.10153973E+03 0.80419002E+02 0.0000E+00 0.9000E+01
        2  1    1    2  501    0 -.54384708E+02 0.17880596E+02 0.41248832E+02 0.70561893E+02 0.32000000E+00 0.0000E+00 0.9000E+01
#aMCatNLO 1  0  0  5  2 0.15702334D+01 0.00000000D+00  -5  6  0 0.00000000D+00 0.00000000D+00 0.00000000D+00 0.00000000D+00 0.00000000D+00
  <mgrwgt>
 -.6646548832D-01    8    2    0
 0.155686607130527D+03 0.000000000000000D+00 0.000000000000000D+00 0.155686607130527D+03
 0.155686607130527D+03 -.000000000000000D+00 -.000000000000000D+00 -.155686607130527D+03
 0.156996250654038D+03 0.747420502351056D+02 0.289800280076543D+01 0.585495535921945D+02
 0.933901454048569D+02 -.203567399291383D+02 -.207787963754095D+02 -.375279637739177D+02
 0.609868182021596D+02 -.543853103059673D+02 0.178807935746441D+02 -.210215898182769D+02
 0.000000000000000D+00 0.000000000000000D+00 0.000000000000000D+00 -.000000000000000D+00
 0.155686607130527D+03 0.000000000000000D+00 0.000000000000000D+00 0.155686607130527D+03
 0.155686607130527D+03 -.000000000000000D+00 -.000000000000000D+00 -.155686607130527D+03
 0.156819744128527D+03 0.744542756288779D+02 0.299261728951309D+01 0.584383198840811D+02
 0.934417524113611D+02 -.205280679580429D+02 -.207224671736239D+02 -.375941873097906D+02
 0.230176917554740D+01 -.211699312657207D+01 0.302414399795653D+00 0.851485155679102D+00
 0.588099485456194D+02 -.518092145442629D+02 0.174274354843152D+02 -.216956177299696D+02
0.207155817243D-05 0.000000000000D+00 0.000000000000D+00 0.349721491111D-06 0.000000000000D+00  6 1 21 25 -24 2 21 2 0.67009249D-01 0.85613262D-02 0.20799070D+05 0.20799070D+05 0.20799070D+05 0.12319573D+01  1  2  2  3  6  5        2 0.199735689747D-01 0.100000000000D+01
-.796828407793D-07 0.109319128132D-06 -.418187910776D-08 0.349721491111D-06 0.000000000000D+00  6 1 21 25 -24 2 21 4 0.67009249D-01 0.85613262D-02 0.20799070D+05 0.20799070D+05 0.20799070D+05 0.12319573D+01  1  2  3  3  6  5        2 -.116604334231D-02 0.100000000000D+01
0.189457530588D-06 0.000000000000D+00 0.000000000000D+00 0.349721491111D-06 0.000000000000D+00  6 1 21 25 -24 2 21 4 0.67009249D-01 0.85613262D-02 0.20799070D+05 0.20799070D+05 0.20799070D+05 0.12319573D+01  1  2 15  3  6  5        2 0.277243745367D-02 0.100000000000D+01
0.199351240200D-09 0.000000000000D+00 0.000000000000D+00 0.349827909048D-06 0.000000000000D+00  6 1 21 25 -24 2 21 4 0.67009249D-01 0.85613262D-02 0.20717334D+05 0.20717334D+05 0.20717334D+05 0.12321448D+01  1  2 12  3  6  5        2 0.291890370152D-05 0.100000000000D+01
-.838947059999D-05 0.000000000000D+00 0.000000000000D+00 0.349721491111D-06 0.000000000000D+00  6 1 21 25 -24 2 21 4 0.67009249D-01 0.85613262D-02 0.20799070D+05 0.20799070D+05 0.20799070D+05 0.12319573D+01  1  2  4  3  6  5        2 -.122767790944D+00 0.100000000000D+01
-.724262471280D-06 0.000000000000D+00 0.000000000000D+00 0.349721491111D-06 0.000000000000D+00  6 1 21 25 -24 2 21 4 0.67009249D-01 0.85613262D-02 0.20799070D+05 0.20799070D+05 0.20799070D+05 0.12319573D+01  1  2  5  3  6  5        2 -.105985357005D-01 0.100000000000D+01
0.178712843444D-05 0.000000000000D+00 -.000000000000D+00 0.349721491111D-06 0.000000000000D+00  6 1 21 25 -24 2 21 4 0.67009249D-01 0.85613262D-02 0.20799070D+05 0.20799070D+05 0.20799070D+05 0.12319573D+01  1  2  6  3  6  5        2 0.261520446868D-01 0.100000000000D+01
0.130896687496D-05 0.000000000000D+00 0.000000000000D+00 0.349721491111D-06 0.330684585534D-07  6 1 21 25 -24 2 21 4 0.67009249D-01 0.85613262D-02 0.20717334D+05 0.20717334D+05 0.20717334D+05 0.12321448D+01  1  2 11  3  6  5        2 0.191659116475D-01 0.100000000000D+01
  </mgrwgt>
  </event>
  <event>
  5     66 0.42980143E-03 0.22740530E+02 0.75467711E-02 0.11297329E+00
        1 -1    0    0  502    0 0.00000000E+00 0.00000000E+00 0.10650639E+03 0.10650687E+03 0.32000000E+00 0.0000E+00 0.9000E+01
       21 -1    0    0  501  502 -.00000000E+00 -.00000000E+00 -.58727315E+03 0.58727363E+03 0.75000000E+00 0.0000E+00 0.9000E+01
       25  1    1    2    0    0 0.15446817E+03 -.96703816E+02 -.13929577E+03 0.26122855E+03 0.12500000E+03 0.0000E+00 0.9000E+01
      -24  1    1    2    0    0 -.17211896E+03 0.82366089E+02 -.19534984E+03 0.28467154E+03 0.80419002E+02 0.0000E+00 0.9000E+01
        2  1    1    2  501    0 0.17650786E+02 0.14337728E+02 -.14612115E+03 0.14788041E+03 0.32000000E+00 0.0000E+00 0.9000E+01
#aMCatNLO 1  0  0  5  2 0.38760345D+01 0.00000000D+00  -5  6  0 0.00000000D+00 0.00000000D+00 0.00000000D+00 0.00000000D+00 0.00000000D+00
  <mgrwgt>
 0.3000432116D+00    8    2    0
 0.250097330081975D+03 0.000000000000000D+00 0.000000000000000D+00 0.250097330081975D+03
 0.250097330081975D+03 -.000000000000000D+00 -.000000000000000D+00 -.250097330081975D+03
 0.228444111828311D+03 0.154468076144057D+03 -.967038963700492D+02 0.578764382821745D+02
 0.207083131029127D+03 -.172119050029637D+03 0.823660159309785D+02 0.266068393634508D+01
 0.646674173065115D+02 0.176509738855801D+02 0.143378804390706D+02 -.605371222185196D+02
 0.000000000000000D+00 0.000000000000000D+00 0.000000000000000D+00 0.000000000000000D+00
 0.250097330081975D+03 0.000000000000000D+00 0.000000000000000D+00 0.250097330081975D+03
 0.250097330081975D+03 -.000000000000000D+00 -.000000000000000D+00 -.250097330081975D+03
 0.228413028405306D+03 0.154526184255301D+03 -.966566951698798D+02 0.576771462853097D+02
 0.207054135316423D+03 -.172066375501379D+03 0.824088034334270D+02 0.248002736885892D+01
 0.327333354252676D+02 0.856553178614319D+01 0.346754941123093D+01 -.314018950760033D+02
 0.319941610169522D+02 0.897465945993494D+01 0.107803423252218D+02 -.287552785781653D+02
0.390895523054D-04 0.000000000000D+00 0.000000000000D+00 0.121757727386D-05 0.000000000000D+00  6 1 21 25 -24 2 21 2 0.16385672D-01 0.90349789D-01 0.50804616D+05 0.50804616D+05 0.50804616D+05 0.11915957D+01  1  2  2  3  6  5        2 0.203293789291D-01 0.100000000000D+01
0.814586390297D-05 0.206281234772D-05 -.789105439053D-07 0.121757727386D-05 0.000000000000D+00  6 1 21 25 -24 2 21 4 0.16385672D-01 0.90349789D-01 0.50804616D+05 0.50804616D+05 0.50804616D+05 0.11915957D+01  1  2  3  3  6  5        2 0.601531597975D-02 0.100000000000D+01
0.355928400387D-05 0.000000000000D+00 0.000000000000D+00 0.121757727386D-05 0.000000000000D+00  6 1 21 25 -24 2 21 4 0.16385672D-01 0.90349789D-01 0.50804616D+05 0.50804616D+05 0.50804616D+05 0.11915957D+01  1  2 15  3  6  5        2 0.262835448762D-02 0.100000000000D+01
0.276856673484D-04 0.000000000000D+00 0.000000000000D+00 0.121737476845D-05 0.000000000000D+00  6 1 21 25 -24 2 21 4 0.16385672D-01 0.90349789D-01 0.50922028D+05 0.50922028D+05 0.50922028D+05 0.11914966D+01  1  2 12  3  6  5        2 0.204361130509D-01 0.100000000000D+01
-.404059848301D-03 0.000000000000D+00 0.000000000000D+00 0.121757727386D-05 0.000000000000D+00  6 1 21 25 -24 2 21 4 0.16385672D-01 0.90349789D-01 0.50804616D+05 0.50804616D+05 0.50804616D+05 0.11915957D+01  1  2  4  3  6  5        2 -.298378132904D+00 0.100000000000D+01
-.334351979180D-03 0.000000000000D+00 0.000000000000D+00 0.121757727386D-05 0.000000000000D+00  6 1 21 25 -24 2 21 4 0.16385672D-01 0.90349789D-01 0.50804616D+05 0.50804616D+05 0.50804616D+05 0.11915957D+01  1  2  5  3  6  5        2 -.246902333157D+00 0.100000000000D+01
0.706517029592D-03 0.000000000000D+00 -.000000000000D+00 0.121757727386D-05 0.000000000000D+00  6 1 21 25 -24 2 21 4 0.16385672D-01 0.90349789D-01 0.50804616D+05 0.50804616D+05 0.50804616D+05 0.11915957D+01  1  2  6  3  6  5        2 0.521727741673D+00 0.100000000000D+01
0.371452427639D-03 0.000000000000D+00 0.000000000000D+00 0.121757727386D-05 0.243766686343D-06  6 1 21 25 -24 2 21 4 0.16385672D-01 0.90349789D-01 0.50922028D+05 0.50922028D+05 0.50922028D+05 0.11914966D+01  1  2 11  3  6  5        2 0.274186773565D+00 0.100000000000D+01
  </mgrwgt>
  </event>
  <event>
  5     66 0.42980143E-03 0.86059181E+02 0.75467711E-02 0.11987639E+00
        1 -1    0    0  502    0 0.00000000E+00 0.00000000E+00 0.10147081E+04 0.10147082E+04 0.32000000E+00 0.0000E+00 0.9000E+01
       21 -1    0    0  501  502 0.00000000E+00 0.00000000E+00 -.26854301E+02 0.26864772E+02 0.75000000E+00 0.0000E+00 0.9000E+01
       25  1    1    2    0    0 -.81014310E+02 -.44916605E+01 0.56100617E+03 0.58046225E+03 0.12500000E+03 0.0000E+00 0.9000E+01
      -24  1    1    2    0    0 -.46269163E+01 -.39752351E+01 0.13931623E+03 0.16097651E+03 0.80419002E+02 0.0000E+00 0.9000E+01
        2  1    1    2  501    0 0.85641226E+02 0.84668956E+01 0.28753141E+03 0.30013417E+03 0.32000000E+00 0.0000E+00 0.9000E+01
#aMCatNLO 1  0  0  5  2 0.31389031D+02 0.00000000D+00  -5  6  0 0.00000000D+00 0.00000000D+00 0.00000000D+00 0.00000000D+00 0.00000000D+00
  <mgrwgt>
 0.4937492085D-01    5    2    0
 0.165090146011801D+03 0.000000000000000D+00 0.000000000000000D+00 0.165090146011801D+03
 0.165090146011801D+03 -.000000000000000D+00 -.000000000000000D+00 -.165090146011801D+03
 0.152649101407443D+03 -.810145804236465D+02 -.449168731035088D+01 0.330637363948238D+02
 0.909948892706312D+02 -.462707764986569D+01 -.397525103527098D+01 -.421383607966968D+02
 0.865363013455279D+02 0.856416580735123D+02 0.846693834562187D+01 0.907462440187303D+01
 0.000000000000000D+00 0.000000000000000D+00 -.000000000000000D+00 0.000000000000000D+00
 0.165090146011801D+03 0.000000000000000D+00 0.000000000000000D+00 0.165090146011801D+03
 0.165090146011801D+03 -.000000000000000D+00 -.000000000000000D+00 -.165090146011801D+03
 0.145417769265262D+03 -.656423646844984D+02 -.297191754144655D+01 0.346925825334353D+02
 0.905094398755381D+02 0.473365304431461D+01 -.304980503807225D+01 -.411464940219567D+02
 0.617753519608532D+02 0.530314907550488D+02 0.263106216355160D+02 -.176523734193786D+02
 0.324777309219486D+02 0.787722088513507D+01 -.202888990559972D+02 0.241062849079000D+02
0.537789682823D-05 0.000000000000D+00 0.000000000000D+00 0.239008810466D-06 0.000000000000D+00  6 1 21 25 -24 2 21 2 0.15610975D+00 0.41322403D-02 0.24922070D+05 0.24922070D+05 0.24922070D+05 0.12234430D+01  1  2  2  3  6  5        2 0.524523597566D-01 0.100000000000D+01
-.467023375541D-06 0.283799412574D-06 -.108564242554D-07 0.239008810466D-06 0.000000000000D+00  6 1 21 25 -24 2 21 4 0.15610975D+00 0.41322403D-02 0.24922070D+05 0.24922070D+05 0.24922070D+05 0.12234430D+01  1  2  3  3  6  5        2 -.681802660621D-02 0.100000000000D+01
0.534697987480D-06 0.000000000000D+00 0.000000000000D+00 0.239008810466D-06 0.000000000000D+00  6 1 21 25 -24 2 21 4 0.15610975D+00 0.41322403D-02 0.24922070D+05 0.24922070D+05 0.24922070D+05 0.12234430D+01  1  2 15  3  6  5        2 0.780600136065D-02 0.100000000000D+01
0.260370291949D-05 0.000000000000D+00 0.000000000000D+00 0.240541457984D-06 0.000000000000D+00  6 1 21 25 -24 2 21 4 0.15610975D+00 0.41322403D-02 0.22921763D+05 0.22921763D+05 0.22921763D+05 0.12273594D+01  1  2 12  3  6  5        2 0.385008448139D-01 0.100000000000D+01
-.291571723959D-05 0.000000000000D+00 0.000000000000D+00 0.239008810466D-06 0.000000000000D+00  6 1 21 25 -24 2 21 4 0.15610975D+00 0.41322403D-02 0.24922070D+05 0.24922070D+05 0.24922070D+05 0.12234430D+01  1  2  4  3  6  5        2 -.425662584719D-01 0.100000000000D+01
  </mgrwgt>
  </event>
  <event>
  5     66 0.42980143E-03 0.51924137E+02 0.75467711E-02 0.10708320E+00
        3 -1    0    0  502    0 0.00000000E+00 0.00000000E+00 0.11217219E+03 0.11217330E+03 0.50000000E+00 0.0000E+00 0.9000E+01
       21 -1    0    0  501  502 0.00000000E+00 0.00000000E+00 -.65502765E+03 0.65502808E+03 0.75000000E+00 0.0000E+00 0.9000E+01
       25  1    1    2    0    0 0.53682675E+01 0.69155299E+02 -.47363139E+03 0.49473525E+03 0.12500000E+03 0.0000E+00 0.9000E+01
      -24  1    1    2    0    0 -.40976521E+02 -.10694455E+03 -.13104446E+03 0.19171875E+03 0.80419002E+02 0.0000E+00 0.9000E+01
        4  1    1    2  501    0 0.35608254E+02 0.37789249E+02 0.61820393E+02 0.80747375E+02 0.15500000E+01 0.0000E+00 0.9000E+01
#aMCatNLO 1  0  0  2  5 0.30958891D+02 0.00000000D+00  -5  6  0 0.00000000D+00 0.00000000D+00 0.00000000D+00 0.00000000D+00 0.00000000D+00
  <mgrwgt>
 0.1577005356D-01   12    2    0
 0.271065443892869D+03 0.000000000000000D+00 0.000000000000000D+00 0.271065443892869D+03
 0.271065443892869D+03 0.000000000000000D+00 0.000000000000000D+00 -.271065443892869D+03
 0.225866504886994D+03 0.536769324884389D+01 0.691546892593852D+02 -.174869936960275D+03
 0.140093209931532D+03 -.409768773954317D+02 -.106944925828921D+03 0.652455921239542D+01
 0.176171172967212D+03 0.356091841465878D+02 0.377902365695355D+02 0.168345377747880D+03
 0.000000000000000D+00 -.000000000000000D+00 0.000000000000000D+00 -.000000000000000D+00
 0.369103144069467D+03 0.000000000000000D+00 0.000000000000000D+00 0.369103144069467D+03
 0.546311310916063D+03 0.000000000000000D+00 0.000000000000000D+00 -.546311310916063D+03
 0.219183519859122D+03 0.322009053978550D+02 -.282846639877848D+02 -.174869936960275D+03
 0.199493597141669D+03 -.205023142440226D+02 -.181294138305339D+03 0.652455921239542D+01
 0.182409518400914D+03 0.572289374979306D+02 -.407175012376137D+02 0.168345377747880D+03
 0.314327819583825D+03 -.689275286517630D+02 0.250296303530738D+03 -.177208166846595D+03
0.109993392849D-03 0.000000000000D+00 0.000000000000D+00 0.639213249219D-07 0.000000000000D+00  6 3 21 25 -24 4 21 2 0.17257378D-01 0.10077360D+00 0.28026193D+05 0.28026193D+05 0.28026193D+05 0.12180128D+01  1  2  2  2  6  2       21 0.189199942238D-01 0.100000000000D+01
-.135343044162D-04 0.580451081056D-05 -.222044969661D-06 0.639213249219D-07 0.000000000000D+00  6 3 21 25 -24 4 21 4 0.17257378D-01 0.10077360D+00 0.28026193D+05 0.28026193D+05 0.28026193D+05 0.12180128D+01  1  2  3  2  6  2       21 -.345377514370D-02 0.100000000000D+01
0.135527972364D-04 0.000000000000D+00 0.000000000000D+00 0.639213249219D-07 0.000000000000D+00  6 3 21 25 -24 4 21 4 0.17257378D-01 0.10077360D+00 0.28026193D+05 0.28026193D+05 0.28026193D+05 0.12180128D+01  1  2 15  2  6  2       21 0.345849426636D-02 0.100000000000D+01
-.696714913744D-04 0.000000000000D+00 -.172291810323D-03 0.639213249219D-07 0.000000000000D+00  6 3 21 25 -24 4 21 4 0.17257378D-01 0.24301243D+00 0.28026193D+05 0.28026193D+05 0.28026193D+05 0.12180128D+01  1  2  5  2  6  2       21 -.163642197346D-02 0.100000000000D+01
-.183392719187D-04 0.000000000000D+00 -.524656382506D-04 0.639213249219D-07 0.000000000000D+00  6 3 -3 25 -24 4 -3 4 0.17257378D-01 0.24301243D+00 0.28026193D+05 0.28026193D+05 0.28026193D+05 0.12180128D+01  1  2  5  5  6  2       21 -.258298565411D-04 0.100000000000D+01
-.183392719187D-04 0.000000000000D+00 -.524656382506D-04 0.639213249219D-07 0.000000000000D+00  6 3 3 25 -24 4 3 4 0.17257378D-01 0.24301243D+00 0.28026193D+05 0.28026193D+05 0.28026193D+05 0.12180128D+01  1  2  5  6  6  2       21 -.260720071626D-04 0.100000000000D+01
-.183392719187D-04 0.000000000000D+00 -.524656382506D-04 0.639213249219D-07 0.000000000000D+00  6 3 -4 25 -24 4 -4 4 0.17257378D-01 0.24301243D+00 0.28026193D+05 0.28026193D+05 0.28026193D+05 0.12180128D+01  1  2  5  7  6  2       21 -.193284873334D-04 0.100000000000D+01
-.183392719187D-04 0.000000000000D+00 -.524656382506D-04 0.639213249219D-07 0.000000000000D+00  6 3 4 25 -24 4 4 4 0.17257378D-01 0.24301243D+00 0.28026193D+05 0.28026193D+05 0.28026193D+05 0.12180128D+01  1  2  5  8  6  2       21 -.193284873334D-04 0.100000000000D+01
-.183392719187D-04 0.000000000000D+00 -.524656382506D-04 0.639213249219D-07 0.000000000000D+00  6 3 -1 25 -24 4 -1 4 0.17257378D-01 0.24301243D+00 0.28026193D+05 0.28026193D+05 0.28026193D+05 0.12180128D+01  1  2  5  9  6  2       21 -.488375594689D-04 0.100000000000D+01
-.183392719187D-04 0.000000000000D+00 -.524656382506D-04 0.639213249219D-07 0.000000000000D+00  6 3 -2 25 -24 4 -2 4 0.17257378D-01 0.24301243D+00 0.28026193D+05 0.28026193D+05 0.28026193D+05 0.12180128D+01  1  2  5  9  6  2       21 -.382000128689D-04 0.100000000000D+01
-.183392719187D-04 0.000000000000D+00 -.524656382506D-04 0.639213249219D-07 0.000000000000D+00  6 3 1 25 -24 4 1 4 0.17257378D-01 0.24301243D+00 0.28026193D+05 0.28026193D+05 0.28026193D+05 0.12180128D+01  1  2  5 10  6  2       21 -.418180558273D-03 0.100000000000D+01
-.183392719187D-04 0.000000000000D+00 -.524656382506D-04 0.639213249219D-07 0.000000000000D+00  6 3 2 25 -24 4 2 4 0.17257378D-01 0.24301243D+00 0.28026193D+05 0.28026193D+05 0.28026193D+05 0.12180128D+01  1  2  5 10  6  2       21 -.922460848599D-03 0.100000000000D+01
  </mgrwgt>
  </event>
  <event>
  5     66 -.42980143E-03 0.34986347E+02 0.75467711E-02 0.11880376E+00
        1 -1    0    0  502    0 0.00000000E+00 0.00000000E+00 0.63708625E+03 0.63708633E+03 0.32000000E+00 0.0000E+00 0.9000E+01
       21 -1    0    0  501  502 0.00000000E+00 0.00000000E+00 -.26068975E+02 0.26079761E+02 0.75000000E+00 0.0000E+00 0.9000E+01
       25  1    1    2    0    0 -.76086521E+01 -.35057035E+02 0.27619821E+03 0.30528239E+03 0.12500000E+03 0.0000E+00 0.9000E+01
      -24  1    1    2    0    0 0.38749373E+02 0.19112935E+02 0.23486077E+03 0.25197940E+03 0.80419002E+02 0.0000E+00 0.9000E+01
        2  1    1    2  501    0 -.31140721E+02 0.15944100E+02 0.99958291E+02 0.10590430E+03 0.32000000E+00 0.0000E+00 0.9000E+01
#aMCatNLO 1  0  0  2  2 0.58343051D+02 0.00000000D+00  -5  6  0 0.00000000D+00 0.00000000D+00 0.00000000D+00 0.00000000D+00 0.00000000D+00
  <mgrwgt>
 -.1183907294D+01   12    2    0
 0.128886728258076D+03 0.000000000000000D+00 0.000000000000000D+00 0.128886728258076D+03
 0.128886728258076D+03 0.000000000000000D+00 0.000000000000000D+00 -.128886728258076D+03
 0.130700303512971D+03 -.760801125367150D+01 -.350573626598873D+02 -.130640279577171D+02
 0.915541810301810D+02 0.387498219715833D+02 0.191127051703485D+02 0.693598644596126D+01
 0.355189719730000D+02 -.311418107179118D+02 0.159446574895388D+02 0.612804151175581D+01
 0.000000000000000D+00 -.000000000000000D+00 0.000000000000000D+00 -.000000000000000D+00
 0.132356172492575D+03 0.000000000000000D+00 0.000000000000000D+00 0.132356172492575D+03
 0.419582455297132D+04 0.000000000000000D+00 0.000000000000000D+00 -.419582455297132D+04
 0.141568210298080D+03 -.279080235782537D+01 -.651006970985793D+02 -.130640279577171D+02
 0.909871565645953D+02 0.419795004349970D+02 -.102972840554392D+01 0.693598644596126D+01
 0.317381565744380D+02 -.299518397094660D+02 0.852320291863293D+01 0.612804151175581D+01
 0.406388720202678D+04 -.923685836770566D+01 0.576072225854903D+02 -.406346838047875D+04
0.169624622567D-06 0.000000000000D+00 0.000000000000D+00 0.514646367321D-06 0.000000000000D+00  6 1 21 25 -24 2 21 2 0.98014105D-01 0.40114474D-02 0.16425394D+05 0.16425394D+05 0.16425394D+05 0.12433530D+01  1  2  2  2  6  2       21 0.363687855138D-02 0.100000000000D+01
-.473228779335D-08 0.895133725698D-08 -.342423241943D-09 0.514646367321D-06 0.000000000000D+00  6 1 21 25 -24 2 21 4 0.98014105D-01 0.40114474D-02 0.16425394D+05 0.16425394D+05 0.16425394D+05 0.12433530D+01  1  2  3  2  6  2       21 -.156855568081D-03 0.100000000000D+01
0.166941038653D-07 0.000000000000D+00 0.000000000000D+00 0.514646367321D-06 0.000000000000D+00  6 1 21 25 -24 2 21 4 0.98014105D-01 0.40114474D-02 0.16425394D+05 0.16425394D+05 0.16425394D+05 0.12433530D+01  1  2 15  2  6  2       21 0.553339792452D-03 0.100000000000D+01
-.167213312999D-01 0.000000000000D+00 -.534803854352D-04 0.514646367321D-06 0.000000000000D+00  6 1 21 25 -24 2 21 4 0.98014105D-01 0.13097531D+00 0.16425394D+05 0.16425394D+05 0.16425394D+05 0.12433530D+01  1  2  5  2  6  2       21 -.648812174773D+00 0.100000000000D+01
-.742127020622D-02 0.000000000000D+00 -.237346033177D-04 0.514646367321D-06 0.000000000000D+00  6 1 -1 25 -24 2 -1 4 0.98014105D-01 0.13097531D+00 0.16425394D+05 0.16425394D+05 0.16425394D+05 0.12433530D+01  1  2  5  5  6  2       21 -.333556828765D-01 0.100000000000D+01
-.742127020622D-02 0.000000000000D+00 -.237346033177D-04 0.514646367321D-06 0.000000000000D+00  6 1 1 25 -24 2 1 4 0.98014105D-01 0.13097531D+00 0.16425394D+05 0.16425394D+05 0.16425394D+05 0.12433530D+01  1  2  5  6  6  2       21 -.154337640719D+00 0.100000000000D+01
-.742127020622D-02 0.000000000000D+00 -.237346033177D-04 0.514646367321D-06 0.000000000000D+00  6 1 -2 25 -24 2 -2 4 0.98014105D-01 0.13097531D+00 0.16425394D+05 0.16425394D+05 0.16425394D+05 0.12433530D+01  1  2  5  7  6  2       21 -.242599623086D-01 0.100000000000D+01
-.742127020622D-02 0.000000000000D+00 -.237346033177D-04 0.514646367321D-06 0.000000000000D+00  6 1 2 25 -24 2 2 4 0.98014105D-01 0.13097531D+00 0.16425394D+05 0.16425394D+05 0.16425394D+05 0.12433530D+01  1  2  5  8  6  2       21 -.272239217909D+00 0.100000000000D+01
-.742127020622D-02 0.000000000000D+00 -.237346033177D-04 0.514646367321D-06 0.000000000000D+00  6 1 -3 25 -24 2 -3 4 0.98014105D-01 0.13097531D+00 0.16425394D+05 0.16425394D+05 0.16425394D+05 0.12433530D+01  1  2  5  9  6  2       21 -.153519667332D-01 0.100000000000D+01
-.742127020622D-02 0.000000000000D+00 -.237346033177D-04 0.514646367321D-06 0.000000000000D+00  6 1 -4 25 -24 2 -4 4 0.98014105D-01 0.13097531D+00 0.16425394D+05 0.16425394D+05 0.16425394D+05 0.12433530D+01  1  2  5  9  6  2       21 -.120920375698D-01 0.100000000000D+01
-.742127020622D-02 0.000000000000D+00 -.237346033177D-04 0.514646367321D-06 0.000000000000D+00  6 1 3 25 -24 2 3 4 0.98014105D-01 0.13097531D+00 0.16425394D+05 0.16425394D+05 0.16425394D+05 0.12433530D+01  1  2  5 10  6  2       21 -.153999368014D-01 0.100000000000D+01
-.742127020622D-02 0.000000000000D+00 -.237346033177D-04 0.514646367321D-06 0.000000000000D+00  6 1 4 25 -24 2 4 4 0.98014105D-01 0.13097531D+00 0.16425394D+05 0.16425394D+05 0.16425394D+05 0.12433530D+01  1  2  5 10  6  2       21 -.120920375698D-01 0.100000000000D+01
  </mgrwgt>
  </event>
  <event>
  5     66 0.42980143E-03 0.29281394E+02 0.75467711E-02 0.11412196E+00
        1 -1    0    0  502    0 0.00000000E+00 0.00000000E+00 0.12906555E+03 0.12906594E+03 0.32000000E+00 0.0000E+00 0.9000E+01
       21 -1    0    0  501  502 0.00000000E+00 0.00000000E+00 -.13318776E+03 0.13318987E+03 0.75000000E+00 0.0000E+00 0.9000E+01
       25  1    1    2    0    0 -.30343134E+02 -.26604942E+02 0.54133115E+01 0.13146419E+03 0.12500000E+03 0.0000E+00 0.9000E+01
      -24  1    1    2    0    0 0.15741147E+02 0.51984318E+02 0.67644620E+01 0.97278605E+02 0.80419002E+02 0.0000E+00 0.9000E+01
        2  1    1    2  501    0 0.14601987E+02 -.25379376E+02 -.16299984E+02 0.33513022E+02 0.32000000E+00 0.0000E+00 0.9000E+01
#aMCatNLO 1  0  0  2  1 0.13352186D+03 0.00000000D+00  -5  6  0 0.00000000D+00 0.00000000D+00 0.00000000D+00 0.00000000D+00 0.00000000D+00
  <mgrwgt>
 0.7000088663D-01   12    2    0
 0.131111707839034D+03 0.000000000000000D+00 0.000000000000000D+00 0.131111707839034D+03
 0.131111707839034D+03 0.000000000000000D+00 0.000000000000000D+00 -.131111707839034D+03
 0.131565509211000D+03 -.303434731665265D+02 -.266043528742221D+02 0.748099313499412D+01
 0.973971782771141D+02 0.157408955993718D+02 0.519847545707247D+02 0.829481042125742D+01
 0.332607281899546D+02 0.146025775671547D+02 -.253804016965026D+02 -.157758035562515D+02
 0.000000000000000D+00 0.000000000000000D+00 -.000000000000000D+00 -.000000000000000D+00
 0.196483849241670D+03 0.000000000000000D+00 0.000000000000000D+00 0.196483849241670D+03
 0.237438103532457D+03 0.000000000000000D+00 0.000000000000000D+00 -.237438103532457D+03
 0.141106860085173D+03 -.555981943664594D+02 0.337493924093467D+02 0.748099313499412D+01
 0.130621260865187D+03 -.537801030167993D+01 0.102454726396156D+03 0.829481042125742D+01
 0.225323194952535D+02 0.943506511321030D+01 -.130310778640994D+02 -.157758035562515D+02
 0.139661512328514D+03 0.515411395549290D+02 -.123173040941403D+03 -.409542542907868D+02
0.676781067644D-05 0.000000000000D+00 0.000000000000D+00 0.955489746904D-06 0.000000000000D+00  6 1 21 25 -24 2 21 2 0.19856431D-01 0.20490617D-01 0.16599406D+05 0.16599406D+05 0.16599406D+05 0.12428373D+01  1  2  2  2  6  2       21 0.634633751710D-01 0.100000000000D+01
0.198992736309D-06 0.357147181460D-06 -.136622598630D-07 0.955489746904D-06 0.000000000000D+00  6 1 21 25 -24 2 21 4 0.19856431D-01 0.20490617D-01 0.16599406D+05 0.16599406D+05 0.16599406D+05 0.12428373D+01  1  2  3  2  6  2       21 0.288231051480D-02 0.100000000000D+01
0.662898670720D-06 0.000000000000D+00 0.000000000000D+00 0.955489746904D-06 0.000000000000D+00  6 1 21 25 -24 2 21 4 0.19856431D-01 0.20490617D-01 0.16599406D+05 0.16599406D+05 0.16599406D+05 0.12428373D+01  1  2 15  2  6  2       21 0.960175654802D-02 0.100000000000D+01
-.275568113314D-05 0.000000000000D+00 -.131702089090D-04 0.955489746904D-06 0.000000000000D+00  6 1 21 25 -24 2 21 4 0.19856431D-01 0.53778314D-01 0.16599406D+05 0.16599406D+05 0.16599406D+05 0.12428373D+01  1  2  5  2  6  2       21 -.603633545633D-02 0.100000000000D+01
0.434797651441D-07 0.000000000000D+00 -.429098838200D-05 0.955489746904D-06 0.000000000000D+00  6 1 -1 25 -24 2 -1 4 0.19856431D-01 0.53778314D-01 0.16599406D+05 0.16599406D+05 0.16599406D+05 0.12428373D+01  1  2  5  5  6  2       21 0.948163878663D-05 0.100000000000D+01
0.434797651441D-07 0.000000000000D+00 -.429098838200D-05 0.955489746904D-06 0.000000000000D+00  6 1 1 25 -24 2 1 4 0.19856431D-01 0.53778314D-01 0.16599406D+05 0.16599406D+05 0.16599406D+05 0.12428373D+01  1  2  5  6  6  2       21 0.225522312915D-04 0.100000000000D+01
0.434797651441D-07 0.000000000000D+00 -.429098838200D-05 0.955489746904D-06 0.000000000000D+00  6 1 -2 25 -24 2 -2 4 0.19856431D-01 0.53778314D-01 0.16599406D+05 0.16599406D+05 0.16599406D+05 0.12428373D+01  1  2  5  7  6  2       21 0.766818451238D-05 0.100000000000D+01
0.434797651441D-07 0.000000000000D+00 -.429098838200D-05 0.955489746904D-06 0.000000000000D+00  6 1 2 25 -24 2 2 4 0.19856431D-01 0.53778314D-01 0.16599406D+05 0.16599406D+05 0.16599406D+05 0.12428373D+01  1  2  5  8  6  2       21 0.327449490379D-04 0.100000000000D+01
0.434797651441D-07 0.000000000000D+00 -.429098838200D-05 0.955489746904D-06 0.000000000000D+00  6 1 -3 25 -24 2 -3 4 0.19856431D-01 0.53778314D-01 0.16599406D+05 0.16599406D+05 0.16599406D+05 0.12428373D+01  1  2  5  9  6  2       21 0.476836976347D-05 0.100000000000D+01
0.434797651441D-07 0.000000000000D+00 -.429098838200D-05 0.955489746904D-06 0.000000000000D+00  6 1 -4 25 -24 2 -4 4 0.19856431D-01 0.53778314D-01 0.16599406D+05 0.16599406D+05 0.16599406D+05 0.12428373D+01  1  2  5  9  6  2       21 0.389685460114D-05 0.100000000000D+01
0.434797651441D-07 0.000000000000D+00 -.429098838200D-05 0.955489746904D-06 0.000000000000D+00  6 1 3 25 -24 2 3 4 0.19856431D-01 0.53778314D-01 0.16599406D+05 0.16599406D+05 0.16599406D+05 0.12428373D+01  1  2  5 10  6  2       21 0.477077054342D-05 0.100000000000D+01
0.434797651441D-07 0.000000000000D+00 -.429098838200D-05 0.955489746904D-06 0.000000000000D+00  6 1 4 25 -24 2 4 4 0.19856431D-01 0.53778314D-01 0.16599406D+05 0.16599406D+05 0.16599406D+05 0.12428373D+01  1  2  5 10  6  2       21 0.389685460114D-05 0.100000000000D+01
  </mgrwgt>
  </event>
  <event>
  5     66 0.42980143E-03 0.12637603E+03 0.75467711E-02 0.11500253E+00
        1 -1    0    0  502    0 0.00000000E+00 0.00000000E+00 0.10085208E+03 0.10085258E+03 0.32000000E+00 0.0000E+00 0.9000E+01
       21 -1    0    0  501  502 -.00000000E+00 -.00000000E+00 -.85811757E+03 0.85811790E+03 0.75000000E+00 0.0000E+00 0.9000E+01
       25  1    1    2    0    0 0.12272612E+03 -.59117366E+02 -.24738925E+03 0.30884139E+03 0.12500000E+03 0.0000E+00 0.9000E+01
      -24  1    1    2    0    0 -.27167328E+02 -.23583260E+02 0.31985171E+02 0.93725669E+02 0.80419002E+02 0.0000E+00 0.9000E+01
        2  1    1    2  501    0 -.95558791E+02 0.82700626E+02 -.54186141E+03 0.55640342E+03 0.32000000E+00 0.0000E+00 0.9000E+01
#aMCatNLO 1  0  0  5  1 0.34495966D+00 0.00000000D+00  -5  6  0 0.00000000D+00 0.00000000D+00 0.00000000D+00 0.00000000D+00 0.00000000D+00
  <mgrwgt>
 0.1616515231D-01    7    2    0
 0.294182494044344D+03 0.000000000000000D+00 0.000000000000000D+00 0.294182494044344D+03
 0.294182494044344D+03 -.000000000000000D+00 -.000000000000000D+00 -.294182494044344D+03
 0.184970987239600D+03 0.122726153971222D+03 -.591173959242004D+02 -.571758261553937D+01
 0.193929705345157D+03 -.271672912258811D+02 -.235832919010612D+02 0.172763657322501D+03
 0.209464295503931D+03 -.955588627453413D+02 0.827006878252616D+02 -.167046074706961D+03
 0.000000000000000D+00 0.000000000000000D+00 0.000000000000000D+00 -.000000000000000D+00
 0.294182494044344D+03 0.000000000000000D+00 0.000000000000000D+00 0.294182494044344D+03
 0.294182494044344D+03 -.000000000000000D+00 -.000000000000000D+00 -.294182494044344D+03
 0.184962112895035D+03 0.122716137141680D+03 -.591087269355876D+02 -.573509299613629D+01
 0.193913717493114D+03 -.271777930205416D+02 -.235742032030915D+02 0.172745299176275D+03
 0.208598946300865D+03 -.953756246567344D+02 0.825346705157769D+02 -.166147641518082D+03
 0.890211399673182D+00 -.162719464403832D+00 0.148259622902230D+00 -.862564662056766D+00
0.771830517656D-05 0.000000000000D+00 0.000000000000D+00 0.263006875159D-06 0.000000000000D+00  6 1 21 25 -24 2 21 2 0.15515768D-01 0.13201815D+00 0.39871646D+05 0.39871646D+05 0.39871646D+05 0.12021420D+01  1  2  2  3  6  5        2 0.176381936949D-02 0.100000000000D+01
-.241456252936D-06 0.407306154272D-06 -.155810344092D-07 0.263006875159D-06 0.000000000000D+00  6 1 21 25 -24 2 21 4 0.15515768D-01 0.13201815D+00 0.39871646D+05 0.39871646D+05 0.39871646D+05 0.12021420D+01  1  2  3  3  6  5        2 -.797410926732D-04 0.100000000000D+01
0.807752387169D-06 0.000000000000D+00 0.000000000000D+00 0.263006875159D-06 0.000000000000D+00  6 1 21 25 -24 2 21 4 0.15515768D-01 0.13201815D+00 0.39871646D+05 0.39871646D+05 0.39871646D+05 0.12021420D+01  1  2 15  3  6  5        2 0.266760778315D-03 0.100000000000D+01
-.131433248281D-01 0.000000000000D+00 0.000000000000D+00 0.263006875159D-06 0.000000000000D+00  6 1 21 25 -24 2 21 4 0.15515768D-01 0.13201815D+00 0.39871646D+05 0.39871646D+05 0.39871646D+05 0.12021420D+01  1  2  4  3  6  5        2 -.434059201371D+01 0.100000000000D+01
-.444152558709D-02 0.000000000000D+00 0.000000000000D+00 0.263006875159D-06 0.000000000000D+00  6 1 21 25 -24 2 21 4 0.15515768D-01 0.13201815D+00 0.39871646D+05 0.39871646D+05 0.39871646D+05 0.12021420D+01  1  2  5  3  6  5        2 -.146681686287D+01 0.100000000000D+01
0.446044193053D-02 0.000000000000D+00 -.000000000000D+00 0.263006875159D-06 0.000000000000D+00  6 1 21 25 -24 2 21 4 0.15515768D-01 0.13201815D+00 0.39871646D+05 0.39871646D+05 0.39871646D+05 0.12021420D+01  1  2  6  3  6  5        2 0.147306399823D+01 0.100000000000D+01
0.131669955845D-01 0.000000000000D+00 0.000000000000D+00 0.263006875159D-06 0.164428115536D-03  6 1 21 25 -24 2 21 4 0.15515768D-01 0.13201815D+00 0.39864522D+05 0.39864522D+05 0.39864522D+05 0.12021499D+01  1  2 11  3  6  5        2 0.434855919161D+01 0.100000000000D+01
  </mgrwgt>
  </event>
  <event>
  6     66 0.42980143E-03 0.78589678E+02 0.75467711E-02 0.11768809E+00
        3 -1    0    0  502    0 0.00000000E+00 0.00000000E+00 0.21860023E+03 0.21860080E+03 0.50000000E+00 0.0000E+00 0.9000E+01
        2 -1    0    0  501    0 0.00000000E+00 0.00000000E+00 -.42666449E+03 0.42666461E+03 0.32000000E+00 0.0000E+00 0.9000E+01
       25  1    1    2    0    0 -.19236831E+02 -.94646484E+02 0.11353386E+02 0.15837270E+03 0.12500000E+03 0.0000E+00 0.9000E+01
      -24  1    1    2    0    0 -.43405305E+01 0.22229027E+02 0.98212955E+02 0.12894173E+03 0.80419002E+02 0.0000E+00 0.9000E+01
        4  1    1    2  501    0 -.13537287E+02 -.49903275E+01 0.11053394E+02 0.18241204E+02 0.15500000E+01 0.0000E+00 0.9000E+01
        2  1    1    2  502    0 0.37114648E+02 0.77407784E+02 -.32868400E+03 0.33970978E+03 0.32000000E+00 0.0000E+00 0.9000E+01
#aMCatNLO 2  0  0  2  5 0.11352480D+02 0.00000000D+00  -5  6  0 0.00000000D+00 0.00000000D+00 0.00000000D+00 0.00000000D+00 0.00000000D+00
  <mgrwgt>
 0.1572911708D-02    1    2    0
 0.133646608587502D+03 0.000000000000000D+00 0.000000000000000D+00 0.133646608587502D+03
 0.133646608587502D+03 0.000000000000000D+00 0.000000000000000D+00 -.133646608587502D+03
 0.145845261147500D+03 0.203232309696417D+01 -.503847221619137D+02 -.557053824569844D+02
 0.108912949879760D+03 0.971875842271172D+01 0.514784302051242D+02 0.514813719269194D+02
 0.125350061477428D+02 -.117510815196759D+02 -.109370804321048D+01 0.422401053006490D+01
 0.000000000000000D+00 0.000000000000000D+00 0.000000000000000D+00 -.000000000000000D+00
 0.144001692262605D+03 0.000000000000000D+00 0.000000000000000D+00 0.144001692262605D+03
 0.647694584170655D+03 0.000000000000000D+00 0.000000000000000D+00 -.647694584170655D+03
 0.167491664027939D+03 -.191878924424925D+02 -.946424464380775D+02 -.557053824569844D+02
 0.981346138784600D+02 -.430318912594962D+01 0.222336995250994D+02 0.514813719269194D+02
 0.151140400284120D+02 -.136235666057853D+02 -.499903730332892D+01 0.422401053006490D+01
 0.510955958498450D+03 0.371146481742274D+02 0.774077842163070D+02 -.503692891908050D+03
0.182317963679D-04 0.000000000000D+00 0.000000000000D+00 0.780654031401D-06 0.271615144735D-08  6 3 2 25 -24 4 2 4 0.33630847D-01 0.65640722D-01 0.29217241D+05 0.29217241D+05 0.29217241D+05 0.12161053D+01  1  2  1 10  6  2       21 0.157291170825D-02 0.100000000000D+01
  </mgrwgt>
  </event>
  <event>
  5     66 -.42980143E-03 0.27126455E+02 0.75467711E-02 0.10850514E+00
        1 -1    0    0  502    0 0.00000000E+00 0.00000000E+00 0.10310308E+04 0.10310309E+04 0.32000000E+00 0.0000E+00 0.9000E+01
       21 -1    0    0  501  502 0.00000000E+00 0.00000000E+00 -.27001975E+02 0.27012389E+02 0.75000000E+00 0.0000E+00 0.9000E+01
       25  1    1    2    0    0 -.18731745E+02 -.28243667E+02 0.72512551E+03 0.73660070E+03 0.12500000E+03 0.0000E+00 0.9000E+01
      -24  1    1    2    0    0 -.82956575E+01 0.30558365E+02 0.28123354E+03 0.29421446E+03 0.80419002E+02 0.0000E+00 0.9000E+01
        2  1    1    2  501    0 0.27027403E+02 -.23146978E+01 -.23301807E+01 0.27228119E+02 0.32000000E+00 0.0000E+00 0.9000E+01
#aMCatNLO 1  0  0  2  5 0.13592543D+03 0.00000000D+00  -5  6  0 0.00000000D+00 0.00000000D+00 0.00000000D+00 0.00000000D+00 0.00000000D+00
  <mgrwgt>
 -.3180067859D+00   12    2    0
 0.166869422838559D+03 0.000000000000000D+00 0.000000000000000D+00 0.166869422838559D+03
 0.166869422838559D+03 0.000000000000000D+00 0.000000000000000D+00 -.166869422838559D+03
 0.153738533210194D+03 -.187318185050110D+02 -.282436606138485D+02 0.828368951871500D+02
 0.866697145164600D+02 -.829569871671849D+01 0.305583682213153D+02 0.646459391192428D+01
 0.933305979504634D+02 0.270275172217295D+02 -.231470760746679D+01 -.893014890990743D+02
 0.000000000000000D+00 -.000000000000000D+00 -.000000000000000D+00 -.000000000000000D+00
 0.221681043142710D+03 0.000000000000000D+00 0.000000000000000D+00 0.221681043142710D+03
 0.132355534798790D+04 0.000000000000000D+00 0.000000000000000D+00 -.132355534798790D+04
 0.168765897651813D+03 -.337038058813617D+01 0.773538463210881D+02 0.828368951871500D+02
 0.129563895520504D+03 0.200387815187285D+01 0.101359659460674D+03 0.646459391192428D+01
 0.117467474250943D+03 0.370681901218309D+02 0.667068274817170D+02 -.893014890990743D+02
 0.112943912370735D+04 -.357016876855676D+02 -.245420333263480D+03 -.110187430484519D+04
0.380898873289D-05 0.000000000000D+00 0.000000000000D+00 0.387328636101D-05 0.000000000000D+00  6 1 21 25 -24 2 21 2 0.15862093D+00 0.41549549D-02 0.14770467D+05 0.14770467D+05 0.14770467D+05 0.12485867D+01  1  2  2  2  6  2       21 0.373036746507D-01 0.100000000000D+01
0.520352960505D-06 0.201005857759D-06 -.768925083341D-08 0.387328636101D-05 0.000000000000D+00  6 1 21 25 -24 2 21 4 0.15862093D+00 0.41549549D-02 0.14770467D+05 0.14770467D+05 0.14770467D+05 0.12485867D+01  1  2  3  2  6  2       21 0.794469782980D-02 0.100000000000D+01
0.364063303333D-06 0.000000000000D+00 0.000000000000D+00 0.387328636101D-05 0.000000000000D+00  6 1 21 25 -24 2 21 4 0.15862093D+00 0.41549549D-02 0.14770467D+05 0.14770467D+05 0.14770467D+05 0.12485867D+01  1  2 15  2  6  2       21 0.555848271353D-02 0.100000000000D+01
-.118551298941D-02 0.000000000000D+00 -.113762208978D-03 0.387328636101D-05 0.000000000000D+00  6 1 21 25 -24 2 21 4 0.15862093D+00 0.42858717D-01 0.14770467D+05 0.14770467D+05 0.14770467D+05 0.12485867D+01  1  2  5  2  6  2       21 -.270627706589D+00 0.100000000000D+01
-.523661463600D-03 0.000000000000D+00 -.497824849159D-04 0.387328636101D-05 0.000000000000D+00  6 1 -1 25 -24 2 -1 4 0.15862093D+00 0.42858717D-01 0.14770467D+05 0.14770467D+05 0.14770467D+05 0.12485867D+01  1  2  5  5  6  2       21 -.112368150788D-01 0.100000000000D+01
-.523661463600D-03 0.000000000000D+00 -.497824849159D-04 0.387328636101D-05 0.000000000000D+00  6 1 1 25 -24 2 1 4 0.15862093D+00 0.42858717D-01 0.14770467D+05 0.14770467D+05 0.14770467D+05 0.12485867D+01  1  2  5  6  6  2       21 -.234743268054D-01 0.100000000000D+01
-.523661463600D-03 0.000000000000D+00 -.497824849159D-04 0.387328636101D-05 0.000000000000D+00  6 1 -2 25 -24 2 -2 4 0.15862093D+00 0.42858717D-01 0.14770467D+05 0.14770467D+05 0.14770467D+05 0.12485867D+01  1  2  5  7  6  2       21 -.940016058883D-02 0.100000000000D+01
-.523661463600D-03 0.000000000000D+00 -.497824849159D-04 0.387328636101D-05 0.000000000000D+00  6 1 2 25 -24 2 2 4 0.15862093D+00 0.42858717D-01 0.14770467D+05 0.14770467D+05 0.14770467D+05 0.12485867D+01  1  2  5  8  6  2       21 -.327089235509D-01 0.100000000000D+01
-.523661463600D-03 0.000000000000D+00 -.497824849159D-04 0.387328636101D-05 0.000000000000D+00  6 1 -3 25 -24 2 -3 4 0.15862093D+00 0.42858717D-01 0.14770467D+05 0.14770467D+05 0.14770467D+05 0.12485867D+01  1  2  5  9  6  2       21 -.585720205325D-02 0.100000000000D+01
-.523661463600D-03 0.000000000000D+00 -.497824849159D-04 0.387328636101D-05 0.000000000000D+00  6 1 -4 25 -24 2 -4 4 0.15862093D+00 0.42858717D-01 0.14770467D+05 0.14770467D+05 0.14770467D+05 0.12485867D+01  1  2  5  9  6  2       21 -.482493293640D-02 0.100000000000D+01
-.523661463600D-03 0.000000000000D+00 -.497824849159D-04 0.387328636101D-05 0.000000000000D+00  6 1 3 25 -24 2 3 4 0.15862093D+00 0.42858717D-01 0.14770467D+05 0.14770467D+05 0.14770467D+05 0.12485867D+01  1  2  5 10  6  2       21 -.585864055222D-02 0.100000000000D+01
-.523661463600D-03 0.000000000000D+00 -.497824849159D-04 0.387328636101D-05 0.000000000000D+00  6 1 4 25 -24 2 4 4 0.15862093D+00 0.42858717D-01 0.14770467D+05 0.14770467D+05 0.14770467D+05 0.12485867D+01  1  2  5 10  6  2       21 -.482493293640D-02 0.100000000000D+01
  </mgrwgt>
  </event>
  <event>
  6     66 -.42980143E-03 0.18428102E+02 0.75467711E-02 0.12371061E+00
        1 -1    0    0  502    0 0.00000000E+00 0.00000000E+00 0.78827666E+03 0.78827673E+03 0.32000000E+00 0.0000E+00 0.9000E+01
       21 -1    0    0  501  502 0.00000000E+00 0.00000000E+00 -.14094561E+03 0.14094761E+03 0.75000000E+00 0.0000E+00 0.9000E+01
       25  1    1    2    0    0 0.22227286E+02 0.25850261E+02 0.41425935E+03 0.43404850E+03 0.12500000E+03 0.0000E+00 0.9000E+01
      -24  1    1    2    0    0 0.58804656E+01 -.20499275E+02 0.35082292E+03 0.36055338E+03 0.80419002E+02 0.0000E+00 0.9000E+01
        2  1    1    2  503    0 -.23431589E+02 0.43759790E+01 -.12100047E+03 0.12332642E+03 0.32000000E+00 0.0000E+00 0.9000E+01
       21  1    1    2  501  503 -.46761622E+01 -.97269652E+01 0.32492543E+01 0.11296039E+02 0.75000000E+00 0.0000E+00 0.9000E+01
#aMCatNLO 2  0  0  5  1 0.10440048D+02 0.00000000D+00  -5  6  0 0.00000000D+00 0.00000000D+00 0.00000000D+00 0.00000000D+00 0.00000000D+00
  <mgrwgt>
 -.9301564805D+00    2    2    0
 0.333324305506155D+03 0.000000000000000D+00 0.000000000000000D+00 0.333324305506155D+03
 0.333324305506155D+03 -.000000000000000D+00 -.000000000000000D+00 -.333324305506155D+03
 0.204128074704543D+03 0.223944705584266D+02 0.258820885320252D+02 0.157708199102684D+03
 0.163114082806261D+03 0.601401514149793D+01 -.204738502904195D+02 0.140298400317041D+03
 0.299406453501505D+03 -.284084856999246D+02 -.540823824160565D+01 -.298006599419725D+03
 0.000000000000000D+00 0.000000000000000D+00 -.000000000000000D+00 0.000000000000000D+00
 0.333324305506155D+03 0.000000000000000D+00 0.000000000000000D+00 0.333324305506155D+03
 0.333324305506155D+03 -.000000000000000D+00 -.000000000000000D+00 -.333324305506155D+03
 0.202751574278145D+03 0.222270245458038D+02 0.258502111578336D+02 0.155951681091298D+03
 0.161907106144742D+03 0.588025691042431D+01 -.204993143854812D+02 0.138895269012976D+03
 0.289420363108177D+03 -.234255480081103D+02 0.439546937175994D+01 -.288437289772301D+03
 0.125695674812455D+02 -.468173344811791D+01 -.974636614411236D+01 -.640966033197231D+01
-.921028986347D-03 0.000000000000D+00 0.000000000000D+00 0.414798803977D-04 0.000000000000D+00  6 1 21 25 -24 2 21 4 0.12127349D+00 0.21684098D-01 0.14607326D+05 0.14607326D+05 0.14607326D+05 0.12491380D+01  1  2  8  3  6  5        2 -.120424233905D+01 0.100000000000D+01
0.211450485394D-03 0.000000000000D+00 0.000000000000D+00 0.414798803977D-04 0.356296728947D-05  6 1 21 25 -24 2 21 4 0.12127349D+00 0.21684098D-01 0.15303078D+05 0.15303078D+05 0.15303078D+05 0.12468334D+01  1  2  1  3  6  5        2 0.274085858575D+00 0.100000000000D+01
  </mgrwgt>
  </event>
  <event>
  5     66 0.42980143E-03 0.21865642E+02 0.75467711E-02 0.12491336E+00
        1 -1    0    0  502    0 0.00000000E+00 0.00000000E+00 0.17407806E+04 0.17407807E+04 0.32000000E+00 0.0000E+00 0.9000E+01
       21 -1    0    0  501  502 0.00000000E+00 0.00000000E+00 -.91011592E+01 0.91320096E+01 0.75000000E+00 0.0000E+00 0.9000E+01
       25  1    1    2    0    0 0.55061293E+01 0.29930655E+02 0.10616348E+04 0.10694015E+04 0.12500000E+03 0.0000E+00 0.9000E+01
      -24  1    1    2    0    0 -.71277589E+01 -.81258353E+01 0.62701808E+03 0.63224657E+03 0.80419002E+02 0.0000E+00 0.9000E+01
        2  1    1    2  501    0 0.16216296E+01 -.21804820E+02 0.43026586E+02 0.48264577E+02 0.32000000E+00 0.0000E+00 0.9000E+01
#aMCatNLO 1  0  0  1  2 0.11309440D+01 0.00000000D+00  -5  6  0 0.00000000D+00 0.00000000D+00 0.00000000D+00 0.00000000D+00 0.00000000D+00
  <mgrwgt>
 0.7691260905D-01    6    2    0
 0.125976743068746D+03 0.000000000000000D+00 0.000000000000000D+00 0.125976743068746D+03
 0.125976743068746D+03 0.000000000000000D+00 0.000000000000000D+00 -.125976743068746D+03
 0.130770665712570D+03 0.550610164171125D+01 0.299310265545820D+02 0.234474626560920D+02
 0.816894710711004D+02 -.712777614487054D+01 -.812560321144937D+01 0.944050365098737D+01
 0.394933493538218D+02 0.162167450315929D+01 -.218054233431327D+02 -.328879663070794D+02
 0.000000000000000D+00 0.000000000000000D+00 0.000000000000000D+00 -.000000000000000D+00
 0.126265327972576D+03 0.000000000000000D+00 0.000000000000000D+00 0.126265327972576D+03
 0.127090928975902D+03 0.000000000000000D+00 0.000000000000000D+00 -.127090928975902D+03
 0.130681911290928D+03 0.500221657165561D+01 0.296303267449305D+02 0.234474626560920D+02
 0.817364590140638D+02 -.744273913805905D+01 -.831356137438642D+01 0.944050365098737D+01
 0.395376540546607D+02 0.146936182318704D+01 -.218963178676918D+02 -.328879663070794D+02
 0.140023258882536D+01 0.971160743216403D+00 0.579552497147732D+00 -.825601003326528D+00
0.393256543605D-05 0.000000000000D+00 0.000000000000D+00 0.264939621047D-05 0.000000000000D+00  6 1 21 25 -24 2 21 2 0.26781478D+00 0.14025537D-02 0.13416494D+05 0.13416494D+05 0.13416494D+05 0.12533843D+01  1  2  2  1  6  1        1 0.767005809035D-01 0.100000000000D+01
0.338388986972D-06 0.207527179548D-06 -.793871659306D-08 0.264939621047D-05 0.000000000000D+00  6 1 21 25 -24 2 21 4 0.26781478D+00 0.14025537D-02 0.13416494D+05 0.13416494D+05 0.13416494D+05 0.12533843D+01  1  2  3  1  6  1        1 0.103682960599D-01 0.100000000000D+01
0.399333380678D-06 0.000000000000D+00 0.000000000000D+00 0.264939621047D-05 0.000000000000D+00  6 1 21 25 -24 2 21 4 0.26781478D+00 0.14025537D-02 0.13416494D+05 0.13416494D+05 0.13416494D+05 0.12533843D+01  1  2 15  1  6  1        1 0.122356426388D-01 0.100000000000D+01
-.215820245242D-04 0.000000000000D+00 0.000000000000D+00 0.264939621047D-05 0.000000000000D+00  6 1 21 25 -24 2 21 4 0.26781478D+00 0.14025537D-02 0.13416494D+05 0.13416494D+05 0.13416494D+05 0.12533843D+01  1  2  4  1  6  1        1 -.661276898641D+00 0.100000000000D+01
0.212669775494D-04 0.000000000000D+00 0.000000000000D+00 0.264939621047D-05 0.218104993294D-04  6 1 21 25 -24 2 21 4 0.26842828D+00 0.14149584D-02 0.13552119D+05 0.13552119D+05 0.13552119D+05 0.12528797D+01  1  2 11  1  6  1        1 0.637821200283D+00 0.100000000000D+01
0.362160491626D-07 0.000000000000D+00 0.000000000000D+00 0.264726356552D-05 0.117110010205D-07  6 21 21 25 -24 2 -1 4 0.26842828D+00 0.14149584D-02 0.13552119D+05 0.13552119D+05 0.13552119D+05 0.12528797D+01  1  2 11  4  6  1        1 0.106378780441D-02 0.100000000000D+01
  </mgrwgt>
  </event>
  <event>
  6     66 0.42980143E-03 0.23849574E+02 0.75467711E-02 0.11440583E+00
        1 -1    0    0  502    0 0.00000000E+00 0.00000000E+00 0.16401133E+03 0.16401164E+03 0.32000000E+00 0.0000E+00 0.9000E+01
       21 -1    0    0  501  502 -.00000000E+00 -.00000000E+00 -.27061524E+03 0.27061628E+03 0.75000000E+00 0.0000E+00 0.9000E+01
       25  1    1    2    0    0 -.97616859E+02 -.13488039E+03 -.44085523E+02 0.21281518E+03 0.12500000E+03 0.0000E+00 0.9000E+01
      -24  1    1    2    0    0 0.77419686E+02 0.12202175E+03 -.33166360E+02 0.16867228E+03 0.80419002E+02 0.0000E+00 0.9000E+01
        2  1    1    2  503    0 -.81955974E+01 0.83036573E+01 0.50306953E+00 0.11682210E+02 0.32000000E+00 0.0000E+00 0.9000E+01
       21  1    1    2  501  503 0.28392770E+02 0.45549786E+01 -.29855093E+02 0.41458248E+02 0.75000000E+00 0.0000E+00 0.9000E+01
#aMCatNLO 2  0  0  5  1 0.10631076D+02 0.00000000D+00  -5  6  0 0.00000000D+00 0.00000000D+00 0.00000000D+00 0.00000000D+00 0.00000000D+00
  <mgrwgt>
 0.1028723488D+00    1    2    0
 0.210675721793196D+03 0.000000000000000D+00 0.000000000000000D+00 0.210675721793196D+03
 0.210675721793196D+03 -.000000000000000D+00 -.000000000000000D+00 -.210675721793196D+03
 0.214348072301536D+03 -.104027524007881D+03 -.138961769491839D+03 0.137111986299997D+02
 0.161263079786166D+03 0.724627235594047D+02 0.118865873412043D+03 0.125945535885361D+02
 0.457402914986898D+02 0.315648004484763D+02 0.200958960797965D+02 -.263057522185358D+02
 0.000000000000000D+00 0.000000000000000D+00 -.000000000000000D+00 0.000000000000000D+00
 0.210675721793196D+03 0.000000000000000D+00 0.000000000000000D+00 0.210675721793196D+03
 0.210675721793196D+03 -.000000000000000D+00 -.000000000000000D+00 -.210675721793196D+03
 0.208709496174734D+03 -.979910939958458D+02 -.135118644602998D+03 0.868050526508105D+01
 0.165330648082526D+03 0.771227517152646D+02 0.121832704826103D+03 0.871093816066262D+01
 0.113857990364002D+02 -.783592890744741D+01 0.751593900073979D+01 0.342714148991242D+01
 0.359255002927324D+02 0.287042711880286D+02 0.577000077615579D+01 -.208185849156561D+02
0.439804938940D-04 0.000000000000D+00 0.000000000000D+00 0.353302310857D-06 0.786189518173D-08  6 1 21 25 -24 2 21 4 0.25232617D-01 0.41633218D-01 0.42800604D+05 0.42800604D+05 0.42800604D+05 0.11990271D+01  1  2  1  3  6  5        2 0.102872348757D+00 0.100000000000D+01
  </mgrwgt>
  </event>
  <event>
  5     66 0.42980143E-03 0.34508066E+02 0.75467711E-02 0.12171400E+00
        1 -1    0    0  502    0 0.00000000E+00 0.00000000E+00 0.36625850E+04 0.36625850E+04 0.32000000E+00 0.0000E+00 0.9000E+01
       21 -1    0    0  501  502 0.00000000E+00 0.00000000E+00 -.15111191E+02 0.15129792E+02 0.75000000E+00 0.0000E+00 0.9000E+01
       25  1    1    2    0    0 0.53756373E+02 0.15940034E+02 0.14938240E+04 0.15000929E+04 0.12500000E+03 0.0000E+00 0.9000E+01
      -24  1    1    2    0    0 -.38616696E+02 -.46949616E+02 0.21368744E+04 0.21392510E+04 0.80419002E+02 0.0000E+00 0.9000E+01
        2  1    1    2  501    0 -.15139677E+02 0.31009581E+02 0.16775473E+02 0.38370859E+02 0.32000000E+00 0.0000E+00 0.9000E+01
#aMCatNLO 1  0  0  2  1 0.26730917D+01 0.00000000D+00  -5  6  0 0.00000000D+00 0.00000000D+00 0.00000000D+00 0.00000000D+00 0.00000000D+00
  <mgrwgt>
 0.1766084743D+00   32    2    0
 0.235330088934463D+03 0.000000000000000D+00 0.000000000000000D+00 0.235330088934463D+03
 0.235330088934463D+03 0.000000000000000D+00 0.000000000000000D+00 -.235330088934463D+03
 0.144967211398221D+03 0.537563809041676D+02 0.159400174789927D+02 0.473989423450769D+02
 0.155869960182460D+03 -.386166870546669D+02 -.469496338675891D+02 0.118881082992764D+03
 0.169823006288245D+03 -.151396938495007D+02 0.310096163885964D+02 -.166280025337841D+03
 0.000000000000000D+00 -.000000000000000D+00 0.000000000000000D+00 -.000000000000000D+00
 0.235594352206689D+03 0.000000000000000D+00 0.000000000000000D+00 0.235594352206689D+03
 0.242192138215060D+03 0.000000000000000D+00 0.000000000000000D+00 -.242192138215060D+03
 0.144908012607127D+03 0.538334800199291D+02 0.151204765552944D+02 0.473989423450769D+02
 0.156117407846798D+03 -.385337066954922D+02 -.478316906789438D+02 0.118881082992764D+03
 0.169642348201403D+03 -.150494050752441D+02 0.300498732745147D+02 -.166280025337841D+03
 0.711872176642214D+01 -.250368249192761D+00 0.266134084913470D+01 -.659778600837095D+01
0.298982164942D-04 0.000000000000D+00 0.000000000000D+00 0.489148807482D-05 0.000000000000D+00  6 1 21 25 -24 2 21 2 0.56347604D+00 0.23262305D-02 0.18539251D+05 0.18539251D+05 0.18539251D+05 0.12374688D+01  1  2  2  2  6  2       21 0.126395490954D-01 0.100000000000D+01
0.509595048022D-05 0.157777223124D-05 -.603558850437D-07 0.489148807482D-05 0.000000000000D+00  6 1 21 25 -24 2 21 4 0.56347604D+00 0.23262305D-02 0.18539251D+05 0.18539251D+05 0.18539251D+05 0.12374688D+01  1  2  3  2  6  2       21 0.329898238009D-02 0.100000000000D+01
0.286019263414D-05 0.000000000000D+00 0.000000000000D+00 0.489148807482D-05 0.000000000000D+00  6 1 21 25 -24 2 21 4 0.56347604D+00 0.23262305D-02 0.18539251D+05 0.18539251D+05 0.18539251D+05 0.12374688D+01  1  2 15  2  6  2       21 0.185161240093D-02 0.100000000000D+01
0.235418695961D-05 0.000000000000D+00 0.000000000000D+00 0.488565610062D-05 0.000000000000D+00  6 1 21 25 -24 2 21 4 0.56347604D+00 0.23953472D-02 0.18825229D+05 0.18825229D+05 0.18825229D+05 0.12367309D+01  1  2 12  2  6  2       21 0.144853321819D-02 0.100000000000D+01
-.286463139377D-03 0.000000000000D+00 0.000000000000D+00 0.489148807482D-05 0.000000000000D+00  6 1 21 25 -24 2 21 4 0.56347604D+00 0.23262305D-02 0.18539251D+05 0.18539251D+05 0.18539251D+05 0.12374688D+01  1  2  4  2  6  2       21 -.185448593549D+00 0.100000000000D+01
-.565178604573D-02 0.000000000000D+00 -.305597651823D-03 0.489148807482D-05 0.000000000000D+00  6 1 21 25 -24 2 21 4 0.56347604D+00 0.23979212D-02 0.18539251D+05 0.18539251D+05 0.18539251D+05 0.12374688D+01  1  2  5  2  6  2       21 -.348262005784D+01 0.100000000000D+01
0.565247044375D-02 0.000000000000D+00 0.305035287927D-03 0.489148807482D-05 0.000000000000D+00  6 1 21 25 -24 2 21 4 0.56347604D+00 0.23262305D-02 0.18539251D+05 0.18539251D+05 0.18539251D+05 0.12374688D+01  1  2  6  2  6  2       21 0.365925855644D+01 0.100000000000D+01
0.276032796738D-03 0.000000000000D+00 0.000000000000D+00 0.489148807482D-05 0.933181728504D-05  6 1 21 25 -24 2 21 4 0.56410880D+00 0.23940617D-02 0.18825229D+05 0.18825229D+05 0.18825229D+05 0.12367309D+01  1  2 11  2  6  2       21 0.168761100903D+00 0.100000000000D+01
0.107716558940D-06 0.000000000000D+00 0.000000000000D+00 0.488565610062D-05 0.000000000000D+00  6 1 -1 25 -24 2 -1 4 0.56347604D+00 0.23953472D-02 0.18825229D+05 0.18825229D+05 0.18825229D+05 0.12367309D+01  1  2 12  5  6  2       21 0.329441718745D-05 0.100000000000D+01
-.370526321889D-04 0.000000000000D+00 -.215534834768D-05 0.489148807482D-05 0.000000000000D+00  6 1 -1 25 -24 2 -1 4 0.56347604D+00 0.23979212D-02 0.18539251D+05 0.18539251D+05 0.18539251D+05 0.12374688D+01  1  2  5  5  6  2       21 -.113483803005D-02 0.100000000000D+01
0.249415243151D-04 0.000000000000D+00 0.000000000000D+00 0.489148807482D-05 0.747905365372D-07  6 1 -1 25 -24 2 -1 4 0.56410880D+00 0.23940617D-02 0.18825229D+05 0.18825229D+05 0.18825229D+05 0.12367309D+01  1  2 11  5  6  2       21 0.757882046040D-03 0.100000000000D+01
0.107716558940D-06 0.000000000000D+00 0.000000000000D+00 0.488565610062D-05 0.000000000000D+00  6 1 1 25 -24 2 1 4 0.56347604D+00 0.23953472D-02 0.18825229D+05 0.18825229D+05 0.18825229D+05 0.12367309D+01  1  2 12  6  6  2       21 0.349560393917D-05 0.100000000000D+01
-.370526321889D-04 0.000000000000D+00 -.215534834768D-05 0.489148807482D-05 0.000000000000D+00  6 1 1 25 -24 2 1 4 0.56347604D+00 0.23979212D-02 0.18539251D+05 0.18539251D+05 0.18539251D+05 0.12374688D+01  1  2  5  6  6  2       21 -.120423845635D-02 0.100000000000D+01
0.244892528060D-04 0.000000000000D+00 0.000000000000D+00 0.489148807482D-05 0.740008430489D-07  6 1 1 25 -24 2 1 4 0.56410880D+00 0.23940617D-02 0.18825229D+05 0.18825229D+05 0.18825229D+05 0.12367309D+01  1  2 11  6  6  2       21 0.789558731489D-03 0.100000000000D+01
0.107716558940D-06 0.000000000000D+00 0.000000000000D+00 0.488565610062D-05 0.000000000000D+00  6 1 -2 25 -24 2 -2 4 0.56347604D+00 0.23953472D-02 0.18825229D+05 0.18825229D+05 0.18825229D+05 0.12367309D+01  1  2 12  7  6  2       21 0.325829184744D-05 0.100000000000D+01
-.370526321889D-04 0.000000000000D+00 -.215534834768D-05 0.489148807482D-05 0.000000000000D+00  6 1 -2 25 -24 2 -2 4 0.56347604D+00 0.23979212D-02 0.18539251D+05 0.18539251D+05 0.18539251D+05 0.12374688D+01  1  2  5  7  6  2       21 -.112237599950D-02 0.100000000000D+01
0.247418420055D-04 0.000000000000D+00 0.000000000000D+00 0.489148807482D-05 0.831348478464D-06  6 1 -2 25 -24 2 -2 4 0.56410880D+00 0.23940617D-02 0.18825229D+05 0.18825229D+05 0.18825229D+05 0.12367309D+01  1  2 11  7  6  2       21 0.743574710062D-03 0.100000000000D+01
0.107716558940D-06 0.000000000000D+00 0.000000000000D+00 0.488565610062D-05 0.000000000000D+00  6 1 2 25 -24 2 2 4 0.56347604D+00 0.23953472D-02 0.18825229D+05 0.18825229D+05 0.18825229D+05 0.12367309D+01  1  2 12  8  6  2       21 0.363325917885D-05 0.100000000000D+01
-.370526321889D-04 0.000000000000D+00 -.215534834768D-05 0.489148807482D-05 0.000000000000D+00  6 1 2 25 -24 2 2 4 0.56347604D+00 0.23979212D-02 0.18539251D+05 0.18539251D+05 0.18539251D+05 0.12374688D+01  1  2  5  8  6  2       21 -.125172046443D-02 0.100000000000D+01
0.271327584877D-04 0.000000000000D+00 0.000000000000D+00 0.489148807482D-05 0.431614985999D-07  6 1 2 25 -24 2 2 4 0.56410880D+00 0.23940617D-02 0.18825229D+05 0.18825229D+05 0.18825229D+05 0.12367309D+01  1  2 11  8  6  2       21 0.909220030817D-03 0.100000000000D+01
0.107716558940D-06 0.000000000000D+00 0.000000000000D+00 0.488565610062D-05 0.000000000000D+00  6 1 -3 25 -24 2 -3 4 0.56347604D+00 0.23953472D-02 0.18825229D+05 0.18825229D+05 0.18825229D+05 0.12367309D+01  1  2 12  9  6  2       21 0.250757792650D-05 0.100000000000D+01
0.107716558940D-06 0.000000000000D+00 0.000000000000D+00 0.488565610062D-05 0.000000000000D+00  6 1 -4 25 -24 2 -4 4 0.56347604D+00 0.23953472D-02 0.18825229D+05 0.18825229D+05 0.18825229D+05 0.12367309D+01  1  2 12  9  6  2       21 0.227057022147D-05 0.100000000000D+01
-.370526321889D-04 0.000000000000D+00 -.215534834768D-05 0.489148807482D-05 0.000000000000D+00  6 1 -3 25 -24 2 -3 4 0.56347604D+00 0.23979212D-02 0.18539251D+05 0.18539251D+05 0.18539251D+05 0.12374688D+01  1  2  5  9  6  2       21 -.863437777438D-03 0.100000000000D+01
-.370526321889D-04 0.000000000000D+00 -.215534834768D-05 0.489148807482D-05 0.000000000000D+00  6 1 -4 25 -24 2 -4 4 0.56347604D+00 0.23979212D-02 0.18539251D+05 0.18539251D+05 0.18539251D+05 0.12374688D+01  1  2  5  9  6  2       21 -.781696232407D-03 0.100000000000D+01
0.249437972717D-04 0.000000000000D+00 0.000000000000D+00 0.489148807482D-05 0.747973523054D-07  6 1 -3 25 -24 2 -3 4 0.56410880D+00 0.23940617D-02 0.18825229D+05 0.18825229D+05 0.18825229D+05 0.12367309D+01  1  2 11  9  6  2       21 0.576947988827D-03 0.100000000000D+01
0.249437972717D-04 0.000000000000D+00 0.000000000000D+00 0.489148807482D-05 0.747973523054D-07  6 1 -4 25 -24 2 -4 4 0.56410880D+00 0.23940617D-02 0.18825229D+05 0.18825229D+05 0.18825229D+05 0.12367309D+01  1  2 11  9  6  2       21 0.522422174012D-03 0.100000000000D+01
0.107716558940D-06 0.000000000000D+00 0.000000000000D+00 0.488565610062D-05 0.000000000000D+00  6 1 3 25 -24 2 3 4 0.56347604D+00 0.23953472D-02 0.18825229D+05 0.18825229D+05 0.18825229D+05 0.12367309D+01  1  2 12 10  6  2       21 0.250741602232D-05 0.100000000000D+01
0.107716558940D-06 0.000000000000D+00 0.000000000000D+00 0.488565610062D-05 0.000000000000D+00  6 1 4 25 -24 2 4 4 0.56347604D+00 0.23953472D-02 0.18825229D+05 0.18825229D+05 0.18825229D+05 0.12367309D+01  1  2 12 10  6  2       21 0.227057022147D-05 0.100000000000D+01
-.370526321889D-04 0.000000000000D+00 -.215534834768D-05 0.489148807482D-05 0.000000000000D+00  6 1 3 25 -24 2 3 4 0.56347604D+00 0.23979212D-02 0.18539251D+05 0.18539251D+05 0.18539251D+05 0.12374688D+01  1  2  5 10  6  2       21 -.863381919229D-03 0.100000000000D+01
-.370526321889D-04 0.000000000000D+00 -.215534834768D-05 0.489148807482D-05 0.000000000000D+00  6 1 4 25 -24 2 4 4 0.56347604D+00 0.23979212D-02 0.18539251D+05 0.18539251D+05 0.18539251D+05 0.12374688D+01  1  2  5 10  6  2       21 -.781696232407D-03 0.100000000000D+01
0.249437972717D-04 0.000000000000D+00 0.000000000000D+00 0.489148807482D-05 0.747973523054D-07  6 1 3 25 -24 2 3 4 0.56410880D+00 0.23940617D-02 0.18825229D+05 0.18825229D+05 0.18825229D+05 0.12367309D+01  1  2 11 10  6  2       21 0.576910750538D-03 0.100000000000D+01
0.249437972717D-04 0.000000000000D+00 0.000000000000D+00 0.489148807482D-05 0.747973523054D-07  6 1 4 25 -24 2 4 4 0.56410880D+00 0.23940617D-02 0.18825229D+05 0.18825229D+05 0.18825229D+05 0.12367309D+01  1  2 11 10  6  2       21 0.522422174012D-03 0.100000000000D+01
  </mgrwgt>
  </event>
  <event>
  5     66 0.42980143E-03 0.25912871E+02 0.75467711E-02 0.11224467E+00
        3 -1    0    0  502    0 0.00000000E+00 0.00000000E+00 0.38323154E+02 0.38326415E+02 0.50000000E+00 0.0000E+00 0.9000E+01
       21 -1    0    0  501  502 0.00000000E+00 0.00000000E+00 -.48931455E+03 0.48931512E+03 0.75000000E+00 0.0000E+00 0.9000E+01
       25  1    1    2    0    0 -.12108599E+02 0.74841415E+01 -.14505355E+03 0.19201084E+03 0.12500000E+03 0.0000E+00 0.9000E+01
      -24  1    1    2    0    0 -.13761151E+02 -.88520299E+01 -.10620020E+03 0.13421411E+03 0.80419002E+02 0.0000E+00 0.9000E+01
        4  1    1    2  501    0 0.25869750E+02 0.13678885E+01 -.19973764E+03 0.20141659E+03 0.15500000E+01 0.0000E+00 0.9000E+01
#aMCatNLO 1  0  0  2  1 0.26730917D+01 0.00000000D+00  -5  6  0 0.00000000D+00 0.00000000D+00 0.00000000D+00 0.00000000D+00 0.00000000D+00
  <mgrwgt>
 0.4939246177D-01    3    2    0
 0.136941917889688D+03 0.000000000000000D+00 0.000000000000000D+00 0.136941917889688D+03
 0.136941917889688D+03 0.000000000000000D+00 0.000000000000000D+00 -.136941917889688D+03
 0.131062015302830D+03 -.121128538879178D+02 0.748391647100911D+01 0.367358356402035D+02
 0.836923690539378D+02 -.137638680302650D+02 -.885217359034426D+01 0.164131545737515D+02
 0.591294514226088D+02 0.258767219181828D+02 0.136825711933515D+01 -.531489902139549D+02
 0.000000000000000D+00 0.000000000000000D+00 0.000000000000000D+00 0.000000000000000D+00
 0.400777500372307D+03 0.000000000000000D+00 0.000000000000000D+00 0.400777500372307D+03
 0.196608164357414D+03 0.000000000000000D+00 0.000000000000000D+00 -.196608164357414D+03
 0.153049113434969D+03 -.285304796586189D+02 -.750701087883532D+02 0.367358356402035D+02
 0.107180291034363D+03 -.247936221870617D+02 -.643139447369206D+02 0.164131545737515D+02
 0.663576674966244D+02 0.186253320602348D+02 -.350944707963444D+02 -.531489902139549D+02
 0.270798592763764D+03 0.346987697854458D+02 0.174478524321618D+03 0.204169336014893D+03
0.181496230539D-04 0.000000000000D+00 0.000000000000D+00 0.290170931163D-05 0.000000000000D+00  6 3 21 25 -24 4 21 2 0.58961649D-02 0.75279457D-01 0.13664248D+05 0.13664248D+05 0.13664248D+05 0.12524668D+01  1  2  2  2  6  2       21 0.378422556082D-01 0.100000000000D+01
0.166212098432D-05 0.957781922126D-06 -.366388598076D-07 0.290170931163D-05 0.000000000000D+00  6 3 21 25 -24 4 21 4 0.58961649D-02 0.75279457D-01 0.13664248D+05 0.13664248D+05 0.13664248D+05 0.12524668D+01  1  2  3  2  6  2       21 0.543631349239D-02 0.100000000000D+01
0.186928684639D-05 0.000000000000D+00 0.000000000000D+00 0.290170931163D-05 0.000000000000D+00  6 3 21 25 -24 4 21 4 0.58961649D-02 0.75279457D-01 0.13664248D+05 0.13664248D+05 0.13664248D+05 0.12524668D+01  1  2 15  2  6  2       21 0.611389267089D-02 0.100000000000D+01
  </mgrwgt>
  </event>
  <event>
  5     66 0.42980143E-03 0.40983873E+02 0.75467711E-02 0.11523987E+00
        1 -1    0    0  502    0 0.00000000E+00 0.00000000E+00 0.71860816E+03 0.71860823E+03 0.32000000E+00 0.0000E+00 0.9000E+01
       21 -1    0    0  501  502 0.00000000E+00 0.00000000E+00 -.68508127E+02 0.68512232E+02 0.75000000E+00 0.0000E+00 0.9000E+01
       25  1    1    2    0    0 0.10862028E+03 0.71614452E+02 0.28451698E+03 0.33690044E+03 0.12500000E+03 0.0000E+00 0.9000E+01
      -24  1    1    2    0    0 -.14373400E+03 -.50479563E+02 0.37084183E+03 0.40889916E+03 0.80419002E+02 0.0000E+00 0.9000E+01
        2  1    1    2  501    0 0.35113714E+02 -.21134889E+02 -.52587722E+01 0.41320860E+02 0.32000000E+00 0.0000E+00 0.9000E+01
#aMCatNLO 1  0  0  5  2 0.25556669D+01 0.00000000D+00  -5  6  0 0.00000000D+00 0.00000000D+00 0.00000000D+00 0.00000000D+00 0.00000000D+00
  <mgrwgt>
 0.3053645111D-01    8    2    0
 0.221883173568331D+03 0.000000000000000D+00 0.000000000000000D+00 0.221883173568331D+03
 0.221883173568331D+03 -.000000000000000D+00 -.000000000000000D+00 -.221883173568331D+03
 0.180763418755899D+03 0.108620173146000D+03 0.716145187324514D+02 0.111100068754696D+02
 0.182007215740827D+03 -.143734110702979D+03 -.504794949690845D+02 0.587514819851153D+02
 0.809957126399364D+02 0.351139375569792D+02 -.211350237633669D+02 -.698614888605850D+02
 0.000000000000000D+00 0.000000000000000D+00 -.000000000000000D+00 0.000000000000000D+00
 0.221883173568331D+03 0.000000000000000D+00 0.000000000000000D+00 0.221883173568331D+03
 0.221883173568331D+03 -.000000000000000D+00 -.000000000000000D+00 -.221883173568331D+03
 0.180787278622352D+03 0.108718933521429D+03 0.715550750178811D+02 0.109135166112624D+02
 0.181881576239474D+03 -.143634711658886D+03 -.505393230973185D+02 0.585537210475850D+02
 0.744989871449100D+02 0.317822183985569D+02 -.171087242743208D+02 -.651711687250518D+02
 0.659850512992733D+01 0.313355973890007D+01 -.390702764624177D+01 -.429606893379569D+01
0.206673010030D-05 0.000000000000D+00 0.000000000000D+00 0.571974223414D-06 0.000000000000D+00  6 1 21 25 -24 2 21 2 0.11055542D+00 0.10540033D-01 0.38743931D+05 0.38743931D+05 0.38743931D+05 0.12034099D+01  1  2  2  3  6  5        2 0.668363404904D-02 0.100000000000D+01
0.170371282746D-06 0.109064343767D-06 -.417213262118D-08 0.571974223414D-06 0.000000000000D+00  6 1 21 25 -24 2 21 4 0.11055542D+00 0.10540033D-01 0.38743931D+05 0.38743931D+05 0.38743931D+05 0.12034099D+01  1  2  3  3  6  5        2 0.797907337983D-03 0.100000000000D+01
0.170712867841D-06 0.000000000000D+00 0.000000000000D+00 0.571974223414D-06 0.000000000000D+00  6 1 21 25 -24 2 21 4 0.11055542D+00 0.10540033D-01 0.38743931D+05 0.38743931D+05 0.38743931D+05 0.12034099D+01  1  2 15  3  6  5        2 0.799507098517D-03 0.100000000000D+01
0.401951319096D-07 0.000000000000D+00 0.000000000000D+00 0.571955070944D-06 0.000000000000D+00  6 1 21 25 -24 2 21 4 0.11055542D+00 0.10540033D-01 0.38761572D+05 0.38761572D+05 0.38761572D+05 0.12033898D+01  1  2 12  3  6  5        2 0.188233538616D-03 0.100000000000D+01
-.324538039008D-04 0.000000000000D+00 0.000000000000D+00 0.571974223414D-06 0.000000000000D+00  6 1 21 25 -24 2 21 4 0.11055542D+00 0.10540033D-01 0.38743931D+05 0.38743931D+05 0.38743931D+05 0.12034099D+01  1  2  4  3  6  5        2 -.151992330284D+00 0.100000000000D+01
-.492430953038D-04 0.000000000000D+00 0.000000000000D+00 0.571974223414D-06 0.000000000000D+00  6 1 21 25 -24 2 21 4 0.11055542D+00 0.10540033D-01 0.38743931D+05 0.38743931D+05 0.38743931D+05 0.12034099D+01  1  2  5  3  6  5        2 -.230622358738D+00 0.100000000000D+01
0.547867810737D-04 0.000000000000D+00 -.000000000000D+00 0.571974223414D-06 0.000000000000D+00  6 1 21 25 -24 2 21 4 0.11055542D+00 0.10540033D-01 0.38743931D+05 0.38743931D+05 0.38743931D+05 0.12034099D+01  1  2  6  3  6  5        2 0.256585346654D+00 0.100000000000D+01
0.316243261273D-04 0.000000000000D+00 0.000000000000D+00 0.571974223414D-06 0.368380099961D-06  6 1 21 25 -24 2 21 4 0.11055542D+00 0.10540033D-01 0.38761572D+05 0.38761572D+05 0.38761572D+05 0.12033898D+01  1  2 11  3  6  5        2 0.148096511455D+00 0.100000000000D+01
  </mgrwgt>
  </event>
  <event>
  5     66 0.42980143E-03 0.43065756E+02 0.75467711E-02 0.10081709E+00
        1 -1    0    0  502    0 0.00000000E+00 0.00000000E+00 0.73174260E+03 0.73174267E+03 0.32000000E+00 0.0000E+00 0.9000E+01
       21 -1    0    0  501  502 0.00000000E+00 0.00000000E+00 -.12562585E+03 0.12562809E+03 0.75000000E+00 0.0000E+00 0.9000E+01
       25  1    1    2    0    0 0.11141801E+03 -.16249890E+03 0.42430988E+03 0.48423521E+03 0.12500000E+03 0.0000E+00 0.9000E+01
      -24  1    1    2    0    0 -.11282230E+03 0.11945611E+03 0.23935399E+03 0.30125767E+03 0.80419002E+02 0.0000E+00 0.9000E+01
        2  1    1    2  501    0 0.14042858E+01 0.43042790E+02 -.57547133E+02 0.71877874E+02 0.32000000E+00 0.0000E+00 0.9000E+01
#aMCatNLO 1  0  0  2  1 0.14725212D+02 0.00000000D+00  -5  6  0 0.00000000D+00 0.00000000D+00 0.00000000D+00 0.00000000D+00 0.00000000D+00
  <mgrwgt>
 0.2571064344D+00   12    2    0
 0.303194290771785D+03 0.000000000000000D+00 0.000000000000000D+00 0.303194290771785D+03
 0.303194290771785D+03 0.000000000000000D+00 0.000000000000000D+00 -.303194290771785D+03
 0.260538941457275D+03 0.111418011481466D+03 -.162498939763242D+03 0.115912300076461D+03
 0.186700507628539D+03 -.112822299362290D+03 0.119456085539094D+03 0.372992759804513D+02
 0.159149132457757D+03 0.140428788082333D+01 0.430428542241478D+02 -.153211576056913D+03
 0.000000000000000D+00 0.000000000000000D+00 -.000000000000000D+00 -.000000000000000D+00
 0.468036480542205D+03 0.000000000000000D+00 0.000000000000000D+00 0.468036480542205D+03
 0.788338095047615D+03 0.000000000000000D+00 0.000000000000000D+00 -.788338095047615D+03
 0.192739660238108D+03 0.863727402366231D+02 -.250532445743537D+02 0.115912300076461D+03
 0.319721982314851D+03 -.140803961363720D+03 0.273016370382045D+03 0.372992759804513D+02
 0.221233187627227D+03 -.196132019094261D+02 0.158384527592567D+03 -.153211576056913D+03
 0.522679745409634D+03 0.740444230365232D+02 -.406347653400258D+03 -.320301614505410D+03
0.112404420313D-03 0.000000000000D+00 0.000000000000D+00 0.855737324604D-06 0.000000000000D+00  6 1 21 25 -24 2 21 2 0.11257596D+00 0.19327232D-01 0.52747560D+05 0.52747560D+05 0.52747560D+05 0.11899878D+01  1  2  2  2  6  2       21 0.114034597730D+00 0.100000000000D+01
0.189517808323D-04 0.593174422538D-05 -.226912139463D-06 0.855737324604D-06 0.000000000000D+00  6 1 21 25 -24 2 21 4 0.11257596D+00 0.19327232D-01 0.52747560D+05 0.52747560D+05 0.52747560D+05 0.11899878D+01  1  2  3  2  6  2       21 0.272262766080D-01 0.100000000000D+01
0.123908466318D-04 0.000000000000D+00 0.000000000000D+00 0.855737324604D-06 0.000000000000D+00  6 1 21 25 -24 2 21 4 0.11257596D+00 0.19327232D-01 0.52747560D+05 0.52747560D+05 0.52747560D+05 0.11899878D+01  1  2 15  2  6  2       21 0.178007872078D-01 0.100000000000D+01
0.678438542484D-03 0.000000000000D+00 -.439995576656D-03 0.855737324604D-06 0.000000000000D+00  6 1 21 25 -24 2 21 4 0.11257596D+00 0.74386473D-01 0.52747560D+05 0.52747560D+05 0.52747560D+05 0.11899878D+01  1  2  5  2  6  2       21 0.633910409806D-01 0.100000000000D+01
0.302864557712D-03 0.000000000000D+00 -.171719709308D-03 0.855737324604D-06 0.000000000000D+00  6 1 -1 25 -24 2 -1 4 0.11257596D+00 0.74386473D-01 0.52747560D+05 0.52747560D+05 0.52747560D+05 0.11899878D+01  1  2  5  5  6  2       21 0.312199750232D-02 0.100000000000D+01
0.302864557712D-03 0.000000000000D+00 -.171719709308D-03 0.855737324604D-06 0.000000000000D+00  6 1 1 25 -24 2 1 4 0.11257596D+00 0.74386473D-01 0.52747560D+05 0.52747560D+05 0.52747560D+05 0.11899878D+01  1  2  5  6  6  2       21 0.921761967208D-02 0.100000000000D+01
0.302864557712D-03 0.000000000000D+00 -.171719709308D-03 0.855737324604D-06 0.000000000000D+00  6 1 -2 25 -24 2 -2 4 0.11257596D+00 0.74386473D-01 0.52747560D+05 0.52747560D+05 0.52747560D+05 0.11899878D+01  1  2  5  7  6  2       21 0.241549953389D-02 0.100000000000D+01
0.302864557712D-03 0.000000000000D+00 -.171719709308D-03 0.855737324604D-06 0.000000000000D+00  6 1 2 25 -24 2 2 4 0.11257596D+00 0.74386473D-01 0.52747560D+05 0.52747560D+05 0.52747560D+05 0.11899878D+01  1  2  5  8  6  2       21 0.143196184543D-01 0.100000000000D+01
0.302864557712D-03 0.000000000000D+00 -.171719709308D-03 0.855737324604D-06 0.000000000000D+00  6 1 -3 25 -24 2 -3 4 0.11257596D+00 0.74386473D-01 0.52747560D+05 0.52747560D+05 0.52747560D+05 0.11899878D+01  1  2  5  9  6  2       21 0.153531708335D-02 0.100000000000D+01
0.302864557712D-03 0.000000000000D+00 -.171719709308D-03 0.855737324604D-06 0.000000000000D+00  6 1 -4 25 -24 2 -4 4 0.11257596D+00 0.74386473D-01 0.52747560D+05 0.52747560D+05 0.52747560D+05 0.11899878D+01  1  2  5  9  6  2       21 0.125332861109D-02 0.100000000000D+01
0.302864557712D-03 0.000000000000D+00 -.171719709308D-03 0.855737324604D-06 0.000000000000D+00  6 1 3 25 -24 2 3 4 0.11257596D+00 0.74386473D-01 0.52747560D+05 0.52747560D+05 0.52747560D+05 0.11899878D+01  1  2  5 10  6  2       21 0.153702243647D-02 0.100000000000D+01
0.302864557712D-03 0.000000000000D+00 -.171719709308D-03 0.855737324604D-06 0.000000000000D+00  6 1 4 25 -24 2 4 4 0.11257596D+00 0.74386473D-01 0.52747560D+05 0.52747560D+05 0.52747560D+05 0.11899878D+01  1  2  5 10  6  2       21 0.125332861109D-02 0.100000000000D+01
  </mgrwgt>
  </event>
  <event>
  5     66 0.42980143E-03 0.35632383E+02 0.75467711E-02 0.11323066E+00
        3 -1    0    0  502    0 0.00000000E+00 0.00000000E+00 0.30231173E+03 0.30231214E+03 0.50000000E+00 0.0000E+00 0.9000E+01
       21 -1    0    0  501  502 0.00000000E+00 0.00000000E+00 -.92869948E+02 0.92872976E+02 0.75000000E+00 0.0000E+00 0.9000E+01
       25  1    1    2    0    0 -.65698998E+02 0.21482888E+02 0.10218251E+03 0.17562500E+03 0.12500000E+03 0.0000E+00 0.9000E+01
      -24  1    1    2    0    0 0.10112678E+03 -.25189113E+02 0.12339044E+03 0.18042598E+03 0.80419002E+02 0.0000E+00 0.9000E+01
        4  1    1    2  501    0 -.35427781E+02 0.37062252E+01 -.16131177E+02 0.39134143E+02 0.15500000E+01 0.0000E+00 0.9000E+01
#aMCatNLO 1  0  0  2  2 0.11933902D+03 0.00000000D+00  -5  6  0 0.00000000D+00 0.00000000D+00 0.00000000D+00 0.00000000D+00 0.00000000D+00
  <mgrwgt>
 0.4788322384D-02   12    2    0
 0.167560002249995D+03 0.000000000000000D+00 0.000000000000000D+00 0.167560002249995D+03
 0.167560002249995D+03 0.000000000000000D+00 0.000000000000000D+00 -.167560002249995D+03
 0.143239312796206D+03 -.656932411180543D+02 0.214822857921051D+02 0.107429138915355D+02
 0.135654350230492D+03 0.101132229914300D+03 -.251896835506039D+02 0.327511632964116D+02
 0.562263414732919D+02 -.354389887962454D+02 0.370739775849879D+01 -.434940771879471D+02
 0.000000000000000D+00 -.000000000000000D+00 0.000000000000000D+00 -.000000000000000D+00
 0.207593147698478D+03 0.000000000000000D+00 0.000000000000000D+00 0.207593147698478D+03
 0.297643935675071D+03 0.000000000000000D+00 0.000000000000000D+00 -.297643935675071D+03
 0.128130918115986D+03 -.258268393024584D+02 -.317747541445427D+01 0.107429138915355D+02
 0.179346065185780D+03 0.147408245860677D+03 -.538141756255867D+02 0.327511632964116D+02
 0.482577749393572D+02 -.200894578095471D+02 -.578720801293522D+01 -.434940771879471D+02
 0.149502325132426D+03 -.101491948748672D+03 0.627788590529761D+02 -.900507879765927D+02
0.617449069995D-05 0.000000000000D+00 0.000000000000D+00 0.783880850948D-06 0.000000000000D+00  6 3 21 25 -24 4 21 2 0.46509761D-01 0.14287949D-01 0.24042005D+05 0.24042005D+05 0.24042005D+05 0.12251212D+01  1  2  2  2  6  2       21 0.896897166569D-02 0.100000000000D+01
0.326656474444D-06 0.325836826097D-06 -.124645177736D-07 0.783880850948D-06 0.000000000000D+00  6 3 21 25 -24 4 21 4 0.46509761D-01 0.14287949D-01 0.24042005D+05 0.24042005D+05 0.24042005D+05 0.12251212D+01  1  2  3  2  6  2       21 0.712181784494D-03 0.100000000000D+01
0.559335206640D-06 0.000000000000D+00 0.000000000000D+00 0.783880850948D-06 0.000000000000D+00  6 3 21 25 -24 4 21 4 0.46509761D-01 0.14287949D-01 0.24042005D+05 0.24042005D+05 0.24042005D+05 0.12251212D+01  1  2 15  2  6  2       21 0.121947175936D-02 0.100000000000D+01
-.105507825492D-04 0.000000000000D+00 -.915558861447D-05 0.783880850948D-06 0.000000000000D+00  6 3 21 25 -24 4 21 4 0.46509761D-01 0.30941531D-01 0.24042005D+05 0.24042005D+05 0.24042005D+05 0.12251212D+01  1  2  5  2  6  2       21 -.542740846588D-02 0.100000000000D+01
-.188718130511D-05 0.000000000000D+00 -.250098597859D-05 0.783880850948D-06 0.000000000000D+00  6 3 -3 25 -24 4 -3 4 0.46509761D-01 0.30941531D-01 0.24042005D+05 0.24042005D+05 0.24042005D+05 0.12251212D+01  1  2  5  5  6  2       21 -.474183430762D-04 0.100000000000D+01
-.188718130511D-05 0.000000000000D+00 -.250098597859D-05 0.783880850948D-06 0.000000000000D+00  6 3 3 25 -24 4 3 4 0.46509761D-01 0.30941531D-01 0.24042005D+05 0.24042005D+05 0.24042005D+05 0.12251212D+01  1  2  5  6  6  2       21 -.474201334942D-04 0.100000000000D+01
-.188718130511D-05 0.000000000000D+00 -.250098597859D-05 0.783880850948D-06 0.000000000000D+00  6 3 -4 25 -24 4 -4 4 0.46509761D-01 0.30941531D-01 0.24042005D+05 0.24042005D+05 0.24042005D+05 0.12251212D+01  1  2  5  7  6  2       21 -.398113451767D-04 0.100000000000D+01
-.188718130511D-05 0.000000000000D+00 -.250098597859D-05 0.783880850948D-06 0.000000000000D+00  6 3 4 25 -24 4 4 4 0.46509761D-01 0.30941531D-01 0.24042005D+05 0.24042005D+05 0.24042005D+05 0.12251212D+01  1  2  5  8  6  2       21 -.398113451767D-04 0.100000000000D+01
-.188718130511D-05 0.000000000000D+00 -.250098597859D-05 0.783880850948D-06 0.000000000000D+00  6 3 -1 25 -24 4 -1 4 0.46509761D-01 0.30941531D-01 0.24042005D+05 0.24042005D+05 0.24042005D+05 0.12251212D+01  1  2  5  9  6  2       21 -.849546845261D-04 0.100000000000D+01
-.188718130511D-05 0.000000000000D+00 -.250098597859D-05 0.783880850948D-06 0.000000000000D+00  6 3 -2 25 -24 4 -2 4 0.46509761D-01 0.30941531D-01 0.24042005D+05 0.24042005D+05 0.24042005D+05 0.12251212D+01  1  2  5  9  6  2       21 -.742940091837D-04 0.100000000000D+01
-.188718130511D-05 0.000000000000D+00 -.250098597859D-05 0.783880850948D-06 0.000000000000D+00  6 3 1 25 -24 4 1 4 0.46509761D-01 0.30941531D-01 0.24042005D+05 0.24042005D+05 0.24042005D+05 0.12251212D+01  1  2  5 10  6  2       21 -.151343668900D-03 0.100000000000D+01
-.188718130511D-05 0.000000000000D+00 -.250098597859D-05 0.783880850948D-06 0.000000000000D+00  6 3 2 25 -24 4 2 4 0.46509761D-01 0.30941531D-01 0.24042005D+05 0.24042005D+05 0.24042005D+05 0.12251212D+01  1  2  5 10  6  2       21 -.199840830047D-03 0.100000000000D+01
  </mgrwgt>
  </event>
  <event>
  6     66 0.42980143E-03 0.24128843E+02 0.75467711E-02 0.12156724E+00
        1 -1    0    0  502    0 0.00000000E+00 0.00000000E+00 0.42099974E+02 0.42101191E+02 0.32000000E+00 0.0000E+00 0.9000E+01
        2 -1    0    0  501    0 0.00000000E+00 0.00000000E+00 -.13308037E+04 0.13308037E+04 0.32000000E+00 0.0000E+00 0.9000E+01
       25  1    1    2    0    0 -.23129024E+02 0.31152777E+02 -.13380476E+03 0.18717415E+03 0.12500000E+03 0.0000E+00 0.9000E+01
      -24  1    1    2    0    0 0.30237639E+02 -.50917699E+02 -.16207308E+03 0.19037286E+03 0.80419002E+02 0.0000E+00 0.9000E+01
        2  1    1    2  501    0 0.14039414E+02 -.33772506E+01 -.50877211E+02 0.52887654E+02 0.32000000E+00 0.0000E+00 0.9000E+01
        2  1    1    2  502    0 -.21148028E+02 0.23142173E+02 -.94194866E+03 0.94247026E+03 0.32000000E+00 0.0000E+00 0.9000E+01
#aMCatNLO 2  0  0  2  1 0.49372931D+01 0.00000000D+00  -5  6  0 0.00000000D+00 0.00000000D+00 0.00000000D+00 0.00000000D+00 0.00000000D+00
  <mgrwgt>
 0.5806801742D-01    1    2    0
 0.126542614577977D+03 0.000000000000000D+00 0.000000000000000D+00 0.126542614577977D+03
 0.126542614577977D+03 0.000000000000000D+00 0.000000000000000D+00 -.126542614577977D+03
 0.139790738630910D+03 -.345249272697855D+02 0.436222883587315D+02 0.286631464138047D+02
 0.945354519765874D+02 0.221007027079229D+02 -.420141457481605D+02 -.147005517894894D+02
 0.187590385484566D+02 0.124242245618626D+02 -.160814261057095D+01 -.139625946243153D+02
 0.000000000000000D+00 -.000000000000000D+00 0.000000000000000D+00 -.000000000000000D+00
 0.128304452484158D+03 0.000000000000000D+00 0.000000000000000D+00 0.128304452484158D+03
 0.436676904409491D+03 0.000000000000000D+00 0.000000000000000D+00 -.436676904409491D+03
 0.133985346207962D+03 -.231299837750910D+02 0.311528632182066D+02 0.286631464138047D+02
 0.100946492674210D+03 0.302369346028301D+02 -.509175803800858D+02 -.147005517894894D+02
 0.200876358596392D+02 0.140410774732393D+02 -.337745602147453D+01 -.139625946243153D+02
 0.309961882151837D+03 -.211480283009784D+02 0.231421731833537D+02 -.308372451925333D+03
0.937896578579D-04 0.000000000000D+00 0.000000000000D+00 0.320522159402D-05 0.565064919994D-07  6 1 2 25 -24 2 2 4 0.64770115D-02 0.20473900D+00 0.19119296D+05 0.19119296D+05 0.19119296D+05 0.12359850D+01  1  2  1  8  6  2       21 0.580680174199D-01 0.100000000000D+01
  </mgrwgt>
  </event>
  <event>
  5     66 0.42980143E-03 0.82343143E+02 0.75467711E-02 0.89380279E-01
        1 -1    0    0  502    0 0.00000000E+00 0.00000000E+00 0.37721060E+03 0.37721074E+03 0.32000000E+00 0.0000E+00 0.9000E+01
       21 -1    0    0  501  502 0.00000000E+00 0.00000000E+00 -.21005402E+03 0.21005536E+03 0.75000000E+00 0.0000E+00 0.9000E+01
       25  1    1    2    0    0 -.95152949E+02 -.49831320E+02 0.20151077E+03 0.26032448E+03 0.12500000E+03 0.0000E+00 0.9000E+01
      -24  1    1    2    0    0 0.27727955E+02 0.25634042E+01 0.12286697E+03 0.14946210E+03 0.80419002E+02 0.0000E+00 0.9000E+01
        2  1    1    2  501    0 0.67424994E+02 0.47267915E+02 -.15722115E+03 0.17747952E+03 0.32000000E+00 0.0000E+00 0.9000E+01
#aMCatNLO 1  0  0  2  1 0.65336258D+02 0.00000000D+00  -5  6  0 0.00000000D+00 0.00000000D+00 0.00000000D+00 0.00000000D+00 0.00000000D+00
  <mgrwgt>
 0.1013734042D+00   12    2    0
 0.281487186599940D+03 0.000000000000000D+00 0.000000000000000D+00 0.281487186599940D+03
 0.281487186599940D+03 0.000000000000000D+00 0.000000000000000D+00 -.281487186599940D+03
 0.211725310788186D+03 -.951529732006680D+02 -.498313365167459D+02 0.132911086145520D+03
 0.119429976301710D+03 0.277279417691045D+02 0.256339465871365D+01 0.837907723924858D+02
 0.231819086109983D+03 0.674250314315634D+02 0.472679418580323D+02 -.216701858538006D+03
 0.000000000000000D+00 -.000000000000000D+00 0.000000000000000D+00 -.000000000000000D+00
 0.102287961886930D+04 0.000000000000000D+00 0.000000000000000D+00 0.102287961886930D+04
 0.259600951864113D+04 0.000000000000000D+00 0.000000000000000D+00 -.259600951864113D+04
 0.636922761926806D+03 0.319727546460178D+02 -.609391492228464D+03 0.132911086145520D+03
 0.329688350241278D+03 0.950049391331666D+02 -.293564916726469D+03 0.837907723924858D+02
 0.544703636263209D+03 0.183746530819843D+03 -.464736019990068D+03 -.216701858538006D+03
 0.210757438907914D+04 -.310724224599028D+03 0.136769242894500D+04 -.157312989977184D+04
0.715556518941D-04 0.000000000000D+00 0.000000000000D+00 0.195702074987D-05 0.000000000000D+00  6 1 21 25 -24 2 21 2 0.58032514D-01 0.32316116D-01 0.27598596D+05 0.27598596D+05 0.27598596D+05 0.12187198D+01  1  2  2  2  6  2       21 0.708026703886D-01 0.100000000000D+01
0.307517064000D-05 0.377609549282D-05 -.144450245077D-06 0.195702074987D-05 0.000000000000D+00  6 1 21 25 -24 2 21 4 0.58032514D-01 0.32316116D-01 0.27598596D+05 0.27598596D+05 0.27598596D+05 0.12187198D+01  1  2  3  2  6  2       21 0.451941949239D-02 0.100000000000D+01
0.743812305841D-05 0.000000000000D+00 0.000000000000D+00 0.195702074987D-05 0.000000000000D+00  6 1 21 25 -24 2 21 4 0.58032514D-01 0.32316116D-01 0.27598596D+05 0.27598596D+05 0.27598596D+05 0.12187198D+01  1  2 15  2  6  2       21 0.109314253654D-01 0.100000000000D+01
0.121823643698D-01 0.000000000000D+00 -.585823384690D-02 0.195702074987D-05 0.000000000000D+00  6 1 21 25 -24 2 21 4 0.58032514D-01 0.55203046D+00 0.27598596D+05 0.27598596D+05 0.27598596D+05 0.12187198D+01  1  2  5  2  6  2       21 0.162202540926D-02 0.100000000000D+01
0.538218619395D-02 0.000000000000D+00 -.258951189123D-02 0.195702074987D-05 0.000000000000D+00  6 1 -1 25 -24 2 -1 4 0.58032514D-01 0.55203046D+00 0.27598596D+05 0.27598596D+05 0.27598596D+05 0.12187198D+01  1  2  5  5  6  2       21 0.746307442502D-04 0.100000000000D+01
0.538218619395D-02 0.000000000000D+00 -.258951189123D-02 0.195702074987D-05 0.000000000000D+00  6 1 1 25 -24 2 1 4 0.58032514D-01 0.55203046D+00 0.27598596D+05 0.27598596D+05 0.27598596D+05 0.12187198D+01  1  2  5  6  6  2       21 0.276365863410D-02 0.100000000000D+01
0.538218619395D-02 0.000000000000D+00 -.258951189123D-02 0.195702074987D-05 0.000000000000D+00  6 1 -2 25 -24 2 -2 4 0.58032514D-01 0.55203046D+00 0.27598596D+05 0.27598596D+05 0.27598596D+05 0.12187198D+01  1  2  5  7  6  2       21 0.735570963226D-04 0.100000000000D+01
0.538218619395D-02 0.000000000000D+00 -.258951189123D-02 0.195702074987D-05 0.000000000000D+00  6 1 2 25 -24 2 2 4 0.58032514D-01 0.55203046D+00 0.27598596D+05 0.27598596D+05 0.27598596D+05 0.12187198D+01  1  2  5  8  6  2       21 0.103350555087D-01 0.100000000000D+01
0.538218619395D-02 0.000000000000D+00 -.258951189123D-02 0.195702074987D-05 0.000000000000D+00  6 1 -3 25 -24 2 -3 4 0.58032514D-01 0.55203046D+00 0.27598596D+05 0.27598596D+05 0.27598596D+05 0.12187198D+01  1  2  5  9  6  2       21 0.937666101440D-04 0.100000000000D+01
0.538218619395D-02 0.000000000000D+00 -.258951189123D-02 0.195702074987D-05 0.000000000000D+00  6 1 -4 25 -24 2 -4 4 0.58032514D-01 0.55203046D+00 0.27598596D+05 0.27598596D+05 0.27598596D+05 0.12187198D+01  1  2  5  9  6  2       21 0.236880504781D-04 0.100000000000D+01
0.538218619395D-02 0.000000000000D+00 -.258951189123D-02 0.195702074987D-05 0.000000000000D+00  6 1 3 25 -24 2 3 4 0.58032514D-01 0.55203046D+00 0.27598596D+05 0.27598596D+05 0.27598596D+05 0.12187198D+01  1  2  5 10  6  2       21 0.109818869636D-03 0.100000000000D+01
0.538218619395D-02 0.000000000000D+00 -.258951189123D-02 0.195702074987D-05 0.000000000000D+00  6 1 4 25 -24 2 4 4 0.58032514D-01 0.55203046D+00 0.27598596D+05 0.27598596D+05 0.27598596D+05 0.12187198D+01  1  2  5 10  6  2       21 0.236880504781D-04 0.100000000000D+01
  </mgrwgt>
  </event>
  <event>
  5     66 0.42980143E-03 0.57016397E+02 0.75467711E-02 0.11840273E+00
        1 -1    0    0  502    0 0.00000000E+00 0.00000000E+00 0.34496246E+03 0.34496261E+03 0.32000000E+00 0.0000E+00 0.9000E+01
       21 -1    0    0  501  502 0.00000000E+00 0.00000000E+00 -.87489665E+02 0.87492880E+02 0.75000000E+00 0.0000E+00 0.9000E+01
       25  1    1    2    0    0 0.32418930E+02 0.83013758E+02 0.19649933E+03 0.24935769E+03 0.12500000E+03 0.0000E+00 0.9000E+01
      -24  1    1    2    0    0 0.20426878E+02 -.58223897E+02 0.71154289E+02 0.12384437E+03 0.80419002E+02 0.0000E+00 0.9000E+01
        2  1    1    2  501    0 -.52845808E+02 -.24789861E+02 -.10180826E+02 0.59253424E+02 0.32000000E+00 0.0000E+00 0.9000E+01
#aMCatNLO 1  0  0  1  2 0.14159495D+02 0.00000000D+00  -5  6  0 0.00000000D+00 0.00000000D+00 0.00000000D+00 0.00000000D+00 0.00000000D+00
  <mgrwgt>
 0.5131643097D-01    6    2    0
 0.173727881938856D+03 0.000000000000000D+00 0.000000000000000D+00 0.173727881938856D+03
 0.173727881938856D+03 0.000000000000000D+00 0.000000000000000D+00 -.173727881938856D+03
 0.164748814183834D+03 0.324191243301788D+02 0.830138487477104D+02 0.597902422535317D+02
 0.101414003459334D+03 0.204269975140844D+02 -.582238410994515D+02 -.321033385564549D+01
 0.812929462345451D+02 -.528461218442632D+02 -.247900076482589D+02 -.565799083978862D+02
 0.000000000000000D+00 0.000000000000000D+00 -.000000000000000D+00 -.000000000000000D+00
 0.180777385147322D+03 0.000000000000000D+00 0.000000000000000D+00 0.180777385147322D+03
 0.181130674331714D+03 0.000000000000000D+00 0.000000000000000D+00 -.181130674331714D+03
 0.164195563380839D+03 0.258289889283205D+02 0.842209789551024D+02 0.597902422535317D+02
 0.100251855671135D+03 0.163867846141372D+02 -.574837860416379D+02 -.321033385564549D+01
 0.832967385619827D+02 -.561435434831087D+02 -.241860113683591D+02 -.565799083978862D+02
 0.141639018650793D+02 0.139277699406510D+02 -.255118154510532D+01 -.353289184391566D+00
0.154888609611D-05 0.000000000000D+00 0.000000000000D+00 0.488162325519D-06 0.000000000000D+00  6 1 21 25 -24 2 21 2 0.53071406D-01 0.13460207D-01 0.24531600D+05 0.24531600D+05 0.24531600D+05 0.12241793D+01  1  2  2  1  6  1        1 0.891362953205D-02 0.100000000000D+01
-.660645802876D-08 0.817369648878D-07 -.312675477417D-08 0.488162325519D-06 0.000000000000D+00  6 1 21 25 -24 2 21 4 0.53071406D-01 0.13460207D-01 0.24531600D+05 0.24531600D+05 0.24531600D+05 0.12241793D+01  1  2  3  1  6  1        1 -.569762456255D-04 0.100000000000D+01
0.151161645393D-06 0.000000000000D+00 0.000000000000D+00 0.488162325519D-06 0.000000000000D+00  6 1 21 25 -24 2 21 4 0.53071406D-01 0.13460207D-01 0.24531600D+05 0.24531600D+05 0.24531600D+05 0.12241793D+01  1  2 15  1  6  1        1 0.130366726006D-02 0.100000000000D+01
0.102960677405D-04 0.000000000000D+00 0.000000000000D+00 0.484669604993D-06 0.000000000000D+00  6 1 21 25 -24 2 21 4 0.56309655D-01 0.13460207D-01 0.26963939D+05 0.26963939D+05 0.26963939D+05 0.12197920D+01  1  2 12  1  6  1        1 0.812535182273D-01 0.100000000000D+01
-.506404038725D-05 0.000000000000D+00 0.000000000000D+00 0.488162325519D-06 0.000000000000D+00  6 1 21 25 -24 2 21 4 0.53071406D-01 0.13460207D-01 0.24531600D+05 0.24531600D+05 0.24531600D+05 0.12241793D+01  1  2  4  1  6  1        1 -.436739335519D-01 0.100000000000D+01
0.112920130405D-06 0.000000000000D+00 0.000000000000D+00 0.484669604993D-06 0.000000000000D+00  6 21 21 25 -24 2 -1 4 0.56309655D-01 0.13460207D-01 0.26963939D+05 0.26963939D+05 0.26963939D+05 0.12197920D+01  1  2 12  4  6  1        1 0.357652574607D-02 0.100000000000D+01
  </mgrwgt>
  </event>
  <event>
  5     66 0.42980143E-03 0.16194352E+03 0.75467711E-02 0.90998012E-01
        1 -1    0    0  502    0 0.00000000E+00 0.00000000E+00 0.13322739E+03 0.13322777E+03 0.32000000E+00 0.0000E+00 0.9000E+01
       21 -1    0    0  501  502 0.00000000E+00 0.00000000E+00 -.72381862E+03 0.72381901E+03 0.75000000E+00 0.0000E+00 0.9000E+01
       25  1    1    2    0    0 0.64154621E+02 0.13619992E+03 -.43814441E+03 0.47985597E+03 0.12500000E+03 0.0000E+00 0.9000E+01
      -24  1    1    2    0    0 0.95988777E+02 -.11212253E+03 -.22555555E+02 0.16959150E+03 0.80419002E+02 0.0000E+00 0.9000E+01
        2  1    1    2  501    0 -.16014340E+03 -.24077394E+02 -.12989127E+03 0.20759931E+03 0.32000000E+00 0.0000E+00 0.9000E+01
#aMCatNLO 1  0  0  2  5 0.28512046D+02 0.00000000D+00  -5  6  0 0.00000000D+00 0.00000000D+00 0.00000000D+00 0.00000000D+00 0.00000000D+00
  <mgrwgt>
 0.4159311871D-01   12    2    0
 0.310536301986104D+03 0.000000000000000D+00 0.000000000000000D+00 0.310536301986104D+03
 0.310536301986104D+03 0.000000000000000D+00 0.000000000000000D+00 -.310536301986104D+03
 0.245534584106692D+03 0.641547426542188D+02 0.136199940486367D+03 -.148310408262290D+03
 0.212578613139216D+03 0.959888828174221D+02 -.112122512547098D+03 0.130142719217831D+03
 0.162959406726301D+03 -.160143625471641D+03 -.240774279392688D+02 0.181676890444591D+02
 0.000000000000000D+00 0.000000000000000D+00 0.000000000000000D+00 -.000000000000000D+00
 0.116166219049601D+04 0.000000000000000D+00 0.000000000000000D+00 0.116166219049601D+04
 0.134813863985577D+04 0.000000000000000D+00 0.000000000000000D+00 -.134813863985577D+04
 0.262676074671951D+03 -.163841020112855D+03 -.673339671675155D+02 -.148310408262290D+03
 0.459222561706429D+03 -.205397596668959D+03 -.381172985851633D+03 0.130142719217831D+03
 0.602919221846127D+03 -.503735557463032D+03 -.330805095628425D+03 0.181676890444591D+02
 0.118498297212727D+04 0.872974174244847D+03 0.779312048647574D+03 -.186476449359767D+03
0.166230243260D-03 0.000000000000D+00 0.000000000000D+00 0.363112677549D-07 0.000000000000D+00  6 1 21 25 -24 2 21 2 0.20496581D-01 0.11135677D+00 0.69092738D+05 0.69092738D+05 0.69092738D+05 0.11786165D+01  1  2  2  2  6  2       21 0.379183396289D-01 0.100000000000D+01
-.156138045651D-04 0.877221093974D-05 -.335570968087D-06 0.363112677549D-07 0.000000000000D+00  6 1 21 25 -24 2 21 4 0.20496581D-01 0.11135677D+00 0.69092738D+05 0.69092738D+05 0.69092738D+05 0.11786165D+01  1  2  3  2  6  2       21 -.494758222235D-02 0.100000000000D+01
0.225311667822D-04 0.000000000000D+00 0.000000000000D+00 0.363112677549D-07 0.000000000000D+00  6 1 21 25 -24 2 21 4 0.20496581D-01 0.11135677D+00 0.69092738D+05 0.69092738D+05 0.69092738D+05 0.11786165D+01  1  2 15  2  6  2       21 0.713950272376D-02 0.100000000000D+01
0.371781316905D-02 0.000000000000D+00 -.170914368090D-02 0.363112677549D-07 0.000000000000D+00  6 1 21 25 -24 2 21 4 0.20496581D-01 0.72443211D+00 0.69092738D+05 0.69092738D+05 0.69092738D+05 0.11786165D+01  1  2  5  2  6  2       21 0.495604009699D-04 0.100000000000D+01
0.161720285013D-02 0.000000000000D+00 -.728950420292D-03 0.363112677549D-07 0.000000000000D+00  6 1 -1 25 -24 2 -1 4 0.20496581D-01 0.72443211D+00 0.69092738D+05 0.69092738D+05 0.69092738D+05 0.11786165D+01  1  2  5  5  6  2       21 0.161996986794D-04 0.100000000000D+01
0.161720285013D-02 0.000000000000D+00 -.728950420292D-03 0.363112677549D-07 0.000000000000D+00  6 1 1 25 -24 2 1 4 0.20496581D-01 0.72443211D+00 0.69092738D+05 0.69092738D+05 0.69092738D+05 0.11786165D+01  1  2  5  6  6  2       21 0.251180537350D-03 0.100000000000D+01
0.161720285013D-02 0.000000000000D+00 -.728950420292D-03 0.363112677549D-07 0.000000000000D+00  6 1 -2 25 -24 2 -2 4 0.20496581D-01 0.72443211D+00 0.69092738D+05 0.69092738D+05 0.69092738D+05 0.11786165D+01  1  2  5  7  6  2       21 0.161391508979D-04 0.100000000000D+01
0.161720285013D-02 0.000000000000D+00 -.728950420292D-03 0.363112677549D-07 0.000000000000D+00  6 1 2 25 -24 2 2 4 0.20496581D-01 0.72443211D+00 0.69092738D+05 0.69092738D+05 0.69092738D+05 0.11786165D+01  1  2  5  8  6  2       21 0.112561264667D-02 0.100000000000D+01
0.161720285013D-02 0.000000000000D+00 -.728950420292D-03 0.363112677549D-07 0.000000000000D+00  6 1 -3 25 -24 2 -3 4 0.20496581D-01 0.72443211D+00 0.69092738D+05 0.69092738D+05 0.69092738D+05 0.11786165D+01  1  2  5  9  6  2       21 0.956006732395D-05 0.100000000000D+01
0.161720285013D-02 0.000000000000D+00 -.728950420292D-03 0.363112677549D-07 0.000000000000D+00  6 1 -4 25 -24 2 -4 4 0.20496581D-01 0.72443211D+00 0.69092738D+05 0.69092738D+05 0.69092738D+05 0.11786165D+01  1  2  5  9  6  2       21 0.507449201862D-06 0.100000000000D+01
0.161720285013D-02 0.000000000000D+00 -.728950420292D-03 0.363112677549D-07 0.000000000000D+00  6 1 3 25 -24 2 3 4 0.20496581D-01 0.72443211D+00 0.69092738D+05 0.69092738D+05 0.69092738D+05 0.11786165D+01  1  2  5 10  6  2       21 0.135911830960D-04 0.100000000000D+01
0.161720285013D-02 0.000000000000D+00 -.728950420292D-03 0.363112677549D-07 0.000000000000D+00  6 1 4 25 -24 2 4 4 0.20496581D-01 0.72443211D+00 0.69092738D+05 0.69092738D+05 0.69092738D+05 0.11786165D+01  1  2  5 10  6  2       21 0.507449201862D-06 0.100000000000D+01
  </mgrwgt>
  </event>
  <event>
  5     66 0.42980143E-03 0.22773695E+02 0.75467711E-02 0.11866740E+00
        1 -1    0    0  502    0 0.00000000E+00 0.00000000E+00 0.13892342E+03 0.13892379E+03 0.32000000E+00 0.0000E+00 0.9000E+01
       21 -1    0    0  501  502 0.00000000E+00 0.00000000E+00 -.15450169E+03 0.15450351E+03 0.75000000E+00 0.0000E+00 0.9000E+01
       25  1    1    2    0    0 -.60178875E+02 0.19964342E+02 0.21455221E+02 0.14179351E+03 0.12500000E+03 0.0000E+00 0.9000E+01
      -24  1    1    2    0    0 0.74128070E+02 -.37964916E+02 -.98813180E+01 0.11619450E+03 0.80419002E+02 0.0000E+00 0.9000E+01
        2  1    1    2  501    0 -.13949195E+02 0.18000574E+02 -.27152177E+02 0.35439297E+02 0.32000000E+00 0.0000E+00 0.9000E+01
#aMCatNLO 1  0  0  2  1 0.17862142D+03 0.00000000D+00  -5  6  0 0.00000000D+00 0.00000000D+00 0.00000000D+00 0.00000000D+00 0.00000000D+00
  <mgrwgt>
 0.1080310546D+00   14    2    0
 0.146506740843254D+03 0.000000000000000D+00 0.000000000000000D+00 0.146506740843254D+03
 0.146506740843254D+03 0.000000000000000D+00 0.000000000000000D+00 -.146506740843254D+03
 0.143134373770623D+03 -.601785739787557D+02 0.199639539773264D+02 0.290246228258551D+02
 0.115833499521265D+03 0.741283135621190D+02 -.379652303117876D+02 -.371726684293122D+01
 0.340456083946185D+02 -.139497395833632D+02 0.180012763344613D+02 -.253073559829239D+02
 0.000000000000000D+00 0.000000000000000D+00 -.000000000000000D+00 -.000000000000000D+00
 0.155937697182333D+03 0.000000000000000D+00 0.000000000000000D+00 0.155937697182333D+03
 0.199626795840814D+03 0.000000000000000D+00 0.000000000000000D+00 -.199626795840814D+03
 0.147758064937256D+03 -.613242262552026D+02 0.400544167105193D+02 0.290246228258551D+02
 0.111091417047986D+03 0.732345913037995D+02 -.222926793172747D+02 -.371726684293122D+01
 0.369819015404061D+02 -.142294746937321D+02 0.229067855588317D+02 -.253073559829239D+02
 0.597331094974994D+02 0.231910964513520D+01 -.406685229520763D+02 -.436890986584816D+02
0.593799567594D-05 0.000000000000D+00 0.000000000000D+00 0.137954519230D-05 0.000000000000D+00  6 1 21 25 -24 2 21 2 0.21373002D-01 0.23769660D-01 0.19419569D+05 0.19419569D+05 0.19419569D+05 0.12352366D+01  1  2  2  2  6  2       21 0.380260873852D-01 0.100000000000D+01
0.525197415528D-06 0.313356640807D-06 -.119871024573D-07 0.137954519230D-05 0.000000000000D+00  6 1 21 25 -24 2 21 4 0.21373002D-01 0.23769660D-01 0.19419569D+05 0.19419569D+05 0.19419569D+05 0.12352366D+01  1  2  3  2  6  2       21 0.513174042807D-02 0.100000000000D+01
0.618581233396D-06 0.000000000000D+00 0.000000000000D+00 0.137954519230D-05 0.000000000000D+00  6 1 21 25 -24 2 21 4 0.21373002D-01 0.23769660D-01 0.19419569D+05 0.19419569D+05 0.19419569D+05 0.12352366D+01  1  2 15  2  6  2       21 0.604420019904D-02 0.100000000000D+01
-.415921910084D-05 0.000000000000D+00 0.000000000000D+00 0.137954519230D-05 0.000000000000D+00  6 1 21 25 -24 2 21 4 0.21373002D-01 0.23769660D-01 0.19419569D+05 0.19419569D+05 0.19419569D+05 0.12352366D+01  1  2  4  2  6  2       21 -.406400187395D-01 0.100000000000D+01
-.311712256358D-04 0.000000000000D+00 -.748138449207D-05 0.137954519230D-05 0.000000000000D+00  6 1 21 25 -24 2 21 4 0.21373002D-01 0.34149634D-01 0.19419569D+05 0.19419569D+05 0.19419569D+05 0.12352366D+01  1  2  5  2  6  2       21 -.151796300938D+00 0.100000000000D+01
0.268576180870D-04 0.000000000000D+00 0.583076827251D-05 0.137954519230D-05 0.000000000000D+00  6 1 21 25 -24 2 21 4 0.21373002D-01 0.23769660D-01 0.19419569D+05 0.19419569D+05 0.19419569D+05 0.12352366D+01  1  2  6  2  6  2       21 0.262427651896D+00 0.100000000000D+01
-.311764867588D-05 0.000000000000D+00 -.888028724178D-06 0.137954519230D-05 0.000000000000D+00  6 1 -1 25 -24 2 -1 4 0.21373002D-01 0.34149634D-01 0.19419569D+05 0.19419569D+05 0.19419569D+05 0.12352366D+01  1  2  5  5  6  2       21 -.135629900569D-02 0.100000000000D+01
-.311764867588D-05 0.000000000000D+00 -.888028724178D-06 0.137954519230D-05 0.000000000000D+00  6 1 1 25 -24 2 1 4 0.21373002D-01 0.34149634D-01 0.19419569D+05 0.19419569D+05 0.19419569D+05 0.12352366D+01  1  2  5  6  6  2       21 -.252765513619D-02 0.100000000000D+01
-.311764867588D-05 0.000000000000D+00 -.888028724178D-06 0.137954519230D-05 0.000000000000D+00  6 1 -2 25 -24 2 -2 4 0.21373002D-01 0.34149634D-01 0.19419569D+05 0.19419569D+05 0.19419569D+05 0.12352366D+01  1  2  5  7  6  2       21 -.117118174951D-02 0.100000000000D+01
-.311764867588D-05 0.000000000000D+00 -.888028724178D-06 0.137954519230D-05 0.000000000000D+00  6 1 2 25 -24 2 2 4 0.21373002D-01 0.34149634D-01 0.19419569D+05 0.19419569D+05 0.19419569D+05 0.12352366D+01  1  2  5  8  6  2       21 -.339057449119D-02 0.100000000000D+01
-.311764867588D-05 0.000000000000D+00 -.888028724178D-06 0.137954519230D-05 0.000000000000D+00  6 1 -3 25 -24 2 -3 4 0.21373002D-01 0.34149634D-01 0.19419569D+05 0.19419569D+05 0.19419569D+05 0.12352366D+01  1  2  5  9  6  2       21 -.740515158339D-03 0.100000000000D+01
-.311764867588D-05 0.000000000000D+00 -.888028724178D-06 0.137954519230D-05 0.000000000000D+00  6 1 -4 25 -24 2 -4 4 0.21373002D-01 0.34149634D-01 0.19419569D+05 0.19419569D+05 0.19419569D+05 0.12352366D+01  1  2  5  9  6  2       21 -.617750990993D-03 0.100000000000D+01
-.311764867588D-05 0.000000000000D+00 -.888028724178D-06 0.137954519230D-05 0.000000000000D+00  6 1 3 25 -24 2 3 4 0.21373002D-01 0.34149634D-01 0.19419569D+05 0.19419569D+05 0.19419569D+05 0.12352366D+01  1  2  5 10  6  2       21 -.740578109649D-03 0.100000000000D+01
-.311764867588D-05 0.000000000000D+00 -.888028724178D-06 0.137954519230D-05 0.000000000000D+00  6 1 4 25 -24 2 4 4 0.21373002D-01 0.34149634D-01 0.19419569D+05 0.19419569D+05 0.19419569D+05 0.12352366D+01  1  2  5 10  6  2       21 -.617750990993D-03 0.100000000000D+01
  </mgrwgt>
  </event>
  <event>
  5     66 0.42980143E-03 0.18167580E+03 0.75467711E-02 0.10840099E+00
        1 -1    0    0  502    0 0.00000000E+00 0.00000000E+00 0.18567965E+03 0.18567993E+03 0.32000000E+00 0.0000E+00 0.9000E+01
       21 -1    0    0  501  502 0.00000000E+00 0.00000000E+00 -.68327424E+03 0.68327465E+03 0.75000000E+00 0.0000E+00 0.9000E+01
       25  1    1    2    0    0 -.15129500E+03 0.49480254E+02 0.32857490E+02 0.20504411E+03 0.12500000E+03 0.0000E+00 0.9000E+01
      -24  1    1    2    0    0 -.10222018E+03 0.19072187E+02 -.12891179E+03 0.18411458E+03 0.80419002E+02 0.0000E+00 0.9000E+01
        2  1    1    2  501    0 0.25351518E+03 -.68552441E+02 -.40154029E+03 0.47979588E+03 0.32000000E+00 0.0000E+00 0.9000E+01
#aMCatNLO 1  0  0  2  1 0.85039875D+01 0.00000000D+00  -5  6  0 0.00000000D+00 0.00000000D+00 0.00000000D+00 0.00000000D+00 0.00000000D+00
  <mgrwgt>
 0.7521778924D-01   41    2    0
 0.356188741440339D+03 0.000000000000000D+00 0.000000000000000D+00 0.356188741440339D+03
 0.356188741440339D+03 0.000000000000000D+00 0.000000000000000D+00 -.356188741440339D+03
 0.273062768757914D+03 -.151295057664696D+03 0.494802682373216D+02 0.183302439326750D+03
 0.134537392281561D+03 -.102220201805497D+03 0.190721939625824D+02 -.286422018680317D+02
 0.304777321841202D+03 0.253515259470193D+03 -.685524621999040D+02 -.154660237458719D+03
 0.000000000000000D+00 -.000000000000000D+00 0.000000000000000D+00 -.000000000000000D+00
 0.358097968872477D+03 0.000000000000000D+00 0.000000000000000D+00 0.358097968872477D+03
 0.365811198761720D+03 0.000000000000000D+00 0.000000000000000D+00 -.365811198761720D+03
 0.272472795378099D+03 -.151261180071123D+03 0.462244022298814D+02 0.183302439326750D+03
 0.134306620318654D+03 -.102203506673608D+03 0.174676788045008D+02 -.286422018680317D+02
 0.305648823439830D+03 0.253553166749234D+03 -.721956082514741D+02 -.154660237458719D+03
 0.114809284976144D+02 -.884800045030662D-01 0.850352721709189D+01 -.771322988924316D+01
0.443166205446D-04 0.000000000000D+00 0.000000000000D+00 0.177146597466D-06 0.000000000000D+00  6 1 21 25 -24 2 21 2 0.28566153D-01 0.10511917D+00 0.88943480D+05 0.88943480D+05 0.88943480D+05 0.11682753D+01  1  2  2  2  6  2       21 0.738176604611D-02 0.100000000000D+01
-.332100349491D-05 0.233865231698D-05 -.894624886951D-07 0.177146597466D-06 0.000000000000D+00  6 1 21 25 -24 2 21 4 0.28566153D-01 0.10511917D+00 0.88943480D+05 0.88943480D+05 0.88943480D+05 0.11682753D+01  1  2  3  2  6  2       21 -.755011138256D-03 0.100000000000D+01
0.472189428880D-05 0.000000000000D+00 0.000000000000D+00 0.177146597466D-06 0.000000000000D+00  6 1 21 25 -24 2 21 4 0.28566153D-01 0.10511917D+00 0.88943480D+05 0.88943480D+05 0.88943480D+05 0.11682753D+01  1  2 15  2  6  2       21 0.107349564286D-02 0.100000000000D+01
0.116754339585D-03 0.000000000000D+00 0.000000000000D+00 0.176801336326D-06 0.000000000000D+00  6 1 21 25 -24 2 21 4 0.28566153D-01 0.10823602D+00 0.91491090D+05 0.91491090D+05 0.91491090D+05 0.11671362D+01  1  2 12  2  6  2       21 0.245871611744D-01 0.100000000000D+01
0.865461690072D-04 0.000000000000D+00 0.000000000000D+00 0.176801336326D-06 0.000000000000D+00  6 1 21 25 -24 2 21 4 0.28566153D-01 0.10928948D+00 0.91491090D+05 0.91491090D+05 0.91491090D+05 0.11671362D+01  1  2 12  2  6  2       21 0.177984380988D-01 0.100000000000D+01
-.133958456578D-03 0.000000000000D+00 0.000000000000D+00 0.177146597466D-06 0.000000000000D+00  6 1 21 25 -24 2 21 4 0.28566153D-01 0.10511917D+00 0.88943480D+05 0.88943480D+05 0.88943480D+05 0.11682753D+01  1  2  4  2  6  2       21 -.304546884503D-01 0.100000000000D+01
-.368641308391D-02 0.000000000000D+00 -.411416637390D-03 0.177146597466D-06 0.000000000000D+00  6 1 21 25 -24 2 21 4 0.28566153D-01 0.10831711D+00 0.88943480D+05 0.88943480D+05 0.88943480D+05 0.11682753D+01  1  2  5  2  6  2       21 -.778993614538D+00 0.100000000000D+01
0.369211929172D-02 0.000000000000D+00 0.410678581183D-03 0.177146597466D-06 0.000000000000D+00  6 1 21 25 -24 2 21 4 0.28566153D-01 0.10511917D+00 0.88943480D+05 0.88943480D+05 0.88943480D+05 0.11682753D+01  1  2  6  2  6  2       21 0.839382190742D+00 0.100000000000D+01
0.929665747057D-06 0.000000000000D+00 0.000000000000D+00 0.177146597466D-06 0.291740492116D-07  6 1 21 25 -24 2 21 4 0.28719272D-01 0.10795897D+00 0.91491090D+05 0.91491090D+05 0.91491090D+05 0.11671362D+01  1  2 11  2  6  2       21 0.195671176282D-03 0.100000000000D+01
0.453539112024D-05 0.000000000000D+00 0.000000000000D+00 0.176801336326D-06 0.000000000000D+00  6 1 -1 25 -24 2 -1 4 0.28566153D-01 0.10823602D+00 0.91491090D+05 0.91491090D+05 0.91491090D+05 0.11671362D+01  1  2 12  5  6  2       21 0.114657811113D-03 0.100000000000D+01
0.453888071618D-05 0.000000000000D+00 0.000000000000D+00 0.176801336326D-06 0.000000000000D+00  6 1 -1 25 -24 2 -1 4 0.28566153D-01 0.10928948D+00 0.91491090D+05 0.91491090D+05 0.91491090D+05 0.11671362D+01  1  2 12  5  6  2       21 0.112211454606D-03 0.100000000000D+01
-.229566384108D-04 0.000000000000D+00 -.286333299515D-05 0.177146597466D-06 0.000000000000D+00  6 1 -1 25 -24 2 -1 4 0.28566153D-01 0.10831711D+00 0.88943480D+05 0.88943480D+05 0.88943480D+05 0.11682753D+01  1  2  5  5  6  2       21 -.581905768737D-03 0.100000000000D+01
0.112191372495D-07 0.000000000000D+00 0.000000000000D+00 0.177146597466D-06 0.249223186703D-09  6 1 -1 25 -24 2 -1 4 0.28719272D-01 0.10795897D+00 0.91491090D+05 0.91491090D+05 0.91491090D+05 0.11671362D+01  1  2 11  5  6  2       21 0.283368620830D-06 0.100000000000D+01
0.453539112024D-05 0.000000000000D+00 0.000000000000D+00 0.176801336326D-06 0.000000000000D+00  6 1 1 25 -24 2 1 4 0.28566153D-01 0.10823602D+00 0.91491090D+05 0.91491090D+05 0.91491090D+05 0.11671362D+01  1  2 12  6  6  2       21 0.452551500832D-03 0.100000000000D+01
0.453888071618D-05 0.000000000000D+00 0.000000000000D+00 0.176801336326D-06 0.000000000000D+00  6 1 1 25 -24 2 1 4 0.28566153D-01 0.10928948D+00 0.91491090D+05 0.91491090D+05 0.91491090D+05 0.11671362D+01  1  2 12  6  6  2       21 0.446472057421D-03 0.100000000000D+01
-.229566384108D-04 0.000000000000D+00 -.286333299515D-05 0.177146597466D-06 0.000000000000D+00  6 1 1 25 -24 2 1 4 0.28566153D-01 0.10831711D+00 0.88943480D+05 0.88943480D+05 0.88943480D+05 0.11682753D+01  1  2  5  6  6  2       21 -.229800923281D-02 0.100000000000D+01
0.116267772754D-07 0.000000000000D+00 0.000000000000D+00 0.177146597466D-06 0.281470199409D-09  6 1 1 25 -24 2 1 4 0.28719272D-01 0.10795897D+00 0.91491090D+05 0.91491090D+05 0.91491090D+05 0.11671362D+01  1  2 11  6  6  2       21 0.115662711421D-05 0.100000000000D+01
0.453539112024D-05 0.000000000000D+00 0.000000000000D+00 0.176801336326D-06 0.000000000000D+00  6 1 -2 25 -24 2 -2 4 0.28566153D-01 0.10823602D+00 0.91491090D+05 0.91491090D+05 0.91491090D+05 0.11671362D+01  1  2 12  7  6  2       21 0.852017496732D-04 0.100000000000D+01
0.453888071618D-05 0.000000000000D+00 0.000000000000D+00 0.176801336326D-06 0.000000000000D+00  6 1 -2 25 -24 2 -2 4 0.28566153D-01 0.10928948D+00 0.91491090D+05 0.91491090D+05 0.91491090D+05 0.11671362D+01  1  2 12  7  6  2       21 0.833232477091D-04 0.100000000000D+01
-.229566384108D-04 0.000000000000D+00 -.286333299515D-05 0.177146597466D-06 0.000000000000D+00  6 1 -2 25 -24 2 -2 4 0.28566153D-01 0.10831711D+00 0.88943480D+05 0.88943480D+05 0.88943480D+05 0.11682753D+01  1  2  5  7  6  2       21 -.432317256402D-03 0.100000000000D+01
0.132761420469D-07 0.000000000000D+00 0.000000000000D+00 0.177146597466D-06 0.388977474801D-09  6 1 -2 25 -24 2 -2 4 0.28719272D-01 0.10795897D+00 0.91491090D+05 0.91491090D+05 0.91491090D+05 0.11671362D+01  1  2 11  7  6  2       21 0.249226817397D-06 0.100000000000D+01
0.453539112024D-05 0.000000000000D+00 0.000000000000D+00 0.176801336326D-06 0.000000000000D+00  6 1 2 25 -24 2 2 4 0.28566153D-01 0.10823602D+00 0.91491090D+05 0.91491090D+05 0.91491090D+05 0.11671362D+01  1  2 12  8  6  2       21 0.766671236566D-03 0.100000000000D+01
0.453888071618D-05 0.000000000000D+00 0.000000000000D+00 0.176801336326D-06 0.000000000000D+00  6 1 2 25 -24 2 2 4 0.28566153D-01 0.10928948D+00 0.91491090D+05 0.91491090D+05 0.91491090D+05 0.11671362D+01  1  2 12  8  6  2       21 0.758185322401D-03 0.100000000000D+01
-.229566384108D-04 0.000000000000D+00 -.286333299515D-05 0.177146597466D-06 0.000000000000D+00  6 1 2 25 -24 2 2 4 0.28566153D-01 0.10831711D+00 0.88943480D+05 0.88943480D+05 0.88943480D+05 0.11682753D+01  1  2  5  8  6  2       21 -.389327250192D-02 0.100000000000D+01
0.114482689150D-07 0.000000000000D+00 0.000000000000D+00 0.177146597466D-06 0.127657801527D-09  6 1 2 25 -24 2 2 4 0.28719272D-01 0.10795897D+00 0.91491090D+05 0.91491090D+05 0.91491090D+05 0.11671362D+01  1  2 11  8  6  2       21 0.192814956504D-05 0.100000000000D+01
0.453539112024D-05 0.000000000000D+00 0.000000000000D+00 0.176801336326D-06 0.000000000000D+00  6 1 -3 25 -24 2 -3 4 0.28566153D-01 0.10823602D+00 0.91491090D+05 0.91491090D+05 0.91491090D+05 0.11671362D+01  1  2 12  9  6  2       21 0.550134267707D-04 0.100000000000D+01
0.453539112024D-05 0.000000000000D+00 0.000000000000D+00 0.176801336326D-06 0.000000000000D+00  6 1 -4 25 -24 2 -4 4 0.28566153D-01 0.10823602D+00 0.91491090D+05 0.91491090D+05 0.91491090D+05 0.11671362D+01  1  2 12  9  6  2       21 0.444075446120D-04 0.100000000000D+01
0.453888071618D-05 0.000000000000D+00 0.000000000000D+00 0.176801336326D-06 0.000000000000D+00  6 1 -3 25 -24 2 -3 4 0.28566153D-01 0.10928948D+00 0.91491090D+05 0.91491090D+05 0.91491090D+05 0.11671362D+01  1  2 12  9  6  2       21 0.538159092291D-04 0.100000000000D+01
0.453888071618D-05 0.000000000000D+00 0.000000000000D+00 0.176801336326D-06 0.000000000000D+00  6 1 -4 25 -24 2 -4 4 0.28566153D-01 0.10928948D+00 0.91491090D+05 0.91491090D+05 0.91491090D+05 0.11671362D+01  1  2 12  9  6  2       21 0.434216045353D-04 0.100000000000D+01
-.229566384108D-04 0.000000000000D+00 -.286333299515D-05 0.177146597466D-06 0.000000000000D+00  6 1 -3 25 -24 2 -3 4 0.28566153D-01 0.10831711D+00 0.88943480D+05 0.88943480D+05 0.88943480D+05 0.11682753D+01  1  2  5  9  6  2       21 -.279032840189D-03 0.100000000000D+01
-.229566384108D-04 0.000000000000D+00 -.286333299515D-05 0.177146597466D-06 0.000000000000D+00  6 1 -4 25 -24 2 -4 4 0.28566153D-01 0.10831711D+00 0.88943480D+05 0.88943480D+05 0.88943480D+05 0.11682753D+01  1  2  5  9  6  2       21 -.225181716955D-03 0.100000000000D+01
0.112105456036D-07 0.000000000000D+00 0.000000000000D+00 0.177146597466D-06 0.249032330907D-09  6 1 -3 25 -24 2 -3 4 0.28719272D-01 0.10795897D+00 0.91491090D+05 0.91491090D+05 0.91491090D+05 0.11671362D+01  1  2 11  9  6  2       21 0.135874325882D-06 0.100000000000D+01
0.112105456036D-07 0.000000000000D+00 0.000000000000D+00 0.177146597466D-06 0.249032330907D-09  6 1 -4 25 -24 2 -4 4 0.28719272D-01 0.10795897D+00 0.91491090D+05 0.91491090D+05 0.91491090D+05 0.11671362D+01  1  2 11  9  6  2       21 0.109692371059D-06 0.100000000000D+01
0.453539112024D-05 0.000000000000D+00 0.000000000000D+00 0.176801336326D-06 0.000000000000D+00  6 1 3 25 -24 2 3 4 0.28566153D-01 0.10823602D+00 0.91491090D+05 0.91491090D+05 0.91491090D+05 0.11671362D+01  1  2 12 10  6  2       21 0.551385724770D-04 0.100000000000D+01
0.453539112024D-05 0.000000000000D+00 0.000000000000D+00 0.176801336326D-06 0.000000000000D+00  6 1 4 25 -24 2 4 4 0.28566153D-01 0.10823602D+00 0.91491090D+05 0.91491090D+05 0.91491090D+05 0.11671362D+01  1  2 12 10  6  2       21 0.444075446120D-04 0.100000000000D+01
0.453888071618D-05 0.000000000000D+00 0.000000000000D+00 0.176801336326D-06 0.000000000000D+00  6 1 3 25 -24 2 3 4 0.28566153D-01 0.10928948D+00 0.91491090D+05 0.91491090D+05 0.91491090D+05 0.11671362D+01  1  2 12 10  6  2       21 0.539404281275D-04 0.100000000000D+01
0.453888071618D-05 0.000000000000D+00 0.000000000000D+00 0.176801336326D-06 0.000000000000D+00  6 1 4 25 -24 2 4 4 0.28566153D-01 0.10928948D+00 0.91491090D+05 0.91491090D+05 0.91491090D+05 0.11671362D+01  1  2 12 10  6  2       21 0.434216045353D-04 0.100000000000D+01
-.229566384108D-04 0.000000000000D+00 -.286333299515D-05 0.177146597466D-06 0.000000000000D+00  6 1 3 25 -24 2 3 4 0.28566153D-01 0.10831711D+00 0.88943480D+05 0.88943480D+05 0.88943480D+05 0.11682753D+01  1  2  5 10  6  2       21 -.279668310697D-03 0.100000000000D+01
-.229566384108D-04 0.000000000000D+00 -.286333299515D-05 0.177146597466D-06 0.000000000000D+00  6 1 4 25 -24 2 4 4 0.28566153D-01 0.10831711D+00 0.88943480D+05 0.88943480D+05 0.88943480D+05 0.11682753D+01  1  2  5 10  6  2       21 -.225181716955D-03 0.100000000000D+01
0.112105456036D-07 0.000000000000D+00 0.000000000000D+00 0.177146597466D-06 0.249032330907D-09  6 1 3 25 -24 2 3 4 0.28719272D-01 0.10795897D+00 0.91491090D+05 0.91491090D+05 0.91491090D+05 0.11671362D+01  1  2 11 10  6  2       21 0.136182025901D-06 0.100000000000D+01
0.112105456036D-07 0.000000000000D+00 0.000000000000D+00 0.177146597466D-06 0.249032330907D-09  6 1 4 25 -24 2 4 4 0.28719272D-01 0.10795897D+00 0.91491090D+05 0.91491090D+05 0.91491090D+05 0.11671362D+01  1  2 11 10  6  2       21 0.109692371059D-06 0.100000000000D+01
  </mgrwgt>
  </event>
  <event>
  6     66 0.42980143E-03 0.34554853E+02 0.75467711E-02 0.12304512E+00
        1 -1    0    0  502    0 0.00000000E+00 0.00000000E+00 0.11621411E+04 0.11621412E+04 0.32000000E+00 0.0000E+00 0.9000E+01
       21 -1    0    0  501  502 0.00000000E+00 0.00000000E+00 -.22731796E+02 0.22744165E+02 0.75000000E+00 0.0000E+00 0.9000E+01
       25  1    1    2    0    0 0.26867056E+02 -.35180647E+00 0.73918466E+03 0.75016059E+03 0.12500000E+03 0.0000E+00 0.9000E+01
      -24  1    1    2    0    0 0.92502845E-01 -.26738145E+02 0.37481490E+03 0.38427641E+03 0.80419002E+02 0.0000E+00 0.9000E+01
        2  1    1    2  503    0 -.22059247E+02 0.30295362E+02 0.20196604E+02 0.42572580E+02 0.32000000E+00 0.0000E+00 0.9000E+01
       21  1    1    2  501  503 -.49003115E+01 -.32054105E+01 0.52131652E+01 0.78757413E+01 0.75000000E+00 0.0000E+00 0.9000E+01
#aMCatNLO 2  0  0  5  5 0.62986088D+01 0.00000000D+00  -5  6  0 0.00000000D+00 0.00000000D+00 0.00000000D+00 0.00000000D+00 0.00000000D+00
  <mgrwgt>
 0.7947312623D-01    2    2    0
 0.162557400537562D+03 0.000000000000000D+00 0.000000000000000D+00 0.162557400537562D+03
 0.162557400537562D+03 -.000000000000000D+00 -.000000000000000D+00 -.162557400537562D+03
 0.143885391207563D+03 0.271699086033636D+02 -.656123869670708D+00 0.658739050831669D+02
 0.870965048573167D+02 0.275940937987077D+00 -.269224700264587D+02 0.198416145578738D+02
 0.941329050102445D+02 -.274458495413507D+02 0.275785938961294D+02 -.857155196410407D+02
 0.000000000000000D+00 0.000000000000000D+00 0.000000000000000D+00 -.000000000000000D+00
 0.162557400537562D+03 0.000000000000000D+00 0.000000000000000D+00 0.162557400537562D+03
 0.162557400537562D+03 -.000000000000000D+00 -.000000000000000D+00 -.162557400537562D+03
 0.143394604256154D+03 0.268657416189983D+02 -.350485753940914D+00 0.649239679685135D+02
 0.869097104075784D+02 0.917062311028919D-01 -.267373442516098D+02 0.192662352600787D+02
 0.843831272418312D+02 -.220401649751093D+02 0.303439686533738D+02 -.755909178231361D+02
 0.104273591695608D+02 -.491728287499182D+01 -.325613864782309D+01 -.859928540545606D+01
-.162313261905D-05 0.000000000000D+00 0.000000000000D+00 0.224300122804D-05 0.000000000000D+00  6 1 21 25 -24 2 21 4 0.17879190D+00 0.34981542D-02 0.15830045D+05 0.15830045D+05 0.15830045D+05 0.12451647D+01  1  2  8  3  6  5        2 -.263579544345D-01 0.100000000000D+01
0.655254551450D-05 0.000000000000D+00 0.000000000000D+00 0.224300122804D-05 0.716551242395D-06  6 1 21 25 -24 2 21 4 0.17879190D+00 0.34981542D-02 0.16384460D+05 0.16384460D+05 0.16384460D+05 0.12434752D+01  1  2  1  3  6  5        2 0.105831080669D+00 0.100000000000D+01
  </mgrwgt>
  </event>
  <event>
  5     66 0.42980143E-03 0.30116187E+02 0.75467711E-02 0.98795496E-01
        1 -1    0    0  502    0 0.00000000E+00 0.00000000E+00 0.10855466E+04 0.10855467E+04 0.32000000E+00 0.0000E+00 0.9000E+01
       21 -1    0    0  501  502 0.00000000E+00 0.00000000E+00 -.30071613E+02 0.30080965E+02 0.75000000E+00 0.0000E+00 0.9000E+01
       25  1    1    2    0    0 0.69063057E+01 -.35783150E+02 0.42169360E+03 0.44133732E+03 0.12500000E+03 0.0000E+00 0.9000E+01
      -24  1    1    2    0    0 0.17279312E+02 0.17837819E+02 0.63830898E+03 0.64383409E+03 0.80419002E+02 0.0000E+00 0.9000E+01
        2  1    1    2  501    0 -.24185618E+02 0.17945332E+02 -.45275977E+01 0.30456208E+02 0.32000000E+00 0.0000E+00 0.9000E+01
#aMCatNLO 1  0  0  2  1 0.13637572D+02 0.00000000D+00  -5  6  0 0.00000000D+00 0.00000000D+00 0.00000000D+00 0.00000000D+00 0.00000000D+00
  <mgrwgt>
 0.1309864585D+00    3    2    0
 0.180691395140984D+03 0.000000000000000D+00 0.000000000000000D+00 0.180691395140984D+03
 0.180691395140984D+03 0.000000000000000D+00 0.000000000000000D+00 -.180691395140984D+03
 0.130833718926442D+03 0.690634464151871D+01 -.357831792863488D+02 0.128190675158868D+02
 0.123304060108101D+03 0.172793491467980D+02 0.178377914275675D+02 0.901105575103232D+02
 0.107245011247426D+03 -.241856937883167D+02 0.179453878587813D+02 -.102929625026210D+03
 0.000000000000000D+00 0.000000000000000D+00 0.000000000000000D+00 0.000000000000000D+00
 0.654614164529446D+03 0.000000000000000D+00 0.000000000000000D+00 0.654614164529446D+03
 0.616489859503781D+03 0.000000000000000D+00 0.000000000000000D+00 -.616489859503781D+03
 0.243200096541815D+03 -.200345741054561D+03 -.567321999156555D+02 0.128190675158868D+02
 0.203528530020283D+03 -.163818544081811D+03 -.467565975365787D+00 0.901105575103232D+02
 0.239623342042064D+03 -.216385400628225D+03 -.148213978231738D+01 -.102929625026210D+03
 0.584752055429065D+03 0.580549685764597D+03 0.586819056733387D+02 0.381243050256647D+02
0.129805486426D-04 0.000000000000D+00 0.000000000000D+00 0.333133132267D-05 0.000000000000D+00  6 1 21 25 -24 2 21 2 0.16700789D+00 0.46271250D-02 0.14943444D+05 0.14943444D+05 0.14943444D+05 0.12480096D+01  1  2  2  2  6  2       21 0.970765855923D-01 0.100000000000D+01
0.163108059148D-05 0.685002371246D-06 -.262039878475D-07 0.333133132267D-05 0.000000000000D+00  6 1 21 25 -24 2 21 4 0.16700789D+00 0.46271250D-02 0.14943444D+05 0.14943444D+05 0.14943444D+05 0.12480096D+01  1  2  3  2  6  2       21 0.189990863723D-01 0.100000000000D+01
0.128009811231D-05 0.000000000000D+00 0.000000000000D+00 0.333133132267D-05 0.000000000000D+00  6 1 21 25 -24 2 21 4 0.16700789D+00 0.46271250D-02 0.14943444D+05 0.14943444D+05 0.14943444D+05 0.12480096D+01  1  2 15  2  6  2       21 0.149107865839D-01 0.100000000000D+01
  </mgrwgt>
  </event>
  <event>
  5     66 0.42980143E-03 0.28353689E+02 0.75467711E-02 0.10528637E+00
        1 -1    0    0  502    0 0.00000000E+00 0.00000000E+00 0.12407868E+04 0.12407869E+04 0.32000000E+00 0.0000E+00 0.9000E+01
       21 -1    0    0  501  502 0.00000000E+00 0.00000000E+00 -.57855500E+02 0.57860361E+02 0.75000000E+00 0.0000E+00 0.9000E+01
       25  1    1    2    0    0 -.34928918E+02 -.10590541E+03 0.66809509E+03 0.68877575E+03 0.12500000E+03 0.0000E+00 0.9000E+01
      -24  1    1    2    0    0 0.36784169E+02 0.77612504E+02 0.55127974E+03 0.56369615E+03 0.80419002E+02 0.0000E+00 0.9000E+01
        2  1    1    2  501    0 -.18552504E+01 0.28292902E+02 -.36443503E+02 0.46175335E+02 0.32000000E+00 0.0000E+00 0.9000E+01
#aMCatNLO 1  0  0  2  2 0.44288203D+03 0.00000000D+00  -5  6  0 0.00000000D+00 0.00000000D+00 0.00000000D+00 0.00000000D+00 0.00000000D+00
  <mgrwgt>
 0.4566647517D+00   12    2    0
 0.267935673880678D+03 0.000000000000000D+00 0.000000000000000D+00 0.267935673880678D+03
 0.267935673880678D+03 0.000000000000000D+00 0.000000000000000D+00 -.267935673880678D+03
 0.194386465681353D+03 -.349289172520074D+02 -.105905419610164D+03 0.986159767831018D+02
 0.149133525700874D+03 0.367841693366592D+02 0.776124929294385D+02 0.916341549919704D+02
 0.192351356379129D+03 -.185525208465180D+01 0.282929266807258D+02 -.190250131775072D+03
 0.000000000000000D+00 -.000000000000000D+00 -.000000000000000D+00 -.000000000000000D+00
 0.389391891163940D+03 0.000000000000000D+00 0.000000000000000D+00 0.389391891163940D+03
 0.559782101860778D+03 0.000000000000000D+00 0.000000000000000D+00 -.559782101860778D+03
 0.164042264203556D+03 0.209588297552727D+02 -.334735869520048D+02 0.986159767831018D+02
 0.215744269257352D+03 0.936774822687655D+02 0.151347562642122D+03 0.916341549919704D+02
 0.230774098732142D+03 0.641202861909550D+02 0.113798773736759D+03 -.190250131775072D+03
 0.338613360831668D+03 -.178756598214993D+03 -.231672749426876D+03 -.170390210696837D+03
0.127561781224D-03 0.000000000000D+00 0.000000000000D+00 0.695756960491D-05 0.000000000000D+00  6 1 21 25 -24 2 21 2 0.19089066D+00 0.89012232D-02 0.24575001D+05 0.24575001D+05 0.24575001D+05 0.12240968D+01  1  2  2  2  6  2       21 0.233253684058D+00 0.100000000000D+01
0.341392851755D-04 0.673162013599D-05 -.257510484112D-06 0.695756960491D-05 0.000000000000D+00  6 1 21 25 -24 2 21 4 0.19089066D+00 0.89012232D-02 0.24575001D+05 0.24575001D+05 0.24575001D+05 0.12240968D+01  1  2  3  2  6  2       21 0.935392507618D-01 0.100000000000D+01
0.114030911252D-04 0.000000000000D+00 0.000000000000D+00 0.695756960491D-05 0.000000000000D+00  6 1 21 25 -24 2 21 4 0.19089066D+00 0.89012232D-02 0.24575001D+05 0.24575001D+05 0.24575001D+05 0.12240968D+01  1  2 15  2  6  2       21 0.312436711764D-01 0.100000000000D+01
0.221074357692D-03 0.000000000000D+00 -.333588141132D-03 0.695756960491D-05 0.000000000000D+00  6 1 21 25 -24 2 21 4 0.19089066D+00 0.27535431D-01 0.24575001D+05 0.24575001D+05 0.24575001D+05 0.12240968D+01  1  2  5  2  6  2       21 0.773364166484D-01 0.100000000000D+01
0.908972872778D-04 0.000000000000D+00 -.119840095388D-03 0.695756960491D-05 0.000000000000D+00  6 1 -1 25 -24 2 -1 4 0.19089066D+00 0.27535431D-01 0.24575001D+05 0.24575001D+05 0.24575001D+05 0.12240968D+01  1  2  5  5  6  2       21 0.270300370871D-02 0.100000000000D+01
0.908972872778D-04 0.000000000000D+00 -.119840095388D-03 0.695756960491D-05 0.000000000000D+00  6 1 1 25 -24 2 1 4 0.19089066D+00 0.27535431D-01 0.24575001D+05 0.24575001D+05 0.24575001D+05 0.12240968D+01  1  2  5  6  6  2       21 0.458002673066D-02 0.100000000000D+01
0.908972872778D-04 0.000000000000D+00 -.119840095388D-03 0.695756960491D-05 0.000000000000D+00  6 1 -2 25 -24 2 -2 4 0.19089066D+00 0.27535431D-01 0.24575001D+05 0.24575001D+05 0.24575001D+05 0.12240968D+01  1  2  5  7  6  2       21 0.239598140616D-02 0.100000000000D+01
0.908972872778D-04 0.000000000000D+00 -.119840095388D-03 0.695756960491D-05 0.000000000000D+00  6 1 2 25 -24 2 2 4 0.19089066D+00 0.27535431D-01 0.24575001D+05 0.24575001D+05 0.24575001D+05 0.12240968D+01  1  2  5  8  6  2       21 0.593603764489D-02 0.100000000000D+01
0.908972872778D-04 0.000000000000D+00 -.119840095388D-03 0.695756960491D-05 0.000000000000D+00  6 1 -3 25 -24 2 -3 4 0.19089066D+00 0.27535431D-01 0.24575001D+05 0.24575001D+05 0.24575001D+05 0.12240968D+01  1  2  5  9  6  2       21 0.153945900285D-02 0.100000000000D+01
0.908972872778D-04 0.000000000000D+00 -.119840095388D-03 0.695756960491D-05 0.000000000000D+00  6 1 -4 25 -24 2 -4 4 0.19089066D+00 0.27535431D-01 0.24575001D+05 0.24575001D+05 0.24575001D+05 0.12240968D+01  1  2  5  9  6  2       21 0.129888867725D-02 0.100000000000D+01
0.908972872778D-04 0.000000000000D+00 -.119840095388D-03 0.695756960491D-05 0.000000000000D+00  6 1 3 25 -24 2 3 4 0.19089066D+00 0.27535431D-01 0.24575001D+05 0.24575001D+05 0.24575001D+05 0.12240968D+01  1  2  5 10  6  2       21 0.153944323322D-02 0.100000000000D+01
0.908972872778D-04 0.000000000000D+00 -.119840095388D-03 0.695756960491D-05 0.000000000000D+00  6 1 4 25 -24 2 4 4 0.19089066D+00 0.27535431D-01 0.24575001D+05 0.24575001D+05 0.24575001D+05 0.12240968D+01  1  2  5 10  6  2       21 0.129888867725D-02 0.100000000000D+01
  </mgrwgt>
  </event>
  <event>
  6     66 0.42980143E-03 0.50947764E+02 0.75467711E-02 0.12070694E+00
        1 -1    0    0  503    0 0.00000000E+00 0.00000000E+00 0.11228898E+04 0.11228898E+04 0.32000000E+00 0.0000E+00 0.9000E+01
       21 -1    0    0  501  502 0.00000000E+00 0.00000000E+00 -.21359738E+02 0.21372902E+02 0.75000000E+00 0.0000E+00 0.9000E+01
       25  1    1    2    0    0 -.10813929E+02 -.77395034E+02 0.40142728E+03 0.42763979E+03 0.12500000E+03 0.0000E+00 0.9000E+01
      -24  1    1    2    0    0 -.28395707E+01 0.29835082E+02 0.44076695E+03 0.44904445E+03 0.80419002E+02 0.0000E+00 0.9000E+01
        2  1    1    2  501    0 0.54500411E+00 -.35068604E+01 0.93373319E+02 0.93441287E+02 0.32000000E+00 0.0000E+00 0.9000E+01
       21  1    1    2  503  502 0.13108495E+02 0.51066812E+02 0.16596246E+03 0.17413717E+03 0.75000000E+00 0.0000E+00 0.9000E+01
#aMCatNLO 2  0  0  1  2 0.17099278D+03 0.00000000D+00  -5  6  0 0.00000000D+00 0.00000000D+00 0.00000000D+00 0.00000000D+00 0.00000000D+00
  <mgrwgt>
 0.1450887765D-01    1    2    0
 0.125575924266979D+03 0.000000000000000D+00 0.000000000000000D+00 0.125575924266979D+03
 0.125575924266979D+03 0.000000000000000D+00 0.000000000000000D+00 -.125575924266979D+03
 0.140186221697270D+03 -.324160331497010D+01 -.478944562086235D+02 -.415065034203640D+02
 0.985399169614693D+02 0.204420775052264D+01 0.488615683565112D+02 0.291764910984413D+02
 0.124257098752191D+02 0.119739556444746D+01 -.967112147887625D+00 0.123300123219227D+02
 0.000000000000000D+00 0.000000000000000D+00 0.000000000000000D+00 -.000000000000000D+00
 0.151209800442234D+03 0.000000000000000D+00 0.000000000000000D+00 0.151209800442234D+03
 0.158662784179563D+03 0.000000000000000D+00 0.000000000000000D+00 -.158662784179563D+03
 0.153149336035990D+03 -.108141822715182D+02 -.773949789319581D+02 -.415065034203640D+02
 0.906459723934279D+02 -.283970436594661D+01 0.298352945867165D+02 0.291764910984413D+02
 0.128306898816969D+02 0.545391140587928D+00 -.350712809650320D+01 0.123300123219227D+02
 0.532465863106817D+02 0.131084954968769D+02 0.510668124417448D+02 -.745298373732930D+01
0.790899174796D-06 0.000000000000D+00 0.000000000000D+00 0.675377414836D-06 0.301494858609D-08  6 1 21 25 -24 2 21 4 0.17275033D+00 0.32870735D-02 0.20954194D+05 0.20954194D+05 0.20954194D+05 0.12316039D+01  1  2  1  1  6  1        1 0.145088776511D-01 0.100000000000D+01
  </mgrwgt>
  </event>
  <event>
  5     66 0.42980143E-03 0.20899677E+02 0.75467711E-02 0.11839852E+00
        1 -1    0    0  502    0 0.00000000E+00 0.00000000E+00 0.51727269E+03 0.51727279E+03 0.32000000E+00 0.0000E+00 0.9000E+01
       21 -1    0    0  501  502 0.00000000E+00 0.00000000E+00 -.61967651E+02 0.61972190E+02 0.75000000E+00 0.0000E+00 0.9000E+01
       25  1    1    2    0    0 0.84913117E+02 -.55311995E+02 0.29710446E+03 0.33788418E+03 0.12500000E+03 0.0000E+00 0.9000E+01
      -24  1    1    2    0    0 -.64186473E+02 0.57994420E+02 0.17730499E+03 0.21304350E+03 0.80419002E+02 0.0000E+00 0.9000E+01
        2  1    1    2  501    0 -.20726644E+02 -.26824244E+01 -.19104410E+02 0.28317310E+02 0.32000000E+00 0.0000E+00 0.9000E+01
#aMCatNLO 1  0  0  2  5 0.76352441D+02 0.00000000D+00  -5  6  0 0.00000000D+00 0.00000000D+00 0.00000000D+00 0.00000000D+00 0.00000000D+00
  <mgrwgt>
 0.1549979061D+00   14    2    0
 0.179040546095647D+03 0.000000000000000D+00 0.000000000000000D+00 0.179040546095647D+03
 0.179040546095647D+03 0.000000000000000D+00 0.000000000000000D+00 -.179040546095647D+03
 0.168801445329645D+03 0.849132191353989D+02 -.553119819573880D+02 0.509829168779750D+02
 0.119181158612084D+03 -.641864014897079D+02 0.579944288205749D+02 0.159274826424503D+02
 0.700984882495655D+02 -.207268176456910D+02 -.268244686318693D+01 -.669103995204253D+02
 0.000000000000000D+00 0.000000000000000D+00 -.000000000000000D+00 -.000000000000000D+00
 0.187378059914308D+03 0.000000000000000D+00 0.000000000000000D+00 0.187378059914308D+03
 0.198970547376788D+03 0.000000000000000D+00 0.000000000000000D+00 -.198970547376788D+03
 0.162611782007586D+03 0.737220697934660D+02 -.527578454797330D+02 0.509829168779750D+02
 0.124702529823608D+03 -.724218566683510D+02 0.598739923791676D+02 0.159274826424503D+02
 0.716269706543150D+02 -.255125975884251D+02 -.159019666150607D+01 -.669103995204253D+02
 0.274073248055871D+02 0.242123844633101D+02 -.552595023792854D+01 -.115924874624797D+02
0.671741470265D-05 0.000000000000D+00 0.000000000000D+00 0.286378164365D-05 0.000000000000D+00  6 1 21 25 -24 2 21 2 0.79580771D-01 0.95338416D-02 0.22489496D+05 0.22489496D+05 0.22489496D+05 0.12282560D+01  1  2  2  2  6  2       21 0.427245054455D-01 0.100000000000D+01
0.127745452365D-05 0.354487712859D-06 -.135605249117D-07 0.286378164365D-05 0.000000000000D+00  6 1 21 25 -24 2 21 4 0.79580771D-01 0.95338416D-02 0.22489496D+05 0.22489496D+05 0.22489496D+05 0.12282560D+01  1  2  3  2  6  2       21 0.122573942616D-01 0.100000000000D+01
0.658007469658D-06 0.000000000000D+00 0.000000000000D+00 0.286378164365D-05 0.000000000000D+00  6 1 21 25 -24 2 21 4 0.79580771D-01 0.95338416D-02 0.22489496D+05 0.22489496D+05 0.22489496D+05 0.12282560D+01  1  2 15  2  6  2       21 0.631369401678D-02 0.100000000000D+01
-.463053835428D-05 0.000000000000D+00 0.000000000000D+00 0.286378164365D-05 0.000000000000D+00  6 1 21 25 -24 2 21 4 0.79580771D-01 0.95338416D-02 0.22489496D+05 0.22489496D+05 0.22489496D+05 0.12282560D+01  1  2  4  2  6  2       21 -.444308061079D-01 0.100000000000D+01
-.668913730749D-04 0.000000000000D+00 -.152736309019D-04 0.286378164365D-05 0.000000000000D+00  6 1 21 25 -24 2 21 4 0.79580771D-01 0.11076194D-01 0.22489496D+05 0.22489496D+05 0.22489496D+05 0.12282560D+01  1  2  5  2  6  2       21 -.493010815239D+00 0.100000000000D+01
0.665628603682D-04 0.000000000000D+00 0.146080577086D-04 0.286378164365D-05 0.000000000000D+00  6 1 21 25 -24 2 21 4 0.79580771D-01 0.95338416D-02 0.22489496D+05 0.22489496D+05 0.22489496D+05 0.12282560D+01  1  2  6  2  6  2       21 0.638682009894D+00 0.100000000000D+01
-.210471846524D-05 0.000000000000D+00 -.621954948340D-06 0.286378164365D-05 0.000000000000D+00  6 1 -1 25 -24 2 -1 4 0.79580771D-01 0.11076194D-01 0.22489496D+05 0.22489496D+05 0.22489496D+05 0.12282560D+01  1  2  5  5  6  2       21 -.105595951069D-02 0.100000000000D+01
-.210471846524D-05 0.000000000000D+00 -.621954948340D-06 0.286378164365D-05 0.000000000000D+00  6 1 1 25 -24 2 1 4 0.79580771D-01 0.11076194D-01 0.22489496D+05 0.22489496D+05 0.22489496D+05 0.12282560D+01  1  2  5  6  6  2       21 -.135164311972D-02 0.100000000000D+01
-.210471846524D-05 0.000000000000D+00 -.621954948340D-06 0.286378164365D-05 0.000000000000D+00  6 1 -2 25 -24 2 -2 4 0.79580771D-01 0.11076194D-01 0.22489496D+05 0.22489496D+05 0.22489496D+05 0.12282560D+01  1  2  5  7  6  2       21 -.100469582462D-02 0.100000000000D+01
-.210471846524D-05 0.000000000000D+00 -.621954948340D-06 0.286378164365D-05 0.000000000000D+00  6 1 2 25 -24 2 2 4 0.79580771D-01 0.11076194D-01 0.22489496D+05 0.22489496D+05 0.22489496D+05 0.12282560D+01  1  2  5  8  6  2       21 -.155247532361D-02 0.100000000000D+01
-.210471846524D-05 0.000000000000D+00 -.621954948340D-06 0.286378164365D-05 0.000000000000D+00  6 1 -3 25 -24 2 -3 4 0.79580771D-01 0.11076194D-01 0.22489496D+05 0.22489496D+05 0.22489496D+05 0.12282560D+01  1  2  5  9  6  2       21 -.687466818253D-03 0.100000000000D+01
-.210471846524D-05 0.000000000000D+00 -.621954948340D-06 0.286378164365D-05 0.000000000000D+00  6 1 -4 25 -24 2 -4 4 0.79580771D-01 0.11076194D-01 0.22489496D+05 0.22489496D+05 0.22489496D+05 0.12282560D+01  1  2  5  9  6  2       21 -.599227843254D-03 0.100000000000D+01
-.210471846524D-05 0.000000000000D+00 -.621954948340D-06 0.286378164365D-05 0.000000000000D+00  6 1 3 25 -24 2 3 4 0.79580771D-01 0.11076194D-01 0.22489496D+05 0.22489496D+05 0.22489496D+05 0.12282560D+01  1  2  5 10  6  2       21 -.687379890188D-03 0.100000000000D+01
-.210471846524D-05 0.000000000000D+00 -.621954948340D-06 0.286378164365D-05 0.000000000000D+00  6 1 4 25 -24 2 4 4 0.79580771D-01 0.11076194D-01 0.22489496D+05 0.22489496D+05 0.22489496D+05 0.12282560D+01  1  2  5 10  6  2       21 -.599227843254D-03 0.100000000000D+01
  </mgrwgt>
  </event>
  <event>
  5     66 0.42980143E-03 0.46274135E+02 0.75467711E-02 0.93381863E-01
        1 -1    0    0  502    0 0.00000000E+00 0.00000000E+00 0.50952814E+03 0.50952824E+03 0.32000000E+00 0.0000E+00 0.9000E+01
       21 -1    0    0  501  502 0.00000000E+00 0.00000000E+00 -.54527999E+02 0.54533157E+02 0.75000000E+00 0.0000E+00 0.9000E+01
       25  1    1    2    0    0 -.33087536E+02 0.36908963E+02 0.28519850E+03 0.31530976E+03 0.12500000E+03 0.0000E+00 0.9000E+01
      -24  1    1    2    0    0 0.30623928E+01 -.16985771E+01 0.18359385E+03 0.20046491E+03 0.80419002E+02 0.0000E+00 0.9000E+01
        2  1    1    2  501    0 0.30025143E+02 -.35210386E+02 -.13792213E+02 0.48286727E+02 0.32000000E+00 0.0000E+00 0.9000E+01
#aMCatNLO 1  0  0  2  1 0.19678880D+02 0.00000000D+00  -5  6  0 0.00000000D+00 0.00000000D+00 0.00000000D+00 0.00000000D+00 0.00000000D+00
  <mgrwgt>
 0.1000366360D+00   12    2    0
 0.166688429909473D+03 0.000000000000000D+00 0.000000000000000D+00 0.166688429909473D+03
 0.166688429909473D+03 0.000000000000000D+00 0.000000000000000D+00 -.166688429909473D+03
 0.144247377980184D+03 -.330876014004554D+02 0.369090399435923D+02 0.522038260874149D+02
 0.886063500239132D+02 0.306235237018876D+01 -.169852968702061D+01 0.370352035913507D+02
 0.100523131814848D+03 0.300252490302667D+02 -.352105102565717D+02 -.892390296787657D+02
 0.000000000000000D+00 -.000000000000000D+00 0.000000000000000D+00 -.000000000000000D+00
 0.596591894676511D+03 0.000000000000000D+00 0.000000000000000D+00 0.596591894676511D+03
 0.298402305728617D+04 0.000000000000000D+00 0.000000000000000D+00 -.298402305728617D+04
 0.295355112630115D+03 0.165107518443888D+03 -.204019387441204D+03 0.522038260874149D+02
 0.277729203130583D+03 0.168225017303912D+03 -.202472298266266D+03 0.370352035913507D+02
 0.436814277875784D+03 0.272284232055211D+03 -.329703512132096D+03 -.892390296787657D+02
 0.257071635832620D+04 -.605616767803010D+03 0.736195197839566D+03 -.238743116260966D+04
0.379963636946D-05 0.000000000000D+00 0.000000000000D+00 0.178497739277D-05 0.000000000000D+00  6 1 21 25 -24 2 21 2 0.78389349D-01 0.83893274D-02 0.17061443D+05 0.17061443D+05 0.17061443D+05 0.12414970D+01  1  2  2  2  6  2       21 0.314316050633D-01 0.100000000000D+01
0.162768871208D-06 0.200512319981D-06 -.767037110617D-08 0.178497739277D-05 0.000000000000D+00  6 1 21 25 -24 2 21 4 0.78389349D-01 0.83893274D-02 0.17061443D+05 0.17061443D+05 0.17061443D+05 0.12414970D+01  1  2  3  2  6  2       21 0.207533042709D-02 0.100000000000D+01
0.383530457070D-06 0.000000000000D+00 0.000000000000D+00 0.178497739277D-05 0.000000000000D+00  6 1 21 25 -24 2 21 4 0.78389349D-01 0.83893274D-02 0.17061443D+05 0.17061443D+05 0.17061443D+05 0.12414970D+01  1  2 15  2  6  2       21 0.489007769954D-02 0.100000000000D+01
0.948828340265D-02 0.000000000000D+00 -.217757825047D-02 0.178497739277D-05 0.000000000000D+00  6 1 21 25 -24 2 21 4 0.78389349D-01 0.36878010D+00 0.17061443D+05 0.17061443D+05 0.17061443D+05 0.12414970D+01  1  2  5  2  6  2       21 0.168459362009D-01 0.100000000000D+01
0.421595420600D-02 0.000000000000D+00 -.967044329596D-03 0.178497739277D-05 0.000000000000D+00  6 1 -1 25 -24 2 -1 4 0.78389349D-01 0.36878010D+00 0.17061443D+05 0.17061443D+05 0.17061443D+05 0.12414970D+01  1  2  5  5  6  2       21 0.714595916103D-03 0.100000000000D+01
0.421595420600D-02 0.000000000000D+00 -.967044329596D-03 0.178497739277D-05 0.000000000000D+00  6 1 1 25 -24 2 1 4 0.78389349D-01 0.36878010D+00 0.17061443D+05 0.17061443D+05 0.17061443D+05 0.12414970D+01  1  2  5  6  6  2       21 0.110838769457D-01 0.100000000000D+01
0.421595420600D-02 0.000000000000D+00 -.967044329596D-03 0.178497739277D-05 0.000000000000D+00  6 1 -2 25 -24 2 -2 4 0.78389349D-01 0.36878010D+00 0.17061443D+05 0.17061443D+05 0.17061443D+05 0.12414970D+01  1  2  5  7  6  2       21 0.625330047706D-03 0.100000000000D+01
0.421595420600D-02 0.000000000000D+00 -.967044329596D-03 0.178497739277D-05 0.000000000000D+00  6 1 2 25 -24 2 2 4 0.78389349D-01 0.36878010D+00 0.17061443D+05 0.17061443D+05 0.17061443D+05 0.12414970D+01  1  2  5  8  6  2       21 0.307565316221D-01 0.100000000000D+01
0.421595420600D-02 0.000000000000D+00 -.967044329596D-03 0.178497739277D-05 0.000000000000D+00  6 1 -3 25 -24 2 -3 4 0.78389349D-01 0.36878010D+00 0.17061443D+05 0.17061443D+05 0.17061443D+05 0.12414970D+01  1  2  5  9  6  2       21 0.491663088408D-03 0.100000000000D+01
0.421595420600D-02 0.000000000000D+00 -.967044329596D-03 0.178497739277D-05 0.000000000000D+00  6 1 -4 25 -24 2 -4 4 0.78389349D-01 0.36878010D+00 0.17061443D+05 0.17061443D+05 0.17061443D+05 0.12414970D+01  1  2  5  9  6  2       21 0.307121599607D-03 0.100000000000D+01
0.421595420600D-02 0.000000000000D+00 -.967044329596D-03 0.178497739277D-05 0.000000000000D+00  6 1 3 25 -24 2 3 4 0.78389349D-01 0.36878010D+00 0.17061443D+05 0.17061443D+05 0.17061443D+05 0.12414970D+01  1  2  5 10  6  2       21 0.507445806654D-03 0.100000000000D+01
0.421595420600D-02 0.000000000000D+00 -.967044329596D-03 0.178497739277D-05 0.000000000000D+00  6 1 4 25 -24 2 4 4 0.78389349D-01 0.36878010D+00 0.17061443D+05 0.17061443D+05 0.17061443D+05 0.12414970D+01  1  2  5 10  6  2       21 0.307121599607D-03 0.100000000000D+01
  </mgrwgt>
  </event>
  <event>
  5     66 0.42980143E-03 0.30274568E+02 0.75467711E-02 0.10438978E+00
        3 -1    0    0  502    0 0.00000000E+00 0.00000000E+00 0.68912175E+03 0.68912193E+03 0.50000000E+00 0.0000E+00 0.9000E+01
       21 -1    0    0  501  502 0.00000000E+00 0.00000000E+00 -.39787271E+02 0.39794339E+02 0.75000000E+00 0.0000E+00 0.9000E+01
       25  1    1    2    0    0 0.10137627E+03 -.31564159E+02 0.26479969E+03 0.31147604E+03 0.12500000E+03 0.0000E+00 0.9000E+01
      -24  1    1    2    0    0 -.85510897E+02 0.58069886E+01 0.35923982E+03 0.37797659E+03 0.80419002E+02 0.0000E+00 0.9000E+01
        4  1    1    2  501    0 -.15865369E+02 0.25757170E+02 0.25294962E+02 0.39463646E+02 0.15500000E+01 0.0000E+00 0.9000E+01
#aMCatNLO 1  0  0  2  1 0.37798807D+02 0.00000000D+00  -5  6  0 0.00000000D+00 0.00000000D+00 0.00000000D+00 0.00000000D+00 0.00000000D+00
  <mgrwgt>
 0.1887937304D-01    3    2    0
 0.165592620329499D+03 0.000000000000000D+00 0.000000000000000D+00 0.165592620329499D+03
 0.165592620329499D+03 0.000000000000000D+00 0.000000000000000D+00 -.165592620329499D+03
 0.166365968267799D+03 0.101383170258296D+03 -.315753673391457D+02 -.278762329495489D+02
 0.127560361681144D+03 -.855056033868180D+02 0.579839413827930D+01 0.495943578719111D+02
 0.372589107100541D+02 -.158775668714784D+02 0.257769732008664D+02 -.217181249223622D+02
 0.000000000000000D+00 0.000000000000000D+00 -.000000000000000D+00 0.000000000000000D+00
 0.438706756043374D+03 0.000000000000000D+00 0.000000000000000D+00 0.438706756043374D+03
 0.377081566030841D+03 0.000000000000000D+00 0.000000000000000D+00 -.377081566030841D+03
 0.172351073696706D+03 0.533958684199484D+02 0.102233504667645D+03 -.278762329495489D+02
 0.217070211636225D+03 -.134330697183653D+03 0.141943384089755D+03 0.495943578719111D+02
 0.833708380316165D+02 -.329676315755663D+02 0.734312940935159D+02 -.217181249223622D+02
 0.342996198709666D+03 0.113902460339271D+03 -.317608182850916D+03 0.616251900125332D+02
0.138426359431D-04 0.000000000000D+00 0.000000000000D+00 0.608445242827D-06 0.000000000000D+00  6 3 21 25 -24 4 21 2 0.10601929D+00 0.61216763D-02 0.24306853D+05 0.24306853D+05 0.24306853D+05 0.12246090D+01  1  2  2  2  6  2       21 0.153576287763D-01 0.100000000000D+01
0.717259192738D-06 0.730495967962D-06 -.279442937289D-07 0.608445242827D-06 0.000000000000D+00  6 3 21 25 -24 4 21 4 0.10601929D+00 0.61216763D-02 0.24306853D+05 0.24306853D+05 0.24306853D+05 0.12246090D+01  1  2  3  2  6  2       21 0.119337351306D-02 0.100000000000D+01
0.139943220300D-05 0.000000000000D+00 0.000000000000D+00 0.608445242827D-06 0.000000000000D+00  6 3 21 25 -24 4 21 4 0.10601929D+00 0.61216763D-02 0.24306853D+05 0.24306853D+05 0.24306853D+05 0.12246090D+01  1  2 15  2  6  2       21 0.232837074979D-02 0.100000000000D+01
  </mgrwgt>
  </event>
  <event>
  5     66 0.42980143E-03 0.57992223E+02 0.75467711E-02 0.11735839E+00
        1 -1    0    0  502    0 0.00000000E+00 0.00000000E+00 0.22117817E+04 0.22117817E+04 0.32000000E+00 0.0000E+00 0.9000E+01
       21 -1    0    0  501  502 0.00000000E+00 0.00000000E+00 -.13734144E+02 0.13754606E+02 0.75000000E+00 0.0000E+00 0.9000E+01
       25  1    1    2    0    0 0.76041096E+02 -.31303212E+02 0.78321650E+03 0.79738023E+03 0.12500000E+03 0.0000E+00 0.9000E+01
      -24  1    1    2    0    0 -.26084980E+02 0.11587700E+01 0.12577475E+04 0.12605863E+04 0.80419002E+02 0.0000E+00 0.9000E+01
        2  1    1    2  501    0 -.49956116E+02 0.30144442E+02 0.15708355E+03 0.16756982E+03 0.32000000E+00 0.0000E+00 0.9000E+01
#aMCatNLO 1  0  0  2  1 0.48349062D+02 0.00000000D+00  -5  6  0 0.00000000D+00 0.00000000D+00 0.00000000D+00 0.00000000D+00 0.00000000D+00
  <mgrwgt>
 0.6554643381D-01   23    2    0
 0.174355165072361D+03 0.000000000000000D+00 0.000000000000000D+00 0.174355165072361D+03
 0.174355165072361D+03 0.000000000000000D+00 0.000000000000000D+00 -.174355165072361D+03
 0.152136515866765D+03 0.760412731941480D+02 -.313033187962077D+02 -.275380911363601D+02
 0.117265695262520D+03 -.260848431866216D+02 0.115868746123212D+01 0.812543274560082D+02
 0.793081190154372D+02 -.499564300075264D+02 0.301446313349756D+02 -.537162363196481D+02
 0.000000000000000D+00 0.000000000000000D+00 -.000000000000000D+00 -.000000000000000D+00
 0.186847403518299D+03 0.000000000000000D+00 0.000000000000000D+00 0.186847403518299D+03
 0.230013447280996D+03 0.000000000000000D+00 0.000000000000000D+00 -.230013447280996D+03
 0.142316317817485D+03 0.586092789348910D+02 -.208696017313452D+02 -.275380911363601D+02
 0.121573288407883D+03 -.402244245251181D+02 0.962176913205930D+01 0.812543274560082D+02
 0.881565926223445D+02 -.598705607542806D+02 0.360786187845617D+02 -.537162363196481D+02
 0.648146519515817D+02 0.414857063445077D+02 -.248307861852758D+02 -.431660437626969D+02
0.431810980048D-05 0.000000000000D+00 0.000000000000D+00 0.406793205325D-06 0.000000000000D+00  6 1 21 25 -24 2 21 2 0.34027569D+00 0.21145210D-02 0.21392253D+05 0.21392253D+05 0.21392253D+05 0.12306214D+01  1  2  2  2  6  2       21 0.209947751956D-01 0.100000000000D+01
-.771740254773D-07 0.227872914626D-06 -.871701958460D-08 0.406793205325D-06 0.000000000000D+00  6 1 21 25 -24 2 21 4 0.34027569D+00 0.21145210D-02 0.21392253D+05 0.21392253D+05 0.21392253D+05 0.12306214D+01  1  2  3  2  6  2       21 -.568247601360D-03 0.100000000000D+01
0.441740278453D-06 0.000000000000D+00 0.000000000000D+00 0.406793205325D-06 0.000000000000D+00  6 1 21 25 -24 2 21 4 0.34027569D+00 0.21145210D-02 0.21392253D+05 0.21392253D+05 0.21392253D+05 0.12306214D+01  1  2 15  2  6  2       21 0.325262097063D-02 0.100000000000D+01
0.627001712714D-05 0.000000000000D+00 0.000000000000D+00 0.396140078680D-06 0.000000000000D+00  6 1 21 25 -24 2 21 4 0.34027569D+00 0.28471273D-02 0.30329590D+05 0.30329590D+05 0.30329590D+05 0.12144007D+01  1  2 12  2  6  2       21 0.266935829407D-01 0.100000000000D+01
-.464743166242D-05 0.000000000000D+00 0.000000000000D+00 0.406793205325D-06 0.000000000000D+00  6 1 21 25 -24 2 21 4 0.34027569D+00 0.21145210D-02 0.21392253D+05 0.21392253D+05 0.21392253D+05 0.12306214D+01  1  2  4  2  6  2       21 -.342199577944D-01 0.100000000000D+01
-.181145500131D-04 0.000000000000D+00 -.557912282369D-05 0.406793205325D-06 0.000000000000D+00  6 1 21 25 -24 2 21 4 0.34027569D+00 0.30281140D-02 0.21392253D+05 0.21392253D+05 0.21392253D+05 0.12306214D+01  1  2  5  2  6  2       21 -.741942086310D-01 0.100000000000D+01
0.169333535864D-04 0.000000000000D+00 0.436654238271D-05 0.406793205325D-06 0.000000000000D+00  6 1 21 25 -24 2 21 4 0.34027569D+00 0.21145210D-02 0.21392253D+05 0.21392253D+05 0.21392253D+05 0.12306214D+01  1  2  6  2  6  2       21 0.124683628967D+00 0.100000000000D+01
0.584220973464D-06 0.000000000000D+00 0.000000000000D+00 0.396140078680D-06 0.000000000000D+00  6 1 -1 25 -24 2 -1 4 0.34027569D+00 0.28471273D-02 0.30329590D+05 0.30329590D+05 0.30329590D+05 0.12144007D+01  1  2 12  5  6  2       21 0.128525077721D-03 0.100000000000D+01
-.133770056343D-05 0.000000000000D+00 -.655029516831D-06 0.406793205325D-06 0.000000000000D+00  6 1 -1 25 -24 2 -1 4 0.34027569D+00 0.30281140D-02 0.21392253D+05 0.21392253D+05 0.21392253D+05 0.12306214D+01  1  2  5  5  6  2       21 -.284761286792D-03 0.100000000000D+01
0.584220973464D-06 0.000000000000D+00 0.000000000000D+00 0.396140078680D-06 0.000000000000D+00  6 1 1 25 -24 2 1 4 0.34027569D+00 0.28471273D-02 0.30329590D+05 0.30329590D+05 0.30329590D+05 0.12144007D+01  1  2 12  6  6  2       21 0.137762669980D-03 0.100000000000D+01
-.133770056343D-05 0.000000000000D+00 -.655029516831D-06 0.406793205325D-06 0.000000000000D+00  6 1 1 25 -24 2 1 4 0.34027569D+00 0.30281140D-02 0.21392253D+05 0.21392253D+05 0.21392253D+05 0.12306214D+01  1  2  5  6  6  2       21 -.306671065578D-03 0.100000000000D+01
0.584220973464D-06 0.000000000000D+00 0.000000000000D+00 0.396140078680D-06 0.000000000000D+00  6 1 -2 25 -24 2 -2 4 0.34027569D+00 0.28471273D-02 0.30329590D+05 0.30329590D+05 0.30329590D+05 0.12144007D+01  1  2 12  7  6  2       21 0.126870866147D-03 0.100000000000D+01
-.133770056343D-05 0.000000000000D+00 -.655029516831D-06 0.406793205325D-06 0.000000000000D+00  6 1 -2 25 -24 2 -2 4 0.34027569D+00 0.30281140D-02 0.21392253D+05 0.21392253D+05 0.21392253D+05 0.12306214D+01  1  2  5  7  6  2       21 -.280838859548D-03 0.100000000000D+01
0.584220973464D-06 0.000000000000D+00 0.000000000000D+00 0.396140078680D-06 0.000000000000D+00  6 1 2 25 -24 2 2 4 0.34027569D+00 0.28471273D-02 0.30329590D+05 0.30329590D+05 0.30329590D+05 0.12144007D+01  1  2 12  8  6  2       21 0.144058402437D-03 0.100000000000D+01
-.133770056343D-05 0.000000000000D+00 -.655029516831D-06 0.406793205325D-06 0.000000000000D+00  6 1 2 25 -24 2 2 4 0.34027569D+00 0.30281140D-02 0.21392253D+05 0.21392253D+05 0.21392253D+05 0.12306214D+01  1  2  5  8  6  2       21 -.321564161104D-03 0.100000000000D+01
0.584220973464D-06 0.000000000000D+00 0.000000000000D+00 0.396140078680D-06 0.000000000000D+00  6 1 -3 25 -24 2 -3 4 0.34027569D+00 0.28471273D-02 0.30329590D+05 0.30329590D+05 0.30329590D+05 0.12144007D+01  1  2 12  9  6  2       21 0.973320452486D-04 0.100000000000D+01
0.584220973464D-06 0.000000000000D+00 0.000000000000D+00 0.396140078680D-06 0.000000000000D+00  6 1 -4 25 -24 2 -4 4 0.34027569D+00 0.28471273D-02 0.30329590D+05 0.30329590D+05 0.30329590D+05 0.12144007D+01  1  2 12  9  6  2       21 0.882236437318D-04 0.100000000000D+01
-.133770056343D-05 0.000000000000D+00 -.655029516831D-06 0.406793205325D-06 0.000000000000D+00  6 1 -3 25 -24 2 -3 4 0.34027569D+00 0.30281140D-02 0.21392253D+05 0.21392253D+05 0.21392253D+05 0.12306214D+01  1  2  5  9  6  2       21 -.212962666558D-03 0.100000000000D+01
-.133770056343D-05 0.000000000000D+00 -.655029516831D-06 0.406793205325D-06 0.000000000000D+00  6 1 -4 25 -24 2 -4 4 0.34027569D+00 0.30281140D-02 0.21392253D+05 0.21392253D+05 0.21392253D+05 0.12306214D+01  1  2  5  9  6  2       21 -.192168472732D-03 0.100000000000D+01
0.584220973464D-06 0.000000000000D+00 0.000000000000D+00 0.396140078680D-06 0.000000000000D+00  6 1 3 25 -24 2 3 4 0.34027569D+00 0.28471273D-02 0.30329590D+05 0.30329590D+05 0.30329590D+05 0.12144007D+01  1  2 12 10  6  2       21 0.973252980570D-04 0.100000000000D+01
0.584220973464D-06 0.000000000000D+00 0.000000000000D+00 0.396140078680D-06 0.000000000000D+00  6 1 4 25 -24 2 4 4 0.34027569D+00 0.28471273D-02 0.30329590D+05 0.30329590D+05 0.30329590D+05 0.12144007D+01  1  2 12 10  6  2       21 0.882236437318D-04 0.100000000000D+01
-.133770056343D-05 0.000000000000D+00 -.655029516831D-06 0.406793205325D-06 0.000000000000D+00  6 1 3 25 -24 2 3 4 0.34027569D+00 0.30281140D-02 0.21392253D+05 0.21392253D+05 0.21392253D+05 0.12306214D+01  1  2  5 10  6  2       21 -.212946897880D-03 0.100000000000D+01
-.133770056343D-05 0.000000000000D+00 -.655029516831D-06 0.406793205325D-06 0.000000000000D+00  6 1 4 25 -24 2 4 4 0.34027569D+00 0.30281140D-02 0.21392253D+05 0.21392253D+05 0.21392253D+05 0.12306214D+01  1  2  5 10  6  2       21 -.192168472732D-03 0.100000000000D+01
  </mgrwgt>
  </event>
  <event>
  6     66 -.42980143E-03 0.53952106E+02 0.75467711E-02 0.11388010E+00
        1 -1    0    0  502    0 0.00000000E+00 0.00000000E+00 0.22272423E+04 0.22272423E+04 0.32000000E+00 0.0000E+00 0.9000E+01
       21 -1    0    0  503  502 0.00000000E+00 0.00000000E+00 -.17930161E+03 0.17930318E+03 0.75000000E+00 0.0000E+00 0.9000E+01
       25  1    1    2    0    0 -.13979278E+03 -.83905461E+02 0.19717935E+04 0.19824673E+04 0.12500000E+03 0.0000E+00 0.9000E+01
      -24  1    1    2    0    0 0.91581143E+02 0.78420559E+02 0.21385028E+03 0.25833321E+03 0.80419002E+02 0.0000E+00 0.9000E+01
        2  1    1    2  501    0 0.59528701E+02 0.15567346E+02 -.13742009E+03 0.15056691E+03 0.32000000E+00 0.0000E+00 0.9000E+01
       21  1    1    2  503  501 -.11317060E+02 -.10082444E+02 -.28296495E+00 0.15178079E+02 0.75000000E+00 0.0000E+00 0.9000E+01
#aMCatNLO 2  0  0  2  1 0.15156897D+02 0.00000000D+00  -5  6  0 0.00000000D+00 0.00000000D+00 0.00000000D+00 0.00000000D+00 0.00000000D+00
  <mgrwgt>
 -.9735924857D+00    3    2    0
 0.617087577290267D+03 0.000000000000000D+00 0.000000000000000D+00 0.617087577290267D+03
 0.617087577290267D+03 0.000000000000000D+00 0.000000000000000D+00 -.617087577290267D+03
 0.570876667406137D+03 -.145018162506462D+03 -.885607824653894D+02 0.530473269582082D+03
 0.144168615120526D+03 0.902524663874481D+02 0.772368334299556D+02 -.143644527948555D+02
 0.519129872053871D+03 0.547656961190139D+02 0.113239490354338D+02 -.516108816787227D+03
 0.000000000000000D+00 -.000000000000000D+00 -.000000000000000D+00 -.000000000000000D+00
 0.619199941618495D+03 0.000000000000000D+00 0.000000000000000D+00 0.619199941618495D+03
 0.644935461131779D+03 0.000000000000000D+00 0.000000000000000D+00 -.644935461131779D+03
 0.568866451619478D+03 -.139792788038372D+03 -.839054613805953D+02 0.530473269582082D+03
 0.145638054861374D+03 0.915811415500585D+02 0.784205590245739D+02 -.143644527948555D+02
 0.519763715466223D+03 0.595287062540788D+02 0.155673466415315D+02 -.516108816787227D+03
 0.298671808031983D+02 -.113170597657649D+02 -.100824442855101D+02 -.257355195132841D+02
-.128119433801D-01 0.000000000000D+00 0.000000000000D+00 0.158760207984D-05 0.000000000000D+00  6 1 21 25 -24 2 21 4 0.34148126D+00 0.27628793D-01 0.45594884D+05 0.45594884D+05 0.45594884D+05 0.11962690D+01  1  2 13  2  6  2       21 -.899717193293D+00 0.100000000000D+01
-.913227229539D-02 0.000000000000D+00 0.000000000000D+00 0.159688042272D-05 0.000000000000D+00  6 1 21 25 -24 2 21 4 0.34148126D+00 0.26393684D-01 0.42090943D+05 0.42090943D+05 0.42090943D+05 0.11997596D+01  1  2  8  2  6  2       21 -.713128114088D+00 0.100000000000D+01
0.917859796029D-02 0.000000000000D+00 0.000000000000D+00 0.159688042272D-05 0.533787765180D-07  6 1 21 25 -24 2 21 4 0.34265019D+00 0.27584777D-01 0.45594884D+05 0.45594884D+05 0.45594884D+05 0.11962690D+01  1  2  1  2  6  2       21 0.639252821716D+00 0.100000000000D+01
  </mgrwgt>
  </event>
  <event>
  5     66 0.42980143E-03 0.12496091E+03 0.75467711E-02 0.10923114E+00
        1 -1    0    0  502    0 0.00000000E+00 0.00000000E+00 0.24379796E+04 0.24379796E+04 0.32000000E+00 0.0000E+00 0.9000E+01
       21 -1    0    0  501  502 0.00000000E+00 0.00000000E+00 -.35025706E+02 0.35033735E+02 0.75000000E+00 0.0000E+00 0.9000E+01
       25  1    1    2    0    0 -.99597498E+02 0.26286238E+02 0.12003456E+04 0.12112246E+04 0.12500000E+03 0.0000E+00 0.9000E+01
      -24  1    1    2    0    0 0.63061195E+02 -.15734509E+03 0.33836090E+03 0.38689728E+03 0.80419002E+02 0.0000E+00 0.9000E+01
        2  1    1    2  501    0 0.36536303E+02 0.13105885E+03 0.86424744E+03 0.87489146E+03 0.32000000E+00 0.0000E+00 0.9000E+01
#aMCatNLO 1  0  0  2  1 0.84414524D+02 0.00000000D+00  -5  6  0 0.00000000D+00 0.00000000D+00 0.00000000D+00 0.00000000D+00 0.00000000D+00
  <mgrwgt>
 0.5712753419D-01   23    2    0
 0.292236054353235D+03 0.000000000000000D+00 0.000000000000000D+00 0.292236054353235D+03
 0.292236054353235D+03 0.000000000000000D+00 0.000000000000000D+00 -.292236054353235D+03
 0.189914321817934D+03 -.995975257741585D+02 0.262861394148330D+02 0.991555412768015D+02
 0.245925445293012D+03 0.630611591471927D+02 -.157345213348393D+03 -.158990196966847D+03
 0.148632341595525D+03 0.365363666269658D+02 0.131059073933560D+03 0.598346556900455D+02
 0.000000000000000D+00 -.000000000000000D+00 -.000000000000000D+00 -.000000000000000D+00
 0.329910817944672D+03 0.000000000000000D+00 0.000000000000000D+00 0.329910817944672D+03
 0.346692169167961D+03 0.000000000000000D+00 0.000000000000000D+00 -.346692169167961D+03
 0.190401108442275D+03 -.900252405911225D+02 0.518769388713530D+02 0.991555412768015D+02
 0.230383191445605D+03 0.750495291770010D+02 -.125295188994013D+03 -.158990196966847D+03
 0.169752284710156D+03 0.445498948680028D+02 0.152482651505086D+03 0.598346556900455D+02
 0.860664025145968D+02 -.295741834538813D+02 -.790644013824260D+02 -.167813512232892D+02
0.372108717831D-04 0.000000000000D+00 0.000000000000D+00 0.293411676839D-07 0.000000000000D+00  6 1 21 25 -24 2 21 2 0.37507441D+00 0.53891894D-02 0.58964270D+05 0.58964270D+05 0.58964270D+05 0.11852534D+01  1  2  2  2  6  2       21 0.243082023509D-01 0.100000000000D+01
-.381667785084D-05 0.196367165282D-05 -.751180292026D-07 0.293411676839D-07 0.000000000000D+00  6 1 21 25 -24 2 21 4 0.37507441D+00 0.53891894D-02 0.58964270D+05 0.58964270D+05 0.58964270D+05 0.11852534D+01  1  2  3  2  6  2       21 -.350260292328D-02 0.100000000000D+01
0.453525020186D-05 0.000000000000D+00 0.000000000000D+00 0.293411676839D-07 0.000000000000D+00  6 1 21 25 -24 2 21 4 0.37507441D+00 0.53891894D-02 0.58964270D+05 0.58964270D+05 0.58964270D+05 0.11852534D+01  1  2 15  2  6  2       21 0.416204386004D-02 0.100000000000D+01
0.271793803160D-04 0.000000000000D+00 0.000000000000D+00 0.286689189091D-07 0.000000000000D+00  6 1 21 25 -24 2 21 4 0.37507441D+00 0.66863928D-02 0.81952064D+05 0.81952064D+05 0.81952064D+05 0.11715968D+01  1  2 12  2  6  2       21 0.161411603813D-01 0.100000000000D+01
-.246862609446D-04 0.000000000000D+00 0.000000000000D+00 0.293411676839D-07 0.000000000000D+00  6 1 21 25 -24 2 21 4 0.37507441D+00 0.53891894D-02 0.58964270D+05 0.58964270D+05 0.58964270D+05 0.11852534D+01  1  2  4  2  6  2       21 -.226548252508D-01 0.100000000000D+01
-.112569416107D-03 0.000000000000D+00 -.495044593050D-04 0.293411676839D-07 0.000000000000D+00  6 1 21 25 -24 2 21 4 0.37507441D+00 0.75059914D-02 0.58964270D+05 0.58964270D+05 0.58964270D+05 0.11852534D+01  1  2  5  2  6  2       21 -.583042902189D-01 0.100000000000D+01
0.107300760421D-03 0.000000000000D+00 0.401231185888D-04 0.293411676839D-07 0.000000000000D+00  6 1 21 25 -24 2 21 4 0.37507441D+00 0.53891894D-02 0.58964270D+05 0.58964270D+05 0.58964270D+05 0.11852534D+01  1  2  6  2  6  2       21 0.984709665863D-01 0.100000000000D+01
0.170837486054D-05 0.000000000000D+00 0.000000000000D+00 0.286689189091D-07 0.000000000000D+00  6 1 -1 25 -24 2 -1 4 0.37507441D+00 0.66863928D-02 0.81952064D+05 0.81952064D+05 0.81952064D+05 0.11715968D+01  1  2 12  5  6  2       21 0.633806396136D-04 0.100000000000D+01
-.830363376067D-05 0.000000000000D+00 -.526573826164D-05 0.293411676839D-07 0.000000000000D+00  6 1 -1 25 -24 2 -1 4 0.37507441D+00 0.75059914D-02 0.58964270D+05 0.58964270D+05 0.58964270D+05 0.11852534D+01  1  2  5  5  6  2       21 -.273575902927D-03 0.100000000000D+01
0.170837486054D-05 0.000000000000D+00 0.000000000000D+00 0.286689189091D-07 0.000000000000D+00  6 1 1 25 -24 2 1 4 0.37507441D+00 0.66863928D-02 0.81952064D+05 0.81952064D+05 0.81952064D+05 0.11715968D+01  1  2 12  6  6  2       21 0.739931411968D-04 0.100000000000D+01
-.830363376067D-05 0.000000000000D+00 -.526573826164D-05 0.293411676839D-07 0.000000000000D+00  6 1 1 25 -24 2 1 4 0.37507441D+00 0.75059914D-02 0.58964270D+05 0.58964270D+05 0.58964270D+05 0.11852534D+01  1  2  5  6  6  2       21 -.325168570901D-03 0.100000000000D+01
0.170837486054D-05 0.000000000000D+00 0.000000000000D+00 0.286689189091D-07 0.000000000000D+00  6 1 -2 25 -24 2 -2 4 0.37507441D+00 0.66863928D-02 0.81952064D+05 0.81952064D+05 0.81952064D+05 0.11715968D+01  1  2 12  7  6  2       21 0.615319507553D-04 0.100000000000D+01
-.830363376067D-05 0.000000000000D+00 -.526573826164D-05 0.293411676839D-07 0.000000000000D+00  6 1 -2 25 -24 2 -2 4 0.37507441D+00 0.75059914D-02 0.58964270D+05 0.58964270D+05 0.58964270D+05 0.11852534D+01  1  2  5  7  6  2       21 -.264602266755D-03 0.100000000000D+01
0.170837486054D-05 0.000000000000D+00 0.000000000000D+00 0.286689189091D-07 0.000000000000D+00  6 1 2 25 -24 2 2 4 0.37507441D+00 0.66863928D-02 0.81952064D+05 0.81952064D+05 0.81952064D+05 0.11715968D+01  1  2 12  8  6  2       21 0.811677992495D-04 0.100000000000D+01
-.830363376067D-05 0.000000000000D+00 -.526573826164D-05 0.293411676839D-07 0.000000000000D+00  6 1 2 25 -24 2 2 4 0.37507441D+00 0.75059914D-02 0.58964270D+05 0.58964270D+05 0.58964270D+05 0.11852534D+01  1  2  5  8  6  2       21 -.360039330066D-03 0.100000000000D+01
0.170837486054D-05 0.000000000000D+00 0.000000000000D+00 0.286689189091D-07 0.000000000000D+00  6 1 -3 25 -24 2 -3 4 0.37507441D+00 0.66863928D-02 0.81952064D+05 0.81952064D+05 0.81952064D+05 0.11715968D+01  1  2 12  9  6  2       21 0.449980204058D-04 0.100000000000D+01
0.170837486054D-05 0.000000000000D+00 0.000000000000D+00 0.286689189091D-07 0.000000000000D+00  6 1 -4 25 -24 2 -4 4 0.37507441D+00 0.66863928D-02 0.81952064D+05 0.81952064D+05 0.81952064D+05 0.11715968D+01  1  2 12  9  6  2       21 0.402868715365D-04 0.100000000000D+01
-.830363376067D-05 0.000000000000D+00 -.526573826164D-05 0.293411676839D-07 0.000000000000D+00  6 1 -3 25 -24 2 -3 4 0.37507441D+00 0.75059914D-02 0.58964270D+05 0.58964270D+05 0.58964270D+05 0.11852534D+01  1  2  5  9  6  2       21 -.190573628663D-03 0.100000000000D+01
-.830363376067D-05 0.000000000000D+00 -.526573826164D-05 0.293411676839D-07 0.000000000000D+00  6 1 -4 25 -24 2 -4 4 0.37507441D+00 0.75059914D-02 0.58964270D+05 0.58964270D+05 0.58964270D+05 0.11852534D+01  1  2  5  9  6  2       21 -.169623258631D-03 0.100000000000D+01
0.170837486054D-05 0.000000000000D+00 0.000000000000D+00 0.286689189091D-07 0.000000000000D+00  6 1 3 25 -24 2 3 4 0.37507441D+00 0.66863928D-02 0.81952064D+05 0.81952064D+05 0.81952064D+05 0.11715968D+01  1  2 12 10  6  2       21 0.449935005748D-04 0.100000000000D+01
0.170837486054D-05 0.000000000000D+00 0.000000000000D+00 0.286689189091D-07 0.000000000000D+00  6 1 4 25 -24 2 4 4 0.37507441D+00 0.66863928D-02 0.81952064D+05 0.81952064D+05 0.81952064D+05 0.11715968D+01  1  2 12 10  6  2       21 0.402868715365D-04 0.100000000000D+01
-.830363376067D-05 0.000000000000D+00 -.526573826164D-05 0.293411676839D-07 0.000000000000D+00  6 1 3 25 -24 2 3 4 0.37507441D+00 0.75059914D-02 0.58964270D+05 0.58964270D+05 0.58964270D+05 0.11852534D+01  1  2  5 10  6  2       21 -.190553175084D-03 0.100000000000D+01
-.830363376067D-05 0.000000000000D+00 -.526573826164D-05 0.293411676839D-07 0.000000000000D+00  6 1 4 25 -24 2 4 4 0.37507441D+00 0.75059914D-02 0.58964270D+05 0.58964270D+05 0.58964270D+05 0.11852534D+01  1  2  5 10  6  2       21 -.169623258631D-03 0.100000000000D+01
  </mgrwgt>
  </event>
  <event>
  5     66 -.42980143E-03 0.24886896E+02 0.75467711E-02 0.12058375E+00
        1 -1    0    0  502    0 0.00000000E+00 0.00000000E+00 0.49932643E+03 0.49932653E+03 0.32000000E+00 0.0000E+00 0.9000E+01
       21 -1    0    0  501  502 0.00000000E+00 0.00000000E+00 -.16841839E+03 0.16842006E+03 0.75000000E+00 0.0000E+00 0.9000E+01
       25  1    1    2    0    0 -.22274923E+02 -.61685434E+02 0.41023985E+03 0.43384675E+03 0.12500000E+03 0.0000E+00 0.9000E+01
      -24  1    1    2    0    0 0.21998917E+02 0.36800084E+02 0.48797176E+02 0.10337591E+03 0.80419002E+02 0.0000E+00 0.9000E+01
        2  1    1    2  501    0 0.27600536E+00 0.24885350E+02 -.12812898E+03 0.13052393E+03 0.32000000E+00 0.0000E+00 0.9000E+01
#aMCatNLO 1  0  0  2  5 0.38215710D+02 0.00000000D+00  -5  6  0 0.00000000D+00 0.00000000D+00 0.00000000D+00 0.00000000D+00 0.00000000D+00
  <mgrwgt>
 -.1420058596D+01   12    2    0
 0.289993693341249D+03 0.000000000000000D+00 0.000000000000000D+00 0.289993693341249D+03
 0.289993693341249D+03 0.000000000000000D+00 0.000000000000000D+00 -.289993693341249D+03
 0.265433479612146D+03 -.222749229696867D+02 -.616854458081677D+02 0.224785821797448D+03
 0.911770373864313D+02 0.219989174354427D+02 0.368000799244451D+02 -.279963237214706D+01
 0.223376869683920D+03 0.276005534243966D+00 0.248853658837226D+02 -.221986189425300D+03
 0.000000000000000D+00 -.000000000000000D+00 0.000000000000000D+00 -.000000000000000D+00
 0.291670650078813D+03 0.000000000000000D+00 0.000000000000000D+00 0.291670650078813D+03
 0.638968631819239D+03 0.000000000000000D+00 0.000000000000000D+00 -.638968631819239D+03
 0.268250291259653D+03 -.112448455076468D+02 -.753532118044343D+02 0.224785821797448D+03
 0.903981128486256D+02 0.257516790549361D+02 0.321498979260387D+02 -.279963237214706D+01
 0.222596646817938D+03 0.949330368254290D+01 0.134638799837067D+02 -.221986189425300D+03
 0.349394230971835D+03 -.240001372298323D+02 0.297394338946889D+02 -.347297981740425D+03
0.315901764605D-04 0.000000000000D+00 0.000000000000D+00 0.938362996586D-05 0.000000000000D+00  6 1 21 25 -24 2 21 2 0.76819587D-01 0.25910657D-01 0.16535564D+05 0.16535564D+05 0.16535564D+05 0.12430258D+01  1  2  2  2  6  2       21 0.351514430411D-01 0.100000000000D+01
0.909455022398D-05 0.166705941169D-05 -.637714647404D-07 0.938362996586D-05 0.000000000000D+00  6 1 21 25 -24 2 21 4 0.76819587D-01 0.25910657D-01 0.16535564D+05 0.16535564D+05 0.16535564D+05 0.12430258D+01  1  2  3  2  6  2       21 0.156362506601D-01 0.100000000000D+01
0.317934523737D-05 0.000000000000D+00 0.000000000000D+00 0.938362996586D-05 0.000000000000D+00  6 1 21 25 -24 2 21 4 0.76819587D-01 0.25910657D-01 0.16535564D+05 0.16535564D+05 0.16535564D+05 0.12430258D+01  1  2 15  2  6  2       21 0.546624493157D-02 0.100000000000D+01
-.329876446532D-02 0.000000000000D+00 -.474269692949D-04 0.938362996586D-05 0.000000000000D+00  6 1 21 25 -24 2 21 4 0.76819587D-01 0.57201749D-01 0.16535564D+05 0.16535564D+05 0.16535564D+05 0.12430258D+01  1  2  5  2  6  2       21 -.117019267511D+01 0.100000000000D+01
-.880321006521D-03 0.000000000000D+00 -.132383554836D-04 0.938362996586D-05 0.000000000000D+00  6 1 -1 25 -24 2 -1 4 0.76819587D-01 0.57201749D-01 0.16535564D+05 0.16535564D+05 0.16535564D+05 0.12430258D+01  1  2  5  5  6  2       21 -.315363839800D-01 0.100000000000D+01
-.880321006521D-03 0.000000000000D+00 -.132383554836D-04 0.938362996586D-05 0.000000000000D+00  6 1 1 25 -24 2 1 4 0.76819587D-01 0.57201749D-01 0.16535564D+05 0.16535564D+05 0.16535564D+05 0.12430258D+01  1  2  5  6  6  2       21 -.779083472151D-01 0.100000000000D+01
-.880321006521D-03 0.000000000000D+00 -.132383554836D-04 0.938362996586D-05 0.000000000000D+00  6 1 -2 25 -24 2 -2 4 0.76819587D-01 0.57201749D-01 0.16535564D+05 0.16535564D+05 0.16535564D+05 0.12430258D+01  1  2  5  7  6  2       21 -.252595842477D-01 0.100000000000D+01
-.880321006521D-03 0.000000000000D+00 -.132383554836D-04 0.938362996586D-05 0.000000000000D+00  6 1 2 25 -24 2 2 4 0.76819587D-01 0.57201749D-01 0.16535564D+05 0.16535564D+05 0.16535564D+05 0.12430258D+01  1  2  5  8  6  2       21 -.114424477906D+00 0.100000000000D+01
-.880321006521D-03 0.000000000000D+00 -.132383554836D-04 0.938362996586D-05 0.000000000000D+00  6 1 -3 25 -24 2 -3 4 0.76819587D-01 0.57201749D-01 0.16535564D+05 0.16535564D+05 0.16535564D+05 0.12430258D+01  1  2  5  9  6  2       21 -.156964083114D-01 0.100000000000D+01
-.880321006521D-03 0.000000000000D+00 -.132383554836D-04 0.938362996586D-05 0.000000000000D+00  6 1 -4 25 -24 2 -4 4 0.76819587D-01 0.57201749D-01 0.16535564D+05 0.16535564D+05 0.16535564D+05 0.12430258D+01  1  2  5  9  6  2       21 -.127944765136D-01 0.100000000000D+01
-.880321006521D-03 0.000000000000D+00 -.132383554836D-04 0.938362996586D-05 0.000000000000D+00  6 1 3 25 -24 2 3 4 0.76819587D-01 0.57201749D-01 0.16535564D+05 0.16535564D+05 0.16535564D+05 0.12430258D+01  1  2  5 10  6  2       21 -.157057047424D-01 0.100000000000D+01
-.880321006521D-03 0.000000000000D+00 -.132383554836D-04 0.938362996586D-05 0.000000000000D+00  6 1 4 25 -24 2 4 4 0.76819587D-01 0.57201749D-01 0.16535564D+05 0.16535564D+05 0.16535564D+05 0.12430258D+01  1  2  5 10  6  2       21 -.127944765136D-01 0.100000000000D+01
  </mgrwgt>
  </event>
  <event>
  6     66 0.42980143E-03 0.58707922E+02 0.75467711E-02 0.11637067E+00
        1 -1    0    0  502    0 0.00000000E+00 0.00000000E+00 0.11642933E+04 0.11642934E+04 0.32000000E+00 0.0000E+00 0.9000E+01
       21 -1    0    0  501  503 0.00000000E+00 0.00000000E+00 -.18876144E+03 0.18876293E+03 0.75000000E+00 0.0000E+00 0.9000E+01
       25  1    1    2    0    0 -.51351094E+02 -.13405562E+02 0.38518636E+03 0.40842401E+03 0.12500000E+03 0.0000E+00 0.9000E+01
      -24  1    1    2    0    0 0.21663062E+02 0.13482948E+02 0.31445743E+03 0.32557913E+03 0.80419002E+02 0.0000E+00 0.9000E+01
        2  1    1    2  501    0 -.57108065E+02 0.17780939E+02 0.43383819E+03 0.43794197E+03 0.32000000E+00 0.0000E+00 0.9000E+01
       21  1    1    2  502  503 0.86796097E+02 -.17858325E+02 -.15795007E+03 0.18111121E+03 0.75000000E+00 0.0000E+00 0.9000E+01
#aMCatNLO 2  0  0  2  1 0.18069668D+00 0.00000000D+00  -5  6  0 0.00000000D+00 0.00000000D+00 0.00000000D+00 0.00000000D+00 0.00000000D+00
  <mgrwgt>
 0.1758484639D+00    1    2    0
 0.142145588011135D+03 0.000000000000000D+00 0.000000000000000D+00 0.142145588011135D+03
 0.142145588011135D+03 0.000000000000000D+00 0.000000000000000D+00 -.142145588011135D+03
 0.133071596934747D+03 -.104517013651298D+02 -.218206695860338D+02 -.386997445489631D+02
 0.941589348862637D+02 0.482872795101056D+02 0.800497558962381D+01 -.171699384610969D+01
 0.570606442012597D+02 -.378355781449758D+02 0.138156939964100D+02 0.404167383950728D+02
 0.000000000000000D+00 0.000000000000000D+00 -.000000000000000D+00 -.000000000000000D+00
 0.150386566178189D+03 0.000000000000000D+00 0.000000000000000D+00 0.150386566178189D+03
 0.146139659541452D+04 0.000000000000000D+00 0.000000000000000D+00 -.146139659541452D+04
 0.141206548650561D+03 -.513508266488508D+02 -.134056613461577D+02 -.386997445489631D+02
 0.843874872794780D+02 0.216632388905603D+02 0.134828805481791D+02 -.171699384610969D+01
 0.721876877141986D+02 -.571085089446269D+02 0.177811057346943D+02 0.404167383950728D+02
 0.131400143794848D+04 0.867960967029175D+02 -.178583249367158D+02 -.131101002923633D+04
0.526605035543D-03 0.000000000000D+00 0.000000000000D+00 0.291059143605D-06 0.588416159406D-07  6 1 21 25 -24 2 21 4 0.17912204D+00 0.29040319D-01 0.33965899D+05 0.33965899D+05 0.33965899D+05 0.12092795D+01  1  2  1  2  6  2       21 0.175848463863D+00 0.100000000000D+01
  </mgrwgt>
  </event>
  <event>
  5     66 0.42980143E-03 0.10262917E+03 0.75467711E-02 0.11420947E+00
        1 -1    0    0  502    0 0.00000000E+00 0.00000000E+00 0.27138252E+02 0.27140138E+02 0.32000000E+00 0.0000E+00 0.9000E+01
       21 -1    0    0  501  502 0.00000000E+00 0.00000000E+00 -.22354661E+04 0.22354662E+04 0.75000000E+00 0.0000E+00 0.9000E+01
       25  1    1    2    0    0 -.39503130E+02 -.66649408E+02 -.67328899E+03 0.68916305E+03 0.12500000E+03 0.0000E+00 0.9000E+01
      -24  1    1    2    0    0 -.52257614E+02 0.11261333E+03 -.30341365E+03 0.33754952E+03 0.80419002E+02 0.0000E+00 0.9000E+01
        2  1    1    2  501    0 0.91760744E+02 -.45963924E+02 -.12316252E+04 0.12358938E+04 0.32000000E+00 0.0000E+00 0.9000E+01
#aMCatNLO 1  0  0  1  2 0.22000919D+02 0.00000000D+00  -5  6  0 0.00000000D+00 0.00000000D+00 0.00000000D+00 0.00000000D+00 0.00000000D+00
  <mgrwgt>
 0.4196881289D-01    6    2    0
 0.246310613113254D+03 0.000000000000000D+00 0.000000000000000D+00 0.246310613113254D+03
 0.246310613113254D+03 0.000000000000000D+00 0.000000000000000D+00 -.246310613113254D+03
 0.147094492450420D+03 -.395031884881813D+02 -.666493793086878D+02 -.302457373533984D+01
 0.190217006312490D+03 -.522576892343587D+02 0.112613370476762D+03 0.119593713220486D+03
 0.155309727463599D+03 0.917608777225400D+02 -.459639911680745D+02 -.116569139485146D+03
 0.000000000000000D+00 0.000000000000000D+00 0.000000000000000D+00 -.000000000000000D+00
 0.255201154268879D+03 0.000000000000000D+00 0.000000000000000D+00 0.255201154268879D+03
 0.260553805453146D+03 0.000000000000000D+00 0.000000000000000D+00 -.260553805453146D+03
 0.149421042611800D+03 -.460503057464039D+02 -.676155993065175D+02 -.302457373533984D+01
 0.191981198445083D+03 -.606966955140968D+02 0.111367946527916D+03 0.119593713220486D+03
 0.151710031102576D+03 0.849818252877253D+02 -.469644400328979D+02 -.116569139485146D+03
 0.226426875625665D+02 0.217651759727753D+02 0.321209281149905D+01 -.535265118426787D+01
0.943412090257D-04 0.000000000000D+00 0.000000000000D+00 0.245105870288D-06 0.000000000000D+00  6 1 21 25 -24 2 21 2 0.41752704D-02 0.34391802D+00 0.39523620D+05 0.39523620D+05 0.39523620D+05 0.12025290D+01  1  2  2  1  6  1        1 0.578816106113D-02 0.100000000000D+01
-.216599480555D-05 0.497852237747D-05 -.190447720116D-06 0.245105870288D-06 0.000000000000D+00  6 1 21 25 -24 2 21 4 0.41752704D-02 0.34391802D+00 0.39523620D+05 0.39523620D+05 0.39523620D+05 0.12025290D+01  1  2  3  1  6  1        1 -.192170935479D-03 0.100000000000D+01
0.100191208860D-04 0.000000000000D+00 0.000000000000D+00 0.245105870288D-06 0.000000000000D+00  6 1 21 25 -24 2 21 4 0.41752704D-02 0.34391802D+00 0.39523620D+05 0.39523620D+05 0.39523620D+05 0.12025290D+01  1  2 15  1  6  1        1 0.888914335529D-03 0.100000000000D+01
0.438741613048D-03 0.000000000000D+00 0.000000000000D+00 0.243262170975D-06 0.000000000000D+00  6 1 21 25 -24 2 21 4 0.44412790D-02 0.34391802D+00 0.43820582D+05 0.43820582D+05 0.43820582D+05 0.11979977D+01  1  2 12  1  6  1        1 0.348324783373D-01 0.100000000000D+01
-.599176880516D-04 0.000000000000D+00 0.000000000000D+00 0.245105870288D-06 0.000000000000D+00  6 1 21 25 -24 2 21 4 0.41752704D-02 0.34391802D+00 0.39523620D+05 0.39523620D+05 0.39523620D+05 0.12025290D+01  1  2  4  1  6  1        1 -.531600451447D-02 0.100000000000D+01
0.473505092256D-05 0.000000000000D+00 0.000000000000D+00 0.243262170975D-06 0.000000000000D+00  6 21 21 25 -24 2 -1 4 0.44412790D-02 0.34391802D+00 0.43820582D+05 0.43820582D+05 0.43820582D+05 0.11979977D+01  1  2 12  4  6  1        1 0.596743460439D-02 0.100000000000D+01
  </mgrwgt>
  </event>
  <event>
  5     66 0.42980143E-03 0.24401499E+02 0.75467711E-02 0.10900326E+00
        1 -1    0    0  502    0 0.00000000E+00 0.00000000E+00 0.22312851E+03 0.22312874E+03 0.32000000E+00 0.0000E+00 0.9000E+01
       21 -1    0    0  501  502 0.00000000E+00 0.00000000E+00 -.10003272E+03 0.10003553E+03 0.75000000E+00 0.0000E+00 0.9000E+01
       25  1    1    2    0    0 0.81322539E+01 -.71427689E+02 0.56343435E+02 0.15481483E+03 0.12500000E+03 0.0000E+00 0.9000E+01
      -24  1    1    2    0    0 0.45968032E+01 0.92244624E+02 0.73759274E+02 0.14296100E+03 0.80419002E+02 0.0000E+00 0.9000E+01
        2  1    1    2  501    0 -.12729057E+02 -.20816935E+02 -.70069215E+01 0.25388442E+02 0.32000000E+00 0.0000E+00 0.9000E+01
#aMCatNLO 1  0  0  1  2 0.22000919D+02 0.00000000D+00  -5  6  0 0.00000000D+00 0.00000000D+00 0.00000000D+00 0.00000000D+00 0.00000000D+00
  <mgrwgt>
 0.1245808700D+00    3    2    0
 0.149400947981620D+03 0.000000000000000D+00 0.000000000000000D+00 0.149400947981620D+03
 0.149400947981620D+03 0.000000000000000D+00 0.000000000000000D+00 -.149400947981620D+03
 0.144225663618870D+03 0.813259551106616D+01 -.714271302949402D+02 -.284042151560874D+01
 0.124231348593069D+03 0.459709747723349D+01 0.922451048901963D+02 0.208786814110354D+02
 0.303448837513023D+02 -.127296929882997D+02 -.208179745952560D+02 -.180382598954266D+02
 0.000000000000000D+00 0.000000000000000D+00 0.000000000000000D+00 -.000000000000000D+00
 0.251910668588156D+03 0.000000000000000D+00 0.000000000000000D+00 0.251910668588156D+03
 0.359551186948419D+03 0.000000000000000D+00 0.000000000000000D+00 -.359551186948419D+03
 0.189861303904956D+03 -.942294669073587D+02 -.107401370067884D+03 -.284042151560874D+01
 0.128169726974294D+03 -.727369417497275D+02 0.650667420863204D+02 0.208786814110354D+02
 0.512329620629734D+02 -.377246115482582D+02 -.296022172349325D+02 -.180382598954266D+02
 0.242197862594352D+03 0.204691020205344D+03 0.719368452164962D+02 -.107640518360262D+03
0.124241585109D-04 0.000000000000D+00 0.000000000000D+00 0.977955744892D-06 0.000000000000D+00  6 1 21 25 -24 2 21 2 0.34327697D-01 0.15389883D-01 0.21179491D+05 0.21179491D+05 0.21179491D+05 0.12310957D+01  1  2  2  1  6  1        1 0.974880006072D-01 0.100000000000D+01
0.923309087556D-06 0.655640857337D-06 -.250807964748D-07 0.977955744892D-06 0.000000000000D+00  6 1 21 25 -24 2 21 4 0.34327697D-01 0.15389883D-01 0.21179491D+05 0.21179491D+05 0.21179491D+05 0.12310957D+01  1  2  3  1  6  1        1 0.109803187154D-01 0.100000000000D+01
0.135486636205D-05 0.000000000000D+00 0.000000000000D+00 0.977955744892D-06 0.000000000000D+00  6 1 21 25 -24 2 21 4 0.34327697D-01 0.15389883D-01 0.21179491D+05 0.21179491D+05 0.21179491D+05 0.12310957D+01  1  2 15  1  6  1        1 0.161125506859D-01 0.100000000000D+01
  </mgrwgt>
  </event>
  <event>
  5     66 -.42980143E-03 0.61676328E+02 0.75467711E-02 0.12106952E+00
        1 -1    0    0  502    0 0.00000000E+00 0.00000000E+00 0.49030604E+03 0.49030614E+03 0.32000000E+00 0.0000E+00 0.9000E+01
       21 -1    0    0  501  502 0.00000000E+00 0.00000000E+00 -.46854312E+02 0.46860314E+02 0.75000000E+00 0.0000E+00 0.9000E+01
       25  1    1    2    0    0 0.45152112E+02 -.31768639E+02 0.24323014E+03 0.27898721E+03 0.12500000E+03 0.0000E+00 0.9000E+01
      -24  1    1    2    0    0 -.19037946E+02 -.24105945E+02 0.16757875E+03 0.18839691E+03 0.80419002E+02 0.0000E+00 0.9000E+01
        2  1    1    2  501    0 -.26114165E+02 0.55874584E+02 0.32642831E+02 0.69782344E+02 0.32000000E+00 0.0000E+00 0.9000E+01
#aMCatNLO 1  0  0  5  2 0.69299063D+01 0.00000000D+00  -5  6  0 0.00000000D+00 0.00000000D+00 0.00000000D+00 0.00000000D+00 0.00000000D+00
  <mgrwgt>
 -.1059306567D+00    8    2    0
 0.151573719430356D+03 0.000000000000000D+00 0.000000000000000D+00 0.151573719430356D+03
 0.151573719430356D+03 -.000000000000000D+00 -.000000000000000D+00 -.151573719430356D+03
 0.138552311934855D+03 0.451522177406690D+02 -.317688660501721D+02 0.228857930926311D+02
 0.886942264642037D+02 -.190378785877803D+02 -.241060899092547D+02 0.213519428126993D+02
 0.759009004616528D+02 -.261143391528886D+02 0.558749559594268D+02 -.442377359053303D+02
 0.000000000000000D+00 0.000000000000000D+00 0.000000000000000D+00 -.000000000000000D+00
 0.151573719430356D+03 0.000000000000000D+00 0.000000000000000D+00 0.151573719430356D+03
 0.151573719430356D+03 -.000000000000000D+00 -.000000000000000D+00 -.151573719430356D+03
 0.138243296463605D+03 0.448684200849377D+02 -.311616448058383D+02 0.224050393706514D+02
 0.885549034067862D+02 -.192196115561205D+02 -.237172490681009D+02 0.210440868485235D+02
 0.583617025619576D+02 -.250014735214033D+02 0.439060714648373D+02 -.292108119745683D+02
 0.179875364283627D+02 -.647335007413870D+00 0.109728224091018D+02 -.142383142446065D+02
0.575360058579D-06 0.000000000000D+00 0.000000000000D+00 0.602539878718D-06 0.000000000000D+00  6 1 21 25 -24 2 21 2 0.75432168D-01 0.72088255D-02 0.20222437D+05 0.20222437D+05 0.20222437D+05 0.12332976D+01  1  2  2  3  6  5        2 0.642139580358D-02 0.100000000000D+01
-.151070254344D-07 0.303625844561D-07 -.116148618969D-08 0.602539878718D-06 0.000000000000D+00  6 1 21 25 -24 2 21 4 0.75432168D-01 0.72088255D-02 0.20222437D+05 0.20222437D+05 0.20222437D+05 0.12332976D+01  1  2  3  3  6  5        2 -.256451028402D-03 0.100000000000D+01
0.540909566869D-07 0.000000000000D+00 0.000000000000D+00 0.602539878718D-06 0.000000000000D+00  6 1 21 25 -24 2 21 4 0.75432168D-01 0.72088255D-02 0.20222437D+05 0.20222437D+05 0.20222437D+05 0.12332976D+01  1  2 15  3  6  5        2 0.918227187068D-03 0.100000000000D+01
0.271893472920D-05 0.000000000000D+00 0.000000000000D+00 0.602691016951D-06 0.000000000000D+00  6 1 21 25 -24 2 21 4 0.75432168D-01 0.72088255D-02 0.20157051D+05 0.20157051D+05 0.20157051D+05 0.12334522D+01  1  2 12  3  6  5        2 0.461774312619D-01 0.100000000000D+01
-.105480615518D-04 0.000000000000D+00 0.000000000000D+00 0.602539878718D-06 0.000000000000D+00  6 1 21 25 -24 2 21 4 0.75432168D-01 0.72088255D-02 0.20222437D+05 0.20222437D+05 0.20222437D+05 0.12332976D+01  1  2  4  3  6  5        2 -.179059818517D+00 0.100000000000D+01
-.287013971262D-05 0.000000000000D+00 0.000000000000D+00 0.602539878718D-06 0.000000000000D+00  6 1 21 25 -24 2 21 4 0.75432168D-01 0.72088255D-02 0.20222437D+05 0.20222437D+05 0.20222437D+05 0.12332976D+01  1  2  5  3  6  5        2 -.487223831160D-01 0.100000000000D+01
0.362806259060D-05 0.000000000000D+00 -.000000000000D+00 0.602539878718D-06 0.000000000000D+00  6 1 21 25 -24 2 21 4 0.75432168D-01 0.72088255D-02 0.20222437D+05 0.20222437D+05 0.20222437D+05 0.12332976D+01  1  2  6  3  6  5        2 0.615885891306D-01 0.100000000000D+01
0.412299665816D-06 0.000000000000D+00 0.000000000000D+00 0.602539878718D-06 0.195277667465D-06  6 1 21 25 -24 2 21 4 0.75432168D-01 0.72088255D-02 0.20157051D+05 0.20157051D+05 0.20157051D+05 0.12334522D+01  1  2 11  3  6  5        2 0.700235252912D-02 0.100000000000D+01
  </mgrwgt>
  </event>
  <event>
  5     66 0.42980143E-03 0.29768294E+02 0.75467711E-02 0.97199216E-01
        1 -1    0    0  502    0 0.00000000E+00 0.00000000E+00 0.16206697E+03 0.16206728E+03 0.32000000E+00 0.0000E+00 0.9000E+01
       21 -1    0    0  501  502 0.00000000E+00 0.00000000E+00 -.23978345E+03 0.23978463E+03 0.75000000E+00 0.0000E+00 0.9000E+01
       25  1    1    2    0    0 -.45379196E+02 -.34585049E+02 0.58395525E+02 0.14929981E+03 0.12500000E+03 0.0000E+00 0.9000E+01
      -24  1    1    2    0    0 0.21827548E+02 0.16378788E+02 0.25147143E+02 0.88568060E+02 0.80419002E+02 0.0000E+00 0.9000E+01
        2  1    1    2  501    0 0.23551648E+02 0.18206261E+02 -.16125915E+03 0.16398404E+03 0.32000000E+00 0.0000E+00 0.9000E+01
#aMCatNLO 1  0  0  1  2 0.19307361D+03 0.00000000D+00  -5  6  0 0.00000000D+00 0.00000000D+00 0.00000000D+00 0.00000000D+00 0.00000000D+00
  <mgrwgt>
 0.1468737038D+00    3    2    0
 0.197132637044182D+03 0.000000000000000D+00 0.000000000000000D+00 0.197132637044182D+03
 0.197132637044182D+03 0.000000000000000D+00 0.000000000000000D+00 -.197132637044182D+03
 0.163683570490956D+03 -.453792229149176D+02 -.345850697902337D+02 0.889489197456073D+02
 0.952292982048446D+02 0.218275318680954D+02 0.163787754911071D+02 0.430894168929666D+02
 0.135352405392563D+03 0.235516910468222D+02 0.182062942991265D+02 -.132038336638574D+03
 0.000000000000000D+00 -.000000000000000D+00 0.000000000000000D+00 -.000000000000000D+00
 0.718403389425944D+03 0.000000000000000D+00 0.000000000000000D+00 0.718403389425944D+03
 0.729244991985452D+03 0.000000000000000D+00 0.000000000000000D+00 -.729244991985452D+03
 0.263749875108744D+03 0.190516657558213D+03 -.986432435031123D+02 0.889489197456073D+02
 0.216293856991873D+03 0.193753780830184D+03 -.303082692327263D+02 0.430894168929666D+02
 0.297428695290317D+03 0.262398884332040D+03 -.466533165071791D+02 -.132038336638574D+03
 0.670175954020462D+03 -.646669322720437D+03 0.175604829243018D+03 -.108416025595080D+02
0.450233031265D-04 0.000000000000D+00 0.000000000000D+00 0.643718612497D-05 0.000000000000D+00  6 1 21 25 -24 2 21 2 0.24933494D-01 0.36889877D-01 0.15888262D+05 0.15888262D+05 0.15888262D+05 0.12449842D+01  1  2  2  1  6  1        1 0.103352498619D+00 0.100000000000D+01
0.775783312439D-05 0.237594498139D-05 -.908890772238D-07 0.643718612497D-05 0.000000000000D+00  6 1 21 25 -24 2 21 4 0.24933494D-01 0.36889877D-01 0.15888262D+05 0.15888262D+05 0.15888262D+05 0.12449842D+01  1  2  3  1  6  1        1 0.276027122201D-01 0.100000000000D+01
0.447394485232D-05 0.000000000000D+00 0.000000000000D+00 0.643718612497D-05 0.000000000000D+00  6 1 21 25 -24 2 21 4 0.24933494D-01 0.36889877D-01 0.15888262D+05 0.15888262D+05 0.15888262D+05 0.12449842D+01  1  2 15  1  6  1        1 0.159184929951D-01 0.100000000000D+01
  </mgrwgt>
  </event>
  <event>
  6     66 0.42980143E-03 0.97169739E+02 0.75467711E-02 0.11506909E+00
        1 -1    0    0  502    0 0.00000000E+00 0.00000000E+00 0.10259731E+04 0.10259731E+04 0.32000000E+00 0.0000E+00 0.9000E+01
       21 -1    0    0  501  502 0.00000000E+00 0.00000000E+00 -.39586927E+02 0.39594031E+02 0.75000000E+00 0.0000E+00 0.9000E+01
       25  1    1    2    0    0 0.10312806E+03 -.75334693E+02 0.38410758E+03 0.42364413E+03 0.12500000E+03 0.0000E+00 0.9000E+01
      -24  1    1    2    0    0 -.69469226E+02 -.24924507E+02 0.35075652E+03 0.36734801E+03 0.80419002E+02 0.0000E+00 0.9000E+01
        2  1    1    2  503    0 -.14963485E+02 0.83325993E+02 0.20099300E+03 0.21809496E+03 0.32000000E+00 0.0000E+00 0.9000E+01
       21  1    1    2  501  503 -.18695351E+02 0.16933207E+02 0.50529070E+02 0.56480076E+02 0.75000000E+00 0.0000E+00 0.9000E+01
#aMCatNLO 2  0  0  5  2 0.12805748D+02 0.00000000D+00  -5  6  0 0.00000000D+00 0.00000000D+00 0.00000000D+00 0.00000000D+00 0.00000000D+00
  <mgrwgt>
 0.3576701665D-01    2    2    0
 0.201541393591084D+03 0.000000000000000D+00 0.000000000000000D+00 0.201541393591084D+03
 0.201541393591084D+03 -.000000000000000D+00 -.000000000000000D+00 -.201541393591084D+03
 0.181096740183103D+03 0.103751590395833D+03 -.771919886136072D+02 -.211668063051234D+02
 0.112805931698454D+03 -.690796914217926D+02 -.260848100817041D+02 0.283820575021802D+02
 0.109180115300610D+03 -.346718989740400D+02 0.103276798695311D+03 -.721525119705683D+01
 0.000000000000000D+00 0.000000000000000D+00 0.000000000000000D+00 -.000000000000000D+00
 0.201541393591084D+03 0.000000000000000D+00 0.000000000000000D+00 0.201541393591084D+03
 0.201541393591084D+03 -.000000000000000D+00 -.000000000000000D+00 -.201541393591084D+03
 0.179966135497095D+03 0.103125823270276D+03 -.753280230573890D+02 -.212970289677221D+02
 0.112762302278878D+03 -.694706293855116D+02 -.249203275302409D+02 0.283007029847132D+02
 0.845404807018225D+02 -.148473502398697D+02 0.831936109107700D+02 -.233926735908485D+01
 0.258138687043722D+02 -.188078436448943D+02 0.170547396768598D+02 -.466440665790622D+01
-.856585084512D-05 0.000000000000D+00 0.000000000000D+00 0.144086166941D-06 0.000000000000D+00  6 1 21 25 -24 2 21 4 0.15784257D+00 0.60908467D-02 0.39551616D+05 0.39551616D+05 0.39551616D+05 0.12024977D+01  1  2 13  3  6  5        2 -.591330239833D-01 0.100000000000D+01
0.137469646995D-04 0.000000000000D+00 0.000000000000D+00 0.144074344643D-06 0.700163211997D-08  6 1 21 25 -24 2 21 4 0.15784257D+00 0.60908467D-02 0.39551616D+05 0.39551616D+05 0.39551616D+05 0.12024977D+01  1  2  1  3  6  5        2 0.949000406344D-01 0.100000000000D+01
  </mgrwgt>
  </event>
  <event>
  5     66 -.42980143E-03 0.11402748E+03 0.75467711E-02 0.10711542E+00
        1 -1    0    0  502    0 0.00000000E+00 0.00000000E+00 0.19014192E+04 0.19014193E+04 0.32000000E+00 0.0000E+00 0.9000E+01
       21 -1    0    0  501  502 0.00000000E+00 0.00000000E+00 -.10129452E+03 0.10129729E+03 0.75000000E+00 0.0000E+00 0.9000E+01
       25  1    1    2    0    0 -.25184158E+03 -.14676964E+03 0.15386806E+04 0.15710279E+04 0.12500000E+03 0.0000E+00 0.9000E+01
      -24  1    1    2    0    0 0.13357075E+03 0.15723962E+03 0.19810695E+03 0.29711786E+03 0.80419002E+02 0.0000E+00 0.9000E+01
        2  1    1    2  501    0 0.11827084E+03 -.10469982E+02 0.63337152E+02 0.13457083E+03 0.32000000E+00 0.0000E+00 0.9000E+01
#aMCatNLO 1  0  0  2  1 0.25680862D+01 0.00000000D+00  -5  6  0 0.00000000D+00 0.00000000D+00 0.00000000D+00 0.00000000D+00 0.00000000D+00
  <mgrwgt>
 -.2212543726D+00   41    2    0
 0.438869170235306D+03 0.000000000000000D+00 0.000000000000000D+00 0.438869170235306D+03
 0.438869170235306D+03 0.000000000000000D+00 0.000000000000000D+00 -.438869170235306D+03
 0.428950849234959D+03 -.251841677427945D+03 -.146769631075019D+03 0.288804909867846D+03
 0.271636282367098D+03 0.133570685870093D+03 0.157239626571463D+03 -.157332849893807D+03
 0.177151208868555D+03 0.118270991557853D+03 -.104699954964441D+02 -.131472059974039D+03
 0.000000000000000D+00 0.000000000000000D+00 0.000000000000000D+00 -.000000000000000D+00
 0.438880242445631D+03 0.000000000000000D+00 0.000000000000000D+00 0.438880242445631D+03
 0.618205900991872D+03 0.000000000000000D+00 0.000000000000000D+00 -.618205900991872D+03
 0.429795015682605D+03 -.253012675594416D+03 -.147224541196063D+03 0.288804909867846D+03
 0.271106574531462D+03 0.132830593933400D+03 0.156952115179777D+03 -.157332849893807D+03
 0.176840507100799D+03 0.117788283381568D+03 -.106575182793057D+02 -.131472059974039D+03
 0.179344046122637D+03 0.239379827944750D+01 0.929944295592467D+00 -.179325658546240D+03
0.542656717350D-05 0.000000000000D+00 0.000000000000D+00 0.406137599844D-07 0.000000000000D+00  6 1 21 25 -24 2 21 2 0.29252625D+00 0.15583987D-01 0.10801964D+06 0.10801964D+06 0.10801964D+06 0.11605065D+01  1  2  2  2  6  2       21 0.112258147103D-02 0.100000000000D+01
-.550154259506D-07 0.286367817257D-06 -.109546756600D-07 0.406137599844D-07 0.000000000000D+00  6 1 21 25 -24 2 21 4 0.29252625D+00 0.15583987D-01 0.10801964D+06 0.10801964D+06 0.10801964D+06 0.11605065D+01  1  2  3  2  6  2       21 -.153275355068D-04 0.100000000000D+01
0.528407101710D-06 0.000000000000D+00 0.000000000000D+00 0.406137599844D-07 0.000000000000D+00  6 1 21 25 -24 2 21 4 0.29252625D+00 0.15583987D-01 0.10801964D+06 0.10801964D+06 0.10801964D+06 0.11605065D+01  1  2 15  2  6  2       21 0.147216502891D-03 0.100000000000D+01
0.147468884768D-03 0.000000000000D+00 0.000000000000D+00 0.405919485878D-07 0.000000000000D+00  6 1 21 25 -24 2 21 4 0.29252625D+00 0.21952266D-01 0.10887410D+06 0.10887410D+06 0.10887410D+06 0.11601949D+01  1  2 12  2  6  2       21 0.215609836077D-01 0.100000000000D+01
0.147381307202D-03 0.000000000000D+00 0.000000000000D+00 0.405919485878D-07 0.000000000000D+00  6 1 21 25 -24 2 21 4 0.29252625D+00 0.21956453D-01 0.10887410D+06 0.10887410D+06 0.10887410D+06 0.11601949D+01  1  2 12  2  6  2       21 0.215403387447D-01 0.100000000000D+01
-.397770141356D-01 0.000000000000D+00 0.000000000000D+00 0.406137599844D-07 0.000000000000D+00  6 1 21 25 -24 2 21 4 0.29252625D+00 0.15583987D-01 0.10801964D+06 0.10801964D+06 0.10801964D+06 0.11605065D+01  1  2  4  2  6  2       21 -.110820480980D+02 0.100000000000D+01
-.494879413423D-01 0.000000000000D+00 -.704385519908D-05 0.406137599844D-07 0.000000000000D+00  6 1 21 25 -24 2 21 4 0.29252625D+00 0.21952355D-01 0.10801964D+06 0.10801964D+06 0.10801964D+06 0.11605065D+01  1  2  5  2  6  2       21 -.724695355706D+01 0.100000000000D+01
0.389906623830D-01 0.000000000000D+00 0.562989996550D-05 0.406137599844D-07 0.000000000000D+00  6 1 21 25 -24 2 21 4 0.29252625D+00 0.15583987D-01 0.10801964D+06 0.10801964D+06 0.10801964D+06 0.11605065D+01  1  2  6  2  6  2       21 0.108629671003D+02 0.100000000000D+01
0.493547657587D-01 0.000000000000D+00 0.000000000000D+00 0.406137599844D-07 0.126619445598D-06  6 1 21 25 -24 2 21 4 0.29253363D+00 0.21952130D-01 0.10887410D+06 0.10887410D+06 0.10887410D+06 0.11601949D+01  1  2 11  2  6  2       21 0.721557677203D+01 0.100000000000D+01
0.170492221241D-04 0.000000000000D+00 0.000000000000D+00 0.405919485878D-07 0.000000000000D+00  6 1 -1 25 -24 2 -1 4 0.29252625D+00 0.21952266D-01 0.10887410D+06 0.10887410D+06 0.10887410D+06 0.11601949D+01  1  2 12  5  6  2       21 0.207175960760D-03 0.100000000000D+01
0.170508317026D-04 0.000000000000D+00 0.000000000000D+00 0.405919485878D-07 0.000000000000D+00  6 1 -1 25 -24 2 -1 4 0.29252625D+00 0.21956453D-01 0.10887410D+06 0.10887410D+06 0.10887410D+06 0.11601949D+01  1  2 12  5  6  2       21 0.207130150517D-03 0.100000000000D+01
-.572110861803D-02 0.000000000000D+00 -.780787228245D-06 0.406137599844D-07 0.000000000000D+00  6 1 -1 25 -24 2 -1 4 0.29252625D+00 0.21952355D-01 0.10801964D+06 0.10801964D+06 0.10801964D+06 0.11605065D+01  1  2  5  5  6  2       21 -.696183830332D-01 0.100000000000D+01
0.553681731219D-02 0.000000000000D+00 0.000000000000D+00 0.406137599844D-07 0.142037769416D-07  6 1 -1 25 -24 2 -1 4 0.29253363D+00 0.21952130D-01 0.10887410D+06 0.10887410D+06 0.10887410D+06 0.11601949D+01  1  2 11  5  6  2       21 0.672772277938D-01 0.100000000000D+01
0.170492221241D-04 0.000000000000D+00 0.000000000000D+00 0.405919485878D-07 0.000000000000D+00  6 1 1 25 -24 2 1 4 0.29252625D+00 0.21952266D-01 0.10887410D+06 0.10887410D+06 0.10887410D+06 0.11601949D+01  1  2 12  6  6  2       21 0.321640512236D-03 0.100000000000D+01
0.170508317026D-04 0.000000000000D+00 0.000000000000D+00 0.405919485878D-07 0.000000000000D+00  6 1 1 25 -24 2 1 4 0.29252625D+00 0.21956453D-01 0.10887410D+06 0.10887410D+06 0.10887410D+06 0.11601949D+01  1  2 12  6  6  2       21 0.321591452210D-03 0.100000000000D+01
-.572110861803D-02 0.000000000000D+00 -.780787228245D-06 0.406137599844D-07 0.000000000000D+00  6 1 1 25 -24 2 1 4 0.29252625D+00 0.21952355D-01 0.10801964D+06 0.10801964D+06 0.10801964D+06 0.11605065D+01  1  2  5  6  6  2       21 -.108082690587D+00 0.100000000000D+01
0.553605722702D-02 0.000000000000D+00 0.000000000000D+00 0.406137599844D-07 0.142018357855D-07  6 1 1 25 -24 2 1 4 0.29253363D+00 0.21952130D-01 0.10887410D+06 0.10887410D+06 0.10887410D+06 0.11601949D+01  1  2 11  6  6  2       21 0.104433270901D+00 0.100000000000D+01
0.170492221241D-04 0.000000000000D+00 0.000000000000D+00 0.405919485878D-07 0.000000000000D+00  6 1 -2 25 -24 2 -2 4 0.29252625D+00 0.21952266D-01 0.10887410D+06 0.10887410D+06 0.10887410D+06 0.11601949D+01  1  2 12  7  6  2       21 0.188209656240D-03 0.100000000000D+01
0.170508317026D-04 0.000000000000D+00 0.000000000000D+00 0.405919485878D-07 0.000000000000D+00  6 1 -2 25 -24 2 -2 4 0.29252625D+00 0.21956453D-01 0.10887410D+06 0.10887410D+06 0.10887410D+06 0.11601949D+01  1  2 12  7  6  2       21 0.188164757669D-03 0.100000000000D+01
-.572110861803D-02 0.000000000000D+00 -.780787228245D-06 0.406137599844D-07 0.000000000000D+00  6 1 -2 25 -24 2 -2 4 0.29252625D+00 0.21952355D-01 0.10801964D+06 0.10801964D+06 0.10801964D+06 0.11605065D+01  1  2  5  7  6  2       21 -.632445701148D-01 0.100000000000D+01
0.549141387112D-02 0.000000000000D+00 0.000000000000D+00 0.406137599844D-07 0.140880757828D-07  6 1 -2 25 -24 2 -2 4 0.29253363D+00 0.21952130D-01 0.10887410D+06 0.10887410D+06 0.10887410D+06 0.11601949D+01  1  2 11  7  6  2       21 0.606170582101D-01 0.100000000000D+01
0.170492221241D-04 0.000000000000D+00 0.000000000000D+00 0.405919485878D-07 0.000000000000D+00  6 1 2 25 -24 2 2 4 0.29252625D+00 0.21952266D-01 0.10887410D+06 0.10887410D+06 0.10887410D+06 0.11601949D+01  1  2 12  8  6  2       21 0.403643906662D-03 0.100000000000D+01
0.170508317026D-04 0.000000000000D+00 0.000000000000D+00 0.405919485878D-07 0.000000000000D+00  6 1 2 25 -24 2 2 4 0.29252625D+00 0.21956453D-01 0.10887410D+06 0.10887410D+06 0.10887410D+06 0.11601949D+01  1  2 12  8  6  2       21 0.403593804529D-03 0.100000000000D+01
-.572110861803D-02 0.000000000000D+00 -.780787228245D-06 0.406137599844D-07 0.000000000000D+00  6 1 2 25 -24 2 2 4 0.29252625D+00 0.21952355D-01 0.10801964D+06 0.10801964D+06 0.10801964D+06 0.11605065D+01  1  2  5  8  6  2       21 -.135637286514D+00 0.100000000000D+01
0.554213620085D-02 0.000000000000D+00 0.000000000000D+00 0.406137599844D-07 0.710876883206D-08  6 1 2 25 -24 2 2 4 0.29253363D+00 0.21952130D-01 0.10887410D+06 0.10887410D+06 0.10887410D+06 0.11601949D+01  1  2 11  8  6  2       21 0.131202696055D+00 0.100000000000D+01
0.170492221241D-04 0.000000000000D+00 0.000000000000D+00 0.405919485878D-07 0.000000000000D+00  6 1 -3 25 -24 2 -3 4 0.29252625D+00 0.21952266D-01 0.10887410D+06 0.10887410D+06 0.10887410D+06 0.11601949D+01  1  2 12  9  6  2       21 0.126242465821D-03 0.100000000000D+01
0.170492221241D-04 0.000000000000D+00 0.000000000000D+00 0.405919485878D-07 0.000000000000D+00  6 1 -4 25 -24 2 -4 4 0.29252625D+00 0.21952266D-01 0.10887410D+06 0.10887410D+06 0.10887410D+06 0.11601949D+01  1  2 12  9  6  2       21 0.108936525044D-03 0.100000000000D+01
0.170508317026D-04 0.000000000000D+00 0.000000000000D+00 0.405919485878D-07 0.000000000000D+00  6 1 -3 25 -24 2 -3 4 0.29252625D+00 0.21956453D-01 0.10887410D+06 0.10887410D+06 0.10887410D+06 0.11601949D+01  1  2 12  9  6  2       21 0.126210761554D-03 0.100000000000D+01
0.170508317026D-04 0.000000000000D+00 0.000000000000D+00 0.405919485878D-07 0.000000000000D+00  6 1 -4 25 -24 2 -4 4 0.29252625D+00 0.21956453D-01 0.10887410D+06 0.10887410D+06 0.10887410D+06 0.11601949D+01  1  2 12  9  6  2       21 0.108908383637D-03 0.100000000000D+01
-.572110861803D-02 0.000000000000D+00 -.780787228245D-06 0.406137599844D-07 0.000000000000D+00  6 1 -3 25 -24 2 -3 4 0.29252625D+00 0.21952355D-01 0.10801964D+06 0.10801964D+06 0.10801964D+06 0.11605065D+01  1  2  5  9  6  2       21 -.424156689159D-01 0.100000000000D+01
-.572110861803D-02 0.000000000000D+00 -.780787228245D-06 0.406137599844D-07 0.000000000000D+00  6 1 -4 25 -24 2 -4 4 0.29252625D+00 0.21952355D-01 0.10801964D+06 0.10801964D+06 0.10801964D+06 0.11605065D+01  1  2  5  9  6  2       21 -.365988050138D-01 0.100000000000D+01
0.553702391879D-02 0.000000000000D+00 0.000000000000D+00 0.406137599844D-07 0.142043069562D-07  6 1 -3 25 -24 2 -3 4 0.29253363D+00 0.21952130D-01 0.10887410D+06 0.10887410D+06 0.10887410D+06 0.11601949D+01  1  2 11  9  6  2       21 0.409968816227D-01 0.100000000000D+01
0.553702391879D-02 0.000000000000D+00 0.000000000000D+00 0.406137599844D-07 0.142043069562D-07  6 1 -4 25 -24 2 -4 4 0.29253363D+00 0.21952130D-01 0.10887410D+06 0.10887410D+06 0.10887410D+06 0.11601949D+01  1  2 11  9  6  2       21 0.353768348528D-01 0.100000000000D+01
0.170492221241D-04 0.000000000000D+00 0.000000000000D+00 0.405919485878D-07 0.000000000000D+00  6 1 3 25 -24 2 3 4 0.29252625D+00 0.21952266D-01 0.10887410D+06 0.10887410D+06 0.10887410D+06 0.11601949D+01  1  2 12 10  6  2       21 0.126236130218D-03 0.100000000000D+01
0.170492221241D-04 0.000000000000D+00 0.000000000000D+00 0.405919485878D-07 0.000000000000D+00  6 1 4 25 -24 2 4 4 0.29252625D+00 0.21952266D-01 0.10887410D+06 0.10887410D+06 0.10887410D+06 0.11601949D+01  1  2 12 10  6  2       21 0.108936525044D-03 0.100000000000D+01
0.170508317026D-04 0.000000000000D+00 0.000000000000D+00 0.405919485878D-07 0.000000000000D+00  6 1 3 25 -24 2 3 4 0.29252625D+00 0.21956453D-01 0.10887410D+06 0.10887410D+06 0.10887410D+06 0.11601949D+01  1  2 12 10  6  2       21 0.126204432713D-03 0.100000000000D+01
0.170508317026D-04 0.000000000000D+00 0.000000000000D+00 0.405919485878D-07 0.000000000000D+00  6 1 4 25 -24 2 4 4 0.29252625D+00 0.21956453D-01 0.10887410D+06 0.10887410D+06 0.10887410D+06 0.11601949D+01  1  2 12 10  6  2       21 0.108908383637D-03 0.100000000000D+01
-.572110861803D-02 0.000000000000D+00 -.780787228245D-06 0.406137599844D-07 0.000000000000D+00  6 1 3 25 -24 2 3 4 0.29252625D+00 0.21952355D-01 0.10801964D+06 0.10801964D+06 0.10801964D+06 0.11605065D+01  1  2  5 10  6  2       21 -.424135356169D-01 0.100000000000D+01
-.572110861803D-02 0.000000000000D+00 -.780787228245D-06 0.406137599844D-07 0.000000000000D+00  6 1 4 25 -24 2 4 4 0.29252625D+00 0.21952355D-01 0.10801964D+06 0.10801964D+06 0.10801964D+06 0.11605065D+01  1  2  5 10  6  2       21 -.365988050138D-01 0.100000000000D+01
0.553702391879D-02 0.000000000000D+00 0.000000000000D+00 0.406137599844D-07 0.142043069562D-07  6 1 3 25 -24 2 3 4 0.29253363D+00 0.21952130D-01 0.10887410D+06 0.10887410D+06 0.10887410D+06 0.11601949D+01  1  2 11 10  6  2       21 0.409948240991D-01 0.100000000000D+01
0.553702391879D-02 0.000000000000D+00 0.000000000000D+00 0.406137599844D-07 0.142043069562D-07  6 1 4 25 -24 2 4 4 0.29253363D+00 0.21952130D-01 0.10887410D+06 0.10887410D+06 0.10887410D+06 0.11601949D+01  1  2 11 10  6  2       21 0.353768348528D-01 0.100000000000D+01
  </mgrwgt>
  </event>
  <event>
  5     66 0.42980143E-03 0.52046865E+02 0.75467711E-02 0.12088196E+00
        1 -1    0    0  502    0 0.00000000E+00 0.00000000E+00 0.64429781E+03 0.64429789E+03 0.32000000E+00 0.0000E+00 0.9000E+01
       21 -1    0    0  501  502 0.00000000E+00 0.00000000E+00 -.62218419E+02 0.62222939E+02 0.75000000E+00 0.0000E+00 0.9000E+01
       25  1    1    2    0    0 0.10903533E+02 0.89040802E+01 0.33115819E+03 0.35424415E+03 0.12500000E+03 0.0000E+00 0.9000E+01
      -24  1    1    2    0    0 -.37622346E+02 -.53569185E+02 0.27575585E+03 0.29460754E+03 0.80419002E+02 0.0000E+00 0.9000E+01
        2  1    1    2  501    0 0.26718812E+02 0.44665105E+02 -.24834654E+02 0.57669134E+02 0.32000000E+00 0.0000E+00 0.9000E+01
#aMCatNLO 1  0  0  2  1 0.64237299D+01 0.00000000D+00  -5  6  0 0.00000000D+00 0.00000000D+00 0.00000000D+00 0.00000000D+00 0.00000000D+00
  <mgrwgt>
 0.1128906993D+00   32    2    0
 0.200221916023088D+03 0.000000000000000D+00 0.000000000000000D+00 0.200221916023088D+03
 0.200221916023088D+03 0.000000000000000D+00 0.000000000000000D+00 -.200221916023088D+03
 0.143641951875836D+03 0.109035074069016D+02 0.890403701285540D+01 0.693530243738614D+02
 0.118954499714228D+03 -.376223671152822D+02 -.535692208870268D+02 0.582911066466535D+02
 0.137847380456112D+03 0.267188597083806D+02 0.446651838741714D+02 -.127644131020515D+03
 0.000000000000000D+00 0.000000000000000D+00 0.000000000000000D+00 -.000000000000000D+00
 0.202365759145376D+03 0.000000000000000D+00 0.000000000000000D+00 0.202365759145376D+03
 0.205118153486159D+03 0.000000000000000D+00 0.000000000000000D+00 -.205118153486159D+03
 0.143434757923362D+03 0.917362434089236D+01 0.738460609539927D+01 0.693530243738614D+02
 0.119990342761555D+03 -.390622144543373D+02 -.548339009144604D+02 0.582911066466535D+02
 0.137070251260253D+03 0.250622455024210D+02 0.432101081570370D+02 -.127644131020515D+03
 0.698856068636581D+01 0.482634461102398D+01 0.423918666202413D+01 -.275239434078302D+01
0.276190572911D-05 0.000000000000D+00 0.000000000000D+00 0.204190487090D-05 0.000000000000D+00  6 1 21 25 -24 2 21 2 0.99123093D-01 0.95724183D-02 0.19814846D+05 0.19814846D+05 0.19814846D+05 0.12342710D+01  1  2  2  2  6  2       21 0.130913604749D-01 0.100000000000D+01
0.165722846491D-06 0.145749769574D-06 -.557549192676D-08 0.204190487090D-05 0.000000000000D+00  6 1 21 25 -24 2 21 4 0.99123093D-01 0.95724183D-02 0.19814846D+05 0.19814846D+05 0.19814846D+05 0.12342710D+01  1  2  3  2  6  2       21 0.119668363874D-02 0.100000000000D+01
0.266423692554D-06 0.000000000000D+00 0.000000000000D+00 0.204190487090D-05 0.000000000000D+00  6 1 21 25 -24 2 21 4 0.99123093D-01 0.95724183D-02 0.19814846D+05 0.19814846D+05 0.19814846D+05 0.12342710D+01  1  2 15  2  6  2       21 0.192384381877D-02 0.100000000000D+01
0.443456678589D-05 0.000000000000D+00 0.000000000000D+00 0.203603772288D-05 0.000000000000D+00  6 1 21 25 -24 2 21 4 0.99123093D-01 0.98568396D-02 0.20564937D+05 0.20564937D+05 0.20564937D+05 0.12324964D+01  1  2 12  2  6  2       21 0.302428950322D-01 0.100000000000D+01
-.136737184069D-05 0.000000000000D+00 0.000000000000D+00 0.204190487090D-05 0.000000000000D+00  6 1 21 25 -24 2 21 4 0.99123093D-01 0.95724183D-02 0.19814846D+05 0.19814846D+05 0.19814846D+05 0.12342710D+01  1  2  4  2  6  2       21 -.987378351550D-02 0.100000000000D+01
-.171486845351D-03 0.000000000000D+00 -.246333364043D-04 0.204190487090D-05 0.000000000000D+00  6 1 21 25 -24 2 21 4 0.99123093D-01 0.99096684D-02 0.19814846D+05 0.19814846D+05 0.19814846D+05 0.12342710D+01  1  2  5  2  6  2       21 -.116549258418D+01 0.100000000000D+01
0.171956182435D-03 0.000000000000D+00 0.245743711547D-04 0.204190487090D-05 0.000000000000D+00  6 1 21 25 -24 2 21 4 0.99123093D-01 0.95724183D-02 0.19814846D+05 0.19814846D+05 0.19814846D+05 0.12342710D+01  1  2  6  2  6  2       21 0.124169451863D+01 0.100000000000D+01
0.496197666205D-06 0.000000000000D+00 0.000000000000D+00 0.204190487090D-05 0.425082252964D-06  6 1 21 25 -24 2 21 4 0.10018444D+00 0.98065027D-02 0.20564937D+05 0.20564937D+05 0.20564937D+05 0.12324964D+01  1  2 11  2  6  2       21 0.336409922548D-02 0.100000000000D+01
0.141521043473D-06 0.000000000000D+00 0.000000000000D+00 0.203603772288D-05 0.000000000000D+00  6 1 -1 25 -24 2 -1 4 0.99123093D-01 0.98568396D-02 0.20564937D+05 0.20564937D+05 0.20564937D+05 0.12324964D+01  1  2 12  5  6  2       21 0.638890419013D-04 0.100000000000D+01
-.118967895350D-05 0.000000000000D+00 -.199407054243D-06 0.204190487090D-05 0.000000000000D+00  6 1 -1 25 -24 2 -1 4 0.99123093D-01 0.99096684D-02 0.19814846D+05 0.19814846D+05 0.19814846D+05 0.12342710D+01  1  2  5  5  6  2       21 -.535556789148D-03 0.100000000000D+01
0.291156062379D-07 0.000000000000D+00 0.000000000000D+00 0.204190487090D-05 0.385922372172D-08  6 1 -1 25 -24 2 -1 4 0.10018444D+00 0.98065027D-02 0.20564937D+05 0.20564937D+05 0.20564937D+05 0.12324964D+01  1  2 11  5  6  2       21 0.130518622211D-04 0.100000000000D+01
0.141521043473D-06 0.000000000000D+00 0.000000000000D+00 0.203603772288D-05 0.000000000000D+00  6 1 1 25 -24 2 1 4 0.99123093D-01 0.98568396D-02 0.20564937D+05 0.20564937D+05 0.20564937D+05 0.12324964D+01  1  2 12  6  6  2       21 0.798335006995D-04 0.100000000000D+01
-.118967895350D-05 0.000000000000D+00 -.199407054243D-06 0.204190487090D-05 0.000000000000D+00  6 1 1 25 -24 2 1 4 0.99123093D-01 0.99096684D-02 0.19814846D+05 0.19814846D+05 0.19814846D+05 0.12342710D+01  1  2  5  6  6  2       21 -.669962178750D-03 0.100000000000D+01
0.218865376983D-07 0.000000000000D+00 0.000000000000D+00 0.204190487090D-05 0.375002560478D-08  6 1 1 25 -24 2 1 4 0.10018444D+00 0.98065027D-02 0.20564937D+05 0.20564937D+05 0.20564937D+05 0.12324964D+01  1  2 11  6  6  2       21 0.122473623998D-04 0.100000000000D+01
0.141521043473D-06 0.000000000000D+00 0.000000000000D+00 0.203603772288D-05 0.000000000000D+00  6 1 -2 25 -24 2 -2 4 0.99123093D-01 0.98568396D-02 0.20564937D+05 0.20564937D+05 0.20564937D+05 0.12324964D+01  1  2 12  7  6  2       21 0.611183858647D-04 0.100000000000D+01
-.118967895350D-05 0.000000000000D+00 -.199407054243D-06 0.204190487090D-05 0.000000000000D+00  6 1 -2 25 -24 2 -2 4 0.99123093D-01 0.99096684D-02 0.19814846D+05 0.19814846D+05 0.19814846D+05 0.12342710D+01  1  2  5  7  6  2       21 -.512199288826D-03 0.100000000000D+01
0.362198755840D-07 0.000000000000D+00 0.000000000000D+00 0.204190487090D-05 0.281774325092D-07  6 1 -2 25 -24 2 -2 4 0.10018444D+00 0.98065027D-02 0.20564937D+05 0.20564937D+05 0.20564937D+05 0.12324964D+01  1  2 11  7  6  2       21 0.155359379968D-04 0.100000000000D+01
0.141521043473D-06 0.000000000000D+00 0.000000000000D+00 0.203603772288D-05 0.000000000000D+00  6 1 2 25 -24 2 2 4 0.99123093D-01 0.98568396D-02 0.20564937D+05 0.20564937D+05 0.20564937D+05 0.12324964D+01  1  2 12  8  6  2       21 0.906116234250D-04 0.100000000000D+01
-.118967895350D-05 0.000000000000D+00 -.199407054243D-06 0.204190487090D-05 0.000000000000D+00  6 1 2 25 -24 2 2 4 0.99123093D-01 0.99096684D-02 0.19814846D+05 0.19814846D+05 0.19814846D+05 0.12342710D+01  1  2  5  8  6  2       21 -.760810457543D-03 0.100000000000D+01
0.269382883182D-07 0.000000000000D+00 0.000000000000D+00 0.204190487090D-05 0.232317807107D-08  6 1 2 25 -24 2 2 4 0.10018444D+00 0.98065027D-02 0.20564937D+05 0.20564937D+05 0.20564937D+05 0.12324964D+01  1  2 11  8  6  2       21 0.171007862328D-04 0.100000000000D+01
0.141521043473D-06 0.000000000000D+00 0.000000000000D+00 0.203603772288D-05 0.000000000000D+00  6 1 -3 25 -24 2 -3 4 0.99123093D-01 0.98568396D-02 0.20564937D+05 0.20564937D+05 0.20564937D+05 0.12324964D+01  1  2 12  9  6  2       21 0.421325356298D-04 0.100000000000D+01
0.141521043473D-06 0.000000000000D+00 0.000000000000D+00 0.203603772288D-05 0.000000000000D+00  6 1 -4 25 -24 2 -4 4 0.99123093D-01 0.98568396D-02 0.20564937D+05 0.20564937D+05 0.20564937D+05 0.12324964D+01  1  2 12  9  6  2       21 0.368302809076D-04 0.100000000000D+01
-.118967895350D-05 0.000000000000D+00 -.199407054243D-06 0.204190487090D-05 0.000000000000D+00  6 1 -3 25 -24 2 -3 4 0.99123093D-01 0.99096684D-02 0.19814846D+05 0.19814846D+05 0.19814846D+05 0.12342710D+01  1  2  5  9  6  2       21 -.352639458716D-03 0.100000000000D+01
-.118967895350D-05 0.000000000000D+00 -.199407054243D-06 0.204190487090D-05 0.000000000000D+00  6 1 -4 25 -24 2 -4 4 0.99123093D-01 0.99096684D-02 0.19814846D+05 0.19814846D+05 0.19814846D+05 0.12342710D+01  1  2  5  9  6  2       21 -.308088664710D-03 0.100000000000D+01
0.291273214833D-07 0.000000000000D+00 0.000000000000D+00 0.204190487090D-05 0.386077655742D-08  6 1 -3 25 -24 2 -3 4 0.10018444D+00 0.98065027D-02 0.20564937D+05 0.20564937D+05 0.20564937D+05 0.12324964D+01  1  2 11  9  6  2       21 0.861624172296D-05 0.100000000000D+01
0.291273214833D-07 0.000000000000D+00 0.000000000000D+00 0.204190487090D-05 0.386077655742D-08  6 1 -4 25 -24 2 -4 4 0.10018444D+00 0.98065027D-02 0.20564937D+05 0.20564937D+05 0.20564937D+05 0.12324964D+01  1  2 11  9  6  2       21 0.753314979209D-05 0.100000000000D+01
0.141521043473D-06 0.000000000000D+00 0.000000000000D+00 0.203603772288D-05 0.000000000000D+00  6 1 3 25 -24 2 3 4 0.99123093D-01 0.98568396D-02 0.20564937D+05 0.20564937D+05 0.20564937D+05 0.12324964D+01  1  2 12 10  6  2       21 0.421272289665D-04 0.100000000000D+01
0.141521043473D-06 0.000000000000D+00 0.000000000000D+00 0.203603772288D-05 0.000000000000D+00  6 1 4 25 -24 2 4 4 0.99123093D-01 0.98568396D-02 0.20564937D+05 0.20564937D+05 0.20564937D+05 0.12324964D+01  1  2 12 10  6  2       21 0.368302809076D-04 0.100000000000D+01
-.118967895350D-05 0.000000000000D+00 -.199407054243D-06 0.204190487090D-05 0.000000000000D+00  6 1 3 25 -24 2 3 4 0.99123093D-01 0.99096684D-02 0.19814846D+05 0.19814846D+05 0.19814846D+05 0.12342710D+01  1  2  5 10  6  2       21 -.352594846673D-03 0.100000000000D+01
-.118967895350D-05 0.000000000000D+00 -.199407054243D-06 0.204190487090D-05 0.000000000000D+00  6 1 4 25 -24 2 4 4 0.99123093D-01 0.99096684D-02 0.19814846D+05 0.19814846D+05 0.19814846D+05 0.12342710D+01  1  2  5 10  6  2       21 -.308088664710D-03 0.100000000000D+01
0.291273214833D-07 0.000000000000D+00 0.000000000000D+00 0.204190487090D-05 0.386077655742D-08  6 1 3 25 -24 2 3 4 0.10018444D+00 0.98065027D-02 0.20564937D+05 0.20564937D+05 0.20564937D+05 0.12324964D+01  1  2 11 10  6  2       21 0.861515741395D-05 0.100000000000D+01
0.291273214833D-07 0.000000000000D+00 0.000000000000D+00 0.204190487090D-05 0.386077655742D-08  6 1 4 25 -24 2 4 4 0.10018444D+00 0.98065027D-02 0.20564937D+05 0.20564937D+05 0.20564937D+05 0.12324964D+01  1  2 11 10  6  2       21 0.753314979209D-05 0.100000000000D+01
  </mgrwgt>
  </event>
  <event>
  5     66 0.42980143E-03 0.21201177E+02 0.75467711E-02 0.91700391E-01
        1 -1    0    0  502    0 0.00000000E+00 0.00000000E+00 0.48140974E+03 0.48140985E+03 0.32000000E+00 0.0000E+00 0.9000E+01
       21 -1    0    0  501  502 0.00000000E+00 0.00000000E+00 -.46752019E+02 0.46758035E+02 0.75000000E+00 0.0000E+00 0.9000E+01
       25  1    1    2    0    0 -.32182183E+02 -.25151132E+02 0.27904392E+03 0.30847817E+03 0.12500000E+03 0.0000E+00 0.9000E+01
      -24  1    1    2    0    0 0.53072358E+02 0.21534382E+02 0.16819753E+03 0.19503341E+03 0.80419002E+02 0.0000E+00 0.9000E+01
        2  1    1    2  501    0 -.20890175E+02 0.36167506E+01 -.12583735E+02 0.24656299E+02 0.32000000E+00 0.0000E+00 0.9000E+01
#aMCatNLO 1  0  0  2  1 0.27817717D+01 0.00000000D+00  -5  6  0 0.00000000D+00 0.00000000D+00 0.00000000D+00 0.00000000D+00 0.00000000D+00
  <mgrwgt>
 0.3175606418D+00   12    2    0
 0.150028311004905D+03 0.000000000000000D+00 0.000000000000000D+00 0.150028311004905D+03
 0.150028311004905D+03 0.000000000000000D+00 0.000000000000000D+00 -.150028311004905D+03
 0.138772789249478D+03 -.321820529073465D+02 -.251511549696459D+02 0.443240556632826D+02
 0.996546935249441D+02 0.530724512011981D+02 0.215343656479431D+02 0.135435596065855D+02
 0.616291392353878D+02 -.208903982938516D+02 0.361678932170283D+01 -.578676152698681D+02
 0.000000000000000D+00 0.000000000000000D+00 0.000000000000000D+00 -.000000000000000D+00
 0.792243465749746D+03 0.000000000000000D+00 0.000000000000000D+00 0.792243465749746D+03
 0.206048639108794D+04 0.000000000000000D+00 0.000000000000000D+00 -.206048639108794D+04
 0.669485957547122D+03 -.645552633101155D+03 -.117828788241715D+03 0.443240556632826D+02
 0.177309563227232D+03 -.157109903806189D+03 -.102232762191961D+02 0.135435596065855D+02
 0.313437278515791D+03 -.305520422007220D+03 -.393895722608706D+02 -.578676152698681D+02
 0.169249705754755D+04 0.110818295891456D+04 0.167441636721781D+03 -.126824292533820D+04
0.803954563688D-05 0.000000000000D+00 0.000000000000D+00 0.353474969907D-05 0.000000000000D+00  6 1 21 25 -24 2 21 2 0.74063508D-01 0.71930893D-02 0.15804905D+05 0.15804905D+05 0.15804905D+05 0.12452429D+01  1  2  2  2  6  2       21 0.937931890265D-01 0.100000000000D+01
0.119614262511D-05 0.424258479101D-06 -.162295263451D-07 0.353474969907D-05 0.000000000000D+00  6 1 21 25 -24 2 21 4 0.74063508D-01 0.71930893D-02 0.15804905D+05 0.15804905D+05 0.15804905D+05 0.12452429D+01  1  2  3  2  6  2       21 0.216386878733D-01 0.100000000000D+01
0.729908258661D-06 0.000000000000D+00 0.000000000000D+00 0.353474969907D-05 0.000000000000D+00  6 1 21 25 -24 2 21 4 0.74063508D-01 0.71930893D-02 0.15804905D+05 0.15804905D+05 0.15804905D+05 0.12452429D+01  1  2 15  2  6  2       21 0.132043258503D-01 0.100000000000D+01
0.300104341004D-01 0.000000000000D+00 -.673082657054D-02 0.353474969907D-05 0.000000000000D+00  6 1 21 25 -24 2 21 4 0.74063508D-01 0.38124850D+00 0.15804905D+05 0.15804905D+05 0.15804905D+05 0.12452429D+01  1  2  5  2  6  2       21 0.496308567159D-01 0.100000000000D+01
0.133334077898D-01 0.000000000000D+00 -.298985122721D-02 0.353474969907D-05 0.000000000000D+00  6 1 -1 25 -24 2 -1 4 0.74063508D-01 0.38124850D+00 0.15804905D+05 0.15804905D+05 0.15804905D+05 0.12452429D+01  1  2  5  5  6  2       21 0.206063317776D-02 0.100000000000D+01
0.133334077898D-01 0.000000000000D+00 -.298985122721D-02 0.353474969907D-05 0.000000000000D+00  6 1 1 25 -24 2 1 4 0.74063508D-01 0.38124850D+00 0.15804905D+05 0.15804905D+05 0.15804905D+05 0.12452429D+01  1  2  5  6  6  2       21 0.340597369171D-01 0.100000000000D+01
0.133334077898D-01 0.000000000000D+00 -.298985122721D-02 0.353474969907D-05 0.000000000000D+00  6 1 -2 25 -24 2 -2 4 0.74063508D-01 0.38124850D+00 0.15804905D+05 0.15804905D+05 0.15804905D+05 0.12452429D+01  1  2  5  7  6  2       21 0.182008096795D-02 0.100000000000D+01
0.133334077898D-01 0.000000000000D+00 -.298985122721D-02 0.353474969907D-05 0.000000000000D+00  6 1 2 25 -24 2 2 4 0.74063508D-01 0.38124850D+00 0.15804905D+05 0.15804905D+05 0.15804905D+05 0.12452429D+01  1  2  5  8  6  2       21 0.965905720925D-01 0.100000000000D+01
0.133334077898D-01 0.000000000000D+00 -.298985122721D-02 0.353474969907D-05 0.000000000000D+00  6 1 -3 25 -24 2 -3 4 0.74063508D-01 0.38124850D+00 0.15804905D+05 0.15804905D+05 0.15804905D+05 0.12452429D+01  1  2  5  9  6  2       21 0.146655386731D-02 0.100000000000D+01
0.133334077898D-01 0.000000000000D+00 -.298985122721D-02 0.353474969907D-05 0.000000000000D+00  6 1 -4 25 -24 2 -4 4 0.74063508D-01 0.38124850D+00 0.15804905D+05 0.15804905D+05 0.15804905D+05 0.12452429D+01  1  2  5  9  6  2       21 0.888020976864D-03 0.100000000000D+01
0.133334077898D-01 0.000000000000D+00 -.298985122721D-02 0.353474969907D-05 0.000000000000D+00  6 1 3 25 -24 2 3 4 0.74063508D-01 0.38124850D+00 0.15804905D+05 0.15804905D+05 0.15804905D+05 0.12452429D+01  1  2  5 10  6  2       21 0.151996335243D-02 0.100000000000D+01
0.133334077898D-01 0.000000000000D+00 -.298985122721D-02 0.353474969907D-05 0.000000000000D+00  6 1 4 25 -24 2 4 4 0.74063508D-01 0.38124850D+00 0.15804905D+05 0.15804905D+05 0.15804905D+05 0.12452429D+01  1  2  5 10  6  2       21 0.888020976864D-03 0.100000000000D+01
  </mgrwgt>
  </event>
  <event>
  5     66 0.42980143E-03 0.21896394E+02 0.75467711E-02 0.11698189E+00
        1 -1    0    0  502    0 0.00000000E+00 0.00000000E+00 0.33076283E+04 0.33076284E+04 0.32000000E+00 0.0000E+00 0.9000E+01
       21 -1    0    0  501  502 0.00000000E+00 0.00000000E+00 -.31016184E+02 0.31025250E+02 0.75000000E+00 0.0000E+00 0.9000E+01
       25  1    1    2    0    0 0.36313857E+02 -.44969125E+02 0.11202156E+04 0.11286491E+04 0.12500000E+03 0.0000E+00 0.9000E+01
      -24  1    1    2    0    0 -.52739890E+02 0.30490275E+02 0.21773559E+04 0.21796920E+04 0.80419002E+02 0.0000E+00 0.9000E+01
        2  1    1    2  501    0 0.16426034E+02 0.14478850E+02 -.20959329E+02 0.30312498E+02 0.32000000E+00 0.0000E+00 0.9000E+01
#aMCatNLO 1  0  0  1  2 0.53232441D+01 0.00000000D+00  -5  6  0 0.00000000D+00 0.00000000D+00 0.00000000D+00 0.00000000D+00 0.00000000D+00
  <mgrwgt>
 0.8528213854D+00    7    2    0
 0.320320417410642D+03 0.000000000000000D+00 0.000000000000000D+00 0.320320417410642D+03
 0.320320417410642D+03 0.000000000000000D+00 0.000000000000000D+00 -.320320417410642D+03
 0.152435679953065D+03 0.363138539107797D+02 -.449691278219057D+02 0.653507312876971D+02
 0.223035556116990D+03 -.527398944352657D+02 0.304902715257501D+02 0.198913273099830D+03
 0.265169598751229D+03 0.164260405244859D+02 0.144788562961556D+02 -.264264004387527D+03
 0.000000000000000D+00 0.000000000000000D+00 -.000000000000000D+00 0.000000000000000D+00
 0.385617684004619D+03 0.000000000000000D+00 0.000000000000000D+00 0.385617684004619D+03
 0.344411445377192D+03 0.000000000000000D+00 0.000000000000000D+00 -.344411445377192D+03
 0.147290038850775D+03 0.209694431210487D+02 -.368635310302618D+02 0.653507312876971D+02
 0.231608781629645D+03 -.760153394302791D+02 0.427853915444296D+02 0.198913273099830D+03
 0.266051645867449D+03 -.107697471115959D+02 0.288448747787146D+02 -.264264004387527D+03
 0.850786630339425D+02 0.658156434208263D+02 -.347667352928824D+02 0.412062386274267D+02
0.139843498997D-02 0.000000000000D+00 0.000000000000D+00 0.233985502686D-04 0.000000000000D+00  6 1 21 25 -24 2 21 2 0.50886660D+00 0.47724192D-02 0.16965206D+05 0.16965206D+05 0.16965206D+05 0.12417728D+01  1  2  2  1  6  1        1 0.335153615768D+00 0.100000000000D+01
0.515263326218D-03 0.737974418910D-04 -.282303733777D-05 0.233985502686D-04 0.000000000000D+00  6 1 21 25 -24 2 21 4 0.50886660D+00 0.47724192D-02 0.16965206D+05 0.16965206D+05 0.16965206D+05 0.12417728D+01  1  2  3  1  6  1        1 0.190421141277D+00 0.100000000000D+01
0.147285960878D-03 0.000000000000D+00 0.000000000000D+00 0.233985502686D-04 0.000000000000D+00  6 1 21 25 -24 2 21 4 0.50886660D+00 0.47724192D-02 0.16965206D+05 0.16965206D+05 0.16965206D+05 0.12417728D+01  1  2 15  1  6  1        1 0.544311215981D-01 0.100000000000D+01
-.261402600181D-02 0.000000000000D+00 0.000000000000D+00 0.233985502686D-04 0.000000000000D+00  6 1 21 25 -24 2 21 4 0.50886660D+00 0.47724192D-02 0.16965206D+05 0.16965206D+05 0.16965206D+05 0.12417728D+01  1  2  4  1  6  1        1 -.966041612639D+00 0.100000000000D+01
-.421252975220D-02 0.000000000000D+00 -.169528448042D-02 0.233985502686D-04 0.000000000000D+00  6 1 21 25 -24 2 21 4 0.62174918D+00 0.47724192D-02 0.16965206D+05 0.16965206D+05 0.16965206D+05 0.12417728D+01  1  2  5  1  6  1        1 -.423360573190D+00 0.100000000000D+01
0.450278432998D-02 0.000000000000D+00 0.167281129171D-02 0.233985502686D-04 0.000000000000D+00  6 1 21 25 -24 2 21 4 0.50886660D+00 0.47724192D-02 0.16965206D+05 0.16965206D+05 0.16965206D+05 0.12417728D+01  1  2  6  1  6  1        1 0.166405270356D+01 0.100000000000D+01
-.101128482685D-03 0.000000000000D+00 -.485789012459D-04 0.233985502686D-04 0.000000000000D+00  6 21 21 25 -24 2 -1 4 0.62174918D+00 0.47724192D-02 0.16965206D+05 0.16965206D+05 0.16965206D+05 0.12417728D+01  1  2  5  4  6  1        1 -.183501099617D-02 0.100000000000D+01
  </mgrwgt>
  </event>
  <event>
  6     66 0.42980143E-03 0.25293264E+03 0.75467711E-02 0.10728056E+00
        1 -1    0    0  502    0 0.00000000E+00 0.00000000E+00 0.50967379E+03 0.50967389E+03 0.32000000E+00 0.0000E+00 0.9000E+01
       21 -1    0    0  501  502 0.00000000E+00 0.00000000E+00 -.43698963E+03 0.43699027E+03 0.75000000E+00 0.0000E+00 0.9000E+01
       25  1    1    2    0    0 -.26427980E+03 0.41920464E+02 -.19700328E+03 0.35501610E+03 0.12500000E+03 0.0000E+00 0.9000E+01
      -24  1    1    2    0    0 0.15362758E+02 0.20806396E+02 -.89561106E+02 0.12311510E+03 0.80419002E+02 0.0000E+00 0.9000E+01
        2  1    1    2  503    0 0.24818203E+03 -.75873048E+02 0.36970675E+03 0.45170147E+03 0.32000000E+00 0.0000E+00 0.9000E+01
       21  1    1    2  501  503 0.73501369E+00 0.13146188E+02 -.10458204E+02 0.16831489E+02 0.75000000E+00 0.0000E+00 0.9000E+01
#aMCatNLO 2  0  0  5  2 0.14003652D+02 0.00000000D+00  -5  6  0 0.00000000D+00 0.00000000D+00 0.00000000D+00 0.00000000D+00 0.00000000D+00
  <mgrwgt>
 0.1569514917D-01    2    2    0
 0.471934859604411D+03 0.000000000000000D+00 0.000000000000000D+00 0.471934859604411D+03
 0.471934859604411D+03 -.000000000000000D+00 -.000000000000000D+00 -.471934859604411D+03
 0.381973520131176D+03 -.271281108687441D+03 0.436847874215150D+02 -.234044802332058D+03
 0.132655761321885D+03 0.129178005325126D+02 0.214225229761107D+02 -.102491663057336D+03
 0.429240437755761D+03 0.258363308154928D+03 -.651073103976257D+02 0.336536465389394D+03
 0.000000000000000D+00 0.000000000000000D+00 0.000000000000000D+00 -.000000000000000D+00
 0.471934859604411D+03 0.000000000000000D+00 0.000000000000000D+00 0.471934859604411D+03
 0.471934859604411D+03 -.000000000000000D+00 -.000000000000000D+00 -.471934859604411D+03
 0.371230359141891D+03 -.264274991735745D+03 0.419192525461736D+02 -.224918839934896D+03
 0.130374847049894D+03 0.153644464604475D+02 0.208059705058674D+02 -.993047338508374D+02
 0.424574982134760D+03 0.248179882750183D+03 -.758828971480637D+02 0.336024474068859D+03
 0.176895308822775D+02 0.730662525115146D+00 0.131576740960227D+02 -.118009002831265D+02
-.210262805697D-03 0.000000000000D+00 0.000000000000D+00 0.721677447808D-07 0.000000000000D+00  6 1 21 25 -24 2 21 4 0.78411409D-01 0.67229231D-01 0.10644973D+06 0.10644973D+06 0.10644973D+06 0.11610863D+01  1  2  8  3  6  5        2 -.356245760278D-01 0.100000000000D+01
0.302894774482D-03 0.000000000000D+00 0.000000000000D+00 0.721677447808D-07 0.645376134674D-08  6 1 21 25 -24 2 21 4 0.78411409D-01 0.67229231D-01 0.10644287D+06 0.10644287D+06 0.10644287D+06 0.11610889D+01  1  2  1  3  6  5        2 0.513197252019D-01 0.100000000000D+01
  </mgrwgt>
  </event>
  <event>
  5     66 -.42980143E-03 0.40942168E+02 0.75467711E-02 0.12006371E+00
        1 -1    0    0  502    0 0.00000000E+00 0.00000000E+00 0.81401612E+03 0.81401618E+03 0.32000000E+00 0.0000E+00 0.9000E+01
       21 -1    0    0  501  502 0.00000000E+00 0.00000000E+00 -.32357306E+02 0.32365997E+02 0.75000000E+00 0.0000E+00 0.9000E+01
       25  1    1    2    0    0 0.19152437E+01 0.10627199E+02 0.51887452E+03 0.53382804E+03 0.12500000E+03 0.0000E+00 0.9000E+01
      -24  1    1    2    0    0 0.27797947E+02 0.21344534E+02 0.25306288E+03 0.26783643E+03 0.80419002E+02 0.0000E+00 0.9000E+01
        2  1    1    2  501    0 -.29713191E+02 -.31971733E+02 0.97214106E+01 0.44717711E+02 0.32000000E+00 0.0000E+00 0.9000E+01
#aMCatNLO 1  0  0  2  1 0.37454616D+02 0.00000000D+00  -5  6  0 0.00000000D+00 0.00000000D+00 0.00000000D+00 0.00000000D+00 0.00000000D+00
  <mgrwgt>
 -.1239323555D+00   21    2    0
 0.162305492735834D+03 0.000000000000000D+00 0.000000000000000D+00 0.162305492735834D+03
 0.162305492735834D+03 0.000000000000000D+00 0.000000000000000D+00 -.162305492735834D+03
 0.142446597464275D+03 0.191532052941318D+01 0.106272821594879D+02 0.674494295774348D+02
 0.889777811717555D+02 0.277979954255369D+02 0.213445856755596D+02 0.148832019585439D+02
 0.931866068356375D+02 -.297133159549501D+02 -.319718678350474D+02 -.823326315359787D+02
 0.000000000000000D+00 -.000000000000000D+00 0.000000000000000D+00 -.000000000000000D+00
 0.165372481308713D+03 0.000000000000000D+00 0.000000000000000D+00 0.165372481308713D+03
 0.339605954941586D+03 0.000000000000000D+00 0.000000000000000D+00 -.339605954941586D+03
 0.142268704327994D+03 0.627814970718657D+01 -.515204009098220D+01 0.674494295774348D+02
 0.880491226837664D+02 0.305106636120725D+02 0.115335058166438D+02 0.148832019585439D+02
 0.964468286070487D+02 -.268074718362017D+02 -.424816193955626D+02 -.823326315359787D+02
 0.178213780631490D+03 -.998134148305739D+01 0.361001536699011D+02 -.174233473632873D+03
0.127101647679D-05 0.000000000000D+00 0.000000000000D+00 0.171840992791D-05 0.000000000000D+00  6 1 21 25 -24 2 21 2 0.12523392D+00 0.49787204D-02 0.16491312D+05 0.16491312D+05 0.16491312D+05 0.12431569D+01  1  2  2  2  6  2       21 0.133340968111D-01 0.100000000000D+01
0.551191135906D-07 0.670733822172D-07 -.256581607055D-08 0.171840992791D-05 0.000000000000D+00  6 1 21 25 -24 2 21 4 0.12523392D+00 0.49787204D-02 0.16491312D+05 0.16491312D+05 0.16491312D+05 0.12431569D+01  1  2  3  2  6  2       21 0.893648151663D-03 0.100000000000D+01
0.128306730544D-06 0.000000000000D+00 0.000000000000D+00 0.171840992791D-05 0.000000000000D+00  6 1 21 25 -24 2 21 4 0.12523392D+00 0.49787204D-02 0.16491312D+05 0.16491312D+05 0.16491312D+05 0.12431569D+01  1  2 15  2  6  2       21 0.208024159184D-02 0.100000000000D+01
0.206600335350D-04 0.000000000000D+00 0.000000000000D+00 0.167763114718D-05 0.000000000000D+00  6 1 21 25 -24 2 21 4 0.12523392D+00 0.10412230D-01 0.22459975D+05 0.22459975D+05 0.22459975D+05 0.12283180D+01  1  2 12  2  6  2       21 0.897933726694D-01 0.100000000000D+01
-.476053531718D-04 0.000000000000D+00 -.185673474852D-05 0.171840992791D-05 0.000000000000D+00  6 1 21 25 -24 2 21 4 0.12523392D+00 0.10566908D-01 0.16491312D+05 0.16491312D+05 0.16491312D+05 0.12431569D+01  1  2  5  2  6  2       21 -.212322719473D+00 0.100000000000D+01
0.578728204395D-05 0.000000000000D+00 0.000000000000D+00 0.167763114718D-05 0.000000000000D+00  6 1 -1 25 -24 2 -1 4 0.12523392D+00 0.10412230D-01 0.22459975D+05 0.22459975D+05 0.22459975D+05 0.12283180D+01  1  2 12  5  6  2       21 0.168818982220D-02 0.100000000000D+01
-.140055365415D-04 0.000000000000D+00 -.495305661119D-06 0.171840992791D-05 0.000000000000D+00  6 1 -1 25 -24 2 -1 4 0.12523392D+00 0.10566908D-01 0.16491312D+05 0.16491312D+05 0.16491312D+05 0.12431569D+01  1  2  5  5  6  2       21 -.418561876206D-02 0.100000000000D+01
0.578728204395D-05 0.000000000000D+00 0.000000000000D+00 0.167763114718D-05 0.000000000000D+00  6 1 1 25 -24 2 1 4 0.12523392D+00 0.10412230D-01 0.22459975D+05 0.22459975D+05 0.22459975D+05 0.12283180D+01  1  2 12  6  6  2       21 0.213277421713D-02 0.100000000000D+01
-.140055365415D-04 0.000000000000D+00 -.495305661119D-06 0.171840992791D-05 0.000000000000D+00  6 1 1 25 -24 2 1 4 0.12523392D+00 0.10566908D-01 0.16491312D+05 0.16491312D+05 0.16491312D+05 0.12431569D+01  1  2  5  6  6  2       21 -.530665680331D-02 0.100000000000D+01
0.578728204395D-05 0.000000000000D+00 0.000000000000D+00 0.167763114718D-05 0.000000000000D+00  6 1 -2 25 -24 2 -2 4 0.12523392D+00 0.10412230D-01 0.22459975D+05 0.22459975D+05 0.22459975D+05 0.12283180D+01  1  2 12  7  6  2       21 0.161102841640D-02 0.100000000000D+01
-.140055365415D-04 0.000000000000D+00 -.495305661119D-06 0.171840992791D-05 0.000000000000D+00  6 1 -2 25 -24 2 -2 4 0.12523392D+00 0.10566908D-01 0.16491312D+05 0.16491312D+05 0.16491312D+05 0.12431569D+01  1  2  5  7  6  2       21 -.399082198393D-02 0.100000000000D+01
0.578728204395D-05 0.000000000000D+00 0.000000000000D+00 0.167763114718D-05 0.000000000000D+00  6 1 2 25 -24 2 2 4 0.12523392D+00 0.10412230D-01 0.22459975D+05 0.22459975D+05 0.22459975D+05 0.12283180D+01  1  2 12  8  6  2       21 0.243403716219D-02 0.100000000000D+01
-.140055365415D-04 0.000000000000D+00 -.495305661119D-06 0.171840992791D-05 0.000000000000D+00  6 1 2 25 -24 2 2 4 0.12523392D+00 0.10566908D-01 0.16491312D+05 0.16491312D+05 0.16491312D+05 0.12431569D+01  1  2  5  8  6  2       21 -.606510170228D-02 0.100000000000D+01
0.578728204395D-05 0.000000000000D+00 0.000000000000D+00 0.167763114718D-05 0.000000000000D+00  6 1 -3 25 -24 2 -3 4 0.12523392D+00 0.10412230D-01 0.22459975D+05 0.22459975D+05 0.22459975D+05 0.12283180D+01  1  2 12  9  6  2       21 0.110783915544D-02 0.100000000000D+01
0.578728204395D-05 0.000000000000D+00 0.000000000000D+00 0.167763114718D-05 0.000000000000D+00  6 1 -4 25 -24 2 -4 4 0.12523392D+00 0.10412230D-01 0.22459975D+05 0.22459975D+05 0.22459975D+05 0.12283180D+01  1  2 12  9  6  2       21 0.967590497177D-03 0.100000000000D+01
-.140055365415D-04 0.000000000000D+00 -.495305661119D-06 0.171840992791D-05 0.000000000000D+00  6 1 -3 25 -24 2 -3 4 0.12523392D+00 0.10566908D-01 0.16491312D+05 0.16491312D+05 0.16491312D+05 0.12431569D+01  1  2  5  9  6  2       21 -.272171171608D-02 0.100000000000D+01
-.140055365415D-04 0.000000000000D+00 -.495305661119D-06 0.171840992791D-05 0.000000000000D+00  6 1 -4 25 -24 2 -4 4 0.12523392D+00 0.10566908D-01 0.16491312D+05 0.16491312D+05 0.16491312D+05 0.12431569D+01  1  2  5  9  6  2       21 -.236823787345D-02 0.100000000000D+01
0.578728204395D-05 0.000000000000D+00 0.000000000000D+00 0.167763114718D-05 0.000000000000D+00  6 1 3 25 -24 2 3 4 0.12523392D+00 0.10412230D-01 0.22459975D+05 0.22459975D+05 0.22459975D+05 0.12283180D+01  1  2 12 10  6  2       21 0.110769975158D-02 0.100000000000D+01
0.578728204395D-05 0.000000000000D+00 0.000000000000D+00 0.167763114718D-05 0.000000000000D+00  6 1 4 25 -24 2 4 4 0.12523392D+00 0.10412230D-01 0.22459975D+05 0.22459975D+05 0.22459975D+05 0.12283180D+01  1  2 12 10  6  2       21 0.967590497177D-03 0.100000000000D+01
-.140055365415D-04 0.000000000000D+00 -.495305661119D-06 0.171840992791D-05 0.000000000000D+00  6 1 3 25 -24 2 3 4 0.12523392D+00 0.10566908D-01 0.16491312D+05 0.16491312D+05 0.16491312D+05 0.12431569D+01  1  2  5 10  6  2       21 -.272135804749D-02 0.100000000000D+01
-.140055365415D-04 0.000000000000D+00 -.495305661119D-06 0.171840992791D-05 0.000000000000D+00  6 1 4 25 -24 2 4 4 0.12523392D+00 0.10566908D-01 0.16491312D+05 0.16491312D+05 0.16491312D+05 0.12431569D+01  1  2  5 10  6  2       21 -.236823787345D-02 0.100000000000D+01
  </mgrwgt>
  </event>
  <event>
  5     66 0.42980143E-03 0.20765365E+02 0.75467711E-02 0.12087982E+00
        1 -1    0    0  502    0 0.00000000E+00 0.00000000E+00 0.10480183E+04 0.10480184E+04 0.32000000E+00 0.0000E+00 0.9000E+01
       21 -1    0    0  501  502 0.00000000E+00 0.00000000E+00 -.21646623E+02 0.21659612E+02 0.75000000E+00 0.0000E+00 0.9000E+01
       25  1    1    2    0    0 0.16978678E+02 0.90881223E+00 0.51426741E+03 0.52951400E+03 0.12500000E+03 0.0000E+00 0.9000E+01
      -24  1    1    2    0    0 -.18223098E+02 0.19819088E+02 0.51242351E+03 0.51939383E+03 0.80419002E+02 0.0000E+00 0.9000E+01
        2  1    1    2  501    0 0.12444204E+01 -.20727900E+02 -.31924265E+00 0.20770141E+02 0.32000000E+00 0.0000E+00 0.9000E+01
#aMCatNLO 1  0  0  1  2 0.19187190D+02 0.00000000D+00  -5  6  0 0.00000000D+00 0.00000000D+00 0.00000000D+00 0.00000000D+00 0.00000000D+00
  <mgrwgt>
 0.1124967807D+00    7    2    0
 0.150642061299278D+03 0.000000000000000D+00 0.000000000000000D+00 0.150642061299278D+03
 0.150642061299278D+03 0.000000000000000D+00 0.000000000000000D+00 -.150642061299278D+03
 0.128051755539580D+03 0.169786727389569D+02 0.908892784877620D+00 0.219806888585714D+02
 0.984027601372299D+02 -.182231017200222D+02 0.198191500517860D+02 0.499099900138358D+02
 0.748296069217463D+02 0.124442898106526D+01 -.207280428366636D+02 -.718906788724072D+02
 0.000000000000000D+00 0.000000000000000D+00 0.000000000000000D+00 0.000000000000000D+00
 0.185206075370316D+03 0.000000000000000D+00 0.000000000000000D+00 0.185206075370316D+03
 0.169722035571323D+03 0.000000000000000D+00 0.000000000000000D+00 -.169722035571323D+03
 0.127003219804531D+03 -.237618953288345D+01 -.400260931448722D+01 0.219806888585714D+02
 0.101631262648399D+03 -.334026956702071D+02 0.159671666841591D+02 0.499099900138358D+02
 0.763657757735672D+02 -.102290418040384D+02 -.236395580443965D+02 -.718906788724072D+02
 0.499278527151423D+02 0.460079270071289D+02 0.116750006747246D+02 0.154840397989935D+02
0.324097503908D-05 0.000000000000D+00 0.000000000000D+00 0.540799917751D-05 0.000000000000D+00  6 1 21 25 -24 2 21 2 0.16123459D+00 0.33312527D-02 0.13423852D+05 0.13423852D+05 0.13423852D+05 0.12533567D+01  1  2  2  1  6  1        1 0.447888625601D-01 0.100000000000D+01
0.547490288502D-06 0.171030951623D-06 -.654259483761D-08 0.540799917751D-05 0.000000000000D+00  6 1 21 25 -24 2 21 4 0.16123459D+00 0.33312527D-02 0.13423852D+05 0.13423852D+05 0.13423852D+05 0.12533567D+01  1  2  3  1  6  1        1 0.118855742673D-01 0.100000000000D+01
0.358663041094D-06 0.000000000000D+00 0.000000000000D+00 0.540799917751D-05 0.000000000000D+00  6 1 21 25 -24 2 21 4 0.16123459D+00 0.33312527D-02 0.13423852D+05 0.13423852D+05 0.13423852D+05 0.12533567D+01  1  2 15  1  6  1        1 0.778628644452D-02 0.100000000000D+01
-.410282146606D-05 0.000000000000D+00 0.000000000000D+00 0.540799917751D-05 0.000000000000D+00  6 1 21 25 -24 2 21 4 0.16123459D+00 0.33312527D-02 0.13423852D+05 0.13423852D+05 0.13423852D+05 0.12533567D+01  1  2  4  1  6  1        1 -.890689575040D-01 0.100000000000D+01
-.135346036737D-04 0.000000000000D+00 -.509181078175D-05 0.540799917751D-05 0.000000000000D+00  6 1 21 25 -24 2 21 4 0.21320044D+00 0.33312527D-02 0.13423852D+05 0.13423852D+05 0.13423852D+05 0.12533567D+01  1  2  5  1  6  1        1 -.173267399708D+00 0.100000000000D+01
0.145769882783D-04 0.000000000000D+00 0.489936877371D-05 0.540799917751D-05 0.000000000000D+00  6 1 21 25 -24 2 21 4 0.16123459D+00 0.33312527D-02 0.13423852D+05 0.13423852D+05 0.13423852D+05 0.12533567D+01  1  2  6  1  6  1        1 0.316454703241D+00 0.100000000000D+01
-.394774364467D-06 0.000000000000D+00 -.186922751076D-06 0.540799917751D-05 0.000000000000D+00  6 21 21 25 -24 2 -1 4 0.21320044D+00 0.33312527D-02 0.13423852D+05 0.13423852D+05 0.13423852D+05 0.12533567D+01  1  2  5  4  6  1        1 -.608228855700D-02 0.100000000000D+01
  </mgrwgt>
  </event>
  <event>
  5     66 -.42980143E-03 0.50950392E+02 0.75467711E-02 0.12073710E+00
        3 -1    0    0  502    0 0.00000000E+00 0.00000000E+00 0.96080293E+02 0.96081594E+02 0.50000000E+00 0.0000E+00 0.9000E+01
       21 -1    0    0  501  502 -.00000000E+00 -.00000000E+00 -.24829910E+03 0.24830024E+03 0.75000000E+00 0.0000E+00 0.9000E+01
       25  1    1    2    0    0 0.21806738E+02 0.47773515E+02 -.35827464E+02 0.14023712E+03 0.12500000E+03 0.0000E+00 0.9000E+01
      -24  1    1    2    0    0 -.61870833E+02 -.16322801E+02 -.11348699E+03 0.15310437E+03 0.80419002E+02 0.0000E+00 0.9000E+01
        4  1    1    2  501    0 0.40064095E+02 -.31450714E+02 -.29043574E+01 0.51040346E+02 0.15500000E+01 0.0000E+00 0.9000E+01
#aMCatNLO 1  0  0  5  2 0.26615243D+01 0.00000000D+00  -5  6  0 0.00000000D+00 0.00000000D+00 0.00000000D+00 0.00000000D+00 0.00000000D+00
  <mgrwgt>
 -.6638952777D-02    8    2    0
 0.154457339496484D+03 0.000000000000000D+00 0.000000000000000D+00 0.154457339496484D+03
 0.154457339496484D+03 -.000000000000000D+00 -.000000000000000D+00 -.154457339496484D+03
 0.138683918435793D+03 0.217997114949025D+02 0.477790306077577D+02 0.291576069941881D+02
 0.114765384827427D+03 -.618766477019511D+02 -.163182361524946D+02 -.510771302860380D+02
 0.554653757297479D+02 0.400769362070486D+02 -.314607944552631D+02 0.219195232918499D+02
 0.000000000000000D+00 0.000000000000000D+00 0.000000000000000D+00 0.000000000000000D+00
 0.154457339496484D+03 0.000000000000000D+00 0.000000000000000D+00 0.154457339496484D+03
 0.154457339496484D+03 -.000000000000000D+00 -.000000000000000D+00 -.154457339496484D+03
 0.138684335415934D+03 0.219502303799970D+02 0.476608717824142D+02 0.292399312065642D+02
 0.114681940553865D+03 -.617521339729115D+02 -.164159806710860D+02 -.510090292323612D+02
 0.934697159827980D+01 0.489162290937340D+01 -.566323034403453D+01 0.560051117684353D+01
 0.462014314248884D+02 0.349102806835411D+02 -.255816607672937D+02 0.161685868489535D+02
0.242131182662D-05 0.000000000000D+00 0.000000000000D+00 0.223183288318D-06 0.000000000000D+00  6 3 21 25 -24 4 21 2 0.14781771D-01 0.38200049D-01 0.20924665D+05 0.20924665D+05 0.20924665D+05 0.12316710D+01  1  2  2  3  6  5        4 0.449460535537D-02 0.100000000000D+01
-.171239669104D-06 0.127776135542D-06 -.488793096709D-08 0.223183288318D-06 0.000000000000D+00  6 3 21 25 -24 4 21 4 0.14781771D-01 0.38200049D-01 0.20924665D+05 0.20924665D+05 0.20924665D+05 0.12316710D+01  1  2  3  3  6  5        4 -.482208231295D-03 0.100000000000D+01
0.247838133495D-06 0.000000000000D+00 0.000000000000D+00 0.223183288318D-06 0.000000000000D+00  6 3 21 25 -24 4 21 4 0.14781771D-01 0.38200049D-01 0.20924665D+05 0.20924665D+05 0.20924665D+05 0.12316710D+01  1  2 15  3  6  5        4 0.697908309594D-03 0.100000000000D+01
0.368101221182D-07 0.000000000000D+00 0.000000000000D+00 0.223214738606D-06 0.000000000000D+00  6 3 21 25 -24 4 21 4 0.14781771D-01 0.38200049D-01 0.20886520D+05 0.20886520D+05 0.20886520D+05 0.12317577D+01  1  2 12  3  6  5        4 0.103680971682D-03 0.100000000000D+01
-.175933789192D-04 0.000000000000D+00 0.000000000000D+00 0.223183288318D-06 0.000000000000D+00  6 3 21 25 -24 4 21 4 0.14781771D-01 0.38200049D-01 0.20924665D+05 0.20924665D+05 0.20924665D+05 0.12316710D+01  1  2  4  3  6  5        4 -.495426800082D-01 0.100000000000D+01
-.486657777526D-05 0.000000000000D+00 0.000000000000D+00 0.223183288318D-06 0.000000000000D+00  6 3 21 25 -24 4 21 4 0.14781771D-01 0.38200049D-01 0.20924665D+05 0.20924665D+05 0.20924665D+05 0.12316710D+01  1  2  5  3  6  5        4 -.137042069384D-01 0.100000000000D+01
0.120798505813D-04 0.000000000000D+00 -.000000000000D+00 0.223183288318D-06 0.000000000000D+00  6 3 21 25 -24 4 21 4 0.14781771D-01 0.38200049D-01 0.20924665D+05 0.20924665D+05 0.20924665D+05 0.12316710D+01  1  2  6  3  6  5        4 0.340166703988D-01 0.100000000000D+01
0.631151251905D-05 0.000000000000D+00 0.000000000000D+00 0.223183288318D-06 0.281842303892D-07  6 3 21 25 -24 4 21 4 0.14781771D-01 0.38200049D-01 0.20886520D+05 0.20886520D+05 0.20886520D+05 0.12317577D+01  1  2 11  3  6  5        4 0.177772773657D-01 0.100000000000D+01
  </mgrwgt>
  </event>
  <event>
  5     66 0.42980143E-03 0.49956139E+02 0.75467711E-02 0.11666387E+00
        1 -1    0    0  502    0 0.00000000E+00 0.00000000E+00 0.24795585E+04 0.24795585E+04 0.32000000E+00 0.0000E+00 0.9000E+01
       21 -1    0    0  501  502 0.00000000E+00 0.00000000E+00 -.16897412E+02 0.16914049E+02 0.75000000E+00 0.0000E+00 0.9000E+01
       25  1    1    2    0    0 -.23474859E+02 0.88733879E+02 0.73914634E+03 0.75523975E+03 0.12500000E+03 0.0000E+00 0.9000E+01
      -24  1    1    2    0    0 0.39514115E+01 -.13489326E+03 0.74241724E+03 0.75885597E+03 0.80419002E+02 0.0000E+00 0.9000E+01
        2  1    1    2  501    0 0.19523448E+02 0.46159383E+02 0.98109747E+03 0.98237681E+03 0.32000000E+00 0.0000E+00 0.9000E+01
#aMCatNLO 1  0  0  2  1 0.11445454D+00 0.00000000D+00  -5  6  0 0.00000000D+00 0.00000000D+00 0.00000000D+00 0.00000000D+00 0.00000000D+00
  <mgrwgt>
 0.1362224546D-01   23    2    0
 0.204741089179243D+03 0.000000000000000D+00 0.000000000000000D+00 0.204741089179243D+03
 0.204741089179243D+03 0.000000000000000D+00 0.000000000000000D+00 -.204741089179243D+03
 0.159148284105714D+03 -.234749086100095D+02 0.887337621209870D+02 -.357550620108639D+02
 0.161523798939798D+03 0.395136148557382D+01 -.134893379771934D+03 -.375617425805671D+02
 0.888100953129752D+02 0.195235471244356D+02 0.461596176509468D+02 0.733168045914310D+02
 0.000000000000000D+00 0.000000000000000D+00 -.000000000000000D+00 -.000000000000000D+00
 0.204743654194426D+03 0.000000000000000D+00 0.000000000000000D+00 0.204743654194426D+03
 0.206021870873320D+03 0.000000000000000D+00 0.000000000000000D+00 -.206021870873320D+03
 0.159173932475570D+03 -.234876557416360D+02 0.887763839548503D+02 -.357550620108639D+02
 0.161487365619637D+03 0.393842658622656D+01 -.134850130110193D+03 -.375617425805671D+02
 0.888208962588987D+02 0.195164339368773D+02 0.461834015975813D+02 0.733168045914310D+02
 0.128333071364052D+01 0.327952185320647D-01 -.109655442238990D+00 -.127821667889365D+01
0.733215823061D-06 0.000000000000D+00 0.000000000000D+00 0.100161430533D-06 0.000000000000D+00  6 1 21 25 -24 2 21 2 0.38147181D+00 0.26008832D-02 0.32814264D+05 0.32814264D+05 0.32814264D+05 0.12108325D+01  1  2  2  2  6  2       21 0.163093588956D-02 0.100000000000D+01
-.797962089955D-07 0.386928620093D-07 -.148015149792D-08 0.100161430533D-06 0.000000000000D+00  6 1 21 25 -24 2 21 4 0.38147181D+00 0.26008832D-02 0.32814264D+05 0.32814264D+05 0.32814264D+05 0.12108325D+01  1  2  3  2  6  2       21 -.260228850036D-03 0.100000000000D+01
0.744414553208D-07 0.000000000000D+00 0.000000000000D+00 0.100161430533D-06 0.000000000000D+00  6 1 21 25 -24 2 21 4 0.38147181D+00 0.26008832D-02 0.32814264D+05 0.32814264D+05 0.32814264D+05 0.12108325D+01  1  2 15  2  6  2       21 0.242766098252D-03 0.100000000000D+01
-.887805218659D-02 0.000000000000D+00 0.000000000000D+00 0.100161430533D-06 0.000000000000D+00  6 1 21 25 -24 2 21 4 0.38147181D+00 0.26008832D-02 0.32814264D+05 0.32814264D+05 0.32814264D+05 0.12108325D+01  1  2  4  2  6  2       21 -.289528204429D+02 0.100000000000D+01
-.929058538705D-02 0.000000000000D+00 -.359255591377D-04 0.100161430533D-06 0.000000000000D+00  6 1 21 25 -24 2 21 4 0.38147181D+00 0.26171727D-02 0.32814264D+05 0.32814264D+05 0.32814264D+05 0.12108325D+01  1  2  5  2  6  2       21 -.299889698430D+02 0.100000000000D+01
0.928997459917D-02 0.000000000000D+00 0.359227584183D-04 0.100161430533D-06 0.000000000000D+00  6 1 21 25 -24 2 21 4 0.38147181D+00 0.26008832D-02 0.32814264D+05 0.32814264D+05 0.32814264D+05 0.12108325D+01  1  2  6  2  6  2       21 0.302961686681D+02 0.100000000000D+01
0.887950651945D-02 0.000000000000D+00 0.000000000000D+00 0.100161430533D-06 0.133107142843D-03  6 1 21 25 -24 2 21 4 0.38147659D+00 0.26171533D-02 0.32836450D+05 0.32836450D+05 0.32836450D+05 0.12108020D+01  1  2 11  2  6  2       21 0.286575034806D+02 0.100000000000D+01
-.130104283399D-04 0.000000000000D+00 -.503120496048D-07 0.100161430533D-06 0.000000000000D+00  6 1 -1 25 -24 2 -1 4 0.38147181D+00 0.26171727D-02 0.32814264D+05 0.32814264D+05 0.32814264D+05 0.12108325D+01  1  2  5  5  6  2       21 -.213997883172D-02 0.100000000000D+01
0.126104343721D-04 0.000000000000D+00 0.000000000000D+00 0.100161430533D-06 0.188951965642D-06  6 1 -1 25 -24 2 -1 4 0.38147659D+00 0.26171533D-02 0.32836450D+05 0.32836450D+05 0.32836450D+05 0.12108020D+01  1  2 11  5  6  2       21 0.207387998575D-02 0.100000000000D+01
-.130104283399D-04 0.000000000000D+00 -.503120496048D-07 0.100161430533D-06 0.000000000000D+00  6 1 1 25 -24 2 1 4 0.38147181D+00 0.26171727D-02 0.32814264D+05 0.32814264D+05 0.32814264D+05 0.12108325D+01  1  2  5  6  6  2       21 -.228113994220D-02 0.100000000000D+01
0.128455752636D-04 0.000000000000D+00 0.000000000000D+00 0.100161430533D-06 0.192492595768D-06  6 1 1 25 -24 2 1 4 0.38147659D+00 0.26171533D-02 0.32836450D+05 0.32836450D+05 0.32836450D+05 0.12108020D+01  1  2 11  6  6  2       21 0.225189966887D-02 0.100000000000D+01
-.130104283399D-04 0.000000000000D+00 -.503120496048D-07 0.100161430533D-06 0.000000000000D+00  6 1 -2 25 -24 2 -2 4 0.38147181D+00 0.26171727D-02 0.32814264D+05 0.32814264D+05 0.32814264D+05 0.12108325D+01  1  2  5  7  6  2       21 -.211467774658D-02 0.100000000000D+01
0.160183264162D-04 0.000000000000D+00 0.000000000000D+00 0.100161430533D-06 0.240099084427D-06  6 1 -2 25 -24 2 -2 4 0.38147659D+00 0.26171533D-02 0.32836450D+05 0.32836450D+05 0.32836450D+05 0.12108020D+01  1  2 11  7  6  2       21 0.260318806873D-02 0.100000000000D+01
-.130104283399D-04 0.000000000000D+00 -.503120496048D-07 0.100161430533D-06 0.000000000000D+00  6 1 2 25 -24 2 2 4 0.38147181D+00 0.26171727D-02 0.32814264D+05 0.32814264D+05 0.32814264D+05 0.12108325D+01  1  2  5  8  6  2       21 -.237758757215D-02 0.100000000000D+01
0.126102392540D-04 0.000000000000D+00 0.000000000000D+00 0.100161430533D-06 0.944745377526D-07  6 1 2 25 -24 2 2 4 0.38147659D+00 0.26171533D-02 0.32836450D+05 0.32836450D+05 0.32836450D+05 0.12108020D+01  1  2 11  8  6  2       21 0.230410937858D-02 0.100000000000D+01
-.130104283399D-04 0.000000000000D+00 -.503120496048D-07 0.100161430533D-06 0.000000000000D+00  6 1 -3 25 -24 2 -3 4 0.38147181D+00 0.26171727D-02 0.32814264D+05 0.32814264D+05 0.32814264D+05 0.12108325D+01  1  2  5  9  6  2       21 -.163487075209D-02 0.100000000000D+01
-.130104283399D-04 0.000000000000D+00 -.503120496048D-07 0.100161430533D-06 0.000000000000D+00  6 1 -4 25 -24 2 -4 4 0.38147181D+00 0.26171727D-02 0.32814264D+05 0.32814264D+05 0.32814264D+05 0.12108325D+01  1  2  5  9  6  2       21 -.148539206615D-02 0.100000000000D+01
0.126101600169D-04 0.000000000000D+00 0.000000000000D+00 0.100161430533D-06 0.188947854763D-06  6 1 -3 25 -24 2 -3 4 0.38147659D+00 0.26171533D-02 0.32836450D+05 0.32836450D+05 0.32836450D+05 0.12108020D+01  1  2 11  9  6  2       21 0.158436060492D-02 0.100000000000D+01
0.126101600169D-04 0.000000000000D+00 0.000000000000D+00 0.100161430533D-06 0.188947854763D-06  6 1 -4 25 -24 2 -4 4 0.38147659D+00 0.26171533D-02 0.32836450D+05 0.32836450D+05 0.32836450D+05 0.12108020D+01  1  2 11  9  6  2       21 0.143950879785D-02 0.100000000000D+01
-.130104283399D-04 0.000000000000D+00 -.503120496048D-07 0.100161430533D-06 0.000000000000D+00  6 1 3 25 -24 2 3 4 0.38147181D+00 0.26171727D-02 0.32814264D+05 0.32814264D+05 0.32814264D+05 0.12108325D+01  1  2  5 10  6  2       21 -.163476391086D-02 0.100000000000D+01
-.130104283399D-04 0.000000000000D+00 -.503120496048D-07 0.100161430533D-06 0.000000000000D+00  6 1 4 25 -24 2 4 4 0.38147181D+00 0.26171727D-02 0.32814264D+05 0.32814264D+05 0.32814264D+05 0.12108325D+01  1  2  5 10  6  2       21 -.148539206615D-02 0.100000000000D+01
0.126101600169D-04 0.000000000000D+00 0.000000000000D+00 0.100161430533D-06 0.188947854763D-06  6 1 3 25 -24 2 3 4 0.38147659D+00 0.26171533D-02 0.32836450D+05 0.32836450D+05 0.32836450D+05 0.12108020D+01  1  2 11 10  6  2       21 0.158425707052D-02 0.100000000000D+01
0.126101600169D-04 0.000000000000D+00 0.000000000000D+00 0.100161430533D-06 0.188947854763D-06  6 1 4 25 -24 2 4 4 0.38147659D+00 0.26171533D-02 0.32836450D+05 0.32836450D+05 0.32836450D+05 0.12108020D+01  1  2 11 10  6  2       21 0.143950879785D-02 0.100000000000D+01
  </mgrwgt>
  </event>
  <event>
  5     66 0.42980143E-03 0.35127149E+02 0.75467711E-02 0.11236086E+00
        1 -1    0    0  502    0 0.00000000E+00 0.00000000E+00 0.19558168E+03 0.19558194E+03 0.32000000E+00 0.0000E+00 0.9000E+01
       21 -1    0    0  501  502 0.00000000E+00 0.00000000E+00 -.12223863E+03 0.12224093E+03 0.75000000E+00 0.0000E+00 0.9000E+01
       25  1    1    2    0    0 0.37768575E+02 0.31467990E+02 0.11899839E+03 0.17945004E+03 0.12500000E+03 0.0000E+00 0.9000E+01
      -24  1    1    2    0    0 -.27175199E+01 -.29162556E+02 -.65954778E+01 0.85840293E+02 0.80419002E+02 0.0000E+00 0.9000E+01
        2  1    1    2  501    0 -.35051055E+02 -.23054341E+01 -.39059872E+02 0.52532538E+02 0.32000000E+00 0.0000E+00 0.9000E+01
#aMCatNLO 1  0  0  2  1 0.14815192D+02 0.00000000D+00  -5  6  0 0.00000000D+00 0.00000000D+00 0.00000000D+00 0.00000000D+00 0.00000000D+00
  <mgrwgt>
 0.3390554306D-01   12    2    0
 0.154622262322820D+03 0.000000000000000D+00 0.000000000000000D+00 0.154622262322820D+03
 0.154622262322820D+03 0.000000000000000D+00 0.000000000000000D+00 -.154622262322820D+03
 0.156205497356130D+03 0.377688015990680D+02 0.314680045226845D+02 0.797398251904691D+02
 0.897856493277344D+02 -.271738971375681D+01 -.291625469913214D+02 -.271368479554072D+02
 0.632533779617744D+02 -.350514118853112D+02 -.230545753136304D+01 -.526029772350619D+02
 0.000000000000000D+00 0.000000000000000D+00 0.000000000000000D+00 -.000000000000000D+00
 0.216455252468127D+03 0.000000000000000D+00 0.000000000000000D+00 0.216455252468127D+03
 0.332133091234152D+03 0.000000000000000D+00 0.000000000000000D+00 -.332133091234152D+03
 0.153765865399181D+03 -.371919593759648D+02 0.166511200322740D+02 0.797398251904691D+02
 0.105771404213156D+03 -.500091956959504D+02 -.385103339863661D+02 -.271368479554072D+02
 0.897227801926064D+02 -.720458268672573D+02 -.961784292404038D+01 -.526029772350619D+02
 0.199328293897336D+03 0.159246981939172D+03 0.314770568781326D+02 -.115677838766024D+03
0.340301803982D-05 0.000000000000D+00 0.000000000000D+00 0.108500764880D-05 0.000000000000D+00  6 1 21 25 -24 2 21 2 0.30089686D-01 0.18806141D-01 0.16260476D+05 0.16260476D+05 0.16260476D+05 0.12438474D+01  1  2  2  2  6  2       21 0.222234587770D-01 0.100000000000D+01
0.129862664748D-06 0.179582195703D-06 -.686971296943D-08 0.108500764880D-05 0.000000000000D+00  6 1 21 25 -24 2 21 4 0.30089686D-01 0.18806141D-01 0.16260476D+05 0.16260476D+05 0.16260476D+05 0.12438474D+01  1  2  3  2  6  2       21 0.131209690381D-02 0.100000000000D+01
0.327304967912D-06 0.000000000000D+00 0.000000000000D+00 0.108500764880D-05 0.000000000000D+00  6 1 21 25 -24 2 21 4 0.30089686D-01 0.18806141D-01 0.16260476D+05 0.16260476D+05 0.16260476D+05 0.12438474D+01  1  2 15  2  6  2       21 0.330700002063D-02 0.100000000000D+01
0.355462593378D-05 0.000000000000D+00 -.786337583196D-05 0.108500764880D-05 0.000000000000D+00  6 1 21 25 -24 2 21 4 0.30089686D-01 0.54583431D-01 0.16260476D+05 0.16260476D+05 0.16260476D+05 0.12438474D+01  1  2  5  2  6  2       21 0.449708723895D-02 0.100000000000D+01
0.213295330305D-05 0.000000000000D+00 -.273209585508D-05 0.108500764880D-05 0.000000000000D+00  6 1 -1 25 -24 2 -1 4 0.30089686D-01 0.54583431D-01 0.16260476D+05 0.16260476D+05 0.16260476D+05 0.12438474D+01  1  2  5  5  6  2       21 0.269452037504D-03 0.100000000000D+01
0.213295330305D-05 0.000000000000D+00 -.273209585508D-05 0.108500764880D-05 0.000000000000D+00  6 1 1 25 -24 2 1 4 0.30089686D-01 0.54583431D-01 0.16260476D+05 0.16260476D+05 0.16260476D+05 0.12438474D+01  1  2  5  6  6  2       21 0.646684687921D-03 0.100000000000D+01
0.213295330305D-05 0.000000000000D+00 -.273209585508D-05 0.108500764880D-05 0.000000000000D+00  6 1 -2 25 -24 2 -2 4 0.30089686D-01 0.54583431D-01 0.16260476D+05 0.16260476D+05 0.16260476D+05 0.12438474D+01  1  2  5  7  6  2       21 0.217396666545D-03 0.100000000000D+01
0.213295330305D-05 0.000000000000D+00 -.273209585508D-05 0.108500764880D-05 0.000000000000D+00  6 1 2 25 -24 2 2 4 0.30089686D-01 0.54583431D-01 0.16260476D+05 0.16260476D+05 0.16260476D+05 0.12438474D+01  1  2  5  8  6  2       21 0.941474899741D-03 0.100000000000D+01
0.213295330305D-05 0.000000000000D+00 -.273209585508D-05 0.108500764880D-05 0.000000000000D+00  6 1 -3 25 -24 2 -3 4 0.30089686D-01 0.54583431D-01 0.16260476D+05 0.16260476D+05 0.16260476D+05 0.12438474D+01  1  2  5  9  6  2       21 0.135098874886D-03 0.100000000000D+01
0.213295330305D-05 0.000000000000D+00 -.273209585508D-05 0.108500764880D-05 0.000000000000D+00  6 1 -4 25 -24 2 -4 4 0.30089686D-01 0.54583431D-01 0.16260476D+05 0.16260476D+05 0.16260476D+05 0.12438474D+01  1  2  5  9  6  2       21 0.110311668666D-03 0.100000000000D+01
0.213295330305D-05 0.000000000000D+00 -.273209585508D-05 0.108500764880D-05 0.000000000000D+00  6 1 3 25 -24 2 3 4 0.30089686D-01 0.54583431D-01 0.16260476D+05 0.16260476D+05 0.16260476D+05 0.12438474D+01  1  2  5 10  6  2       21 0.135169616387D-03 0.100000000000D+01
0.213295330305D-05 0.000000000000D+00 -.273209585508D-05 0.108500764880D-05 0.000000000000D+00  6 1 4 25 -24 2 4 4 0.30089686D-01 0.54583431D-01 0.16260476D+05 0.16260476D+05 0.16260476D+05 0.12438474D+01  1  2  5 10  6  2       21 0.110311668666D-03 0.100000000000D+01
  </mgrwgt>
  </event>
  <event>
  5     66 -.42980143E-03 0.25157688E+02 0.75467711E-02 0.12312250E+00
        1 -1    0    0  502    0 0.00000000E+00 0.00000000E+00 0.33842494E+04 0.33842494E+04 0.32000000E+00 0.0000E+00 0.9000E+01
       21 -1    0    0  501  502 0.00000000E+00 0.00000000E+00 -.60219287E+02 0.60223958E+02 0.75000000E+00 0.0000E+00 0.9000E+01
       25  1    1    2    0    0 0.35627867E+02 -.10075554E+02 0.15072404E+04 0.15128680E+04 0.12500000E+03 0.0000E+00 0.9000E+01
      -24  1    1    2    0    0 -.58520645E+02 -.35659808E+00 0.18700545E+04 0.18726975E+04 0.80419002E+02 0.0000E+00 0.9000E+01
        2  1    1    2  501    0 0.22892778E+02 0.10432152E+02 -.53264765E+02 0.58907951E+02 0.32000000E+00 0.0000E+00 0.9000E+01
#aMCatNLO 1  0  0  5  2 0.11257374D+02 0.00000000D+00  -5  6  0 0.00000000D+00 0.00000000D+00 0.00000000D+00 0.00000000D+00 0.00000000D+00
  <mgrwgt>
 -.1014901002D+01    4    2    0
 0.451447846694348D+03 0.000000000000000D+00 0.000000000000000D+00 0.451447846694348D+03
 0.451447846694348D+03 -.000000000000000D+00 -.000000000000000D+00 -.451447846694348D+03
 0.222529553710292D+03 0.356278656550490D+02 -.100755545406473D+02 0.180342842009507D+03
 0.259541778616869D+03 -.585206468940749D+02 -.356598943496410D+00 0.239728858541332D+03
 0.420824361061534D+03 0.228927812390264D+02 0.104321534841439D+02 -.420071700550839D+03
 0.000000000000000D+00 0.000000000000000D+00 0.000000000000000D+00 -.000000000000000D+00
 0.451447846694348D+03 0.000000000000000D+00 0.000000000000000D+00 0.451447846694348D+03
 0.451447846694348D+03 -.000000000000000D+00 -.000000000000000D+00 -.451447846694348D+03
 0.222393971419781D+03 0.356370708513022D+02 -.100713597676679D+02 0.180173931015094D+03
 0.259357403862720D+03 -.585099111866094D+02 -.351706722369059D+00 0.239531863390564D+03
 0.136948258240091D+03 0.186224386754918D+02 0.238466290460988D+01 -.135655237995455D+03
 0.284196059866103D+03 0.425040165981598D+01 0.803840358542730D+01 -.284050556410203D+03
0.474970800068D-03 0.000000000000D+00 0.000000000000D+00 0.775364764396D-04 0.000000000000D+00  6 1 21 25 -24 2 21 2 0.52065412D+00 0.92648662D-02 0.16254267D+05 0.16254267D+05 0.16254267D+05 0.12438661D+01  1  2  2  3  6  5        2 0.325178934675D-01 0.100000000000D+01
0.193599617704D-03 0.250648977388D-04 -.958829200184D-06 0.775364764396D-04 0.000000000000D+00  6 1 21 25 -24 2 21 4 0.52065412D+00 0.92648662D-02 0.16254267D+05 0.16254267D+05 0.16254267D+05 0.12438661D+01  1  2  3  3  6  5        2 0.205072422933D-01 0.100000000000D+01
0.504989838721D-04 0.000000000000D+00 0.000000000000D+00 0.775364764396D-04 0.000000000000D+00  6 1 21 25 -24 2 21 4 0.52065412D+00 0.92648662D-02 0.16254267D+05 0.16254267D+05 0.16254267D+05 0.12438661D+01  1  2 15  3  6  5        2 0.534915776235D-02 0.100000000000D+01
-.101323075987D-01 0.000000000000D+00 0.000000000000D+00 0.775364764396D-04 0.000000000000D+00  6 1 21 25 -24 2 21 4 0.52065412D+00 0.92648662D-02 0.16254267D+05 0.16254267D+05 0.16254267D+05 0.12438661D+01  1  2  5  3  6  5        2 -.107327529559D+01 0.100000000000D+01
  </mgrwgt>
  </event>
  <event>
  5     66 -.42980143E-03 0.10521272E+03 0.75467711E-02 0.11677136E+00
        1 -1    0    0  502    0 0.00000000E+00 0.00000000E+00 0.49273041E+03 0.49273051E+03 0.32000000E+00 0.0000E+00 0.9000E+01
       21 -1    0    0  501  502 0.00000000E+00 0.00000000E+00 -.66863468E+02 0.66867674E+02 0.75000000E+00 0.0000E+00 0.9000E+01
       25  1    1    2    0    0 -.10176751E+03 0.25631418E+02 0.20394572E+03 0.26121342E+03 0.12500000E+03 0.0000E+00 0.9000E+01
      -24  1    1    2    0    0 -.78755962E+01 -.33094979E+02 0.12071680E+03 0.14898680E+03 0.80419002E+02 0.0000E+00 0.9000E+01
        2  1    1    2  501    0 0.10964311E+03 0.74635606E+01 0.10120442E+03 0.14939797E+03 0.32000000E+00 0.0000E+00 0.9000E+01
#aMCatNLO 1  0  0  5  2 0.47991031D+01 0.00000000D+00  -5  6  0 0.00000000D+00 0.00000000D+00 0.00000000D+00 0.00000000D+00 0.00000000D+00
  <mgrwgt>
 -.1577236126D-01    8    2    0
 0.181512727011027D+03 0.000000000000000D+00 0.000000000000000D+00 0.181512727011027D+03
 0.181512727011027D+03 -.000000000000000D+00 -.000000000000000D+00 -.181512727011027D+03
 0.163406902016914D+03 -.101767716868226D+03 0.256314043106663D+02 0.794849314379755D+01
 0.880474083693856D+02 -.787570553403842D+01 -.330949862142632D+02 0.113059858488175D+02
 0.111571143635754D+03 0.109643422402264D+03 0.746358190359690D+01 -.192544789926150D+02
 0.000000000000000D+00 0.000000000000000D+00 0.000000000000000D+00 -.000000000000000D+00
 0.181512727011027D+03 0.000000000000000D+00 0.000000000000000D+00 0.181512727011027D+03
 0.181512727011027D+03 -.000000000000000D+00 -.000000000000000D+00 -.181512727011027D+03
 0.163293398880461D+03 -.101584732129852D+03 0.256438603390540D+02 0.791635919792284D+01
 0.880338955039383D+02 -.777708244972134D+01 -.330882728022659D+02 0.112886666511532D+02
 0.540676836337391D+02 0.537741430660473D+02 0.677711051639905D+00 -.558539692061922D+01
 0.576304760039157D+02 0.555876715135260D+02 0.676670141157198D+01 -.136196289284568D+02
0.506223258016D-06 0.000000000000D+00 0.000000000000D+00 0.252415366845D-06 0.000000000000D+00  6 1 21 25 -24 2 21 2 0.75805010D-01 0.10287019D-01 0.32477289D+05 0.32477289D+05 0.32477289D+05 0.12112984D+01  1  2  2  3  6  5        2 0.291836582942D-02 0.100000000000D+01
-.391429355249D-07 0.267141352549D-07 -.102191890855D-08 0.252415366845D-06 0.000000000000D+00  6 1 21 25 -24 2 21 4 0.75805010D-01 0.10287019D-01 0.32477289D+05 0.32477289D+05 0.32477289D+05 0.12112984D+01  1  2  3  3  6  5        2 -.331095530032D-03 0.100000000000D+01
0.518795585539D-07 0.000000000000D+00 0.000000000000D+00 0.252415366845D-06 0.000000000000D+00  6 1 21 25 -24 2 21 4 0.75805010D-01 0.10287019D-01 0.32477289D+05 0.32477289D+05 0.32477289D+05 0.12112984D+01  1  2 15  3  6  5        2 0.438829886079D-03 0.100000000000D+01
0.252505834139D-05 0.000000000000D+00 0.000000000000D+00 0.252440883517D-06 0.000000000000D+00  6 1 21 25 -24 2 21 4 0.75805010D-01 0.10287019D-01 0.32433298D+05 0.32433298D+05 0.32433298D+05 0.12113596D+01  1  2 12  3  6  5        2 0.213629574723D-01 0.100000000000D+01
-.160934783233D-04 0.000000000000D+00 0.000000000000D+00 0.252415366845D-06 0.000000000000D+00  6 1 21 25 -24 2 21 4 0.75805010D-01 0.10287019D-01 0.32477289D+05 0.32477289D+05 0.32477289D+05 0.12112984D+01  1  2  4  3  6  5        2 -.136128746198D+00 0.100000000000D+01
-.790404187101D-05 0.000000000000D+00 0.000000000000D+00 0.252415366845D-06 0.000000000000D+00  6 1 21 25 -24 2 21 4 0.75805010D-01 0.10287019D-01 0.32477289D+05 0.32477289D+05 0.32477289D+05 0.12112984D+01  1  2  5  3  6  5        2 -.668573498022D-01 0.100000000000D+01
0.128131636551D-04 0.000000000000D+00 -.000000000000D+00 0.252415366845D-06 0.000000000000D+00  6 1 21 25 -24 2 21 4 0.75805010D-01 0.10287019D-01 0.32477289D+05 0.32477289D+05 0.32477289D+05 0.12112984D+01  1  2  6  3  6  5        2 0.108381784731D+00 0.100000000000D+01
0.643503970135D-05 0.000000000000D+00 0.000000000000D+00 0.252415366845D-06 0.305134975393D-07  6 1 21 25 -24 2 21 4 0.75805010D-01 0.10287019D-01 0.32433298D+05 0.32433298D+05 0.32433298D+05 0.12113596D+01  1  2 11  3  6  5        2 0.544428923558D-01 0.100000000000D+01
  </mgrwgt>
  </event>
  <event>
  5     66 0.42980143E-03 0.33238591E+02 0.75467711E-02 0.11971141E+00
        3 -1    0    0  502    0 0.00000000E+00 0.00000000E+00 0.11647387E+03 0.11647494E+03 0.50000000E+00 0.0000E+00 0.9000E+01
       21 -1    0    0  501  502 -.00000000E+00 -.00000000E+00 -.23537706E+03 0.23537826E+03 0.75000000E+00 0.0000E+00 0.9000E+01
       25  1    1    2    0    0 -.40873026E+02 -.85363820E+02 -.32372381E+02 0.16009546E+03 0.12500000E+03 0.0000E+00 0.9000E+01
      -24  1    1    2    0    0 0.77649960E+01 0.82546342E+02 -.19791749E+02 0.11718841E+03 0.80419002E+02 0.0000E+00 0.9000E+01
        4  1    1    2  501    0 0.33108030E+02 0.28174784E+01 -.66739066E+02 0.74569332E+02 0.15500000E+01 0.0000E+00 0.9000E+01
#aMCatNLO 1  0  0  5  2 0.71032107D-01 0.00000000D+00  -5  6  0 0.00000000D+00 0.00000000D+00 0.00000000D+00 0.00000000D+00 0.00000000D+00
  <mgrwgt>
 0.6272952780D-01    7    2    0
 0.165576799410870D+03 0.000000000000000D+00 0.000000000000000D+00 0.165576799410870D+03
 0.165576799410870D+03 -.000000000000000D+00 -.000000000000000D+00 -.165576799410870D+03
 0.158482196967659D+03 -.408792613600228D+02 -.853643507648807D+02 0.230958949782238D+02
 0.117407715170502D+03 0.776037679517678D+01 0.825459486329720D+02 0.210546560994695D+02
 0.552636866835785D+02 0.331188845648460D+02 0.281840213190867D+01 -.441505510776932D+02
 0.000000000000000D+00 0.000000000000000D+00 0.000000000000000D+00 0.000000000000000D+00
 0.165576799410870D+03 0.000000000000000D+00 0.000000000000000D+00 0.165576799410870D+03
 0.165576799410870D+03 -.000000000000000D+00 -.000000000000000D+00 -.165576799410870D+03
 0.158482158899514D+03 -.408791849261709D+02 -.853643442603944D+02 0.230957930847957D+02
 0.117407708764416D+03 0.776043341935865D+01 0.825459534516644D+02 0.210545806141726D+02
 0.121279009199700D+02 0.721117447665825D+01 0.624264591118284D+00 -.973114777978819D+01
 0.431358302378397D+02 0.259075770301540D+02 0.219412621761175D+01 -.344192259191800D+02
0.116700260397D-06 0.000000000000D+00 0.000000000000D+00 0.938840898558D-06 0.000000000000D+00  6 3 21 25 -24 4 21 2 0.17919231D-01 0.36212031D-01 0.23337647D+05 0.23337647D+05 0.23337647D+05 0.12265145D+01  1  2  2  3  6  5        4 0.171790463039D-03 0.100000000000D+01
0.739848048012D-08 0.615844193478D-08 -.235584202906D-09 0.938840898558D-06 0.000000000000D+00  6 3 21 25 -24 4 21 4 0.17919231D-01 0.36212031D-01 0.23337647D+05 0.23337647D+05 0.23337647D+05 0.12265145D+01  1  2  3  3  6  5        4 0.163838184442D-04 0.100000000000D+01
0.103019189298D-07 0.000000000000D+00 0.000000000000D+00 0.938840898558D-06 0.000000000000D+00  6 3 21 25 -24 4 21 4 0.17919231D-01 0.36212031D-01 0.23337647D+05 0.23337647D+05 0.23337647D+05 0.12265145D+01  1  2 15  3  6  5        4 0.228134371410D-04 0.100000000000D+01
-.131827514722D-02 0.000000000000D+00 0.000000000000D+00 0.938840898558D-06 0.000000000000D+00  6 3 21 25 -24 4 21 4 0.17919231D-01 0.36212031D-01 0.23337647D+05 0.23337647D+05 0.23337647D+05 0.12265145D+01  1  2  4  3  6  5        4 -.291929954125D+01 0.100000000000D+01
-.538489464086D-03 0.000000000000D+00 0.000000000000D+00 0.938840898558D-06 0.000000000000D+00  6 3 21 25 -24 4 21 4 0.17919231D-01 0.36212031D-01 0.23337647D+05 0.23337647D+05 0.23337647D+05 0.12265145D+01  1  2  5  3  6  5        4 -.119247643316D+01 0.100000000000D+01
0.135164304510D-02 0.000000000000D+00 -.000000000000D+00 0.938840898558D-06 0.000000000000D+00  6 3 21 25 -24 4 21 4 0.17919231D-01 0.36212031D-01 0.23337647D+05 0.23337647D+05 0.23337647D+05 0.12265145D+01  1  2  6  3  6  5        4 0.299319222532D+01 0.100000000000D+01
0.533353151245D-03 0.000000000000D+00 0.000000000000D+00 0.938840898558D-06 0.170060627155D-03  6 3 21 25 -24 4 21 4 0.17919231D-01 0.36212031D-01 0.23337625D+05 0.23337625D+05 0.23337625D+05 0.12265145D+01  1  2 11  3  6  5        4 0.118110228917D+01 0.100000000000D+01
  </mgrwgt>
  </event>
  <event>
  6     66 0.42980143E-03 0.21452599E+02 0.75467711E-02 0.12107508E+00
        1 -1    0    0  502    0 0.00000000E+00 0.00000000E+00 0.92897371E+03 0.92897376E+03 0.32000000E+00 0.0000E+00 0.9000E+01
       21 -1    0    0  501  502 0.00000000E+00 0.00000000E+00 -.26452628E+02 0.26463258E+02 0.75000000E+00 0.0000E+00 0.9000E+01
       25  1    1    2    0    0 -.17698208E+02 -.70211342E+02 0.47074107E+03 0.49240737E+03 0.12500000E+03 0.0000E+00 0.9000E+01
      -24  1    1    2    0    0 -.10105344E+02 0.59056355E+02 0.37158671E+03 0.38488137E+03 0.80419002E+02 0.0000E+00 0.9000E+01
        2  1    1    2  503    0 0.94001837E+01 -.83733328E+01 0.46181043E+02 0.47867184E+02 0.32000000E+00 0.0000E+00 0.9000E+01
       21  1    1    2  501  503 0.18403368E+02 0.19528320E+02 0.14012258E+02 0.30281102E+02 0.75000000E+00 0.0000E+00 0.9000E+01
#aMCatNLO 2  0  0  5  2 0.12092352D+02 0.00000000D+00  -5  6  0 0.00000000D+00 0.00000000D+00 0.00000000D+00 0.00000000D+00 0.00000000D+00
  <mgrwgt>
 0.9969508621D-01    1    2    0
 0.156776594861562D+03 0.000000000000000D+00 0.000000000000000D+00 0.156776594861562D+03
 0.156776594861562D+03 -.000000000000000D+00 -.000000000000000D+00 -.156776594861562D+03
 0.147335802698163D+03 -.212407719544352D+02 -.716326447867525D+02 0.223703501167639D+02
 0.103877669935046D+03 -.126110141349774D+02 0.580510616217665D+02 0.281849414375323D+02
 0.623397170899152D+02 0.338517860894126D+02 0.135815831649859D+02 -.505552915542961D+02
 0.000000000000000D+00 -.000000000000000D+00 0.000000000000000D+00 0.000000000000000D+00
 0.156776594861562D+03 0.000000000000000D+00 0.000000000000000D+00 0.156776594861562D+03
 0.156776594861562D+03 -.000000000000000D+00 -.000000000000000D+00 -.156776594861562D+03
 0.145565283810802D+03 -.179050648453016D+02 -.702943347963410D+02 0.173887032105544D+02
 0.103253286541896D+03 -.102521010552178D+02 0.589974747323512D+02 0.246620685768951D+02
 0.121090314967666D+02 0.870296859149755D+01 -.789581139728131D+01 0.292286569374237D+01
 0.526255878736600D+02 0.194541973090219D+02 0.191926714612711D+02 -.449736374811919D+02
0.556644823246D-05 0.000000000000D+00 0.000000000000D+00 0.106203886018D-05 0.265935215489D-07  6 1 21 25 -24 2 21 4 0.14291985D+00 0.40704571D-02 0.20145089D+05 0.20145089D+05 0.20145089D+05 0.12334806D+01  1  2  1  3  6  5        2 0.996950862110D-01 0.100000000000D+01
  </mgrwgt>
  </event>
  <event>
  5     66 0.42980143E-03 0.41270681E+02 0.75467711E-02 0.12069349E+00
        1 -1    0    0  502    0 0.00000000E+00 0.00000000E+00 0.80813053E+02 0.80813687E+02 0.32000000E+00 0.0000E+00 0.9000E+01
       21 -1    0    0  501  502 0.00000000E+00 0.00000000E+00 -.28605497E+03 0.28605595E+03 0.75000000E+00 0.0000E+00 0.9000E+01
       25  1    1    2    0    0 -.84650931E+02 0.98767242E+01 -.63222005E+02 0.16396753E+03 0.12500000E+03 0.0000E+00 0.9000E+01
      -24  1    1    2    0    0 0.44898724E+02 0.12132298E+01 -.56805737E+02 0.10821957E+03 0.80419002E+02 0.0000E+00 0.9000E+01
        2  1    1    2  501    0 0.39752207E+02 -.11089954E+02 -.85214173E+02 0.94682536E+02 0.32000000E+00 0.0000E+00 0.9000E+01
#aMCatNLO 1  0  0  2  1 0.51619661D+01 0.00000000D+00  -5  6  0 0.00000000D+00 0.00000000D+00 0.00000000D+00 0.00000000D+00 0.00000000D+00
  <mgrwgt>
 0.8652693812D-01   32    2    0
 0.152043651224597D+03 0.000000000000000D+00 0.000000000000000D+00 0.152043651224597D+03
 0.152043651224597D+03 0.000000000000000D+00 0.000000000000000D+00 -.152043651224597D+03
 0.155149459281695D+03 -.846512541493087D+02 0.987681421541303D+01 0.343943080655160D+02
 0.922219709892888D+02 0.448985324398683D+02 0.121328336988648D+01 0.450840404013931D+01
 0.567158721782111D+02 0.397527217094404D+02 -.110900975852995D+02 -.389027121056553D+02
 0.000000000000000D+00 0.000000000000000D+00 -.000000000000000D+00 -.000000000000000D+00
 0.154325670224634D+03 0.000000000000000D+00 0.000000000000000D+00 0.154325670224634D+03
 0.155012961902049D+03 0.000000000000000D+00 0.000000000000000D+00 -.155012961902049D+03
 0.155979307163554D+03 -.858612480894927D+02 0.122238256054035D+02 0.343943080655160D+02
 0.919043135588060D+02 0.441824569349343D+02 0.260224682694136D+01 0.450840404013931D+01
 0.562474914723965D+02 0.393134020443330D+02 -.102379542615922D+02 -.389027121056553D+02
 0.520751993192610D+01 0.236538911022543D+01 -.458811817075272D+01 -.687291677414534D+00
0.278540120810D-05 0.000000000000D+00 0.000000000000D+00 0.730692305732D-06 0.000000000000D+00  6 1 21 25 -24 2 21 2 0.12432902D-01 0.44008581D-01 0.20259461D+05 0.20259461D+05 0.20259461D+05 0.12332102D+01  1  2  2  2  6  2       21 0.107379166608D-01 0.100000000000D+01
0.505971863023D-07 0.146989660064D-06 -.562292252950D-08 0.730692305732D-06 0.000000000000D+00  6 1 21 25 -24 2 21 4 0.12432902D-01 0.44008581D-01 0.20259461D+05 0.20259461D+05 0.20259461D+05 0.12332102D+01  1  2  3  2  6  2       21 0.296642164738D-03 0.100000000000D+01
0.283518501042D-06 0.000000000000D+00 0.000000000000D+00 0.730692305732D-06 0.000000000000D+00  6 1 21 25 -24 2 21 4 0.12432902D-01 0.44008581D-01 0.20259461D+05 0.20259461D+05 0.20259461D+05 0.12332102D+01  1  2 15  2  6  2       21 0.166221776424D-02 0.100000000000D+01
0.174252923585D-05 0.000000000000D+00 0.000000000000D+00 0.728708796560D-06 0.000000000000D+00  6 1 21 25 -24 2 21 4 0.12432902D-01 0.45192613D-01 0.20984454D+05 0.20984454D+05 0.20984454D+05 0.12315353D+01  1  2 12  2  6  2       21 0.962650475237D-02 0.100000000000D+01
-.134974722464D-05 0.000000000000D+00 0.000000000000D+00 0.730692305732D-06 0.000000000000D+00  6 1 21 25 -24 2 21 4 0.12432902D-01 0.44008581D-01 0.20259461D+05 0.20259461D+05 0.20259461D+05 0.12332102D+01  1  2  4  2  6  2       21 -.791332419505D-02 0.100000000000D+01
-.181066383499D-03 0.000000000000D+00 -.252913247774D-04 0.730692305732D-06 0.000000000000D+00  6 1 21 25 -24 2 21 4 0.12432902D-01 0.45475566D-01 0.20259461D+05 0.20259461D+05 0.20259461D+05 0.12332102D+01  1  2  5  2  6  2       21 -.993010853809D+00 0.100000000000D+01
0.181504236378D-03 0.000000000000D+00 0.252370200947D-04 0.730692305732D-06 0.000000000000D+00  6 1 21 25 -24 2 21 4 0.12432902D-01 0.44008581D-01 0.20259461D+05 0.20259461D+05 0.20259461D+05 0.12332102D+01  1  2  6  2  6  2       21 0.106412655570D+01 0.100000000000D+01
0.108675500845D-05 0.000000000000D+00 0.000000000000D+00 0.730692305732D-06 0.292159632645D-06  6 1 21 25 -24 2 21 4 0.12619507D-01 0.44868039D-01 0.20984454D+05 0.20984454D+05 0.20984454D+05 0.12315353D+01  1  2 11  2  6  2       21 0.597472320610D-02 0.100000000000D+01
0.522215705612D-07 0.000000000000D+00 0.000000000000D+00 0.728708796560D-06 0.000000000000D+00  6 1 -1 25 -24 2 -1 4 0.12432902D-01 0.45192613D-01 0.20984454D+05 0.20984454D+05 0.20984454D+05 0.12315353D+01  1  2 12  5  6  2       21 0.276830836840D-04 0.100000000000D+01
-.120391561177D-05 0.000000000000D+00 -.193377645604D-06 0.730692305732D-06 0.000000000000D+00  6 1 -1 25 -24 2 -1 4 0.12432902D-01 0.45475566D-01 0.20259461D+05 0.20259461D+05 0.20259461D+05 0.12332102D+01  1  2  5  5  6  2       21 -.634053212175D-03 0.100000000000D+01
0.854878778562D-07 0.000000000000D+00 0.000000000000D+00 0.730692305732D-06 0.154340232086D-08  6 1 -1 25 -24 2 -1 4 0.12619507D-01 0.44868039D-01 0.20984454D+05 0.20984454D+05 0.20984454D+05 0.12315353D+01  1  2 11  5  6  2       21 0.450190386839D-04 0.100000000000D+01
0.522215705612D-07 0.000000000000D+00 0.000000000000D+00 0.728708796560D-06 0.000000000000D+00  6 1 1 25 -24 2 1 4 0.12432902D-01 0.45192613D-01 0.20984454D+05 0.20984454D+05 0.20984454D+05 0.12315353D+01  1  2 12  6  6  2       21 0.595524109908D-04 0.100000000000D+01
-.120391561177D-05 0.000000000000D+00 -.193377645604D-06 0.730692305732D-06 0.000000000000D+00  6 1 1 25 -24 2 1 4 0.12432902D-01 0.45475566D-01 0.20259461D+05 0.20259461D+05 0.20259461D+05 0.12332102D+01  1  2  5  6  6  2       21 -.136866091660D-02 0.100000000000D+01
0.639759224981D-07 0.000000000000D+00 0.000000000000D+00 0.730692305732D-06 0.193579167639D-08  6 1 1 25 -24 2 1 4 0.12619507D-01 0.44868039D-01 0.20984454D+05 0.20984454D+05 0.20984454D+05 0.12315353D+01  1  2 11  6  6  2       21 0.721875542758D-04 0.100000000000D+01
0.522215705612D-07 0.000000000000D+00 0.000000000000D+00 0.728708796560D-06 0.000000000000D+00  6 1 -2 25 -24 2 -2 4 0.12432902D-01 0.45192613D-01 0.20984454D+05 0.20984454D+05 0.20984454D+05 0.12315353D+01  1  2 12  7  6  2       21 0.230025268676D-04 0.100000000000D+01
-.120391561177D-05 0.000000000000D+00 -.193377645604D-06 0.730692305732D-06 0.000000000000D+00  6 1 -2 25 -24 2 -2 4 0.12432902D-01 0.45475566D-01 0.20259461D+05 0.20259461D+05 0.20259461D+05 0.12332102D+01  1  2  5  7  6  2       21 -.526315801296D-03 0.100000000000D+01
0.241992724224D-06 0.000000000000D+00 0.000000000000D+00 0.730692305732D-06 0.615219757094D-07  6 1 -2 25 -24 2 -2 4 0.12619507D-01 0.44868039D-01 0.20984454D+05 0.20984454D+05 0.20984454D+05 0.12315353D+01  1  2 11  7  6  2       21 0.106001761964D-03 0.100000000000D+01
0.522215705612D-07 0.000000000000D+00 0.000000000000D+00 0.728708796560D-06 0.000000000000D+00  6 1 2 25 -24 2 2 4 0.12432902D-01 0.45192613D-01 0.20984454D+05 0.20984454D+05 0.20984454D+05 0.12315353D+01  1  2 12  8  6  2       21 0.838494384660D-04 0.100000000000D+01
-.120391561177D-05 0.000000000000D+00 -.193377645604D-06 0.730692305732D-06 0.000000000000D+00  6 1 2 25 -24 2 2 4 0.12432902D-01 0.45475566D-01 0.20259461D+05 0.20259461D+05 0.20259461D+05 0.12332102D+01  1  2  5  8  6  2       21 -.192900038908D-02 0.100000000000D+01
0.834728276237D-07 0.000000000000D+00 0.000000000000D+00 0.730692305732D-06 0.853759576898D-09  6 1 2 25 -24 2 2 4 0.12619507D-01 0.44868039D-01 0.20984454D+05 0.20984454D+05 0.20984454D+05 0.12315353D+01  1  2 11  8  6  2       21 0.132444836375D-03 0.100000000000D+01
0.522215705612D-07 0.000000000000D+00 0.000000000000D+00 0.728708796560D-06 0.000000000000D+00  6 1 -3 25 -24 2 -3 4 0.12432902D-01 0.45192613D-01 0.20984454D+05 0.20984454D+05 0.20984454D+05 0.12315353D+01  1  2 12  9  6  2       21 0.144256185756D-04 0.100000000000D+01
0.522215705612D-07 0.000000000000D+00 0.000000000000D+00 0.728708796560D-06 0.000000000000D+00  6 1 -4 25 -24 2 -4 4 0.12432902D-01 0.45192613D-01 0.20984454D+05 0.20984454D+05 0.20984454D+05 0.12315353D+01  1  2 12  9  6  2       21 0.119061717899D-04 0.100000000000D+01
-.120391561177D-05 0.000000000000D+00 -.193377645604D-06 0.730692305732D-06 0.000000000000D+00  6 1 -3 25 -24 2 -3 4 0.12432902D-01 0.45475566D-01 0.20259461D+05 0.20259461D+05 0.20259461D+05 0.12332102D+01  1  2  5  9  6  2       21 -.329764222270D-03 0.100000000000D+01
-.120391561177D-05 0.000000000000D+00 -.193377645604D-06 0.730692305732D-06 0.000000000000D+00  6 1 -4 25 -24 2 -4 4 0.12432902D-01 0.45475566D-01 0.20259461D+05 0.20259461D+05 0.20259461D+05 0.12332102D+01  1  2  5  9  6  2       21 -.271992345143D-03 0.100000000000D+01
0.855122979050D-07 0.000000000000D+00 0.000000000000D+00 0.730692305732D-06 0.154384320162D-08  6 1 -3 25 -24 2 -3 4 0.12619507D-01 0.44868039D-01 0.20984454D+05 0.20984454D+05 0.20984454D+05 0.12315353D+01  1  2 11  9  6  2       21 0.234952632059D-04 0.100000000000D+01
0.855122979050D-07 0.000000000000D+00 0.000000000000D+00 0.730692305732D-06 0.154384320162D-08  6 1 -4 25 -24 2 -4 4 0.12619507D-01 0.44868039D-01 0.20984454D+05 0.20984454D+05 0.20984454D+05 0.12315353D+01  1  2 11  9  6  2       21 0.193975722339D-04 0.100000000000D+01
0.522215705612D-07 0.000000000000D+00 0.000000000000D+00 0.728708796560D-06 0.000000000000D+00  6 1 3 25 -24 2 3 4 0.12432902D-01 0.45192613D-01 0.20984454D+05 0.20984454D+05 0.20984454D+05 0.12315353D+01  1  2 12 10  6  2       21 0.144299963143D-04 0.100000000000D+01
0.522215705612D-07 0.000000000000D+00 0.000000000000D+00 0.728708796560D-06 0.000000000000D+00  6 1 4 25 -24 2 4 4 0.12432902D-01 0.45192613D-01 0.20984454D+05 0.20984454D+05 0.20984454D+05 0.12315353D+01  1  2 12 10  6  2       21 0.119061717899D-04 0.100000000000D+01
-.120391561177D-05 0.000000000000D+00 -.193377645604D-06 0.730692305732D-06 0.000000000000D+00  6 1 3 25 -24 2 3 4 0.12432902D-01 0.45475566D-01 0.20259461D+05 0.20259461D+05 0.20259461D+05 0.12332102D+01  1  2  5 10  6  2       21 -.329866141814D-03 0.100000000000D+01
-.120391561177D-05 0.000000000000D+00 -.193377645604D-06 0.730692305732D-06 0.000000000000D+00  6 1 4 25 -24 2 4 4 0.12432902D-01 0.45475566D-01 0.20259461D+05 0.20259461D+05 0.20259461D+05 0.12332102D+01  1  2  5 10  6  2       21 -.271992345143D-03 0.100000000000D+01
0.855122979050D-07 0.000000000000D+00 0.000000000000D+00 0.730692305732D-06 0.154384320162D-08  6 1 3 25 -24 2 3 4 0.12619507D-01 0.44868039D-01 0.20984454D+05 0.20984454D+05 0.20984454D+05 0.12315353D+01  1  2 11 10  6  2       21 0.235022245624D-04 0.100000000000D+01
0.855122979050D-07 0.000000000000D+00 0.000000000000D+00 0.730692305732D-06 0.154384320162D-08  6 1 4 25 -24 2 4 4 0.12619507D-01 0.44868039D-01 0.20984454D+05 0.20984454D+05 0.20984454D+05 0.12315353D+01  1  2 11 10  6  2       21 0.193975722339D-04 0.100000000000D+01
  </mgrwgt>
  </event>
  <event>
  5     66 0.42980143E-03 0.22356074E+02 0.75467711E-02 0.11368229E+00
        1 -1    0    0  502    0 0.00000000E+00 0.00000000E+00 0.21194505E+04 0.21194506E+04 0.32000000E+00 0.0000E+00 0.9000E+01
       21 -1    0    0  501  502 0.00000000E+00 0.00000000E+00 -.13513645E+02 0.13534442E+02 0.75000000E+00 0.0000E+00 0.9000E+01
       25  1    1    2    0    0 -.20858404E+01 -.11398382E+03 0.14908792E+04 0.15004474E+04 0.12500000E+03 0.0000E+00 0.9000E+01
      -24  1    1    2    0    0 -.10531056E+02 0.95530493E+02 0.52079789E+03 0.53566280E+03 0.80419002E+02 0.0000E+00 0.9000E+01
        2  1    1    2  501    0 0.12616896E+02 0.18453331E+02 0.94259854E+02 0.96874836E+02 0.32000000E+00 0.0000E+00 0.9000E+01
#aMCatNLO 1  0  0  2  5 0.33994633D+02 0.00000000D+00  -5  6  0 0.00000000D+00 0.00000000D+00 0.00000000D+00 0.00000000D+00 0.00000000D+00
  <mgrwgt>
 0.1808588236D+00   14    2    0
 0.169303596412799D+03 0.000000000000000D+00 0.000000000000000D+00 0.169303596412799D+03
 0.169303596412799D+03 0.000000000000000D+00 0.000000000000000D+00 -.169303596412799D+03
 0.179365844830986D+03 -.208643449441130D+01 -.113984693054588D+03 0.595839142074878D+02
 0.135239440077528D+03 -.105315036622921D+02 0.955298378076505D+02 -.508490680068764D+02
 0.240019079170832D+02 0.126179381567034D+02 0.184548552469374D+02 -.873484620061143D+01
 0.000000000000000D+00 0.000000000000000D+00 -.000000000000000D+00 -.000000000000000D+00
 0.218138888644915D+03 0.000000000000000D+00 0.000000000000000D+00 0.218138888644915D+03
 0.236770330575807D+03 0.000000000000000D+00 0.000000000000000D+00 -.236770330575807D+03
 0.158080162787113D+03 -.262924993425933D+02 -.715737347973022D+02 0.595839142074878D+02
 0.167094532886772D+03 -.322188716861118D+02 0.133527838132668D+03 -.508490680068764D+02
 0.279178385762767D+02 0.889357122941181D+01 0.249802434617857D+02 -.873484620061143D+01
 0.101816684970560D+03 0.496177997992932D+02 -.869343467971513D+02 -.186314419308928D+02
0.162031823975D-04 0.000000000000D+00 0.000000000000D+00 0.601895433720D-06 0.000000000000D+00  6 1 21 25 -24 2 21 2 0.32607092D+00 0.20806239D-02 0.25098791D+05 0.25098791D+05 0.25098791D+05 0.12231141D+01  1  2  2  2  6  2       21 0.912806473600D-01 0.100000000000D+01
0.140968555126D-05 0.855065426711D-06 -.327095569167D-07 0.601895433720D-06 0.000000000000D+00  6 1 21 25 -24 2 21 4 0.32607092D+00 0.20806239D-02 0.25098791D+05 0.25098791D+05 0.25098791D+05 0.12231141D+01  1  2  3  2  6  2       21 0.118804953958D-01 0.100000000000D+01
0.150902225021D-05 0.000000000000D+00 0.000000000000D+00 0.601895433720D-06 0.000000000000D+00  6 1 21 25 -24 2 21 4 0.32607092D+00 0.20806239D-02 0.25098791D+05 0.25098791D+05 0.25098791D+05 0.12231141D+01  1  2 15  2  6  2       21 0.127176815281D-01 0.100000000000D+01
-.114457701011D-05 0.000000000000D+00 0.000000000000D+00 0.601895433720D-06 0.000000000000D+00  6 1 21 25 -24 2 21 4 0.32607092D+00 0.20806239D-02 0.25098791D+05 0.25098791D+05 0.25098791D+05 0.12231141D+01  1  2  4  2  6  2       21 -.964622350465D-02 0.100000000000D+01
-.259419968732D-04 0.000000000000D+00 -.216111624649D-04 0.601895433720D-06 0.000000000000D+00  6 1 21 25 -24 2 21 4 0.32607092D+00 0.40360126D-02 0.25098791D+05 0.25098791D+05 0.25098791D+05 0.12231141D+01  1  2  5  2  6  2       21 -.734707014987D-01 0.100000000000D+01
0.182685870510D-04 0.000000000000D+00 0.102037315525D-04 0.601895433720D-06 0.000000000000D+00  6 1 21 25 -24 2 21 4 0.32607092D+00 0.20806239D-02 0.25098791D+05 0.25098791D+05 0.25098791D+05 0.12231141D+01  1  2  6  2  6  2       21 0.153963317672D+00 0.100000000000D+01
-.535511774549D-05 0.000000000000D+00 -.510405726088D-05 0.601895433720D-06 0.000000000000D+00  6 1 -1 25 -24 2 -1 4 0.32607092D+00 0.40360126D-02 0.25098791D+05 0.25098791D+05 0.25098791D+05 0.12231141D+01  1  2  5  5  6  2       21 -.834590001648D-03 0.100000000000D+01
-.535511774549D-05 0.000000000000D+00 -.510405726088D-05 0.601895433720D-06 0.000000000000D+00  6 1 1 25 -24 2 1 4 0.32607092D+00 0.40360126D-02 0.25098791D+05 0.25098791D+05 0.25098791D+05 0.12231141D+01  1  2  5  6  6  2       21 -.919936452611D-03 0.100000000000D+01
-.535511774549D-05 0.000000000000D+00 -.510405726088D-05 0.601895433720D-06 0.000000000000D+00  6 1 -2 25 -24 2 -2 4 0.32607092D+00 0.40360126D-02 0.25098791D+05 0.25098791D+05 0.25098791D+05 0.12231141D+01  1  2  5  7  6  2       21 -.819440751065D-03 0.100000000000D+01
-.535511774549D-05 0.000000000000D+00 -.510405726088D-05 0.601895433720D-06 0.000000000000D+00  6 1 2 25 -24 2 2 4 0.32607092D+00 0.40360126D-02 0.25098791D+05 0.25098791D+05 0.25098791D+05 0.12231141D+01  1  2  5  8  6  2       21 -.977549289031D-03 0.100000000000D+01
-.535511774549D-05 0.000000000000D+00 -.510405726088D-05 0.601895433720D-06 0.000000000000D+00  6 1 -3 25 -24 2 -3 4 0.32607092D+00 0.40360126D-02 0.25098791D+05 0.25098791D+05 0.25098791D+05 0.12231141D+01  1  2  5  9  6  2       21 -.609844755585D-03 0.100000000000D+01
-.535511774549D-05 0.000000000000D+00 -.510405726088D-05 0.601895433720D-06 0.000000000000D+00  6 1 -4 25 -24 2 -4 4 0.32607092D+00 0.40360126D-02 0.25098791D+05 0.25098791D+05 0.25098791D+05 0.12231141D+01  1  2  5  9  6  2       21 -.547620053939D-03 0.100000000000D+01
-.535511774549D-05 0.000000000000D+00 -.510405726088D-05 0.601895433720D-06 0.000000000000D+00  6 1 3 25 -24 2 3 4 0.32607092D+00 0.40360126D-02 0.25098791D+05 0.25098791D+05 0.25098791D+05 0.12231141D+01  1  2  5 10  6  2       21 -.609792018621D-03 0.100000000000D+01
-.535511774549D-05 0.000000000000D+00 -.510405726088D-05 0.601895433720D-06 0.000000000000D+00  6 1 4 25 -24 2 4 4 0.32607092D+00 0.40360126D-02 0.25098791D+05 0.25098791D+05 0.25098791D+05 0.12231141D+01  1  2  5 10  6  2       21 -.547620053939D-03 0.100000000000D+01
  </mgrwgt>
  </event>
  <event>
  5     66 0.42980143E-03 0.59317649E+02 0.75467711E-02 0.11960338E+00
        3 -1    0    0  502    0 0.00000000E+00 0.00000000E+00 0.12013840E+03 0.12013944E+03 0.50000000E+00 0.0000E+00 0.9000E+01
       21 -1    0    0  501  502 0.00000000E+00 0.00000000E+00 -.20463873E+03 0.20464011E+03 0.75000000E+00 0.0000E+00 0.9000E+01
       25  1    1    2    0    0 0.18061561E+02 0.14214558E+02 -.35279580E+02 0.13190118E+03 0.12500000E+03 0.0000E+00 0.9000E+01
      -24  1    1    2    0    0 -.77512842E+02 -.30848872E+02 -.33005774E+01 0.11592240E+03 0.80419002E+02 0.0000E+00 0.9000E+01
        4  1    1    2  501    0 0.59451281E+02 0.16634314E+02 -.45920172E+02 0.76955961E+02 0.15500000E+01 0.0000E+00 0.9000E+01
#aMCatNLO 1  0  0  2  1 0.26334006D+01 0.00000000D+00  -5  6  0 0.00000000D+00 0.00000000D+00 0.00000000D+00 0.00000000D+00 0.00000000D+00
  <mgrwgt>
 0.4886769073D-01   32    2    0
 0.156797200553046D+03 0.000000000000000D+00 0.000000000000000D+00 0.156797200553046D+03
 0.156797200553046D+03 0.000000000000000D+00 0.000000000000000D+00 -.156797200553046D+03
 0.127098303427874D+03 0.180551728412279D+02 0.142127707536706D+02 -.993285165967368D+00
 0.119172666397694D+03 -.775188311597597D+02 -.308505478515838D+02 0.278205495065668D+02
 0.673234312805233D+02 0.594636583185318D+02 0.166377770979132D+02 -.268272643405994D+02
 0.000000000000000D+00 0.000000000000000D+00 -.000000000000000D+00 -.000000000000000D+00
 0.157662606987867D+03 0.000000000000000D+00 0.000000000000000D+00 0.157662606987867D+03
 0.158818944633427D+03 0.000000000000000D+00 0.000000000000000D+00 -.158818944633427D+03
 0.126978559830000D+03 0.170106130079306D+02 0.144293827371240D+02 -.993285165967368D+00
 0.119761665796261D+03 -.785011370769743D+02 -.306468455587107D+02 0.278205495065668D+02
 0.668652322401868D+02 0.589119823957411D+02 0.167521789847654D+02 -.268272643405994D+02
 0.287609375484565D+01 0.257854167330258D+01 -.534716163178684D+00 -.115633764556013D+01
0.312229292280D-05 0.000000000000D+00 0.000000000000D+00 0.372541918038D-06 0.000000000000D+00  6 3 21 25 -24 4 21 2 0.18483017D-01 0.31483067D-01 0.23213827D+05 0.23213827D+05 0.23213827D+05 0.12267643D+01  1  2  2  2  6  2       21 0.573343026050D-02 0.100000000000D+01
-.107501448241D-06 0.164767924279D-06 -.630300983866D-08 0.372541918038D-06 0.000000000000D+00  6 3 21 25 -24 4 21 4 0.18483017D-01 0.31483067D-01 0.23213827D+05 0.23213827D+05 0.23213827D+05 0.12267643D+01  1  2  3  2  6  2       21 -.297082762288D-03 0.100000000000D+01
0.310084154488D-06 0.000000000000D+00 0.000000000000D+00 0.372541918038D-06 0.000000000000D+00  6 3 21 25 -24 4 21 4 0.18483017D-01 0.31483067D-01 0.23213827D+05 0.23213827D+05 0.23213827D+05 0.12267643D+01  1  2 15  2  6  2       21 0.856924801153D-03 0.100000000000D+01
0.167710641687D-07 0.000000000000D+00 0.000000000000D+00 0.372054210083D-06 0.000000000000D+00  6 3 21 25 -24 4 21 4 0.18483017D-01 0.31975087D-01 0.23614637D+05 0.23614637D+05 0.23614637D+05 0.12259610D+01  1  2 12  2  6  2       21 0.448693428078D-04 0.100000000000D+01
-.525457315408D-05 0.000000000000D+00 0.000000000000D+00 0.372541918038D-06 0.000000000000D+00  6 3 21 25 -24 4 21 4 0.18483017D-01 0.31483067D-01 0.23213827D+05 0.23213827D+05 0.23213827D+05 0.12267643D+01  1  2  4  2  6  2       21 -.145211356015D-01 0.100000000000D+01
-.471172959709D-03 0.000000000000D+00 -.525098876270D-04 0.372541918038D-06 0.000000000000D+00  6 3 21 25 -24 4 21 4 0.18483017D-01 0.32047685D-01 0.23213827D+05 0.23213827D+05 0.23213827D+05 0.12267643D+01  1  2  5  2  6  2       21 -.125773257866D+01 0.100000000000D+01
0.471816114213D-03 0.000000000000D+00 0.524767210288D-04 0.372541918038D-06 0.000000000000D+00  6 3 21 25 -24 4 21 4 0.18483017D-01 0.31483067D-01 0.23213827D+05 0.23213827D+05 0.23213827D+05 0.12267643D+01  1  2  6  2  6  2       21 0.130387484817D+01 0.100000000000D+01
0.507304194725D-05 0.000000000000D+00 0.000000000000D+00 0.372541918038D-06 0.232713652050D-05  6 3 21 25 -24 4 21 4 0.18585030D-01 0.31889010D-01 0.23614637D+05 0.23614637D+05 0.23614637D+05 0.12259610D+01  1  2 11  2  6  2       21 0.135131773804D-01 0.100000000000D+01
0.126203258744D-08 0.000000000000D+00 0.000000000000D+00 0.372054210083D-06 0.000000000000D+00  6 3 -3 25 -24 4 -3 4 0.18483017D-01 0.31975087D-01 0.23614637D+05 0.23614637D+05 0.23614637D+05 0.12259610D+01  1  2 12  5  6  2       21 0.165240867321D-06 0.100000000000D+01
-.170187557116D-05 0.000000000000D+00 -.212954205645D-06 0.372541918038D-06 0.000000000000D+00  6 3 -3 25 -24 4 -3 4 0.18483017D-01 0.32047685D-01 0.23213827D+05 0.23213827D+05 0.23213827D+05 0.12267643D+01  1  2  5  5  6  2       21 -.222201441844D-03 0.100000000000D+01
0.329778018725D-06 0.000000000000D+00 0.000000000000D+00 0.372541918038D-06 0.257439443457D-08  6 3 -3 25 -24 4 -3 4 0.18585030D-01 0.31889010D-01 0.23614637D+05 0.23614637D+05 0.23614637D+05 0.12259610D+01  1  2 11  5  6  2       21 0.429806174149D-04 0.100000000000D+01
0.126203258744D-08 0.000000000000D+00 0.000000000000D+00 0.372054210083D-06 0.000000000000D+00  6 3 3 25 -24 4 3 4 0.18483017D-01 0.31975087D-01 0.23614637D+05 0.23614637D+05 0.23614637D+05 0.12259610D+01  1  2 12  6  6  2       21 0.165249691015D-06 0.100000000000D+01
-.170187557116D-05 0.000000000000D+00 -.212954205645D-06 0.372541918038D-06 0.000000000000D+00  6 3 3 25 -24 4 3 4 0.18483017D-01 0.32047685D-01 0.23213827D+05 0.23213827D+05 0.23213827D+05 0.12267643D+01  1  2  5  6  6  2       21 -.222213486910D-03 0.100000000000D+01
0.305809091949D-06 0.000000000000D+00 0.000000000000D+00 0.372541918038D-06 0.305950625444D-08  6 3 3 25 -24 4 3 4 0.18585030D-01 0.31889010D-01 0.23614637D+05 0.23614637D+05 0.23614637D+05 0.12259610D+01  1  2 11  6  6  2       21 0.398587744174D-04 0.100000000000D+01
0.126203258744D-08 0.000000000000D+00 0.000000000000D+00 0.372054210083D-06 0.000000000000D+00  6 3 -4 25 -24 4 -4 4 0.18483017D-01 0.31975087D-01 0.23614637D+05 0.23614637D+05 0.23614637D+05 0.12259610D+01  1  2 12  7  6  2       21 0.138519951415D-06 0.100000000000D+01
-.170187557116D-05 0.000000000000D+00 -.212954205645D-06 0.372541918038D-06 0.000000000000D+00  6 3 -4 25 -24 4 -4 4 0.18483017D-01 0.32047685D-01 0.23213827D+05 0.23213827D+05 0.23213827D+05 0.12267643D+01  1  2  5  7  6  2       21 -.186217014388D-03 0.100000000000D+01
0.538419936268D-06 0.000000000000D+00 0.000000000000D+00 0.372541918038D-06 0.245766291739D-06  6 3 -4 25 -24 4 -4 4 0.18585030D-01 0.31889010D-01 0.23614637D+05 0.23614637D+05 0.23614637D+05 0.12259610D+01  1  2 11  7  6  2       21 0.588321300209D-04 0.100000000000D+01
0.126203258744D-08 0.000000000000D+00 0.000000000000D+00 0.372054210083D-06 0.000000000000D+00  6 3 4 25 -24 4 4 4 0.18483017D-01 0.31975087D-01 0.23614637D+05 0.23614637D+05 0.23614637D+05 0.12259610D+01  1  2 12  8  6  2       21 0.138519951415D-06 0.100000000000D+01
-.170187557116D-05 0.000000000000D+00 -.212954205645D-06 0.372541918038D-06 0.000000000000D+00  6 3 4 25 -24 4 4 4 0.18483017D-01 0.32047685D-01 0.23213827D+05 0.23213827D+05 0.23213827D+05 0.12267643D+01  1  2  5  8  6  2       21 -.186217014388D-03 0.100000000000D+01
0.331404603067D-06 0.000000000000D+00 0.000000000000D+00 0.372541918038D-06 0.130506141036D-08  6 3 4 25 -24 4 4 4 0.18585030D-01 0.31889010D-01 0.23614637D+05 0.23614637D+05 0.23614637D+05 0.12259610D+01  1  2 11  8  6  2       21 0.362119553602D-04 0.100000000000D+01
0.126203258744D-08 0.000000000000D+00 0.000000000000D+00 0.372054210083D-06 0.000000000000D+00  6 3 -1 25 -24 4 -1 4 0.18483017D-01 0.31975087D-01 0.23614637D+05 0.23614637D+05 0.23614637D+05 0.12259610D+01  1  2 12  9  6  2       21 0.297837153256D-06 0.100000000000D+01
0.126203258744D-08 0.000000000000D+00 0.000000000000D+00 0.372054210083D-06 0.000000000000D+00  6 3 -2 25 -24 4 -2 4 0.18483017D-01 0.31975087D-01 0.23614637D+05 0.23614637D+05 0.23614637D+05 0.12259610D+01  1  2 12  9  6  2       21 0.259416222251D-06 0.100000000000D+01
-.170187557116D-05 0.000000000000D+00 -.212954205645D-06 0.372541918038D-06 0.000000000000D+00  6 3 -1 25 -24 4 -1 4 0.18483017D-01 0.32047685D-01 0.23213827D+05 0.23213827D+05 0.23213827D+05 0.12267643D+01  1  2  5  9  6  2       21 -.400825721647D-03 0.100000000000D+01
-.170187557116D-05 0.000000000000D+00 -.212954205645D-06 0.372541918038D-06 0.000000000000D+00  6 3 -2 25 -24 4 -2 4 0.18483017D-01 0.32047685D-01 0.23213827D+05 0.23213827D+05 0.23213827D+05 0.12267643D+01  1  2  5  9  6  2       21 -.349011198737D-03 0.100000000000D+01
0.329833272624D-06 0.000000000000D+00 0.000000000000D+00 0.372541918038D-06 0.257482577117D-08  6 3 -1 25 -24 4 -1 4 0.18585030D-01 0.31889010D-01 0.23614637D+05 0.23614637D+05 0.23614637D+05 0.12259610D+01  1  2 11  9  6  2       21 0.774473860149D-04 0.100000000000D+01
0.329833272624D-06 0.000000000000D+00 0.000000000000D+00 0.372541918038D-06 0.257482577117D-08  6 3 -2 25 -24 4 -2 4 0.18585030D-01 0.31889010D-01 0.23614637D+05 0.23614637D+05 0.23614637D+05 0.12259610D+01  1  2 11  9  6  2       21 0.674790141348D-04 0.100000000000D+01
0.126203258744D-08 0.000000000000D+00 0.000000000000D+00 0.372054210083D-06 0.000000000000D+00  6 3 1 25 -24 4 1 4 0.18483017D-01 0.31975087D-01 0.23614637D+05 0.23614637D+05 0.23614637D+05 0.12259610D+01  1  2 12 10  6  2       21 0.538474277128D-06 0.100000000000D+01
0.126203258744D-08 0.000000000000D+00 0.000000000000D+00 0.372054210083D-06 0.000000000000D+00  6 3 2 25 -24 4 2 4 0.18483017D-01 0.31975087D-01 0.23614637D+05 0.23614637D+05 0.23614637D+05 0.12259610D+01  1  2 12 10  6  2       21 0.714823462825D-06 0.100000000000D+01
-.170187557116D-05 0.000000000000D+00 -.212954205645D-06 0.372541918038D-06 0.000000000000D+00  6 3 1 25 -24 4 1 4 0.18483017D-01 0.32047685D-01 0.23213827D+05 0.23213827D+05 0.23213827D+05 0.12267643D+01  1  2  5 10  6  2       21 -.725414858026D-03 0.100000000000D+01
-.170187557116D-05 0.000000000000D+00 -.212954205645D-06 0.372541918038D-06 0.000000000000D+00  6 3 2 25 -24 4 2 4 0.18483017D-01 0.32047685D-01 0.23213827D+05 0.23213827D+05 0.23213827D+05 0.12267643D+01  1  2  5 10  6  2       21 -.963307733009D-03 0.100000000000D+01
0.329833272624D-06 0.000000000000D+00 0.000000000000D+00 0.372541918038D-06 0.257482577117D-08  6 3 1 25 -24 4 1 4 0.18585030D-01 0.31889010D-01 0.23614637D+05 0.23614637D+05 0.23614637D+05 0.12259610D+01  1  2 11 10  6  2       21 0.139849904742D-03 0.100000000000D+01
0.329833272624D-06 0.000000000000D+00 0.000000000000D+00 0.372541918038D-06 0.257482577117D-08  6 3 2 25 -24 4 2 4 0.18585030D-01 0.31889010D-01 0.23614637D+05 0.23614637D+05 0.23614637D+05 0.12259610D+01  1  2 11 10  6  2       21 0.185568404879D-03 0.100000000000D+01
  </mgrwgt>
  </event>
  <event>
  5     66 -.42980143E-03 0.77344114E+02 0.75467711E-02 0.12016548E+00
        1 -1    0    0  502    0 0.00000000E+00 0.00000000E+00 0.73954312E+03 0.73954319E+03 0.32000000E+00 0.0000E+00 0.9000E+01
       21 -1    0    0  501  502 0.00000000E+00 0.00000000E+00 -.36348009E+02 0.36355746E+02 0.75000000E+00 0.0000E+00 0.9000E+01
       25  1    1    2    0    0 -.48507759E+02 -.11707736E+02 0.27261542E+03 0.30403000E+03 0.12500000E+03 0.0000E+00 0.9000E+01
      -24  1    1    2    0    0 -.27731384E+02 -.13173223E+01 0.34993881E+03 0.36013213E+03 0.80419002E+02 0.0000E+00 0.9000E+01
        2  1    1    2  501    0 0.76239143E+02 0.13025059E+02 0.80640878E+02 0.11173680E+03 0.32000000E+00 0.0000E+00 0.9000E+01
#aMCatNLO 1  0  0  5  2 0.72785168D+01 0.00000000D+00  -5  6  0 0.00000000D+00 0.00000000D+00 0.00000000D+00 0.00000000D+00 0.00000000D+00
  <mgrwgt>
 -.2491991811D-01    8    2    0
 0.163963253087507D+03 0.000000000000000D+00 0.000000000000000D+00 0.163963253087507D+03
 0.163963253087507D+03 -.000000000000000D+00 -.000000000000000D+00 -.163963253087507D+03
 0.134770271931340D+03 -.485079512942947D+02 -.117077690294018D+02 -.692336638001675D+01
 0.101702380594627D+03 -.277315287334900D+02 -.131734704838723D+01 0.557259829442375D+02
 0.914538536490465D+02 0.762394800277847D+02 0.130251160777891D+02 -.488026165642208D+02
 0.000000000000000D+00 0.000000000000000D+00 0.000000000000000D+00 -.000000000000000D+00
 0.163963253087507D+03 0.000000000000000D+00 0.000000000000000D+00 0.163963253087507D+03
 0.163963253087507D+03 -.000000000000000D+00 -.000000000000000D+00 -.163963253087507D+03
 0.134417118643104D+03 -.474591798519839D+02 -.115285919184065D+02 -.759470871529952D+01
 0.101211014667229D+03 -.269409650530784D+02 -.118228338189194D+01 0.552199252409233D+02
 0.812125767719206D+02 0.670028392538383D+02 0.186786817831390D+02 -.419190768589150D+02
 0.110857960927599D+02 0.739730565122394D+01 -.596780648284061D+01 -.570613966670875D+01
0.142728962030D-05 0.000000000000D+00 0.000000000000D+00 0.449927935604D-06 0.000000000000D+00  6 1 21 25 -24 2 21 2 0.11377646D+00 0.55926019D-02 0.22054152D+05 0.22054152D+05 0.22054152D+05 0.12291787D+01  1  2  2  3  6  5        2 0.138940346084D-01 0.100000000000D+01
-.652318348800D-07 0.753201425674D-07 -.288128652302D-08 0.449927935604D-06 0.000000000000D+00  6 1 21 25 -24 2 21 4 0.11377646D+00 0.55926019D-02 0.22054152D+05 0.22054152D+05 0.22054152D+05 0.12291787D+01  1  2  3  3  6  5        2 -.959413759331D-03 0.100000000000D+01
0.158094762276D-06 0.000000000000D+00 0.000000000000D+00 0.449927935604D-06 0.000000000000D+00  6 1 21 25 -24 2 21 4 0.11377646D+00 0.55926019D-02 0.22054152D+05 0.22054152D+05 0.22054152D+05 0.12291787D+01  1  2 15  3  6  5        2 0.232521882122D-02 0.100000000000D+01
0.508538422878D-05 0.000000000000D+00 0.000000000000D+00 0.449678855530D-06 0.000000000000D+00  6 1 21 25 -24 2 21 4 0.11377646D+00 0.55926019D-02 0.22213598D+05 0.22213598D+05 0.22213598D+05 0.12288385D+01  1  2 12  3  6  5        2 0.747136858813D-01 0.100000000000D+01
-.892391571103D-05 0.000000000000D+00 0.000000000000D+00 0.449927935604D-06 0.000000000000D+00  6 1 21 25 -24 2 21 4 0.11377646D+00 0.55926019D-02 0.22054152D+05 0.22054152D+05 0.22054152D+05 0.12291787D+01  1  2  4  3  6  5        2 -.131250754114D+00 0.100000000000D+01
-.656249018192D-05 0.000000000000D+00 0.000000000000D+00 0.449927935604D-06 0.000000000000D+00  6 1 21 25 -24 2 21 4 0.11377646D+00 0.55926019D-02 0.22054152D+05 0.22054152D+05 0.22054152D+05 0.12291787D+01  1  2  5  3  6  5        2 -.965194891051D-01 0.100000000000D+01
0.740579175640D-05 0.000000000000D+00 -.000000000000D+00 0.449927935604D-06 0.000000000000D+00  6 1 21 25 -24 2 21 4 0.11377646D+00 0.55926019D-02 0.22054152D+05 0.22054152D+05 0.22054152D+05 0.12291787D+01  1  2  6  3  6  5        2 0.108922560938D+00 0.100000000000D+01
0.269145103654D-06 0.000000000000D+00 0.000000000000D+00 0.449927935604D-06 0.932048151409D-07  6 1 21 25 -24 2 21 4 0.11377646D+00 0.55926019D-02 0.22213598D+05 0.22213598D+05 0.22213598D+05 0.12288385D+01  1  2 11  3  6  5        2 0.395423862312D-02 0.100000000000D+01
  </mgrwgt>
  </event>
  <event>
  6     66 -.42980143E-03 0.11758161E+02 0.75467711E-02 0.12016100E+00
        3 -1    0    0  502    0 0.00000000E+00 0.00000000E+00 0.15648579E+03 0.15648659E+03 0.50000000E+00 0.0000E+00 0.9000E+01
       21 -1    0    0  503  502 0.00000000E+00 0.00000000E+00 -.14928355E+03 0.14928543E+03 0.75000000E+00 0.0000E+00 0.9000E+01
       25  1    1    2    0    0 0.13990955E+02 -.71997673E+02 0.28288440E+02 0.14766397E+03 0.12500000E+03 0.0000E+00 0.9000E+01
      -24  1    1    2    0    0 -.18240011E+02 0.74473579E+02 -.25120388E+01 0.11114197E+03 0.80419002E+02 0.0000E+00 0.9000E+01
        4  1    1    2  501    0 0.17951009E+02 0.12417030E+02 -.45965789E+01 0.22359615E+02 0.15500000E+01 0.0000E+00 0.9000E+01
       21  1    1    2  503  501 -.13701953E+02 -.14892936E+02 -.13977579E+02 0.24606468E+02 0.75000000E+00 0.0000E+00 0.9000E+01
#aMCatNLO 2  0  0  2  1 0.20237170D+02 0.00000000D+00  -5  6  0 0.00000000D+00 0.00000000D+00 0.00000000D+00 0.00000000D+00 0.00000000D+00
  <mgrwgt>
 -.2191695833D-01    2    2    0
 0.139817687092147D+03 0.000000000000000D+00 0.000000000000000D+00 0.139817687092147D+03
 0.139817687092147D+03 0.000000000000000D+00 0.000000000000000D+00 -.139817687092147D+03
 0.149486833661101D+03 0.673856020508043D+01 -.798703582521378D+02 0.172229822347777D+02
 0.108863618446130D+03 -.236530133352744D+02 0.685974247224191D+02 -.109087005838224D+02
 0.212849220770614D+02 0.169144531301940D+02 0.112729335297187D+02 -.631428165095531D+01
 0.000000000000000D+00 -.000000000000000D+00 -.000000000000000D+00 -.000000000000000D+00
 0.145106111611763D+03 0.000000000000000D+00 0.000000000000000D+00 0.145106111611763D+03
 0.160981785239166D+03 0.000000000000000D+00 0.000000000000000D+00 -.160981785239166D+03
 0.145954200023265D+03 0.139673175800248D+02 -.720132725752032D+02 0.172229822347777D+02
 0.111642734447016D+03 -.182577339293631D+02 0.744616653303800D+02 -.109087005838224D+02
 0.227697638645437D+02 0.179923691932736D+02 0.124445427594760D+02 -.631428165095531D+01
 0.257211985161048D+02 -.137019528439354D+02 -.148929355146528D+02 -.158756736274035D+02
-.993926286440D-05 0.000000000000D+00 0.000000000000D+00 0.930485482335D-06 0.000000000000D+00  6 3 21 25 -24 4 21 4 0.23196671D-01 0.23303558D-01 0.22224382D+05 0.22224382D+05 0.22224382D+05 0.12288155D+01  1  2 13  2  6  2       21 -.328521222620D-01 0.100000000000D+01
0.344096524073D-05 0.000000000000D+00 0.000000000000D+00 0.941063628471D-06 0.249972973047D-07  6 3 21 25 -24 4 21 4 0.24074055D-01 0.22966059D-01 0.22224382D+05 0.22224382D+05 0.22224382D+05 0.12288155D+01  1  2  1  2  6  2       21 0.109351639303D-01 0.100000000000D+01
  </mgrwgt>
  </event>
  <event>
  5     66 -.42980143E-03 0.23886406E+02 0.75467711E-02 0.12360626E+00
        1 -1    0    0  502    0 0.00000000E+00 0.00000000E+00 0.22139376E+03 0.22139400E+03 0.32000000E+00 0.0000E+00 0.9000E+01
       21 -1    0    0  501  502 0.00000000E+00 0.00000000E+00 -.72817872E+02 0.72821734E+02 0.75000000E+00 0.0000E+00 0.9000E+01
       25  1    1    2    0    0 0.49951217E+02 -.23907785E+02 0.88981561E+02 0.16312395E+03 0.12500000E+03 0.0000E+00 0.9000E+01
      -24  1    1    2    0    0 -.26085940E+02 0.24880006E+02 0.60972123E+02 0.10716486E+03 0.80419002E+02 0.0000E+00 0.9000E+01
        2  1    1    2  501    0 -.23865277E+02 -.97222140E+00 -.13777928E+01 0.23926918E+02 0.32000000E+00 0.0000E+00 0.9000E+01
#aMCatNLO 1  0  0  5  2 0.94413781D+01 0.00000000D+00  -5  6  0 0.00000000D+00 0.00000000D+00 0.00000000D+00 0.00000000D+00 0.00000000D+00
  <mgrwgt>
 -.5251991245D+00    7    2    0
 0.126972536308539D+03 0.000000000000000D+00 0.000000000000000D+00 0.126972536308539D+03
 0.126972536308539D+03 -.000000000000000D+00 -.000000000000000D+00 -.126972536308539D+03
 0.136931971582695D+03 0.499520264699035D+02 -.239077517381129D+02 0.765371151159775D+01
 0.884859434712997D+02 -.260854163397628D+02 0.248800274340385D+02 0.794238798462065D+01
 0.285271575630831D+02 -.238666101301407D+02 -.972275695925602D+00 -.155960994962184D+02
 0.000000000000000D+00 0.000000000000000D+00 0.000000000000000D+00 -.000000000000000D+00
 0.126972536308539D+03 0.000000000000000D+00 0.000000000000000D+00 0.126972536308539D+03
 0.126972536308539D+03 -.000000000000000D+00 -.000000000000000D+00 -.126972536308539D+03
 0.135730580690970D+03 0.467850526143061D+02 -.240367676181495D+02 0.558419099383290D+01
 0.889820015454937D+02 -.281467054217732D+02 0.247960548352578D+02 0.659539863681614D+01
 0.138549995834405D+02 -.135983648389044D+02 0.153364655645128D+01 0.216642918302678D+01
 0.153774907971735D+02 -.503998235362847D+01 -.229293377355956D+01 -.143460188136758D+02
0.221567368999D-04 0.000000000000D+00 0.000000000000D+00 0.131841812578D-05 0.000000000000D+00  6 1 21 25 -24 2 21 2 0.34060894D-01 0.11203064D-01 0.15467037D+05 0.15467037D+05 0.15467037D+05 0.12463074D+01  1  2  2  3  6  5        2 0.315932876716D+00 0.100000000000D+01
0.120023310185D-05 0.116924312935D-05 -.447280681621D-07 0.131841812578D-05 0.000000000000D+00  6 1 21 25 -24 2 21 4 0.34060894D-01 0.11203064D-01 0.15467037D+05 0.15467037D+05 0.15467037D+05 0.12463074D+01  1  2  3  3  6  5        2 0.265830583035D-01 0.100000000000D+01
0.210171679338D-05 0.000000000000D+00 0.000000000000D+00 0.131841812578D-05 0.000000000000D+00  6 1 21 25 -24 2 21 4 0.34060894D-01 0.11203064D-01 0.15467037D+05 0.15467037D+05 0.15467037D+05 0.12463074D+01  1  2 15  3  6  5        2 0.465493410985D-01 0.100000000000D+01
0.700217670619D-05 0.000000000000D+00 0.000000000000D+00 0.132280709937D-05 0.000000000000D+00  6 1 21 25 -24 2 21 4 0.34060894D-01 0.11203064D-01 0.14832138D+05 0.14832138D+05 0.14832138D+05 0.12483801D+01  1  2 12  3  6  5        2 0.156003647528D+00 0.100000000000D+01
-.561266389437D-04 0.000000000000D+00 0.000000000000D+00 0.131841812578D-05 0.000000000000D+00  6 1 21 25 -24 2 21 4 0.34060894D-01 0.11203064D-01 0.15467037D+05 0.15467037D+05 0.15467037D+05 0.12463074D+01  1  2  4  3  6  5        2 -.124310662080D+01 0.100000000000D+01
-.573456784539D-05 0.000000000000D+00 0.000000000000D+00 0.131841812578D-05 0.000000000000D+00  6 1 21 25 -24 2 21 4 0.34060894D-01 0.11203064D-01 0.15467037D+05 0.15467037D+05 0.15467037D+05 0.12463074D+01  1  2  5  3  6  5        2 -.127010620807D+00 0.100000000000D+01
0.135382815419D-04 0.000000000000D+00 -.000000000000D+00 0.131841812578D-05 0.000000000000D+00  6 1 21 25 -24 2 21 4 0.34060894D-01 0.11203064D-01 0.15467037D+05 0.15467037D+05 0.15467037D+05 0.12463074D+01  1  2  6  3  6  5        2 0.299849193462D+00 0.100000000000D+01
  </mgrwgt>
  </event>
  <event>
  5     66 0.42980143E-03 0.23346353E+02 0.75467711E-02 0.94124931E-01
        1 -1    0    0  502    0 0.00000000E+00 0.00000000E+00 0.11813594E+04 0.11813594E+04 0.32000000E+00 0.0000E+00 0.9000E+01
       21 -1    0    0  501  502 0.00000000E+00 0.00000000E+00 -.51929208E+02 0.51934624E+02 0.75000000E+00 0.0000E+00 0.9000E+01
       25  1    1    2    0    0 -.98824975E+02 -.12893539E+03 0.65183850E+03 0.68330750E+03 0.12500000E+03 0.0000E+00 0.9000E+01
      -24  1    1    2    0    0 0.78329119E+02 0.14011427E+03 0.49118474E+03 0.52296953E+03 0.80419002E+02 0.0000E+00 0.9000E+01
        2  1    1    2  501    0 0.20495856E+02 -.11178882E+02 -.13593043E+02 0.27017046E+02 0.32000000E+00 0.0000E+00 0.9000E+01
#aMCatNLO 1  0  0  2  2 0.12149147D+01 0.00000000D+00  -5  6  0 0.00000000D+00 0.00000000D+00 0.00000000D+00 0.00000000D+00 0.00000000D+00
  <mgrwgt>
 0.4012544769D+00   12    2    0
 0.247690178083620D+03 0.000000000000000D+00 0.000000000000000D+00 0.247690178083620D+03
 0.247690178083620D+03 0.000000000000000D+00 0.000000000000000D+00 -.247690178083620D+03
 0.215012643730638D+03 -.988250225330822D+02 -.128935363217102D+03 0.649209057041567D+02
 0.182115322134466D+03 0.783290789016237D+02 0.140114293190221D+03 0.305174514662989D+02
 0.982523903021361D+02 0.204959436314586D+02 -.111789299731194D+02 -.954383571704556D+02
 0.000000000000000D+00 0.000000000000000D+00 0.000000000000000D+00 -.000000000000000D+00
 0.878629949304235D+03 0.000000000000000D+00 0.000000000000000D+00 0.878629949304235D+03
 0.983212748065858D+03 0.000000000000000D+00 0.000000000000000D+00 -.983212748065858D+03
 0.709536885099531D+03 -.493819100068258D+03 -.489638196760703D+03 0.649209057041567D+02
 0.100438336523102D+03 -.423859485527208D+02 0.298790898530316D+02 0.305174514662989D+02
 0.183911740594308D+03 -.100052666390524D+03 -.121262163337041D+03 -.954383571704556D+02
 0.867955735153153D+03 0.636257715011502D+03 0.581021270244712D+03 -.104582798761623D+03
0.581364543144D-04 0.000000000000D+00 0.000000000000D+00 0.196962382384D-05 0.000000000000D+00  6 1 21 25 -24 2 21 2 0.18174802D+00 0.79895288D-02 0.41588236D+05 0.41588236D+05 0.41588236D+05 0.12002868D+01  1  2  2  2  6  2       21 0.133808260571D+00 0.100000000000D+01
0.144775277546D-04 0.306794498120D-05 -.117360751406D-06 0.196962382384D-05 0.000000000000D+00  6 1 21 25 -24 2 21 4 0.18174802D+00 0.79895288D-02 0.41588236D+05 0.41588236D+05 0.41588236D+05 0.12002868D+01  1  2  3  2  6  2       21 0.480063668778D-01 0.100000000000D+01
0.554965603909D-05 0.000000000000D+00 0.000000000000D+00 0.196962382384D-05 0.000000000000D+00  6 1 21 25 -24 2 21 4 0.18174802D+00 0.79895288D-02 0.41588236D+05 0.41588236D+05 0.41588236D+05 0.12002868D+01  1  2 15  2  6  2       21 0.184022319539D-01 0.100000000000D+01
0.138797844462D-01 0.000000000000D+00 -.654920111615D-02 0.196962382384D-05 0.000000000000D+00  6 1 21 25 -24 2 21 4 0.18174802D+00 0.15760987D+00 0.41588236D+05 0.41588236D+05 0.41588236D+05 0.12002868D+01  1  2  5  2  6  2       21 0.993726614778D-01 0.100000000000D+01
0.613867104938D-02 0.000000000000D+00 -.289897998143D-02 0.196962382384D-05 0.000000000000D+00  6 1 -1 25 -24 2 -1 4 0.18174802D+00 0.15760987D+00 0.41588236D+05 0.41588236D+05 0.41588236D+05 0.12002868D+01  1  2  5  5  6  2       21 0.528973202948D-02 0.100000000000D+01
0.613867104938D-02 0.000000000000D+00 -.289897998143D-02 0.196962382384D-05 0.000000000000D+00  6 1 1 25 -24 2 1 4 0.18174802D+00 0.15760987D+00 0.41588236D+05 0.41588236D+05 0.41588236D+05 0.12002868D+01  1  2  5  6  6  2       21 0.290481938535D-01 0.100000000000D+01
0.613867104938D-02 0.000000000000D+00 -.289897998143D-02 0.196962382384D-05 0.000000000000D+00  6 1 -2 25 -24 2 -2 4 0.18174802D+00 0.15760987D+00 0.41588236D+05 0.41588236D+05 0.41588236D+05 0.12002868D+01  1  2  5  7  6  2       21 0.388783079625D-02 0.100000000000D+01
0.613867104938D-02 0.000000000000D+00 -.289897998143D-02 0.196962382384D-05 0.000000000000D+00  6 1 2 25 -24 2 2 4 0.18174802D+00 0.15760987D+00 0.41588236D+05 0.41588236D+05 0.41588236D+05 0.12002868D+01  1  2  5  8  6  2       21 0.544104166096D-01 0.100000000000D+01
0.613867104938D-02 0.000000000000D+00 -.289897998143D-02 0.196962382384D-05 0.000000000000D+00  6 1 -3 25 -24 2 -3 4 0.18174802D+00 0.15760987D+00 0.41588236D+05 0.41588236D+05 0.41588236D+05 0.12002868D+01  1  2  5  9  6  2       21 0.252405285096D-02 0.100000000000D+01
0.613867104938D-02 0.000000000000D+00 -.289897998143D-02 0.196962382384D-05 0.000000000000D+00  6 1 -4 25 -24 2 -4 4 0.18174802D+00 0.15760987D+00 0.41588236D+05 0.41588236D+05 0.41588236D+05 0.12002868D+01  1  2  5  9  6  2       21 0.198497368824D-02 0.100000000000D+01
0.613867104938D-02 0.000000000000D+00 -.289897998143D-02 0.196962382384D-05 0.000000000000D+00  6 1 3 25 -24 2 3 4 0.18174802D+00 0.15760987D+00 0.41588236D+05 0.41588236D+05 0.41588236D+05 0.12002868D+01  1  2  5 10  6  2       21 0.253478252303D-02 0.100000000000D+01
0.613867104938D-02 0.000000000000D+00 -.289897998143D-02 0.196962382384D-05 0.000000000000D+00  6 1 4 25 -24 2 4 4 0.18174802D+00 0.15760987D+00 0.41588236D+05 0.41588236D+05 0.41588236D+05 0.12002868D+01  1  2  5 10  6  2       21 0.198497368824D-02 0.100000000000D+01
  </mgrwgt>
  </event>
  <event>
  5     66 0.42980143E-03 0.20285320E+02 0.75467711E-02 0.12181960E+00
        1 -1    0    0  502    0 0.00000000E+00 0.00000000E+00 0.61472560E+03 0.61472568E+03 0.32000000E+00 0.0000E+00 0.9000E+01
       21 -1    0    0  501  502 0.00000000E+00 0.00000000E+00 -.28990838E+02 0.29000538E+02 0.75000000E+00 0.0000E+00 0.9000E+01
       25  1    1    2    0    0 0.57861061E+02 -.26819553E+02 0.25119159E+03 0.28773148E+03 0.12500000E+03 0.0000E+00 0.9000E+01
      -24  1    1    2    0    0 -.40560547E+02 0.37407405E+02 0.30455539E+03 0.31979005E+03 0.80419002E+02 0.0000E+00 0.9000E+01
        2  1    1    2  501    0 -.17300514E+02 -.10587852E+02 0.29987778E+02 0.36204690E+02 0.32000000E+00 0.0000E+00 0.9000E+01
#aMCatNLO 1  0  0  1  2 0.14426295D+02 0.00000000D+00  -5  6  0 0.00000000D+00 0.00000000D+00 0.00000000D+00 0.00000000D+00 0.00000000D+00
  <mgrwgt>
 0.3716278524D+00    9    2    0
 0.133508648862449D+03 0.000000000000000D+00 0.000000000000000D+00 0.133508648862449D+03
 0.133508648862449D+03 0.000000000000000D+00 0.000000000000000D+00 -.133508648862449D+03
 0.142645113450653D+03 0.578620845530505D+02 -.268189267225837D+02 -.255998580459753D+02
 0.102871804252954D+03 -.405598087883954D+02 0.374078570387444D+02 0.327253158686865D+02
 0.215003800212907D+02 -.173022757646551D+02 -.105889303161607D+02 -.712545782271127D+01
 0.000000000000000D+00 -.000000000000000D+00 0.000000000000000D+00 0.000000000000000D+00
 0.143571913746712D+03 0.000000000000000D+00 0.000000000000000D+00 0.143571913746712D+03
 0.138975613671948D+03 0.000000000000000D+00 0.000000000000000D+00 -.138975613671948D+03
 0.144985514111388D+03 0.596569029668443D+02 -.343729617370077D+02 -.255998580459753D+02
 0.100548962866109D+03 -.392904608692674D+02 0.320654232009329D+02 0.327253158686865D+02
 0.218722456027069D+02 -.170316300834759D+02 -.117280243528710D+02 -.712545782271127D+01
 0.151408048384562D+02 -.333481201410095D+01 0.140355628889458D+02 0.459630007476369D+01
0.162131749843D-05 0.000000000000D+00 0.000000000000D+00 0.102076962084D-05 0.000000000000D+00  6 1 21 25 -24 2 21 2 0.94573922D-01 0.44608815D-02 0.16659354D+05 0.16659354D+05 0.16659354D+05 0.12426611D+01  1  2  2  1  6  1        1 0.305662603685D-01 0.100000000000D+01
0.115276157198D-06 0.855592750008D-07 -.327297290706D-08 0.102076962084D-05 0.000000000000D+00  6 1 21 25 -24 2 21 4 0.94573922D-01 0.44608815D-02 0.16659354D+05 0.16659354D+05 0.16659354D+05 0.12426611D+01  1  2  3  1  6  1        1 0.335597815479D-02 0.100000000000D+01
0.179915925169D-06 0.000000000000D+00 0.000000000000D+00 0.102076962084D-05 0.000000000000D+00  6 1 21 25 -24 2 21 4 0.94573922D-01 0.44608815D-02 0.16659354D+05 0.16659354D+05 0.16659354D+05 0.12426611D+01  1  2 15  1  6  1        1 0.523780397647D-02 0.100000000000D+01
0.110153907225D-04 0.000000000000D+00 0.000000000000D+00 0.101192740748D-05 0.000000000000D+00  6 1 21 25 -24 2 21 4 0.10352426D+00 0.44608815D-02 0.18616874D+05 0.18616874D+05 0.18616874D+05 0.12372672D+01  1  2 12  1  6  1        1 0.278366639936D+00 0.100000000000D+01
-.248623964264D-05 0.000000000000D+00 0.000000000000D+00 0.102076962084D-05 0.000000000000D+00  6 1 21 25 -24 2 21 4 0.94573922D-01 0.44608815D-02 0.16659354D+05 0.16659354D+05 0.16659354D+05 0.12426611D+01  1  2  4  1  6  1        1 -.723806737758D-01 0.100000000000D+01
-.342129193736D-04 0.000000000000D+00 -.660580962602D-05 0.102076962084D-05 0.000000000000D+00  6 1 21 25 -24 2 21 4 0.10486583D+00 0.44608815D-02 0.16659354D+05 0.16659354D+05 0.16659354D+05 0.12426611D+01  1  2  5  1  6  1        1 -.862800331492D+00 0.100000000000D+01
0.347448441477D-04 0.000000000000D+00 0.657072074954D-05 0.102076962084D-05 0.000000000000D+00  6 1 21 25 -24 2 21 4 0.94573922D-01 0.44608815D-02 0.16659354D+05 0.16659354D+05 0.16659354D+05 0.12426611D+01  1  2  6  1  6  1        1 0.101150958520D+01 0.100000000000D+01
0.163918160529D-06 0.000000000000D+00 0.000000000000D+00 0.101192740748D-05 0.000000000000D+00  6 21 21 25 -24 2 -1 4 0.10352426D+00 0.44608815D-02 0.18616874D+05 0.18616874D+05 0.18616874D+05 0.12372672D+01  1  2 12  4  6  1        1 0.962872220701D-02 0.100000000000D+01
-.548318607595D-06 0.000000000000D+00 -.110338375840D-06 0.102076962084D-05 0.000000000000D+00  6 21 21 25 -24 2 -1 4 0.10486583D+00 0.44608815D-02 0.16659354D+05 0.16659354D+05 0.16659354D+05 0.12426611D+01  1  2  5  4  6  1        1 -.318561321670D-01 0.100000000000D+01
  </mgrwgt>
  </event>
  <event>
  5     66 0.42980143E-03 0.63489498E+02 0.75467711E-02 0.11812752E+00
        1 -1    0    0  502    0 0.00000000E+00 0.00000000E+00 0.33687698E+02 0.33689218E+02 0.32000000E+00 0.0000E+00 0.9000E+01
       21 -1    0    0  501  502 -.00000000E+00 -.00000000E+00 -.12507630E+04 0.12507632E+04 0.75000000E+00 0.0000E+00 0.9000E+01
       25  1    1    2    0    0 -.11540489E+03 0.22159362E+01 -.58081447E+03 0.60522198E+03 0.12500000E+03 0.0000E+00 0.9000E+01
      -24  1    1    2    0    0 0.55156837E+02 -.22242580E+02 -.59536692E+03 0.60371019E+03 0.80419002E+02 0.0000E+00 0.9000E+01
        2  1    1    2  501    0 0.60248050E+02 0.20026644E+02 -.40893870E+02 0.75520229E+02 0.32000000E+00 0.0000E+00 0.9000E+01
#aMCatNLO 1  0  0  5  2 0.19498887D+00 0.00000000D+00  -5  6  0 0.00000000D+00 0.00000000D+00 0.00000000D+00 0.00000000D+00 0.00000000D+00
  <mgrwgt>
 0.9666795098D-01    4    2    0
 0.205271638420022D+03 0.000000000000000D+00 0.000000000000000D+00 0.205271638420022D+03
 0.205271638420022D+03 -.000000000000000D+00 -.000000000000000D+00 -.205271638420022D+03
 0.171684556550167D+03 -.115404984249674D+03 0.221590375919144D+01 -.229644581623417D+02
 0.123813186022885D+03 0.551567669675718D+02 -.222426032908275D+02 -.729759325757393D+02
 0.115045534266991D+03 0.602482172821023D+02 0.200266995316360D+02 0.959403907380810D+02
 0.000000000000000D+00 -.000000000000000D+00 0.000000000000000D+00 0.000000000000000D+00
 0.205271638420022D+03 0.000000000000000D+00 0.000000000000000D+00 0.205271638420022D+03
 0.205271638420022D+03 -.000000000000000D+00 -.000000000000000D+00 -.205271638420022D+03
 0.171625210065534D+03 -.115337571055274D+03 0.223831211996337D+01 -.228571081277111D+02
 0.123786340763836D+03 0.552053862515417D+02 -.222264420858088D+02 -.728985103164278D+02
 0.215600124074394D+00 0.110610227184840D+00 0.201030157870805D-01 -.183969181920884D+00
 0.114916125886599D+03 0.600215745765474D+02 0.199680269500583D+02 0.959395876260597D+02
0.112627225377D-03 0.000000000000D+00 0.000000000000D+00 0.119695248935D-06 0.000000000000D+00  6 1 21 25 -24 2 21 2 0.51828570D-02 0.19242521D+00 0.27830973D+05 0.27830973D+05 0.27830973D+05 0.12183341D+01  1  2  2  3  6  5        2 0.424554743099D-01 0.100000000000D+01
-.140765476197D-04 0.594350197166D-05 -.227361918695D-06 0.119695248935D-06 0.000000000000D+00  6 1 21 25 -24 2 21 4 0.51828570D-02 0.19242521D+00 0.27830973D+05 0.27830973D+05 0.27830973D+05 0.12183341D+01  1  2  3  3  6  5        2 -.787624575477D-02 0.100000000000D+01
0.121147779014D-04 0.000000000000D+00 0.000000000000D+00 0.119695248935D-06 0.000000000000D+00  6 1 21 25 -24 2 21 4 0.51828570D-02 0.19242521D+00 0.27830973D+05 0.27830973D+05 0.27830973D+05 0.12183341D+01  1  2 15  3  6  5        2 0.677857743202D-02 0.100000000000D+01
0.988345676095D-04 0.000000000000D+00 0.000000000000D+00 0.119703014534D-06 0.714541653874D-06  6 1 21 25 -24 2 21 4 0.51828570D-02 0.19242521D+00 0.27807063D+05 0.27807063D+05 0.27807063D+05 0.12183736D+01  1  2 11  3  6  5        2 0.553101449941D-01 0.100000000000D+01
  </mgrwgt>
  </event>
  <event>
  5     66 0.42980143E-03 0.68116805E+02 0.75467711E-02 0.12179103E+00
        1 -1    0    0  502    0 0.00000000E+00 0.00000000E+00 0.16242853E+04 0.16242853E+04 0.32000000E+00 0.0000E+00 0.9000E+01
       21 -1    0    0  501  502 0.00000000E+00 0.00000000E+00 -.14592672E+02 0.14611933E+02 0.75000000E+00 0.0000E+00 0.9000E+01
       25  1    1    2    0    0 -.50599482E+02 -.20102726E+02 0.51516423E+03 0.53290113E+03 0.12500000E+03 0.0000E+00 0.9000E+01
      -24  1    1    2    0    0 0.41893515E+01 -.29756266E+02 0.74175633E+03 0.74670787E+03 0.80419002E+02 0.0000E+00 0.9000E+01
        2  1    1    2  501    0 0.46410131E+02 0.49858992E+02 0.35277205E+03 0.35928824E+03 0.32000000E+00 0.0000E+00 0.9000E+01
#aMCatNLO 1  0  0  5  2 0.22419353D+02 0.00000000D+00  -5  6  0 0.00000000D+00 0.00000000D+00 0.00000000D+00 0.00000000D+00 0.00000000D+00
  <mgrwgt>
 0.9692883000D-01    7    2    0
 0.154008025649871D+03 0.000000000000000D+00 0.000000000000000D+00 0.154008025649871D+03
 0.154008025649871D+03 -.000000000000000D+00 -.000000000000000D+00 -.154008025649871D+03
 0.143220369193261D+03 -.505997205188879D+02 -.201029820256706D+02 -.438476059658900D+02
 0.966761867236387D+02 0.418919075012956D+01 -.297564384301175D+02 0.444530558889596D+02
 0.681194953828434D+02 0.464105297687584D+02 0.498594204557882D+02 -.605449923069557D+00
 0.000000000000000D+00 0.000000000000000D+00 0.000000000000000D+00 0.000000000000000D+00
 0.154008025649871D+03 0.000000000000000D+00 0.000000000000000D+00 0.154008025649871D+03
 0.154008025649871D+03 -.000000000000000D+00 -.000000000000000D+00 -.154008025649871D+03
 0.140689437253430D+03 -.451343785747341D+02 -.142314958934081D+02 -.439189042440205D+02
 0.957379815336160D+02 0.789321646726624D+01 -.257771566479456D+02 0.444047349131668D+02
 0.291425653240502D+02 0.140133250364944D+02 0.121205127199172D+02 -.224946439512702D+02
 0.424460671886463D+02 0.232278370709734D+02 0.278881398214365D+02 0.220088132821240D+02
0.613935113611D-05 0.000000000000D+00 0.000000000000D+00 0.271674102184D-06 0.000000000000D+00  6 1 21 25 -24 2 21 2 0.24989153D+00 0.22465105D-02 0.21069961D+05 0.21069961D+05 0.21069961D+05 0.12313420D+01  1  2  2  3  6  5        2 0.642651229417D-01 0.100000000000D+01
-.428271576939D-06 0.323982460368D-06 -.123935811183D-07 0.271674102184D-06 0.000000000000D+00  6 1 21 25 -24 2 21 4 0.24989153D+00 0.22465105D-02 0.21069961D+05 0.21069961D+05 0.21069961D+05 0.12313420D+01  1  2  3  3  6  5        2 -.679719180174D-02 0.100000000000D+01
0.737408009600D-06 0.000000000000D+00 0.000000000000D+00 0.271674102184D-06 0.000000000000D+00  6 1 21 25 -24 2 21 4 0.24989153D+00 0.22465105D-02 0.21069961D+05 0.21069961D+05 0.21069961D+05 0.12313420D+01  1  2 15  3  6  5        2 0.117035636902D-01 0.100000000000D+01
0.163630904412D-05 0.000000000000D+00 0.000000000000D+00 0.274230649815D-06 0.000000000000D+00  6 1 21 25 -24 2 21 4 0.24989153D+00 0.22465105D-02 0.18672979D+05 0.18672979D+05 0.18672979D+05 0.12371221D+01  1  2 12  3  6  5        2 0.264798847484D-01 0.100000000000D+01
-.103471550994D-05 0.000000000000D+00 0.000000000000D+00 0.271674102184D-06 0.000000000000D+00  6 1 21 25 -24 2 21 4 0.24989153D+00 0.22465105D-02 0.21069961D+05 0.21069961D+05 0.21069961D+05 0.12313420D+01  1  2  4  3  6  5        2 -.164221960083D-01 0.100000000000D+01
-.126008572502D-05 0.000000000000D+00 0.000000000000D+00 0.271674102184D-06 0.000000000000D+00  6 1 21 25 -24 2 21 4 0.24989153D+00 0.22465105D-02 0.21069961D+05 0.21069961D+05 0.21069961D+05 0.12313420D+01  1  2  5  3  6  5        2 -.199990959494D-01 0.100000000000D+01
0.237528972537D-05 0.000000000000D+00 -.000000000000D+00 0.271674102184D-06 0.000000000000D+00  6 1 21 25 -24 2 21 4 0.24989153D+00 0.22465105D-02 0.21069961D+05 0.21069961D+05 0.21069961D+05 0.12313420D+01  1  2  6  3  6  5        2 0.376987423808D-01 0.100000000000D+01
  </mgrwgt>
  </event>
  <event>
  5     66 0.42980143E-03 0.31446955E+02 0.75467711E-02 0.10272281E+00
        3 -1    0    0  502    0 0.00000000E+00 0.00000000E+00 0.68273663E+03 0.68273681E+03 0.50000000E+00 0.0000E+00 0.9000E+01
       21 -1    0    0  501  502 0.00000000E+00 0.00000000E+00 -.42240460E+02 0.42247118E+02 0.75000000E+00 0.0000E+00 0.9000E+01
       25  1    1    2    0    0 -.43354640E+02 0.98575005E+01 0.23226174E+03 0.26748329E+03 0.12500000E+03 0.0000E+00 0.9000E+01
      -24  1    1    2    0    0 0.15921745E+02 -.25222956E+02 0.41626613E+03 0.42501107E+03 0.80419002E+02 0.0000E+00 0.9000E+01
        4  1    1    2  501    0 0.27432895E+02 0.15365456E+02 -.80317103E+01 0.32489565E+02 0.15500000E+01 0.0000E+00 0.9000E+01
#aMCatNLO 1  0  0  2  2 0.99656758D+02 0.00000000D+00  -5  6  0 0.00000000D+00 0.00000000D+00 0.00000000D+00 0.00000000D+00 0.00000000D+00
  <mgrwgt>
 0.3217576195D-01   12    2    0
 0.169828116744471D+03 0.000000000000000D+00 0.000000000000000D+00 0.169828116744471D+03
 0.169828116744471D+03 0.000000000000000D+00 0.000000000000000D+00 -.169828116744471D+03
 0.132953230680079D+03 -.433564468569284D+02 0.985648817984825D+01 -.863884859070127D+01
 0.122213192748101D+03 0.159200835039041D+02 -.252238867480879D+02 0.870583425402887D+02
 0.844898100607623D+02 0.274363633530243D+02 0.153673985682397D+02 -.784194939495874D+02
 0.000000000000000D+00 -.000000000000000D+00 0.000000000000000D+00 -.000000000000000D+00
 0.442967307765707D+03 0.000000000000000D+00 0.000000000000000D+00 0.442967307765707D+03
 0.503630316960489D+03 0.000000000000000D+00 0.000000000000000D+00 -.503630316960489D+03
 0.155838350931494D+03 0.923619408233747D+02 0.743194479350791D+01 -.863884859070127D+01
 0.211276699360934D+03 0.172644563532524D+03 -.280236938193752D+02 0.870583425402887D+02
 0.165177337242398D+03 0.144768116929902D+03 0.132713235116111D+02 -.784194939495874D+02
 0.414305237191370D+03 -.409774621285800D+03 0.732042551425621D+01 -.606630091947821D+02
0.915335301170D-05 0.000000000000D+00 0.000000000000D+00 0.185394615826D-05 0.000000000000D+00  6 3 21 25 -24 4 21 2 0.10503693D+00 0.64990586D-02 0.15611460D+05 0.15611460D+05 0.15611460D+05 0.12458492D+01  1  2  2  2  6  2       21 0.958175716560D-02 0.100000000000D+01
0.782245366043D-06 0.483035709084D-06 -.184779825327D-07 0.185394615826D-05 0.000000000000D+00  6 3 21 25 -24 4 21 4 0.10503693D+00 0.64990586D-02 0.15611460D+05 0.15611460D+05 0.15611460D+05 0.12458492D+01  1  2  3  2  6  2       21 0.127098054148D-02 0.100000000000D+01
0.943532105828D-06 0.000000000000D+00 0.000000000000D+00 0.185394615826D-05 0.000000000000D+00  6 3 21 25 -24 4 21 4 0.10503693D+00 0.64990586D-02 0.15611460D+05 0.15611460D+05 0.15611460D+05 0.12458492D+01  1  2 15  2  6  2       21 0.153303681790D-02 0.100000000000D+01
0.396968788954D-03 0.000000000000D+00 -.156712983657D-03 0.185394615826D-05 0.000000000000D+00  6 3 21 25 -24 4 21 4 0.10503693D+00 0.51270935D-01 0.15611460D+05 0.15611460D+05 0.15611460D+05 0.12458492D+01  1  2  5  2  6  2       21 0.141486812234D-01 0.100000000000D+01
0.173275815791D-03 0.000000000000D+00 -.677739417211D-04 0.185394615826D-05 0.000000000000D+00  6 3 -3 25 -24 4 -3 4 0.10503693D+00 0.51270935D-01 0.15611460D+05 0.15611460D+05 0.15611460D+05 0.12458492D+01  1  2  5  5  6  2       21 0.307268987399D-03 0.100000000000D+01
0.173275815791D-03 0.000000000000D+00 -.677739417211D-04 0.185394615826D-05 0.000000000000D+00  6 3 3 25 -24 4 3 4 0.10503693D+00 0.51270935D-01 0.15611460D+05 0.15611460D+05 0.15611460D+05 0.12458492D+01  1  2  5  6  6  2       21 0.307404089286D-03 0.100000000000D+01
0.173275815791D-03 0.000000000000D+00 -.677739417211D-04 0.185394615826D-05 0.000000000000D+00  6 3 -4 25 -24 4 -4 4 0.10503693D+00 0.51270935D-01 0.15611460D+05 0.15611460D+05 0.15611460D+05 0.12458492D+01  1  2  5  7  6  2       21 0.251416369119D-03 0.100000000000D+01
0.173275815791D-03 0.000000000000D+00 -.677739417211D-04 0.185394615826D-05 0.000000000000D+00  6 3 4 25 -24 4 4 4 0.10503693D+00 0.51270935D-01 0.15611460D+05 0.15611460D+05 0.15611460D+05 0.12458492D+01  1  2  5  8  6  2       21 0.251416369119D-03 0.100000000000D+01
0.173275815791D-03 0.000000000000D+00 -.677739417211D-04 0.185394615826D-05 0.000000000000D+00  6 3 -1 25 -24 4 -1 4 0.10503693D+00 0.51270935D-01 0.15611460D+05 0.15611460D+05 0.15611460D+05 0.12458492D+01  1  2  5  9  6  2       21 0.607060924321D-03 0.100000000000D+01
0.173275815791D-03 0.000000000000D+00 -.677739417211D-04 0.185394615826D-05 0.000000000000D+00  6 3 -2 25 -24 4 -2 4 0.10503693D+00 0.51270935D-01 0.15611460D+05 0.15611460D+05 0.15611460D+05 0.12458492D+01  1  2  5  9  6  2       21 0.494488502510D-03 0.100000000000D+01
0.173275815791D-03 0.000000000000D+00 -.677739417211D-04 0.185394615826D-05 0.000000000000D+00  6 3 1 25 -24 4 1 4 0.10503693D+00 0.51270935D-01 0.15611460D+05 0.15611460D+05 0.15611460D+05 0.12458492D+01  1  2  5 10  6  2       21 0.140314558988D-02 0.100000000000D+01
0.173275815791D-03 0.000000000000D+00 -.677739417211D-04 0.185394615826D-05 0.000000000000D+00  6 3 2 25 -24 4 2 4 0.10503693D+00 0.51270935D-01 0.15611460D+05 0.15611460D+05 0.15611460D+05 0.12458492D+01  1  2  5 10  6  2       21 0.201910536559D-02 0.100000000000D+01
  </mgrwgt>
  </event>
  <event>
  5     66 -.42980143E-03 0.40113323E+02 0.75467711E-02 0.11874714E+00
        1 -1    0    0  502    0 0.00000000E+00 0.00000000E+00 0.23274440E+03 0.23274462E+03 0.32000000E+00 0.0000E+00 0.9000E+01
       21 -1    0    0  501  502 0.00000000E+00 0.00000000E+00 -.11632642E+03 0.11632883E+03 0.75000000E+00 0.0000E+00 0.9000E+01
       25  1    1    2    0    0 0.10260770E+03 0.31764994E+02 0.80325989E+02 0.18334290E+03 0.12500000E+03 0.0000E+00 0.9000E+01
      -24  1    1    2    0    0 -.68150110E+02 -.52299580E+02 0.10481822E+02 0.11813877E+03 0.80419002E+02 0.0000E+00 0.9000E+01
        2  1    1    2  501    0 -.34457591E+02 0.20534586E+02 0.25610169E+02 0.47591784E+02 0.32000000E+00 0.0000E+00 0.9000E+01
#aMCatNLO 1  0  0  5  2 0.14833287D+01 0.00000000D+00  -5  6  0 0.00000000D+00 0.00000000D+00 0.00000000D+00 0.00000000D+00 0.00000000D+00
  <mgrwgt>
 -.2141640036D-01    8    2    0
 0.164544164647539D+03 0.000000000000000D+00 0.000000000000000D+00 0.164544164647539D+03
 0.164544164647539D+03 -.000000000000000D+00 -.000000000000000D+00 -.164544164647539D+03
 0.166061281685564D+03 0.102608218927121D+03 0.317646848811673D+02 0.203447162196094D+02
 0.121605058961286D+03 -.681497295472701D+02 -.522998064438006D+02 -.306744033223488D+02
 0.414219886482284D+02 -.344584893798514D+02 0.205351215626333D+02 0.103296871027394D+02
 0.000000000000000D+00 -.000000000000000D+00 0.000000000000000D+00 0.000000000000000D+00
 0.164544164647539D+03 0.000000000000000D+00 0.000000000000000D+00 0.164544164647539D+03
 0.164544164647539D+03 -.000000000000000D+00 -.000000000000000D+00 -.164544164647539D+03
 0.165935973679623D+03 0.102339422206926D+03 0.319248710478913D+02 0.204252939252440D+02
 0.121650283996622D+03 -.683466776765107D+02 -.521824375791674D+02 -.306153638059005D+02
 0.393985048956839D+02 -.320601764266691D+02 0.200832232394323D+02 0.110023370163434D+02
 0.210356672314990D+01 -.193256810374581D+01 0.174343291843704D+00 -.812267135686919D+00
0.192281453929D-05 0.000000000000D+00 0.000000000000D+00 0.250892612979D-06 0.000000000000D+00  6 1 21 25 -24 2 21 2 0.35807033D-01 0.17896575D-01 0.26017105D+05 0.26017105D+05 0.26017105D+05 0.12214452D+01  1  2  2  3  6  5        2 0.107119672076D-01 0.100000000000D+01
-.436592013042D-07 0.101469710961D-06 -.388160856739D-08 0.250892612979D-06 0.000000000000D+00  6 1 21 25 -24 2 21 4 0.35807033D-01 0.17896575D-01 0.26017105D+05 0.26017105D+05 0.26017105D+05 0.12214452D+01  1  2  3  3  6  5        2 -.362873776081D-03 0.100000000000D+01
0.190041534615D-06 0.000000000000D+00 0.000000000000D+00 0.250892612979D-06 0.000000000000D+00  6 1 21 25 -24 2 21 4 0.35807033D-01 0.17896575D-01 0.26017105D+05 0.26017105D+05 0.26017105D+05 0.12214452D+01  1  2 15  3  6  5        2 0.157953162720D-02 0.100000000000D+01
0.939202729924D-10 0.000000000000D+00 0.000000000000D+00 0.250941751611D-06 0.000000000000D+00  6 1 21 25 -24 2 21 4 0.35807033D-01 0.17896575D-01 0.25950056D+05 0.25950056D+05 0.25950056D+05 0.12215648D+01  1  2 12  3  6  5        2 0.780926613685D-06 0.100000000000D+01
-.715695398614D-04 0.000000000000D+00 0.000000000000D+00 0.250892612979D-06 0.000000000000D+00  6 1 21 25 -24 2 21 4 0.35807033D-01 0.17896575D-01 0.26017105D+05 0.26017105D+05 0.26017105D+05 0.12214452D+01  1  2  4  3  6  5        2 -.594850762408D+00 0.100000000000D+01
-.218962776166D-04 0.000000000000D+00 0.000000000000D+00 0.250892612979D-06 0.000000000000D+00  6 1 21 25 -24 2 21 4 0.35807033D-01 0.17896575D-01 0.26017105D+05 0.26017105D+05 0.26017105D+05 0.12214452D+01  1  2  5  3  6  5        2 -.181991074126D+00 0.100000000000D+01
0.238392453730D-04 0.000000000000D+00 -.000000000000D+00 0.250892612979D-06 0.000000000000D+00  6 1 21 25 -24 2 21 4 0.35807033D-01 0.17896575D-01 0.26017105D+05 0.26017105D+05 0.26017105D+05 0.12214452D+01  1  2  6  3  6  5        2 0.198140065073D+00 0.100000000000D+01
0.655887252715D-04 0.000000000000D+00 0.000000000000D+00 0.250892612979D-06 0.224063140251D-05  6 1 21 25 -24 2 21 4 0.35807033D-01 0.17896575D-01 0.25950056D+05 0.25950056D+05 0.25950056D+05 0.12215648D+01  1  2 11  3  6  5        2 0.545355965120D+00 0.100000000000D+01
  </mgrwgt>
  </event>
  <event>
  5     66 0.42980143E-03 0.33827398E+02 0.75467711E-02 0.12278913E+00
        1 -1    0    0  502    0 0.00000000E+00 0.00000000E+00 0.24023555E+04 0.24023555E+04 0.32000000E+00 0.0000E+00 0.9000E+01
       21 -1    0    0  501  502 0.00000000E+00 0.00000000E+00 -.73478037E+01 0.73859812E+01 0.75000000E+00 0.0000E+00 0.9000E+01
       25  1    1    2    0    0 0.55786690E+02 0.29218435E+02 0.13042438E+04 0.13117327E+04 0.12500000E+03 0.0000E+00 0.9000E+01
      -24  1    1    2    0    0 -.24343513E+02 -.16746305E+02 0.91622150E+03 0.92021851E+03 0.80419002E+02 0.0000E+00 0.9000E+01
        2  1    1    2  501    0 -.31443177E+02 -.12472130E+02 0.17454238E+03 0.17779025E+03 0.32000000E+00 0.0000E+00 0.9000E+01
#aMCatNLO 1  0  0  5  2 0.64469647D+00 0.00000000D+00  -5  6  0 0.00000000D+00 0.00000000D+00 0.00000000D+00 0.00000000D+00 0.00000000D+00
  <mgrwgt>
 0.2780378863D+00    5    2    0
 0.133034057923348D+03 0.000000000000000D+00 0.000000000000000D+00 0.133034057923348D+03
 0.133034057923348D+03 -.000000000000000D+00 -.000000000000000D+00 -.133034057923348D+03
 0.140050379789009D+03 0.557872444753660D+02 0.292186549438939D+02 0.481273686805767D+01
 0.869369766133788D+02 -.243431683687307D+02 -.167461684873654D+02 0.147579789628879D+02
 0.390807594443069D+02 -.314440761066353D+02 -.124724864565285D+02 -.195707158309455D+02
 0.000000000000000D+00 0.000000000000000D+00 0.000000000000000D+00 0.000000000000000D+00
 0.133034057923348D+03 0.000000000000000D+00 0.000000000000000D+00 0.133034057923348D+03
 0.133034057923348D+03 -.000000000000000D+00 -.000000000000000D+00 -.133034057923348D+03
 0.139595264359390D+03 0.548738196077556D+02 0.288563393442340D+02 0.424422347124807D+01
 0.870822601407828D+02 -.249115787896329D+02 -.169716319817421D+02 0.144042017113287D+02
 0.382206993217028D+02 -.304461140744265D+02 -.127507660967535D+02 -.192684705763821D+02
 0.116989202481948D+01 0.483873256303758D+00 0.866058734261691D+00 0.620045393805377D+00
0.200493002982D-04 0.000000000000D+00 0.000000000000D+00 0.848536654761D-06 0.000000000000D+00  6 1 21 25 -24 2 21 2 0.36959609D+00 0.11333697D-02 0.16831204D+05 0.16831204D+05 0.16831204D+05 0.12421598D+01  1  2  2  3  6  5        2 0.204015841324D+00 0.100000000000D+01
0.299225691309D-06 0.105803064449D-05 -.404737608426D-07 0.848536654761D-06 0.000000000000D+00  6 1 21 25 -24 2 21 4 0.36959609D+00 0.11333697D-02 0.16831204D+05 0.16831204D+05 0.16831204D+05 0.12421598D+01  1  2  3  3  6  5        2 0.469805899395D-02 0.100000000000D+01
0.191110108381D-05 0.000000000000D+00 0.000000000000D+00 0.848536654761D-06 0.000000000000D+00  6 1 21 25 -24 2 21 4 0.36959609D+00 0.11333697D-02 0.16831204D+05 0.16831204D+05 0.16831204D+05 0.12421598D+01  1  2 15  3  6  5        2 0.300056642725D-01 0.100000000000D+01
-.167283004073D-03 0.000000000000D+00 0.000000000000D+00 0.848536654761D-06 0.000000000000D+00  6 1 21 25 -24 2 21 4 0.36959609D+00 0.11333697D-02 0.16831204D+05 0.16831204D+05 0.16831204D+05 0.12421598D+01  1  2  4  3  6  5        2 -.262646371835D+01 0.100000000000D+01
0.169774696643D-03 0.000000000000D+00 0.000000000000D+00 0.848536654761D-06 0.815629019109D-05  6 1 21 25 -24 2 21 4 0.36959609D+00 0.11333697D-02 0.16823880D+05 0.16823880D+05 0.16823880D+05 0.12421810D+01  1  2 11  3  6  5        2 0.266578204004D+01 0.100000000000D+01
  </mgrwgt>
  </event>
  <event>
  6     66 0.42980143E-03 0.45110380E+02 0.75467711E-02 0.11728025E+00
        1 -1    0    0  502    0 0.00000000E+00 0.00000000E+00 0.62476800E+03 0.62476808E+03 0.32000000E+00 0.0000E+00 0.9000E+01
       -1 -1    0    0    0  502 0.00000000E+00 0.00000000E+00 -.68033348E+02 0.68034100E+02 0.32000000E+00 0.0000E+00 0.9000E+01
       25  1    1    2    0    0 -.77754616E+02 -.69524098E+01 0.26411133E+03 0.30244655E+03 0.12500000E+03 0.0000E+00 0.9000E+01
      -24  1    1    2    0    0 0.10197402E+03 0.45987644E+02 0.24301473E+03 0.27935092E+03 0.80419002E+02 0.0000E+00 0.9000E+01
        2  1    1    2  501    0 -.36950151E+02 -.36080497E+02 0.69874062E+02 0.86888451E+02 0.32000000E+00 0.0000E+00 0.9000E+01
       -1  1    1    2    0  501 0.12730747E+02 -.29547363E+01 -.20265472E+02 0.24116263E+02 0.32000000E+00 0.0000E+00 0.9000E+01
#aMCatNLO 2  0  0  2  1 0.13069139D+02 0.00000000D+00  -5  6  0 0.00000000D+00 0.00000000D+00 0.00000000D+00 0.00000000D+00 0.00000000D+00
  <mgrwgt>
 0.1275987710D-03    3    2    0
 0.168849721748048D+03 0.000000000000000D+00 0.000000000000000D+00 0.168849721748048D+03
 0.168849721748048D+03 0.000000000000000D+00 0.000000000000000D+00 -.168849721748048D+03
 0.144744358352225D+03 -.722477208054084D+02 -.823016158491594D+01 0.620165731939881D+01
 0.141371063109323D+03 0.107234970647419D+03 0.447669657232063D+02 0.389119268016681D+01
 0.515840220345486D+02 -.349872498420106D+02 -.365368041382904D+02 -.100928499995656D+02
 0.000000000000000D+00 0.000000000000000D+00 -.000000000000000D+00 -.000000000000000D+00
 0.169498166063968D+03 0.000000000000000D+00 0.000000000000000D+00 0.169498166063968D+03
 0.250770810393073D+03 0.000000000000000D+00 0.000000000000000D+00 -.250770810393073D+03
 0.147504328435507D+03 -.777543215676661D+02 -.695210984194790D+01 0.620165731939881D+01
 0.137825991872274D+03 0.101974291009538D+03 0.459879405261143D+02 0.389119268016681D+01
 0.526219196937054D+02 -.369507163829890D+02 -.360810943559222D+02 -.100928499995656D+02
 0.823167364555557D+02 0.127307469411175D+02 -.295473632824423D+01 -.812726443291050D+02
-.206331137808D-05 0.000000000000D+00 0.000000000000D+00 0.274162397865D-06 0.000000000000D+00  6 1 -1 25 -24 2 -1 4 0.95750327D-01 0.10475040D-01 0.30600337D+05 0.30600337D+05 0.30600337D+05 0.12139963D+01  1  2 13  5  6  2       21 -.841638977611D-03 0.100000000000D+01
-.207680919043D-05 0.000000000000D+00 0.000000000000D+00 0.274162397865D-06 0.000000000000D+00  6 1 -1 25 -24 2 -1 4 0.95750327D-01 0.10588960D-01 0.30600337D+05 0.30600337D+05 0.30600337D+05 0.12139963D+01  1  2 13  5  6  2       21 -.833146031934D-03 0.100000000000D+01
0.443676948787D-05 0.000000000000D+00 0.000000000000D+00 0.275769376320D-06 0.610272100961D-08  6 1 -1 25 -24 2 -1 4 0.96118043D-01 0.10466714D-01 0.30600337D+05 0.30600337D+05 0.30600337D+05 0.12139963D+01  1  2  1  5  6  2       21 0.180238378055D-02 0.100000000000D+01
  </mgrwgt>
  </event>
  <event>
  6     66 0.42980143E-03 0.23876179E+02 0.75467711E-02 0.12298382E+00
        1 -1    0    0  502    0 0.00000000E+00 0.00000000E+00 0.24502684E+03 0.24502705E+03 0.32000000E+00 0.0000E+00 0.9000E+01
       21 -1    0    0  501  502 0.00000000E+00 0.00000000E+00 -.87379766E+02 0.87382984E+02 0.75000000E+00 0.0000E+00 0.9000E+01
       25  1    1    2    0    0 -.10957068E+02 0.49931829E+02 0.12554230E+03 0.18438848E+03 0.12500000E+03 0.0000E+00 0.9000E+01
      -24  1    1    2    0    0 0.64125100E+00 -.28515076E+02 0.54905068E+02 0.10146577E+03 0.80419002E+02 0.0000E+00 0.9000E+01
        2  1    1    2  503    0 -.90693116E+01 -.88949852E+00 0.15683790E+01 0.92523420E+01 0.32000000E+00 0.0000E+00 0.9000E+01
       21  1    1    2  501  503 0.19385128E+02 -.20527255E+02 -.24368671E+02 0.37303431E+02 0.75000000E+00 0.0000E+00 0.9000E+01
#aMCatNLO 2  0  0  5  2 0.87211869D+01 0.00000000D+00  -5  6  0 0.00000000D+00 0.00000000D+00 0.00000000D+00 0.00000000D+00 0.00000000D+00
  <mgrwgt>
 0.7739210543D-01    1    2    0
 0.146324834950360D+03 0.000000000000000D+00 0.000000000000000D+00 0.146324834950360D+03
 0.146324834950360D+03 -.000000000000000D+00 -.000000000000000D+00 -.146324834950360D+03
 0.143743858484773D+03 -.117671896995270D+02 0.516137301879247D+02 0.472742314031016D+02
 0.855920250585919D+02 0.155367643358666D+00 -.275063295451781D+02 0.101072496312078D+02
 0.633137863573552D+02 0.116118220561683D+02 -.241074006427466D+02 -.573814810343093D+02
 0.000000000000000D+00 0.000000000000000D+00 0.000000000000000D+00 0.000000000000000D+00
 0.146324834950360D+03 0.000000000000000D+00 0.000000000000000D+00 0.146324834950360D+03
 0.146324834950360D+03 -.000000000000000D+00 -.000000000000000D+00 -.146324834950360D+03
 0.141971602465390D+03 -.110258449321227D+02 0.500746181316282D+02 0.436107701043560D+02
 0.856642637966717D+02 0.599725653267233D+00 -.284288649166178D+02 0.791139091113143D+01
 0.882341656668846D+01 -.831929258203431D+01 -.774123279380553D+00 -.283598025242458D+01
 0.561903870719707D+02 0.187454118608898D+02 -.208716299356298D+02 -.486861807630628D+02
0.552282995841D-05 0.000000000000D+00 0.000000000000D+00 0.247869752124D-05 0.620083088783D-07  6 1 21 25 -24 2 21 4 0.37696700D-01 0.13443305D-01 0.16488446D+05 0.16488446D+05 0.16488446D+05 0.12431654D+01  1  2  1  3  6  5        2 0.773921054297D-01 0.100000000000D+01
  </mgrwgt>
  </event>
  <event>
  5     66 0.42980143E-03 0.24423436E+02 0.75467711E-02 0.12494951E+00
        1 -1    0    0  502    0 0.00000000E+00 0.00000000E+00 0.16667950E+04 0.16667950E+04 0.32000000E+00 0.0000E+00 0.9000E+01
       21 -1    0    0  501  502 0.00000000E+00 0.00000000E+00 -.11152220E+02 0.11177410E+02 0.75000000E+00 0.0000E+00 0.9000E+01
       25  1    1    2    0    0 -.55863041E+01 -.13684698E+02 0.13073401E+04 0.13133856E+04 0.12500000E+03 0.0000E+00 0.9000E+01
      -24  1    1    2    0    0 -.16497193E+02 0.32549914E+01 0.28900132E+03 0.30045254E+03 0.80419002E+02 0.0000E+00 0.9000E+01
        2  1    1    2  501    0 0.22083497E+02 0.10429707E+02 0.59301309E+02 0.64134291E+02 0.32000000E+00 0.0000E+00 0.9000E+01
#aMCatNLO 1  0  0  5  2 0.13426332D+01 0.00000000D+00  -5  6  0 0.00000000D+00 0.00000000D+00 0.00000000D+00 0.00000000D+00 0.00000000D+00
  <mgrwgt>
 0.9168150188D+00    8    2    0
 0.136417094120645D+03 0.000000000000000D+00 0.000000000000000D+00 0.136417094120645D+03
 0.136417094120645D+03 -.000000000000000D+00 -.000000000000000D+00 -.136417094120645D+03
 0.144177868395483D+03 -.558680391952386D+01 -.136849343704411D+02 0.703119330434516D+02
 0.940795054288094D+02 -.164975187920353D+02 0.325483736313923D+01 -.458363970530495D+02
 0.345768144169975D+02 0.220843227115591D+02 0.104300970073019D+02 -.244755359904021D+02
 0.000000000000000D+00 0.000000000000000D+00 0.000000000000000D+00 0.000000000000000D+00
 0.136417094120645D+03 0.000000000000000D+00 0.000000000000000D+00 0.136417094120645D+03
 0.136417094120645D+03 -.000000000000000D+00 -.000000000000000D+00 -.136417094120645D+03
 0.144086611950897D+03 -.544032673588164D+01 -.136157553761518D+02 0.701495958223001D+02
 0.941160467190203D+02 -.164018901026474D+02 0.330000137020542D+01 -.459423800827035D+02
 0.242414208389130D+01 0.265965052811838D+00 0.771024476775625D+00 -.228281595617970D+01
 0.322073874874815D+02 0.215762517857172D+02 0.954472952917080D+01 -.219243997834169D+02
0.101362985266D-04 0.000000000000D+00 0.000000000000D+00 0.119516201977D-05 0.000000000000D+00  6 1 21 25 -24 2 21 2 0.25643193D+00 0.17176662D-02 0.13508554D+05 0.13508554D+05 0.13508554D+05 0.12530412D+01  1  2  2  3  6  5        2 0.159339673096D+00 0.100000000000D+01
0.444802531959D-06 0.534907168994D-06 -.204622663282D-07 0.119516201977D-05 0.000000000000D+00  6 1 21 25 -24 2 21 4 0.25643193D+00 0.17176662D-02 0.13508554D+05 0.13508554D+05 0.13508554D+05 0.12530412D+01  1  2  3  3  6  5        2 0.109784859072D-01 0.100000000000D+01
0.946347867128D-06 0.000000000000D+00 0.000000000000D+00 0.119516201977D-05 0.000000000000D+00  6 1 21 25 -24 2 21 4 0.25643193D+00 0.17176662D-02 0.13508554D+05 0.13508554D+05 0.13508554D+05 0.12530412D+01  1  2 15  3  6  5        2 0.233574810755D-01 0.100000000000D+01
0.508345041025D-09 0.000000000000D+00 0.000000000000D+00 0.119519984876D-05 0.000000000000D+00  6 1 21 25 -24 2 21 4 0.25643193D+00 0.17176662D-02 0.13503214D+05 0.13503214D+05 0.13503214D+05 0.12530610D+01  1  2 12  3  6  5        2 0.125476176232D-04 0.100000000000D+01
-.119460357040D-04 0.000000000000D+00 0.000000000000D+00 0.119516201977D-05 0.000000000000D+00  6 1 21 25 -24 2 21 4 0.25643193D+00 0.17176662D-02 0.13508554D+05 0.13508554D+05 0.13508554D+05 0.12530412D+01  1  2  4  3  6  5        2 -.294848556832D+00 0.100000000000D+01
-.553147295785D-05 0.000000000000D+00 0.000000000000D+00 0.119516201977D-05 0.000000000000D+00  6 1 21 25 -24 2 21 4 0.25643193D+00 0.17176662D-02 0.13508554D+05 0.13508554D+05 0.13508554D+05 0.12530412D+01  1  2  5  3  6  5        2 -.136526196572D+00 0.100000000000D+01
0.179794868132D-04 0.000000000000D+00 -.000000000000D+00 0.119516201977D-05 0.000000000000D+00  6 1 21 25 -24 2 21 4 0.25643193D+00 0.17176662D-02 0.13508554D+05 0.13508554D+05 0.13508554D+05 0.12530412D+01  1  2  6  3  6  5        2 0.443764431214D+00 0.100000000000D+01
0.287942873456D-04 0.000000000000D+00 0.000000000000D+00 0.119516201977D-05 0.154787967139D-05  6 1 21 25 -24 2 21 4 0.25643193D+00 0.17176662D-02 0.13503214D+05 0.13503214D+05 0.13503214D+05 0.12530610D+01  1  2 11  3  6  5        2 0.710737153286D+00 0.100000000000D+01
  </mgrwgt>
  </event>
  <event>
  5     66 0.42980143E-03 0.10607233E+03 0.75467711E-02 0.11459051E+00
        1 -1    0    0  502    0 0.00000000E+00 0.00000000E+00 0.14722834E+03 0.14722869E+03 0.32000000E+00 0.0000E+00 0.9000E+01
       21 -1    0    0  501  502 0.00000000E+00 0.00000000E+00 -.56597105E+03 0.56597154E+03 0.75000000E+00 0.0000E+00 0.9000E+01
       25  1    1    2    0    0 -.32986534E+02 0.25081911E+02 0.99261642E+01 0.13206340E+03 0.12500000E+03 0.0000E+00 0.9000E+01
      -24  1    1    2    0    0 0.13529895E+03 0.23346719E+02 -.23978006E+02 0.16091313E+03 0.80419002E+02 0.0000E+00 0.9000E+01
        2  1    1    2  501    0 -.10231242E+03 -.48428630E+02 -.40469086E+03 0.42022370E+03 0.32000000E+00 0.0000E+00 0.9000E+01
#aMCatNLO 1  0  0  2  1 0.62755084D+01 0.00000000D+00  -5  6  0 0.00000000D+00 0.00000000D+00 0.00000000D+00 0.00000000D+00 0.00000000D+00
  <mgrwgt>
 0.8812111720D-01   32    2    0
 0.288664652395658D+03 0.000000000000000D+00 0.000000000000000D+00 0.288664652395658D+03
 0.288664652395658D+03 0.000000000000000D+00 0.000000000000000D+00 -.288664652395658D+03
 0.170343298605085D+03 -.329865041050159D+02 0.250819254523027D+02 0.108049187605442D+03
 0.181391626677226D+03 0.135298984364725D+03 0.233467342279442D+02 0.870908784259469D+02
 0.225594379509006D+03 -.102312480259709D+03 -.484286596802469D+02 -.195140066031389D+03
 0.000000000000000D+00 -.000000000000000D+00 -.000000000000000D+00 -.000000000000000D+00
 0.291114181033463D+03 0.000000000000000D+00 0.000000000000000D+00 0.291114181033463D+03
 0.292729228591881D+03 0.000000000000000D+00 0.000000000000000D+00 -.292729228591881D+03
 0.170120011658585D+03 -.312655062552210D+02 0.257615904618837D+02 0.108049187605442D+03
 0.182863437170297D+03 0.137140246441314D+03 0.240738945826624D+02 0.870908784259469D+02
 0.224379962010834D+03 -.100037918358696D+03 -.475303784090479D+02 -.195140066031389D+03
 0.647999878562860D+01 -.583682182739699D+01 -.230510663549825D+01 -.161504755841808D+01
0.271465243942D-04 0.000000000000D+00 0.000000000000D+00 0.618936995653D-06 0.000000000000D+00  6 1 21 25 -24 2 21 2 0.22650580D-01 0.87072534D-01 0.40804358D+05 0.40804358D+05 0.40804358D+05 0.12011232D+01  1  2  2  2  6  2       21 0.103688548600D-01 0.100000000000D+01
0.954656825305D-08 0.143256144969D-05 -.548010114915D-07 0.618936995653D-06 0.000000000000D+00  6 1 21 25 -24 2 21 4 0.22650580D-01 0.87072534D-01 0.40804358D+05 0.40804358D+05 0.40804358D+05 0.12011232D+01  1  2  3  2  6  2       21 0.526064445882D-05 0.100000000000D+01
0.279517617117D-05 0.000000000000D+00 0.000000000000D+00 0.618936995653D-06 0.000000000000D+00  6 1 21 25 -24 2 21 4 0.22650580D-01 0.87072534D-01 0.40804358D+05 0.40804358D+05 0.40804358D+05 0.12011232D+01  1  2 15  2  6  2       21 0.154028417820D-02 0.100000000000D+01
0.192720442324D-04 0.000000000000D+00 0.000000000000D+00 0.617774329428D-06 0.000000000000D+00  6 1 21 25 -24 2 21 4 0.22650580D-01 0.88663829D-01 0.41866088D+05 0.41866088D+05 0.41866088D+05 0.11999945D+01  1  2 12  2  6  2       21 0.101373742920D-01 0.100000000000D+01
-.118112120524D-04 0.000000000000D+00 0.000000000000D+00 0.618936995653D-06 0.000000000000D+00  6 1 21 25 -24 2 21 4 0.22650580D-01 0.87072534D-01 0.40804358D+05 0.40804358D+05 0.40804358D+05 0.12011232D+01  1  2  4  2  6  2       21 -.650857832769D-02 0.100000000000D+01
-.283788047029D-02 0.000000000000D+00 -.369833102058D-03 0.618936995653D-06 0.000000000000D+00  6 1 21 25 -24 2 21 4 0.22650580D-01 0.88895339D-01 0.40804358D+05 0.40804358D+05 0.40804358D+05 0.12011232D+01  1  2  5  2  6  2       21 -.149083599150D+01 0.100000000000D+01
0.284320881737D-02 0.000000000000D+00 0.369515797231D-03 0.618936995653D-06 0.000000000000D+00  6 1 21 25 -24 2 21 4 0.22650580D-01 0.87072534D-01 0.40804358D+05 0.40804358D+05 0.40804358D+05 0.12011232D+01  1  2  6  2  6  2       21 0.156675260825D+01 0.100000000000D+01
0.806730286594D-05 0.000000000000D+00 0.000000000000D+00 0.618936995653D-06 0.136753145559D-06  6 1 21 25 -24 2 21 4 0.22842786D-01 0.88298569D-01 0.41866088D+05 0.41866088D+05 0.41866088D+05 0.11999945D+01  1  2 11  2  6  2       21 0.423822820348D-02 0.100000000000D+01
0.106014099868D-05 0.000000000000D+00 0.000000000000D+00 0.617774329428D-06 0.000000000000D+00  6 1 -1 25 -24 2 -1 4 0.22650580D-01 0.88663829D-01 0.41866088D+05 0.41866088D+05 0.41866088D+05 0.11999945D+01  1  2 12  5  6  2       21 0.632244507393D-04 0.100000000000D+01
-.117414533627D-04 0.000000000000D+00 -.175573921494D-05 0.618936995653D-06 0.000000000000D+00  6 1 -1 25 -24 2 -1 4 0.22650580D-01 0.88895339D-01 0.40804358D+05 0.40804358D+05 0.40804358D+05 0.12011232D+01  1  2  5  5  6  2       21 -.699100905143D-03 0.100000000000D+01
0.337318865812D-06 0.000000000000D+00 0.000000000000D+00 0.618936995653D-06 0.788067702708D-09  6 1 -1 25 -24 2 -1 4 0.22842786D-01 0.88298569D-01 0.41866088D+05 0.41866088D+05 0.41866088D+05 0.11999945D+01  1  2 11  5  6  2       21 0.200769621236D-04 0.100000000000D+01
0.106014099868D-05 0.000000000000D+00 0.000000000000D+00 0.617774329428D-06 0.000000000000D+00  6 1 1 25 -24 2 1 4 0.22650580D-01 0.88663829D-01 0.41866088D+05 0.41866088D+05 0.41866088D+05 0.11999945D+01  1  2 12  6  6  2       21 0.212365317124D-03 0.100000000000D+01
-.117414533627D-04 0.000000000000D+00 -.175573921494D-05 0.618936995653D-06 0.000000000000D+00  6 1 1 25 -24 2 1 4 0.22650580D-01 0.88895339D-01 0.40804358D+05 0.40804358D+05 0.40804358D+05 0.12011232D+01  1  2  5  6  6  2       21 -.235275347171D-02 0.100000000000D+01
0.223498289949D-06 0.000000000000D+00 0.000000000000D+00 0.618936995653D-06 0.767447879176D-09  6 1 1 25 -24 2 1 4 0.22842786D-01 0.88298569D-01 0.41866088D+05 0.41866088D+05 0.41866088D+05 0.11999945D+01  1  2 11  6  6  2       21 0.445409283110D-04 0.100000000000D+01
0.106014099868D-05 0.000000000000D+00 0.000000000000D+00 0.617774329428D-06 0.000000000000D+00  6 1 -2 25 -24 2 -2 4 0.22650580D-01 0.88663829D-01 0.41866088D+05 0.41866088D+05 0.41866088D+05 0.11999945D+01  1  2 12  7  6  2       21 0.477311326041D-04 0.100000000000D+01
-.117414533627D-04 0.000000000000D+00 -.175573921494D-05 0.618936995653D-06 0.000000000000D+00  6 1 -2 25 -24 2 -2 4 0.22650580D-01 0.88895339D-01 0.40804358D+05 0.40804358D+05 0.40804358D+05 0.12011232D+01  1  2  5  7  6  2       21 -.527545694367D-03 0.100000000000D+01
0.344017716659D-06 0.000000000000D+00 0.000000000000D+00 0.618936995653D-06 0.539951293964D-08  6 1 -2 25 -24 2 -2 4 0.22842786D-01 0.88298569D-01 0.41866088D+05 0.41866088D+05 0.41866088D+05 0.11999945D+01  1  2 11  7  6  2       21 0.154657930492D-04 0.100000000000D+01
0.106014099868D-05 0.000000000000D+00 0.000000000000D+00 0.617774329428D-06 0.000000000000D+00  6 1 2 25 -24 2 2 4 0.22650580D-01 0.88663829D-01 0.41866088D+05 0.41866088D+05 0.41866088D+05 0.11999945D+01  1  2 12  8  6  2       21 0.342157469078D-03 0.100000000000D+01
-.117414533627D-04 0.000000000000D+00 -.175573921494D-05 0.618936995653D-06 0.000000000000D+00  6 1 2 25 -24 2 2 4 0.22650580D-01 0.88895339D-01 0.40804358D+05 0.40804358D+05 0.40804358D+05 0.12011232D+01  1  2  5  8  6  2       21 -.379244580450D-02 0.100000000000D+01
0.360942953987D-06 0.000000000000D+00 0.000000000000D+00 0.618936995653D-06 0.450244421588D-09  6 1 2 25 -24 2 2 4 0.22842786D-01 0.88298569D-01 0.41866088D+05 0.41866088D+05 0.41866088D+05 0.11999945D+01  1  2 11  8  6  2       21 0.115789565921D-03 0.100000000000D+01
0.106014099868D-05 0.000000000000D+00 0.000000000000D+00 0.617774329428D-06 0.000000000000D+00  6 1 -3 25 -24 2 -3 4 0.22650580D-01 0.88663829D-01 0.41866088D+05 0.41866088D+05 0.41866088D+05 0.11999945D+01  1  2 12  9  6  2       21 0.302892148833D-04 0.100000000000D+01
0.106014099868D-05 0.000000000000D+00 0.000000000000D+00 0.617774329428D-06 0.000000000000D+00  6 1 -4 25 -24 2 -4 4 0.22650580D-01 0.88663829D-01 0.41866088D+05 0.41866088D+05 0.41866088D+05 0.11999945D+01  1  2 12  9  6  2       21 0.244953773625D-04 0.100000000000D+01
-.117414533627D-04 0.000000000000D+00 -.175573921494D-05 0.618936995653D-06 0.000000000000D+00  6 1 -3 25 -24 2 -3 4 0.22650580D-01 0.88895339D-01 0.40804358D+05 0.40804358D+05 0.40804358D+05 0.12011232D+01  1  2  5  9  6  2       21 -.334639913262D-03 0.100000000000D+01
-.117414533627D-04 0.000000000000D+00 -.175573921494D-05 0.618936995653D-06 0.000000000000D+00  6 1 -4 25 -24 2 -4 4 0.22650580D-01 0.88895339D-01 0.40804358D+05 0.40804358D+05 0.40804358D+05 0.12011232D+01  1  2  5  9  6  2       21 -.270534627291D-03 0.100000000000D+01
0.337372351474D-06 0.000000000000D+00 0.000000000000D+00 0.618936995653D-06 0.788192659618D-09  6 1 -3 25 -24 2 -3 4 0.22842786D-01 0.88298569D-01 0.41866088D+05 0.41866088D+05 0.41866088D+05 0.11999945D+01  1  2 11  9  6  2       21 0.962392075884D-05 0.100000000000D+01
0.337372351474D-06 0.000000000000D+00 0.000000000000D+00 0.618936995653D-06 0.788192659618D-09  6 1 -4 25 -24 2 -4 4 0.22842786D-01 0.88298569D-01 0.41866088D+05 0.41866088D+05 0.41866088D+05 0.11999945D+01  1  2 11  9  6  2       21 0.778434155562D-05 0.100000000000D+01
0.106014099868D-05 0.000000000000D+00 0.000000000000D+00 0.617774329428D-06 0.000000000000D+00  6 1 3 25 -24 2 3 4 0.22650580D-01 0.88663829D-01 0.41866088D+05 0.41866088D+05 0.41866088D+05 0.11999945D+01  1  2 12 10  6  2       21 0.303368129631D-04 0.100000000000D+01
0.106014099868D-05 0.000000000000D+00 0.000000000000D+00 0.617774329428D-06 0.000000000000D+00  6 1 4 25 -24 2 4 4 0.22650580D-01 0.88663829D-01 0.41866088D+05 0.41866088D+05 0.41866088D+05 0.11999945D+01  1  2 12 10  6  2       21 0.244953773625D-04 0.100000000000D+01
-.117414533627D-04 0.000000000000D+00 -.175573921494D-05 0.618936995653D-06 0.000000000000D+00  6 1 3 25 -24 2 3 4 0.22650580D-01 0.88895339D-01 0.40804358D+05 0.40804358D+05 0.40804358D+05 0.12011232D+01  1  2  5 10  6  2       21 -.335168291305D-03 0.100000000000D+01
-.117414533627D-04 0.000000000000D+00 -.175573921494D-05 0.618936995653D-06 0.000000000000D+00  6 1 4 25 -24 2 4 4 0.22650580D-01 0.88895339D-01 0.40804358D+05 0.40804358D+05 0.40804358D+05 0.12011232D+01  1  2  5 10  6  2       21 -.270534627291D-03 0.100000000000D+01
0.337372351474D-06 0.000000000000D+00 0.000000000000D+00 0.618936995653D-06 0.788192659618D-09  6 1 3 25 -24 2 3 4 0.22842786D-01 0.88298569D-01 0.41866088D+05 0.41866088D+05 0.41866088D+05 0.11999945D+01  1  2 11 10  6  2       21 0.963892573294D-05 0.100000000000D+01
0.337372351474D-06 0.000000000000D+00 0.000000000000D+00 0.618936995653D-06 0.788192659618D-09  6 1 4 25 -24 2 4 4 0.22842786D-01 0.88298569D-01 0.41866088D+05 0.41866088D+05 0.41866088D+05 0.11999945D+01  1  2 11 10  6  2       21 0.778434155562D-05 0.100000000000D+01
  </mgrwgt>
  </event>
  <event>
  6     66 -.42980143E-03 0.56480147E+02 0.75467711E-02 0.11185886E+00
        1 -1    0    0  502    0 0.00000000E+00 0.00000000E+00 0.85271032E+03 0.85271038E+03 0.32000000E+00 0.0000E+00 0.9000E+01
       21 -1    0    0  503  502 0.00000000E+00 0.00000000E+00 -.82536751E+02 0.82540159E+02 0.75000000E+00 0.0000E+00 0.9000E+01
       25  1    1    2    0    0 -.93603012E+02 0.16832372E+03 0.23078121E+03 0.32554472E+03 0.12500000E+03 0.0000E+00 0.9000E+01
      -24  1    1    2    0    0 0.37061382E+02 -.15789788E+03 0.42572718E+03 0.46261878E+03 0.80419002E+02 0.0000E+00 0.9000E+01
        2  1    1    2  501    0 0.58206306E+02 -.21308588E+02 0.11948902E+03 0.13460965E+03 0.32000000E+00 0.0000E+00 0.9000E+01
       21  1    1    2  503  501 -.16646760E+01 0.10882752E+02 -.58238461E+01 0.12477384E+02 0.75000000E+00 0.0000E+00 0.9000E+01
#aMCatNLO 2  0  0  2  5 0.11009334D+02 0.00000000D+00  -5  6  0 0.00000000D+00 0.00000000D+00 0.00000000D+00 0.00000000D+00 0.00000000D+00
  <mgrwgt>
 -.3541007285D-01    3    2    0
 0.249608244420667D+03 0.000000000000000D+00 0.000000000000000D+00 0.249608244420667D+03
 0.249608244420667D+03 0.000000000000000D+00 0.000000000000000D+00 -.249608244420667D+03
 0.246999212567586D+03 -.944201897035881D+02 0.173663651810796D+03 -.794315732255432D+02
 0.189795139231394D+03 0.364224160457340D+02 -.153722464002802D+03 0.678070099015755D+02
 0.624221370423528D+02 0.579977736578541D+02 -.199411878079935D+02 0.116245633239677D+02
 0.000000000000000D+00 -.000000000000000D+00 0.000000000000000D+00 -.000000000000000D+00
 0.250642443458795D+03 0.000000000000000D+00 0.000000000000000D+00 0.250642443458795D+03
 0.280794862145620D+03 0.000000000000000D+00 0.000000000000000D+00 -.280794862145620D+03
 0.242958607990433D+03 -.936033878856654D+02 0.168323843076047D+03 -.794315732255432D+02
 0.193313837965243D+03 0.370610916539329D+02 -.157897779870739D+03 0.678070099015755D+02
 0.630654237887797D+02 0.582069722123272D+02 -.213088148675336D+02 0.116245633239677D+02
 0.320994358599592D+02 -.166467598059465D+01 0.108827516622255D+02 -.301524186868250D+02
-.888486856215D-04 0.000000000000D+00 0.000000000000D+00 0.776480906737D-07 0.000000000000D+00  6 1 21 25 -24 2 21 4 0.13064289D+00 0.12719635D-01 0.58475236D+05 0.58475236D+05 0.58475236D+05 0.11856053D+01  1  2 13  2  6  2       21 -.215373072592D+00 0.100000000000D+01
-.805083976178D-04 0.000000000000D+00 0.000000000000D+00 0.776480906737D-07 0.000000000000D+00  6 1 21 25 -24 2 21 4 0.13064289D+00 0.12859725D-01 0.58475236D+05 0.58475236D+05 0.58475236D+05 0.11856053D+01  1  2 13  2  6  2       21 -.191331441685D+00 0.100000000000D+01
0.153704025184D-03 0.000000000000D+00 0.000000000000D+00 0.779073808347D-07 0.103989361328D-07  6 1 21 25 -24 2 21 4 0.13118419D+00 0.12698007D-01 0.58475236D+05 0.58475236D+05 0.58475236D+05 0.11856053D+01  1  2  1  2  6  2       21 0.371294441423D+00 0.100000000000D+01
  </mgrwgt>
  </event>
  <event>
  6     66 -.42980143E-03 0.51920621E+02 0.75467711E-02 0.11623982E+00
        1 -1    0    0  502    0 0.00000000E+00 0.00000000E+00 0.63932314E+03 0.63932322E+03 0.32000000E+00 0.0000E+00 0.9000E+01
       21 -1    0    0  501  503 0.00000000E+00 0.00000000E+00 -.13473863E+03 0.13474072E+03 0.75000000E+00 0.0000E+00 0.9000E+01
       25  1    1    2    0    0 -.52243845E+02 0.61760676E+02 0.16980201E+03 0.22583517E+03 0.12500000E+03 0.0000E+00 0.9000E+01
      -24  1    1    2    0    0 -.33384119E+02 -.91943107E+02 0.38391392E+03 0.40425876E+03 0.80419002E+02 0.0000E+00 0.9000E+01
        2  1    1    2  501    0 0.66042225E+02 0.83849285E+01 0.19475188E+02 0.69363303E+02 0.32000000E+00 0.0000E+00 0.9000E+01
       21  1    1    2  502  503 0.19585739E+02 0.21797503E+02 -.68606601E+02 0.74606706E+02 0.75000000E+00 0.0000E+00 0.9000E+01
#aMCatNLO 2  0  0  2  1 0.29304134D+02 0.00000000D+00  -5  6  0 0.00000000D+00 0.00000000D+00 0.00000000D+00 0.00000000D+00 0.00000000D+00
  <mgrwgt>
 -.3778384089D-01    3    2    0
 0.199895993252882D+03 0.000000000000000D+00 0.000000000000000D+00 0.199895993252882D+03
 0.199895993252882D+03 0.000000000000000D+00 0.000000000000000D+00 -.199895993252882D+03
 0.152469375468118D+03 -.448142384744689D+02 0.700294215984716D+02 -.266359643372457D+02
 0.150197441530124D+03 -.258836110891606D+02 -.835954543919242D+02 0.918362356034772D+02
 0.971251695075216D+02 0.706978495636295D+02 0.135660327934526D+02 -.652002712662315D+02
 0.000000000000000D+00 0.000000000000000D+00 0.000000000000000D+00 -.000000000000000D+00
 0.201376617673525D+03 0.000000000000000D+00 0.000000000000000D+00 0.201376617673525D+03
 0.427764843676310D+03 0.000000000000000D+00 0.000000000000000D+00 -.427764843676310D+03
 0.151255699911834D+03 -.522439913994134D+02 0.617606470359705D+02 -.266359643372457D+02
 0.156426215306704D+03 -.333842694012565D+02 -.919431414926410D+02 0.918362356034772D+02
 0.931826064970876D+02 0.660425218675507D+02 0.838499169796676D+01 -.652002712662315D+02
 0.228276939634209D+03 0.195857389331191D+02 0.217975027587037D+02 -.226388226002785D+03
-.679497106146D-04 0.000000000000D+00 0.000000000000D+00 0.283510823313D-06 0.000000000000D+00  6 1 21 25 -24 2 21 4 0.97634101D-01 0.20722511D-01 0.34484342D+05 0.34484342D+05 0.34484342D+05 0.12085994D+01  1  2 13  2  6  2       21 -.113288838075D+00 0.100000000000D+01
-.667246827994D-04 0.000000000000D+00 0.000000000000D+00 0.283510823313D-06 0.000000000000D+00  6 1 21 25 -24 2 21 4 0.97634101D-01 0.21269659D-01 0.34484342D+05 0.34484342D+05 0.34484342D+05 0.12085994D+01  1  2 13  2  6  2       21 -.105941835632D+00 0.100000000000D+01
0.110027139161D-03 0.000000000000D+00 0.000000000000D+00 0.287156825245D-06 0.131807031582D-07  6 1 21 25 -24 2 21 4 0.98357274D-01 0.20729123D-01 0.34484342D+05 0.34484342D+05 0.34484342D+05 0.12085994D+01  1  2  1  2  6  2       21 0.181446832814D+00 0.100000000000D+01
  </mgrwgt>
  </event>
  <event>
  5     66 -.42980143E-03 0.26955434E+02 0.75467711E-02 0.10903616E+00
        1 -1    0    0  502    0 0.00000000E+00 0.00000000E+00 0.14341853E+04 0.14341853E+04 0.32000000E+00 0.0000E+00 0.9000E+01
       21 -1    0    0  501  502 0.00000000E+00 0.00000000E+00 -.27159860E+02 0.27170214E+02 0.75000000E+00 0.0000E+00 0.9000E+01
       25  1    1    2    0    0 0.13270291E+03 -.25580355E+02 0.64932414E+03 0.67491574E+03 0.12500000E+03 0.0000E+00 0.9000E+01
      -24  1    1    2    0    0 -.15820750E+03 0.34300040E+02 0.60682642E+03 0.63317583E+03 0.80419002E+02 0.0000E+00 0.9000E+01
        2  1    1    2  501    0 0.25504589E+02 -.87196848E+01 0.15087484E+03 0.15326395E+03 0.32000000E+00 0.0000E+00 0.9000E+01
#aMCatNLO 1  0  0  2  2 0.15810504D+03 0.00000000D+00  -5  6  0 0.00000000D+00 0.00000000D+00 0.00000000D+00 0.00000000D+00 0.00000000D+00
  <mgrwgt>
 -.3163949872D+00   12    2    0
 0.197382528588108D+03 0.000000000000000D+00 0.000000000000000D+00 0.197382528588108D+03
 0.197382528588108D+03 0.000000000000000D+00 0.000000000000000D+00 -.197382528588108D+03
 0.184099547279596D+03 0.132702217135833D+03 -.255801175196726D+02 -.184999012592799D+01
 0.181057198992527D+03 -.158208183658903D+03 0.343002734135522D+02 -.103997701780108D+02
 0.296083109040940D+02 0.255059665230701D+02 -.872015589387964D+01 0.122497603039388D+02
 0.000000000000000D+00 0.000000000000000D+00 0.000000000000000D+00 -.000000000000000D+00
 0.218125976045366D+03 0.000000000000000D+00 0.000000000000000D+00 0.218125976045366D+03
 0.134854894838536D+04 0.000000000000000D+00 0.000000000000000D+00 -.134854894838536D+04
 0.159551229490666D+03 0.773537646976898D+02 -.620045760860557D+02 -.184999012592799D+01
 0.240416321510959D+03 -.226090780412407D+03 -.103728244583318D+02 -.103997701780108D+02
 0.252813797226434D+02 0.166654236337130D+02 -.145380599904322D+02 0.122497603039388D+02
 0.114142599370646D+04 0.132071592081004D+03 0.869154605348198D+02 -.113042297233999D+04
0.624403079494D-05 0.000000000000D+00 0.000000000000D+00 0.210967464139D-06 0.000000000000D+00  6 1 21 25 -24 2 21 2 0.22064469D+00 0.41792392D-02 0.38377586D+05 0.38377586D+05 0.38377586D+05 0.12038307D+01  1  2  2  2  6  2       21 0.295717064113D-01 0.100000000000D+01
0.265781468330D-06 0.329506557730D-06 -.126048991900D-07 0.210967464139D-06 0.000000000000D+00  6 1 21 25 -24 2 21 4 0.22064469D+00 0.41792392D-02 0.38377586D+05 0.38377586D+05 0.38377586D+05 0.12038307D+01  1  2  3  2  6  2       21 0.182417643542D-02 0.100000000000D+01
0.601530952882D-06 0.000000000000D+00 0.000000000000D+00 0.210967464139D-06 0.000000000000D+00  6 1 21 25 -24 2 21 4 0.22064469D+00 0.41792392D-02 0.38377586D+05 0.38377586D+05 0.38377586D+05 0.12038307D+01  1  2 15  2  6  2       21 0.412857448758D-02 0.100000000000D+01
-.143040866612D-02 0.000000000000D+00 -.944346221064D-04 0.210967464139D-06 0.000000000000D+00  6 1 21 25 -24 2 21 4 0.22064469D+00 0.31015389D-01 0.38377586D+05 0.38377586D+05 0.38377586D+05 0.12038307D+01  1  2  5  2  6  2       21 -.268905598775D+00 0.100000000000D+01
-.616327023671D-03 0.000000000000D+00 -.406858568590D-04 0.210967464139D-06 0.000000000000D+00  6 1 -1 25 -24 2 -1 4 0.22064469D+00 0.31015389D-01 0.38377586D+05 0.38377586D+05 0.38377586D+05 0.12038307D+01  1  2  5  5  6  2       21 -.102533413774D-01 0.100000000000D+01
-.616327023671D-03 0.000000000000D+00 -.406858568590D-04 0.210967464139D-06 0.000000000000D+00  6 1 1 25 -24 2 1 4 0.22064469D+00 0.31015389D-01 0.38377586D+05 0.38377586D+05 0.38377586D+05 0.12038307D+01  1  2  5  6  6  2       21 -.182881974853D-01 0.100000000000D+01
-.616327023671D-03 0.000000000000D+00 -.406858568590D-04 0.210967464139D-06 0.000000000000D+00  6 1 -2 25 -24 2 -2 4 0.22064469D+00 0.31015389D-01 0.38377586D+05 0.38377586D+05 0.38377586D+05 0.12038307D+01  1  2  5  7  6  2       21 -.897101159535D-02 0.100000000000D+01
-.616327023671D-03 0.000000000000D+00 -.406858568590D-04 0.210967464139D-06 0.000000000000D+00  6 1 2 25 -24 2 2 4 0.22064469D+00 0.31015389D-01 0.38377586D+05 0.38377586D+05 0.38377586D+05 0.12038307D+01  1  2  5  8  6  2       21 -.241824310174D-01 0.100000000000D+01
-.616327023671D-03 0.000000000000D+00 -.406858568590D-04 0.210967464139D-06 0.000000000000D+00  6 1 -3 25 -24 2 -3 4 0.22064469D+00 0.31015389D-01 0.38377586D+05 0.38377586D+05 0.38377586D+05 0.12038307D+01  1  2  5  9  6  2       21 -.578190552450D-02 0.100000000000D+01
-.616327023671D-03 0.000000000000D+00 -.406858568590D-04 0.210967464139D-06 0.000000000000D+00  6 1 -4 25 -24 2 -4 4 0.22064469D+00 0.31015389D-01 0.38377586D+05 0.38377586D+05 0.38377586D+05 0.12038307D+01  1  2  5  9  6  2       21 -.487738928740D-02 0.100000000000D+01
-.616327023671D-03 0.000000000000D+00 -.406858568590D-04 0.210967464139D-06 0.000000000000D+00  6 1 3 25 -24 2 3 4 0.22064469D+00 0.31015389D-01 0.38377586D+05 0.38377586D+05 0.38377586D+05 0.12038307D+01  1  2  5 10  6  2       21 -.578218023145D-02 0.100000000000D+01
-.616327023671D-03 0.000000000000D+00 -.406858568590D-04 0.210967464139D-06 0.000000000000D+00  6 1 4 25 -24 2 4 4 0.22064469D+00 0.31015389D-01 0.38377586D+05 0.38377586D+05 0.38377586D+05 0.12038307D+01  1  2  5 10  6  2       21 -.487738928740D-02 0.100000000000D+01
  </mgrwgt>
  </event>
  <event>
  5     66 -.42980143E-03 0.29147533E+02 0.75467711E-02 0.11608705E+00
        1 -1    0    0  502    0 0.00000000E+00 0.00000000E+00 0.23391199E+04 0.23391199E+04 0.32000000E+00 0.0000E+00 0.9000E+01
       21 -1    0    0  501  502 0.00000000E+00 0.00000000E+00 -.90989471E+01 0.91298049E+01 0.75000000E+00 0.0000E+00 0.9000E+01
       25  1    1    2    0    0 0.68770656E+02 0.10513460E+02 0.12599307E+04 0.12680261E+04 0.12500000E+03 0.0000E+00 0.9000E+01
      -24  1    1    2    0    0 -.57626545E+02 -.37445669E+02 0.97614824E+03 0.98186333E+03 0.80419002E+02 0.0000E+00 0.9000E+01
        2  1    1    2  501    0 -.11144111E+02 0.26932209E+02 0.93942037E+02 0.98360276E+02 0.32000000E+00 0.0000E+00 0.9000E+01
#aMCatNLO 1  0  0  2  2 0.81740201D+02 0.00000000D+00  -5  6  0 0.00000000D+00 0.00000000D+00 0.00000000D+00 0.00000000D+00 0.00000000D+00
  <mgrwgt>
 -.3102144088D+01   12    2    0
 0.146012961056673D+03 0.000000000000000D+00 0.000000000000000D+00 0.146012961056673D+03
 0.146012961056673D+03 0.000000000000000D+00 0.000000000000000D+00 -.146012961056673D+03
 0.143744587337284D+03 0.687708199883754D+02 0.105130642448179D+02 0.140554682268849D+02
 0.106889377732755D+03 -.576264228414657D+02 -.374459638049778D+02 0.153335678476313D+02
 0.413919570433064D+02 -.111443971469097D+02 0.269328995601599D+02 -.293890360745162D+02
 0.000000000000000D+00 0.000000000000000D+00 -.000000000000000D+00 -.000000000000000D+00
 0.151801109894235D+03 0.000000000000000D+00 0.000000000000000D+00 0.151801109894235D+03
 0.236497746737795D+05 0.000000000000000D+00 0.000000000000000D+00 -.236497746737795D+05
 0.135644458274495D+03 0.378600045546153D+02 0.338154244188748D+02 0.140554682268849D+02
 0.117705826637125D+03 -.824750023352792D+02 -.187136676473641D+02 0.153335678476313D+02
 0.501070879823268D+02 -.212675932334259D+02 0.345643501709052D+02 -.293890360745162D+02
 0.234981184107798D+05 0.658825910140898D+02 -.496661069424158D+02 -.234979735638852D+05
0.392747341456D-06 0.000000000000D+00 0.000000000000D+00 0.108080545844D-05 0.000000000000D+00  6 1 21 25 -24 2 21 2 0.35986698D+00 0.14022134D-02 0.19319211D+05 0.19319211D+05 0.19319211D+05 0.12354853D+01  1  2  2  2  6  2       21 0.309139282845D-02 0.100000000000D+01
0.217202254622D-07 0.207258466191D-07 -.792843726875D-09 0.108080545844D-05 0.000000000000D+00  6 1 21 25 -24 2 21 4 0.35986698D+00 0.14022134D-02 0.19319211D+05 0.19319211D+05 0.19319211D+05 0.12354853D+01  1  2  3  2  6  2       21 0.260963912442D-03 0.100000000000D+01
0.354329517084D-07 0.000000000000D+00 0.000000000000D+00 0.108080545844D-05 0.000000000000D+00  6 1 21 25 -24 2 21 4 0.35986698D+00 0.14022134D-02 0.19319211D+05 0.19319211D+05 0.19319211D+05 0.12354853D+01  1  2 15  2  6  2       21 0.425719416370D-03 0.100000000000D+01
-.234515555104D+01 0.000000000000D+00 -.314364265226D-02 0.108080545844D-05 0.000000000000D+00  6 1 21 25 -24 2 21 4 0.35986698D+00 0.22773587D+00 0.19319211D+05 0.19319211D+05 0.19319211D+05 0.12354853D+01  1  2  5  2  6  2       21 -.127831655901D+01 0.100000000000D+01
-.104220851748D+01 0.000000000000D+00 -.139709457150D-02 0.108080545844D-05 0.000000000000D+00  6 1 -1 25 -24 2 -1 4 0.35986698D+00 0.22773587D+00 0.19319211D+05 0.19319211D+05 0.19319211D+05 0.12354853D+01  1  2  5  5  6  2       21 -.640708928451D-01 0.100000000000D+01
-.104220851748D+01 0.000000000000D+00 -.139709457150D-02 0.108080545844D-05 0.000000000000D+00  6 1 1 25 -24 2 1 4 0.35986698D+00 0.22773587D+00 0.19319211D+05 0.19319211D+05 0.19319211D+05 0.12354853D+01  1  2  5  6  6  2       21 -.509664487889D+00 0.100000000000D+01
-.104220851748D+01 0.000000000000D+00 -.139709457150D-02 0.108080545844D-05 0.000000000000D+00  6 1 -2 25 -24 2 -2 4 0.35986698D+00 0.22773587D+00 0.19319211D+05 0.19319211D+05 0.19319211D+05 0.12354853D+01  1  2  5  7  6  2       21 -.492488928587D-01 0.100000000000D+01
-.104220851748D+01 0.000000000000D+00 -.139709457150D-02 0.108080545844D-05 0.000000000000D+00  6 1 2 25 -24 2 2 4 0.35986698D+00 0.22773587D+00 0.19319211D+05 0.19319211D+05 0.19319211D+05 0.12354853D+01  1  2  5  8  6  2       21 -.108930808947D+01 0.100000000000D+01
-.104220851748D+01 0.000000000000D+00 -.139709457150D-02 0.108080545844D-05 0.000000000000D+00  6 1 -3 25 -24 2 -3 4 0.35986698D+00 0.22773587D+00 0.19319211D+05 0.19319211D+05 0.19319211D+05 0.12354853D+01  1  2  5  9  6  2       21 -.327852895607D-01 0.100000000000D+01
-.104220851748D+01 0.000000000000D+00 -.139709457150D-02 0.108080545844D-05 0.000000000000D+00  6 1 -4 25 -24 2 -4 4 0.35986698D+00 0.22773587D+00 0.19319211D+05 0.19319211D+05 0.19319211D+05 0.12354853D+01  1  2  5  9  6  2       21 -.247386619202D-01 0.100000000000D+01
-.104220851748D+01 0.000000000000D+00 -.139709457150D-02 0.108080545844D-05 0.000000000000D+00  6 1 3 25 -24 2 3 4 0.35986698D+00 0.22773587D+00 0.19319211D+05 0.19319211D+05 0.19319211D+05 0.12354853D+01  1  2  5 10  6  2       21 -.330506290694D-01 0.100000000000D+01
-.104220851748D+01 0.000000000000D+00 -.139709457150D-02 0.108080545844D-05 0.000000000000D+00  6 1 4 25 -24 2 4 4 0.35986698D+00 0.22773587D+00 0.19319211D+05 0.19319211D+05 0.19319211D+05 0.12354853D+01  1  2  5 10  6  2       21 -.247386619202D-01 0.100000000000D+01
  </mgrwgt>
  </event>
  <event>
  6     66 -.42980143E-03 0.83225361E+02 0.75467711E-02 0.11216657E+00
        1 -1    0    0  503    0 0.00000000E+00 0.00000000E+00 0.78903848E+03 0.78903855E+03 0.32000000E+00 0.0000E+00 0.9000E+01
       21 -1    0    0  501  502 0.00000000E+00 0.00000000E+00 -.17493429E+03 0.17493590E+03 0.75000000E+00 0.0000E+00 0.9000E+01
       25  1    1    2    0    0 -.11107209E+03 0.13027510E+03 0.45615091E+03 0.50299827E+03 0.12500000E+03 0.0000E+00 0.9000E+01
      -24  1    1    2    0    0 0.80014043E+02 -.42100211E+02 0.17862887E+03 0.21575487E+03 0.80419002E+02 0.0000E+00 0.9000E+01
        2  1    1    2  501    0 -.50081592E+01 -.10250801E+03 -.10840939E+03 0.14928386E+03 0.32000000E+00 0.0000E+00 0.9000E+01
       21  1    1    2  503  502 0.36066202E+02 0.14333115E+02 0.87733810E+02 0.95937443E+02 0.75000000E+00 0.0000E+00 0.9000E+01
#aMCatNLO 2  0  0  1  2 0.38809909D+02 0.00000000D+00  -5  6  0 0.00000000D+00 0.00000000D+00 0.00000000D+00 0.00000000D+00 0.00000000D+00
  <mgrwgt>
 -.9768934301D-01    2    2    0
 0.344570836352747D+03 0.000000000000000D+00 0.000000000000000D+00 0.344570836352747D+03
 0.344570836352747D+03 0.000000000000000D+00 0.000000000000000D+00 -.344570836352747D+03
 0.282058296182687D+03 -.962529180022068D+02 0.136164437805258D+03 0.190069734830979D+03
 0.138637162555778D+03 0.871716740636357D+02 -.392556735979761D+02 0.601093854440303D+02
 0.268446213967029D+03 0.908124393857114D+01 -.969087642072815D+02 -.250179120275009D+03
 0.000000000000000D+00 0.000000000000000D+00 0.000000000000000D+00 0.000000000000000D+00
 0.390572730398272D+03 0.000000000000000D+00 0.000000000000000D+00 0.390572730398272D+03
 0.353400710978462D+03 0.000000000000000D+00 0.000000000000000D+00 -.353400710978462D+03
 0.284710595875849D+03 -.111072090960515D+03 0.130275131605849D+03 0.190069734830979D+03
 0.135111167363363D+03 0.800140408467075D+02 -.421001976342461D+02 0.601093854440303D+02
 0.270411859620351D+03 -.500815141174276D+01 -.102508048567885D+03 -.250179120275009D+03
 0.537398185171713D+02 0.360662015255501D+02 0.143331145962819D+02 0.371720194198104D+02
-.272202287160D-03 0.000000000000D+00 0.000000000000D+00 0.682838989368D-06 0.000000000000D+00  6 1 21 25 -24 2 21 4 0.12263976D+00 0.26240469D-01 0.56268445D+05 0.56268445D+05 0.56268445D+05 0.11872349D+01  1  2 13  1  6  1        1 -.190137863889D+00 0.100000000000D+01
0.136811892458D-03 0.000000000000D+00 0.000000000000D+00 0.692425415740D-06 0.319256662591D-08  6 1 21 25 -24 2 21 4 0.12138978D+00 0.26912900D-01 0.56268445D+05 0.56268445D+05 0.56268445D+05 0.11872349D+01  1  2  1  1  6  1        1 0.924485208825D-01 0.100000000000D+01
  </mgrwgt>
  </event>
  <event>
  5     66 0.42980143E-03 0.79562781E+02 0.75467711E-02 0.11216399E+00
        1 -1    0    0  502    0 0.00000000E+00 0.00000000E+00 0.76128204E+03 0.76128211E+03 0.32000000E+00 0.0000E+00 0.9000E+01
       21 -1    0    0  501  502 0.00000000E+00 0.00000000E+00 -.13618950E+03 0.13619156E+03 0.75000000E+00 0.0000E+00 0.9000E+01
       25  1    1    2    0    0 -.43164018E+02 -.10650900E+03 0.28018947E+03 0.32762545E+03 0.12500000E+03 0.0000E+00 0.9000E+01
      -24  1    1    2    0    0 0.13954543E+02 0.32501996E+02 0.43837929E+03 0.44709588E+03 0.80419002E+02 0.0000E+00 0.9000E+01
        2  1    1    2  501    0 0.29209475E+02 0.74007007E+02 -.93476215E+02 0.12275233E+03 0.32000000E+00 0.0000E+00 0.9000E+01
#aMCatNLO 1  0  0  2  5 0.32844879D+02 0.00000000D+00  -5  6  0 0.00000000D+00 0.00000000D+00 0.00000000D+00 0.00000000D+00 0.00000000D+00
  <mgrwgt>
 0.1515595622D+00    4    2    0
 0.321993128879407D+03 0.000000000000000D+00 0.000000000000000D+00 0.321993128879407D+03
 0.321993128879407D+03 0.000000000000000D+00 0.000000000000000D+00 -.321993128879407D+03
 0.184617124998134D+03 -.431640245960638D+02 -.106509018357177D+03 0.724650179868718D+02
 0.197565065236066D+03 0.139545367117847D+02 0.325019789141533D+02 0.176956580321795D+03
 0.261804067524615D+03 0.292094878842791D+02 0.740070394430237D+02 -.249421598308667D+03
 0.000000000000000D+00 -.000000000000000D+00 -.000000000000000D+00 0.000000000000000D+00
 0.590827258860510D+03 0.000000000000000D+00 0.000000000000000D+00 0.590827258860510D+03
 0.334695074192050D+03 0.000000000000000D+00 0.000000000000000D+00 -.334695074192050D+03
 0.169627308895390D+03 -.382000683208277D+02 -.802371477031586D+02 0.724650179868718D+02
 0.205070670487262D+03 0.195965906038123D+02 0.623626992460027D+02 0.176956580321795D+03
 0.276667282199722D+03 0.367549790190879D+02 0.113941752023729D+03 -.249421598308667D+03
 0.274157071470187D+03 -.181515013020724D+02 -.960673035665730D+02 0.256132184668460D+03
0.144470970561D-03 0.000000000000D+00 0.000000000000D+00 0.165099078258D-05 0.000000000000D+00  6 1 21 25 -24 2 21 2 0.11712048D+00 0.20952394D-01 0.28428919D+05 0.28428919D+05 0.28428919D+05 0.12173579D+01  1  2  2  2  6  2       21 0.126752693687D+00 0.100000000000D+01
0.854925401052D-05 0.762394257250D-05 -.291645265631D-06 0.165099078258D-05 0.000000000000D+00  6 1 21 25 -24 2 21 4 0.11712048D+00 0.20952394D-01 0.28428919D+05 0.28428919D+05 0.28428919D+05 0.12173579D+01  1  2  3  2  6  2       21 0.111158165710D-01 0.100000000000D+01
0.155765279621D-04 0.000000000000D+00 0.000000000000D+00 0.165099078258D-05 0.000000000000D+00  6 1 21 25 -24 2 21 4 0.11712048D+00 0.20952394D-01 0.28428919D+05 0.28428919D+05 0.28428919D+05 0.12173579D+01  1  2 15  2  6  2       21 0.202527410492D-01 0.100000000000D+01
-.504664199134D-05 0.000000000000D+00 0.000000000000D+00 0.165099078258D-05 0.000000000000D+00  6 1 21 25 -24 2 21 4 0.11712048D+00 0.20952394D-01 0.28428919D+05 0.28428919D+05 0.28428919D+05 0.12173579D+01  1  2  4  2  6  2       21 -.656168907907D-02 0.100000000000D+01
  </mgrwgt>
  </event>
  <event>
  5     66 0.42980143E-03 0.29675032E+02 0.75467711E-02 0.11201709E+00
        3 -1    0    0  502    0 0.00000000E+00 0.00000000E+00 0.56967677E+03 0.56967699E+03 0.50000000E+00 0.0000E+00 0.9000E+01
       21 -1    0    0  501  502 0.00000000E+00 0.00000000E+00 -.10627436E+03 0.10627701E+03 0.75000000E+00 0.0000E+00 0.9000E+01
       25  1    1    2    0    0 0.56989785E+02 0.56817634E+02 0.35783748E+03 0.38749031E+03 0.12500000E+03 0.0000E+00 0.9000E+01
      -24  1    1    2    0    0 -.45845038E+02 -.84319479E+02 0.17370221E+03 0.21412897E+03 0.80419002E+02 0.0000E+00 0.9000E+01
        4  1    1    2  501    0 -.11144747E+02 0.27501845E+02 -.68137286E+02 0.74334710E+02 0.15500000E+01 0.0000E+00 0.9000E+01
#aMCatNLO 1  0  0  2  1 0.29008194D+02 0.00000000D+00  -5  6  0 0.00000000D+00 0.00000000D+00 0.00000000D+00 0.00000000D+00 0.00000000D+00
  <mgrwgt>
 0.2026849164D-01   14    2    0
 0.246054877456302D+03 0.000000000000000D+00 0.000000000000000D+00 0.246054877456302D+03
 0.246054877456302D+03 0.000000000000000D+00 0.000000000000000D+00 -.246054877456302D+03
 0.195289227019521D+03 0.569899769186513D+02 0.568171596370274D+02 0.126636626184821D+03
 0.130555533759626D+03 -.458449092711367D+02 -.843197958457039D+02 0.369587305430039D+02
 0.166264994133457D+03 -.111450676475146D+02 0.275026362086765D+02 -.163595356727825D+03
 0.000000000000000D+00 0.000000000000000D+00 -.000000000000000D+00 -.000000000000000D+00
 0.292420641822367D+03 0.000000000000000D+00 0.000000000000000D+00 0.292420641822367D+03
 0.357980088789319D+03 0.000000000000000D+00 0.000000000000000D+00 -.357980088789319D+03
 0.205432909734504D+03 0.284786638041995D+02 0.986398044322785D+02 0.126636626184821D+03
 0.123532620928124D+03 -.639232390476186D+02 -.578010746034344D+02 0.369587305430039D+02
 0.179102072176770D+03 -.357178767434964D+02 0.635479723991671D+02 -.163595356727825D+03
 0.142333127772287D+03 0.711624519869154D+02 -.104386702228011D+03 -.655594469669523D+02
0.290681545373D-04 0.000000000000D+00 0.000000000000D+00 0.483751191348D-05 0.000000000000D+00  6 3 21 25 -24 4 21 2 0.87642801D-01 0.16350122D-01 0.23036296D+05 0.23036296D+05 0.23036296D+05 0.12271250D+01  1  2  2  2  6  2       21 0.882585399050D-02 0.100000000000D+01
0.649921317063D-05 0.153396865834D-05 -.586802291042D-07 0.483751191348D-05 0.000000000000D+00  6 3 21 25 -24 4 21 4 0.87642801D-01 0.16350122D-01 0.23036296D+05 0.23036296D+05 0.23036296D+05 0.12271250D+01  1  2  3  2  6  2       21 0.297151344993D-02 0.100000000000D+01
0.254162370662D-05 0.000000000000D+00 0.000000000000D+00 0.483751191348D-05 0.000000000000D+00  6 3 21 25 -24 4 21 4 0.87642801D-01 0.16350122D-01 0.23036296D+05 0.23036296D+05 0.23036296D+05 0.12271250D+01  1  2 15  2  6  2       21 0.116205898016D-02 0.100000000000D+01
-.885894601322D-05 0.000000000000D+00 0.000000000000D+00 0.483751191348D-05 0.000000000000D+00  6 3 21 25 -24 4 21 4 0.87642801D-01 0.16350122D-01 0.23036296D+05 0.23036296D+05 0.23036296D+05 0.12271250D+01  1  2  4  2  6  2       21 -.405040987877D-02 0.100000000000D+01
-.292842305246D-04 0.000000000000D+00 -.353174677861D-04 0.483751191348D-05 0.000000000000D+00  6 3 21 25 -24 4 21 4 0.87642801D-01 0.28006465D-01 0.23036296D+05 0.23036296D+05 0.23036296D+05 0.12271250D+01  1  2  5  2  6  2       21 -.489475612585D-02 0.100000000000D+01
0.357004868741D-04 0.000000000000D+00 0.210037965545D-04 0.483751191348D-05 0.000000000000D+00  6 3 21 25 -24 4 21 4 0.87642801D-01 0.16350122D-01 0.23036296D+05 0.23036296D+05 0.23036296D+05 0.12271250D+01  1  2  6  2  6  2       21 0.163226646258D-01 0.100000000000D+01
-.607975157970D-06 0.000000000000D+00 -.668720858366D-05 0.483751191348D-05 0.000000000000D+00  6 3 -3 25 -24 4 -3 4 0.87642801D-01 0.28006465D-01 0.23036296D+05 0.23036296D+05 0.23036296D+05 0.12271250D+01  1  2  5  5  6  2       21 -.491324715463D-05 0.100000000000D+01
-.607975157970D-06 0.000000000000D+00 -.668720858366D-05 0.483751191348D-05 0.000000000000D+00  6 3 3 25 -24 4 3 4 0.87642801D-01 0.28006465D-01 0.23036296D+05 0.23036296D+05 0.23036296D+05 0.12271250D+01  1  2  5  6  6  2       21 -.491322166383D-05 0.100000000000D+01
-.607975157970D-06 0.000000000000D+00 -.668720858366D-05 0.483751191348D-05 0.000000000000D+00  6 3 -4 25 -24 4 -4 4 0.87642801D-01 0.28006465D-01 0.23036296D+05 0.23036296D+05 0.23036296D+05 0.12271250D+01  1  2  5  7  6  2       21 -.413970670119D-05 0.100000000000D+01
-.607975157970D-06 0.000000000000D+00 -.668720858366D-05 0.483751191348D-05 0.000000000000D+00  6 3 4 25 -24 4 4 4 0.87642801D-01 0.28006465D-01 0.23036296D+05 0.23036296D+05 0.23036296D+05 0.12271250D+01  1  2  5  8  6  2       21 -.413970670119D-05 0.100000000000D+01
-.607975157970D-06 0.000000000000D+00 -.668720858366D-05 0.483751191348D-05 0.000000000000D+00  6 3 -1 25 -24 4 -1 4 0.87642801D-01 0.28006465D-01 0.23036296D+05 0.23036296D+05 0.23036296D+05 0.12271250D+01  1  2  5  9  6  2       21 -.866461105114D-05 0.100000000000D+01
-.607975157970D-06 0.000000000000D+00 -.668720858366D-05 0.483751191348D-05 0.000000000000D+00  6 3 -2 25 -24 4 -2 4 0.87642801D-01 0.28006465D-01 0.23036296D+05 0.23036296D+05 0.23036296D+05 0.12271250D+01  1  2  5  9  6  2       21 -.766515613335D-05 0.100000000000D+01
-.607975157970D-06 0.000000000000D+00 -.668720858366D-05 0.483751191348D-05 0.000000000000D+00  6 3 1 25 -24 4 1 4 0.87642801D-01 0.28006465D-01 0.23036296D+05 0.23036296D+05 0.23036296D+05 0.12271250D+01  1  2  5 10  6  2       21 -.147856050694D-04 0.100000000000D+01
-.607975157970D-06 0.000000000000D+00 -.668720858366D-05 0.483751191348D-05 0.000000000000D+00  6 3 2 25 -24 4 2 4 0.87642801D-01 0.28006465D-01 0.23036296D+05 0.23036296D+05 0.23036296D+05 0.12271250D+01  1  2  5 10  6  2       21 -.192121473830D-04 0.100000000000D+01
  </mgrwgt>
  </event>
</LesHouchesEvents>
