<event>
 5    0  0.1239749E+000  0.3893546E+03  0.7546771E-02  0.1047529E+00
          2   -1    0    0  503    0 -0.00000000000E+00  0.00000000000E+00  0.28201695088E+04  0.28201695088E+04  0.00000000000E+00 0. -1.
         21   -1    0    0  501  502  0.00000000000E+00 -0.00000000000E+00 -0.13266404432E+03  0.13266404432E+03  0.00000000000E+00 0.  1.
         25    1    1    2    0    0 -0.12705737501E+03  0.33576703054E+03  0.74564029072E+03  0.83695132385E+03  0.12500000000E+03 0.  0.
         21    1    1    2  503  502  0.16039492320E+03 -0.33798199981E+03  0.31609775568E+03  0.48977153320E+03  0.00000000000E+00 0.  1.
          2    1    1    2  501    0 -0.33337548187E+02  0.22149692791E+01  0.16257674180E+04  0.16261106960E+04  0.00000000000E+00 0. -1.
<mgrwt>
<rscale>  4 0.38935458E+03</rscale>
<asrwt>0</asrwt>
<pdfrwt beam="1">  1       21 0.20409855E-01 0.38935458E+03</pdfrwt>
<pdfrwt beam="2">  1        2 0.43387219E+00 0.38935458E+03</pdfrwt>
<totfact> 0.69350214E+02</totfact>
</mgrwt>
</event>
<event>
 5    0  0.1239749E+000  0.2534735E+03  0.7546771E-02  0.1111129E+00
          2   -1    0    0  503    0 -0.00000000000E+00  0.00000000000E+00  0.18565224506E+04  0.18565224506E+04  0.00000000000E+00 0.  1.
         21   -1    0    0  501  502  0.00000000000E+00 -0.00000000000E+00 -0.12474869474E+04  0.12474869474E+04  0.00000000000E+00 0. -1.
         25    1    1    2    0    0  0.11909214166E+03  0.20431160427E+03 -0.61705710596E+03  0.67254043883E+03  0.12500000000E+03 0.  0.
         21    1    1    2  503  502 -0.10670658510E+03 -0.18083856345E+03 -0.58429952878E+03  0.62088229212E+03  0.00000000000E+00 0. -1.
          2    1    1    2  501    0 -0.12385556557E+02 -0.23473040823E+02  0.18103921380E+04  0.18105866671E+04  0.00000000000E+00 0.  1.
<mgrwt>
<rscale>  4 0.25347345E+03</rscale>
<asrwt>0</asrwt>
<pdfrwt beam="1">  1       21 0.19192107E+00 0.25347345E+03</pdfrwt>
<pdfrwt beam="2">  1        2 0.28561884E+00 0.25347345E+03</pdfrwt>
<totfact> 0.16131892E+01</totfact>
</mgrwt>
</event>
<event>
 5    0  0.1239749E+000  0.5265770E+03  0.7546771E-02  0.1007066E+00
         21   -1    0    0  501  502  0.00000000000E+00  0.00000000000E+00  0.60150459620E+03  0.60150459620E+03  0.00000000000E+00 0. -1.
          2   -1    0    0  503    0 -0.00000000000E+00 -0.00000000000E+00 -0.17192432152E+04  0.17192432152E+04  0.00000000000E+00 0. -1.
         25    1    1    2    0    0  0.40257189027E+03 -0.25138934400E+03 -0.64534173920E+03  0.81077227966E+03  0.12500000000E+03 0.  0.
         21    1    1    2  503  502 -0.42673896044E+03  0.29392302931E+03  0.38853526190E+03  0.64765464351E+03  0.00000000000E+00 0. -1.
          2    1    1    2  501    0  0.24167070177E+02 -0.42533685312E+02 -0.86093214172E+03  0.86232088825E+03  0.00000000000E+00 0. -1.
<mgrwt>
<rscale>  4 0.52657697E+03</rscale>
<asrwt>0</asrwt>
<pdfrwt beam="1">  1       21 0.92539169E-01 0.52657697E+03</pdfrwt>
<pdfrwt beam="2">  1        2 0.26449895E+00 0.52657697E+03</pdfrwt>
<totfact> 0.11061603E+02</totfact>
</mgrwt>
</event>
<event>
 5    0  0.1239749E+000  0.2529271E+03  0.7546771E-02  0.1111469E+00
         21   -1    0    0  501  502  0.00000000000E+00  0.00000000000E+00  0.67150484881E+02  0.67150484881E+02  0.00000000000E+00 0.  1.
          2   -1    0    0  503    0 -0.00000000000E+00 -0.00000000000E+00 -0.17739896737E+04  0.17739896737E+04  0.00000000000E+00 0. -1.
         25    1    1    2    0    0 -0.19436206802E+03  0.57964950943E+02 -0.97212247710E+03  0.10008914324E+04  0.12500000000E+03 0.  0.
         21    1    1    2  503  502 -0.65603620229E+02 -0.86206607663E+02 -0.78303998831E+02  0.13366723766E+03  0.00000000000E+00 0.  1.
          2    1    1    2  501    0  0.25996568825E+03  0.28241656720E+02 -0.65641271293E+03  0.70658148853E+03  0.00000000000E+00 0. -1.
<mgrwt>
<rscale>  4 0.25292713E+03</rscale>
<asrwt>0</asrwt>
<pdfrwt beam="1">  1       21 0.10330844E-01 0.25292713E+03</pdfrwt>
<pdfrwt beam="2">  1        2 0.27292149E+00 0.25292713E+03</pdfrwt>
<totfact> 0.94556100E+03</totfact>
</mgrwt>
</event>
<event>
 5    0  0.1239749E+000  0.1987074E+03  0.7546771E-02  0.1150834E+00
          1   -1    0    0  503    0 -0.00000000000E+00  0.00000000000E+00  0.15781847480E+04  0.15781847480E+04  0.00000000000E+00 0. -1.
         21   -1    0    0  501  502  0.00000000000E+00 -0.00000000000E+00 -0.68786440640E+03  0.68786440640E+03  0.00000000000E+00 0.  1.
         25    1    1    2    0    0  0.20807281470E+03  0.53156461869E+02 -0.41845427860E+03  0.48667123290E+03  0.12500000000E+03 0.  0.
         21    1    1    2  503  502 -0.11436532988E+03 -0.51825192285E+02 -0.21701088587E+03  0.25071697952E+03  0.00000000000E+00 0.  1.
          1    1    1    2  501    0 -0.93707484823E+02 -0.13312695839E+01  0.15257855061E+04  0.15286609420E+04  0.00000000000E+00 0. -1.
<mgrwt>
<rscale>  4 0.19870736E+03</rscale>
<asrwt>0</asrwt>
<pdfrwt beam="1">  1       21 0.10582529E+00 0.19870736E+03</pdfrwt>
<pdfrwt beam="2">  1        1 0.24279765E+00 0.19870736E+03</pdfrwt>
<totfact> 0.51491848E+01</totfact>
</mgrwt>
</event>
<event>
 5    0  0.1239749E+000  0.2983790E+03  0.7546771E-02  0.1086054E+00
         21   -1    0    0  503  502  0.00000000000E+00  0.00000000000E+00  0.28586351638E+03  0.28586351638E+03  0.00000000000E+00 0. -1.
         -4   -1    0    0    0  501 -0.00000000000E+00 -0.00000000000E+00 -0.12836791576E+04  0.12836791576E+04  0.00000000000E+00 0.  1.
         25    1    1    2    0    0 -0.30830718479E+02 -0.28822153005E+03 -0.35815569073E+03  0.47741248662E+03  0.12500000000E+03 0.  0.
         21    1    1    2  503  501  0.17889457325E+02  0.26678680278E+03  0.14696084738E+03  0.30511099863E+03  0.00000000000E+00 0. -1.
         -4    1    1    2    0  502  0.12941261154E+02  0.21434727269E+02 -0.78662079786E+03  0.78701918871E+03  0.00000000000E+00 0.  1.
<mgrwt>
<rscale>  4 0.29837895E+03</rscale>
<asrwt>0</asrwt>
<pdfrwt beam="1">  1       21 0.43979001E-01 0.29837895E+03</pdfrwt>
<pdfrwt beam="2">  1       -4 0.19748911E+00 0.29837895E+03</pdfrwt>
<totfact> 0.30288273E+01</totfact>
</mgrwt>
</event>
<event>
 5    0  0.1239749E+000  0.2832502E+03  0.7546771E-02  0.1093927E+00
         21   -1    0    0  501  502  0.00000000000E+00  0.00000000000E+00  0.40543530640E+03  0.40543530640E+03  0.00000000000E+00 0.  1.
          2   -1    0    0  503    0 -0.00000000000E+00 -0.00000000000E+00 -0.53985260520E+03  0.53985260520E+03  0.00000000000E+00 0. -1.
         25    1    1    2    0    0 -0.21620994123E+02 -0.24073987232E+03  0.13878502993E+03  0.30546593598E+03  0.12500000000E+03 0.  0.
         21    1    1    2  503  502  0.46365268017E+02  0.26553675600E+03  0.82889689529E+02  0.28201100598E+03  0.00000000000E+00 0.  1.
          2    1    1    2  501    0 -0.24744273893E+02 -0.24796883683E+02 -0.35609201825E+03  0.35781096964E+03  0.00000000000E+00 0. -1.
<mgrwt>
<rscale>  4 0.28325023E+03</rscale>
<asrwt>0</asrwt>
<pdfrwt beam="1">  1       21 0.62374663E-01 0.28325023E+03</pdfrwt>
<pdfrwt beam="2">  1        2 0.83054246E-01 0.28325023E+03</pdfrwt>
<totfact> 0.16438052E+03</totfact>
</mgrwt>
</event>
<event>
 5    0  0.1239749E+000  0.2202343E+03  0.7546771E-02  0.1133708E+00
         21   -1    0    0  501  502  0.00000000000E+00  0.00000000000E+00  0.19871537533E+03  0.19871537533E+03  0.00000000000E+00 0. -1.
          2   -1    0    0  503    0 -0.00000000000E+00 -0.00000000000E+00 -0.65171112450E+03  0.65171112450E+03  0.00000000000E+00 0. -1.
         25    1    1    2    0    0 -0.24210685841E+01  0.21899675277E+03  0.13832168497E+02  0.25255052600E+03  0.12500000000E+03 0.  0.
         21    1    1    2  503  502 -0.16574291320E+02 -0.15170082632E+03 -0.30047387834E+02  0.15553357629E+03  0.00000000000E+00 0. -1.
          2    1    1    2  501    0  0.18995359904E+02 -0.67295926449E+02 -0.43678052984E+03  0.44234239754E+03  0.00000000000E+00 0. -1.
<mgrwt>
<rscale>  4 0.22023435E+03</rscale>
<asrwt>0</asrwt>
<pdfrwt beam="1">  1       21 0.30571596E-01 0.22023435E+03</pdfrwt>
<pdfrwt beam="2">  1        2 0.10026325E+00 0.22023435E+03</pdfrwt>
<totfact> 0.58634071E+03</totfact>
</mgrwt>
</event>
<event>
 5    0  0.1239749E+000  0.2662263E+03  0.7546771E-02  0.1103459E+00
          2   -1    0    0  503    0 -0.00000000000E+00  0.00000000000E+00  0.80337403151E+03  0.80337403151E+03  0.00000000000E+00 0. -1.
         21   -1    0    0  501  502  0.00000000000E+00 -0.00000000000E+00 -0.16967258510E+03  0.16967258510E+03  0.00000000000E+00 0. -1.
         25    1    1    2    0    0  0.18140907162E+03 -0.14078007091E+03  0.64921270547E+02  0.26938457826E+03  0.12500000000E+03 0.  0.
         21    1    1    2  503  502 -0.20745285166E+03  0.12667354811E+03  0.15383186622E+03  0.28765798532E+03  0.00000000000E+00 0. -1.
          2    1    1    2  501    0  0.26043780038E+02  0.14106522806E+02  0.41494830965E+03  0.41600405304E+03  0.00000000000E+00 0. -1.
<mgrwt>
<rscale>  4 0.26622635E+03</rscale>
<asrwt>0</asrwt>
<pdfrwt beam="1">  1       21 0.26103475E-01 0.26622635E+03</pdfrwt>
<pdfrwt beam="2">  1        2 0.12359600E+00 0.26622635E+03</pdfrwt>
<totfact> 0.60863720E+03</totfact>
</mgrwt>
</event>
<event>
 5    0  0.1239749E+000  0.2267557E+03  0.7546771E-02  0.1128944E+00
         21   -1    0    0  501  502  0.00000000000E+00  0.00000000000E+00  0.54529125790E+02  0.54529125790E+02  0.00000000000E+00 0.  1.
          1   -1    0    0  503    0 -0.00000000000E+00 -0.00000000000E+00 -0.10296159697E+04  0.10296159697E+04  0.00000000000E+00 0.  1.
         25    1    1    2    0    0  0.19766844133E+03 -0.44191175945E+02 -0.37303980019E+03  0.44250352005E+03  0.12500000000E+03 0.  0.
         21    1    1    2  503  502 -0.15973250228E+03  0.71630109931E+02 -0.47933449335E+03  0.51030079507E+03  0.00000000000E+00 0.  1.
          1    1    1    2  501    0 -0.37935939052E+02 -0.27438933986E+02 -0.12271255037E+03  0.13134078037E+03  0.00000000000E+00 0.  1.
<mgrwt>
<rscale>  4 0.22675568E+03</rscale>
<asrwt>0</asrwt>
<pdfrwt beam="1">  1       21 0.83890966E-02 0.22675568E+03</pdfrwt>
<pdfrwt beam="2">  1        1 0.15840245E+00 0.22675568E+03</pdfrwt>
<totfact> 0.18741191E+04</totfact>
</mgrwt>
</event>
<event>
 5    0  0.1239749E+000  0.2721497E+03  0.7546771E-02  0.1100056E+00
         21   -1    0    0  501  502  0.00000000000E+00  0.00000000000E+00  0.35995920220E+03  0.35995920220E+03  0.00000000000E+00 0. -1.
          3   -1    0    0  503    0 -0.00000000000E+00 -0.00000000000E+00 -0.76549671122E+03  0.76549671122E+03  0.00000000000E+00 0. -1.
         25    1    1    2    0    0 -0.87276324857E+02  0.32536613136E+03 -0.66321342266E+02  0.36538171377E+03  0.12500000000E+03 0.  0.
         21    1    1    2  503  502  0.55022734846E+02 -0.20923460267E+03  0.14541765379E+03  0.26067779794E+03  0.00000000000E+00 0. -1.
          3    1    1    2  501    0  0.32253590011E+02 -0.11613152869E+03 -0.48463382055E+03  0.49939640171E+03  0.00000000000E+00 0. -1.
<mgrwt>
<rscale>  4 0.27214971E+03</rscale>
<asrwt>0</asrwt>
<pdfrwt beam="1">  1       21 0.55378339E-01 0.27214971E+03</pdfrwt>
<pdfrwt beam="2">  1        3 0.11776872E+00 0.27214971E+03</pdfrwt>
<totfact> 0.91802420E+01</totfact>
</mgrwt>
</event>
<event>
 5    0  0.1239749E+000  0.3801969E+03  0.7546771E-02  0.1050861E+00
          3   -1    0    0  503    0 -0.00000000000E+00  0.00000000000E+00  0.68197779544E+03  0.68197779544E+03  0.00000000000E+00 0.  1.
         21   -1    0    0  501  502  0.00000000000E+00 -0.00000000000E+00 -0.54479048826E+03  0.54479048826E+03  0.00000000000E+00 0.  1.
         25    1    1    2    0    0 -0.34536624205E+03 -0.17194718462E+03 -0.30238242412E+03  0.50586935651E+03  0.12500000000E+03 0.  0.
         21    1    1    2  503  502  0.87735063825E+02 -0.70609616219E+01  0.39421452804E+03  0.40392127045E+03  0.00000000000E+00 0.  1.
          3    1    1    2  501    0  0.25763117822E+03  0.17900814624E+03  0.45355203259E+02  0.31697765675E+03  0.00000000000E+00 0.  1.
<mgrwt>
<rscale>  4 0.38019694E+03</rscale>
<asrwt>0</asrwt>
<pdfrwt beam="1">  1       21 0.83813921E-01 0.38019694E+03</pdfrwt>
<pdfrwt beam="2">  1        3 0.10491966E+00 0.38019694E+03</pdfrwt>
<totfact> 0.46571035E+01</totfact>
</mgrwt>
</event>
<event>
 5    0  0.1239749E+000  0.3463652E+03  0.7546771E-02  0.1064117E+00
         21   -1    0    0  501  502  0.00000000000E+00  0.00000000000E+00  0.11100618391E+04  0.11100618391E+04  0.00000000000E+00 0.  1.
          2   -1    0    0  503    0 -0.00000000000E+00 -0.00000000000E+00 -0.32177795014E+03  0.32177795014E+03  0.00000000000E+00 0.  1.
         25    1    1    2    0    0  0.27594256889E+03 -0.13069554164E+03  0.22503137521E+03  0.39936167287E+03  0.12500000000E+03 0.  0.
         21    1    1    2  503  502 -0.28580046760E+03  0.16553042345E+03  0.76198037730E+03  0.83047957456E+03  0.00000000000E+00 0.  1.
          2    1    1    2  501    0  0.98578987100E+01 -0.34834881811E+02 -0.19872786352E+03  0.20199854182E+03  0.00000000000E+00 0.  1.
<mgrwt>
<rscale>  4 0.34636520E+03</rscale>
<asrwt>0</asrwt>
<pdfrwt beam="1">  1       21 0.17077874E+00 0.34636520E+03</pdfrwt>
<pdfrwt beam="2">  1        2 0.49504301E-01 0.34636520E+03</pdfrwt>
<totfact> 0.24244312E+02</totfact>
</mgrwt>
</event>
<event>
 5    0  0.1239749E+000  0.2461486E+03  0.7546771E-02  0.1115763E+00
         21   -1    0    0  501  502  0.00000000000E+00  0.00000000000E+00  0.53647497314E+03  0.53647497314E+03  0.00000000000E+00 0.  1.
          1   -1    0    0  503    0 -0.00000000000E+00 -0.00000000000E+00 -0.49002205377E+03  0.49002205377E+03  0.00000000000E+00 0. -1.
         25    1    1    2    0    0  0.18458647920E+03 -0.95205793748E+02  0.40690204286E+03  0.47363549693E+03  0.12500000000E+03 0.  0.
         21    1    1    2  503  502 -0.20349802981E+03  0.10736200650E+03 -0.42324083252E+02  0.23394310548E+03  0.00000000000E+00 0.  1.
          1    1    1    2  501    0  0.18911550615E+02 -0.12156212747E+02 -0.31812504025E+03  0.31891842450E+03  0.00000000000E+00 0. -1.
<mgrwt>
<rscale>  4 0.24614856E+03</rscale>
<asrwt>0</asrwt>
<pdfrwt beam="1">  1       21 0.82534611E-01 0.24614856E+03</pdfrwt>
<pdfrwt beam="2">  1        1 0.75388008E-01 0.24614856E+03</pdfrwt>
<totfact> 0.63837480E+02</totfact>
</mgrwt>
</event>
<event>
 5    0  0.1239749E+000  0.2710902E+03  0.7546771E-02  0.1100657E+00
         21   -1    0    0  501  502  0.00000000000E+00  0.00000000000E+00  0.24751228776E+03  0.24751228776E+03  0.00000000000E+00 0. -1.
          2   -1    0    0  503    0 -0.00000000000E+00 -0.00000000000E+00 -0.17763303970E+04  0.17763303970E+04  0.00000000000E+00 0. -1.
         25    1    1    2    0    0  0.21501176795E+01 -0.23106758991E+03  0.10086152152E+03  0.28141588555E+03  0.12500000000E+03 0.  0.
         21    1    1    2  503  502  0.62590302128E+02  0.27803515756E+03 -0.31295527118E+03  0.42327543812E+03  0.00000000000E+00 0. -1.
          2    1    1    2  501    0 -0.64740419807E+02 -0.46967567642E+02 -0.13167243596E+04  0.13191513611E+04  0.00000000000E+00 0. -1.
<mgrwt>
<rscale>  4 0.27109016E+03</rscale>
<asrwt>0</asrwt>
<pdfrwt beam="1">  1       21 0.38078814E-01 0.27109016E+03</pdfrwt>
<pdfrwt beam="2">  1        2 0.27328160E+00 0.27109016E+03</pdfrwt>
<totfact> 0.79818780E+02</totfact>
</mgrwt>
</event>
<event>
 5    0  0.1239749E+000  0.3338723E+03  0.7546771E-02  0.1069436E+00
          4   -1    0    0  503    0 -0.00000000000E+00  0.00000000000E+00  0.99154678101E+03  0.99154678101E+03  0.00000000000E+00 0.  1.
         21   -1    0    0  501  502  0.00000000000E+00 -0.00000000000E+00 -0.91250533351E+03  0.91250533351E+03  0.00000000000E+00 0. -1.
         25    1    1    2    0    0 -0.24504570908E+03 -0.19446943661E+03 -0.81317040417E+03  0.88019138120E+03  0.12500000000E+03 0.  0.
         21    1    1    2  503  502  0.29416359840E+02  0.10818641399E+03  0.11110488185E+02  0.11266350494E+03  0.00000000000E+00 0. -1.
          4    1    1    2  501    0  0.21562934925E+03  0.86283022619E+02  0.88110136349E+03  0.91119722837E+03  0.00000000000E+00 0.  1.
<mgrwt>
<rscale>  4 0.33387227E+03</rscale>
<asrwt>0</asrwt>
<pdfrwt beam="1">  1       21 0.14038544E+00 0.33387227E+03</pdfrwt>
<pdfrwt beam="2">  1        4 0.15254566E+00 0.33387227E+03</pdfrwt>
<totfact> 0.42092601E+00</totfact>
</mgrwt>
</event>
<event>
 5    0  0.1239749E+000  0.7195416E+03  0.7546771E-02  0.9684385E-01
          2   -1    0    0  503    0 -0.00000000000E+00  0.00000000000E+00  0.10212294317E+04  0.10212294317E+04  0.00000000000E+00 0.  1.
         21   -1    0    0  501  502  0.00000000000E+00 -0.00000000000E+00 -0.82152525805E+03  0.82152525805E+03  0.00000000000E+00 0.  1.
         25    1    1    2    0    0 -0.56042712266E+03  0.49528840982E+03 -0.29386126703E+03  0.81324572731E+03  0.12500000000E+03 0.  0.
         21    1    1    2  503  502  0.44986873616E+03 -0.46701021160E+03  0.14735624038E+03  0.66497690117E+03  0.00000000000E+00 0.  1.
          2    1    1    2  501    0  0.11055838650E+03 -0.28278198226E+02  0.34620920030E+03  0.36453206127E+03  0.00000000000E+00 0.  1.
<mgrwt>
<rscale>  4 0.71954157E+03</rscale>
<asrwt>0</asrwt>
<pdfrwt beam="1">  1       21 0.12638850E+00 0.71954157E+03</pdfrwt>
<pdfrwt beam="2">  1        2 0.15711222E+00 0.71954157E+03</pdfrwt>
<totfact> 0.12076415E+02</totfact>
</mgrwt>
</event>
<event>
 5    0  0.1239749E+000  0.1878856E+03  0.7546771E-02  0.1160382E+00
         21   -1    0    0  501  502  0.00000000000E+00  0.00000000000E+00  0.11498607866E+04  0.11498607866E+04  0.00000000000E+00 0.  1.
          2   -1    0    0  503    0 -0.00000000000E+00 -0.00000000000E+00 -0.74429927320E+03  0.74429927320E+03  0.00000000000E+00 0. -1.
         25    1    1    2    0    0 -0.20702337459E+03  0.42191565186E+02  0.82173261991E+03  0.85761780790E+03  0.12500000000E+03 0.  0.
         21    1    1    2  503  502  0.85269831038E+02  0.26468660924E+02  0.29683098261E+03  0.30996800856E+03  0.00000000000E+00 0.  1.
          2    1    1    2  501    0  0.12175354355E+03 -0.68660226110E+02 -0.71300208911E+03  0.72657424335E+03  0.00000000000E+00 0. -1.
<mgrwt>
<rscale>  4 0.18788557E+03</rscale>
<asrwt>0</asrwt>
<pdfrwt beam="1">  1       21 0.17690166E+00 0.18788557E+03</pdfrwt>
<pdfrwt beam="2">  1        2 0.11450758E+00 0.18788557E+03</pdfrwt>
<totfact> 0.94248002E+01</totfact>
</mgrwt>
</event>
<event>
 5    0  0.1239749E+000  0.6147321E+03  0.7546771E-02  0.9875304E-01
          2   -1    0    0  503    0 -0.00000000000E+00  0.00000000000E+00  0.14169857659E+04  0.14169857659E+04  0.00000000000E+00 0.  1.
         21   -1    0    0  501  502  0.00000000000E+00 -0.00000000000E+00 -0.37788723874E+03  0.37788723874E+03  0.00000000000E+00 0.  1.
         25    1    1    2    0    0 -0.20775658063E+03  0.43749810119E+03  0.57424048359E+03  0.76154088422E+03  0.12500000000E+03 0.  0.
         21    1    1    2  503  502  0.26818938868E+03 -0.64935515852E+03  0.35339984177E+03  0.78643443354E+03  0.00000000000E+00 0.  1.
          2    1    1    2  501    0 -0.60432808046E+02  0.21185705733E+03  0.11145820176E+03  0.24689768684E+03  0.00000000000E+00 0.  1.
<mgrwt>
<rscale>  4 0.61473205E+03</rscale>
<asrwt>0</asrwt>
<pdfrwt beam="1">  1       21 0.58136499E-01 0.61473205E+03</pdfrwt>
<pdfrwt beam="2">  1        2 0.21799781E+00 0.61473205E+03</pdfrwt>
<totfact> 0.45807385E+02</totfact>
</mgrwt>
</event>
<event>
 5    0  0.1239749E+000  0.2732728E+03  0.7546771E-02  0.1099421E+00
          2   -1    0    0  503    0 -0.00000000000E+00  0.00000000000E+00  0.15391618831E+04  0.15391618831E+04  0.00000000000E+00 0.  1.
         21   -1    0    0  501  502  0.00000000000E+00 -0.00000000000E+00 -0.42616655808E+03  0.42616655808E+03  0.00000000000E+00 0.  1.
         25    1    1    2    0    0  0.26974279220E+03  0.83767599558E+02  0.13563195962E+03  0.33734138962E+03  0.12500000000E+03 0.  0.
         21    1    1    2  503  502 -0.23282933426E+03 -0.39809874920E+02 -0.28169401629E+03  0.36762187618E+03  0.00000000000E+00 0.  1.
          2    1    1    2  501    0 -0.36913457934E+02 -0.43957724638E+02  0.12590573817E+04  0.12603651754E+04  0.00000000000E+00 0.  1.
<mgrwt>
<rscale>  4 0.27327279E+03</rscale>
<asrwt>0</asrwt>
<pdfrwt beam="1">  1       21 0.65564087E-01 0.27327279E+03</pdfrwt>
<pdfrwt beam="2">  1        2 0.23679413E+00 0.27327279E+03</pdfrwt>
<totfact> 0.33897440E+02</totfact>
</mgrwt>
</event>
<event>
 5    0  0.1239749E+000  0.2566416E+03  0.7546771E-02  0.1109178E+00
         21   -1    0    0  503  502  0.00000000000E+00  0.00000000000E+00  0.17421723546E+04  0.17421723546E+04  0.00000000000E+00 0.  1.
         -2   -1    0    0    0  501 -0.00000000000E+00 -0.00000000000E+00 -0.73265940623E+02  0.73265940623E+02  0.00000000000E+00 0.  1.
         25    1    1    2    0    0  0.11961911698E+02  0.26439500462E+03  0.86000552658E+03  0.90845050033E+03  0.12500000000E+03 0.  0.
         21    1    1    2  503  501 -0.77846472454E+02 -0.58817517273E+02  0.59549101260E+03  0.60343112258E+03  0.00000000000E+00 0.  1.
         -2    1    1    2    0  502  0.65884560756E+02 -0.20557748735E+03  0.21340987483E+03  0.30355667235E+03  0.00000000000E+00 0.  1.
<mgrwt>
<rscale>  4 0.25664159E+03</rscale>
<asrwt>0</asrwt>
<pdfrwt beam="1">  1       21 0.26802649E+00 0.25664159E+03</pdfrwt>
<pdfrwt beam="2">  1       -2 0.11271684E-01 0.25664159E+03</pdfrwt>
<totfact> 0.21366824E+02</totfact>
</mgrwt>
</event>
<event>
 5    0  0.1239749E+000  0.2825061E+03  0.7546771E-02  0.1094328E+00
          2   -1    0    0  503    0 -0.00000000000E+00  0.00000000000E+00  0.17204383713E+04  0.17204383713E+04  0.00000000000E+00 0.  1.
         21   -1    0    0  501  502  0.00000000000E+00 -0.00000000000E+00 -0.23915501558E+03  0.23915501558E+03  0.00000000000E+00 0.  1.
         25    1    1    2    0    0  0.24693207697E+03  0.48936179332E+02 -0.99669273247E+02  0.29820993329E+03  0.12500000000E+03 0.  0.
         21    1    1    2  503  502 -0.25063651891E+03 -0.73044338412E+02  0.38490466400E+03  0.46508680948E+03  0.00000000000E+00 0.  1.
          2    1    1    2  501    0  0.37044419462E+01  0.24108159081E+02  0.11960479649E+04  0.11962966441E+04  0.00000000000E+00 0.  1.
<mgrwt>
<rscale>  4 0.28250615E+03</rscale>
<asrwt>0</asrwt>
<pdfrwt beam="1">  1       21 0.36793080E-01 0.28250615E+03</pdfrwt>
<pdfrwt beam="2">  1        2 0.26468282E+00 0.28250615E+03</pdfrwt>
<totfact> 0.91036622E+02</totfact>
</mgrwt>
</event>
<event>
 5    0  0.1239749E+000  0.2560475E+03  0.7546771E-02  0.1109541E+00
         21   -1    0    0  501  502  0.00000000000E+00  0.00000000000E+00  0.24135714002E+03  0.24135714002E+03  0.00000000000E+00 0. -1.
          1   -1    0    0  503    0 -0.00000000000E+00 -0.00000000000E+00 -0.56289653860E+03  0.56289653860E+03  0.00000000000E+00 0. -1.
         25    1    1    2    0    0  0.25966679524E+03 -0.18900800262E+02  0.77678695793E+02  0.29907033384E+03  0.12500000000E+03 0.  0.
         21    1    1    2  503  502 -0.15039291168E+03  0.80102706048E+02 -0.15328886782E+03  0.22919849127E+03  0.00000000000E+00 0. -1.
          1    1    1    2  501    0 -0.10927388356E+03 -0.61201905786E+02 -0.24592922655E+03  0.27598485351E+03  0.00000000000E+00 0. -1.
<mgrwt>
<rscale>  4 0.25604751E+03</rscale>
<asrwt>0</asrwt>
<pdfrwt beam="1">  1       21 0.37131868E-01 0.25604751E+03</pdfrwt>
<pdfrwt beam="2">  1        1 0.86599467E-01 0.25604751E+03</pdfrwt>
<totfact> 0.29134311E+03</totfact>
</mgrwt>
</event>
<event>
 5    0  0.1239749E+000  0.3066785E+03  0.7546771E-02  0.1081949E+00
         21   -1    0    0  501  502  0.00000000000E+00  0.00000000000E+00  0.21194649784E+03  0.21194649784E+03  0.00000000000E+00 0. -1.
          2   -1    0    0  503    0 -0.00000000000E+00 -0.00000000000E+00 -0.16921655726E+04  0.16921655726E+04  0.00000000000E+00 0. -1.
         25    1    1    2    0    0  0.28615439031E+03  0.64570095700E+02  0.12605997688E+02  0.31911995163E+03  0.12500000000E+03 0.  0.
         21    1    1    2  503  502 -0.25147508067E+03 -0.15829082013E+02 -0.30481733531E+03  0.39547930911E+03  0.00000000000E+00 0. -1.
          2    1    1    2  501    0 -0.34679309644E+02 -0.48741013687E+02 -0.11880077372E+04  0.11895128097E+04  0.00000000000E+00 0. -1.
<mgrwt>
<rscale>  4 0.30667849E+03</rscale>
<asrwt>0</asrwt>
<pdfrwt beam="1">  1       21 0.32607155E-01 0.30667849E+03</pdfrwt>
<pdfrwt beam="2">  1        2 0.26033316E+00 0.30667849E+03</pdfrwt>
<totfact> 0.11874135E+03</totfact>
</mgrwt>
</event>
<event>
 5    0  0.1239749E+000  0.2380994E+03  0.7546771E-02  0.1121065E+00
         -3   -1    0    0    0  501 -0.00000000000E+00  0.00000000000E+00  0.12980968236E+04  0.12980968236E+04  0.00000000000E+00 0.  1.
         21   -1    0    0  503  502  0.00000000000E+00 -0.00000000000E+00 -0.11856565212E+03  0.11856565212E+03  0.00000000000E+00 0.  1.
         25    1    1    2    0    0 -0.19309873728E+03 -0.81409781393E+02  0.35379108220E+02  0.24655903176E+03  0.12500000000E+03 0.  0.
         21    1    1    2  503  501  0.20390774248E+02  0.64435703400E+02  0.42296308747E+03  0.42832874864E+03  0.00000000000E+00 0.  1.
         -3    1    1    2    0  502  0.17270796303E+03  0.16974077993E+02  0.72118897581E+03  0.74177469534E+03  0.00000000000E+00 0.  1.
<mgrwt>
<rscale>  4 0.23809943E+03</rscale>
<asrwt>0</asrwt>
<pdfrwt beam="1">  1       21 0.18240870E-01 0.23809943E+03</pdfrwt>
<pdfrwt beam="2">  1       -3 0.19970719E+00 0.23809943E+03</pdfrwt>
<totfact> 0.21535331E+02</totfact>
</mgrwt>
</event>
<event>
 5    0  0.1239749E+000  0.2528922E+03  0.7546771E-02  0.1111491E+00
          1   -1    0    0  503    0 -0.00000000000E+00  0.00000000000E+00  0.14526112764E+03  0.14526112764E+03  0.00000000000E+00 0.  1.
         21   -1    0    0  501  502  0.00000000000E+00 -0.00000000000E+00 -0.83128932613E+03  0.83128932613E+03  0.00000000000E+00 0.  1.
         25    1    1    2    0    0 -0.18923878186E+03 -0.96512530706E+02 -0.62272563020E+03  0.66972994233E+03  0.12500000000E+03 0.  0.
         21    1    1    2  503  502  0.22657191166E+03  0.10045950281E+03 -0.86715614998E+02  0.26257673306E+03  0.00000000000E+00 0.  1.
          1    1    1    2  501    0 -0.37333129799E+02 -0.39469721047E+01  0.23413046711E+02  0.44243778384E+02  0.00000000000E+00 0.  1.
<mgrwt>
<rscale>  4 0.25289217E+03</rscale>
<asrwt>0</asrwt>
<pdfrwt beam="1">  1       21 0.12789066E+00 0.25289217E+03</pdfrwt>
<pdfrwt beam="2">  1        1 0.22347866E-01 0.25289217E+03</pdfrwt>
<totfact> 0.10441304E+03</totfact>
</mgrwt>
</event>
<event>
 5    0  0.1239749E+000  0.2410047E+03  0.7546771E-02  0.1119125E+00
         21   -1    0    0  503  502  0.00000000000E+00  0.00000000000E+00  0.88742134927E+03  0.88742134927E+03  0.00000000000E+00 0. -1.
         -1   -1    0    0    0  501 -0.00000000000E+00 -0.00000000000E+00 -0.19045335305E+03  0.19045335305E+03  0.00000000000E+00 0.  1.
         25    1    1    2    0    0 -0.17874359223E+03 -0.10149713231E+03  0.75291736204E+03  0.79041792344E+03  0.12500000000E+03 0.  0.
         21    1    1    2  503  501  0.21091069445E+03  0.49943025443E+02 -0.22017912863E+02  0.21785870493E+03  0.00000000000E+00 0.  1.
         -1    1    1    2    0  502 -0.32167102220E+02  0.51554106862E+02 -0.33931452953E+02  0.69598073961E+02  0.00000000000E+00 0.  1.
<mgrwt>
<rscale>  4 0.24100466E+03</rscale>
<asrwt>0</asrwt>
<pdfrwt beam="1">  1       21 0.13652636E+00 0.24100466E+03</pdfrwt>
<pdfrwt beam="2">  1       -1 0.29300516E-01 0.24100466E+03</pdfrwt>
<totfact> 0.36146874E+02</totfact>
</mgrwt>
</event>
<event>
 5    0  0.1239749E+000  0.2318857E+03  0.7546771E-02  0.1125320E+00
         21   -1    0    0  501  502  0.00000000000E+00  0.00000000000E+00  0.14599478460E+03  0.14599478460E+03  0.00000000000E+00 0. -1.
          2   -1    0    0  503    0 -0.00000000000E+00 -0.00000000000E+00 -0.53115298709E+03  0.53115298709E+03  0.00000000000E+00 0. -1.
         25    1    1    2    0    0 -0.20119532933E+03 -0.20837183467E+02 -0.30000416334E+03  0.38280706208E+03  0.12500000000E+03 0.  0.
         21    1    1    2  503  502  0.23768560275E+02 -0.61925137653E+02 -0.72332767104E+02  0.98141206064E+02  0.00000000000E+00 0. -1.
          2    1    1    2  501    0  0.17742676905E+03  0.82762321119E+02 -0.12821272039E+02  0.19619950354E+03  0.00000000000E+00 0. -1.
<mgrwt>
<rscale>  4 0.23188568E+03</rscale>
<asrwt>0</asrwt>
<pdfrwt beam="1">  1       21 0.22460736E-01 0.23188568E+03</pdfrwt>
<pdfrwt beam="2">  1        2 0.81715845E-01 0.23188568E+03</pdfrwt>
<totfact> 0.13415749E+04</totfact>
</mgrwt>
</event>
<event>
 5    0  0.1239749E+000  0.2724919E+03  0.7546771E-02  0.1099862E+00
         21   -1    0    0  501  502  0.00000000000E+00  0.00000000000E+00  0.26680275951E+03  0.26680275951E+03  0.00000000000E+00 0. -1.
          2   -1    0    0  503    0 -0.00000000000E+00 -0.00000000000E+00 -0.18110856185E+04  0.18110856185E+04  0.00000000000E+00 0. -1.
         25    1    1    2    0    0  0.23496360544E+03 -0.21286122531E+02  0.74836751689E+02  0.27728421213E+03  0.12500000000E+03 0.  0.
         21    1    1    2  503  502 -0.25067951782E+03  0.35296335704E+02 -0.86031378743E+02  0.26737137113E+03  0.00000000000E+00 0. -1.
          2    1    1    2  501    0  0.15715912388E+02 -0.14010213173E+02 -0.15330882320E+04  0.15332327948E+04  0.00000000000E+00 0. -1.
<mgrwt>
<rscale>  4 0.27249194E+03</rscale>
<asrwt>0</asrwt>
<pdfrwt beam="1">  1       21 0.41046579E-01 0.27249194E+03</pdfrwt>
<pdfrwt beam="2">  1        2 0.27862855E+00 0.27249194E+03</pdfrwt>
<totfact> 0.65649135E+02</totfact>
</mgrwt>
</event>
<event>
 5    0  0.1239749E+000  0.2486361E+03  0.7546771E-02  0.1114170E+00
         21   -1    0    0  501  502  0.00000000000E+00  0.00000000000E+00  0.12149327348E+03  0.12149327348E+03  0.00000000000E+00 0. -1.
          2   -1    0    0  503    0 -0.00000000000E+00 -0.00000000000E+00 -0.88100548200E+03  0.88100548200E+03  0.00000000000E+00 0. -1.
         25    1    1    2    0    0  0.19230440912E+03  0.13745827934E+03 -0.15802927459E+03  0.31060266572E+03  0.12500000000E+03 0.  0.
         21    1    1    2  503  502 -0.20051227255E+03 -0.30041072047E+02 -0.23733444750E+03  0.31214624365E+03  0.00000000000E+00 0. -1.
          2    1    1    2  501    0  0.82078634294E+01 -0.10741720729E+03 -0.36414848644E+03  0.37974984611E+03  0.00000000000E+00 0. -1.
<mgrwt>
<rscale>  4 0.24863611E+03</rscale>
<asrwt>0</asrwt>
<pdfrwt beam="1">  1       21 0.18691273E-01 0.24863611E+03</pdfrwt>
<pdfrwt beam="2">  1        2 0.13553931E+00 0.24863611E+03</pdfrwt>
<totfact> 0.10222358E+04</totfact>
</mgrwt>
</event>
<event>
 5    0  0.1239749E+000  0.2535888E+03  0.7546771E-02  0.1111058E+00
          1   -1    0    0  503    0 -0.00000000000E+00  0.00000000000E+00  0.69119693201E+03  0.69119693201E+03  0.00000000000E+00 0. -1.
         21   -1    0    0  501  502  0.00000000000E+00 -0.00000000000E+00 -0.13477475465E+03  0.13477475465E+03  0.00000000000E+00 0. -1.
         25    1    1    2    0    0  0.21171312238E+03 -0.50725422279E+01  0.14368788877E+03  0.28481465245E+03  0.12500000000E+03 0.  0.
         21    1    1    2  503  502 -0.22828341303E+03  0.24371574943E+02  0.14353237348E+03  0.27075603884E+03  0.00000000000E+00 0. -1.
          1    1    1    2  501    0  0.16570290653E+02 -0.19299032715E+02  0.26920191511E+03  0.27040099537E+03  0.00000000000E+00 0. -1.
<mgrwt>
<rscale>  4 0.25358883E+03</rscale>
<asrwt>0</asrwt>
<pdfrwt beam="1">  1       21 0.20734578E-01 0.25358883E+03</pdfrwt>
<pdfrwt beam="2">  1        1 0.10633799E+00 0.25358883E+03</pdfrwt>
<totfact> 0.67842793E+03</totfact>
</mgrwt>
</event>
<event>
 5    0  0.1239749E+000  0.2591456E+03  0.7546771E-02  0.1107658E+00
         21   -1    0    0  503  502  0.00000000000E+00  0.00000000000E+00  0.11788558841E+04  0.11788558841E+04  0.00000000000E+00 0. -1.
         -2   -1    0    0    0  501 -0.00000000000E+00 -0.00000000000E+00 -0.43988897108E+03  0.43988897108E+03  0.00000000000E+00 0. -1.
         25    1    1    2    0    0 -0.20913721634E+03 -0.12101423616E+03  0.97783845753E+03  0.10149757976E+04  0.12500000000E+03 0.  0.
         21    1    1    2  503  501  0.20401982830E+03 -0.72231400222E+01  0.11010124995E+03  0.23194514294E+03  0.00000000000E+00 0. -1.
         -2    1    1    2    0  502  0.51173880407E+01  0.12823737618E+03 -0.34897279442E+03  0.37182391472E+03  0.00000000000E+00 0. -1.
<mgrwt>
<rscale>  4 0.25914562E+03</rscale>
<asrwt>0</asrwt>
<pdfrwt beam="1">  1       21 0.18136244E+00 0.25914562E+03</pdfrwt>
<pdfrwt beam="2">  1       -2 0.67675227E-01 0.25914562E+03</pdfrwt>
<totfact> 0.28281445E+01</totfact>
</mgrwt>
</event>
<event>
 5    0  0.1239749E+000  0.2573806E+03  0.7546771E-02  0.1108727E+00
         21   -1    0    0  501  502  0.00000000000E+00  0.00000000000E+00  0.31442581764E+03  0.31442581764E+03  0.00000000000E+00 0.  1.
          2   -1    0    0  503    0 -0.00000000000E+00 -0.00000000000E+00 -0.29568945939E+04  0.29568945939E+04  0.00000000000E+00 0. -1.
         25    1    1    2    0    0  0.19725783183E+03  0.11847473941E+03  0.17133030296E+03  0.31293128448E+03  0.12500000000E+03 0.  0.
         21    1    1    2  503  502 -0.24691934834E+03  0.29685656811E+02 -0.15087513650E+03  0.29088435781E+03  0.00000000000E+00 0.  1.
          2    1    1    2  501    0  0.49661516515E+02 -0.14816039622E+03 -0.26629239428E+04  0.26675047693E+04  0.00000000000E+00 0. -1.
<mgrwt>
<rscale>  4 0.25738058E+03</rscale>
<asrwt>0</asrwt>
<pdfrwt beam="1">  1       21 0.48373203E-01 0.25738058E+03</pdfrwt>
<pdfrwt beam="2">  1        2 0.45490686E+00 0.25738058E+03</pdfrwt>
<totfact> 0.11190910E+02</totfact>
</mgrwt>
</event>
<event>
 5    0  0.1239749E+000  0.3014043E+03  0.7546771E-02  0.1084541E+00
         21   -1    0    0  503  502  0.00000000000E+00  0.00000000000E+00  0.35943754486E+03  0.35943754486E+03  0.00000000000E+00 0. -1.
         -1   -1    0    0    0  501 -0.00000000000E+00 -0.00000000000E+00 -0.94586083522E+03  0.94586083522E+03  0.00000000000E+00 0. -1.
         25    1    1    2    0    0  0.28032286225E+03  0.23536541555E+02  0.20312382304E+03  0.36880775938E+03  0.12500000000E+03 0.  0.
         21    1    1    2  503  501 -0.81709598032E+02  0.18602240814E+03 -0.23032481170E+03  0.30713240407E+03  0.00000000000E+00 0. -1.
         -1    1    1    2    0  502 -0.19861326422E+03 -0.20955894970E+03 -0.55922230170E+03  0.62935821664E+03  0.00000000000E+00 0. -1.
<mgrwt>
<rscale>  4 0.30140428E+03</rscale>
<asrwt>0</asrwt>
<pdfrwt beam="1">  1       21 0.55298083E-01 0.30140428E+03</pdfrwt>
<pdfrwt beam="2">  1       -1 0.14551705E+00 0.30140428E+03</pdfrwt>
<totfact> 0.11261446E+02</totfact>
</mgrwt>
</event>
<event>
 5    0  0.1239749E+000  0.2612025E+03  0.7546771E-02  0.1106423E+00
         21   -1    0    0  501  502  0.00000000000E+00  0.00000000000E+00  0.60141272858E+03  0.60141272858E+03  0.00000000000E+00 0. -1.
          2   -1    0    0  503    0 -0.00000000000E+00 -0.00000000000E+00 -0.18653647084E+04  0.18653647084E+04  0.00000000000E+00 0. -1.
         25    1    1    2    0    0  0.25979824203E+03 -0.67334551086E+02  0.24359186867E+03  0.38339414030E+03  0.12500000000E+03 0.  0.
         21    1    1    2  503  502 -0.21156368608E+03 -0.43281356943E+02  0.24506015837E+03  0.32662968381E+03  0.00000000000E+00 0. -1.
          2    1    1    2  501    0 -0.48234555958E+02  0.11061590803E+03 -0.17526040069E+04  0.17567536129E+04  0.00000000000E+00 0. -1.
<mgrwt>
<rscale>  4 0.26120248E+03</rscale>
<asrwt>0</asrwt>
<pdfrwt beam="1">  1       21 0.92525034E-01 0.26120248E+03</pdfrwt>
<pdfrwt beam="2">  1        2 0.28697919E+00 0.26120248E+03</pdfrwt>
<totfact> 0.10514321E+02</totfact>
</mgrwt>
</event>
<event>
 5    0  0.1239749E+000  0.2180787E+03  0.7546771E-02  0.1135324E+00
         21   -1    0    0  501  502  0.00000000000E+00  0.00000000000E+00  0.24345651475E+03  0.24345651475E+03  0.00000000000E+00 0.  1.
          2   -1    0    0  503    0 -0.00000000000E+00 -0.00000000000E+00 -0.82802562654E+03  0.82802562654E+03  0.00000000000E+00 0.  1.
         25    1    1    2    0    0 -0.57994584841E+01  0.23070269367E+03 -0.26208411907E+03  0.37090490972E+03  0.12500000000E+03 0.  0.
         21    1    1    2  503  502  0.57181752081E+02 -0.16354134911E+03  0.14474417164E+03  0.22575739382E+03  0.00000000000E+00 0.  1.
          2    1    1    2  501    0 -0.51382293597E+02 -0.67161344559E+02 -0.46722916436E+03  0.47481983776E+03  0.00000000000E+00 0.  1.
<mgrwt>
<rscale>  4 0.21807873E+03</rscale>
<asrwt>0</asrwt>
<pdfrwt beam="1">  1       21 0.37454848E-01 0.21807873E+03</pdfrwt>
<pdfrwt beam="2">  1        2 0.12738856E+00 0.21807873E+03</pdfrwt>
<totfact> 0.29210410E+03</totfact>
</mgrwt>
</event>
<event>
 5    0  0.1239749E+000  0.2649460E+03  0.7546771E-02  0.1104207E+00
          1   -1    0    0  503    0 -0.00000000000E+00  0.00000000000E+00  0.27500197892E+04  0.27500197892E+04  0.00000000000E+00 0.  1.
         21   -1    0    0  501  502  0.00000000000E+00 -0.00000000000E+00 -0.21255449191E+03  0.21255449191E+03  0.00000000000E+00 0. -1.
         25    1    1    2    0    0 -0.17197645089E+03 -0.10770708349E+03  0.26901938430E+02  0.23984459507E+03  0.12500000000E+03 0.  0.
         21    1    1    2  503  502  0.23134077011E+03  0.14820882995E+03  0.73228713415E+02  0.28433581143E+03  0.00000000000E+00 0. -1.
          1    1    1    2  501    0 -0.59364319222E+02 -0.40501746464E+02  0.24373346455E+04  0.24383938747E+04  0.00000000000E+00 0.  1.
<mgrwt>
<rscale>  4 0.26494603E+03</rscale>
<asrwt>0</asrwt>
<pdfrwt beam="1">  1       21 0.32700693E-01 0.26494603E+03</pdfrwt>
<pdfrwt beam="2">  1        1 0.42307994E+00 0.26494603E+03</pdfrwt>
<totfact> 0.10567012E+02</totfact>
</mgrwt>
</event>
<event>
 5    0  0.1239749E+000  0.4750873E+03  0.7546771E-02  0.1020494E+00
          1   -1    0    0  503    0 -0.00000000000E+00  0.00000000000E+00  0.99100181802E+03  0.99100181802E+03  0.00000000000E+00 0.  1.
         21   -1    0    0  501  502  0.00000000000E+00 -0.00000000000E+00 -0.67823545235E+03  0.67823545235E+03  0.00000000000E+00 0.  1.
         25    1    1    2    0    0 -0.16961229548E+03 -0.45266717891E+03 -0.46546665731E+03  0.68261271209E+03  0.12500000000E+03 0.  0.
         21    1    1    2  503  502  0.20566442155E+03  0.23582419114E+03  0.67452502692E+03  0.74356903873E+03  0.00000000000E+00 0. -1.
          1    1    1    2  501    0 -0.36052126074E+02  0.21684298777E+03  0.10370799606E+03  0.24305551955E+03  0.00000000000E+00 0.  1.
<mgrwt>
<rscale>  4 0.47508731E+03</rscale>
<asrwt>0</asrwt>
<pdfrwt beam="1">  1       21 0.10434392E+00 0.47508731E+03</pdfrwt>
<pdfrwt beam="2">  1        1 0.15246182E+00 0.47508731E+03</pdfrwt>
<totfact> 0.11674580E+02</totfact>
</mgrwt>
</event>
<event>
 5    0  0.1239749E+000  0.2496191E+03  0.7546771E-02  0.1113546E+00
         -1   -1    0    0    0  501 -0.00000000000E+00  0.00000000000E+00  0.16680630155E+03  0.16680630155E+03  0.00000000000E+00 0.  1.
         21   -1    0    0  503  502  0.00000000000E+00 -0.00000000000E+00 -0.11074201956E+04  0.11074201956E+04  0.00000000000E+00 0. -1.
         25    1    1    2    0    0  0.13914239562E+02  0.22474092674E+03 -0.86221343097E+03  0.89985503874E+03  0.12500000000E+03 0.  0.
         21    1    1    2  503  501  0.44869978838E+02 -0.19466820268E+03 -0.16940930188E+03  0.26193231129E+03  0.00000000000E+00 0. -1.
         -1    1    1    2    0  502 -0.58784218400E+02 -0.30072724062E+02  0.91008838795E+02  0.11243914712E+03  0.00000000000E+00 0.  1.
<mgrwt>
<rscale>  4 0.24961908E+03</rscale>
<asrwt>0</asrwt>
<pdfrwt beam="1">  1       21 0.17037234E+00 0.24961908E+03</pdfrwt>
<pdfrwt beam="2">  1       -1 0.25662508E-01 0.24961908E+03</pdfrwt>
<totfact> 0.24859367E+02</totfact>
</mgrwt>
</event>
<event>
 5    0  0.1239749E+000  0.3012274E+03  0.7546771E-02  0.1084629E+00
          2   -1    0    0  503    0 -0.00000000000E+00  0.00000000000E+00  0.89009440614E+03  0.89009440614E+03  0.00000000000E+00 0. -1.
         21   -1    0    0  501  502  0.00000000000E+00 -0.00000000000E+00 -0.52121736733E+03  0.52121736733E+03  0.00000000000E+00 0. -1.
         25    1    1    2    0    0 -0.10091405882E+03  0.33103110700E+03 -0.30068586670E+03  0.47518652286E+03  0.12500000000E+03 0.  0.
         21    1    1    2  503  502 -0.95861831145E+02 -0.14314356394E+03 -0.39421050922E+02  0.17673027421E+03  0.00000000000E+00 0. -1.
          2    1    1    2  501    0  0.19677588996E+03 -0.18788754307E+03  0.70898395643E+03  0.75939497640E+03  0.00000000000E+00 0. -1.
<mgrwt>
<rscale>  4 0.30122742E+03</rscale>
<asrwt>0</asrwt>
<pdfrwt beam="1">  1       21 0.80187287E-01 0.30122742E+03</pdfrwt>
<pdfrwt beam="2">  1        2 0.13693760E+00 0.30122742E+03</pdfrwt>
<totfact> 0.50432146E+02</totfact>
</mgrwt>
</event>
<event>
 5    0  0.1239749E+000  0.3219135E+03  0.7546771E-02  0.1074772E+00
          4   -1    0    0  503    0 -0.00000000000E+00  0.00000000000E+00  0.31832782180E+04  0.31832782180E+04  0.00000000000E+00 0. -1.
         21   -1    0    0  501  502  0.00000000000E+00 -0.00000000000E+00 -0.43334954807E+03  0.43334954807E+03  0.00000000000E+00 0. -1.
         25    1    1    2    0    0  0.21662496332E+03  0.20171774637E+03 -0.35929347770E+03  0.48200957153E+03  0.12500000000E+03 0.  0.
         21    1    1    2  503  502 -0.25338186318E+03 -0.19545577579E+03  0.20576651132E+04  0.20824003090E+04  0.00000000000E+00 0. -1.
          4    1    1    2  501    0  0.36756899859E+02 -0.62619705877E+01  0.10515570344E+04  0.10522178855E+04  0.00000000000E+00 0. -1.
<mgrwt>
<rscale>  4 0.32191349E+03</rscale>
<asrwt>0</asrwt>
<pdfrwt beam="1">  1       21 0.66669163E-01 0.32191349E+03</pdfrwt>
<pdfrwt beam="2">  1        4 0.48973510E+00 0.32191349E+03</pdfrwt>
<totfact> 0.15558973E-01</totfact>
</mgrwt>
</event>
<event>
 5    0  0.1239749E+000  0.2769475E+03  0.7546771E-02  0.1097368E+00
         21   -1    0    0  501  502  0.00000000000E+00  0.00000000000E+00  0.80760575267E+02  0.80760575267E+02  0.00000000000E+00 0. -1.
          2   -1    0    0  503    0 -0.00000000000E+00 -0.00000000000E+00 -0.24466816506E+04  0.24466816506E+04  0.00000000000E+00 0. -1.
         25    1    1    2    0    0 -0.16162574753E+03  0.19559745413E+03 -0.22955995488E+03  0.36428562861E+03  0.12500000000E+03 0.  0.
         21    1    1    2  503  502  0.17097723387E+03 -0.14969149856E+03 -0.98625422800E+03  0.10120959250E+04  0.00000000000E+00 0. -1.
          2    1    1    2  501    0 -0.93514863346E+01 -0.45905955568E+02 -0.11501068925E+04  0.11510606722E+04  0.00000000000E+00 0. -1.
<mgrwt>
<rscale>  4 0.27694749E+03</rscale>
<asrwt>0</asrwt>
<pdfrwt beam="1">  1       21 0.12424705E-01 0.27694749E+03</pdfrwt>
<pdfrwt beam="2">  1        2 0.37641253E+00 0.27694749E+03</pdfrwt>
<totfact> 0.29568365E+03</totfact>
</mgrwt>
</event>
<event>
 5    0  0.1239749E+000  0.2060330E+03  0.7546771E-02  0.1144746E+00
         21   -1    0    0  501  502  0.00000000000E+00  0.00000000000E+00  0.43188151239E+03  0.43188151239E+03  0.00000000000E+00 0. -1.
          1   -1    0    0  503    0 -0.00000000000E+00 -0.00000000000E+00 -0.72620450719E+03  0.72620450719E+03  0.00000000000E+00 0. -1.
         25    1    1    2    0    0  0.21086652175E+03 -0.14191158681E+03 -0.20615165756E+02  0.28399572801E+03  0.12500000000E+03 0.  0.
         21    1    1    2  503  502 -0.13636124969E+03  0.67933545424E+02  0.27556442532E+03  0.31487316417E+03  0.00000000000E+00 0. -1.
          1    1    1    2  501    0 -0.74505272062E+02  0.73978041384E+02 -0.54927225437E+03  0.55921712741E+03  0.00000000000E+00 0. -1.
<mgrwt>
<rscale>  4 0.20603300E+03</rscale>
<asrwt>0</asrwt>
<pdfrwt beam="1">  1       21 0.66443310E-01 0.20603300E+03</pdfrwt>
<pdfrwt beam="2">  1        1 0.11172377E+00 0.20603300E+03</pdfrwt>
<totfact> 0.61336009E+02</totfact>
</mgrwt>
</event>
<event>
 5    0  0.1239749E+000  0.4068815E+03  0.7546771E-02  0.1041423E+00
          2   -1    0    0  503    0 -0.00000000000E+00  0.00000000000E+00  0.18774772434E+04  0.18774772434E+04  0.00000000000E+00 0.  1.
         21   -1    0    0  501  502  0.00000000000E+00 -0.00000000000E+00 -0.75612485776E+03  0.75612485776E+03  0.00000000000E+00 0.  1.
         25    1    1    2    0    0  0.41357653811E+03 -0.16990878524E+03 -0.44921387247E+03  0.64601288795E+03  0.12500000000E+03 0.  0.
         21    1    1    2  503  502 -0.28998020978E+03  0.12097803587E+03 -0.85950142724E+02  0.32574780776E+03  0.00000000000E+00 0.  1.
          2    1    1    2  501    0 -0.12359632834E+03  0.48930749366E+02  0.16565164009E+04  0.16618414055E+04  0.00000000000E+00 0.  1.
<mgrwt>
<rscale>  4 0.40688152E+03</rscale>
<asrwt>0</asrwt>
<pdfrwt beam="1">  1       21 0.11632690E+00 0.40688152E+03</pdfrwt>
<pdfrwt beam="2">  1        2 0.28884265E+00 0.40688152E+03</pdfrwt>
<totfact> 0.54489447E+01</totfact>
</mgrwt>
</event>
<event>
 5    0  0.1239749E+000  0.3221554E+03  0.7546771E-02  0.1074662E+00
         21   -1    0    0  503  502  0.00000000000E+00  0.00000000000E+00  0.29264998613E+03  0.29264998613E+03  0.00000000000E+00 0.  1.
         -3   -1    0    0    0  501 -0.00000000000E+00 -0.00000000000E+00 -0.74174583460E+03  0.74174583460E+03  0.00000000000E+00 0.  1.
         25    1    1    2    0    0 -0.81239634952E+02  0.26612573689E+03 -0.45262933178E+02  0.30837723529E+03  0.12500000000E+03 0.  0.
         21    1    1    2  503  501  0.95581965470E+02 -0.29811219573E+03  0.75435660571E+01  0.31315123943E+03  0.00000000000E+00 0.  1.
         -3    1    1    2    0  502 -0.14342330519E+02  0.31986458838E+02 -0.41137648135E+03  0.41286734601E+03  0.00000000000E+00 0.  1.
<mgrwt>
<rscale>  4 0.32215537E+03</rscale>
<asrwt>0</asrwt>
<pdfrwt beam="1">  1       21 0.45023076E-01 0.32215537E+03</pdfrwt>
<pdfrwt beam="2">  1       -3 0.11411474E+00 0.32215537E+03</pdfrwt>
<totfact> 0.15079072E+02</totfact>
</mgrwt>
</event>
<event>
 5    0  0.1239749E+000  0.5485162E+03  0.7546771E-02  0.1001838E+00
          2   -1    0    0  503    0 -0.00000000000E+00  0.00000000000E+00  0.44863478411E+04  0.44863478411E+04  0.00000000000E+00 0.  1.
         21   -1    0    0  501  502  0.00000000000E+00 -0.00000000000E+00 -0.13772781234E+04  0.13772781234E+04  0.00000000000E+00 0. -1.
         25    1    1    2    0    0  0.32274387018E+03 -0.42631935621E+03 -0.12638731273E+04  0.13780101891E+04  0.12500000000E+03 0.  0.
         21    1    1    2  503  502 -0.37353920951E+03  0.36984523096E+03  0.11802171470E+04  0.12919866679E+04  0.00000000000E+00 0.  1.
          2    1    1    2  501    0  0.50795339334E+02  0.56474125255E+02  0.31927256981E+04  0.31936291075E+04  0.00000000000E+00 0.  1.
<mgrwt>
<rscale>  4 0.54851618E+03</rscale>
<asrwt>0</asrwt>
<pdfrwt beam="1">  1       21 0.21188894E+00 0.54851618E+03</pdfrwt>
<pdfrwt beam="2">  1        2 0.69020735E+00 0.54851618E+03</pdfrwt>
<totfact> 0.17774741E-01</totfact>
</mgrwt>
</event>
<event>
 5    0  0.1239749E+000  0.2805297E+03  0.7546771E-02  0.1095400E+00
         21   -1    0    0  501  502  0.00000000000E+00  0.00000000000E+00  0.23905977033E+04  0.23905977033E+04  0.00000000000E+00 0.  1.
          3   -1    0    0  503    0 -0.00000000000E+00 -0.00000000000E+00 -0.60308829722E+02  0.60308829722E+02  0.00000000000E+00 0.  1.
         25    1    1    2    0    0 -0.21286202352E+03 -0.11984863478E+03  0.17517223306E+04  0.17730848992E+04  0.12500000000E+03 0.  0.
         21    1    1    2  503  502  0.20783182084E+03  0.18491718574E+03  0.52180612748E+03  0.59132906745E+03  0.00000000000E+00 0.  1.
          3    1    1    2  501    0  0.50302026821E+01 -0.65068550960E+02  0.56760415435E+02  0.86492566290E+02  0.00000000000E+00 0.  1.
<mgrwt>
<rscale>  4 0.28052968E+03</rscale>
<asrwt>0</asrwt>
<pdfrwt beam="1">  1       21 0.36778419E+00 0.28052968E+03</pdfrwt>
<pdfrwt beam="2">  1        3 0.92782833E-02 0.28052968E+03</pdfrwt>
<totfact> 0.52261828E+01</totfact>
</mgrwt>
</event>
<event>
 5    0  0.1239749E+000  0.2775350E+03  0.7546771E-02  0.1097043E+00
          1   -1    0    0  503    0 -0.00000000000E+00  0.00000000000E+00  0.17661588082E+04  0.17661588082E+04  0.00000000000E+00 0. -1.
         21   -1    0    0  501  502  0.00000000000E+00 -0.00000000000E+00 -0.30413964052E+03  0.30413964052E+03  0.00000000000E+00 0. -1.
         25    1    1    2    0    0 -0.14314929237E+03 -0.22284766727E+03  0.27591888137E+02  0.29417531338E+03  0.12500000000E+03 0.  0.
         21    1    1    2  503  502  0.16585664913E+03 -0.26556261954E+02 -0.11694319556E+03  0.20466893779E+03  0.00000000000E+00 0. -1.
          1    1    1    2  501    0 -0.22707356762E+02  0.24940392923E+03  0.15513704751E+04  0.15714541975E+04  0.00000000000E+00 0. -1.
<mgrwt>
<rscale>  4 0.27753500E+03</rscale>
<asrwt>0</asrwt>
<pdfrwt beam="1">  1       21 0.46790715E-01 0.27753500E+03</pdfrwt>
<pdfrwt beam="2">  1        1 0.27171673E+00 0.27753500E+03</pdfrwt>
<totfact> 0.22510253E+02</totfact>
</mgrwt>
</event>
<event>
 5    0  0.1239749E+000  0.3007771E+03  0.7546771E-02  0.1084853E+00
          1   -1    0    0  503    0 -0.00000000000E+00  0.00000000000E+00  0.47963301494E+03  0.47963301494E+03  0.00000000000E+00 0.  1.
         21   -1    0    0  501  502  0.00000000000E+00 -0.00000000000E+00 -0.56694418991E+03  0.56694418991E+03  0.00000000000E+00 0.  1.
         25    1    1    2    0    0 -0.27739612568E+03  0.11084300775E+01 -0.43539330788E+03  0.53117056743E+03  0.12500000000E+03 0.  0.
         21    1    1    2  503  502  0.25749795572E+03  0.16220804015E+02  0.11781871690E+03  0.28363631949E+03  0.00000000000E+00 0.  1.
          1    1    1    2  501    0  0.19898169960E+02 -0.17329234093E+02  0.23026341601E+03  0.23177031794E+03  0.00000000000E+00 0.  1.
<mgrwt>
<rscale>  4 0.30077710E+03</rscale>
<asrwt>0</asrwt>
<pdfrwt beam="1">  1       21 0.87222183E-01 0.30077710E+03</pdfrwt>
<pdfrwt beam="2">  1        1 0.73789695E-01 0.30077710E+03</pdfrwt>
<totfact> 0.56483540E+02</totfact>
</mgrwt>
</event>
<event>
 5    0  0.1239749E+000  0.2512746E+03  0.7546771E-02  0.1112502E+00
          2   -1    0    0  503    0 -0.00000000000E+00  0.00000000000E+00  0.10039901559E+04  0.10039901559E+04  0.00000000000E+00 0.  1.
         21   -1    0    0  501  502  0.00000000000E+00 -0.00000000000E+00 -0.52447939853E+03  0.52447939853E+03  0.00000000000E+00 0.  1.
         25    1    1    2    0    0  0.21510140818E+03  0.44669249628E+01 -0.35570364264E+03  0.43409520915E+03  0.12500000000E+03 0.  0.
         21    1    1    2  503  502 -0.22434526465E+03 -0.24859956975E+02 -0.31029372302E+02  0.22784125434E+03  0.00000000000E+00 0.  1.
          2    1    1    2  501    0  0.92438564704E+01  0.20393032012E+02  0.86624377229E+03  0.86653309093E+03  0.00000000000E+00 0.  1.
<mgrwt>
<rscale>  4 0.25127458E+03</rscale>
<asrwt>0</asrwt>
<pdfrwt beam="1">  1       21 0.80689138E-01 0.25127458E+03</pdfrwt>
<pdfrwt beam="2">  1        2 0.15446002E+00 0.25127458E+03</pdfrwt>
<totfact> 0.43160429E+02</totfact>
</mgrwt>
</event>
<event>
 5    0  0.1239749E+000  0.3046210E+03  0.7546771E-02  0.1082953E+00
         21   -1    0    0  501  502  0.00000000000E+00  0.00000000000E+00  0.85683832661E+03  0.85683832661E+03  0.00000000000E+00 0. -1.
          2   -1    0    0  503    0 -0.00000000000E+00 -0.00000000000E+00 -0.10520768965E+04  0.10520768965E+04  0.00000000000E+00 0.  1.
         25    1    1    2    0    0 -0.39431829697E+02  0.28467803421E+03  0.69711775017E+03  0.76432624576E+03  0.12500000000E+03 0.  0.
         21    1    1    2  503  502 -0.92506815532E+01 -0.24603468852E+03  0.38413613755E+01  0.24623850048E+03  0.00000000000E+00 0. -1.
          2    1    1    2  501    0  0.48682511250E+02 -0.38643345687E+02 -0.89619768148E+03  0.89835047690E+03  0.00000000000E+00 0.  1.
<mgrwt>
<rscale>  4 0.30462103E+03</rscale>
<asrwt>0</asrwt>
<pdfrwt beam="1">  1       21 0.13182128E+00 0.30462103E+03</pdfrwt>
<pdfrwt beam="2">  1        2 0.16185798E+00 0.30462103E+03</pdfrwt>
<totfact> 0.11957755E+02</totfact>
</mgrwt>
</event>
<event>
 5    0  0.1239749E+000  0.2862234E+03  0.7546771E-02  0.1092338E+00
          2   -1    0    0  503    0 -0.00000000000E+00  0.00000000000E+00  0.45556091693E+04  0.45556091693E+04  0.00000000000E+00 0.  1.
         21   -1    0    0  501  502  0.00000000000E+00 -0.00000000000E+00 -0.50750706856E+03  0.50750706856E+03  0.00000000000E+00 0. -1.
         25    1    1    2    0    0 -0.24256201508E+03 -0.47976994791E+01 -0.33766076053E+03  0.43416487454E+03  0.12500000000E+03 0.  0.
         21    1    1    2  503  502  0.32635081207E+03  0.84126234684E+02  0.11421749436E+03  0.35584787749E+03  0.00000000000E+00 0. -1.
          2    1    1    2  501    0 -0.83788796985E+02 -0.79328535205E+02  0.42715453669E+04  0.42731034858E+04  0.00000000000E+00 0.  1.
<mgrwt>
<rscale>  4 0.28622343E+03</rscale>
<asrwt>0</asrwt>
<pdfrwt beam="1">  1       21 0.78078014E-01 0.28622343E+03</pdfrwt>
<pdfrwt beam="2">  1        2 0.70086292E+00 0.28622343E+03</pdfrwt>
<totfact> 0.26192166E+00</totfact>
</mgrwt>
</event>
<event>
 5    0  0.1239749E+000  0.2700614E+03  0.7546771E-02  0.1101244E+00
         21   -1    0    0  501  502  0.00000000000E+00  0.00000000000E+00  0.12813082618E+03  0.12813082618E+03  0.00000000000E+00 0.  1.
          2   -1    0    0  503    0 -0.00000000000E+00 -0.00000000000E+00 -0.24198136211E+04  0.24198136211E+04  0.00000000000E+00 0. -1.
         25    1    1    2    0    0 -0.15559791787E+03 -0.22576612593E+03 -0.20606543170E+03  0.36506029338E+03  0.12500000000E+03 0.  0.
         21    1    1    2  503  502 -0.20551429406E+02  0.23199545954E+03 -0.26113764318E+03  0.34991016445E+03  0.00000000000E+00 0.  1.
          2    1    1    2  501    0  0.17614934728E+03 -0.62293336087E+01 -0.18244797201E+04  0.18329739895E+04  0.00000000000E+00 0. -1.
<mgrwt>
<rscale>  4 0.27006144E+03</rscale>
<asrwt>0</asrwt>
<pdfrwt beam="1">  1       21 0.19712436E-01 0.27006144E+03</pdfrwt>
<pdfrwt beam="2">  1        2 0.37227900E+00 0.27006144E+03</pdfrwt>
<totfact> 0.13106772E+03</totfact>
</mgrwt>
</event>
<event>
 5    0  0.1239749E+000  0.2382461E+03  0.7546771E-02  0.1120967E+00
          1   -1    0    0  503    0 -0.00000000000E+00  0.00000000000E+00  0.84818096353E+03  0.84818096353E+03  0.00000000000E+00 0.  1.
         21   -1    0    0  501  502  0.00000000000E+00 -0.00000000000E+00 -0.90255941049E+03  0.90255941049E+03  0.00000000000E+00 0. -1.
         25    1    1    2    0    0 -0.19866106604E+03 -0.72351895864E+02 -0.76653171127E+03  0.80492041866E+03  0.12500000000E+03 0.  0.
         21    1    1    2  503  502  0.19002581062E+03 -0.81917896551E+02 -0.10145966436E+02  0.20717936942E+03  0.00000000000E+00 0. -1.
          1    1    1    2  501    0  0.86352554142E+01  0.15426979241E+03  0.72229923074E+03  0.73864058595E+03  0.00000000000E+00 0.  1.
<mgrwt>
<rscale>  4 0.23824612E+03</rscale>
<asrwt>0</asrwt>
<pdfrwt beam="1">  1       21 0.13885529E+00 0.23824612E+03</pdfrwt>
<pdfrwt beam="2">  1        1 0.13048938E+00 0.23824612E+03</pdfrwt>
<totfact> 0.82714953E+01</totfact>
</mgrwt>
</event>
<event>
 5    0  0.1239749E+000  0.2594346E+03  0.7546771E-02  0.1107483E+00
          1   -1    0    0  503    0 -0.00000000000E+00  0.00000000000E+00  0.62864973893E+03  0.62864973893E+03  0.00000000000E+00 0.  1.
         21   -1    0    0  501  502  0.00000000000E+00 -0.00000000000E+00 -0.86260968409E+03  0.86260968409E+03  0.00000000000E+00 0.  1.
         25    1    1    2    0    0 -0.81827794199E+02  0.20255707285E+03 -0.61796654919E+03  0.66725768005E+03  0.12500000000E+03 0.  0.
         21    1    1    2  503  502  0.68084648011E+02 -0.24608103752E+03 -0.14459957185E+03  0.29342875200E+03  0.00000000000E+00 0.  1.
          1    1    1    2  501    0  0.13743146188E+02  0.43523964670E+02  0.52860617588E+03  0.53057299097E+03  0.00000000000E+00 0.  1.
<mgrwt>
<rscale>  4 0.25943459E+03</rscale>
<asrwt>0</asrwt>
<pdfrwt beam="1">  1       21 0.13270918E+00 0.25943459E+03</pdfrwt>
<pdfrwt beam="2">  1        1 0.96715345E-01 0.25943459E+03</pdfrwt>
<totfact> 0.14305493E+02</totfact>
</mgrwt>
</event>
<event>
 5    0  0.1239749E+000  0.5108359E+03  0.7546771E-02  0.1010989E+00
          1   -1    0    0  503    0 -0.00000000000E+00  0.00000000000E+00  0.16419624554E+03  0.16419624554E+03  0.00000000000E+00 0. -1.
         21   -1    0    0  501  502  0.00000000000E+00 -0.00000000000E+00 -0.18141193617E+04  0.18141193617E+04  0.00000000000E+00 0.  1.
         25    1    1    2    0    0 -0.30657014402E+03 -0.40017472412E+03 -0.10970348211E+04  0.12137691138E+04  0.12500000000E+03 0.  0.
         21    1    1    2  503  502  0.32643352883E+02 -0.74401953267E+01 -0.60282099584E+02  0.68955612710E+02  0.00000000000E+00 0. -1.
          1    1    1    2  501    0  0.27392679114E+03  0.40761491944E+03 -0.49260619548E+03  0.69559088068E+03  0.00000000000E+00 0. -1.
<mgrwt>
<rscale>  4 0.51083594E+03</rscale>
<asrwt>0</asrwt>
<pdfrwt beam="1">  1       21 0.27909529E+00 0.51083594E+03</pdfrwt>
<pdfrwt beam="2">  1        1 0.25260960E-01 0.51083594E+03</pdfrwt>
<totfact> 0.74976041E+01</totfact>
</mgrwt>
</event>
<event>
 5    0  0.1239749E+000  0.4567685E+03  0.7546771E-02  0.1025723E+00
          2   -1    0    0  503    0 -0.00000000000E+00  0.00000000000E+00  0.18208623128E+04  0.18208623128E+04  0.00000000000E+00 0.  1.
         21   -1    0    0  501  502  0.00000000000E+00 -0.00000000000E+00 -0.45670102128E+03  0.45670102128E+03  0.00000000000E+00 0.  1.
         25    1    1    2    0    0  0.37830372990E+03  0.20969057062E+03 -0.87891109382E+02  0.45873052501E+03  0.12500000000E+03 0.  0.
         21    1    1    2  503  502 -0.33704769232E+03 -0.30941484976E+03  0.10755005109E+03  0.47000607404E+03  0.00000000000E+00 0.  1.
          2    1    1    2  501    0 -0.41256037587E+02  0.99724279135E+02  0.13445023499E+04  0.13488267351E+04  0.00000000000E+00 0.  1.
<mgrwt>
<rscale>  4 0.45676851E+03</rscale>
<asrwt>0</asrwt>
<pdfrwt beam="1">  1       21 0.70261697E-01 0.45676851E+03</pdfrwt>
<pdfrwt beam="2">  1        2 0.28013266E+00 0.45676851E+03</pdfrwt>
<totfact> 0.18931321E+02</totfact>
</mgrwt>
</event>
<event>
 5    0  0.1239749E+000  0.2843910E+03  0.7546771E-02  0.1093315E+00
         -3   -1    0    0    0  501 -0.00000000000E+00  0.00000000000E+00  0.69110695267E+03  0.69110695267E+03  0.00000000000E+00 0. -1.
         21   -1    0    0  503  502  0.00000000000E+00 -0.00000000000E+00 -0.20165600003E+03  0.20165600003E+03  0.00000000000E+00 0. -1.
         25    1    1    2    0    0 -0.19680549921E+03  0.17023032654E+03  0.10112468704E+03  0.30587901354E+03  0.12500000000E+03 0.  0.
         21    1    1    2  503  501  0.16268627030E+03 -0.19385434391E+03  0.65515461909E+02  0.26141653534E+03  0.00000000000E+00 0. -1.
         -3    1    1    2    0  502  0.34119228911E+02  0.23624017370E+02  0.32281080369E+03  0.32546740383E+03  0.00000000000E+00 0. -1.
<mgrwt>
<rscale>  4 0.28439097E+03</rscale>
<asrwt>0</asrwt>
<pdfrwt beam="1">  1       21 0.31024000E-01 0.28439097E+03</pdfrwt>
<pdfrwt beam="2">  1       -3 0.10632415E+00 0.28439097E+03</pdfrwt>
<totfact> 0.38125749E+02</totfact>
</mgrwt>
</event>
<event>
 5    0  0.1239749E+000  0.3416903E+03  0.7546771E-02  0.1066078E+00
          1   -1    0    0  503    0 -0.00000000000E+00  0.00000000000E+00  0.18326258261E+04  0.18326258261E+04  0.00000000000E+00 0.  1.
         21   -1    0    0  501  502  0.00000000000E+00 -0.00000000000E+00 -0.34767639509E+03  0.34767639509E+03  0.00000000000E+00 0. -1.
         25    1    1    2    0    0  0.39169995187E+02  0.36832046480E+03  0.38834372944E+03  0.55102641090E+03  0.12500000000E+03 0.  0.
         21    1    1    2  503  502  0.51691964325E+02 -0.30568265278E+03 -0.17290383000E+03  0.35497841881E+03  0.00000000000E+00 0. -1.
          1    1    1    2  501    0 -0.90861959511E+02 -0.62637812014E+02  0.12695095316E+04  0.12742973915E+04  0.00000000000E+00 0.  1.
<mgrwt>
<rscale>  4 0.34169030E+03</rscale>
<asrwt>0</asrwt>
<pdfrwt beam="1">  1       21 0.53488677E-01 0.34169030E+03</pdfrwt>
<pdfrwt beam="2">  1        1 0.28194243E+00 0.34169030E+03</pdfrwt>
<totfact> 0.14846877E+02</totfact>
</mgrwt>
</event>
<event>
 5    0  0.1239749E+000  0.3084311E+03  0.7546771E-02  0.1081100E+00
         21   -1    0    0  501  502  0.00000000000E+00  0.00000000000E+00  0.18978942960E+03  0.18978942960E+03  0.00000000000E+00 0.  1.
          1   -1    0    0  503    0 -0.00000000000E+00 -0.00000000000E+00 -0.15398152000E+04  0.15398152000E+04  0.00000000000E+00 0.  1.
         25    1    1    2    0    0 -0.23134859085E+03  0.13359828409E+03 -0.14525677220E+02  0.29530775015E+03  0.12500000000E+03 0.  0.
         21    1    1    2  503  502  0.34043108793E+03 -0.10650213787E+03 -0.66676759437E+03  0.75618453826E+03  0.00000000000E+00 0.  1.
          1    1    1    2  501    0 -0.10908249709E+03 -0.27096146226E+02 -0.66873249886E+03  0.67811234124E+03  0.00000000000E+00 0.  1.
<mgrwt>
<rscale>  4 0.30843115E+03</rscale>
<asrwt>0</asrwt>
<pdfrwt beam="1">  1       21 0.29198372E-01 0.30843115E+03</pdfrwt>
<pdfrwt beam="2">  1        1 0.23689466E+00 0.30843115E+03</pdfrwt>
<totfact> 0.80993407E+02</totfact>
</mgrwt>
</event>
<event>
 5    0  0.1239749E+000  0.2488551E+03  0.7546771E-02  0.1114031E+00
          2   -1    0    0  503    0 -0.00000000000E+00  0.00000000000E+00  0.12399444269E+04  0.12399444269E+04  0.00000000000E+00 0.  1.
         21   -1    0    0  501  502  0.00000000000E+00 -0.00000000000E+00 -0.21340017225E+03  0.21340017225E+03  0.00000000000E+00 0.  1.
         25    1    1    2    0    0 -0.11734945065E+03  0.18036898177E+03 -0.12631447282E+03  0.27907742509E+03  0.12500000000E+03 0.  0.
         21    1    1    2  503  502  0.93218289241E+02 -0.16239966980E+03  0.87669751907E+03  0.89647188586E+03  0.00000000000E+00 0.  1.
          2    1    1    2  501    0  0.24131161406E+02 -0.17969311976E+02  0.27616120841E+03  0.27779528821E+03  0.00000000000E+00 0.  1.
<mgrwt>
<rscale>  4 0.24885510E+03</rscale>
<asrwt>0</asrwt>
<pdfrwt beam="1">  1       21 0.32830796E-01 0.24885510E+03</pdfrwt>
<pdfrwt beam="2">  1        2 0.19076068E+00 0.24885510E+03</pdfrwt>
<totfact> 0.21089262E+03</totfact>
</mgrwt>
</event>
<event>
 5    0  0.1239749E+000  0.2518787E+03  0.7546771E-02  0.1112123E+00
          1   -1    0    0  503    0 -0.00000000000E+00  0.00000000000E+00  0.84196162351E+03  0.84196162351E+03  0.00000000000E+00 0. -1.
         21   -1    0    0  501  502  0.00000000000E+00 -0.00000000000E+00 -0.31071797013E+03  0.31071797013E+03  0.00000000000E+00 0. -1.
         25    1    1    2    0    0  0.19912103890E+03 -0.22526144099E+02 -0.16142413189E+03  0.28607580404E+03  0.12500000000E+03 0.  0.
         21    1    1    2  503  502 -0.30123525827E+03  0.91039999909E+02  0.23513775503E+03  0.39283676795E+03  0.00000000000E+00 0. -1.
          1    1    1    2  501    0  0.10211421937E+03 -0.68513855811E+02  0.45753003024E+03  0.47376702165E+03  0.00000000000E+00 0. -1.
<mgrwt>
<rscale>  4 0.25187866E+03</rscale>
<asrwt>0</asrwt>
<pdfrwt beam="1">  1       21 0.47802765E-01 0.25187866E+03</pdfrwt>
<pdfrwt beam="2">  1        1 0.12953256E+00 0.25187866E+03</pdfrwt>
<totfact> 0.96616966E+02</totfact>
</mgrwt>
</event>
<event>
 5    0  0.1239749E+000  0.2282253E+03  0.7546771E-02  0.1127895E+00
          1   -1    0    0  503    0 -0.00000000000E+00  0.00000000000E+00  0.81822383659E+03  0.81822383659E+03  0.00000000000E+00 0. -1.
         21   -1    0    0  501  502  0.00000000000E+00 -0.00000000000E+00 -0.17502628893E+03  0.17502628893E+03  0.00000000000E+00 0. -1.
         25    1    1    2    0    0  0.17067802802E+03  0.12415950832E+03 -0.37642027328E+02  0.24817029431E+03  0.12500000000E+03 0.  0.
         21    1    1    2  503  502 -0.14303757961E+03  0.29892293446E+02  0.32470585292E+03  0.35607188784E+03  0.00000000000E+00 0. -1.
          1    1    1    2  501    0 -0.27640448415E+02 -0.15405180177E+03  0.35613372207E+03  0.38900794338E+03  0.00000000000E+00 0. -1.
<mgrwt>
<rscale>  4 0.22822534E+03</rscale>
<asrwt>0</asrwt>
<pdfrwt beam="1">  1       21 0.26927122E-01 0.22822534E+03</pdfrwt>
<pdfrwt beam="2">  1        1 0.12588059E+00 0.22822534E+03</pdfrwt>
<totfact> 0.32229567E+03</totfact>
</mgrwt>
</event>
<event>
 5    0  0.1239749E+000  0.2988200E+03  0.7546771E-02  0.1085832E+00
         21   -1    0    0  503  502  0.00000000000E+00  0.00000000000E+00  0.54592989745E+03  0.54592989745E+03  0.00000000000E+00 0.  1.
         -3   -1    0    0    0  501 -0.00000000000E+00 -0.00000000000E+00 -0.28988684671E+03  0.28988684671E+03  0.00000000000E+00 0.  1.
         25    1    1    2    0    0  0.31227132465E+02  0.27674240118E+03  0.39078907253E+03  0.49588566184E+03  0.12500000000E+03 0.  0.
         21    1    1    2  503  501  0.23338318611E+02 -0.24785428454E+03 -0.12044214946E+03  0.27655512081E+03  0.00000000000E+00 0.  1.
         -3    1    1    2    0  502 -0.54565451076E+02 -0.28888116642E+02 -0.14303872338E+02  0.63375961516E+02  0.00000000000E+00 0.  1.
<mgrwt>
<rscale>  4 0.29882000E+03</rscale>
<asrwt>0</asrwt>
<pdfrwt beam="1">  1       21 0.83989215E-01 0.29882000E+03</pdfrwt>
<pdfrwt beam="2">  1       -3 0.44597977E-01 0.29882000E+03</pdfrwt>
<totfact> 0.29742741E+02</totfact>
</mgrwt>
</event>
<event>
 5    0  0.1239749E+000  0.3340153E+03  0.7546771E-02  0.1069374E+00
          2   -1    0    0  503    0 -0.00000000000E+00  0.00000000000E+00  0.12196126942E+04  0.12196126942E+04  0.00000000000E+00 0.  1.
         21   -1    0    0  501  502  0.00000000000E+00 -0.00000000000E+00 -0.32987972513E+03  0.32987972513E+03  0.00000000000E+00 0.  1.
         25    1    1    2    0    0  0.24816815602E+03  0.18334814218E+03 -0.67552611939E+02  0.33969446607E+03  0.12500000000E+03 0.  0.
         21    1    1    2  503  502  0.58865188971E+02 -0.12269292534E+03 -0.57585601860E+02  0.14776591604E+03  0.00000000000E+00 0.  1.
          2    1    1    2  501    0 -0.30703334499E+03 -0.60655216839E+02  0.10148711829E+04  0.10620320372E+04  0.00000000000E+00 0.  1.
<mgrwt>
<rscale>  4 0.33401526E+03</rscale>
<asrwt>0</asrwt>
<pdfrwt beam="1">  1       21 0.50750728E-01 0.33401526E+03</pdfrwt>
<pdfrwt beam="2">  1        2 0.18763272E+00 0.33401526E+03</pdfrwt>
<totfact> 0.85861985E+02</totfact>
</mgrwt>
</event>
<event>
 5    0  0.1239749E+000  0.2370706E+03  0.7546771E-02  0.1121760E+00
          2   -1    0    0  503    0 -0.00000000000E+00  0.00000000000E+00  0.52900723700E+03  0.52900723700E+03  0.00000000000E+00 0.  1.
         21   -1    0    0  501  502  0.00000000000E+00 -0.00000000000E+00 -0.48263470153E+03  0.48263470153E+03  0.00000000000E+00 0. -1.
         25    1    1    2    0    0  0.87863643154E+02 -0.18969688613E+03  0.38292490994E+02  0.24656894221E+03  0.12500000000E+03 0.  0.
         21    1    1    2  503  502 -0.10199716857E+03  0.17225371474E+03 -0.35165233871E+03  0.40464074431E+03  0.00000000000E+00 0. -1.
          2    1    1    2  501    0  0.14133525413E+02  0.17443171394E+02  0.35973238319E+03  0.36043225200E+03  0.00000000000E+00 0.  1.
<mgrwt>
<rscale>  4 0.23707060E+03</rscale>
<asrwt>0</asrwt>
<pdfrwt beam="1">  1       21 0.74251493E-01 0.23707060E+03</pdfrwt>
<pdfrwt beam="2">  1        2 0.81385729E-01 0.23707060E+03</pdfrwt>
<totfact> 0.11645938E+03</totfact>
</mgrwt>
</event>
<event>
 5    0  0.1239749E+000  0.3012826E+03  0.7546771E-02  0.1084601E+00
         21   -1    0    0  501  502  0.00000000000E+00  0.00000000000E+00  0.52514948305E+03  0.52514948305E+03  0.00000000000E+00 0. -1.
          2   -1    0    0  503    0 -0.00000000000E+00 -0.00000000000E+00 -0.33820784014E+03  0.33820784014E+03  0.00000000000E+00 0.  1.
         25    1    1    2    0    0  0.10880590054E+03  0.25626760110E+03  0.14924230534E+03  0.33972058087E+03  0.12500000000E+03 0.  0.
         21    1    1    2  503  502  0.13325928990E+03 -0.91828156728E+02 -0.11015803792E+03  0.19576833766E+03  0.00000000000E+00 0.  1.
          2    1    1    2  501    0 -0.24206519044E+03 -0.16443944437E+03  0.14785737549E+03  0.32786840466E+03  0.00000000000E+00 0.  1.
<mgrwt>
<rscale>  4 0.30128263E+03</rscale>
<asrwt>0</asrwt>
<pdfrwt beam="1">  1       21 0.80792229E-01 0.30128263E+03</pdfrwt>
<pdfrwt beam="2">  1        2 0.52031975E-01 0.30128263E+03</pdfrwt>
<totfact> 0.15388528E+03</totfact>
</mgrwt>
</event>
<event>
 5    0  0.1239749E+000  0.2316503E+03  0.7546771E-02  0.1125484E+00
         21   -1    0    0  501  502  0.00000000000E+00  0.00000000000E+00  0.39521933392E+03  0.39521933392E+03  0.00000000000E+00 0. -1.
          2   -1    0    0  503    0 -0.00000000000E+00 -0.00000000000E+00 -0.33244651629E+03  0.33244651629E+03  0.00000000000E+00 0. -1.
         25    1    1    2    0    0  0.13978460656E+03 -0.15887902259E+03  0.28367258389E+03  0.37533640231E+03  0.12500000000E+03 0.  0.
         21    1    1    2  503  502 -0.44515816491E+02  0.10910940852E+03 -0.21439627803E+03  0.24464726644E+03  0.00000000000E+00 0. -1.
          2    1    1    2  501    0 -0.95268790064E+02  0.49769614071E+02 -0.65034882380E+01  0.10768218146E+03  0.00000000000E+00 0. -1.
<mgrwt>
<rscale>  4 0.23165026E+03</rscale>
<asrwt>0</asrwt>
<pdfrwt beam="1">  1       21 0.60802974E-01 0.23165026E+03</pdfrwt>
<pdfrwt beam="2">  1        2 0.51145618E-01 0.23165026E+03</pdfrwt>
<totfact> 0.30165952E+03</totfact>
</mgrwt>
</event>
<event>
 5    0  0.1239749E+000  0.2771100E+03  0.7546771E-02  0.1097278E+00
          2   -1    0    0  503    0 -0.00000000000E+00  0.00000000000E+00  0.60650189625E+03  0.60650189625E+03  0.00000000000E+00 0. -1.
         21   -1    0    0  501  502  0.00000000000E+00 -0.00000000000E+00 -0.24931066119E+03  0.24931066119E+03  0.00000000000E+00 0.  1.
         25    1    1    2    0    0  0.21442906008E+03  0.44852315869E+02  0.11092608486E+03  0.27553792543E+03  0.12500000000E+03 0.  0.
         21    1    1    2  503  502 -0.25693267660E+03 -0.53956716711E+02 -0.61344697010E+02  0.26960878961E+03  0.00000000000E+00 0.  1.
          2    1    1    2  501    0  0.42503616520E+02  0.91044008421E+01  0.30760984722E+03  0.31066584240E+03  0.00000000000E+00 0. -1.
<mgrwt>
<rscale>  4 0.27711003E+03</rscale>
<asrwt>0</asrwt>
<pdfrwt beam="1">  1       21 0.38355486E-01 0.27711003E+03</pdfrwt>
<pdfrwt beam="2">  1        2 0.93307984E-01 0.27711003E+03</pdfrwt>
<totfact> 0.39960992E+03</totfact>
</mgrwt>
</event>
<event>
 5    0  0.1239749E+000  0.2774298E+03  0.7546771E-02  0.1097101E+00
          1   -1    0    0  503    0 -0.00000000000E+00  0.00000000000E+00  0.80689214500E+03  0.80689214500E+03  0.00000000000E+00 0.  1.
         21   -1    0    0  501  502  0.00000000000E+00 -0.00000000000E+00 -0.14898734633E+03  0.14898734633E+03  0.00000000000E+00 0.  1.
         25    1    1    2    0    0 -0.16563737704E+03  0.18413726018E+03  0.30830568767E+02  0.27913759193E+03  0.12500000000E+03 0.  0.
         21    1    1    2  503  502  0.13870058110E+03 -0.16901089214E+03  0.58516749468E+03  0.62467874119E+03  0.00000000000E+00 0.  1.
          1    1    1    2  501    0  0.26936795935E+02 -0.15126368041E+02  0.41906735226E+02  0.52063158209E+02  0.00000000000E+00 0.  1.
<mgrwt>
<rscale>  4 0.27742976E+03</rscale>
<asrwt>0</asrwt>
<pdfrwt beam="1">  1       21 0.22921131E-01 0.27742976E+03</pdfrwt>
<pdfrwt beam="2">  1        1 0.12413725E+00 0.27742976E+03</pdfrwt>
<totfact> 0.44187777E+03</totfact>
</mgrwt>
</event>
<event>
 5    0  0.1239749E+000  0.2714629E+03  0.7546771E-02  0.1100445E+00
         21   -1    0    0  501  502  0.00000000000E+00  0.00000000000E+00  0.19745002737E+04  0.19745002737E+04  0.00000000000E+00 0. -1.
          1   -1    0    0  503    0 -0.00000000000E+00 -0.00000000000E+00 -0.75353340866E+03  0.75353340866E+03  0.00000000000E+00 0. -1.
         25    1    1    2    0    0  0.20045988334E+03 -0.13117089610E+03  0.17902698657E+04  0.18105471993E+04  0.12500000000E+03 0.  0.
         21    1    1    2  503  502 -0.19140382954E+03  0.17116807768E+03  0.78406510427E+02  0.26848001352E+03  0.00000000000E+00 0. -1.
          1    1    1    2  501    0 -0.90560537965E+01 -0.39997181579E+02 -0.64770951113E+03  0.64900646950E+03  0.00000000000E+00 0. -1.
<mgrwt>
<rscale>  4 0.27146288E+03</rscale>
<asrwt>0</asrwt>
<pdfrwt beam="1">  1       21 0.30376927E+00 0.27146288E+03</pdfrwt>
<pdfrwt beam="2">  1        1 0.11592822E+00 0.27146288E+03</pdfrwt>
<totfact> 0.82750589E+00</totfact>
</mgrwt>
</event>
<event>
 5    0  0.1239749E+000  0.2975737E+03  0.7546771E-02  0.1086460E+00
         21   -1    0    0  501  502  0.00000000000E+00  0.00000000000E+00  0.10531386051E+03  0.10531386051E+03  0.00000000000E+00 0.  1.
          2   -1    0    0  503    0 -0.00000000000E+00 -0.00000000000E+00 -0.14868494014E+04  0.14868494014E+04  0.00000000000E+00 0. -1.
         25    1    1    2    0    0 -0.16406023551E+03 -0.23182433499E+03 -0.76893077164E+03  0.82917900042E+03  0.12500000000E+03 0.  0.
         21    1    1    2  503  502  0.16127517039E+03  0.21149025858E+03 -0.16097223085E+03  0.31088562071E+03  0.00000000000E+00 0.  1.
          2    1    1    2  501    0  0.27850651283E+01  0.20334076405E+02 -0.45163253836E+03  0.45209864073E+03  0.00000000000E+00 0. -1.
<mgrwt>
<rscale>  4 0.29757367E+03</rscale>
<asrwt>0</asrwt>
<pdfrwt beam="1">  1       21 0.16202133E-01 0.29757367E+03</pdfrwt>
<pdfrwt beam="2">  1        2 0.22874605E+00 0.29757367E+03</pdfrwt>
<totfact> 0.58532607E+03</totfact>
</mgrwt>
</event>
<event>
 5    0  0.1239749E+000  0.2649154E+03  0.7546771E-02  0.1104225E+00
         21   -1    0    0  501  502  0.00000000000E+00  0.00000000000E+00  0.25701483021E+03  0.25701483021E+03  0.00000000000E+00 0. -1.
          2   -1    0    0  503    0 -0.00000000000E+00 -0.00000000000E+00 -0.59212586444E+03  0.59212586444E+03  0.00000000000E+00 0. -1.
         25    1    1    2    0    0  0.16188121667E+03  0.15082606244E+03  0.70858134784E+02  0.26381793852E+03  0.12500000000E+03 0.  0.
         21    1    1    2  503  502 -0.12261710358E+03 -0.24784737728E+03 -0.16353110738E+03  0.32125643899E+03  0.00000000000E+00 0. -1.
          2    1    1    2  501    0 -0.39264113093E+02  0.97021314842E+02 -0.24243806164E+03  0.26406631713E+03  0.00000000000E+00 0. -1.
<mgrwt>
<rscale>  4 0.26491543E+03</rscale>
<asrwt>0</asrwt>
<pdfrwt beam="1">  1       21 0.39540743E-01 0.26491543E+03</pdfrwt>
<pdfrwt beam="2">  1        2 0.91096286E-01 0.26491543E+03</pdfrwt>
<totfact> 0.38766847E+03</totfact>
</mgrwt>
</event>
<event>
 5    0  0.1239749E+000  0.2720666E+03  0.7546771E-02  0.1100103E+00
          2   -1    0    0  503    0 -0.00000000000E+00  0.00000000000E+00  0.16230726869E+04  0.16230726869E+04  0.00000000000E+00 0. -1.
         21   -1    0    0  501  502  0.00000000000E+00 -0.00000000000E+00 -0.14099625160E+03  0.14099625160E+03  0.00000000000E+00 0. -1.
         25    1    1    2    0    0 -0.20964142425E+03  0.16135910505E+03  0.35894489666E+03  0.46309040844E+03  0.12500000000E+03 0.  0.
         21    1    1    2  503  502  0.14789305309E+03 -0.18241656940E+03  0.68907046674E+02  0.24473728981E+03  0.00000000000E+00 0. -1.
          2    1    1    2  501    0  0.61748371157E+02  0.21057464342E+02  0.10542244919E+04  0.10562412402E+04  0.00000000000E+00 0. -1.
<mgrwt>
<rscale>  4 0.27206657E+03</rscale>
<asrwt>0</asrwt>
<pdfrwt beam="1">  1       21 0.21691732E-01 0.27206657E+03</pdfrwt>
<pdfrwt beam="2">  1        2 0.24970348E+00 0.27206657E+03</pdfrwt>
<totfact> 0.28903129E+03</totfact>
</mgrwt>
</event>
<event>
 5    0  0.1239749E+000  0.2737273E+03  0.7546771E-02  0.1099165E+00
          2   -1    0    0  503    0 -0.00000000000E+00  0.00000000000E+00  0.10905883847E+04  0.10905883847E+04  0.00000000000E+00 0.  1.
         21   -1    0    0  501  502  0.00000000000E+00 -0.00000000000E+00 -0.13255461318E+03  0.13255461318E+03  0.00000000000E+00 0. -1.
         25    1    1    2    0    0  0.52824852092E+01 -0.23209713562E+03  0.11564892902E+03  0.28791780042E+03  0.12500000000E+03 0.  0.
         21    1    1    2  503  502  0.62092994594E+01  0.26525647130E+03  0.33838309972E+03  0.43000310830E+03  0.00000000000E+00 0. -1.
          2    1    1    2  501    0 -0.11491784669E+02 -0.33159335675E+02  0.50400174279E+03  0.50522208918E+03  0.00000000000E+00 0.  1.
<mgrwt>
<rscale>  4 0.27372732E+03</rscale>
<asrwt>0</asrwt>
<pdfrwt beam="1">  1       21 0.20393018E-01 0.27372732E+03</pdfrwt>
<pdfrwt beam="2">  1        2 0.16778282E+00 0.27372732E+03</pdfrwt>
<totfact> 0.63942088E+03</totfact>
</mgrwt>
</event>
<event>
 5    0  0.1239749E+000  0.3146325E+03  0.7546771E-02  0.1078146E+00
         21   -1    0    0  501  502  0.00000000000E+00  0.00000000000E+00  0.15998480973E+04  0.15998480973E+04  0.00000000000E+00 0.  1.
          2   -1    0    0  503    0 -0.00000000000E+00 -0.00000000000E+00 -0.15041008771E+03  0.15041008771E+03  0.00000000000E+00 0.  1.
         25    1    1    2    0    0 -0.60226331687E+02 -0.31597498777E+03  0.98204357101E+03  0.10409140115E+04  0.12500000000E+03 0.  0.
         21    1    1    2  503  502  0.10676012976E+03  0.15017028469E+03 -0.26628287317E+02  0.18616633797E+03  0.00000000000E+00 0.  1.
          2    1    1    2  501    0 -0.46533798072E+02  0.16580470309E+03  0.49402272593E+03  0.52317783560E+03  0.00000000000E+00 0.  1.
<mgrwt>
<rscale>  4 0.31463247E+03</rscale>
<asrwt>0</asrwt>
<pdfrwt beam="1">  1       21 0.24613047E+00 0.31463247E+03</pdfrwt>
<pdfrwt beam="2">  1        2 0.23140015E-01 0.31463247E+03</pdfrwt>
<totfact> 0.18449488E+02</totfact>
</mgrwt>
</event>
<event>
 5    0  0.1239749E+000  0.2552179E+03  0.7546771E-02  0.1110051E+00
          3   -1    0    0  503    0 -0.00000000000E+00  0.00000000000E+00  0.35733720730E+03  0.35733720730E+03  0.00000000000E+00 0.  1.
         21   -1    0    0  501  502  0.00000000000E+00 -0.00000000000E+00 -0.24768332792E+03  0.24768332792E+03  0.00000000000E+00 0.  1.
         25    1    1    2    0    0 -0.78598191895E+02 -0.24294024483E+03 -0.39212834353E+02  0.28698481616E+03  0.12500000000E+03 0.  0.
         21    1    1    2  503  502  0.55285953370E+02  0.31992153994E+02  0.10630648771E+02  0.64753727696E+02  0.00000000000E+00 0. -1.
          3    1    1    2  501    0  0.23312238525E+02  0.21094809084E+03  0.13823606497E+03  0.25328199137E+03  0.00000000000E+00 0.  1.
<mgrwt>
<rscale>  4 0.25521792E+03</rscale>
<asrwt>0</asrwt>
<pdfrwt beam="1">  1       21 0.38105128E-01 0.25521792E+03</pdfrwt>
<pdfrwt beam="2">  1        3 0.54974955E-01 0.25521792E+03</pdfrwt>
<totfact> 0.10748539E+03</totfact>
</mgrwt>
</event>
<event>
 5    0  0.1239749E+000  0.2898048E+03  0.7546771E-02  0.1090451E+00
         21   -1    0    0  501  502  0.00000000000E+00  0.00000000000E+00  0.52574348194E+03  0.52574348194E+03  0.00000000000E+00 0.  1.
          2   -1    0    0  503    0 -0.00000000000E+00 -0.00000000000E+00 -0.44349705895E+03  0.44349705895E+03  0.00000000000E+00 0.  1.
         25    1    1    2    0    0 -0.25104509062E+03  0.68779549547E+02  0.35922573344E+03  0.46089303697E+03  0.12500000000E+03 0.  0.
         21    1    1    2  503  502  0.26238851017E+03 -0.43814449759E+02 -0.39084303327E+02  0.26887733085E+03  0.00000000000E+00 0.  1.
          2    1    1    2  501    0 -0.11343419558E+02 -0.24965099788E+02 -0.23789500712E+03  0.23947017307E+03  0.00000000000E+00 0.  1.
<mgrwt>
<rscale>  4 0.28980478E+03</rscale>
<asrwt>0</asrwt>
<pdfrwt beam="1">  1       21 0.80883613E-01 0.28980478E+03</pdfrwt>
<pdfrwt beam="2">  1        2 0.68230317E-01 0.28980478E+03</pdfrwt>
<totfact> 0.11447789E+03</totfact>
</mgrwt>
</event>
<event>
 5    0  0.1239749E+000  0.2610534E+03  0.7546771E-02  0.1106512E+00
          2   -1    0    0  503    0 -0.00000000000E+00  0.00000000000E+00  0.13724928097E+03  0.13724928097E+03  0.00000000000E+00 0.  1.
         21   -1    0    0  501  502  0.00000000000E+00 -0.00000000000E+00 -0.13606919674E+04  0.13606919674E+04  0.00000000000E+00 0.  1.
         25    1    1    2    0    0  0.20284049869E+03  0.45953426702E+02 -0.11383707626E+04  0.11639454362E+04  0.12500000000E+03 0.  0.
         21    1    1    2  503  502  0.53340282771E+01  0.56075738754E+02 -0.85230682147E+02  0.10216266203E+03  0.00000000000E+00 0.  1.
          2    1    1    2  501    0 -0.20817452697E+03 -0.10202916546E+03  0.15875834108E+00  0.23183315010E+03  0.00000000000E+00 0.  1.
<mgrwt>
<rscale>  4 0.26105343E+03</rscale>
<asrwt>0</asrwt>
<pdfrwt beam="1">  1       21 0.20933723E+00 0.26105343E+03</pdfrwt>
<pdfrwt beam="2">  1        2 0.21115274E-01 0.26105343E+03</pdfrwt>
<totfact> 0.35698867E+02</totfact>
</mgrwt>
</event>
<event>
 5    0  0.1239749E+000  0.3139466E+03  0.7546771E-02  0.1078469E+00
          1   -1    0    0  503    0 -0.00000000000E+00  0.00000000000E+00  0.92517441810E+03  0.92517441810E+03  0.00000000000E+00 0. -1.
         21   -1    0    0  501  502  0.00000000000E+00 -0.00000000000E+00 -0.59549456159E+03  0.59549456159E+03  0.00000000000E+00 0.  1.
         25    1    1    2    0    0  0.29737550021E+03  0.19390020406E+02 -0.26879331742E+03  0.42033677986E+03  0.12500000000E+03 0.  0.
         21    1    1    2  503  502 -0.27835495084E+03  0.14221824012E+02 -0.17290114281E+03  0.32799168301E+03  0.00000000000E+00 0.  1.
          1    1    1    2  501    0 -0.19020549374E+02 -0.33611844417E+02  0.77137431675E+03  0.77234051682E+03  0.00000000000E+00 0. -1.
<mgrwt>
<rscale>  4 0.31394658E+03</rscale>
<asrwt>0</asrwt>
<pdfrwt beam="1">  1       21 0.91614548E-01 0.31394658E+03</pdfrwt>
<pdfrwt beam="2">  1        1 0.14233453E+00 0.31394658E+03</pdfrwt>
<totfact> 0.19146734E+02</totfact>
</mgrwt>
</event>
<event>
 5    0  0.1239749E+000  0.2755516E+03  0.7546771E-02  0.1098144E+00
         21   -1    0    0  501  502  0.00000000000E+00  0.00000000000E+00  0.21179178136E+03  0.21179178136E+03  0.00000000000E+00 0. -1.
          1   -1    0    0  503    0 -0.00000000000E+00 -0.00000000000E+00 -0.19750324249E+04  0.19750324249E+04  0.00000000000E+00 0. -1.
         25    1    1    2    0    0  0.25285305081E+03 -0.72602292803E+02  0.36765499080E+02  0.29356849311E+03  0.12500000000E+03 0.  0.
         21    1    1    2  503  502 -0.19232922981E+03  0.93659274470E+02 -0.20282339026E+03  0.29478792372E+03  0.00000000000E+00 0. -1.
          1    1    1    2  501    0 -0.60523821007E+02 -0.21056981667E+02 -0.15971827523E+04  0.15984677894E+04  0.00000000000E+00 0. -1.
<mgrwt>
<rscale>  4 0.27555156E+03</rscale>
<asrwt>0</asrwt>
<pdfrwt beam="1">  1       21 0.32583353E-01 0.27555156E+03</pdfrwt>
<pdfrwt beam="2">  1        1 0.30385113E+00 0.27555156E+03</pdfrwt>
<totfact> 0.34384940E+02</totfact>
</mgrwt>
</event>
<event>
 5    0  0.1239749E+000  0.2861468E+03  0.7546771E-02  0.1092378E+00
          1   -1    0    0  503    0 -0.00000000000E+00  0.00000000000E+00  0.59382445601E+03  0.59382445601E+03  0.00000000000E+00 0. -1.
         21   -1    0    0  501  502  0.00000000000E+00 -0.00000000000E+00 -0.37340160129E+03  0.37340160129E+03  0.00000000000E+00 0.  1.
         25    1    1    2    0    0  0.19654853230E+02 -0.24367319700E+03 -0.90285212704E+02  0.28903176266E+03  0.12500000000E+03 0.  0.
         21    1    1    2  503  502 -0.17252529964E+02  0.26984810131E+03 -0.83587268928E+02  0.28302381366E+03  0.00000000000E+00 0.  1.
          1    1    1    2  501    0 -0.24023232667E+01 -0.26174904311E+02  0.39429533635E+03  0.39517048099E+03  0.00000000000E+00 0. -1.
<mgrwt>
<rscale>  4 0.28614682E+03</rscale>
<asrwt>0</asrwt>
<pdfrwt beam="1">  1       21 0.57446400E-01 0.28614682E+03</pdfrwt>
<pdfrwt beam="2">  1        1 0.91357609E-01 0.28614682E+03</pdfrwt>
<totfact> 0.10809134E+03</totfact>
</mgrwt>
</event>
<event>
 5    0  0.1239749E+000  0.2475628E+03  0.7546771E-02  0.1114855E+00
         -2   -1    0    0    0  501 -0.00000000000E+00  0.00000000000E+00  0.10242799363E+04  0.10242799363E+04  0.00000000000E+00 0.  1.
         21   -1    0    0  503  502  0.00000000000E+00 -0.00000000000E+00 -0.71088824073E+03  0.71088824073E+03  0.00000000000E+00 0.  1.
         25    1    1    2    0    0 -0.68243129096E+02  0.21642543520E+03 -0.63792903785E+03  0.68853144519E+03  0.12500000000E+03 0.  0.
         21    1    1    2  503  501  0.11491038605E+03 -0.10758167247E+03  0.98622859535E+02  0.18575435794E+03  0.00000000000E+00 0.  1.
         -2    1    1    2    0  502 -0.46667256952E+02 -0.10884376274E+03  0.85269787393E+03  0.86088237394E+03  0.00000000000E+00 0.  1.
<mgrwt>
<rscale>  4 0.24756281E+03</rscale>
<asrwt>0</asrwt>
<pdfrwt beam="1">  1       21 0.10936742E+00 0.24756281E+03</pdfrwt>
<pdfrwt beam="2">  1       -2 0.15758153E+00 0.24756281E+03</pdfrwt>
<totfact> 0.14669141E+01</totfact>
</mgrwt>
</event>
<event>
 5    0  0.1239749E+000  0.2493403E+03  0.7546771E-02  0.1113722E+00
          2   -1    0    0  503    0 -0.00000000000E+00  0.00000000000E+00  0.52285582648E+03  0.52285582648E+03  0.00000000000E+00 0. -1.
         21   -1    0    0  501  502  0.00000000000E+00 -0.00000000000E+00 -0.31217907466E+03  0.31217907466E+03  0.00000000000E+00 0.  1.
         25    1    1    2    0    0  0.21011434220E+03  0.48964774531E+02 -0.23169024538E+03  0.34036885249E+03  0.12500000000E+03 0.  0.
         21    1    1    2  503  502 -0.61762156366E+02  0.73370552027E+01  0.13995372050E+03  0.15315169022E+03  0.00000000000E+00 0. -1.
          2    1    1    2  501    0 -0.14835218583E+03 -0.56301829734E+02  0.30241327671E+03  0.34151435842E+03  0.00000000000E+00 0. -1.
<mgrwt>
<rscale>  4 0.24934030E+03</rscale>
<asrwt>0</asrwt>
<pdfrwt beam="1">  1       21 0.48027550E-01 0.24934030E+03</pdfrwt>
<pdfrwt beam="2">  1        2 0.80439358E-01 0.24934030E+03</pdfrwt>
<totfact> 0.30099073E+03</totfact>
</mgrwt>
</event>
<event>
 5    0  0.1239749E+000  0.2824175E+03  0.7546771E-02  0.1094376E+00
         21   -1    0    0  503  502  0.00000000000E+00  0.00000000000E+00  0.95536118402E+02  0.95536118402E+02  0.00000000000E+00 0.  1.
         -3   -1    0    0    0  501 -0.00000000000E+00 -0.00000000000E+00 -0.18526638210E+04  0.18526638210E+04  0.00000000000E+00 0.  1.
         25    1    1    2    0    0 -0.19547425915E+03 -0.10671243047E+03 -0.11281570960E+04  0.11567027112E+04  0.12500000000E+03 0.  0.
         21    1    1    2  503  501  0.23301216363E+03  0.11273388407E+03 -0.12742842916E+03  0.28851620678E+03  0.00000000000E+00 0.  1.
         -3    1    1    2    0  502 -0.37537904475E+02 -0.60214536050E+01 -0.50154217745E+03  0.50298102145E+03  0.00000000000E+00 0.  1.
<mgrwt>
<rscale>  4 0.28241750E+03</rscale>
<asrwt>0</asrwt>
<pdfrwt beam="1">  1       21 0.14697866E-01 0.28241750E+03</pdfrwt>
<pdfrwt beam="2">  1       -3 0.28502517E+00 0.28241750E+03</pdfrwt>
<totfact> 0.10423368E+02</totfact>
</mgrwt>
</event>
<event>
 5    0  0.1239749E+000  0.7109460E+03  0.7546771E-02  0.9885367E-01
          1   -1    0    0  503    0 -0.00000000000E+00  0.00000000000E+00  0.10562265560E+04  0.10562265560E+04  0.00000000000E+00 0. -1.
         21   -1    0    0  501  502  0.00000000000E+00 -0.00000000000E+00 -0.41696107994E+04  0.41696107994E+04  0.00000000000E+00 0. -1.
         25    1    1    2    0    0  0.18601045095E+02  0.36334637275E+03 -0.35798378990E+04  0.36004487177E+04  0.12500000000E+03 0.  0.
         21    1    1    2  503  502  0.69836988921E+03 -0.25487639521E+03 -0.34204061218E+02  0.74421260188E+03  0.00000000000E+00 0. -1.
          1    1    1    2  501    0 -0.71697093431E+03 -0.10846997754E+03  0.50065771684E+03  0.88117603582E+03  0.00000000000E+00 0. -1.
<mgrwt>
<rscale>  4 0.60975745E+03</rscale>
<asrwt>0</asrwt>
<pdfrwt beam="1">  1       21 0.64147858E+00 0.71094605E+03</pdfrwt>
<pdfrwt beam="2">  1        1 0.16249639E+00 0.71094605E+03</pdfrwt>
<totfact> 0.15252295E-02</totfact>
</mgrwt>
</event>
<event>
 5    0  0.1239749E+000  0.6487640E+03  0.7546771E-02  0.9809101E-01
          1   -1    0    0  503    0 -0.00000000000E+00  0.00000000000E+00  0.69269816233E+03  0.69269816233E+03  0.00000000000E+00 0.  1.
         21   -1    0    0  501  502  0.00000000000E+00 -0.00000000000E+00 -0.18097036326E+04  0.18097036326E+04  0.00000000000E+00 0.  1.
         25    1    1    2    0    0  0.40352248910E+03 -0.50396304063E+03  0.88089656967E+02  0.66347112461E+03  0.12500000000E+03 0.  0.
         21    1    1    2  503  502 -0.44891597159E+03  0.44994352267E+03 -0.14504682773E+04  0.15836138881E+04  0.00000000000E+00 0.  1.
          1    1    1    2  501    0  0.45393482496E+02  0.54019517960E+02  0.24537315000E+03  0.25531678228E+03  0.00000000000E+00 0.  1.
<mgrwt>
<rscale>  4 0.64876402E+03</rscale>
<asrwt>0</asrwt>
<pdfrwt beam="1">  1       21 0.27841594E+00 0.64876402E+03</pdfrwt>
<pdfrwt beam="2">  1        1 0.10656895E+00 0.64876402E+03</pdfrwt>
<totfact> 0.10584893E+01</totfact>
</mgrwt>
</event>
<event>
 5    0  0.1239749E+000  0.3695834E+03  0.7546771E-02  0.1054852E+00
         21   -1    0    0  503  502  0.00000000000E+00  0.00000000000E+00  0.26084058697E+03  0.26084058697E+03  0.00000000000E+00 0. -1.
         -2   -1    0    0    0  501 -0.00000000000E+00 -0.00000000000E+00 -0.69829285058E+03  0.69829285058E+03  0.00000000000E+00 0.  1.
         25    1    1    2    0    0 -0.62593092452E+02 -0.36581609190E+03 -0.33704728707E+03  0.51668673491E+03  0.12500000000E+03 0.  0.
         21    1    1    2  503  501  0.43497776968E+02  0.33575303426E+03 -0.28252690207E+01  0.33857072934E+03  0.00000000000E+00 0. -1.
         -2    1    1    2    0  502  0.19095315485E+02  0.30063057638E+02 -0.97579707522E+02  0.10387597330E+03  0.00000000000E+00 0.  1.
<mgrwt>
<rscale>  4 0.36958339E+03</rscale>
<asrwt>0</asrwt>
<pdfrwt beam="1">  1       21 0.40129322E-01 0.36958339E+03</pdfrwt>
<pdfrwt beam="2">  1       -2 0.10742967E+00 0.36958339E+03</pdfrwt>
<totfact> 0.33685781E+02</totfact>
</mgrwt>
</event>
<event>
 5    0  0.1239749E+000  0.3117627E+03  0.7546771E-02  0.1079504E+00
          1   -1    0    0  503    0 -0.00000000000E+00  0.00000000000E+00  0.12934429549E+04  0.12934429549E+04  0.00000000000E+00 0. -1.
         21   -1    0    0  501  502  0.00000000000E+00 -0.00000000000E+00 -0.48721509343E+03  0.48721509343E+03  0.00000000000E+00 0.  1.
         25    1    1    2    0    0 -0.92409066648E+02 -0.21687723592E+03 -0.36882778168E+03  0.45522972618E+03  0.12500000000E+03 0.  0.
         21    1    1    2  503  502  0.17056760940E+03 -0.62638126755E+02  0.91051445130E+02  0.20324175250E+03  0.00000000000E+00 0. -1.
          1    1    1    2  501    0 -0.78158542752E+02  0.27951536267E+03  0.10840041980E+04  0.11221865696E+04  0.00000000000E+00 0. -1.
<mgrwt>
<rscale>  4 0.31176275E+03</rscale>
<asrwt>0</asrwt>
<pdfrwt beam="1">  1       21 0.74956169E-01 0.31176275E+03</pdfrwt>
<pdfrwt beam="2">  1        1 0.19899122E+00 0.31176275E+03</pdfrwt>
<totfact> 0.16429802E+02</totfact>
</mgrwt>
</event>
<event>
 5    0  0.1239749E+000  0.2736603E+03  0.7546771E-02  0.1099203E+00
         21   -1    0    0  501  502  0.00000000000E+00  0.00000000000E+00  0.63351243222E+02  0.63351243222E+02  0.00000000000E+00 0. -1.
          1   -1    0    0  503    0 -0.00000000000E+00 -0.00000000000E+00 -0.12956311621E+04  0.12956311621E+04  0.00000000000E+00 0. -1.
         25    1    1    2    0    0  0.67780770245E+01 -0.25776520278E+03 -0.58316011478E+03  0.64976115732E+03  0.12500000000E+03 0.  0.
         21    1    1    2  503  502  0.36964134384E+02  0.22901903744E+03 -0.55487147713E+03  0.60141368697E+03  0.00000000000E+00 0. -1.
          1    1    1    2  501    0 -0.43742211408E+02  0.28746165341E+02 -0.94248326991E+02  0.10780756106E+03  0.00000000000E+00 0. -1.
<mgrwt>
<rscale>  4 0.27366034E+03</rscale>
<asrwt>0</asrwt>
<pdfrwt beam="1">  1       21 0.97463466E-02 0.27366034E+03</pdfrwt>
<pdfrwt beam="2">  1        1 0.19932784E+00 0.27366034E+03</pdfrwt>
<totfact> 0.92204247E+03</totfact>
</mgrwt>
</event>
<event>
 5    0  0.1239749E+000  0.2306321E+03  0.7546771E-02  0.1126196E+00
          2   -1    0    0  503    0 -0.00000000000E+00  0.00000000000E+00  0.18519585346E+04  0.18519585346E+04  0.00000000000E+00 0. -1.
         21   -1    0    0  501  502  0.00000000000E+00 -0.00000000000E+00 -0.51916000901E+02  0.51916000901E+02  0.00000000000E+00 0. -1.
         25    1    1    2    0    0  0.18864909294E+03 -0.76940767172E+02  0.28795422848E+03  0.37423388358E+03  0.12500000000E+03 0.  0.
         21    1    1    2  503  502 -0.15425439051E+03  0.67310401994E+02  0.84503279467E+03  0.86162957892E+03  0.00000000000E+00 0. -1.
          2    1    1    2  501    0 -0.34394702433E+02  0.96303651777E+01  0.66705551053E+03  0.66801107297E+03  0.00000000000E+00 0. -1.
<mgrwt>
<rscale>  4 0.23063215E+03</rscale>
<asrwt>0</asrwt>
<pdfrwt beam="1">  1       21 0.79870785E-02 0.23063215E+03</pdfrwt>
<pdfrwt beam="2">  1        2 0.28491665E+00 0.23063215E+03</pdfrwt>
<totfact> 0.13652416E+04</totfact>
</mgrwt>
</event>
<event>
 5    0  0.1239749E+000  0.1872253E+03  0.7546771E-02  0.1160988E+00
         21   -1    0    0  501  502  0.00000000000E+00  0.00000000000E+00  0.26456817326E+03  0.26456817326E+03  0.00000000000E+00 0.  1.
          2   -1    0    0  503    0 -0.00000000000E+00 -0.00000000000E+00 -0.75588964297E+03  0.75588964297E+03  0.00000000000E+00 0.  1.
         25    1    1    2    0    0 -0.81029835083E+01 -0.23882188242E+03 -0.16134686974E+03  0.31426002329E+03  0.12500000000E+03 0.  0.
         21    1    1    2  503  502  0.23489662826E+02  0.11090807976E+03  0.16194706933E+03  0.19768464705E+03  0.00000000000E+00 0.  1.
          2    1    1    2  501    0 -0.15386679318E+02  0.12791380266E+03 -0.49192166929E+03  0.50851314588E+03  0.00000000000E+00 0.  1.
<mgrwt>
<rscale>  4 0.18722531E+03</rscale>
<asrwt>0</asrwt>
<pdfrwt beam="1">  1       21 0.40702796E-01 0.18722531E+03</pdfrwt>
<pdfrwt beam="2">  1        2 0.11629071E+00 0.18722531E+03</pdfrwt>
<totfact> 0.28075700E+03</totfact>
</mgrwt>
</event>
<event>
 5    0  0.1239749E+000  0.3288610E+03  0.7546771E-02  0.1071642E+00
         21   -1    0    0  503  502  0.00000000000E+00  0.00000000000E+00  0.14406231389E+03  0.14406231389E+03  0.00000000000E+00 0. -1.
         -2   -1    0    0    0  501 -0.00000000000E+00 -0.00000000000E+00 -0.93203419208E+03  0.93203419208E+03  0.00000000000E+00 0. -1.
         25    1    1    2    0    0 -0.29427202873E+03 -0.10107972963E+03 -0.53870626046E+03  0.63454123089E+03  0.12500000000E+03 0.  0.
         21    1    1    2  503  501  0.26579033777E+03  0.14300142539E+03 -0.24835838767E+03  0.39086545005E+03  0.00000000000E+00 0. -1.
         -2    1    1    2    0  502  0.28481690962E+02 -0.41921695761E+02 -0.90723005889E+00  0.50689825033E+02  0.00000000000E+00 0. -1.
<mgrwt>
<rscale>  4 0.32886101E+03</rscale>
<asrwt>0</asrwt>
<pdfrwt beam="1">  1       21 0.22163434E-01 0.32886101E+03</pdfrwt>
<pdfrwt beam="2">  1       -2 0.14338987E+00 0.32886101E+03</pdfrwt>
<totfact> 0.53888146E+02</totfact>
</mgrwt>
</event>
<event>
 5    0  0.1239749E+000  0.2710820E+03  0.7546771E-02  0.1100662E+00
          1   -1    0    0  503    0 -0.00000000000E+00  0.00000000000E+00  0.24177826611E+03  0.24177826611E+03  0.00000000000E+00 0.  1.
         21   -1    0    0  501  502  0.00000000000E+00 -0.00000000000E+00 -0.25317700654E+04  0.25317700654E+04  0.00000000000E+00 0.  1.
         25    1    1    2    0    0  0.25362516328E+03  0.15840966542E+03 -0.18553219778E+04  0.18834181657E+04  0.12500000000E+03 0.  0.
         21    1    1    2  503  502 -0.58193735609E+02 -0.19533154818E+03 -0.59862736203E+03  0.63237302532E+03  0.00000000000E+00 0.  1.
          1    1    1    2  501    0 -0.19543142768E+03  0.36921882764E+02  0.16395754057E+03  0.25775714046E+03  0.00000000000E+00 0.  1.
<mgrwt>
<rscale>  4 0.27108196E+03</rscale>
<asrwt>0</asrwt>
<pdfrwt beam="1">  1       21 0.38950307E+00 0.27108196E+03</pdfrwt>
<pdfrwt beam="2">  1        1 0.37196658E-01 0.27108196E+03</pdfrwt>
<totfact> 0.11437949E+01</totfact>
</mgrwt>
</event>
<event>
 5    0  0.1734448E+000  0.2972002E+03  0.7546771E-02  0.1086649E+00
          2   -1    0    0  503    0 -0.00000000000E+00  0.00000000000E+00  0.10654997098E+04  0.10654997098E+04  0.00000000000E+00 0. -1.
         21   -1    0    0  501  502  0.00000000000E+00 -0.00000000000E+00 -0.14650166166E+04  0.14650166166E+04  0.00000000000E+00 0. -1.
         25    1    1    2    0    0 -0.16303148541E+03 -0.19303183102E+03  0.14790382005E+03  0.31834115821E+03  0.12500000000E+03 0.  0.
         21    1    1    2  503  502  0.16529776549E+03  0.21426304281E+03 -0.13663888539E+04  0.13929287501E+04  0.00000000000E+00 0. -1.
          2    1    1    2  501    0 -0.22662800801E+01 -0.21231211792E+02  0.81896812709E+03  0.81924641810E+03  0.00000000000E+00 0. -1.
<mgrwt>
<rscale>  4 0.29720023E+03</rscale>
<asrwt>0</asrwt>
<pdfrwt beam="1">  1       21 0.22538717E+00 0.29720023E+03</pdfrwt>
<pdfrwt beam="2">  1        2 0.16392303E+00 0.29720023E+03</pdfrwt>
<totfact> 0.25615768E+01</totfact>
</mgrwt>
</event>
<event>
 5    0  0.1239749E+000  0.2682672E+03  0.7546771E-02  0.1102275E+00
          1   -1    0    0  503    0 -0.00000000000E+00  0.00000000000E+00  0.51906675610E+03  0.51906675610E+03  0.00000000000E+00 0. -1.
         21   -1    0    0  501  502  0.00000000000E+00 -0.00000000000E+00 -0.60940380742E+03  0.60940380742E+03  0.00000000000E+00 0.  1.
         25    1    1    2    0    0  0.24795341683E+03 -0.26635961630E+02 -0.45020103942E+03  0.52961905863E+03  0.12500000000E+03 0.  0.
         21    1    1    2  503  502 -0.21026714119E+03 -0.45724678431E+02 -0.14529804471E+02  0.21567135206E+03  0.00000000000E+00 0.  1.
          1    1    1    2  501    0 -0.37686275642E+02  0.72360640061E+02  0.37439379257E+03  0.38318015282E+03  0.00000000000E+00 0. -1.
<mgrwt>
<rscale>  4 0.26826721E+03</rscale>
<asrwt>0</asrwt>
<pdfrwt beam="1">  1       21 0.93754431E-01 0.26826721E+03</pdfrwt>
<pdfrwt beam="2">  1        1 0.79856424E-01 0.26826721E+03</pdfrwt>
<totfact> 0.43512695E+02</totfact>
</mgrwt>
</event>
<event>
 5    0  0.1239749E+000  0.8952854E+03  0.7546771E-02  0.9431494E-01
         21   -1    0    0  501  502  0.00000000000E+00  0.00000000000E+00  0.22431034805E+04  0.22431034805E+04  0.00000000000E+00 0.  1.
          2   -1    0    0  503    0 -0.00000000000E+00 -0.00000000000E+00 -0.14933233225E+04  0.14933233225E+04  0.00000000000E+00 0.  1.
         25    1    1    2    0    0 -0.23647905634E+03  0.84996536188E+03  0.16054290989E+04  0.18361348132E+04  0.12500000000E+03 0.  0.
         21    1    1    2  503  502  0.67971054470E+03 -0.73016417822E+03 -0.82354123400E+02  0.10009637123E+04  0.00000000000E+00 0.  1.
          2    1    1    2  501    0 -0.44323148836E+03 -0.11980118366E+03 -0.77329481754E+03  0.89932827750E+03  0.00000000000E+00 0.  1.
<mgrwt>
<rscale>  4 0.89528539E+03</rscale>
<asrwt>0</asrwt>
<pdfrwt beam="1">  1       21 0.34509284E+00 0.89528539E+03</pdfrwt>
<pdfrwt beam="2">  1        2 0.22974205E+00 0.89528539E+03</pdfrwt>
<totfact> 0.19928034E+00</totfact>
</mgrwt>
</event>
<event>
 5    0  0.1239749E+000  0.2610016E+03  0.7546771E-02  0.1106543E+00
          1   -1    0    0  503    0 -0.00000000000E+00  0.00000000000E+00  0.49391298736E+03  0.49391298736E+03  0.00000000000E+00 0.  1.
         21   -1    0    0  501  502  0.00000000000E+00 -0.00000000000E+00 -0.22572877772E+03  0.22572877772E+03  0.00000000000E+00 0.  1.
         25    1    1    2    0    0  0.19370488073E+03  0.14379917024E+03 -0.51202073263E+02  0.27648948350E+03  0.12500000000E+03 0.  0.
         21    1    1    2  503  502 -0.14744416318E+03 -0.15038702830E+03  0.12868892089E+03  0.24681344756E+03  0.00000000000E+00 0.  1.
          1    1    1    2  501    0 -0.46260717549E+02  0.65878580583E+01  0.19069736202E+03  0.19633883402E+03  0.00000000000E+00 0.  1.
<mgrwt>
<rscale>  4 0.26100161E+03</rscale>
<asrwt>0</asrwt>
<pdfrwt beam="1">  1       21 0.34727504E-01 0.26100161E+03</pdfrwt>
<pdfrwt beam="2">  1        1 0.75986613E-01 0.26100161E+03</pdfrwt>
<totfact> 0.39686501E+03</totfact>
</mgrwt>
</event>
<event>
 5    0  0.1239749E+000  0.2759107E+03  0.7546771E-02  0.1097944E+00
         21   -1    0    0  501  502  0.00000000000E+00  0.00000000000E+00  0.68012029022E+03  0.68012029022E+03  0.00000000000E+00 0.  1.
          4   -1    0    0  503    0 -0.00000000000E+00 -0.00000000000E+00 -0.42535544441E+03  0.42535544441E+03  0.00000000000E+00 0.  1.
         25    1    1    2    0    0  0.22117066092E+03 -0.10458573675E+03  0.55792588342E+03  0.62190106043E+03  0.12500000000E+03 0.  0.
         21    1    1    2  503  502  0.21131904395E+02  0.58887589677E+02  0.29763270850E+02  0.69283171789E+02  0.00000000000E+00 0. -1.
          4    1    1    2  501    0 -0.24230256531E+03  0.45698147077E+02 -0.33292430846E+03  0.41429150241E+03  0.00000000000E+00 0.  1.
<mgrwt>
<rscale>  4 0.27591066E+03</rscale>
<asrwt>0</asrwt>
<pdfrwt beam="1">  1       21 0.10463389E+00 0.27591066E+03</pdfrwt>
<pdfrwt beam="2">  1        4 0.65439299E-01 0.27591066E+03</pdfrwt>
<totfact> 0.66654439E+01</totfact>
</mgrwt>
</event>
<event>
 5    0  0.1239749E+000  0.3369940E+03  0.7546771E-02  0.1068083E+00
         21   -1    0    0  503  502  0.00000000000E+00  0.00000000000E+00  0.10532944162E+04  0.10532944162E+04  0.00000000000E+00 0. -1.
         -1   -1    0    0    0  501 -0.00000000000E+00 -0.00000000000E+00 -0.33575573603E+03  0.33575573603E+03  0.00000000000E+00 0. -1.
         25    1    1    2    0    0  0.21774047057E+03 -0.19698433455E+03  0.66683849423E+03  0.73926471441E+03  0.12500000000E+03 0.  0.
         21    1    1    2  503  501 -0.36905901313E+03  0.14888256929E+03  0.18776403290E+03  0.44002943841E+03  0.00000000000E+00 0. -1.
         -1    1    1    2    0  502  0.15131854256E+03  0.48101765259E+02 -0.13706384697E+03  0.20975599941E+03  0.00000000000E+00 0. -1.
<mgrwt>
<rscale>  4 0.33699399E+03</rscale>
<asrwt>0</asrwt>
<pdfrwt beam="1">  1       21 0.16204529E+00 0.33699399E+03</pdfrwt>
<pdfrwt beam="2">  1       -1 0.51654729E-01 0.33699399E+03</pdfrwt>
<totfact> 0.79651605E+01</totfact>
</mgrwt>
</event>
<event>
 5    0  0.1239749E+000  0.2378239E+03  0.7546771E-02  0.1121251E+00
         21   -1    0    0  501  502  0.00000000000E+00  0.00000000000E+00  0.70524943361E+02  0.70524943361E+02  0.00000000000E+00 0. -1.
          1   -1    0    0  503    0 -0.00000000000E+00 -0.00000000000E+00 -0.20099205742E+04  0.20099205742E+04  0.00000000000E+00 0.  1.
         25    1    1    2    0    0 -0.10600889594E+03  0.17866637581E+03 -0.27682470273E+03  0.36798977690E+03  0.12500000000E+03 0.  0.
         21    1    1    2  503  502  0.55923613072E+02  0.17640319548E+02 -0.27300874871E+02  0.64683607982E+02  0.00000000000E+00 0. -1.
          1    1    1    2  501    0  0.50085282867E+02 -0.19630669536E+03 -0.16352700533E+04  0.16477721327E+04  0.00000000000E+00 0.  1.
<mgrwt>
<rscale>  4 0.23782389E+03</rscale>
<asrwt>0</asrwt>
<pdfrwt beam="1">  1       21 0.10849990E-01 0.23782389E+03</pdfrwt>
<pdfrwt beam="2">  1        1 0.30921858E+00 0.23782389E+03</pdfrwt>
<totfact> 0.26129660E+03</totfact>
</mgrwt>
</event>
<event>
 5    0  0.1239749E+000  0.3126141E+03  0.7546771E-02  0.1079100E+00
         -3   -1    0    0    0  501 -0.00000000000E+00  0.00000000000E+00  0.21460963223E+03  0.21460963223E+03  0.00000000000E+00 0. -1.
         21   -1    0    0  503  502  0.00000000000E+00 -0.00000000000E+00 -0.81083756209E+03  0.81083756209E+03  0.00000000000E+00 0. -1.
         25    1    1    2    0    0  0.20479548262E+03  0.77201681846E+02 -0.37270467501E+02  0.25478496253E+03  0.12500000000E+03 0.  0.
         21    1    1    2  503  501 -0.28504814029E+03 -0.12243054460E+03 -0.59557662660E+03  0.67153048976E+03  0.00000000000E+00 0. -1.
         -3    1    1    2    0  502  0.80252657669E+02  0.45228862753E+02  0.36619164239E+02  0.99131742033E+02  0.00000000000E+00 0. -1.
<mgrwt>
<rscale>  4 0.31261413E+03</rscale>
<asrwt>0</asrwt>
<pdfrwt beam="1">  1       21 0.12474424E+00 0.31261413E+03</pdfrwt>
<pdfrwt beam="2">  1       -3 0.33016867E-01 0.31261413E+03</pdfrwt>
<totfact> 0.20461755E+02</totfact>
</mgrwt>
</event>
<event>
 5    0  0.1239749E+000  0.4569082E+03  0.7546771E-02  0.1025682E+00
         21   -1    0    0  501  502  0.00000000000E+00  0.00000000000E+00  0.56590114279E+03  0.56590114279E+03  0.00000000000E+00 0. -1.
          1   -1    0    0  503    0 -0.00000000000E+00 -0.00000000000E+00 -0.84353348385E+03  0.84353348385E+03  0.00000000000E+00 0. -1.
         25    1    1    2    0    0  0.30472065092E+03 -0.39904299000E+03  0.21264670762E+03  0.55940468824E+03  0.12500000000E+03 0.  0.
         21    1    1    2  503  502  0.60353022572E+02  0.31360188670E+03 -0.23251679230E+03  0.39503504829E+03  0.00000000000E+00 0. -1.
          1    1    1    2  501    0 -0.36507367349E+03  0.85441103297E+02 -0.25776225639E+03  0.45499489011E+03  0.00000000000E+00 0. -1.
<mgrwt>
<rscale>  4 0.45690816E+03</rscale>
<asrwt>0</asrwt>
<pdfrwt beam="1">  1       21 0.87061714E-01 0.45690816E+03</pdfrwt>
<pdfrwt beam="2">  1        1 0.12977438E+00 0.45690816E+03</pdfrwt>
<totfact> 0.23780302E+02</totfact>
</mgrwt>
</event>
<event>
 5    0  0.1239749E+000  0.3836622E+03  0.7546771E-02  0.1049588E+00
         21   -1    0    0  503  502  0.00000000000E+00  0.00000000000E+00  0.13099860081E+04  0.13099860081E+04  0.00000000000E+00 0. -1.
         -1   -1    0    0    0  501 -0.00000000000E+00 -0.00000000000E+00 -0.18783357146E+03  0.18783357146E+03  0.00000000000E+00 0. -1.
         25    1    1    2    0    0  0.28875900449E+03 -0.21100992564E+03  0.92055548233E+03  0.99546689922E+03  0.12500000000E+03 0.  0.
         21    1    1    2  503  501 -0.28709936486E+03  0.24511277418E+03  0.24280043137E+03  0.44884113765E+03  0.00000000000E+00 0. -1.
         -1    1    1    2    0  502 -0.16596396320E+01 -0.34102848538E+02 -0.41203477046E+02  0.53511542707E+02  0.00000000000E+00 0. -1.
<mgrwt>
<rscale>  4 0.38366220E+03</rscale>
<asrwt>0</asrwt>
<pdfrwt beam="1">  1       21 0.20153630E+00 0.38366220E+03</pdfrwt>
<pdfrwt beam="2">  1       -1 0.28897473E-01 0.38366220E+03</pdfrwt>
<totfact> 0.11693450E+02</totfact>
</mgrwt>
</event>
<event>
 5    0  0.1239749E+000  0.2877165E+03  0.7546771E-02  0.1091547E+00
         21   -1    0    0  501  502  0.00000000000E+00  0.00000000000E+00  0.47398498850E+03  0.47398498850E+03  0.00000000000E+00 0. -1.
          2   -1    0    0  503    0 -0.00000000000E+00 -0.00000000000E+00 -0.65870919276E+03  0.65870919276E+03  0.00000000000E+00 0. -1.
         25    1    1    2    0    0  0.23988909371E+03  0.10114102133E+03  0.35325458915E+03  0.45627852046E+03  0.12500000000E+03 0.  0.
         21    1    1    2  503  502 -0.22418622934E+03 -0.12072930183E+03 -0.16681724611E+03  0.30440601726E+03  0.00000000000E+00 0. -1.
          2    1    1    2  501    0 -0.15702864373E+02  0.19588280501E+02 -0.37116154731E+03  0.37200964353E+03  0.00000000000E+00 0. -1.
<mgrwt>
<rscale>  4 0.28771655E+03</rscale>
<asrwt>0</asrwt>
<pdfrwt beam="1">  1       21 0.72920768E-01 0.28771655E+03</pdfrwt>
<pdfrwt beam="2">  1        2 0.10133988E+00 0.28771655E+03</pdfrwt>
<totfact> 0.92039311E+02</totfact>
</mgrwt>
</event>
<event>
 5    0  0.1239749E+000  0.2021137E+03  0.7546771E-02  0.1147968E+00
          1   -1    0    0  503    0 -0.00000000000E+00  0.00000000000E+00  0.22361231690E+04  0.22361231690E+04  0.00000000000E+00 0. -1.
         21   -1    0    0  501  502  0.00000000000E+00 -0.00000000000E+00 -0.18241532261E+03  0.18241532261E+03  0.00000000000E+00 0. -1.
         25    1    1    2    0    0 -0.14366699240E+03 -0.17578212106E+03  0.37368126070E+03  0.45475514663E+03  0.12500000000E+03 0.  0.
         21    1    1    2  503  502  0.83431011474E+02  0.12726341770E+03 -0.99991779663E+02  0.18208532934E+03  0.00000000000E+00 0. -1.
          1    1    1    2  501    0  0.60235980925E+02  0.48518703354E+02  0.17800183654E+04  0.17816980157E+04  0.00000000000E+00 0. -1.
<mgrwt>
<rscale>  4 0.20211375E+03</rscale>
<asrwt>0</asrwt>
<pdfrwt beam="1">  1       21 0.28063897E-01 0.20211375E+03</pdfrwt>
<pdfrwt beam="2">  1        1 0.34401893E+00 0.20211375E+03</pdfrwt>
<totfact> 0.32742196E+02</totfact>
</mgrwt>
</event>
<event>
 5    0  0.1239749E+000  0.2702290E+03  0.7546771E-02  0.1101149E+00
          3   -1    0    0  503    0 -0.00000000000E+00  0.00000000000E+00  0.25615638068E+03  0.25615638068E+03  0.00000000000E+00 0. -1.
         21   -1    0    0  501  502  0.00000000000E+00 -0.00000000000E+00 -0.11634336089E+04  0.11634336089E+04  0.00000000000E+00 0.  1.
         25    1    1    2    0    0  0.25269678945E+03  0.83888216410E+02 -0.51579154438E+03  0.59376663556E+03  0.12500000000E+03 0.  0.
         21    1    1    2  503  502 -0.51177219988E+02  0.41226907009E+02 -0.54129919326E+03  0.54527385994E+03  0.00000000000E+00 0.  1.
          3    1    1    2  501    0 -0.20151956947E+03 -0.12511512342E+03  0.14981350947E+03  0.28054949404E+03  0.00000000000E+00 0. -1.
<mgrwt>
<rscale>  4 0.27022895E+03</rscale>
<asrwt>0</asrwt>
<pdfrwt beam="1">  1       21 0.17898979E+00 0.27022895E+03</pdfrwt>
<pdfrwt beam="2">  1        3 0.39408674E-01 0.27022895E+03</pdfrwt>
<totfact> 0.56059120E+01</totfact>
</mgrwt>
</event>
<event>
 5    0  0.1239749E+000  0.4319229E+03  0.7546771E-02  0.1033254E+00
          2   -1    0    0  503    0 -0.00000000000E+00  0.00000000000E+00  0.57621873417E+03  0.57621873417E+03  0.00000000000E+00 0. -1.
         21   -1    0    0  501  502  0.00000000000E+00 -0.00000000000E+00 -0.73498649965E+03  0.73498649965E+03  0.00000000000E+00 0. -1.
         25    1    1    2    0    0  0.23279935282E+03  0.33899118670E+03 -0.53512971486E+03  0.68636679338E+03  0.12500000000E+03 0.  0.
         21    1    1    2  503  502 -0.26142091394E+03 -0.33488388598E+03  0.24518772339E+03  0.49051516901E+03  0.00000000000E+00 0. -1.
          2    1    1    2  501    0  0.28621561119E+02 -0.41073007176E+01  0.13117422599E+03  0.13432327142E+03  0.00000000000E+00 0. -1.
<mgrwt>
<rscale>  4 0.43192286E+03</rscale>
<asrwt>0</asrwt>
<pdfrwt beam="1">  1       21 0.11307485E+00 0.43192286E+03</pdfrwt>
<pdfrwt beam="2">  1        2 0.88649036E-01 0.43192286E+03</pdfrwt>
<totfact> 0.36426893E+02</totfact>
</mgrwt>
</event>
<event>
 5    0  0.1239749E+000  0.2399391E+03  0.7546771E-02  0.1119833E+00
         21   -1    0    0  501  502  0.00000000000E+00  0.00000000000E+00  0.15192399270E+03  0.15192399270E+03  0.00000000000E+00 0.  1.
          1   -1    0    0  503    0 -0.00000000000E+00 -0.00000000000E+00 -0.26350365881E+04  0.26350365881E+04  0.00000000000E+00 0.  1.
         25    1    1    2    0    0 -0.11106828933E+03 -0.19154787256E+03 -0.90297461906E+02  0.26982472830E+03  0.12500000000E+03 0.  0.
         21    1    1    2  503  502 -0.47251088002E+02  0.21277640729E+03 -0.14084315711E+03  0.25950579902E+03  0.00000000000E+00 0.  1.
          1    1    1    2  501    0  0.15831937734E+03 -0.21228534733E+02 -0.22519719764E+04  0.22576300535E+04  0.00000000000E+00 0.  1.
<mgrwt>
<rscale>  4 0.23993905E+03</rscale>
<asrwt>0</asrwt>
<pdfrwt beam="1">  1       21 0.23372923E-01 0.23993905E+03</pdfrwt>
<pdfrwt beam="2">  1        1 0.40539023E+00 0.23993905E+03</pdfrwt>
<totfact> 0.24696914E+02</totfact>
</mgrwt>
</event>
<event>
 5    0  0.1239749E+000  0.3178526E+03  0.7546771E-02  0.1076642E+00
         21   -1    0    0  501  502  0.00000000000E+00  0.00000000000E+00  0.18641561614E+04  0.18641561614E+04  0.00000000000E+00 0. -1.
          2   -1    0    0  503    0 -0.00000000000E+00 -0.00000000000E+00 -0.98259710937E+02  0.98259710937E+02  0.00000000000E+00 0. -1.
         25    1    1    2    0    0 -0.16025252138E+03 -0.23582317098E+03  0.12413786753E+04  0.12798200866E+04  0.12500000000E+03 0.  0.
         21    1    1    2  503  502  0.20378166621E+03  0.23193550441E+03  0.55092305358E+03  0.63153563372E+03  0.00000000000E+00 0. -1.
          2    1    1    2  501    0 -0.43529144838E+02  0.38876665656E+01 -0.26405278376E+02  0.51060152054E+02  0.00000000000E+00 0. -1.
<mgrwt>
<rscale>  4 0.31785257E+03</rscale>
<asrwt>0</asrwt>
<pdfrwt beam="1">  1       21 0.28679323E+00 0.31785257E+03</pdfrwt>
<pdfrwt beam="2">  1        2 0.15116880E-01 0.31785257E+03</pdfrwt>
<totfact> 0.17299919E+02</totfact>
</mgrwt>
</event>
<event>
 5    0  0.1239749E+000  0.2258413E+03  0.7546771E-02  0.1129602E+00
         21   -1    0    0  501  502  0.00000000000E+00  0.00000000000E+00  0.23417098988E+03  0.23417098988E+03  0.00000000000E+00 0.  1.
          1   -1    0    0  503    0 -0.00000000000E+00 -0.00000000000E+00 -0.10513060683E+04  0.10513060683E+04  0.00000000000E+00 0. -1.
         25    1    1    2    0    0  0.57624639863E+01  0.22828752664E+03 -0.50591369355E+02  0.26520348313E+03  0.12500000000E+03 0.  0.
         21    1    1    2  503  502  0.73843924538E+00 -0.17297066809E+03  0.66540517186E+02  0.18532953823E+03  0.00000000000E+00 0.  1.
          1    1    1    2  501    0 -0.65009032317E+01 -0.55316858555E+02 -0.83308422627E+03  0.83494403684E+03  0.00000000000E+00 0. -1.
<mgrwt>
<rscale>  4 0.22584129E+03</rscale>
<asrwt>0</asrwt>
<pdfrwt beam="1">  1       21 0.36026305E-01 0.22584129E+03</pdfrwt>
<pdfrwt beam="2">  1        1 0.16173940E+00 0.22584129E+03</pdfrwt>
<totfact> 0.12031457E+03</totfact>
</mgrwt>
</event>
<event>
 5    0  0.1239749E+000  0.4314005E+03  0.7546771E-02  0.1033418E+00
         21   -1    0    0  501  502  0.00000000000E+00  0.00000000000E+00  0.11162947823E+04  0.11162947823E+04  0.00000000000E+00 0. -1.
          2   -1    0    0  503    0 -0.00000000000E+00 -0.00000000000E+00 -0.10852057080E+04  0.10852057080E+04  0.00000000000E+00 0. -1.
         25    1    1    2    0    0  0.38763748716E+03 -0.30719084569E+03 -0.36584476636E+02  0.51146110415E+03  0.12500000000E+03 0.  0.
         21    1    1    2  503  502 -0.27428534187E+03  0.29111713114E+03  0.82884442215E+03  0.92030685586E+03  0.00000000000E+00 0. -1.
          2    1    1    2  501    0 -0.11335214529E+03  0.16073714553E+02 -0.76117087115E+03  0.76973253032E+03  0.00000000000E+00 0. -1.
<mgrwt>
<rscale>  4 0.43140055E+03</rscale>
<asrwt>0</asrwt>
<pdfrwt beam="1">  1       21 0.17173766E+00 0.43140055E+03</pdfrwt>
<pdfrwt beam="2">  1        2 0.16695472E+00 0.43140055E+03</pdfrwt>
<totfact> 0.52343520E+01</totfact>
</mgrwt>
</event>
<event>
 5    0  0.1239749E+000  0.2692640E+03  0.7546771E-02  0.1101702E+00
          3   -1    0    0  503    0 -0.00000000000E+00  0.00000000000E+00  0.12710455124E+04  0.12710455124E+04  0.00000000000E+00 0. -1.
         21   -1    0    0  501  502  0.00000000000E+00 -0.00000000000E+00 -0.45468173893E+03  0.45468173893E+03  0.00000000000E+00 0.  1.
         25    1    1    2    0    0  0.61230795773E+01  0.23699828290E+03 -0.15495793776E+03  0.30958462604E+03  0.12500000000E+03 0.  0.
         21    1    1    2  503  502  0.26511966615E+02 -0.23923155204E+03 -0.15698265344E+03  0.28736418243E+03  0.00000000000E+00 0.  1.
          3    1    1    2  501    0 -0.32635046192E+02  0.22332691341E+01  0.11283043647E+04  0.11287784429E+04  0.00000000000E+00 0. -1.
<mgrwt>
<rscale>  4 0.26926403E+03</rscale>
<asrwt>0</asrwt>
<pdfrwt beam="1">  1       21 0.69951037E-01 0.26926403E+03</pdfrwt>
<pdfrwt beam="2">  1        3 0.19554546E+00 0.26926403E+03</pdfrwt>
<totfact> 0.15122037E+01</totfact>
</mgrwt>
</event>
<event>
 5    0  0.1239749E+000  0.2499833E+03  0.7546771E-02  0.1113315E+00
         21   -1    0    0  503  502  0.00000000000E+00  0.00000000000E+00  0.60356473738E+03  0.60356473738E+03  0.00000000000E+00 0. -1.
         -1   -1    0    0    0  501 -0.00000000000E+00 -0.00000000000E+00 -0.39739962841E+03  0.39739962841E+03  0.00000000000E+00 0.  1.
         25    1    1    2    0    0  0.15645691240E+03  0.14107418028E+03  0.46647170031E+03  0.52687905345E+03  0.12500000000E+03 0.  0.
         21    1    1    2  503  501 -0.26332123853E+03 -0.10211607132E+03 -0.18193290474E+03  0.33595438457E+03  0.00000000000E+00 0. -1.
         -1    1    1    2    0  502  0.10686432613E+03 -0.38958108958E+02 -0.78373686597E+02  0.13813092776E+03  0.00000000000E+00 0.  1.
<mgrwt>
<rscale>  4 0.24998332E+03</rscale>
<asrwt>0</asrwt>
<pdfrwt beam="1">  1       21 0.92856113E-01 0.24998332E+03</pdfrwt>
<pdfrwt beam="2">  1       -1 0.61138404E-01 0.24998332E+03</pdfrwt>
<totfact> 0.24654619E+02</totfact>
</mgrwt>
</event>
<event>
 5    0  0.1239749E+000  0.2633608E+03  0.7546771E-02  0.1105141E+00
          2   -1    0    0  503    0 -0.00000000000E+00  0.00000000000E+00  0.88483466417E+03  0.88483466417E+03  0.00000000000E+00 0. -1.
         21   -1    0    0  501  502  0.00000000000E+00 -0.00000000000E+00 -0.19977067407E+03  0.19977067407E+03  0.00000000000E+00 0. -1.
         25    1    1    2    0    0  0.17073577659E+03  0.18398100804E+03  0.55034408934E+01  0.28045499565E+03  0.12500000000E+03 0.  0.
         21    1    1    2  503  502 -0.99826112445E+02 -0.98037176184E+02  0.67844706333E+03  0.69272430186E+03  0.00000000000E+00 0. -1.
          2    1    1    2  501    0 -0.70909664145E+02 -0.85943831853E+02  0.11134858703E+01  0.11142604073E+03  0.00000000000E+00 0. -1.
<mgrwt>
<rscale>  4 0.26336078E+03</rscale>
<asrwt>0</asrwt>
<pdfrwt beam="1">  1       21 0.30733950E-01 0.26336078E+03</pdfrwt>
<pdfrwt beam="2">  1        2 0.13612841E+00 0.26336078E+03</pdfrwt>
<totfact> 0.39048111E+03</totfact>
</mgrwt>
</event>
<event>
 5    0  0.1239749E+000  0.2141431E+03  0.7546771E-02  0.1138327E+00
         21   -1    0    0  503  502  0.00000000000E+00  0.00000000000E+00  0.37864340461E+03  0.37864340461E+03  0.00000000000E+00 0. -1.
         -4   -1    0    0    0  501 -0.00000000000E+00 -0.00000000000E+00 -0.24368757433E+03  0.24368757433E+03  0.00000000000E+00 0. -1.
         25    1    1    2    0    0  0.19052236417E+03  0.13626321578E+03  0.12934699545E+03  0.29533384577E+03  0.12500000000E+03 0.  0.
         21    1    1    2  503  501 -0.99390430122E+02 -0.11006431191E+03  0.11099097452E+03  0.18523392449E+03  0.00000000000E+00 0. -1.
         -4    1    1    2    0  502 -0.91131934049E+02 -0.26198903863E+02 -0.10538213970E+03  0.14176320868E+03  0.00000000000E+00 0. -1.
<mgrwt>
<rscale>  4 0.21414306E+03</rscale>
<asrwt>0</asrwt>
<pdfrwt beam="1">  1       21 0.58252832E-01 0.21414306E+03</pdfrwt>
<pdfrwt beam="2">  1       -4 0.37490396E-01 0.21414306E+03</pdfrwt>
<totfact> 0.80160977E+02</totfact>
</mgrwt>
</event>
<event>
 5    0  0.1239749E+000  0.3240724E+03  0.7546771E-02  0.1073790E+00
         21   -1    0    0  501  502  0.00000000000E+00  0.00000000000E+00  0.38771436558E+03  0.38771436558E+03  0.00000000000E+00 0. -1.
          1   -1    0    0  503    0 -0.00000000000E+00 -0.00000000000E+00 -0.58796042598E+03  0.58796042598E+03  0.00000000000E+00 0. -1.
         25    1    1    2    0    0  0.30479806265E+03 -0.19747237015E+02  0.24664670613E+03  0.41200899264E+03  0.12500000000E+03 0.  0.
         21    1    1    2  503  502 -0.26716657937E+03  0.62600865918E+02 -0.30248523761E+03  0.40840441785E+03  0.00000000000E+00 0. -1.
          1    1    1    2  501    0 -0.37631483285E+02 -0.42853628903E+02 -0.14440752892E+03  0.15526138108E+03  0.00000000000E+00 0. -1.
<mgrwt>
<rscale>  4 0.32407239E+03</rscale>
<asrwt>0</asrwt>
<pdfrwt beam="1">  1       21 0.59648364E-01 0.32407239E+03</pdfrwt>
<pdfrwt beam="2">  1        1 0.90455450E-01 0.32407239E+03</pdfrwt>
<totfact> 0.99742701E+02</totfact>
</mgrwt>
</event>
<event>
 5    0  0.1239749E+000  0.2088158E+03  0.7546771E-02  0.1142507E+00
         -4   -1    0    0    0  501 -0.00000000000E+00  0.00000000000E+00  0.87377535887E+03  0.87377535887E+03  0.00000000000E+00 0.  1.
         21   -1    0    0  503  502  0.00000000000E+00 -0.00000000000E+00 -0.67862769183E+03  0.67862769183E+03  0.00000000000E+00 0.  1.
         25    1    1    2    0    0 -0.88439902164E+02  0.18144961003E+03 -0.14722963371E+02  0.23788094276E+03  0.12500000000E+03 0.  0.
         21    1    1    2  503  501  0.60477021056E+02 -0.18494609783E+02 -0.54149750594E+03  0.54517801643E+03  0.00000000000E+00 0.  1.
         -4    1    1    2    0  502  0.27962881108E+02 -0.16295500025E+03  0.75136813635E+03  0.76934409152E+03  0.00000000000E+00 0.  1.
<mgrwt>
<rscale>  4 0.20881582E+03</rscale>
<asrwt>0</asrwt>
<pdfrwt beam="1">  1       21 0.10440426E+00 0.20881582E+03</pdfrwt>
<pdfrwt beam="2">  1       -4 0.13442698E+00 0.20881582E+03</pdfrwt>
<totfact> 0.12951060E+01</totfact>
</mgrwt>
</event>
<event>
 5    0  0.1239749E+000  0.2683970E+03  0.7546771E-02  0.1102201E+00
          2   -1    0    0  503    0 -0.00000000000E+00  0.00000000000E+00  0.22746614419E+04  0.22746614419E+04  0.00000000000E+00 0. -1.
         21   -1    0    0  501  502  0.00000000000E+00 -0.00000000000E+00 -0.78659641726E+02  0.78659641726E+02  0.00000000000E+00 0. -1.
         25    1    1    2    0    0  0.23586099006E+03 -0.27956020574E+02  0.18169717347E+03  0.32411542476E+03  0.12500000000E+03 0.  0.
         21    1    1    2  503  502 -0.94948684442E+02  0.25591740441E+02  0.10598547355E+04  0.10644069947E+04  0.00000000000E+00 0. -1.
          2    1    1    2  501    0 -0.14091230562E+03  0.23642801336E+01  0.95444989120E+03  0.96479866423E+03  0.00000000000E+00 0. -1.
<mgrwt>
<rscale>  4 0.26839699E+03</rscale>
<asrwt>0</asrwt>
<pdfrwt beam="1">  1       21 0.12101485E-01 0.26839699E+03</pdfrwt>
<pdfrwt beam="2">  1        2 0.34994786E+00 0.26839699E+03</pdfrwt>
<totfact> 0.38546195E+03</totfact>
</mgrwt>
</event>
<event>
 5    0  0.1239749E+000  0.3448418E+03  0.7546771E-02  0.1064752E+00
          1   -1    0    0  503    0 -0.00000000000E+00  0.00000000000E+00  0.31631842944E+04  0.31631842944E+04  0.00000000000E+00 0.  1.
         21   -1    0    0  501  502  0.00000000000E+00 -0.00000000000E+00 -0.85121480401E+02  0.85121480401E+02  0.00000000000E+00 0. -1.
         25    1    1    2    0    0 -0.11904300019E+03 -0.29588909985E+03  0.45450801843E+03  0.56914333354E+03  0.12500000000E+03 0.  0.
         21    1    1    2  503  502  0.89477633966E+02  0.31473845013E+03  0.94144277455E+03  0.99668502383E+03  0.00000000000E+00 0. -1.
          1    1    1    2  501    0  0.29565366224E+02 -0.18849350285E+02  0.16821120210E+04  0.16824774174E+04  0.00000000000E+00 0.  1.
<mgrwt>
<rscale>  4 0.34484180E+03</rscale>
<asrwt>0</asrwt>
<pdfrwt beam="1">  1       21 0.13095615E-01 0.34484180E+03</pdfrwt>
<pdfrwt beam="2">  1        1 0.48664365E+00 0.34484180E+03</pdfrwt>
<totfact> 0.29461641E+02</totfact>
</mgrwt>
</event>
<event>
 5    0  0.1239749E+000  0.3778892E+03  0.7546771E-02  0.1051717E+00
         21   -1    0    0  501  502  0.00000000000E+00  0.00000000000E+00  0.69665739256E+03  0.69665739256E+03  0.00000000000E+00 0.  1.
          2   -1    0    0  503    0 -0.00000000000E+00 -0.00000000000E+00 -0.11420710527E+04  0.11420710527E+04  0.00000000000E+00 0.  1.
         25    1    1    2    0    0 -0.30217313257E+03 -0.19429424371E+03  0.57586882947E+03  0.69015126164E+03  0.12500000000E+03 0.  0.
         21    1    1    2  503  502  0.28541684250E+03  0.17756268034E+03 -0.38192314372E+03  0.50877948773E+03  0.00000000000E+00 0.  1.
          2    1    1    2  501    0  0.16756290072E+02  0.16731563370E+02 -0.63935934585E+03  0.63979769583E+03  0.00000000000E+00 0.  1.
<mgrwt>
<rscale>  4 0.37788915E+03</rscale>
<asrwt>0</asrwt>
<pdfrwt beam="1">  1       21 0.10717806E+00 0.37788915E+03</pdfrwt>
<pdfrwt beam="2">  1        2 0.17570324E+00 0.37788915E+03</pdfrwt>
<totfact> 0.17146338E+02</totfact>
</mgrwt>
</event>
<event>
 5    0  0.1239749E+000  0.1994085E+03  0.7546771E-02  0.1150239E+00
          2   -1    0    0  503    0 -0.00000000000E+00  0.00000000000E+00  0.12087215510E+04  0.12087215510E+04  0.00000000000E+00 0. -1.
         21   -1    0    0  501  502  0.00000000000E+00 -0.00000000000E+00 -0.35535201960E+03  0.35535201960E+03  0.00000000000E+00 0.  1.
         25    1    1    2    0    0  0.19588243926E+03  0.83450326883E+02 -0.24949656138E+03  0.35100914691E+03  0.12500000000E+03 0.  0.
         21    1    1    2  503  502 -0.61594284198E+02 -0.72798395768E+01 -0.30580156983E+02  0.69151991375E+02  0.00000000000E+00 0.  1.
          2    1    1    2  501    0 -0.13428815507E+03 -0.76170487306E+02  0.11334462497E+04  0.11439124323E+04  0.00000000000E+00 0. -1.
<mgrwt>
<rscale>  4 0.19940853E+03</rscale>
<asrwt>0</asrwt>
<pdfrwt beam="1">  1       21 0.54669542E-01 0.19940853E+03</pdfrwt>
<pdfrwt beam="2">  1        2 0.18595716E+00 0.19940853E+03</pdfrwt>
<totfact> 0.79422692E+02</totfact>
</mgrwt>
</event>
<event>
 5    0  0.1239749E+000  0.2717752E+03  0.7546771E-02  0.1100268E+00
         21   -1    0    0  501  502  0.00000000000E+00  0.00000000000E+00  0.19473326371E+04  0.19473326371E+04  0.00000000000E+00 0. -1.
          2   -1    0    0  503    0 -0.00000000000E+00 -0.00000000000E+00 -0.42371992619E+03  0.42371992619E+03  0.00000000000E+00 0.  1.
         25    1    1    2    0    0 -0.86043314398E+02  0.31103220202E+03  0.16122406418E+04  0.16489661518E+04  0.12500000000E+03 0.  0.
         21    1    1    2  503  502  0.17332876099E+03 -0.86540520626E+02  0.24390622399E+03  0.31148413635E+03  0.00000000000E+00 0. -1.
          2    1    1    2  501    0 -0.87285446590E+02 -0.22449168140E+03 -0.33253415488E+03  0.41060227516E+03  0.00000000000E+00 0.  1.
<mgrwt>
<rscale>  4 0.27177522E+03</rscale>
<asrwt>0</asrwt>
<pdfrwt beam="1">  1       21 0.29958963E+00 0.27177522E+03</pdfrwt>
<pdfrwt beam="2">  1        2 0.65187682E-01 0.27177522E+03</pdfrwt>
<totfact> 0.29383415E+01</totfact>
</mgrwt>
</event>
<event>
 5    0  0.1239749E+000  0.2840359E+03  0.7546771E-02  0.1093505E+00
         21   -1    0    0  501  502  0.00000000000E+00  0.00000000000E+00  0.10633338811E+04  0.10633338811E+04  0.00000000000E+00 0.  1.
          2   -1    0    0  503    0 -0.00000000000E+00 -0.00000000000E+00 -0.17187838656E+03  0.17187838656E+03  0.00000000000E+00 0.  1.
         25    1    1    2    0    0 -0.26774588197E+03 -0.23810921460E+02  0.72937180820E+03  0.78731382046E+03  0.12500000000E+03 0.  0.
         21    1    1    2  503  502  0.23315910393E+03  0.14864313845E+02  0.25649781544E+03  0.34695135811E+03  0.00000000000E+00 0.  1.
          2    1    1    2  501    0  0.34586778048E+02  0.89466076147E+01 -0.94414129143E+02  0.10094708904E+03  0.00000000000E+00 0.  1.
<mgrwt>
<rscale>  4 0.28403595E+03</rscale>
<asrwt>0</asrwt>
<pdfrwt beam="1">  1       21 0.16358982E+00 0.28403595E+03</pdfrwt>
<pdfrwt beam="2">  1        2 0.26442829E-01 0.28403595E+03</pdfrwt>
<totfact> 0.55940880E+02</totfact>
</mgrwt>
</event>
<event>
 5    0  0.1239749E+000  0.2336510E+03  0.7546771E-02  0.1124096E+00
         21   -1    0    0  501  502  0.00000000000E+00  0.00000000000E+00  0.38399036428E+03  0.38399036428E+03  0.00000000000E+00 0. -1.
          1   -1    0    0  503    0 -0.00000000000E+00 -0.00000000000E+00 -0.20211919795E+04  0.20211919795E+04  0.00000000000E+00 0.  1.
         25    1    1    2    0    0 -0.19932646349E+03 -0.80746379503E+02  0.24219116078E+03  0.34717801660E+03  0.12500000000E+03 0.  0.
         21    1    1    2  503  502  0.11866312261E+03  0.13481202608E+03 -0.35323056719E+01  0.17963211357E+03  0.00000000000E+00 0. -1.
          1    1    1    2  501    0  0.80663340883E+02 -0.54065646577E+02 -0.18758604703E+04  0.18783722136E+04  0.00000000000E+00 0.  1.
<mgrwt>
<rscale>  4 0.23365104E+03</rscale>
<asrwt>0</asrwt>
<pdfrwt beam="1">  1       21 0.59075441E-01 0.23365104E+03</pdfrwt>
<pdfrwt beam="2">  1        1 0.31095261E+00 0.23365104E+03</pdfrwt>
<totfact> 0.96721461E+01</totfact>
</mgrwt>
</event>
<event>
 5    0  0.1239749E+000  0.2369620E+03  0.7546771E-02  0.1121833E+00
         21   -1    0    0  501  502  0.00000000000E+00  0.00000000000E+00  0.40785375846E+03  0.40785375846E+03  0.00000000000E+00 0. -1.
          4   -1    0    0  503    0 -0.00000000000E+00 -0.00000000000E+00 -0.54538305514E+03  0.54538305514E+03  0.00000000000E+00 0.  1.
         25    1    1    2    0    0  0.26065689695E+02 -0.20342059117E+03  0.24095803081E+03  0.34021335909E+03  0.12500000000E+03 0.  0.
         21    1    1    2  503  502  0.14439216824E+02  0.19693571576E+03  0.32390293961E+02  0.20010321903E+03  0.00000000000E+00 0. -1.
          4    1    1    2  501    0 -0.40504906519E+02  0.64848754074E+01 -0.41087762145E+03  0.41292023548E+03  0.00000000000E+00 0.  1.
<mgrwt>
<rscale>  4 0.23696203E+03</rscale>
<asrwt>0</asrwt>
<pdfrwt beam="1">  1       21 0.62746732E-01 0.23696203E+03</pdfrwt>
<pdfrwt beam="2">  1        4 0.83905086E-01 0.23696203E+03</pdfrwt>
<totfact> 0.12516382E+02</totfact>
</mgrwt>
</event>
<event>
 5    0  0.1239749E+000  0.2496798E+03  0.7546771E-02  0.1113507E+00
         21   -1    0    0  501  502  0.00000000000E+00  0.00000000000E+00  0.40348582565E+03  0.40348582565E+03  0.00000000000E+00 0.  1.
          1   -1    0    0  503    0 -0.00000000000E+00 -0.00000000000E+00 -0.27533668319E+03  0.27533668319E+03  0.00000000000E+00 0. -1.
         25    1    1    2    0    0 -0.13169991504E+03  0.16829625797E+03  0.28726966400E+03  0.37923259080E+03  0.12500000000E+03 0.  0.
         21    1    1    2  503  502  0.96020286151E+01  0.24092559134E+02 -0.17932373906E+02  0.31531260569E+02  0.00000000000E+00 0.  1.
          1    1    1    2  501    0  0.12209788643E+03 -0.19238881710E+03 -0.14118814764E+03  0.26805865748E+03  0.00000000000E+00 0. -1.
<mgrwt>
<rscale>  4 0.24967981E+03</rscale>
<asrwt>0</asrwt>
<pdfrwt beam="1">  1       21 0.62074743E-01 0.24967981E+03</pdfrwt>
<pdfrwt beam="2">  1        1 0.42359489E-01 0.24967981E+03</pdfrwt>
<totfact> 0.25175834E+03</totfact>
</mgrwt>
</event>
<event>
 5    0  0.1239749E+000  0.3312650E+03  0.7546771E-02  0.1070579E+00
         -4   -1    0    0    0  501 -0.00000000000E+00  0.00000000000E+00  0.37969323224E+03  0.37969323224E+03  0.00000000000E+00 0. -1.
         21   -1    0    0  503  502  0.00000000000E+00 -0.00000000000E+00 -0.13510561741E+04  0.13510561741E+04  0.00000000000E+00 0. -1.
         25    1    1    2    0    0 -0.21267699535E+03  0.19876380012E+03 -0.63291213485E+03  0.70777208410E+03  0.12500000000E+03 0.  0.
         21    1    1    2  503  501  0.20962158591E+03 -0.24706940193E+03 -0.64011855323E+03  0.71745122540E+03  0.00000000000E+00 0. -1.
         -4    1    1    2    0  502  0.30554094444E+01  0.48305601812E+02  0.30166774626E+03  0.30552609680E+03  0.00000000000E+00 0. -1.
<mgrwt>
<rscale>  4 0.33126503E+03</rscale>
<asrwt>0</asrwt>
<pdfrwt beam="1">  1       21 0.20785480E+00 0.33126503E+03</pdfrwt>
<pdfrwt beam="2">  1       -4 0.58414342E-01 0.33126503E+03</pdfrwt>
<totfact> 0.13133836E+01</totfact>
</mgrwt>
</event>
<event>
 5    0  0.1239749E+000  0.3216471E+03  0.7546771E-02  0.1074894E+00
          2   -1    0    0  503    0 -0.00000000000E+00  0.00000000000E+00  0.23188392004E+04  0.23188392004E+04  0.00000000000E+00 0.  1.
         21   -1    0    0  501  502  0.00000000000E+00 -0.00000000000E+00 -0.10861145697E+03  0.10861145697E+03  0.00000000000E+00 0.  1.
         25    1    1    2    0    0  0.32340593338E+03 -0.77012124411E+02  0.51603101078E+03  0.62644654133E+03  0.12500000000E+03 0.  0.
         21    1    1    2  503  502 -0.24482340179E+03  0.12921717022E+03  0.31815625174E+03  0.42173329921E+03  0.00000000000E+00 0.  1.
          2    1    1    2  501    0 -0.78582531591E+02 -0.52205045813E+02  0.13760404809E+04  0.13792708168E+04  0.00000000000E+00 0.  1.
<mgrwt>
<rscale>  4 0.32164706E+03</rscale>
<asrwt>0</asrwt>
<pdfrwt beam="1">  1       21 0.16709457E-01 0.32164706E+03</pdfrwt>
<pdfrwt beam="2">  1        2 0.35674446E+00 0.32164706E+03</pdfrwt>
<totfact> 0.19783891E+03</totfact>
</mgrwt>
</event>
<event>
 5    0  0.1239749E+000  0.2167960E+03  0.7546771E-02  0.1136295E+00
          2   -1    0    0  503    0 -0.00000000000E+00  0.00000000000E+00  0.43407868816E+04  0.43407868816E+04  0.00000000000E+00 0.  1.
         21   -1    0    0  501  502  0.00000000000E+00 -0.00000000000E+00 -0.49200597934E+02  0.49200597934E+02  0.00000000000E+00 0.  1.
         25    1    1    2    0    0 -0.26005162104E+03 -0.95731307308E+02  0.15673250413E+04  0.15965350337E+04  0.12500000000E+03 0.  0.
         21    1    1    2  503  502  0.16591186346E+03 -0.37281064185E+01  0.17743970244E+03  0.24295162731E+03  0.00000000000E+00 0.  1.
          2    1    1    2  501    0  0.94139757590E+02  0.99459413727E+02  0.25468215399E+04  0.25505008185E+04  0.00000000000E+00 0.  1.
<mgrwt>
<rscale>  4 0.21679598E+03</rscale>
<asrwt>0</asrwt>
<pdfrwt beam="1">  1       21 0.75693262E-02 0.21679598E+03</pdfrwt>
<pdfrwt beam="2">  1        2 0.66781306E+00 0.21679598E+03</pdfrwt>
<totfact> 0.41141200E+02</totfact>
</mgrwt>
</event>
<event>
 5    0  0.1239749E+000  0.2280798E+03  0.7546771E-02  0.1127999E+00
         21   -1    0    0  501  502  0.00000000000E+00  0.00000000000E+00  0.28257651968E+03  0.28257651968E+03  0.00000000000E+00 0. -1.
          2   -1    0    0  503    0 -0.00000000000E+00 -0.00000000000E+00 -0.55424505163E+03  0.55424505163E+03  0.00000000000E+00 0. -1.
         25    1    1    2    0    0 -0.58820560129E+02  0.19410908643E+03  0.15521622255E+03  0.28435061362E+03  0.12500000000E+03 0.  0.
         21    1    1    2  503  502  0.57250879580E+02 -0.15936829688E+03 -0.53672445430E+02  0.17764191133E+03  0.00000000000E+00 0. -1.
          2    1    1    2  501    0  0.15696805492E+01 -0.34740789549E+02 -0.37321230906E+03  0.37482904635E+03  0.00000000000E+00 0. -1.
<mgrwt>
<rscale>  4 0.22807983E+03</rscale>
<asrwt>0</asrwt>
<pdfrwt beam="1">  1       21 0.43473311E-01 0.22807983E+03</pdfrwt>
<pdfrwt beam="2">  1        2 0.85268469E-01 0.22807983E+03</pdfrwt>
<totfact> 0.34862967E+03</totfact>
</mgrwt>
</event>
<event>
 5    0  0.1239749E+000  0.2981590E+03  0.7546771E-02  0.1086165E+00
         21   -1    0    0  501  502  0.00000000000E+00  0.00000000000E+00  0.12616571241E+03  0.12616571241E+03  0.00000000000E+00 0.  1.
          2   -1    0    0  503    0 -0.00000000000E+00 -0.00000000000E+00 -0.23371259783E+04  0.23371259783E+04  0.00000000000E+00 0. -1.
         25    1    1    2    0    0  0.27903893037E+03 -0.42353805097E+02 -0.19511302700E+03  0.36517210021E+03  0.12500000000E+03 0.  0.
         21    1    1    2  503  502 -0.24219105489E+03  0.85276208687E+02 -0.36479521628E+03  0.44609874317E+03  0.00000000000E+00 0.  1.
          2    1    1    2  501    0 -0.36847875476E+02 -0.42922403590E+02 -0.16510520226E+04  0.16520208473E+04  0.00000000000E+00 0. -1.
<mgrwt>
<rscale>  4 0.29815899E+03</rscale>
<asrwt>0</asrwt>
<pdfrwt beam="1">  1       21 0.19410110E-01 0.29815899E+03</pdfrwt>
<pdfrwt beam="2">  1        2 0.35955784E+00 0.29815899E+03</pdfrwt>
<totfact> 0.14759179E+03</totfact>
</mgrwt>
</event>
<event>
 5    0  0.1239749E+000  0.2694561E+03  0.7546771E-02  0.1101591E+00
         21   -1    0    0  501  502  0.00000000000E+00  0.00000000000E+00  0.18020260025E+04  0.18020260025E+04  0.00000000000E+00 0.  1.
          4   -1    0    0  503    0 -0.00000000000E+00 -0.00000000000E+00 -0.80996295275E+03  0.80996295275E+03  0.00000000000E+00 0.  1.
         25    1    1    2    0    0  0.12361349157E+03  0.20219554930E+03  0.13568302944E+04  0.13830317362E+04  0.12500000000E+03 0.  0.
         21    1    1    2  503  502 -0.82417893963E+02 -0.23310773759E+03  0.39578310512E+03  0.46666496855E+03  0.00000000000E+00 0.  1.
          4    1    1    2  501    0 -0.41195597603E+02  0.30912188290E+02 -0.76055034978E+03  0.76229225051E+03  0.00000000000E+00 0.  1.
<mgrwt>
<rscale>  4 0.26945611E+03</rscale>
<asrwt>0</asrwt>
<pdfrwt beam="1">  1       21 0.27723477E+00 0.26945611E+03</pdfrwt>
<pdfrwt beam="2">  1        4 0.12460969E+00 0.26945611E+03</pdfrwt>
<totfact> 0.91100139E-01</totfact>
</mgrwt>
</event>
<event>
 5    0  0.1239749E+000  0.3007243E+03  0.7546771E-02  0.1084879E+00
         21   -1    0    0  501  502  0.00000000000E+00  0.00000000000E+00  0.99824431174E+02  0.99824431174E+02  0.00000000000E+00 0.  1.
          1   -1    0    0  503    0 -0.00000000000E+00 -0.00000000000E+00 -0.15537806677E+04  0.15537806677E+04  0.00000000000E+00 0. -1.
         25    1    1    2    0    0  0.22256977397E+03  0.10618093268E+03 -0.70585011728E+03  0.75806403609E+03  0.12500000000E+03 0.  0.
         21    1    1    2  503  502 -0.23998037439E+03 -0.15235391457E+03 -0.20565677660E+03  0.35085182790E+03  0.00000000000E+00 0.  1.
          1    1    1    2  501    0  0.17410600425E+02  0.46172981886E+02 -0.54244934265E+03  0.54468923489E+03  0.00000000000E+00 0. -1.
<mgrwt>
<rscale>  4 0.30072425E+03</rscale>
<asrwt>0</asrwt>
<pdfrwt beam="1">  1       21 0.15357606E-01 0.30072425E+03</pdfrwt>
<pdfrwt beam="2">  1        1 0.23904316E+00 0.30072425E+03</pdfrwt>
<totfact> 0.26944156E+03</totfact>
</mgrwt>
</event>
<event>
 5    0  0.1239749E+000  0.3104701E+03  0.7546771E-02  0.1080121E+00
         -2   -1    0    0    0  501 -0.00000000000E+00  0.00000000000E+00  0.36643227788E+03  0.36643227788E+03  0.00000000000E+00 0. -1.
         21   -1    0    0  503  502  0.00000000000E+00 -0.00000000000E+00 -0.14052081264E+04  0.14052081264E+04  0.00000000000E+00 0. -1.
         25    1    1    2    0    0  0.61756491774E+02 -0.30693360550E+03 -0.45469922675E+03  0.56603753344E+03  0.12500000000E+03 0.  0.
         21    1    1    2  503  501 -0.12115810566E+03  0.24779943978E+03 -0.86736856098E+03  0.91017145061E+03  0.00000000000E+00 0. -1.
         -2    1    1    2    0  502  0.59401613887E+02  0.59134165717E+02  0.28329193917E+03  0.29543142028E+03  0.00000000000E+00 0. -1.
<mgrwt>
<rscale>  4 0.31047008E+03</rscale>
<asrwt>0</asrwt>
<pdfrwt beam="1">  1       21 0.21618587E+00 0.31047008E+03</pdfrwt>
<pdfrwt beam="2">  1       -2 0.56374196E-01 0.31047008E+03</pdfrwt>
<totfact> 0.23688281E+01</totfact>
</mgrwt>
</event>
<event>
 5    0  0.1239749E+000  0.2527506E+03  0.7546771E-02  0.1111579E+00
         21   -1    0    0  501  502  0.00000000000E+00  0.00000000000E+00  0.38776647629E+02  0.38776647629E+02  0.00000000000E+00 0.  1.
          1   -1    0    0  503    0 -0.00000000000E+00 -0.00000000000E+00 -0.17806432717E+04  0.17806432717E+04  0.00000000000E+00 0. -1.
         25    1    1    2    0    0  0.21028464805E+03  0.63546894906E+02 -0.55247505451E+03  0.60754549370E+03  0.12500000000E+03 0.  0.
         21    1    1    2  503  502 -0.10786937362E+03 -0.37672540245E+02 -0.41996230601E+03  0.43522794088E+03  0.00000000000E+00 0. -1.
          1    1    1    2  501    0 -0.10241527443E+03 -0.25874354661E+02 -0.76942926358E+03  0.77664648478E+03  0.00000000000E+00 0. -1.
<mgrwt>
<rscale>  4 0.25275055E+03</rscale>
<asrwt>0</asrwt>
<pdfrwt beam="1">  1       21 0.59656404E-02 0.25275055E+03</pdfrwt>
<pdfrwt beam="2">  1        1 0.27394501E+00 0.25275055E+03</pdfrwt>
<totfact> 0.10432639E+04</totfact>
</mgrwt>
</event>
<event>
 5    0  0.1239749E+000  0.2828329E+03  0.7546771E-02  0.1094152E+00
          2   -1    0    0  503    0 -0.00000000000E+00  0.00000000000E+00  0.28301211989E+04  0.28301211989E+04  0.00000000000E+00 0.  1.
         21   -1    0    0  501  502  0.00000000000E+00 -0.00000000000E+00 -0.15411502865E+03  0.15411502865E+03  0.00000000000E+00 0.  1.
         25    1    1    2    0    0 -0.25426380558E+03 -0.12327582026E+02 -0.10730263739E+02  0.28379956072E+03  0.12500000000E+03 0.  0.
         21    1    1    2  503  502  0.23770112659E+03  0.37328085690E+02  0.23052194861E+04  0.23177428871E+04  0.00000000000E+00 0.  1.
          2    1    1    2  501    0  0.16562678986E+02 -0.25000503665E+02  0.38151694788E+03  0.38269377972E+03  0.00000000000E+00 0.  1.
<mgrwt>
<rscale>  4 0.28283294E+03</rscale>
<asrwt>0</asrwt>
<pdfrwt beam="1">  1       21 0.23710006E-01 0.28283294E+03</pdfrwt>
<pdfrwt beam="2">  1        2 0.43540323E+00 0.28283294E+03</pdfrwt>
<totfact> 0.54099375E+02</totfact>
</mgrwt>
</event>
<event>
 5    0  0.1239749E+000  0.2663269E+03  0.7546771E-02  0.1103400E+00
         21   -1    0    0  501  502  0.00000000000E+00  0.00000000000E+00  0.17648422618E+03  0.17648422618E+03  0.00000000000E+00 0.  1.
          1   -1    0    0  503    0 -0.00000000000E+00 -0.00000000000E+00 -0.29074714021E+04  0.29074714021E+04  0.00000000000E+00 0.  1.
         25    1    1    2    0    0  0.16316910214E+03 -0.14057254123E+03  0.10116629642E+02  0.24922307565E+03  0.12500000000E+03 0.  0.
         21    1    1    2  503  502  0.12102247344E+03 -0.17506437467E+03 -0.16534893893E+04  0.16671296095E+04  0.00000000000E+00 0.  1.
          1    1    1    2  501    0 -0.28419157558E+03  0.31563691590E+03 -0.10876144162E+04  0.11676029431E+04  0.00000000000E+00 0.  1.
<mgrwt>
<rscale>  4 0.26632693E+03</rscale>
<asrwt>0</asrwt>
<pdfrwt beam="1">  1       21 0.27151420E-01 0.26632693E+03</pdfrwt>
<pdfrwt beam="2">  1        1 0.44730328E+00 0.26632693E+03</pdfrwt>
<totfact> 0.11858944E+02</totfact>
</mgrwt>
</event>
<event>
 5    0  0.1239749E+000  0.2517982E+03  0.7546771E-02  0.1112174E+00
         21   -1    0    0  501  502  0.00000000000E+00  0.00000000000E+00  0.13607806230E+03  0.13607806230E+03  0.00000000000E+00 0.  1.
          2   -1    0    0  503    0 -0.00000000000E+00 -0.00000000000E+00 -0.11323871828E+04  0.11323871828E+04  0.00000000000E+00 0. -1.
         25    1    1    2    0    0 -0.17174412777E+03 -0.16153056173E+03 -0.43892356539E+03  0.51367992374E+03  0.12500000000E+03 0.  0.
         21    1    1    2  503  502  0.14955090474E+03  0.15364409555E+03 -0.18305270982E+02  0.21519076224E+03  0.00000000000E+00 0.  1.
          2    1    1    2  501    0  0.22193223023E+02  0.78864661862E+01 -0.53908028413E+03  0.53959455912E+03  0.00000000000E+00 0. -1.
<mgrwt>
<rscale>  4 0.25179817E+03</rscale>
<asrwt>0</asrwt>
<pdfrwt beam="1">  1       21 0.20935086E-01 0.25179817E+03</pdfrwt>
<pdfrwt beam="2">  1        2 0.17421341E+00 0.25179817E+03</pdfrwt>
<totfact> 0.57888223E+03</totfact>
</mgrwt>
</event>
<event>
 5    0  0.1239749E+000  0.3322145E+03  0.7546771E-02  0.1070161E+00
         21   -1    0    0  501  502  0.00000000000E+00  0.00000000000E+00  0.12749203300E+03  0.12749203300E+03  0.00000000000E+00 0. -1.
          2   -1    0    0  503    0 -0.00000000000E+00 -0.00000000000E+00 -0.25210936123E+04  0.25210936123E+04  0.00000000000E+00 0. -1.
         25    1    1    2    0    0  0.13405800602E+03 -0.16035817494E+03 -0.77458398099E+03  0.81196775605E+03  0.12500000000E+03 0.  0.
         21    1    1    2  503  502 -0.32827451671E+03  0.13217815777E+03 -0.20485298455E+03  0.40890092810E+03  0.00000000000E+00 0. -1.
          2    1    1    2  501    0  0.19421651070E+03  0.28180017166E+02 -0.14141646137E+04  0.14277169612E+04  0.00000000000E+00 0. -1.
<mgrwt>
<rscale>  4 0.33221452E+03</rscale>
<asrwt>0</asrwt>
<pdfrwt beam="1">  1       21 0.19614159E-01 0.33221452E+03</pdfrwt>
<pdfrwt beam="2">  1        2 0.38786055E+00 0.33221452E+03</pdfrwt>
<totfact> 0.11309667E+03</totfact>
</mgrwt>
</event>
<event>
 5    0  0.1239749E+000  0.3308117E+03  0.7546771E-02  0.1070778E+00
          3   -1    0    0  503    0 -0.00000000000E+00  0.00000000000E+00  0.14867774579E+04  0.14867774579E+04  0.00000000000E+00 0. -1.
         21   -1    0    0  501  502  0.00000000000E+00 -0.00000000000E+00 -0.25280124454E+04  0.25280124454E+04  0.00000000000E+00 0.  1.
         25    1    1    2    0    0  0.81548652244E+02  0.32331391134E+03 -0.13330398043E+04  0.13797833843E+04  0.12500000000E+03 0.  0.
         21    1    1    2  503  502 -0.46366316899E+02 -0.28263882240E+03 -0.11535884977E+04  0.11886130410E+04  0.00000000000E+00 0.  1.
          3    1    1    2  501    0 -0.35182335346E+02 -0.40675088937E+02  0.14453933145E+04  0.14463934780E+04  0.00000000000E+00 0. -1.
<mgrwt>
<rscale>  4 0.33081169E+03</rscale>
<asrwt>0</asrwt>
<pdfrwt beam="1">  1       21 0.38892499E+00 0.33081169E+03</pdfrwt>
<pdfrwt beam="2">  1        3 0.22873499E+00 0.33081169E+03</pdfrwt>
<totfact> 0.45599250E-02</totfact>
</mgrwt>
</event>
<event>
 5    0  0.1239749E+000  0.2632356E+03  0.7546771E-02  0.1105215E+00
         21   -1    0    0  503  502  0.00000000000E+00  0.00000000000E+00  0.24009405332E+03  0.24009405332E+03  0.00000000000E+00 0. -1.
         -3   -1    0    0    0  501 -0.00000000000E+00 -0.00000000000E+00 -0.10143291276E+04  0.10143291276E+04  0.00000000000E+00 0.  1.
         25    1    1    2    0    0  0.12423854444E+03 -0.30748440883E+03 -0.90054023755E+02  0.36567281112E+03  0.12500000000E+03 0.  0.
         21    1    1    2  503  501 -0.52542817861E+02  0.18283069111E+03 -0.62480686748E+00  0.19023196289E+03  0.00000000000E+00 0. -1.
         -3    1    1    2    0  502 -0.71695726574E+02  0.12465371772E+03 -0.68355624364E+03  0.69851840689E+03  0.00000000000E+00 0.  1.
<mgrwt>
<rscale>  4 0.26323556E+03</rscale>
<asrwt>0</asrwt>
<pdfrwt beam="1">  1       21 0.36937547E-01 0.26323556E+03</pdfrwt>
<pdfrwt beam="2">  1       -3 0.15605064E+00 0.26323556E+03</pdfrwt>
<totfact> 0.10597991E+02</totfact>
</mgrwt>
</event>
<event>
 5    0  0.1239749E+000  0.2433255E+03  0.7546771E-02  0.1117597E+00
         -2   -1    0    0    0  501 -0.00000000000E+00  0.00000000000E+00  0.11425934639E+03  0.11425934639E+03  0.00000000000E+00 0. -1.
         21   -1    0    0  503  502  0.00000000000E+00 -0.00000000000E+00 -0.21623844756E+04  0.21623844756E+04  0.00000000000E+00 0. -1.
         25    1    1    2    0    0  0.15047571711E+02 -0.21623078932E+03 -0.16944831803E+04  0.17128573881E+04  0.12500000000E+03 0.  0.
         21    1    1    2  503  501 -0.14760775142E+03  0.16188563137E+03 -0.35883423597E+03  0.42042480282E+03  0.00000000000E+00 0. -1.
         -2    1    1    2    0  502  0.13256017971E+03  0.54345157955E+02  0.51922869886E+01  0.14336163113E+03  0.00000000000E+00 0. -1.
<mgrwt>
<rscale>  4 0.24332546E+03</rscale>
<asrwt>0</asrwt>
<pdfrwt beam="1">  1       21 0.33267453E+00 0.24332546E+03</pdfrwt>
<pdfrwt beam="2">  1       -2 0.17578361E-01 0.24332546E+03</pdfrwt>
<totfact> 0.43459274E+01</totfact>
</mgrwt>
</event>
<event>
 5    0  0.1239749E+000  0.3046080E+03  0.7546771E-02  0.1082960E+00
         -3   -1    0    0    0  501 -0.00000000000E+00  0.00000000000E+00  0.11158134511E+04  0.11158134511E+04  0.00000000000E+00 0. -1.
         21   -1    0    0  503  502  0.00000000000E+00 -0.00000000000E+00 -0.13301472469E+03  0.13301472469E+03  0.00000000000E+00 0. -1.
         25    1    1    2    0    0 -0.13570134810E+03  0.24241659679E+03  0.12574319189E+03  0.32957095227E+03  0.12500000000E+03 0.  0.
         21    1    1    2  503  501  0.11544178709E+03 -0.25331582202E+03  0.60294225564E+03  0.66410471729E+03  0.00000000000E+00 0. -1.
         -3    1    1    2    0  502  0.20259561012E+02  0.10899225230E+02  0.25411327884E+03  0.25515250617E+03  0.00000000000E+00 0. -1.
<mgrwt>
<rscale>  4 0.30460799E+03</rscale>
<asrwt>0</asrwt>
<pdfrwt beam="1">  1       21 0.20463805E-01 0.30460799E+03</pdfrwt>
<pdfrwt beam="2">  1       -3 0.17166360E+00 0.30460799E+03</pdfrwt>
<totfact> 0.25866824E+02</totfact>
</mgrwt>
</event>
<event>
 5    0  0.1239749E+000  0.3419103E+03  0.7546771E-02  0.1065985E+00
         21   -1    0    0  501  502  0.00000000000E+00  0.00000000000E+00  0.19839950631E+03  0.19839950631E+03  0.00000000000E+00 0. -1.
          2   -1    0    0  503    0 -0.00000000000E+00 -0.00000000000E+00 -0.10776959202E+04  0.10776959202E+04  0.00000000000E+00 0. -1.
         25    1    1    2    0    0  0.30419719043E+03  0.12977491108E+03 -0.26972900869E+03  0.44469787085E+03  0.12500000000E+03 0.  0.
         21    1    1    2  503  502 -0.29277833106E+03 -0.10439055156E+03 -0.10800249757E+03  0.32906090298E+03  0.00000000000E+00 0. -1.
          2    1    1    2  501    0 -0.11418859371E+02 -0.25384359523E+02 -0.50156490763E+03  0.50233665268E+03  0.00000000000E+00 0. -1.
<mgrwt>
<rscale>  4 0.34191031E+03</rscale>
<asrwt>0</asrwt>
<pdfrwt beam="1">  1       21 0.30523001E-01 0.34191031E+03</pdfrwt>
<pdfrwt beam="2">  1        2 0.16579937E+00 0.34191031E+03</pdfrwt>
<totfact> 0.29320787E+03</totfact>
</mgrwt>
</event>
<event>
 5    0  0.1239749E+000  0.2730657E+03  0.7546771E-02  0.1099538E+00
         21   -1    0    0  501  502  0.00000000000E+00  0.00000000000E+00  0.39058169878E+03  0.39058169878E+03  0.00000000000E+00 0. -1.
          2   -1    0    0  503    0 -0.00000000000E+00 -0.00000000000E+00 -0.75977454681E+03  0.75977454681E+03  0.00000000000E+00 0.  1.
         25    1    1    2    0    0 -0.38719116444E+02  0.28477015211E+03  0.21403402578E+03  0.37951123001E+03  0.12500000000E+03 0.  0.
         21    1    1    2  503  502  0.11898596243E+02 -0.18881399256E+03 -0.10460549867E+02  0.18947750126E+03  0.00000000000E+00 0. -1.
          2    1    1    2  501    0  0.26820520201E+02 -0.95956159547E+02 -0.57276632394E+03  0.58136751431E+03  0.00000000000E+00 0.  1.
<mgrwt>
<rscale>  4 0.27306574E+03</rscale>
<asrwt>0</asrwt>
<pdfrwt beam="1">  1       21 0.60089493E-01 0.27306574E+03</pdfrwt>
<pdfrwt beam="2">  1        2 0.11688839E+00 0.27306574E+03</pdfrwt>
<totfact> 0.11906165E+03</totfact>
</mgrwt>
</event>
<event>
 5    0  0.1239749E+000  0.2350145E+03  0.7546771E-02  0.1123159E+00
          1   -1    0    0  503    0 -0.00000000000E+00  0.00000000000E+00  0.88185608603E+03  0.88185608603E+03  0.00000000000E+00 0. -1.
         21   -1    0    0  501  502  0.00000000000E+00 -0.00000000000E+00 -0.12869249564E+03  0.12869249564E+03  0.00000000000E+00 0. -1.
         25    1    1    2    0    0 -0.93089542180E+02 -0.18090674965E+03  0.11489098705E+03  0.26498651633E+03  0.12500000000E+03 0.  0.
         21    1    1    2  503  502 -0.37628708702E+02  0.21555630226E+03  0.23914148263E+03  0.32414362230E+03  0.00000000000E+00 0. -1.
          1    1    1    2  501    0  0.13071825088E+03 -0.34649552615E+02  0.39913112070E+03  0.42141844303E+03  0.00000000000E+00 0. -1.
<mgrwt>
<rscale>  4 0.23501451E+03</rscale>
<asrwt>0</asrwt>
<pdfrwt beam="1">  1       21 0.19798846E-01 0.23501451E+03</pdfrwt>
<pdfrwt beam="2">  1        1 0.13567016E+00 0.23501451E+03</pdfrwt>
<totfact> 0.51284806E+03</totfact>
</mgrwt>
</event>
<event>
 5    0  0.1239749E+000  0.3256742E+03  0.7546771E-02  0.1074183E+00
          2   -1    0    0  503    0 -0.00000000000E+00  0.00000000000E+00  0.16898393886E+04  0.16898393886E+04  0.00000000000E+00 0.  1.
         21   -1    0    0  501  502  0.00000000000E+00 -0.00000000000E+00 -0.16302168607E+03  0.16302168607E+03  0.00000000000E+00 0.  1.
         25    1    1    2    0    0  0.25150262356E+03  0.14464436128E+03  0.25850188691E+02  0.31696812642E+03  0.12500000000E+03 0.  0.
         21    1    1    2  503  502 -0.11846327750E+03 -0.12761661365E+03  0.59178005456E+03  0.61686561030E+03  0.00000000000E+00 0.  1.
          2    1    1    2  501    0 -0.13303934606E+03 -0.17027747630E+02  0.90918745926E+03  0.91902733793E+03  0.00000000000E+00 0.  1.
<mgrwt>
<rscale>  4 0.32320578E+03</rscale>
<asrwt>0</asrwt>
<pdfrwt beam="1">  1       21 0.25080260E-01 0.32567418E+03</pdfrwt>
<pdfrwt beam="2">  1        2 0.25997528E+00 0.32567418E+03</pdfrwt>
<totfact> 0.19778727E+03</totfact>
</mgrwt>
</event>
<event>
 5    0  0.1239749E+000  0.2048494E+03  0.7546771E-02  0.1145711E+00
          1   -1    0    0  503    0 -0.00000000000E+00  0.00000000000E+00  0.74373735323E+03  0.74373735323E+03  0.00000000000E+00 0.  1.
         21   -1    0    0  501  502  0.00000000000E+00 -0.00000000000E+00 -0.26679161371E+03  0.26679161371E+03  0.00000000000E+00 0.  1.
         25    1    1    2    0    0  0.16249277281E+03 -0.14067576552E+03 -0.12303393127E+03  0.27740930133E+03  0.12500000000E+03 0.  0.
         21    1    1    2  503  502 -0.15158537473E+02  0.77935036125E+02 -0.28655658520E+02  0.84408517812E+02  0.00000000000E+00 0.  1.
          1    1    1    2  501    0 -0.14733423533E+03  0.62740729395E+02  0.62863532931E+03  0.64871114780E+03  0.00000000000E+00 0.  1.
<mgrwt>
<rscale>  4 0.20484936E+03</rscale>
<asrwt>0</asrwt>
<pdfrwt beam="1">  1       21 0.41044864E-01 0.20484936E+03</pdfrwt>
<pdfrwt beam="2">  1        1 0.11442113E+00 0.20484936E+03</pdfrwt>
<totfact> 0.16331261E+03</totfact>
</mgrwt>
</event>
<event>
 5    0  0.1239749E+000  0.2418866E+03  0.7546771E-02  0.1118542E+00
         21   -1    0    0  501  502  0.00000000000E+00  0.00000000000E+00  0.12397348296E+03  0.12397348296E+03  0.00000000000E+00 0. -1.
          2   -1    0    0  503    0 -0.00000000000E+00 -0.00000000000E+00 -0.18055956665E+04  0.18055956665E+04  0.00000000000E+00 0. -1.
         25    1    1    2    0    0 -0.22260822088E+02  0.21225923600E+03 -0.17335165526E+02  0.24794159682E+03  0.12500000000E+03 0.  0.
         21    1    1    2  503  502  0.31420247899E+02 -0.46546985187E+02 -0.77179382322E+03  0.77383432294E+03  0.00000000000E+00 0. -1.
          2    1    1    2  501    0 -0.91594258110E+01 -0.16571225081E+03 -0.89249319484E+03  0.90779322975E+03  0.00000000000E+00 0. -1.
<mgrwt>
<rscale>  4 0.24188663E+03</rscale>
<asrwt>0</asrwt>
<pdfrwt beam="1">  1       21 0.19072843E-01 0.24188663E+03</pdfrwt>
<pdfrwt beam="2">  1        2 0.27778395E+00 0.24188663E+03</pdfrwt>
<totfact> 0.29897968E+03</totfact>
</mgrwt>
</event>
<event>
 5    0  0.1239749E+000  0.3235522E+03  0.7546771E-02  0.1074026E+00
          1   -1    0    0  503    0 -0.00000000000E+00  0.00000000000E+00  0.13240454760E+04  0.13240454760E+04  0.00000000000E+00 0.  1.
         21   -1    0    0  501  502  0.00000000000E+00 -0.00000000000E+00 -0.79664351495E+03  0.79664351495E+03  0.00000000000E+00 0.  1.
         25    1    1    2    0    0  0.43935332262E+02 -0.29279796044E+03 -0.70881960842E+03  0.77827449935E+03  0.12500000000E+03 0.  0.
         21    1    1    2  503  502 -0.58234085144E+01  0.33858414970E+03  0.50056387683E+03  0.60434868520E+03  0.00000000000E+00 0.  1.
          1    1    1    2  501    0 -0.38111923748E+02 -0.45786189262E+02  0.73565769260E+03  0.73806580637E+03  0.00000000000E+00 0.  1.
<mgrwt>
<rscale>  4 0.32355223E+03</rscale>
<asrwt>0</asrwt>
<pdfrwt beam="1">  1       21 0.12256054E+00 0.32355223E+03</pdfrwt>
<pdfrwt beam="2">  1        1 0.20369930E+00 0.32355223E+03</pdfrwt>
<totfact> 0.48130397E+01</totfact>
</mgrwt>
</event>
<event>
 5    0  0.1239749E+000  0.2722008E+03  0.7546771E-02  0.1100027E+00
          1   -1    0    0  503    0 -0.00000000000E+00  0.00000000000E+00  0.14460469102E+04  0.14460469102E+04  0.00000000000E+00 0. -1.
         21   -1    0    0  501  502  0.00000000000E+00 -0.00000000000E+00 -0.10200782223E+04  0.10200782223E+04  0.00000000000E+00 0.  1.
         25    1    1    2    0    0 -0.11820331865E+02  0.24837869861E+03 -0.94684172792E+03  0.98689713542E+03  0.12500000000E+03 0.  0.
         21    1    1    2  503  502  0.39702899046E+02 -0.18262577143E+03  0.11510020207E+03  0.21949156954E+03  0.00000000000E+00 0. -1.
          1    1    1    2  501    0 -0.27882567181E+02 -0.65752927184E+02  0.12577102137E+04  0.12597364275E+04  0.00000000000E+00 0. -1.
<mgrwt>
<rscale>  4 0.27220082E+03</rscale>
<asrwt>0</asrwt>
<pdfrwt beam="1">  1       21 0.15693511E+00 0.27220082E+03</pdfrwt>
<pdfrwt beam="2">  1        1 0.22246875E+00 0.27220082E+03</pdfrwt>
<totfact> 0.21615214E+01</totfact>
</mgrwt>
</event>
<event>
 5    0  0.1239749E+000  0.2610725E+03  0.7546771E-02  0.1106501E+00
         21   -1    0    0  501  502  0.00000000000E+00  0.00000000000E+00  0.12776487738E+03  0.12776487738E+03  0.00000000000E+00 0. -1.
          1   -1    0    0  503    0 -0.00000000000E+00 -0.00000000000E+00 -0.13823401317E+04  0.13823401317E+04  0.00000000000E+00 0. -1.
         25    1    1    2    0    0  0.18230876826E+03  0.21856314983E+03 -0.21983026100E+03  0.38073177054E+03  0.12500000000E+03 0.  0.
         21    1    1    2  503  502 -0.14146139154E+03 -0.12973220037E+03 -0.16200039796E+03  0.25116906269E+03  0.00000000000E+00 0. -1.
          1    1    1    2  501    0 -0.40847376714E+02 -0.88830949454E+02 -0.87274459539E+03  0.87820417589E+03  0.00000000000E+00 0. -1.
<mgrwt>
<rscale>  4 0.26107250E+03</rscale>
<asrwt>0</asrwt>
<pdfrwt beam="1">  1       21 0.19656135E-01 0.26107250E+03</pdfrwt>
<pdfrwt beam="2">  1        1 0.21266772E+00 0.26107250E+03</pdfrwt>
<totfact> 0.22479713E+03</totfact>
</mgrwt>
</event>
<event>
 5    0  0.1239749E+000  0.2752335E+03  0.7546771E-02  0.1098321E+00
         21   -1    0    0  501  502  0.00000000000E+00  0.00000000000E+00  0.99486375807E+03  0.99486375807E+03  0.00000000000E+00 0.  1.
          2   -1    0    0  503    0 -0.00000000000E+00 -0.00000000000E+00 -0.39757681987E+03  0.39757681987E+03  0.00000000000E+00 0.  1.
         25    1    1    2    0    0 -0.24346055884E+03  0.72137035448E+02  0.91325985775E+03  0.95610949340E+03  0.12500000000E+03 0.  0.
         21    1    1    2  503  502  0.12848830027E+03  0.31316497877E+02 -0.81190353548E+02  0.15518324605E+03  0.00000000000E+00 0. -1.
          2    1    1    2  501    0  0.11497225858E+03 -0.10345353332E+03 -0.23478256599E+03  0.28114783850E+03  0.00000000000E+00 0.  1.
<mgrwt>
<rscale>  4 0.27523348E+03</rscale>
<asrwt>0</asrwt>
<pdfrwt beam="1">  1       21 0.15305596E+00 0.27523348E+03</pdfrwt>
<pdfrwt beam="2">  1        2 0.61165665E-01 0.27523348E+03</pdfrwt>
<totfact> 0.26932357E+02</totfact>
</mgrwt>
</event>
<event>
 5    0  0.1239749E+000  0.2523891E+03  0.7546771E-02  0.1111804E+00
         21   -1    0    0  503  502  0.00000000000E+00  0.00000000000E+00  0.31253382447E+03  0.31253382447E+03  0.00000000000E+00 0. -1.
         -3   -1    0    0    0  501 -0.00000000000E+00 -0.00000000000E+00 -0.33421391461E+03  0.33421391461E+03  0.00000000000E+00 0. -1.
         25    1    1    2    0    0 -0.17638477446E+03  0.12164625896E+03 -0.95257423244E+02  0.26572236952E+03  0.12500000000E+03 0.  0.
         21    1    1    2  503  501  0.17027740458E+03 -0.14078657426E+03  0.17236020069E+03  0.28022007920E+03  0.00000000000E+00 0. -1.
         -3    1    1    2    0  502  0.61073698727E+01  0.19140315298E+02 -0.98782867590E+02  0.10080529037E+03  0.00000000000E+00 0. -1.
<mgrwt>
<rscale>  4 0.25238907E+03</rscale>
<asrwt>0</asrwt>
<pdfrwt beam="1">  1       21 0.48082127E-01 0.25238907E+03</pdfrwt>
<pdfrwt beam="2">  1       -3 0.51417525E-01 0.25238907E+03</pdfrwt>
<totfact> 0.76418842E+02</totfact>
</mgrwt>
</event>
<event>
 5    0  0.1239749E+000  0.3008216E+03  0.7546771E-02  0.1084831E+00
          2   -1    0    0  503    0 -0.00000000000E+00  0.00000000000E+00  0.11166499201E+04  0.11166499201E+04  0.00000000000E+00 0. -1.
         21   -1    0    0  501  502  0.00000000000E+00 -0.00000000000E+00 -0.44002153132E+03  0.44002153132E+03  0.00000000000E+00 0. -1.
         25    1    1    2    0    0 -0.27637987405E+03  0.89473691641E+02 -0.19486511576E+03  0.37146842344E+03  0.12500000000E+03 0.  0.
         21    1    1    2  503  502  0.12034048991E+03  0.13868132670E+03 -0.75621665730E+02  0.19857739100E+03  0.00000000000E+00 0. -1.
          2    1    1    2  501    0  0.15603938414E+03 -0.22815501834E+03  0.94711517024E+03  0.98662563695E+03  0.00000000000E+00 0. -1.
<mgrwt>
<rscale>  4 0.30082164E+03</rscale>
<asrwt>0</asrwt>
<pdfrwt beam="1">  1       21 0.67695621E-01 0.30082164E+03</pdfrwt>
<pdfrwt beam="2">  1        2 0.17179229E+00 0.30082164E+03</pdfrwt>
<totfact> 0.53497152E+02</totfact>
</mgrwt>
</event>
<event>
 5    0  0.1239749E+000  0.3013512E+03  0.7546771E-02  0.1084567E+00
         21   -1    0    0  503  502  0.00000000000E+00  0.00000000000E+00  0.37242672682E+03  0.37242672682E+03  0.00000000000E+00 0. -1.
         -1   -1    0    0    0  501 -0.00000000000E+00 -0.00000000000E+00 -0.14458820471E+04  0.14458820471E+04  0.00000000000E+00 0. -1.
         25    1    1    2    0    0 -0.12084627321E+02  0.25851088870E+03  0.10131781687E+03  0.30473630865E+03  0.12500000000E+03 0.  0.
         21    1    1    2  503  501  0.92450110407E+01 -0.29336776802E+03  0.41819181389E+02  0.29647759017E+03  0.00000000000E+00 0. -1.
         -1    1    1    2    0  502  0.28396162801E+01  0.34856879319E+02 -0.12165923185E+04  0.12170948751E+04  0.00000000000E+00 0. -1.
<mgrwt>
<rscale>  4 0.30135123E+03</rscale>
<asrwt>0</asrwt>
<pdfrwt beam="1">  1       21 0.57296419E-01 0.30135123E+03</pdfrwt>
<pdfrwt beam="2">  1       -1 0.22244340E+00 0.30135123E+03</pdfrwt>
<totfact> 0.30241332E+01</totfact>
</mgrwt>
</event>
<event>
 5    0  0.1239749E+000  0.6947809E+03  0.7546771E-02  0.9726199E-01
         21   -1    0    0  501  502  0.00000000000E+00  0.00000000000E+00  0.56277408616E+03  0.56277408616E+03  0.00000000000E+00 0. -1.
          2   -1    0    0  503    0 -0.00000000000E+00 -0.00000000000E+00 -0.11842547619E+04  0.11842547619E+04  0.00000000000E+00 0. -1.
         25    1    1    2    0    0  0.51950414346E+03  0.35342589177E+03 -0.14900798527E+03  0.65774067513E+03  0.12500000000E+03 0.  0.
         21    1    1    2  503  502 -0.56451933744E+03 -0.49973683138E+03 -0.20533204252E+03  0.78139633392E+03  0.00000000000E+00 0. -1.
          2    1    1    2  501    0  0.45015193985E+02  0.14631093961E+03 -0.26714064794E+03  0.30789183900E+03  0.00000000000E+00 0. -1.
<mgrwt>
<rscale>  4 0.69478094E+03</rscale>
<asrwt>0</asrwt>
<pdfrwt beam="1">  1       21 0.86580629E-01 0.69478094E+03</pdfrwt>
<pdfrwt beam="2">  1        2 0.18219304E+00 0.69478094E+03</pdfrwt>
<totfact> 0.24722139E+02</totfact>
</mgrwt>
</event>
<event>
 5    0  0.1239749E+000  0.2809062E+03  0.7546771E-02  0.1095195E+00
         -2   -1    0    0    0  501 -0.00000000000E+00  0.00000000000E+00  0.20598729632E+03  0.20598729632E+03  0.00000000000E+00 0.  1.
         21   -1    0    0  503  502  0.00000000000E+00 -0.00000000000E+00 -0.59730970768E+03  0.59730970768E+03  0.00000000000E+00 0.  1.
         25    1    1    2    0    0  0.25417072843E+03 -0.58597657354E+02 -0.28858684502E+03  0.40858758150E+03  0.12500000000E+03 0.  0.
         21    1    1    2  503  501 -0.24143099931E+03  0.27945947728E+02 -0.18536408810E+03  0.30566280208E+03  0.00000000000E+00 0.  1.
         -2    1    1    2    0  502 -0.12739729128E+02  0.30651709626E+02  0.82628521754E+02  0.89046620422E+02  0.00000000000E+00 0.  1.
<mgrwt>
<rscale>  4 0.28090617E+03</rscale>
<asrwt>0</asrwt>
<pdfrwt beam="1">  1       21 0.91893801E-01 0.28090617E+03</pdfrwt>
<pdfrwt beam="2">  1       -2 0.31690353E-01 0.28090617E+03</pdfrwt>
<totfact> 0.71923929E+02</totfact>
</mgrwt>
</event>
<event>
 5    0  0.1239749E+000  0.2331993E+03  0.7546771E-02  0.1124408E+00
          2   -1    0    0  503    0 -0.00000000000E+00  0.00000000000E+00  0.13477105500E+04  0.13477105500E+04  0.00000000000E+00 0. -1.
         21   -1    0    0  501  502  0.00000000000E+00 -0.00000000000E+00 -0.20171918480E+03  0.20171918480E+03  0.00000000000E+00 0. -1.
         25    1    1    2    0    0 -0.92151437527E+02 -0.19254304665E+03 -0.31969228272E+02  0.24942282135E+03  0.12500000000E+03 0.  0.
         21    1    1    2  503  502  0.10908964109E+03  0.14185629109E+03  0.72219585189E+02  0.19297519426E+03  0.00000000000E+00 0. -1.
          2    1    1    2  501    0 -0.16938203560E+02  0.50686755566E+02  0.11057410083E+04  0.11070317192E+04  0.00000000000E+00 0. -1.
<mgrwt>
<rscale>  4 0.23319929E+03</rscale>
<asrwt>0</asrwt>
<pdfrwt beam="1">  1       21 0.31033722E-01 0.23319929E+03</pdfrwt>
<pdfrwt beam="2">  1        2 0.20734008E+00 0.23319929E+03</pdfrwt>
<totfact> 0.20684349E+03</totfact>
</mgrwt>
</event>
<event>
 5    0  0.1239749E+000  0.3473624E+03  0.7546771E-02  0.1065182E+00
         21   -1    0    0  501  502  0.00000000000E+00  0.00000000000E+00  0.46697847270E+02  0.46697847270E+02  0.00000000000E+00 0. -1.
          2   -1    0    0  503    0 -0.00000000000E+00 -0.00000000000E+00 -0.24847542030E+04  0.24847542030E+04  0.00000000000E+00 0. -1.
         25    1    1    2    0    0 -0.27092925562E+02  0.30787951108E+03 -0.11446568703E+04  0.11922198499E+04  0.12500000000E+03 0.  0.
         21    1    1    2  503  502  0.77585235125E+02 -0.11574277265E+03 -0.69137687989E+03  0.70527856069E+03  0.00000000000E+00 0. -1.
          2    1    1    2  501    0 -0.50492309562E+02 -0.19213673843E+03 -0.60202260561E+03  0.63395363967E+03  0.00000000000E+00 0. -1.
<mgrwt>
<rscale>  4 0.34381533E+03</rscale>
<asrwt>0</asrwt>
<pdfrwt beam="1">  1       21 0.71842824E-02 0.34736243E+03</pdfrwt>
<pdfrwt beam="2">  1        2 0.38226997E+00 0.34736243E+03</pdfrwt>
<totfact> 0.72821649E+03</totfact>
</mgrwt>
</event>
<event>
 5    0  0.1239749E+000  0.3504007E+03  0.7546771E-02  0.1062451E+00
          2   -1    0    0  503    0 -0.00000000000E+00  0.00000000000E+00  0.51000757795E+03  0.51000757795E+03  0.00000000000E+00 0.  1.
         21   -1    0    0  501  502  0.00000000000E+00 -0.00000000000E+00 -0.78643008519E+03  0.78643008519E+03  0.00000000000E+00 0.  1.
         25    1    1    2    0    0 -0.18521431262E+03  0.25243710521E+03 -0.36458808496E+03  0.49656651658E+03  0.12500000000E+03 0.  0.
         21    1    1    2  503  502  0.18145443593E+03 -0.29484890589E+03 -0.27008545260E+03  0.43909878311E+03  0.00000000000E+00 0.  1.
          2    1    1    2  501    0  0.37598766906E+01  0.42411800680E+02  0.35825103031E+03  0.36077236345E+03  0.00000000000E+00 0.  1.
<mgrwt>
<rscale>  4 0.35040072E+03</rscale>
<asrwt>0</asrwt>
<pdfrwt beam="1">  1       21 0.12098924E+00 0.35040072E+03</pdfrwt>
<pdfrwt beam="2">  1        2 0.78462705E-01 0.35040072E+03</pdfrwt>
<totfact> 0.36393475E+02</totfact>
</mgrwt>
</event>
<event>
 5    0  0.1239749E+000  0.3003872E+03  0.7546771E-02  0.1085047E+00
         21   -1    0    0  501  502  0.00000000000E+00  0.00000000000E+00  0.46480554730E+03  0.46480554730E+03  0.00000000000E+00 0.  1.
          2   -1    0    0  503    0 -0.00000000000E+00 -0.00000000000E+00 -0.16615399076E+04  0.16615399076E+04  0.00000000000E+00 0. -1.
         25    1    1    2    0    0  0.30180894846E+02  0.28602005082E+03  0.36724311130E+02  0.31574044864E+03  0.12500000000E+03 0.  0.
         21    1    1    2  503  502 -0.29724913692E+02 -0.26509105671E+03  0.22683671203E+03  0.35015958186E+03  0.00000000000E+00 0.  1.
          2    1    1    2  501    0 -0.45598115361E+00 -0.20928994101E+02 -0.14602953835E+04  0.14604454244E+04  0.00000000000E+00 0. -1.
<mgrwt>
<rscale>  4 0.30038719E+03</rscale>
<asrwt>0</asrwt>
<pdfrwt beam="1">  1       21 0.71508547E-01 0.30038719E+03</pdfrwt>
<pdfrwt beam="2">  1        2 0.25562152E+00 0.30038719E+03</pdfrwt>
<totfact> 0.23707902E+02</totfact>
</mgrwt>
</event>
<event>
 5    0  0.1239749E+000  0.3081233E+03  0.7546771E-02  0.1081249E+00
         21   -1    0    0  501  502  0.00000000000E+00  0.00000000000E+00  0.74356819473E+03  0.74356819473E+03  0.00000000000E+00 0. -1.
          2   -1    0    0  503    0 -0.00000000000E+00 -0.00000000000E+00 -0.18515806812E+04  0.18515806812E+04  0.00000000000E+00 0.  1.
         25    1    1    2    0    0 -0.10947706554E+03 -0.25749172318E+03  0.66001847235E+03  0.72769265437E+03  0.12500000000E+03 0.  0.
         21    1    1    2  503  502  0.13474390568E+03  0.27683961776E+03 -0.42901669501E+03  0.52806383959E+03  0.00000000000E+00 0. -1.
          2    1    1    2  501    0 -0.25266840136E+02 -0.19347894576E+02 -0.13390142638E+04  0.13393923820E+04  0.00000000000E+00 0.  1.
<mgrwt>
<rscale>  4 0.30812333E+03</rscale>
<asrwt>0</asrwt>
<pdfrwt beam="1">  1       21 0.11439511E+00 0.30812333E+03</pdfrwt>
<pdfrwt beam="2">  1        2 0.28485856E+00 0.30812333E+03</pdfrwt>
<totfact> 0.62016364E+01</totfact>
</mgrwt>
</event>
<event>
 5    0  0.1239749E+000  0.1738367E+03  0.7546771E-02  0.1173905E+00
          2   -1    0    0  503    0 -0.00000000000E+00  0.00000000000E+00  0.12412358764E+04  0.12412358764E+04  0.00000000000E+00 0.  1.
         21   -1    0    0  501  502  0.00000000000E+00 -0.00000000000E+00 -0.27797916027E+03  0.27797916027E+03  0.00000000000E+00 0. -1.
         25    1    1    2    0    0  0.14815457686E+03 -0.15310227715E+03  0.23402699036E+03  0.34027006646E+03  0.12500000000E+03 0.  0.
         21    1    1    2  503  502 -0.65962658094E+02  0.95510720928E+02 -0.20701504564E+03  0.23733646832E+03  0.00000000000E+00 0. -1.
          2    1    1    2  501    0 -0.82191918764E+02  0.57591556217E+02  0.93624477145E+03  0.94160850194E+03  0.00000000000E+00 0.  1.
<mgrwt>
<rscale>  4 0.17383668E+03</rscale>
<asrwt>0</asrwt>
<pdfrwt beam="1">  1       21 0.42766025E-01 0.17383668E+03</pdfrwt>
<pdfrwt beam="2">  1        2 0.19095936E+00 0.17383668E+03</pdfrwt>
<totfact> 0.12886171E+03</totfact>
</mgrwt>
</event>
<event>
 5    0  0.1239749E+000  0.1769535E+03  0.7546771E-02  0.1170784E+00
          2   -1    0    0  503    0 -0.00000000000E+00  0.00000000000E+00  0.11910085216E+04  0.11910085216E+04  0.00000000000E+00 0.  1.
         21   -1    0    0  501  502  0.00000000000E+00 -0.00000000000E+00 -0.19580701087E+03  0.19580701087E+03  0.00000000000E+00 0.  1.
         25    1    1    2    0    0 -0.15310228936E+03 -0.14622150420E+03 -0.59331829718E+02  0.25291560908E+03  0.12500000000E+03 0.  0.
         21    1    1    2  503  502  0.11416656260E+03  0.28798143320E+02  0.60834210941E+02  0.13252976381E+03  0.00000000000E+00 0. -1.
          2    1    1    2  501    0  0.38935726756E+02  0.11742336088E+03  0.99369912949E+03  0.10013701596E+04  0.00000000000E+00 0.  1.
<mgrwt>
<rscale>  4 0.17695352E+03</rscale>
<asrwt>0</asrwt>
<pdfrwt beam="1">  1       21 0.30124157E-01 0.17695352E+03</pdfrwt>
<pdfrwt beam="2">  1        2 0.18323207E+00 0.17695352E+03</pdfrwt>
<totfact> 0.27529054E+03</totfact>
</mgrwt>
</event>
<event>
 5    0  0.1239749E+000  0.2532960E+03  0.7546771E-02  0.1111239E+00
          2   -1    0    0  503    0 -0.00000000000E+00  0.00000000000E+00  0.36562432121E+03  0.36562432121E+03  0.00000000000E+00 0. -1.
         21   -1    0    0  501  502  0.00000000000E+00 -0.00000000000E+00 -0.35012234470E+03  0.35012234470E+03  0.00000000000E+00 0. -1.
         25    1    1    2    0    0  0.18292912740E+03 -0.12276315162E+03 -0.25697240961E+03  0.36082360835E+03  0.12500000000E+03 0.  0.
         21    1    1    2  503  502 -0.11563153424E+03  0.10401540853E+03  0.16508664857E+03  0.22681150425E+03  0.00000000000E+00 0.  1.
          2    1    1    2  501    0 -0.67297593157E+02  0.18747743093E+02  0.10738773755E+03  0.12811155331E+03  0.00000000000E+00 0. -1.
<mgrwt>
<rscale>  4 0.25329599E+03</rscale>
<asrwt>0</asrwt>
<pdfrwt beam="1">  1       21 0.53864976E-01 0.25329599E+03</pdfrwt>
<pdfrwt beam="2">  1        2 0.56249896E-01 0.25329599E+03</pdfrwt>
<totfact> 0.35045893E+03</totfact>
</mgrwt>
</event>
<event>
 5    0  0.1239749E+000  0.2797429E+03  0.7546771E-02  0.1095829E+00
          2   -1    0    0  503    0 -0.00000000000E+00  0.00000000000E+00  0.65401596041E+03  0.65401596041E+03  0.00000000000E+00 0. -1.
         21   -1    0    0  501  502  0.00000000000E+00 -0.00000000000E+00 -0.21808392488E+03  0.21808392488E+03  0.00000000000E+00 0.  1.
         25    1    1    2    0    0 -0.23453570642E+01 -0.27294943502E+03  0.13998400299E+03  0.33125128810E+03  0.12500000000E+03 0.  0.
         21    1    1    2  503  502  0.25126019734E+02  0.23795051140E+03 -0.27064189804E+01  0.23928871150E+03  0.00000000000E+00 0.  1.
          2    1    1    2  501    0 -0.22780662670E+02  0.34998923610E+02  0.29865445152E+03  0.30155988569E+03  0.00000000000E+00 0. -1.
<mgrwt>
<rscale>  4 0.27974291E+03</rscale>
<asrwt>0</asrwt>
<pdfrwt beam="1">  1       21 0.33551373E-01 0.27974291E+03</pdfrwt>
<pdfrwt beam="2">  1        2 0.10061784E+00 0.27974291E+03</pdfrwt>
<totfact> 0.47784918E+03</totfact>
</mgrwt>
</event>
<event>
 5    0  0.1239749E+000  0.2692767E+03  0.7546771E-02  0.1101694E+00
         21   -1    0    0  503  502  0.00000000000E+00  0.00000000000E+00  0.43961842907E+03  0.43961842907E+03  0.00000000000E+00 0.  1.
         -1   -1    0    0    0  501 -0.00000000000E+00 -0.00000000000E+00 -0.88627282260E+03  0.88627282260E+03  0.00000000000E+00 0. -1.
         25    1    1    2    0    0 -0.27165249468E+03  0.79424447274E+01  0.16513055741E+03  0.34168883693E+03  0.12500000000E+03 0.  0.
         21    1    1    2  503  501  0.36538489247E+02  0.15146109837E+02  0.16635398851E+03  0.17099156509E+03  0.00000000000E+00 0.  1.
         -1    1    1    2    0  502  0.23511400543E+03 -0.23088554564E+02 -0.77813893945E+03  0.81321084965E+03  0.00000000000E+00 0. -1.
<mgrwt>
<rscale>  4 0.26927675E+03</rscale>
<asrwt>0</asrwt>
<pdfrwt beam="1">  1       21 0.67633605E-01 0.26927675E+03</pdfrwt>
<pdfrwt beam="2">  1       -1 0.13634966E+00 0.26927675E+03</pdfrwt>
<totfact> 0.87138609E+01</totfact>
</mgrwt>
</event>
<event>
 5    0  0.1239749E+000  0.4466262E+03  0.7546771E-02  0.1028733E+00
         21   -1    0    0  501  502  0.00000000000E+00  0.00000000000E+00  0.90438040679E+03  0.90438040679E+03  0.00000000000E+00 0. -1.
          3   -1    0    0  503    0 -0.00000000000E+00 -0.00000000000E+00 -0.10899968222E+04  0.10899968222E+04  0.00000000000E+00 0. -1.
         25    1    1    2    0    0  0.37673772043E+03 -0.19275638707E+03  0.75391310410E+03  0.87355383537E+03  0.12500000000E+03 0.  0.
         21    1    1    2  503  502 -0.47462538103E+03  0.17867696563E+03 -0.72699142037E+03  0.88640353996E+03  0.00000000000E+00 0. -1.
          3    1    1    2  501    0  0.97887660601E+02  0.14079421436E+02 -0.21253809909E+03  0.23441985362E+03  0.00000000000E+00 0. -1.
<mgrwt>
<rscale>  4 0.44662625E+03</rscale>
<asrwt>0</asrwt>
<pdfrwt beam="1">  1       21 0.13913545E+00 0.44662625E+03</pdfrwt>
<pdfrwt beam="2">  1        3 0.16769182E+00 0.44662625E+03</pdfrwt>
<totfact> 0.40716643E+00</totfact>
</mgrwt>
</event>
<event>
 5    0  0.1239749E+000  0.3586973E+03  0.7546771E-02  0.1059101E+00
          1   -1    0    0  503    0 -0.00000000000E+00  0.00000000000E+00  0.16540521982E+04  0.16540521982E+04  0.00000000000E+00 0.  1.
         21   -1    0    0  501  502  0.00000000000E+00 -0.00000000000E+00 -0.25459063702E+03  0.25459063702E+03  0.00000000000E+00 0. -1.
         25    1    1    2    0    0  0.23386780282E+03  0.23715389247E+03 -0.69987042934E+02  0.36257317066E+03  0.12500000000E+03 0.  0.
         21    1    1    2  503  502 -0.41183914745E+02  0.83432158988E+02  0.16923703528E+03  0.19312745558E+03  0.00000000000E+00 0.  1.
          1    1    1    2  501    0 -0.19268388807E+03 -0.32058605146E+03  0.13002115688E+04  0.13529422089E+04  0.00000000000E+00 0.  1.
<mgrwt>
<rscale>  4 0.35869730E+03</rscale>
<asrwt>0</asrwt>
<pdfrwt beam="1">  1       21 0.39167791E-01 0.35869730E+03</pdfrwt>
<pdfrwt beam="2">  1        1 0.25446956E+00 0.35869730E+03</pdfrwt>
<totfact> 0.37024335E+02</totfact>
</mgrwt>
</event>
<event>
 5    0  0.1239749E+000  0.2562964E+03  0.7546771E-02  0.1109389E+00
         -3   -1    0    0    0  501 -0.00000000000E+00  0.00000000000E+00  0.99248651487E+03  0.99248651487E+03  0.00000000000E+00 0.  1.
         21   -1    0    0  503  502  0.00000000000E+00 -0.00000000000E+00 -0.37270837641E+03  0.37270837641E+03  0.00000000000E+00 0.  1.
         25    1    1    2    0    0  0.14677727929E+03 -0.16894581152E+03 -0.30435459694E+03  0.39792333134E+03  0.12500000000E+03 0.  0.
         21    1    1    2  503  501 -0.17219012643E+03  0.14563888444E+03  0.59446901358E+03  0.63580935225E+03  0.00000000000E+00 0.  1.
         -3    1    1    2    0  502  0.25412847137E+02  0.23306927077E+02  0.32966372182E+03  0.33146220770E+03  0.00000000000E+00 0.  1.
<mgrwt>
<rscale>  4 0.25629642E+03</rscale>
<asrwt>0</asrwt>
<pdfrwt beam="1">  1       21 0.57339751E-01 0.25629642E+03</pdfrwt>
<pdfrwt beam="2">  1       -3 0.15269023E+00 0.25629642E+03</pdfrwt>
<totfact> 0.45055756E+01</totfact>
</mgrwt>
</event>
<event>
 5    0  0.1239749E+000  0.2835968E+03  0.7546771E-02  0.1093741E+00
         21   -1    0    0  501  502  0.00000000000E+00  0.00000000000E+00  0.58671381645E+03  0.58671381645E+03  0.00000000000E+00 0.  1.
          1   -1    0    0  503    0 -0.00000000000E+00 -0.00000000000E+00 -0.42261741300E+03  0.42261741300E+03  0.00000000000E+00 0. -1.
         25    1    1    2    0    0  0.20020395812E+03 -0.19865386292E+03  0.34003641961E+03  0.45912389261E+03  0.12500000000E+03 0.  0.
         21    1    1    2  503  502 -0.55679039035E+02  0.27948245687E+02 -0.29175499631E+03  0.29833242817E+03  0.00000000000E+00 0. -1.
          1    1    1    2  501    0 -0.14452491909E+03  0.17070561723E+03  0.11581498015E+03  0.25187490867E+03  0.00000000000E+00 0. -1.
<mgrwt>
<rscale>  4 0.28359679E+03</rscale>
<asrwt>0</asrwt>
<pdfrwt beam="1">  1       21 0.90263664E-01 0.28359679E+03</pdfrwt>
<pdfrwt beam="2">  1        1 0.65018064E-01 0.28359679E+03</pdfrwt>
<totfact> 0.61984714E+02</totfact>
</mgrwt>
</event>
<event>
 5    0  0.1239749E+000  0.2546453E+03  0.7546771E-02  0.1110404E+00
         21   -1    0    0  501  502  0.00000000000E+00  0.00000000000E+00  0.23350901606E+03  0.23350901606E+03  0.00000000000E+00 0.  1.
          1   -1    0    0  503    0 -0.00000000000E+00 -0.00000000000E+00 -0.36496672092E+03  0.36496672092E+03  0.00000000000E+00 0.  1.
         25    1    1    2    0    0 -0.41417054068E+02 -0.21553783789E+03  0.21270750498E+02  0.25347460771E+03  0.12500000000E+03 0.  0.
         21    1    1    2  503  502  0.11585610706E+03  0.20225596357E+03 -0.10552779762E+03  0.25586369108E+03  0.00000000000E+00 0.  1.
          1    1    1    2  501    0 -0.74439052993E+02  0.13281874320E+02 -0.47200657729E+02  0.89137438184E+02  0.00000000000E+00 0.  1.
<mgrwt>
<rscale>  4 0.25464526E+03</rscale>
<asrwt>0</asrwt>
<pdfrwt beam="1">  1       21 0.35924464E-01 0.25464526E+03</pdfrwt>
<pdfrwt beam="2">  1        1 0.56148726E-01 0.25464526E+03</pdfrwt>
<totfact> 0.55022756E+03</totfact>
</mgrwt>
</event>
<event>
 5    0  0.1239749E+000  0.3233388E+03  0.7546771E-02  0.1074123E+00
         21   -1    0    0  501  502  0.00000000000E+00  0.00000000000E+00  0.57598471525E+03  0.57598471525E+03  0.00000000000E+00 0. -1.
          1   -1    0    0  503    0 -0.00000000000E+00 -0.00000000000E+00 -0.95902646941E+03  0.95902646941E+03  0.00000000000E+00 0. -1.
         25    1    1    2    0    0 -0.22115259482E+03  0.41544216898E+02  0.45848524172E+03  0.52580234787E+03  0.12500000000E+03 0.  0.
         21    1    1    2  503  502 -0.70766841459E+02 -0.12492638663E+03 -0.35498672066E+02  0.14790099271E+03  0.00000000000E+00 0. -1.
          1    1    1    2  501    0  0.29191943628E+03  0.83382169732E+02 -0.80602832381E+03  0.86130784409E+03  0.00000000000E+00 0. -1.
<mgrwt>
<rscale>  4 0.32333882E+03</rscale>
<asrwt>0</asrwt>
<pdfrwt beam="1">  1       21 0.88613035E-01 0.32333882E+03</pdfrwt>
<pdfrwt beam="2">  1        1 0.14754253E+00 0.32333882E+03</pdfrwt>
<totfact> 0.19403149E+02</totfact>
</mgrwt>
</event>
<event>
 5    0  0.1239749E+000  0.2530162E+03  0.7546771E-02  0.1111413E+00
          1   -1    0    0  503    0 -0.00000000000E+00  0.00000000000E+00  0.23611154093E+04  0.23611154093E+04  0.00000000000E+00 0.  1.
         21   -1    0    0  501  502  0.00000000000E+00 -0.00000000000E+00 -0.10599676159E+03  0.10599676159E+03  0.00000000000E+00 0.  1.
         25    1    1    2    0    0 -0.21433133583E+03  0.57036007181E+02  0.15527816053E+04  0.15735141376E+04  0.12500000000E+03 0.  0.
         21    1    1    2  503  502  0.20529852692E+03 -0.78878653585E+02  0.31301814233E+02  0.22214664238E+03  0.00000000000E+00 0.  1.
          1    1    1    2  501    0  0.90328089051E+01  0.21842646404E+02  0.67103522823E+03  0.67145139092E+03  0.00000000000E+00 0.  1.
<mgrwt>
<rscale>  4 0.25301619E+03</rscale>
<asrwt>0</asrwt>
<pdfrwt beam="1">  1       21 0.16307196E-01 0.25301619E+03</pdfrwt>
<pdfrwt beam="2">  1        1 0.36324849E+00 0.25301619E+03</pdfrwt>
<totfact> 0.73115535E+02</totfact>
</mgrwt>
</event>
<event>
 5    0  0.1239749E+000  0.2692910E+03  0.7546771E-02  0.1101686E+00
         -2   -1    0    0    0  501 -0.00000000000E+00  0.00000000000E+00  0.14796241338E+04  0.14796241338E+04  0.00000000000E+00 0.  1.
         21   -1    0    0  503  502  0.00000000000E+00 -0.00000000000E+00 -0.50138590607E+03  0.50138590607E+03  0.00000000000E+00 0.  1.
         25    1    1    2    0    0  0.82137092364E+02 -0.20810241544E+03  0.90587327439E+03  0.94142684607E+03  0.12500000000E+03 0.  0.
         21    1    1    2  503  501 -0.52011290064E+02  0.23335510238E+03 -0.45328175880E+03  0.51246866340E+03  0.00000000000E+00 0.  1.
         -2    1    1    2    0  502 -0.30125802301E+02 -0.25252686942E+02  0.52564671212E+03  0.52711453037E+03  0.00000000000E+00 0.  1.
<mgrwt>
<rscale>  4 0.26929105E+03</rscale>
<asrwt>0</asrwt>
<pdfrwt beam="1">  1       21 0.77136294E-01 0.26929105E+03</pdfrwt>
<pdfrwt beam="2">  1       -2 0.22763448E+00 0.26929105E+03</pdfrwt>
<totfact> 0.11480266E+01</totfact>
</mgrwt>
</event>
<event>
 5    0  0.1239749E+000  0.2857425E+03  0.7546771E-02  0.1092593E+00
         21   -1    0    0  501  502  0.00000000000E+00  0.00000000000E+00  0.83072392852E+02  0.83072392852E+02  0.00000000000E+00 0. -1.
          1   -1    0    0  503    0 -0.00000000000E+00 -0.00000000000E+00 -0.22103971230E+04  0.22103971230E+04  0.00000000000E+00 0.  1.
         25    1    1    2    0    0 -0.13995553025E+03  0.21549067501E+03 -0.20743301575E+03  0.35309664044E+03  0.12500000000E+03 0.  0.
         21    1    1    2  503  502  0.53281496702E+02 -0.16667997689E+03 -0.10085173345E+04  0.10235860230E+04  0.00000000000E+00 0. -1.
          1    1    1    2  501    0  0.86674033550E+02 -0.48810698118E+02 -0.91137437994E+03  0.91678685241E+03  0.00000000000E+00 0.  1.
<mgrwt>
<rscale>  4 0.28574251E+03</rscale>
<asrwt>0</asrwt>
<pdfrwt beam="1">  1       21 0.12780370E-01 0.28574251E+03</pdfrwt>
<pdfrwt beam="2">  1        1 0.34006104E+00 0.28574251E+03</pdfrwt>
<totfact> 0.14111116E+03</totfact>
</mgrwt>
</event>
<event>
 5    0  0.1239749E+000  0.3485549E+03  0.7546771E-02  0.1063210E+00
         21   -1    0    0  501  502  0.00000000000E+00  0.00000000000E+00  0.68150093550E+03  0.68150093550E+03  0.00000000000E+00 0. -1.
          2   -1    0    0  503    0 -0.00000000000E+00 -0.00000000000E+00 -0.63348999977E+03  0.63348999977E+03  0.00000000000E+00 0.  1.
         25    1    1    2    0    0  0.21860110329E+03 -0.26310133810E+03  0.23644552597E+03  0.43421220989E+03  0.12500000000E+03 0.  0.
         21    1    1    2  503  502 -0.20459908664E+03  0.23739990248E+03  0.27468275134E+03  0.41673746392E+03  0.00000000000E+00 0. -1.
          2    1    1    2  501    0 -0.14002016657E+02  0.25701435618E+02 -0.46311734158E+03  0.46404126145E+03  0.00000000000E+00 0.  1.
<mgrwt>
<rscale>  4 0.34855491E+03</rscale>
<asrwt>0</asrwt>
<pdfrwt beam="1">  1       21 0.10484630E+00 0.34855491E+03</pdfrwt>
<pdfrwt beam="2">  1        2 0.97460000E-01 0.34855491E+03</pdfrwt>
<totfact> 0.40344911E+02</totfact>
</mgrwt>
</event>
<event>
 5    0  0.1239749E+000  0.2231046E+03  0.7546771E-02  0.1131589E+00
          2   -1    0    0  503    0 -0.00000000000E+00  0.00000000000E+00  0.11493677514E+04  0.11493677514E+04  0.00000000000E+00 0. -1.
         21   -1    0    0  501  502  0.00000000000E+00 -0.00000000000E+00 -0.66512769192E+03  0.66512769192E+03  0.00000000000E+00 0. -1.
         25    1    1    2    0    0 -0.42555054872E+02  0.21180775373E+03 -0.46887518528E+03  0.53117077913E+03  0.12500000000E+03 0.  0.
         21    1    1    2  503  502 -0.69411514151E+02 -0.64980490651E+02 -0.14302244782E+03  0.17174353857E+03  0.00000000000E+00 0. -1.
          2    1    1    2  501    0  0.11196656902E+03 -0.14682726308E+03  0.10961376925E+04  0.11115811256E+04  0.00000000000E+00 0. -1.
<mgrwt>
<rscale>  4 0.22310459E+03</rscale>
<asrwt>0</asrwt>
<pdfrwt beam="1">  1       21 0.10232734E+00 0.22310459E+03</pdfrwt>
<pdfrwt beam="2">  1        2 0.17682581E+00 0.22310459E+03</pdfrwt>
<totfact> 0.20697501E+02</totfact>
</mgrwt>
</event>
<event>
 5    0  0.1239749E+000  0.3248439E+03  0.7546771E-02  0.1073441E+00
         -1   -1    0    0    0  501 -0.00000000000E+00  0.00000000000E+00  0.60913699176E+03  0.60913699176E+03  0.00000000000E+00 0.  1.
         21   -1    0    0  503  502  0.00000000000E+00 -0.00000000000E+00 -0.13307790365E+04  0.13307790365E+04  0.00000000000E+00 0.  1.
         25    1    1    2    0    0 -0.28501524371E+03  0.21602821474E+03 -0.70794693444E+03  0.80294192859E+03  0.12500000000E+03 0.  0.
         21    1    1    2  503  501  0.28527790653E+03  0.30553764070E+01 -0.51563889261E+03  0.58930152456E+03  0.00000000000E+00 0.  1.
         -1    1    1    2    0  502 -0.26266282035E+00 -0.21908359115E+03  0.50194378232E+03  0.54767257510E+03  0.00000000000E+00 0.  1.
<mgrwt>
<rscale>  4 0.32484394E+03</rscale>
<asrwt>0</asrwt>
<pdfrwt beam="1">  1       21 0.20473523E+00 0.32484394E+03</pdfrwt>
<pdfrwt beam="2">  1       -1 0.93713385E-01 0.32484394E+03</pdfrwt>
<totfact> 0.12217535E+01</totfact>
</mgrwt>
</event>
<event>
 5    0  0.1239749E+000  0.3642727E+03  0.7546771E-02  0.1056905E+00
          2   -1    0    0  503    0 -0.00000000000E+00  0.00000000000E+00  0.16735301896E+04  0.16735301896E+04  0.00000000000E+00 0.  1.
         21   -1    0    0  501  502  0.00000000000E+00 -0.00000000000E+00 -0.80232193746E+03  0.80232193746E+03  0.00000000000E+00 0.  1.
         25    1    1    2    0    0 -0.33510242290E+03  0.32940943919E+02 -0.64620098765E+03  0.73931012171E+03  0.12500000000E+03 0.  0.
         21    1    1    2  503  502  0.37719488575E+03 -0.27162108022E+03  0.46835987061E+03  0.65985980439E+03  0.00000000000E+00 0.  1.
          2    1    1    2  501    0 -0.42092462849E+02  0.23868013630E+03  0.10490493692E+04  0.10766822010E+04  0.00000000000E+00 0.  1.
<mgrwt>
<rscale>  4 0.36427267E+03</rscale>
<asrwt>0</asrwt>
<pdfrwt beam="1">  1       21 0.12343414E+00 0.36427267E+03</pdfrwt>
<pdfrwt beam="2">  1        2 0.25746618E+00 0.36427267E+03</pdfrwt>
<totfact> 0.61598805E+01</totfact>
</mgrwt>
</event>
<event>
 5    0  0.1239749E+000  0.3583231E+03  0.7546771E-02  0.1059250E+00
         -3   -1    0    0    0  501 -0.00000000000E+00  0.00000000000E+00  0.62053628300E+03  0.62053628300E+03  0.00000000000E+00 0. -1.
         21   -1    0    0  503  502  0.00000000000E+00 -0.00000000000E+00 -0.15949971740E+04  0.15949971740E+04  0.00000000000E+00 0. -1.
         25    1    1    2    0    0  0.20881933408E+03 -0.10842995145E+03 -0.39400665097E+02  0.26933247310E+03  0.12500000000E+03 0.  0.
         21    1    1    2  503  501 -0.33353707435E+03  0.12274792312E+03 -0.14104377688E+04  0.14545269788E+04  0.00000000000E+00 0. -1.
         -3    1    1    2    0  502  0.12471774027E+03 -0.14317971675E+02  0.47537754283E+03  0.49167400509E+03  0.00000000000E+00 0. -1.
<mgrwt>
<rscale>  4 0.35832312E+03</rscale>
<asrwt>0</asrwt>
<pdfrwt beam="1">  1       21 0.24538418E+00 0.35832312E+03</pdfrwt>
<pdfrwt beam="2">  1       -3 0.95467121E-01 0.35832312E+03</pdfrwt>
<totfact> 0.31073322E+00</totfact>
</mgrwt>
</event>
<event>
 5    0  0.1239749E+000  0.2261052E+03  0.7546771E-02  0.1129412E+00
         21   -1    0    0  501  502  0.00000000000E+00  0.00000000000E+00  0.93162961695E+02  0.93162961695E+02  0.00000000000E+00 0. -1.
          2   -1    0    0  503    0 -0.00000000000E+00 -0.00000000000E+00 -0.22518233456E+04  0.22518233456E+04  0.00000000000E+00 0. -1.
         25    1    1    2    0    0  0.18943189660E+03  0.75468629517E+02 -0.25878851291E+03  0.35238679303E+03  0.12500000000E+03 0.  0.
         21    1    1    2  503  502 -0.15848715119E+03 -0.85306386146E+02 -0.12902772652E+03  0.22145769533E+03  0.00000000000E+00 0. -1.
          2    1    1    2  501    0 -0.30944745408E+02  0.98377566292E+01 -0.17708441445E+04  0.17711418189E+04  0.00000000000E+00 0. -1.
<mgrwt>
<rscale>  4 0.22610516E+03</rscale>
<asrwt>0</asrwt>
<pdfrwt beam="1">  1       21 0.14332764E-01 0.22610516E+03</pdfrwt>
<pdfrwt beam="2">  1        2 0.34643435E+00 0.22610516E+03</pdfrwt>
<totfact> 0.29752367E+03</totfact>
</mgrwt>
</event>
<event>
 5    0  0.1239749E+000  0.2801942E+03  0.7546771E-02  0.1095583E+00
         21   -1    0    0  501  502  0.00000000000E+00  0.00000000000E+00  0.11867114344E+04  0.11867114344E+04  0.00000000000E+00 0. -1.
          3   -1    0    0  503    0 -0.00000000000E+00 -0.00000000000E+00 -0.80584395247E+03  0.80584395247E+03  0.00000000000E+00 0.  1.
         25    1    1    2    0    0 -0.20086129560E+03  0.15718781318E+03  0.10575612823E+04  0.10950406999E+04  0.12500000000E+03 0.  0.
         21    1    1    2  503  502  0.17347096814E+03 -0.14265934927E+03 -0.45367604474E+01  0.22464293649E+03  0.00000000000E+00 0. -1.
          3    1    1    2  501    0  0.27390327462E+02 -0.14528463909E+02 -0.67215703990E+03  0.67287175048E+03  0.00000000000E+00 0.  1.
<mgrwt>
<rscale>  4 0.28019416E+03</rscale>
<asrwt>0</asrwt>
<pdfrwt beam="1">  1       21 0.18257099E+00 0.28019416E+03</pdfrwt>
<pdfrwt beam="2">  1        3 0.12397599E+00 0.28019416E+03</pdfrwt>
<totfact> 0.44484753E+00</totfact>
</mgrwt>
</event>
<event>
 5    0  0.1239749E+000  0.2713408E+03  0.7546771E-02  0.1100515E+00
          2   -1    0    0  503    0 -0.00000000000E+00  0.00000000000E+00  0.25204502166E+04  0.25204502166E+04  0.00000000000E+00 0. -1.
         21   -1    0    0  501  502  0.00000000000E+00 -0.00000000000E+00 -0.11690618088E+03  0.11690618088E+03  0.00000000000E+00 0.  1.
         25    1    1    2    0    0  0.52387453675E+02  0.23557857092E+03  0.60837987102E+02  0.27851026741E+03  0.12500000000E+03 0.  0.
         21    1    1    2  503  502 -0.32048934175E+02 -0.17781868225E+00  0.14638375442E+03  0.14985115735E+03  0.00000000000E+00 0.  1.
          2    1    1    2  501    0 -0.20338519499E+02 -0.23540075223E+03  0.21963222942E+04  0.22089949727E+04  0.00000000000E+00 0. -1.
<mgrwt>
<rscale>  4 0.27134075E+03</rscale>
<asrwt>0</asrwt>
<pdfrwt beam="1">  1       21 0.17985568E-01 0.27134075E+03</pdfrwt>
<pdfrwt beam="2">  1        2 0.38776153E+00 0.27134075E+03</pdfrwt>
<totfact> 0.13701453E+03</totfact>
</mgrwt>
</event>
<event>
 5    0  0.1239749E+000  0.2098194E+03  0.7546771E-02  0.1141709E+00
         21   -1    0    0  501  502  0.00000000000E+00  0.00000000000E+00  0.24908781063E+02  0.24908781063E+02  0.00000000000E+00 0.  1.
          2   -1    0    0  503    0 -0.00000000000E+00 -0.00000000000E+00 -0.28705268054E+04  0.28705268054E+04  0.00000000000E+00 0. -1.
         25    1    1    2    0    0  0.13286635916E+03  0.16360641081E+03 -0.99683272386E+03  0.10265091361E+04  0.12500000000E+03 0.  0.
         21    1    1    2  503  502 -0.12499686871E+03 -0.38156463903E+02 -0.12667046115E+04  0.12734287203E+04  0.00000000000E+00 0. -1.
          2    1    1    2  501    0 -0.78694904507E+01 -0.12544994691E+03 -0.58208068893E+03  0.59549773004E+03  0.00000000000E+00 0. -1.
<mgrwt>
<rscale>  4 0.20981936E+03</rscale>
<asrwt>0</asrwt>
<pdfrwt beam="1">  1       21 0.38321201E-02 0.20981936E+03</pdfrwt>
<pdfrwt beam="2">  1        2 0.44161951E+00 0.20981936E+03</pdfrwt>
<totfact> 0.13633225E+04</totfact>
</mgrwt>
</event>
<event>
 5    0  0.1239749E+000  0.2540289E+03  0.7546771E-02  0.1110785E+00
          1   -1    0    0  503    0 -0.00000000000E+00  0.00000000000E+00  0.12707949946E+04  0.12707949946E+04  0.00000000000E+00 0. -1.
         21   -1    0    0  501  502  0.00000000000E+00 -0.00000000000E+00 -0.17645574104E+03  0.17645574104E+03  0.00000000000E+00 0.  1.
         25    1    1    2    0    0 -0.24367654073E+03  0.46885223680E+01  0.50350562333E+03  0.57318683818E+03  0.12500000000E+03 0.  0.
         21    1    1    2  503  502  0.21757953952E+03 -0.48478441714E+01 -0.57582801030E+02  0.22512249240E+03  0.00000000000E+00 0.  1.
          1    1    1    2  501    0  0.26097001208E+02  0.15932180341E+00  0.64841643122E+03  0.64894140501E+03  0.00000000000E+00 0. -1.
<mgrwt>
<rscale>  4 0.25402887E+03</rscale>
<asrwt>0</asrwt>
<pdfrwt beam="1">  1       21 0.27147038E-01 0.25402887E+03</pdfrwt>
<pdfrwt beam="2">  1        1 0.19550692E+00 0.25402887E+03</pdfrwt>
<totfact> 0.14504346E+03</totfact>
</mgrwt>
</event>
<event>
 5    0  0.1239749E+000  0.2176016E+03  0.7546771E-02  0.1135684E+00
         21   -1    0    0  501  502  0.00000000000E+00  0.00000000000E+00  0.31245815220E+03  0.31245815220E+03  0.00000000000E+00 0.  1.
          1   -1    0    0  503    0 -0.00000000000E+00 -0.00000000000E+00 -0.26202313726E+03  0.26202313726E+03  0.00000000000E+00 0.  1.
         25    1    1    2    0    0  0.70789828573E+02 -0.19495417624E+03  0.77127019045E+00  0.24216507907E+03  0.12500000000E+03 0.  0.
         21    1    1    2  503  502  0.89824560031E+02  0.11432679473E+03  0.46236988939E+02  0.15256777748E+03  0.00000000000E+00 0.  1.
          1    1    1    2  501    0 -0.16061438860E+03  0.80627381513E+02  0.34267558106E+01  0.17974843290E+03  0.00000000000E+00 0.  1.
<mgrwt>
<rscale>  4 0.21760160E+03</rscale>
<asrwt>0</asrwt>
<pdfrwt beam="1">  1       21 0.48070485E-01 0.21760160E+03</pdfrwt>
<pdfrwt beam="2">  1        1 0.40311252E-01 0.21760160E+03</pdfrwt>
<totfact> 0.46565160E+03</totfact>
</mgrwt>
</event>
<event>
 5    0  0.1239749E+000  0.4307505E+03  0.7546771E-02  0.1033623E+00
         21   -1    0    0  501  502  0.00000000000E+00  0.00000000000E+00  0.75631156973E+03  0.75631156973E+03  0.00000000000E+00 0.  1.
          2   -1    0    0  503    0 -0.00000000000E+00 -0.00000000000E+00 -0.60701938583E+03  0.60701938583E+03  0.00000000000E+00 0.  1.
         25    1    1    2    0    0  0.35185880543E+03 -0.13429507976E+03 -0.37205299145E+03  0.54395607897E+03  0.12500000000E+03 0.  0.
         21    1    1    2  503  502 -0.29920370625E+03  0.29959383604E+03  0.48185518148E+03  0.64145439459E+03  0.00000000000E+00 0.  1.
          2    1    1    2  501    0 -0.52655099178E+02 -0.16529875628E+03  0.39489993872E+02  0.17792048199E+03  0.00000000000E+00 0.  1.
<mgrwt>
<rscale>  4 0.43075046E+03</rscale>
<asrwt>0</asrwt>
<pdfrwt beam="1">  1       21 0.11635563E+00 0.43075046E+03</pdfrwt>
<pdfrwt beam="2">  1        2 0.93387598E-01 0.43075046E+03</pdfrwt>
<totfact> 0.31902314E+02</totfact>
</mgrwt>
</event>
<event>
 5    0  0.1239749E+000  0.2953173E+03  0.7546771E-02  0.1087605E+00
          2   -1    0    0  503    0 -0.00000000000E+00  0.00000000000E+00  0.98102985883E+03  0.98102985883E+03  0.00000000000E+00 0.  1.
         21   -1    0    0  501  502  0.00000000000E+00 -0.00000000000E+00 -0.41769021941E+03  0.41769021941E+03  0.00000000000E+00 0. -1.
         25    1    1    2    0    0  0.24339303304E+03 -0.13880201196E+01 -0.17129709515E+03  0.32281541156E+03  0.12500000000E+03 0.  0.
         21    1    1    2  503  502 -0.49127929676E+03 -0.72984048971E+02  0.61577006086E+03  0.79110984489E+03  0.00000000000E+00 0.  1.
          2    1    1    2  501    0  0.24788626372E+03  0.74372069091E+02  0.11886667371E+03  0.28479482180E+03  0.00000000000E+00 0.  1.
<mgrwt>
<rscale>  4 0.29531732E+03</rscale>
<asrwt>0</asrwt>
<pdfrwt beam="1">  1       21 0.64260034E-01 0.29531732E+03</pdfrwt>
<pdfrwt beam="2">  1        2 0.15092767E+00 0.29531732E+03</pdfrwt>
<totfact> 0.72648512E+02</totfact>
</mgrwt>
</event>
<event>
 5    0  0.1239749E+000  0.1721387E+03  0.7546771E-02  0.1175636E+00
          2   -1    0    0  503    0 -0.00000000000E+00  0.00000000000E+00  0.25074149951E+04  0.25074149951E+04  0.00000000000E+00 0.  1.
         21   -1    0    0  501  502  0.00000000000E+00 -0.00000000000E+00 -0.82739815543E+02  0.82739815543E+02  0.00000000000E+00 0. -1.
         25    1    1    2    0    0 -0.48923452280E+02 -0.19651461022E+03  0.66225024020E+03  0.70371292219E+03  0.12500000000E+03 0.  0.
         21    1    1    2  503  502  0.49795524631E+02  0.84799203189E+02 -0.20139689465E+02  0.10037980986E+03  0.00000000000E+00 0. -1.
          2    1    1    2  501    0 -0.87207235036E+00  0.11171540703E+03  0.17825646288E+04  0.17860620786E+04  0.00000000000E+00 0.  1.
<mgrwt>
<rscale>  4 0.17213868E+03</rscale>
<asrwt>0</asrwt>
<pdfrwt beam="1">  1       21 0.12729204E-01 0.17213868E+03</pdfrwt>
<pdfrwt beam="2">  1        2 0.38575610E+00 0.17213868E+03</pdfrwt>
<totfact> 0.27807561E+03</totfact>
</mgrwt>
</event>
<event>
 5    0  0.1239749E+000  0.2394114E+03  0.7546771E-02  0.1120186E+00
         21   -1    0    0  501  502  0.00000000000E+00  0.00000000000E+00  0.12030635961E+04  0.12030635961E+04  0.00000000000E+00 0. -1.
          2   -1    0    0  503    0 -0.00000000000E+00 -0.00000000000E+00 -0.54448418726E+03  0.54448418726E+03  0.00000000000E+00 0.  1.
         25    1    1    2    0    0 -0.14411306016E+03 -0.15771295185E+03  0.10195639730E+04  0.10491795101E+04  0.12500000000E+03 0.  0.
         21    1    1    2  503  502  0.10508514064E+03  0.14062146992E+03  0.12182733516E+03  0.21368009776E+03  0.00000000000E+00 0. -1.
          2    1    1    2  501    0  0.39027919522E+02  0.17091481929E+02 -0.48281189939E+03  0.48468817548E+03  0.00000000000E+00 0.  1.
<mgrwt>
<rscale>  4 0.23941141E+03</rscale>
<asrwt>0</asrwt>
<pdfrwt beam="1">  1       21 0.18508671E+00 0.23941141E+03</pdfrwt>
<pdfrwt beam="2">  1        2 0.83766798E-01 0.23941141E+03</pdfrwt>
<totfact> 0.11448771E+02</totfact>
</mgrwt>
</event>
<event>
 5    0  0.1239749E+000  0.3850236E+03  0.7546771E-02  0.1049092E+00
         21   -1    0    0  501  502  0.00000000000E+00  0.00000000000E+00  0.55123183547E+03  0.55123183547E+03  0.00000000000E+00 0.  1.
          2   -1    0    0  503    0 -0.00000000000E+00 -0.00000000000E+00 -0.88073899700E+03  0.88073899700E+03  0.00000000000E+00 0.  1.
         25    1    1    2    0    0 -0.23409550185E+03 -0.28129474792E+03  0.35673385672E+03  0.52612877105E+03  0.12500000000E+03 0.  0.
         21    1    1    2  503  502  0.14552668184E+03  0.33955037818E+03 -0.22493918131E+03  0.43251602253E+03  0.00000000000E+00 0.  1.
          2    1    1    2  501    0  0.88568820003E+02 -0.58255630259E+02 -0.46130183694E+03  0.47332603889E+03  0.00000000000E+00 0.  1.
<mgrwt>
<rscale>  4 0.38502360E+03</rscale>
<asrwt>0</asrwt>
<pdfrwt beam="1">  1       21 0.84804898E-01 0.38502360E+03</pdfrwt>
<pdfrwt beam="2">  1        2 0.13549831E+00 0.38502360E+03</pdfrwt>
<totfact> 0.43528861E+02</totfact>
</mgrwt>
</event>
<event>
 5    0  0.1239749E+000  0.2316971E+03  0.7546771E-02  0.1125451E+00
          1   -1    0    0  503    0 -0.00000000000E+00  0.00000000000E+00  0.24675846814E+03  0.24675846814E+03  0.00000000000E+00 0.  1.
         21   -1    0    0  501  502  0.00000000000E+00 -0.00000000000E+00 -0.80454139698E+03  0.80454139698E+03  0.00000000000E+00 0.  1.
         25    1    1    2    0    0 -0.10086739394E+03  0.20516938232E+03 -0.33054474036E+03  0.42089610593E+03  0.12500000000E+03 0.  0.
         21    1    1    2  503  502  0.11278272439E+03 -0.11395865809E+02 -0.37157921501E+03  0.38848542019E+03  0.00000000000E+00 0.  1.
          1    1    1    2  501    0 -0.11915330452E+02 -0.19377351651E+03  0.14434102653E+03  0.24191833900E+03  0.00000000000E+00 0.  1.
<mgrwt>
<rscale>  4 0.23169714E+03</rscale>
<asrwt>0</asrwt>
<pdfrwt beam="1">  1       21 0.12377560E+00 0.23169714E+03</pdfrwt>
<pdfrwt beam="2">  1        1 0.37962841E-01 0.23169714E+03</pdfrwt>
<totfact> 0.58486755E+02</totfact>
</mgrwt>
</event>
<event>
 5    0  0.1239749E+000  0.2374895E+03  0.7546771E-02  0.1121477E+00
         21   -1    0    0  501  502  0.00000000000E+00  0.00000000000E+00  0.55816022320E+03  0.55816022320E+03  0.00000000000E+00 0.  1.
          2   -1    0    0  503    0 -0.00000000000E+00 -0.00000000000E+00 -0.66737160859E+03  0.66737160859E+03  0.00000000000E+00 0. -1.
         25    1    1    2    0    0  0.30508569548E+02  0.22358401307E+03  0.39352255567E+03  0.47053754955E+03  0.12500000000E+03 0.  0.
         21    1    1    2  503  502  0.25588331932E+01 -0.16814350230E+03  0.67436836277E+02  0.18118088167E+03  0.00000000000E+00 0.  1.
          2    1    1    2  501    0 -0.33067402741E+02 -0.55440510767E+02 -0.57017077733E+03  0.57381340057E+03  0.00000000000E+00 0. -1.
<mgrwt>
<rscale>  4 0.23748952E+03</rscale>
<asrwt>0</asrwt>
<pdfrwt beam="1">  1       21 0.85870804E-01 0.23748952E+03</pdfrwt>
<pdfrwt beam="2">  1        2 0.10267255E+00 0.23748952E+03</pdfrwt>
<totfact> 0.63890917E+02</totfact>
</mgrwt>
</event>
<event>
 5    0  0.1239749E+000  0.2942034E+03  0.7546771E-02  0.1088175E+00
         21   -1    0    0  501  502  0.00000000000E+00  0.00000000000E+00  0.10220980335E+03  0.10220980335E+03  0.00000000000E+00 0. -1.
          2   -1    0    0  503    0 -0.00000000000E+00 -0.00000000000E+00 -0.19689231981E+04  0.19689231981E+04  0.00000000000E+00 0. -1.
         25    1    1    2    0    0  0.25533551451E+03 -0.88566609701E+02 -0.25847253215E+03  0.39430105148E+03  0.12500000000E+03 0.  0.
         21    1    1    2  503  502 -0.18078836011E+03  0.22351464953E+03 -0.71927275027E+03  0.77459442225E+03  0.00000000000E+00 0. -1.
          2    1    1    2  501    0 -0.74547154398E+02 -0.13494803982E+03 -0.88896811233E+03  0.90223752771E+03  0.00000000000E+00 0. -1.
<mgrwt>
<rscale>  4 0.29420335E+03</rscale>
<asrwt>0</asrwt>
<pdfrwt beam="1">  1       21 0.15724585E-01 0.29420335E+03</pdfrwt>
<pdfrwt beam="2">  1        2 0.30291127E+00 0.29420335E+03</pdfrwt>
<totfact> 0.34379272E+03</totfact>
</mgrwt>
</event>
<event>
 5    0  0.1239749E+000  0.2303085E+03  0.7546771E-02  0.1126423E+00
          2   -1    0    0  503    0 -0.00000000000E+00  0.00000000000E+00  0.14747164228E+04  0.14747164228E+04  0.00000000000E+00 0. -1.
         21   -1    0    0  501  502  0.00000000000E+00 -0.00000000000E+00 -0.62658118920E+02  0.62658118920E+02  0.00000000000E+00 0. -1.
         25    1    1    2    0    0 -0.21515044885E+03  0.16949741381E+02  0.27752693255E+03  0.37312626236E+03  0.12500000000E+03 0.  0.
         21    1    1    2  503  502  0.80242679118E+02 -0.59525334725E+02  0.26353677880E+03  0.28184000214E+03  0.00000000000E+00 0. -1.
          2    1    1    2  501    0  0.13490776973E+03  0.42575593344E+02  0.87099459252E+03  0.88240827720E+03  0.00000000000E+00 0. -1.
<mgrwt>
<rscale>  4 0.23030849E+03</rscale>
<asrwt>0</asrwt>
<pdfrwt beam="1">  1       21 0.96397117E-02 0.23030849E+03</pdfrwt>
<pdfrwt beam="2">  1        2 0.22687942E+00 0.23030849E+03</pdfrwt>
<totfact> 0.15492329E+04</totfact>
</mgrwt>
</event>
<event>
 5    0  0.1239749E+000  0.2336590E+03  0.7546771E-02  0.1124091E+00
          1   -1    0    0  503    0 -0.00000000000E+00  0.00000000000E+00  0.13415216938E+04  0.13415216938E+04  0.00000000000E+00 0. -1.
         21   -1    0    0  501  502  0.00000000000E+00 -0.00000000000E+00 -0.85314325579E+02  0.85314325579E+02  0.00000000000E+00 0.  1.
         25    1    1    2    0    0  0.17318775495E+03 -0.11213172391E+03  0.16116750900E+03  0.29011633516E+03  0.12500000000E+03 0.  0.
         21    1    1    2  503  502  0.10896190584E+02  0.42702017801E+02  0.29182339922E+02  0.52856392772E+02  0.00000000000E+00 0.  1.
          1    1    1    2  501    0 -0.18408394553E+03  0.69429706105E+02  0.10658575193E+04  0.10838632914E+04  0.00000000000E+00 0. -1.
<mgrwt>
<rscale>  4 0.23365902E+03</rscale>
<asrwt>0</asrwt>
<pdfrwt beam="1">  1       21 0.13125282E-01 0.23365902E+03</pdfrwt>
<pdfrwt beam="2">  1        1 0.20638794E+00 0.23365902E+03</pdfrwt>
<totfact> 0.50922426E+03</totfact>
</mgrwt>
</event>
<event>
 5    0  0.1239749E+000  0.2268360E+03  0.7546771E-02  0.1128887E+00
         21   -1    0    0  501  502  0.00000000000E+00  0.00000000000E+00  0.40221453037E+03  0.40221453037E+03  0.00000000000E+00 0. -1.
          2   -1    0    0  503    0 -0.00000000000E+00 -0.00000000000E+00 -0.10447984103E+04  0.10447984103E+04  0.00000000000E+00 0.  1.
         25    1    1    2    0    0  0.16074956041E+03  0.12533404904E+03  0.14000493024E+03  0.27708378789E+03  0.12500000000E+03 0.  0.
         21    1    1    2  503  502 -0.17674982693E+03 -0.54396283424E+02  0.14777901980E+03  0.23672366942E+03  0.00000000000E+00 0. -1.
          2    1    1    2  501    0  0.16000266525E+02 -0.70937765617E+02 -0.93036782998E+03  0.93320548337E+03  0.00000000000E+00 0.  1.
<mgrwt>
<rscale>  4 0.22683601E+03</rscale>
<asrwt>0</asrwt>
<pdfrwt beam="1">  1       21 0.61879159E-01 0.22683601E+03</pdfrwt>
<pdfrwt beam="2">  1        2 0.16073822E+00 0.22683601E+03</pdfrwt>
<totfact> 0.74542793E+02</totfact>
</mgrwt>
</event>
<event>
 5    0  0.1239749E+000  0.2767819E+03  0.7546771E-02  0.1097460E+00
         -2   -1    0    0    0  501 -0.00000000000E+00  0.00000000000E+00  0.18683980828E+04  0.18683980828E+04  0.00000000000E+00 0. -1.
         21   -1    0    0  503  502  0.00000000000E+00 -0.00000000000E+00 -0.40497646553E+03  0.40497646553E+03  0.00000000000E+00 0.  1.
         25    1    1    2    0    0 -0.22386532472E+03  0.95684655450E+02 -0.26704433409E+03  0.38237274128E+03  0.12500000000E+03 0.  0.
         21    1    1    2  503  501  0.15955040086E+03 -0.28223412580E+03  0.28360897960E+03  0.43075107137E+03  0.00000000000E+00 0. -1.
         -2    1    1    2    0  502  0.64314923861E+02  0.18654947035E+03  0.14468569718E+04  0.14602507357E+04  0.00000000000E+00 0. -1.
<mgrwt>
<rscale>  4 0.27678194E+03</rscale>
<asrwt>0</asrwt>
<pdfrwt beam="1">  1       21 0.62304073E-01 0.27678194E+03</pdfrwt>
<pdfrwt beam="2">  1       -2 0.28744585E+00 0.27678194E+03</pdfrwt>
<totfact> 0.81609127E+00</totfact>
</mgrwt>
</event>
<event>
 5    0  0.1239749E+000  0.2513277E+03  0.7546771E-02  0.1112469E+00
         21   -1    0    0  501  502  0.00000000000E+00  0.00000000000E+00  0.35828346120E+03  0.35828346120E+03  0.00000000000E+00 0. -1.
          1   -1    0    0  503    0 -0.00000000000E+00 -0.00000000000E+00 -0.59917339688E+03  0.59917339688E+03  0.00000000000E+00 0.  1.
         25    1    1    2    0    0  0.34089533065E+02 -0.22186486043E+03  0.24384422038E+03  0.35421902316E+03  0.12500000000E+03 0.  0.
         21    1    1    2  503  502 -0.62015275925E+02  0.19016502184E+03 -0.11424682555E+03  0.23034966275E+03  0.00000000000E+00 0. -1.
          1    1    1    2  501    0  0.27925742860E+02  0.31699838592E+02 -0.37048733051E+03  0.37288817217E+03  0.00000000000E+00 0.  1.
<mgrwt>
<rscale>  4 0.25132774E+03</rscale>
<asrwt>0</asrwt>
<pdfrwt beam="1">  1       21 0.55120533E-01 0.25132774E+03</pdfrwt>
<pdfrwt beam="2">  1        1 0.92180522E-01 0.25132774E+03</pdfrwt>
<totfact> 0.11818735E+03</totfact>
</mgrwt>
</event>
<event>
 5    0  0.1239749E+000  0.3324631E+03  0.7546771E-02  0.1070052E+00
          2   -1    0    0  503    0 -0.00000000000E+00  0.00000000000E+00  0.32702799427E+04  0.32702799427E+04  0.00000000000E+00 0.  1.
         21   -1    0    0  501  502  0.00000000000E+00 -0.00000000000E+00 -0.31350800375E+03  0.31350800375E+03  0.00000000000E+00 0.  1.
         25    1    1    2    0    0 -0.21311243927E+03 -0.19972437281E+03 -0.12604281263E+03  0.34178725471E+03  0.12500000000E+03 0.  0.
         21    1    1    2  503  502  0.28180545272E+03  0.24570449076E+03  0.36358927415E+03  0.52151909863E+03  0.00000000000E+00 0.  1.
          2    1    1    2  501    0 -0.68693013449E+02 -0.45980117955E+02  0.27192254774E+04  0.27204815931E+04  0.00000000000E+00 0.  1.
<mgrwt>
<rscale>  4 0.33246306E+03</rscale>
<asrwt>0</asrwt>
<pdfrwt beam="1">  1       21 0.48232003E-01 0.33246306E+03</pdfrwt>
<pdfrwt beam="2">  1        2 0.50311997E+00 0.33246306E+03</pdfrwt>
<totfact> 0.68798895E+01</totfact>
</mgrwt>
</event>
<event>
 5    0  0.1239749E+000  0.2715324E+03  0.7546771E-02  0.1100406E+00
          2   -1    0    0  503    0 -0.00000000000E+00  0.00000000000E+00  0.55561498791E+03  0.55561498791E+03  0.00000000000E+00 0.  1.
         21   -1    0    0  501  502  0.00000000000E+00 -0.00000000000E+00 -0.10516718020E+04  0.10516718020E+04  0.00000000000E+00 0. -1.
         25    1    1    2    0    0  0.13410787566E+03  0.20640676316E+03 -0.91303753809E+03  0.95386121640E+03  0.12500000000E+03 0.  0.
         21    1    1    2  503  502 -0.19435931399E+03 -0.12264003660E+03  0.62187915272E+01  0.22990170700E+03  0.00000000000E+00 0. -1.
          2    1    1    2  501    0  0.60251438335E+02 -0.83766726561E+02  0.41076193250E+03  0.42352386649E+03  0.00000000000E+00 0.  1.
<mgrwt>
<rscale>  4 0.27153237E+03</rscale>
<asrwt>0</asrwt>
<pdfrwt beam="1">  1       21 0.16179566E+00 0.27153237E+03</pdfrwt>
<pdfrwt beam="2">  1        2 0.85479230E-01 0.27153237E+03</pdfrwt>
<totfact> 0.15970724E+02</totfact>
</mgrwt>
</event>
<event>
 5    0  0.1239749E+000  0.2709806E+03  0.7546771E-02  0.1100720E+00
          1   -1    0    0  503    0 -0.00000000000E+00  0.00000000000E+00  0.11448943109E+04  0.11448943109E+04  0.00000000000E+00 0. -1.
         21   -1    0    0  501  502  0.00000000000E+00 -0.00000000000E+00 -0.10600510990E+04  0.10600510990E+04  0.00000000000E+00 0. -1.
         25    1    1    2    0    0 -0.29333054279E+03  0.11074427578E+03 -0.18853603481E+03  0.38662376850E+03  0.12500000000E+03 0.  0.
         21    1    1    2  503  502  0.22018718677E+03 -0.59784653502E+02 -0.75365076567E+03  0.78743004681E+03  0.00000000000E+00 0. -1.
          1    1    1    2  501    0  0.73143356018E+02 -0.50959622282E+02  0.10270300123E+04  0.10308915946E+04  0.00000000000E+00 0. -1.
<mgrwt>
<rscale>  4 0.27098061E+03</rscale>
<asrwt>0</asrwt>
<pdfrwt beam="1">  1       21 0.16308478E+00 0.27098061E+03</pdfrwt>
<pdfrwt beam="2">  1        1 0.17613759E+00 0.27098061E+03</pdfrwt>
<totfact> 0.31371846E+01</totfact>
</mgrwt>
</event>
<event>
 5    0  0.1239749E+000  0.2183456E+03  0.7546771E-02  0.1135122E+00
         21   -1    0    0  501  502  0.00000000000E+00  0.00000000000E+00  0.83649094165E+03  0.83649094165E+03  0.00000000000E+00 0. -1.
          2   -1    0    0  503    0 -0.00000000000E+00 -0.00000000000E+00 -0.79530460428E+03  0.79530460428E+03  0.00000000000E+00 0. -1.
         25    1    1    2    0    0 -0.15294945008E+03  0.14356934716E+03  0.21879510315E+03  0.32787495923E+03  0.12500000000E+03 0.  0.
         21    1    1    2  503  502  0.16443553212E+03 -0.59006491419E+02  0.54704252555E+03  0.57426155627E+03  0.00000000000E+00 0. -1.
          2    1    1    2  501    0 -0.11486082038E+02 -0.84562855744E+02 -0.72465129134E+03  0.72965903043E+03  0.00000000000E+00 0. -1.
<mgrwt>
<rscale>  4 0.21834563E+03</rscale>
<asrwt>0</asrwt>
<pdfrwt beam="1">  1       21 0.12869091E+00 0.21834563E+03</pdfrwt>
<pdfrwt beam="2">  1        2 0.12235455E+00 0.21834563E+03</pdfrwt>
<totfact> 0.19646320E+02</totfact>
</mgrwt>
</event>
<event>
 5    0  0.1239749E+000  0.2447831E+03  0.7546771E-02  0.1116647E+00
         21   -1    0    0  503  502  0.00000000000E+00  0.00000000000E+00  0.24492910977E+03  0.24492910977E+03  0.00000000000E+00 0. -1.
         -4   -1    0    0    0  501 -0.00000000000E+00 -0.00000000000E+00 -0.61923028682E+03  0.61923028682E+03  0.00000000000E+00 0. -1.
         25    1    1    2    0    0  0.20538531765E+03  0.54531998474E+01  0.78911868408E+02  0.25311054713E+03  0.12500000000E+03 0.  0.
         21    1    1    2  503  501 -0.21847100724E+03 -0.23418913194E+02 -0.74980689811E+02  0.23216401604E+03  0.00000000000E+00 0. -1.
         -4    1    1    2    0  502  0.13085689593E+02  0.17965713347E+02 -0.37823235565E+03  0.37888483341E+03  0.00000000000E+00 0. -1.
<mgrwt>
<rscale>  4 0.24478312E+03</rscale>
<asrwt>0</asrwt>
<pdfrwt beam="1">  1       21 0.37681402E-01 0.24478312E+03</pdfrwt>
<pdfrwt beam="2">  1       -4 0.95266198E-01 0.24478312E+03</pdfrwt>
<totfact> 0.27152655E+02</totfact>
</mgrwt>
</event>
<event>
 5    0  0.1239749E+000  0.3685510E+03  0.7546771E-02  0.1055248E+00
         21   -1    0    0  501  502  0.00000000000E+00  0.00000000000E+00  0.91351839226E+02  0.91351839226E+02  0.00000000000E+00 0.  1.
          2   -1    0    0  503    0 -0.00000000000E+00 -0.00000000000E+00 -0.24966113792E+04  0.24966113792E+04  0.00000000000E+00 0. -1.
         25    1    1    2    0    0  0.35210519370E+03  0.93715039140E+02 -0.10504474796E+04  0.11188500719E+04  0.12500000000E+03 0.  0.
         21    1    1    2  503  502 -0.33074225018E+03 -0.72589762630E+02 -0.44685687607E+03  0.56066101825E+03  0.00000000000E+00 0.  1.
          2    1    1    2  501    0 -0.21362943517E+02 -0.21125276510E+02 -0.90795518427E+03  0.90845212824E+03  0.00000000000E+00 0. -1.
<mgrwt>
<rscale>  4 0.36855103E+03</rscale>
<asrwt>0</asrwt>
<pdfrwt beam="1">  1       21 0.14054130E-01 0.36855103E+03</pdfrwt>
<pdfrwt beam="2">  1        2 0.38409402E+00 0.36855103E+03</pdfrwt>
<totfact> 0.21403339E+03</totfact>
</mgrwt>
</event>
<event>
 5    0  0.1239749E+000  0.2955463E+03  0.7546771E-02  0.1087488E+00
          2   -1    0    0  503    0 -0.00000000000E+00  0.00000000000E+00  0.92468288298E+03  0.92468288298E+03  0.00000000000E+00 0.  1.
         21   -1    0    0  501  502  0.00000000000E+00 -0.00000000000E+00 -0.22650770640E+03  0.22650770640E+03  0.00000000000E+00 0.  1.
         25    1    1    2    0    0 -0.63996738467E+02  0.22528246661E+03  0.64246497076E+03  0.69515035133E+03  0.12500000000E+03 0.  0.
         21    1    1    2  503  502  0.12677389903E+03 -0.24211105554E+03 -0.97061704769E+02  0.29001786018E+03  0.00000000000E+00 0.  1.
          2    1    1    2  501    0 -0.62777160558E+02  0.16828588934E+02  0.15277191059E+03  0.16602237788E+03  0.00000000000E+00 0.  1.
<mgrwt>
<rscale>  4 0.29554626E+03</rscale>
<asrwt>0</asrwt>
<pdfrwt beam="1">  1       21 0.34847340E-01 0.29554626E+03</pdfrwt>
<pdfrwt beam="2">  1        2 0.14225890E+00 0.29554626E+03</pdfrwt>
<totfact> 0.28386641E+03</totfact>
</mgrwt>
</event>
<event>
 5    0  0.1239749E+000  0.3538755E+03  0.7546771E-02  0.1061036E+00
          2   -1    0    0  503    0 -0.00000000000E+00  0.00000000000E+00  0.38513536270E+03  0.38513536270E+03  0.00000000000E+00 0. -1.
         21   -1    0    0  501  502  0.00000000000E+00 -0.00000000000E+00 -0.11629866408E+04  0.11629866408E+04  0.00000000000E+00 0.  1.
         25    1    1    2    0    0 -0.20868126677E+03  0.21550600664E+03 -0.88783064674E+02  0.33689485388E+03  0.12500000000E+03 0.  0.
         21    1    1    2  503  502  0.25655354715E+03 -0.22142706130E+03 -0.91732780796E+03  0.97792636394E+03  0.00000000000E+00 0.  1.
          2    1    1    2  501    0 -0.47872280376E+02  0.59210546648E+01  0.22825959452E+03  0.23330078570E+03  0.00000000000E+00 0. -1.
<mgrwt>
<rscale>  4 0.35387550E+03</rscale>
<asrwt>0</asrwt>
<pdfrwt beam="1">  1       21 0.17892102E+00 0.35387550E+03</pdfrwt>
<pdfrwt beam="2">  1        2 0.59251595E-01 0.35387550E+03</pdfrwt>
<totfact> 0.17375223E+02</totfact>
</mgrwt>
</event>
<event>
 5    0  0.1239749E+000  0.2470906E+03  0.7546771E-02  0.1115157E+00
         21   -1    0    0  503  502  0.00000000000E+00  0.00000000000E+00  0.27547343121E+03  0.27547343121E+03  0.00000000000E+00 0.  1.
         -4   -1    0    0    0  501 -0.00000000000E+00 -0.00000000000E+00 -0.24947500594E+04  0.24947500594E+04  0.00000000000E+00 0. -1.
         25    1    1    2    0    0 -0.27831389142E+03  0.16038189463E+02 -0.59084188220E+03  0.66515785753E+03  0.12500000000E+03 0.  0.
         21    1    1    2  503  501  0.20701895217E+03 -0.23910064983E+02  0.19191587781E+03  0.28330238602E+03  0.00000000000E+00 0.  1.
         -4    1    1    2    0  502  0.71294939247E+02  0.78718755195E+01 -0.18203506238E+04  0.18217632471E+04  0.00000000000E+00 0. -1.
<mgrwt>
<rscale>  4 0.24709065E+03</rscale>
<asrwt>0</asrwt>
<pdfrwt beam="1">  1       21 0.42380530E-01 0.24709065E+03</pdfrwt>
<pdfrwt beam="2">  1       -4 0.38380768E+00 0.24709065E+03</pdfrwt>
<totfact> 0.24511767E+00</totfact>
</mgrwt>
</event>
<event>
 5    0  0.1239749E+000  0.2450756E+03  0.7546771E-02  0.1116457E+00
         21   -1    0    0  503  502  0.00000000000E+00  0.00000000000E+00  0.40775140095E+03  0.40775140095E+03  0.00000000000E+00 0. -1.
         -4   -1    0    0    0  501 -0.00000000000E+00 -0.00000000000E+00 -0.42987214864E+03  0.42987214864E+03  0.00000000000E+00 0. -1.
         25    1    1    2    0    0  0.79009120505E+02 -0.19275039557E+03  0.27849507875E+03  0.36956686134E+03  0.12500000000E+03 0.  0.
         21    1    1    2  503  501  0.97657682125E+02  0.21975914985E+02 -0.34565986374E+02  0.10589981648E+03  0.00000000000E+00 0. -1.
         -4    1    1    2    0  502 -0.17666680263E+03  0.17077448059E+03 -0.26604984006E+03  0.36215687177E+03  0.00000000000E+00 0. -1.
<mgrwt>
<rscale>  4 0.24507556E+03</rscale>
<asrwt>0</asrwt>
<pdfrwt beam="1">  1       21 0.62730985E-01 0.24507556E+03</pdfrwt>
<pdfrwt beam="2">  1       -4 0.66134177E-01 0.24507556E+03</pdfrwt>
<totfact> 0.21154850E+02</totfact>
</mgrwt>
</event>
<event>
 5    0  0.1239749E+000  0.4365662E+03  0.7546771E-02  0.1031806E+00
          2   -1    0    0  503    0 -0.00000000000E+00  0.00000000000E+00  0.57776141784E+03  0.57776141784E+03  0.00000000000E+00 0.  1.
         21   -1    0    0  501  502  0.00000000000E+00 -0.00000000000E+00 -0.75536919988E+03  0.75536919988E+03  0.00000000000E+00 0.  1.
         25    1    1    2    0    0 -0.33483035951E+03 -0.17989471718E+03 -0.37830913513E+03  0.55065077921E+03  0.12500000000E+03 0.  0.
         21    1    1    2  503  502 -0.87054276634E+02  0.99370231075E+02 -0.16988136322E+03  0.21520354894E+03  0.00000000000E+00 0. -1.
          2    1    1    2  501    0  0.42188463615E+03  0.80524486102E+02  0.37058271631E+03  0.56727628957E+03  0.00000000000E+00 0.  1.
<mgrwt>
<rscale>  4 0.43656618E+03</rscale>
<asrwt>0</asrwt>
<pdfrwt beam="1">  1       21 0.11621065E+00 0.43656618E+03</pdfrwt>
<pdfrwt beam="2">  1        2 0.88886372E-01 0.43656618E+03</pdfrwt>
<totfact> 0.33867648E+02</totfact>
</mgrwt>
</event>
<event>
 5    0  0.1239749E+000  0.1979909E+03  0.7546771E-02  0.1151445E+00
         -2   -1    0    0    0  501 -0.00000000000E+00  0.00000000000E+00  0.30494374369E+03  0.30494374369E+03  0.00000000000E+00 0. -1.
         21   -1    0    0  503  502  0.00000000000E+00 -0.00000000000E+00 -0.21767899478E+03  0.21767899478E+03  0.00000000000E+00 0. -1.
         25    1    1    2    0    0  0.14379399116E+03 -0.14155085400E+03  0.92386583054E+02  0.25470303667E+03  0.12500000000E+03 0.  0.
         21    1    1    2  503  501 -0.10912906332E+03  0.91622855693E+02 -0.86239162134E+02  0.16655657667E+03  0.00000000000E+00 0. -1.
         -2    1    1    2    0  502 -0.34664927843E+02  0.49927998306E+02  0.81117327990E+02  0.10136312514E+03  0.00000000000E+00 0. -1.
<mgrwt>
<rscale>  4 0.19799093E+03</rscale>
<asrwt>0</asrwt>
<pdfrwt beam="1">  1       21 0.33489076E-01 0.19799093E+03</pdfrwt>
<pdfrwt beam="2">  1       -2 0.46914422E-01 0.19799093E+03</pdfrwt>
<totfact> 0.30305838E+03</totfact>
</mgrwt>
</event>
<event>
 5    0  0.1239749E+000  0.3558259E+03  0.7546771E-02  0.1060249E+00
         21   -1    0    0  501  502  0.00000000000E+00  0.00000000000E+00  0.60437370206E+03  0.60437370206E+03  0.00000000000E+00 0.  1.
          2   -1    0    0  503    0 -0.00000000000E+00 -0.00000000000E+00 -0.60180122669E+03  0.60180122669E+03  0.00000000000E+00 0.  1.
         25    1    1    2    0    0  0.50952305994E+02 -0.32230815877E+03  0.36801815135E+03  0.50748502088E+03  0.12500000000E+03 0.  0.
         21    1    1    2  503  502 -0.37845485036E+02  0.34967512400E+03 -0.20395437911E+02  0.35230802853E+03  0.00000000000E+00 0.  1.
          2    1    1    2  501    0 -0.13106820958E+02 -0.27366965227E+02 -0.34505023807E+03  0.34638187934E+03  0.00000000000E+00 0.  1.
<mgrwt>
<rscale>  4 0.35582587E+03</rscale>
<asrwt>0</asrwt>
<pdfrwt beam="1">  1       21 0.92980570E-01 0.35582587E+03</pdfrwt>
<pdfrwt beam="2">  1        2 0.92584804E-01 0.35582587E+03</pdfrwt>
<totfact> 0.57102053E+02</totfact>
</mgrwt>
</event>
<event>
 5    0  0.1239749E+000  0.4936935E+03  0.7546771E-02  0.1015438E+00
          1   -1    0    0  503    0 -0.00000000000E+00  0.00000000000E+00  0.30707993315E+04  0.30707993315E+04  0.00000000000E+00 0.  1.
         21   -1    0    0  501  502  0.00000000000E+00 -0.00000000000E+00 -0.36370635208E+03  0.36370635208E+03  0.00000000000E+00 0.  1.
         25    1    1    2    0    0 -0.39078632566E+03 -0.27341457055E+03 -0.15612017765E+03  0.51717307507E+03  0.12500000000E+03 0.  0.
         21    1    1    2  503  502  0.40937605578E+03  0.26216387256E+03  0.21702439409E+04  0.22240227999E+04  0.00000000000E+00 0.  1.
          1    1    1    2  501    0 -0.18589730123E+02  0.11250697988E+02  0.69296921618E+03  0.69330980870E+03  0.00000000000E+00 0.  1.
<mgrwt>
<rscale>  4 0.49369346E+03</rscale>
<asrwt>0</asrwt>
<pdfrwt beam="1">  1       21 0.55954825E-01 0.49369346E+03</pdfrwt>
<pdfrwt beam="2">  1        1 0.47243065E+00 0.49369346E+03</pdfrwt>
<totfact> 0.18311454E+01</totfact>
</mgrwt>
</event>
<event>
 5    0  0.1475438E+000  0.2227944E+03  0.7546771E-02  0.1131817E+00
         21   -1    0    0  501  502  0.00000000000E+00  0.00000000000E+00  0.38635566185E+03  0.38635566185E+03  0.00000000000E+00 0. -1.
          2   -1    0    0  503    0 -0.00000000000E+00 -0.00000000000E+00 -0.15585289443E+04  0.15585289443E+04  0.00000000000E+00 0. -1.
         25    1    1    2    0    0 -0.19024508150E+03 -0.88853076819E+02 -0.81330616585E+03  0.84922316248E+03  0.12500000000E+03 0.  0.
         21    1    1    2  503  502  0.16174994365E+03  0.87139520410E+02  0.34518234395E+03  0.39103349072E+03  0.00000000000E+00 0. -1.
          2    1    1    2  501    0  0.28495137847E+02  0.17135564089E+01 -0.70404946058E+03  0.70462795297E+03  0.00000000000E+00 0. -1.
<mgrwt>
<rscale>  4 0.22279441E+03</rscale>
<asrwt>0</asrwt>
<pdfrwt beam="1">  1       21 0.59439333E-01 0.22279441E+03</pdfrwt>
<pdfrwt beam="2">  1        2 0.23977368E+00 0.22279441E+03</pdfrwt>
<totfact> 0.42277165E+02</totfact>
</mgrwt>
</event>
<event>
 5    0  0.1239749E+000  0.2245208E+03  0.7546771E-02  0.1130557E+00
         21   -1    0    0  501  502  0.00000000000E+00  0.00000000000E+00  0.88814036426E+03  0.88814036426E+03  0.00000000000E+00 0.  1.
          2   -1    0    0  503    0 -0.00000000000E+00 -0.00000000000E+00 -0.24466896863E+03  0.24466896863E+03  0.00000000000E+00 0. -1.
         25    1    1    2    0    0  0.18567563466E+03 -0.83438074356E+02  0.62131122525E+03  0.66565005234E+03  0.12500000000E+03 0.  0.
         21    1    1    2  503  502 -0.15298702029E+03  0.61814482412E+02  0.21463806324E+03  0.27073152163E+03  0.00000000000E+00 0.  1.
          2    1    1    2  501    0 -0.32688614372E+02  0.21623591944E+02 -0.19247789286E+03  0.19642775893E+03  0.00000000000E+00 0. -1.
<mgrwt>
<rscale>  4 0.22452079E+03</rscale>
<asrwt>0</asrwt>
<pdfrwt beam="1">  1       21 0.13663698E+00 0.22452079E+03</pdfrwt>
<pdfrwt beam="2">  1        2 0.37641380E-01 0.22452079E+03</pdfrwt>
<totfact> 0.63117453E+02</totfact>
</mgrwt>
</event>
<event>
 5    0  0.1239749E+000  0.2766293E+03  0.7546771E-02  0.1097544E+00
          1   -1    0    0  503    0 -0.00000000000E+00  0.00000000000E+00  0.14103677529E+04  0.14103677529E+04  0.00000000000E+00 0. -1.
         21   -1    0    0  501  502  0.00000000000E+00 -0.00000000000E+00 -0.43863518401E+03  0.43863518401E+03  0.00000000000E+00 0.  1.
         25    1    1    2    0    0 -0.20018177840E+03 -0.14332437167E+03 -0.36820069041E+03  0.46022969084E+03  0.12500000000E+03 0.  0.
         21    1    1    2  503  502  0.21806825488E+03  0.13376465557E+03  0.64985349529E+03  0.69839552706E+03  0.00000000000E+00 0.  1.
          1    1    1    2  501    0 -0.17886476485E+02  0.95597161033E+01  0.69007976402E+03  0.69037771902E+03  0.00000000000E+00 0. -1.
<mgrwt>
<rscale>  4 0.27662931E+03</rscale>
<asrwt>0</asrwt>
<pdfrwt beam="1">  1       21 0.67482337E-01 0.27662931E+03</pdfrwt>
<pdfrwt beam="2">  1        1 0.21697965E+00 0.27662931E+03</pdfrwt>
<totfact> 0.17634403E+02</totfact>
</mgrwt>
</event>
<event>
 5    0  0.1239749E+000  0.3575751E+03  0.7546771E-02  0.1059548E+00
         21   -1    0    0  501  502  0.00000000000E+00  0.00000000000E+00  0.25437484977E+03  0.25437484977E+03  0.00000000000E+00 0. -1.
          2   -1    0    0  503    0 -0.00000000000E+00 -0.00000000000E+00 -0.20852218363E+04  0.20852218363E+04  0.00000000000E+00 0.  1.
         25    1    1    2    0    0 -0.27614356055E+03  0.89458554403E+01 -0.67516223314E+03  0.74013805159E+03  0.12500000000E+03 0.  0.
         21    1    1    2  503  502  0.33784990308E+03  0.84608763645E+02  0.81104592039E+02  0.35760195014E+03  0.00000000000E+00 0. -1.
          2    1    1    2  501    0 -0.61706342530E+02 -0.93554619086E+02 -0.12367893454E+04  0.12418566843E+04  0.00000000000E+00 0.  1.
<mgrwt>
<rscale>  4 0.35757513E+03</rscale>
<asrwt>0</asrwt>
<pdfrwt beam="1">  1       21 0.39134591E-01 0.35757513E+03</pdfrwt>
<pdfrwt beam="2">  1        2 0.32080337E+00 0.35757513E+03</pdfrwt>
<totfact> 0.49792412E+02</totfact>
</mgrwt>
</event>
<event>
 5    0  0.1239749E+000  0.2745896E+03  0.7546771E-02  0.1098681E+00
          2   -1    0    0  503    0 -0.00000000000E+00  0.00000000000E+00  0.99395934720E+03  0.99395934720E+03  0.00000000000E+00 0. -1.
         21   -1    0    0  501  502  0.00000000000E+00 -0.00000000000E+00 -0.48416879824E+03  0.48416879824E+03  0.00000000000E+00 0. -1.
         25    1    1    2    0    0  0.46627274832E+02  0.24269848810E+03 -0.33144124455E+03  0.43192008227E+03  0.12500000000E+03 0.  0.
         21    1    1    2  503  502 -0.10387190374E+03 -0.21923454263E+03  0.43969699454E+02  0.24654916657E+03  0.00000000000E+00 0. -1.
          2    1    1    2  501    0  0.57244628911E+02 -0.23463945473E+02  0.79726209405E+03  0.79965889659E+03  0.00000000000E+00 0. -1.
<mgrwt>
<rscale>  4 0.27458957E+03</rscale>
<asrwt>0</asrwt>
<pdfrwt beam="1">  1       21 0.74487507E-01 0.27458957E+03</pdfrwt>
<pdfrwt beam="2">  1        2 0.15291682E+00 0.27458957E+03</pdfrwt>
<totfact> 0.51841220E+02</totfact>
</mgrwt>
</event>
<event>
 5    0  0.1239749E+000  0.2436001E+03  0.7546771E-02  0.1117418E+00
         21   -1    0    0  501  502  0.00000000000E+00  0.00000000000E+00  0.70821512975E+02  0.70821512975E+02  0.00000000000E+00 0. -1.
          2   -1    0    0  503    0 -0.00000000000E+00 -0.00000000000E+00 -0.21345253126E+04  0.21345253126E+04  0.00000000000E+00 0. -1.
         25    1    1    2    0    0 -0.93655865906E+02  0.20521196552E+03 -0.29497698711E+03  0.39181602180E+03  0.12500000000E+03 0.  0.
         21    1    1    2  503  502  0.83504791352E+02 -0.17027154336E+03 -0.38352745664E+03  0.42785366500E+03  0.00000000000E+00 0. -1.
          2    1    1    2  501    0  0.10151074554E+02 -0.34940422159E+02 -0.13851993559E+04  0.13856771388E+04  0.00000000000E+00 0. -1.
<mgrwt>
<rscale>  4 0.24360012E+03</rscale>
<asrwt>0</asrwt>
<pdfrwt beam="1">  1       21 0.10895617E-01 0.24360012E+03</pdfrwt>
<pdfrwt beam="2">  1        2 0.32838852E+00 0.24360012E+03</pdfrwt>
<totfact> 0.55815426E+03</totfact>
</mgrwt>
</event>
<event>
 5    0  0.1239749E+000  0.2755165E+03  0.7546771E-02  0.1098163E+00
         21   -1    0    0  501  502  0.00000000000E+00  0.00000000000E+00  0.19213531909E+03  0.19213531909E+03  0.00000000000E+00 0. -1.
          2   -1    0    0  503    0 -0.00000000000E+00 -0.00000000000E+00 -0.41262472314E+03  0.41262472314E+03  0.00000000000E+00 0. -1.
         25    1    1    2    0    0 -0.24413283018E+03 -0.53205813567E+02 -0.75697552743E+02  0.28945952543E+03  0.12500000000E+03 0.  0.
         21    1    1    2  503  502  0.23950281839E+03  0.32770245374E+02 -0.92256498852E+02  0.25874070144E+03  0.00000000000E+00 0. -1.
          2    1    1    2  501    0  0.46300117861E+01  0.20435568193E+02 -0.52535352458E+02  0.56559815368E+02  0.00000000000E+00 0. -1.
<mgrwt>
<rscale>  4 0.27551655E+03</rscale>
<asrwt>0</asrwt>
<pdfrwt beam="1">  1       21 0.29559280E-01 0.27551655E+03</pdfrwt>
<pdfrwt beam="2">  1        2 0.63480726E-01 0.27551655E+03</pdfrwt>
<totfact> 0.10378449E+04</totfact>
</mgrwt>
</event>
<event>
 5    0  0.1239749E+000  0.3226416E+03  0.7546771E-02  0.1074440E+00
         21   -1    0    0  501  502  0.00000000000E+00  0.00000000000E+00  0.26102637334E+03  0.26102637334E+03  0.00000000000E+00 0. -1.
          2   -1    0    0  503    0 -0.00000000000E+00 -0.00000000000E+00 -0.14101280636E+04  0.14101280636E+04  0.00000000000E+00 0.  1.
         25    1    1    2    0    0 -0.10095561575E+03  0.30793932631E+03 -0.53597812150E+02  0.35144898706E+03  0.12500000000E+03 0.  0.
         21    1    1    2  503  502  0.41896715960E+02 -0.27346107215E+03 -0.61452204598E+02  0.28339489452E+03  0.00000000000E+00 0. -1.
          2    1    1    2  501    0  0.59058899789E+02 -0.34478254159E+02 -0.10340516736E+04  0.10363105554E+04  0.00000000000E+00 0.  1.
<mgrwt>
<rscale>  4 0.32264158E+03</rscale>
<asrwt>0</asrwt>
<pdfrwt beam="1">  1       21 0.40157904E-01 0.32264158E+03</pdfrwt>
<pdfrwt beam="2">  1        2 0.21694278E+00 0.32264158E+03</pdfrwt>
<totfact> 0.10988324E+03</totfact>
</mgrwt>
</event>
<event>
 5    0  0.1239749E+000  0.3591174E+03  0.7546771E-02  0.1058934E+00
          2   -1    0    0  503    0 -0.00000000000E+00  0.00000000000E+00  0.14112841122E+04  0.14112841122E+04  0.00000000000E+00 0. -1.
         21   -1    0    0  501  502  0.00000000000E+00 -0.00000000000E+00 -0.20762787097E+03  0.20762787097E+03  0.00000000000E+00 0.  1.
         25    1    1    2    0    0 -0.28549617608E+03 -0.15413503098E+03  0.36321878646E+03  0.50281066135E+03  0.12500000000E+03 0.  0.
         21    1    1    2  503  502  0.29558389734E+03  0.17351021561E+03  0.75643044383E+02  0.35099502198E+03  0.00000000000E+00 0.  1.
          2    1    1    2  501    0 -0.10087721265E+02 -0.19375184627E+02  0.76479441040E+03  0.76510629986E+03  0.00000000000E+00 0. -1.
<mgrwt>
<rscale>  4 0.35911738E+03</rscale>
<asrwt>0</asrwt>
<pdfrwt beam="1">  1       21 0.31942750E-01 0.35911738E+03</pdfrwt>
<pdfrwt beam="2">  1        2 0.21712063E+00 0.35911738E+03</pdfrwt>
<totfact> 0.17196814E+03</totfact>
</mgrwt>
</event>
<event>
 5    0  0.1239749E+000  0.4289497E+03  0.7546771E-02  0.1034192E+00
         21   -1    0    0  503  502  0.00000000000E+00  0.00000000000E+00  0.22291833824E+04  0.22291833824E+04  0.00000000000E+00 0. -1.
         -3   -1    0    0    0  501 -0.00000000000E+00 -0.00000000000E+00 -0.14482627431E+03  0.14482627431E+03  0.00000000000E+00 0. -1.
         25    1    1    2    0    0 -0.30692750513E+03  0.27513828465E+03  0.16007520786E+04  0.16576904977E+04  0.12500000000E+03 0.  0.
         21    1    1    2  503  501  0.32076907549E+03 -0.24968114858E+03  0.52612664718E+03  0.66486293671E+03  0.00000000000E+00 0. -1.
         -3    1    1    2    0  502 -0.13841570358E+02 -0.25457136074E+02 -0.42521617656E+02  0.51456222317E+02  0.00000000000E+00 0. -1.
<mgrwt>
<rscale>  4 0.42894968E+03</rscale>
<asrwt>0</asrwt>
<pdfrwt beam="1">  1       21 0.34295126E+00 0.42894968E+03</pdfrwt>
<pdfrwt beam="2">  1       -3 0.22280967E-01 0.42894968E+03</pdfrwt>
<totfact> 0.14814742E+01</totfact>
</mgrwt>
</event>
<event>
 5    0  0.1239749E+000  0.3670356E+03  0.7546771E-02  0.1055832E+00
          2   -1    0    0  503    0 -0.00000000000E+00  0.00000000000E+00  0.70307139059E+03  0.70307139059E+03  0.00000000000E+00 0.  1.
         21   -1    0    0  501  502  0.00000000000E+00 -0.00000000000E+00 -0.42427569884E+03  0.42427569884E+03  0.00000000000E+00 0.  1.
         25    1    1    2    0    0  0.36808622000E+03  0.22388658225E+03 -0.92931741972E+02  0.45812004511E+03  0.12500000000E+03 0.  0.
         21    1    1    2  503  502 -0.92412748465E+02 -0.17361262974E+03  0.33244675625E+03  0.38626714464E+03  0.00000000000E+00 0. -1.
          2    1    1    2  501    0 -0.27567347153E+03 -0.50273952504E+02  0.39280677460E+02  0.28295989968E+03  0.00000000000E+00 0.  1.
<mgrwt>
<rscale>  4 0.36703560E+03</rscale>
<asrwt>0</asrwt>
<pdfrwt beam="1">  1       21 0.65273184E-01 0.36703560E+03</pdfrwt>
<pdfrwt beam="2">  1        2 0.10816483E+00 0.36703560E+03</pdfrwt>
<totfact> 0.10598438E+03</totfact>
</mgrwt>
</event>
<event>
 5    0  0.1239749E+000  0.4449332E+03  0.7546771E-02  0.1029244E+00
          4   -1    0    0  503    0 -0.00000000000E+00  0.00000000000E+00  0.12991725141E+04  0.12991725141E+04  0.00000000000E+00 0.  1.
         21   -1    0    0  501  502  0.00000000000E+00 -0.00000000000E+00 -0.13000408653E+04  0.13000408653E+04  0.00000000000E+00 0. -1.
         25    1    1    2    0    0 -0.23054373143E+03 -0.49164187371E+03 -0.81571919991E+02  0.56315284090E+03  0.12500000000E+03 0.  0.
         21    1    1    2  503  502  0.15394659772E+03  0.37637601495E+03 -0.93047678117E+03  0.10154533470E+04  0.00000000000E+00 0. -1.
          4    1    1    2  501    0  0.76597133711E+02  0.11526585876E+03  0.10111803500E+04  0.10206071915E+04  0.00000000000E+00 0.  1.
<mgrwt>
<rscale>  4 0.44493316E+03</rscale>
<asrwt>0</asrwt>
<pdfrwt beam="1">  1       21 0.20000629E+00 0.44493316E+03</pdfrwt>
<pdfrwt beam="2">  1        4 0.19987270E+00 0.44493316E+03</pdfrwt>
<totfact> 0.69379522E-01</totfact>
</mgrwt>
</event>
<event>
 5    0  0.1239749E+000  0.2677800E+03  0.7546771E-02  0.1102557E+00
          2   -1    0    0  503    0 -0.00000000000E+00  0.00000000000E+00  0.75892136972E+03  0.75892136972E+03  0.00000000000E+00 0.  1.
         21   -1    0    0  501  502  0.00000000000E+00 -0.00000000000E+00 -0.28464430785E+03  0.28464430785E+03  0.00000000000E+00 0. -1.
         25    1    1    2    0    0  0.17808440226E+03  0.17821380822E+03 -0.12952554349E+03  0.30963863161E+03  0.12500000000E+03 0.  0.
         21    1    1    2  503  502 -0.15842884541E+03 -0.13579701609E+03  0.10620239707E+03  0.23413559699E+03  0.00000000000E+00 0. -1.
          2    1    1    2  501    0 -0.19655556854E+02 -0.42416792132E+02  0.49760020830E+03  0.49979144897E+03  0.00000000000E+00 0.  1.
<mgrwt>
<rscale>  4 0.26778003E+03</rscale>
<asrwt>0</asrwt>
<pdfrwt beam="1">  1       21 0.43791432E-01 0.26778003E+03</pdfrwt>
<pdfrwt beam="2">  1        2 0.11675713E+00 0.26778003E+03</pdfrwt>
<totfact> 0.23304112E+03</totfact>
</mgrwt>
</event>
<event>
 5    0  0.1239749E+000  0.4168696E+03  0.7546771E-02  0.1038090E+00
         -3   -1    0    0    0  501 -0.00000000000E+00  0.00000000000E+00  0.11946742432E+04  0.11946742432E+04  0.00000000000E+00 0. -1.
         21   -1    0    0  503  502  0.00000000000E+00 -0.00000000000E+00 -0.38988745502E+03  0.38988745502E+03  0.00000000000E+00 0. -1.
         25    1    1    2    0    0 -0.31965220214E+03 -0.22668363198E+03 -0.20499624959E+03  0.45957748170E+03  0.12500000000E+03 0.  0.
         21    1    1    2  503  501 -0.25231088703E+02 -0.48253567909E+02  0.12570565274E+03  0.13699242966E+03  0.00000000000E+00 0.  1.
         -3    1    1    2    0  502  0.34488329084E+03  0.27493719989E+03  0.88407738498E+03  0.98799178682E+03  0.00000000000E+00 0. -1.
<mgrwt>
<rscale>  4 0.41686964E+03</rscale>
<asrwt>0</asrwt>
<pdfrwt beam="1">  1       21 0.59982686E-01 0.41686964E+03</pdfrwt>
<pdfrwt beam="2">  1       -3 0.18379604E+00 0.41686964E+03</pdfrwt>
<totfact> 0.23799520E+01</totfact>
</mgrwt>
</event>
<event>
 5    0  0.1239749E+000  0.2874444E+03  0.7546771E-02  0.1091691E+00
         21   -1    0    0  501  502  0.00000000000E+00  0.00000000000E+00  0.86169540180E+02  0.86169540180E+02  0.00000000000E+00 0.  1.
          2   -1    0    0  503    0 -0.00000000000E+00 -0.00000000000E+00 -0.10477651597E+04  0.10477651597E+04  0.00000000000E+00 0.  1.
         25    1    1    2    0    0 -0.98843389836E+02 -0.23922643889E+03 -0.30501924700E+03  0.41911936942E+03  0.12500000000E+03 0.  0.
         21    1    1    2  503  502  0.12075687909E+03  0.16484902468E+03 -0.45234495546E+03  0.49636013490E+03  0.00000000000E+00 0.  1.
          2    1    1    2  501    0 -0.21913489254E+02  0.74377414208E+02 -0.20423141710E+03  0.21845519560E+03  0.00000000000E+00 0.  1.
<mgrwt>
<rscale>  4 0.28744444E+03</rscale>
<asrwt>0</asrwt>
<pdfrwt beam="1">  1       21 0.13256853E-01 0.28744444E+03</pdfrwt>
<pdfrwt beam="2">  1        2 0.16119464E+00 0.28744444E+03</pdfrwt>
<totfact> 0.15006573E+04</totfact>
</mgrwt>
</event>
<event>
 5    0  0.1239749E+000  0.2562671E+03  0.7546771E-02  0.1109407E+00
          1   -1    0    0  503    0 -0.00000000000E+00  0.00000000000E+00  0.17492844618E+04  0.17492844618E+04  0.00000000000E+00 0.  1.
         21   -1    0    0  501  502  0.00000000000E+00 -0.00000000000E+00 -0.14373019351E+03  0.14373019351E+03  0.00000000000E+00 0.  1.
         25    1    1    2    0    0  0.19465639030E+03 -0.80053640719E+02  0.27074542055E+02  0.24628789354E+03  0.12500000000E+03 0.  0.
         21    1    1    2  503  502 -0.25776423239E+03  0.11675557748E+03  0.57763992002E+03  0.64322790795E+03  0.00000000000E+00 0.  1.
          1    1    1    2  501    0  0.63107842083E+02 -0.36701936756E+02  0.10008398062E+04  0.10034988538E+04  0.00000000000E+00 0.  1.
<mgrwt>
<rscale>  4 0.25626711E+03</rscale>
<asrwt>0</asrwt>
<pdfrwt beam="1">  1       21 0.22112339E-01 0.25626711E+03</pdfrwt>
<pdfrwt beam="2">  1        1 0.26912067E+00 0.25626711E+03</pdfrwt>
<totfact> 0.10328464E+03</totfact>
</mgrwt>
</event>
<event>
 5    0  0.1239749E+000  0.2218966E+03  0.7546771E-02  0.1132477E+00
         21   -1    0    0  501  502  0.00000000000E+00  0.00000000000E+00  0.41052496830E+03  0.41052496830E+03  0.00000000000E+00 0.  1.
          1   -1    0    0  503    0 -0.00000000000E+00 -0.00000000000E+00 -0.21119670450E+03  0.21119670450E+03  0.00000000000E+00 0. -1.
         25    1    1    2    0    0  0.48445695520E+02  0.19964975000E+03  0.19197980376E+03  0.30771456439E+03  0.12500000000E+03 0.  0.
         21    1    1    2  503  502 -0.25319727991E+02 -0.22301688863E+02  0.10496311080E+03  0.11025293003E+03  0.00000000000E+00 0.  1.
          1    1    1    2  501    0 -0.23125967529E+02 -0.17734806113E+03 -0.97614650758E+02  0.20375417837E+03  0.00000000000E+00 0. -1.
<mgrwt>
<rscale>  4 0.22189663E+03</rscale>
<asrwt>0</asrwt>
<pdfrwt beam="1">  1       21 0.63157687E-01 0.22189663E+03</pdfrwt>
<pdfrwt beam="2">  1        1 0.32491801E-01 0.22189663E+03</pdfrwt>
<totfact> 0.34136440E+03</totfact>
</mgrwt>
</event>
<event>
 5    0  0.1239749E+000  0.2472433E+03  0.7546771E-02  0.1115060E+00
         21   -1    0    0  503  502  0.00000000000E+00  0.00000000000E+00  0.14112145316E+04  0.14112145316E+04  0.00000000000E+00 0. -1.
         -1   -1    0    0    0  501 -0.00000000000E+00 -0.00000000000E+00 -0.32301685245E+03  0.32301685245E+03  0.00000000000E+00 0. -1.
         25    1    1    2    0    0  0.28619286213E+02  0.20122798965E+03  0.65570215019E+03  0.69776935812E+03  0.12500000000E+03 0.  0.
         21    1    1    2  503  501 -0.80281660496E+02 -0.20903882981E+03  0.71495966455E+03  0.74920604596E+03  0.00000000000E+00 0. -1.
         -1    1    1    2    0  502  0.51662374284E+02  0.78108401547E+01 -0.28246413558E+03  0.28725597997E+03  0.00000000000E+00 0. -1.
<mgrwt>
<rscale>  4 0.24724326E+03</rscale>
<asrwt>0</asrwt>
<pdfrwt beam="1">  1       21 0.21710992E+00 0.24724326E+03</pdfrwt>
<pdfrwt beam="2">  1       -1 0.49694901E-01 0.24724326E+03</pdfrwt>
<totfact> 0.38346630E+01</totfact>
</mgrwt>
</event>
<event>
 5    0  0.1239749E+000  0.2299877E+03  0.7546771E-02  0.1126648E+00
         21   -1    0    0  501  502  0.00000000000E+00  0.00000000000E+00  0.40488739219E+03  0.40488739219E+03  0.00000000000E+00 0. -1.
          2   -1    0    0  503    0 -0.00000000000E+00 -0.00000000000E+00 -0.38198103103E+03  0.38198103103E+03  0.00000000000E+00 0.  1.
         25    1    1    2    0    0  0.26004363547E+03 -0.22701616850E+02 -0.15256668825E+02  0.28982032658E+03  0.12500000000E+03 0.  0.
         21    1    1    2  503  502 -0.17804828333E+03  0.20759938479E+02  0.22813086223E+03  0.29013075766E+03  0.00000000000E+00 0. -1.
          2    1    1    2  501    0 -0.81995352135E+02  0.19416783706E+01 -0.18996783224E+03  0.20691733898E+03  0.00000000000E+00 0.  1.
<mgrwt>
<rscale>  4 0.22998766E+03</rscale>
<asrwt>0</asrwt>
<pdfrwt beam="1">  1       21 0.62290368E-01 0.22998766E+03</pdfrwt>
<pdfrwt beam="2">  1        2 0.58766312E-01 0.22998766E+03</pdfrwt>
<totfact> 0.24647365E+03</totfact>
</mgrwt>
</event>
<event>
 5    0  0.1239749E+000  0.4806468E+03  0.7546771E-02  0.1018958E+00
          1   -1    0    0  503    0 -0.00000000000E+00  0.00000000000E+00  0.88471198044E+03  0.88471198044E+03  0.00000000000E+00 0. -1.
         21   -1    0    0  501  502  0.00000000000E+00 -0.00000000000E+00 -0.15494027041E+04  0.15494027041E+04  0.00000000000E+00 0. -1.
         25    1    1    2    0    0 -0.46327687532E+03  0.88119720876E+02 -0.13067108469E+04  0.13948149647E+04  0.12500000000E+03 0.  0.
         21    1    1    2  503  502  0.42664659391E+03 -0.27010091656E+02  0.35898797578E+02  0.42900534357E+03  0.00000000000E+00 0. -1.
          1    1    1    2  501    0  0.36630281412E+02 -0.61109629220E+02  0.60612132564E+03  0.61029437626E+03  0.00000000000E+00 0. -1.
<mgrwt>
<rscale>  4 0.48064676E+03</rscale>
<asrwt>0</asrwt>
<pdfrwt beam="1">  1       21 0.23836964E+00 0.48064676E+03</pdfrwt>
<pdfrwt beam="2">  1        1 0.13610954E+00 0.48064676E+03</pdfrwt>
<totfact> 0.13677921E+01</totfact>
</mgrwt>
</event>
<event>
 5    0  0.1239749E+000  0.3661391E+03  0.7546771E-02  0.1056179E+00
          2   -1    0    0  503    0 -0.00000000000E+00  0.00000000000E+00  0.74672195836E+03  0.74672195836E+03  0.00000000000E+00 0. -1.
         21   -1    0    0  501  502  0.00000000000E+00 -0.00000000000E+00 -0.48521627465E+03  0.48521627465E+03  0.00000000000E+00 0. -1.
         25    1    1    2    0    0  0.84176383083E+02 -0.31414979980E+03  0.67051057632E+02  0.35481911520E+03  0.12500000000E+03 0.  0.
         21    1    1    2  503  502 -0.11775581130E+03  0.33239418761E+03 -0.24921246865E+03  0.43180919580E+03  0.00000000000E+00 0. -1.
          2    1    1    2  501    0  0.33579428218E+02 -0.18244387806E+02  0.44366709473E+03  0.44530992201E+03  0.00000000000E+00 0. -1.
<mgrwt>
<rscale>  4 0.36613910E+03</rscale>
<asrwt>0</asrwt>
<pdfrwt beam="1">  1       21 0.74648658E-01 0.36613910E+03</pdfrwt>
<pdfrwt beam="2">  1        2 0.11488030E+00 0.36613910E+03</pdfrwt>
<totfact> 0.72805154E+02</totfact>
</mgrwt>
</event>
<event>
 5    0  0.1239749E+000  0.3274081E+03  0.7546771E-02  0.1072289E+00
          2   -1    0    0  503    0 -0.00000000000E+00  0.00000000000E+00  0.13723993770E+04  0.13723993770E+04  0.00000000000E+00 0. -1.
         21   -1    0    0  501  502  0.00000000000E+00 -0.00000000000E+00 -0.26998746694E+03  0.26998746694E+03  0.00000000000E+00 0.  1.
         25    1    1    2    0    0  0.16884970137E+03  0.45017813014E+03  0.59290852050E+03  0.77352187053E+03  0.12500000000E+03 0.  0.
         21    1    1    2  503  502 -0.11402950180E+02 -0.27401364639E+03 -0.33881747901E+02  0.27633580753E+03  0.00000000000E+00 0.  1.
          2    1    1    2  501    0 -0.15744675119E+03 -0.17616448374E+03  0.54338513743E+03  0.59252916584E+03  0.00000000000E+00 0. -1.
<mgrwt>
<rscale>  4 0.32740812E+03</rscale>
<asrwt>0</asrwt>
<pdfrwt beam="1">  1       21 0.41536534E-01 0.32740812E+03</pdfrwt>
<pdfrwt beam="2">  1        2 0.21113836E+00 0.32740812E+03</pdfrwt>
<totfact> 0.10734735E+03</totfact>
</mgrwt>
</event>
<event>
 5    0  0.1239749E+000  0.2459956E+03  0.7546771E-02  0.1115862E+00
         21   -1    0    0  501  502  0.00000000000E+00  0.00000000000E+00  0.12889150031E+04  0.12889150031E+04  0.00000000000E+00 0.  1.
          1   -1    0    0  503    0 -0.00000000000E+00 -0.00000000000E+00 -0.25096943440E+03  0.25096943440E+03  0.00000000000E+00 0. -1.
         25    1    1    2    0    0  0.17531352212E+03  0.30822567725E+03  0.99928060010E+03  0.10676725232E+04  0.12500000000E+03 0.  0.
         21    1    1    2  503  502 -0.98209389364E+02 -0.11902416204E+03  0.16979729096E+03  0.22944052677E+03  0.00000000000E+00 0. -1.
          1    1    1    2  501    0 -0.77104132758E+02 -0.18920151521E+03 -0.13113232231E+03  0.24277138753E+03  0.00000000000E+00 0. -1.
<mgrwt>
<rscale>  4 0.24599558E+03</rscale>
<asrwt>0</asrwt>
<pdfrwt beam="1">  1       21 0.19829461E+00 0.24599558E+03</pdfrwt>
<pdfrwt beam="2">  1        1 0.38610683E-01 0.24599558E+03</pdfrwt>
<totfact> 0.15814291E+02</totfact>
</mgrwt>
</event>
<event>
 5    0  0.1239749E+000  0.3209251E+03  0.7546771E-02  0.1075224E+00
          2   -1    0    0  503    0 -0.00000000000E+00  0.00000000000E+00  0.38190244535E+03  0.38190244535E+03  0.00000000000E+00 0. -1.
         21   -1    0    0  501  502  0.00000000000E+00 -0.00000000000E+00 -0.27869393246E+03  0.27869393246E+03  0.00000000000E+00 0. -1.
         25    1    1    2    0    0 -0.12221315521E+03  0.26913170939E+03 -0.40893351170E+02  0.32352001248E+03  0.12500000000E+03 0.  0.
         21    1    1    2  503  502  0.10054873184E+03 -0.23595568808E+03  0.93928980071E+02  0.27314426135E+03  0.00000000000E+00 0. -1.
          2    1    1    2  501    0  0.21664423369E+02 -0.33176021313E+02  0.50172883988E+02  0.63932103968E+02  0.00000000000E+00 0. -1.
<mgrwt>
<rscale>  4 0.32092512E+03</rscale>
<asrwt>0</asrwt>
<pdfrwt beam="1">  1       21 0.42875990E-01 0.32092512E+03</pdfrwt>
<pdfrwt beam="2">  1        2 0.58754222E-01 0.32092512E+03</pdfrwt>
<totfact> 0.53020390E+03</totfact>
</mgrwt>
</event>
<event>
 5    0  0.1239749E+000  0.2098152E+03  0.7546771E-02  0.1141712E+00
          2   -1    0    0  503    0 -0.00000000000E+00  0.00000000000E+00  0.60435082897E+03  0.60435082897E+03  0.00000000000E+00 0.  1.
         21   -1    0    0  501  502  0.00000000000E+00 -0.00000000000E+00 -0.19632261462E+03  0.19632261462E+03  0.00000000000E+00 0.  1.
         25    1    1    2    0    0 -0.12585304402E+03  0.19838253464E+03  0.12395659223E+03  0.29357257279E+03  0.12500000000E+03 0.  0.
         21    1    1    2  503  502  0.14661953908E+03 -0.58038984911E+02 -0.31771248554E+02  0.16085777956E+03  0.00000000000E+00 0.  1.
          2    1    1    2  501    0 -0.20766495065E+02 -0.14034354973E+03  0.31584287068E+03  0.34624309123E+03  0.00000000000E+00 0.  1.
<mgrwt>
<rscale>  4 0.20981517E+03</rscale>
<asrwt>0</asrwt>
<pdfrwt beam="1">  1       21 0.30203479E-01 0.20981517E+03</pdfrwt>
<pdfrwt beam="2">  1        2 0.92977050E-01 0.20981517E+03</pdfrwt>
<totfact> 0.65796945E+03</totfact>
</mgrwt>
</event>
<event>
 5    0  0.1239749E+000  0.2764164E+03  0.7546771E-02  0.1097662E+00
          2   -1    0    0  503    0 -0.00000000000E+00  0.00000000000E+00  0.90187328930E+03  0.90187328930E+03  0.00000000000E+00 0. -1.
         21   -1    0    0  501  502  0.00000000000E+00 -0.00000000000E+00 -0.10175304214E+03  0.10175304214E+03  0.00000000000E+00 0. -1.
         25    1    1    2    0    0  0.86404363864E+02  0.22273815533E+03  0.21592097679E+03  0.34543431815E+03  0.12500000000E+03 0.  0.
         21    1    1    2  503  502 -0.94182259902E+02 -0.24135663257E+03  0.42517454549E+03  0.49789227379E+03  0.00000000000E+00 0. -1.
          2    1    1    2  501    0  0.77778960385E+01  0.18618477242E+02  0.15902472489E+03  0.16029973951E+03  0.00000000000E+00 0. -1.
<mgrwt>
<rscale>  4 0.27641642E+03</rscale>
<asrwt>0</asrwt>
<pdfrwt beam="1">  1       21 0.15654315E-01 0.27641642E+03</pdfrwt>
<pdfrwt beam="2">  1        2 0.13874973E+00 0.27641642E+03</pdfrwt>
<totfact> 0.13680798E+04</totfact>
</mgrwt>
</event>
<event>
 5    0  0.1239749E+000  0.3059045E+03  0.7546771E-02  0.1082326E+00
         21   -1    0    0  503  502  0.00000000000E+00  0.00000000000E+00  0.16179712499E+03  0.16179712499E+03  0.00000000000E+00 0. -1.
         -2   -1    0    0    0  501 -0.00000000000E+00 -0.00000000000E+00 -0.14019909160E+04  0.14019909160E+04  0.00000000000E+00 0. -1.
         25    1    1    2    0    0  0.65711982948E+02  0.26915122804E+03 -0.24064487731E+02  0.30490088197E+03  0.12500000000E+03 0.  0.
         21    1    1    2  503  501 -0.94557407182E+02 -0.27918896907E+03 -0.11011994668E+04  0.11399683545E+04  0.00000000000E+00 0. -1.
         -2    1    1    2    0  502  0.28845424234E+02  0.10037741032E+02 -0.11492983655E+03  0.11891880454E+03  0.00000000000E+00 0. -1.
<mgrwt>
<rscale>  4 0.30590450E+03</rscale>
<asrwt>0</asrwt>
<pdfrwt beam="1">  1       21 0.24891866E-01 0.30590450E+03</pdfrwt>
<pdfrwt beam="2">  1       -2 0.21569091E+00 0.30590450E+03</pdfrwt>
<totfact> 0.13961839E+02</totfact>
</mgrwt>
</event>
<event>
 5    0  0.1239749E+000  0.2651542E+03  0.7546771E-02  0.1104085E+00
         21   -1    0    0  501  502  0.00000000000E+00  0.00000000000E+00  0.24633464102E+03  0.24633464102E+03  0.00000000000E+00 0.  1.
          1   -1    0    0  503    0 -0.00000000000E+00 -0.00000000000E+00 -0.16396547976E+04  0.16396547976E+04  0.00000000000E+00 0. -1.
         25    1    1    2    0    0  0.23384836508E+03  0.58943785440E+02  0.14543265757E+03  0.30811537706E+03  0.12500000000E+03 0.  0.
         21    1    1    2  503  502 -0.19467068308E+03  0.23372667431E+02 -0.53162642120E+03  0.56663004523E+03  0.00000000000E+00 0. -1.
          1    1    1    2  501    0 -0.39177682003E+02 -0.82316452871E+02 -0.10071263929E+04  0.10112440163E+04  0.00000000000E+00 0. -1.
<mgrwt>
<rscale>  4 0.26515421E+03</rscale>
<asrwt>0</asrwt>
<pdfrwt beam="1">  1       21 0.37897638E-01 0.26515421E+03</pdfrwt>
<pdfrwt beam="2">  1        1 0.25225458E+00 0.26515421E+03</pdfrwt>
<totfact> 0.42257353E+02</totfact>
</mgrwt>
</event>
<event>
 5    0  0.1239749E+000  0.3508030E+03  0.7546771E-02  0.1062286E+00
         21   -1    0    0  503  502  0.00000000000E+00  0.00000000000E+00  0.11597014077E+04  0.11597014077E+04  0.00000000000E+00 0.  1.
         -4   -1    0    0    0  501 -0.00000000000E+00 -0.00000000000E+00 -0.68790196770E+03  0.68790196770E+03  0.00000000000E+00 0. -1.
         25    1    1    2    0    0  0.28142827028E+03  0.34741195564E+03  0.38500409224E+03  0.60311697811E+03  0.12500000000E+03 0.  0.
         21    1    1    2  503  501 -0.16600701200E+03 -0.24061555263E+03  0.62167294260E+03  0.68697264848E+03  0.00000000000E+00 0.  1.
         -4    1    1    2    0  502 -0.11542125828E+03 -0.10679640301E+03 -0.53487759488E+03  0.55751374877E+03  0.00000000000E+00 0. -1.
<mgrwt>
<rscale>  4 0.35080296E+03</rscale>
<asrwt>0</asrwt>
<pdfrwt beam="1">  1       21 0.17841560E+00 0.35080296E+03</pdfrwt>
<pdfrwt beam="2">  1       -4 0.10583107E+00 0.35080296E+03</pdfrwt>
<totfact> 0.53927079E+00</totfact>
</mgrwt>
</event>
<event>
 5    0  0.1239749E+000  0.2388499E+03  0.7546771E-02  0.1120561E+00
         21   -1    0    0  501  502  0.00000000000E+00  0.00000000000E+00  0.23647324426E+03  0.23647324426E+03  0.00000000000E+00 0. -1.
          1   -1    0    0  503    0 -0.00000000000E+00 -0.00000000000E+00 -0.91360650841E+03  0.91360650841E+03  0.00000000000E+00 0.  1.
         25    1    1    2    0    0  0.18402229569E+03  0.11771787659E+03 -0.62632681537E+02  0.25936375340E+03  0.12500000000E+03 0.  0.
         21    1    1    2  503  502  0.18787296900E+02 -0.94281498163E+02  0.10526398861E+03  0.14255690344E+03  0.00000000000E+00 0. -1.
          1    1    1    2  501    0 -0.20280959259E+03 -0.23436378429E+02 -0.71976457123E+03  0.74815909583E+03  0.00000000000E+00 0.  1.
<mgrwt>
<rscale>  4 0.23884985E+03</rscale>
<asrwt>0</asrwt>
<pdfrwt beam="1">  1       21 0.36380499E-01 0.23884985E+03</pdfrwt>
<pdfrwt beam="2">  1        1 0.14055485E+00 0.23884985E+03</pdfrwt>
<totfact> 0.14891075E+03</totfact>
</mgrwt>
</event>
<event>
 5    0  0.1239749E+000  0.2467075E+03  0.7546771E-02  0.1115403E+00
         21   -1    0    0  501  502  0.00000000000E+00  0.00000000000E+00  0.14012717499E+03  0.14012717499E+03  0.00000000000E+00 0.  1.
          2   -1    0    0  503    0 -0.00000000000E+00 -0.00000000000E+00 -0.20787768936E+04  0.20787768936E+04  0.00000000000E+00 0. -1.
         25    1    1    2    0    0 -0.21870322780E+03 -0.20945795296E+02 -0.10067382804E+03  0.27208463361E+03  0.12500000000E+03 0.  0.
         21    1    1    2  503  502  0.20628789895E+03 -0.22118910763E+02 -0.14469110279E+03  0.25294161123E+03  0.00000000000E+00 0.  1.
          2    1    1    2  501    0  0.12415328853E+02  0.43064706059E+02 -0.16932847878E+04  0.16938778238E+04  0.00000000000E+00 0. -1.
<mgrwt>
<rscale>  4 0.24670752E+03</rscale>
<asrwt>0</asrwt>
<pdfrwt beam="1">  1       21 0.21558029E-01 0.24670752E+03</pdfrwt>
<pdfrwt beam="2">  1        2 0.31981181E+00 0.24670752E+03</pdfrwt>
<totfact> 0.17038593E+03</totfact>
</mgrwt>
</event>
<event>
 5    0  0.1239749E+000  0.2225684E+03  0.7546771E-02  0.1131983E+00
          2   -1    0    0  503    0 -0.00000000000E+00  0.00000000000E+00  0.75730431004E+03  0.75730431004E+03  0.00000000000E+00 0.  1.
         21   -1    0    0  501  502  0.00000000000E+00 -0.00000000000E+00 -0.13636147410E+03  0.13636147410E+03  0.00000000000E+00 0.  1.
         25    1    1    2    0    0 -0.60826761941E+02  0.19920226234E+03  0.28563304422E+02  0.24458597394E+03  0.12500000000E+03 0.  0.
         21    1    1    2  503  502 -0.34423307233E+02 -0.11732062911E+03  0.17699314952E+03  0.21511780278E+03  0.00000000000E+00 0.  1.
          2    1    1    2  501    0  0.95250069175E+02 -0.81881633229E+02  0.41538638200E+03  0.43396200742E+03  0.00000000000E+00 0.  1.
<mgrwt>
<rscale>  4 0.22256838E+03</rscale>
<asrwt>0</asrwt>
<pdfrwt beam="1">  1       21 0.20978689E-01 0.22256838E+03</pdfrwt>
<pdfrwt beam="2">  1        2 0.11650835E+00 0.22256838E+03</pdfrwt>
<totfact> 0.10061707E+04</totfact>
</mgrwt>
</event>
<event>
 5    0  0.1239749E+000  0.2585944E+03  0.7546771E-02  0.1107991E+00
          2   -1    0    0  503    0 -0.00000000000E+00  0.00000000000E+00  0.24889169283E+04  0.24889169283E+04  0.00000000000E+00 0. -1.
         21   -1    0    0  501  502  0.00000000000E+00 -0.00000000000E+00 -0.77107974796E+02  0.77107974796E+02  0.00000000000E+00 0. -1.
         25    1    1    2    0    0 -0.67758132116E+02  0.27006632620E+03  0.96729567035E+03  0.10143041452E+04  0.12500000000E+03 0.  0.
         21    1    1    2  503  502  0.39196349216E+02 -0.21136253018E+03  0.16614980635E+03  0.27169142627E+03  0.00000000000E+00 0. -1.
          2    1    1    2  501    0  0.28561782900E+02 -0.58703796015E+02  0.12783634768E+04  0.12800293317E+04  0.00000000000E+00 0. -1.
<mgrwt>
<rscale>  4 0.25859440E+03</rscale>
<asrwt>0</asrwt>
<pdfrwt beam="1">  1       21 0.11862767E-01 0.25859440E+03</pdfrwt>
<pdfrwt beam="2">  1        2 0.38291024E+00 0.25859440E+03</pdfrwt>
<totfact> 0.30736794E+03</totfact>
</mgrwt>
</event>
<event>
 5    0  0.1239749E+000  0.5049143E+03  0.7546771E-02  0.1012504E+00
         21   -1    0    0  501  502  0.00000000000E+00  0.00000000000E+00  0.10044080942E+04  0.10044080942E+04  0.00000000000E+00 0.  1.
          2   -1    0    0  503    0 -0.00000000000E+00 -0.00000000000E+00 -0.31732943526E+04  0.31732943526E+04  0.00000000000E+00 0.  1.
         25    1    1    2    0    0  0.28191642410E+03  0.18890819678E+03  0.77930002226E+02  0.36994764796E+03  0.12500000000E+03 0.  0.
         21    1    1    2  503  502 -0.62956035104E+03 -0.12885456820E+03  0.63559001611E+03  0.90383870460E+03  0.00000000000E+00 0.  1.
          2    1    1    2  501    0  0.34764392695E+03 -0.60053628574E+02 -0.28824062768E+04  0.29039160943E+04  0.00000000000E+00 0.  1.
<mgrwt>
<rscale>  4 0.50491433E+03</rscale>
<asrwt>0</asrwt>
<pdfrwt beam="1">  1       21 0.15452432E+00 0.50491433E+03</pdfrwt>
<pdfrwt beam="2">  1        2 0.48819912E+00 0.50491433E+03</pdfrwt>
<totfact> 0.45353174E+00</totfact>
</mgrwt>
</event>
<event>
 5    0  0.1239749E+000  0.2524216E+03  0.7546771E-02  0.1111784E+00
          1   -1    0    0  503    0 -0.00000000000E+00  0.00000000000E+00  0.22821920706E+04  0.22821920706E+04  0.00000000000E+00 0.  1.
         21   -1    0    0  501  502  0.00000000000E+00 -0.00000000000E+00 -0.25716975880E+02  0.25716975880E+02  0.00000000000E+00 0.  1.
         25    1    1    2    0    0 -0.20038413667E+03  0.89094621413E+02  0.12466496142E+04  0.12719480785E+04  0.12500000000E+03 0.  0.
         21    1    1    2  503  502  0.17859192807E+03 -0.52471129059E+02  0.87420082722E+03  0.89379828958E+03  0.00000000000E+00 0.  1.
          1    1    1    2  501    0  0.21792208605E+02 -0.36623492354E+02  0.13562465334E+03  0.14216267844E+03  0.00000000000E+00 0.  1.
<mgrwt>
<rscale>  4 0.25242158E+03</rscale>
<asrwt>0</asrwt>
<pdfrwt beam="1">  1       21 0.39564596E-02 0.25242158E+03</pdfrwt>
<pdfrwt beam="2">  1        1 0.35110631E+00 0.25242158E+03</pdfrwt>
<totfact> 0.99137013E+03</totfact>
</mgrwt>
</event>
<event>
 5    0  0.1239749E+000  0.2689371E+03  0.7546771E-02  0.1101889E+00
         21   -1    0    0  501  502  0.00000000000E+00  0.00000000000E+00  0.23807549152E+03  0.23807549152E+03  0.00000000000E+00 0. -1.
          2   -1    0    0  503    0 -0.00000000000E+00 -0.00000000000E+00 -0.67425403695E+03  0.67425403695E+03  0.00000000000E+00 0. -1.
         25    1    1    2    0    0  0.26743539250E+03  0.80966299193E+02 -0.70548523699E+01  0.30618948660E+03  0.12500000000E+03 0.  0.
         21    1    1    2  503  502 -0.10799680913E+03  0.92976547267E+02 -0.34934784440E+02  0.14672555431E+03  0.00000000000E+00 0. -1.
          2    1    1    2  501    0 -0.15943858337E+03 -0.17394284646E+03 -0.39418890862E+03  0.45941448756E+03  0.00000000000E+00 0. -1.
<mgrwt>
<rscale>  4 0.26893708E+03</rscale>
<asrwt>0</asrwt>
<pdfrwt beam="1">  1       21 0.36626999E-01 0.26893708E+03</pdfrwt>
<pdfrwt beam="2">  1        2 0.10373139E+00 0.26893708E+03</pdfrwt>
<totfact> 0.38762522E+03</totfact>
</mgrwt>
</event>
<event>
 5    0  0.1239749E+000  0.2301951E+03  0.7546771E-02  0.1126503E+00
         21   -1    0    0  501  502  0.00000000000E+00  0.00000000000E+00  0.22593616746E+03  0.22593616746E+03  0.00000000000E+00 0. -1.
          2   -1    0    0  503    0 -0.00000000000E+00 -0.00000000000E+00 -0.88349846014E+03  0.88349846014E+03  0.00000000000E+00 0. -1.
         25    1    1    2    0    0 -0.33157451847E+02 -0.20677999007E+03  0.62951711499E+02  0.25188350261E+03  0.12500000000E+03 0.  0.
         21    1    1    2  503  502 -0.72363262444E+01  0.17569975644E+03 -0.46878106070E+02  0.18198990538E+03  0.00000000000E+00 0. -1.
          2    1    1    2  501    0  0.40393778092E+02  0.31080233625E+02 -0.67363589810E+03  0.67556121961E+03  0.00000000000E+00 0. -1.
<mgrwt>
<rscale>  4 0.23019511E+03</rscale>
<asrwt>0</asrwt>
<pdfrwt beam="1">  1       21 0.34759410E-01 0.23019511E+03</pdfrwt>
<pdfrwt beam="2">  1        2 0.13592284E+00 0.23019511E+03</pdfrwt>
<totfact> 0.31015749E+03</totfact>
</mgrwt>
</event>
<event>
 5    0  0.1239749E+000  0.3687890E+03  0.7546771E-02  0.1055157E+00
          2   -1    0    0  503    0 -0.00000000000E+00  0.00000000000E+00  0.16787970770E+04  0.16787970770E+04  0.00000000000E+00 0.  1.
         21   -1    0    0  501  502  0.00000000000E+00 -0.00000000000E+00 -0.59623452610E+03  0.59623452610E+03  0.00000000000E+00 0. -1.
         25    1    1    2    0    0  0.14717111474E+00  0.24650073759E+03 -0.48482194155E+02  0.28060320462E+03  0.12500000000E+03 0.  0.
         21    1    1    2  503  502 -0.97356008319E+02 -0.44766994465E+03 -0.29897624931E+03  0.54705883536E+03  0.00000000000E+00 0. -1.
          2    1    1    2  501    0  0.97208837204E+02  0.20116920706E+03  0.14300209944E+04  0.14473695632E+04  0.00000000000E+00 0.  1.
<mgrwt>
<rscale>  4 0.36878905E+03</rscale>
<asrwt>0</asrwt>
<pdfrwt beam="1">  1       21 0.91728389E-01 0.36878905E+03</pdfrwt>
<pdfrwt beam="2">  1        2 0.25827647E+00 0.36878905E+03</pdfrwt>
<totfact> 0.12641514E+02</totfact>
</mgrwt>
</event>
<event>
 5    0  0.1239749E+000  0.7034288E+03  0.7546771E-02  0.9711386E-01
          2   -1    0    0  503    0 -0.00000000000E+00  0.00000000000E+00  0.19728187093E+04  0.19728187093E+04  0.00000000000E+00 0. -1.
         21   -1    0    0  501  502  0.00000000000E+00 -0.00000000000E+00 -0.14463103987E+04  0.14463103987E+04  0.00000000000E+00 0. -1.
         25    1    1    2    0    0  0.15386533952E+03  0.67366841073E+03 -0.12562547312E+04  0.14392027724E+04  0.12500000000E+03 0.  0.
         21    1    1    2  503  502 -0.17171670546E+03 -0.68828342776E+03  0.11806576729E+04  0.13773791215E+04  0.00000000000E+00 0. -1.
          2    1    1    2  501    0  0.17851365946E+02  0.14615017026E+02  0.60210536894E+03  0.60254721417E+03  0.00000000000E+00 0. -1.
<mgrwt>
<rscale>  4 0.70342875E+03</rscale>
<asrwt>0</asrwt>
<pdfrwt beam="1">  1       21 0.22250929E+00 0.70342875E+03</pdfrwt>
<pdfrwt beam="2">  1        2 0.30351057E+00 0.70342875E+03</pdfrwt>
<totfact> 0.67702592E+00</totfact>
</mgrwt>
</event>
<event>
 5    0  0.1239749E+000  0.2321509E+03  0.7546771E-02  0.1125135E+00
         21   -1    0    0  501  502  0.00000000000E+00  0.00000000000E+00  0.23351175840E+03  0.23351175840E+03  0.00000000000E+00 0.  1.
          1   -1    0    0  503    0 -0.00000000000E+00 -0.00000000000E+00 -0.30640392202E+03  0.30640392202E+03  0.00000000000E+00 0.  1.
         25    1    1    2    0    0  0.11904896270E+03 -0.16775393313E+03  0.78898983237E+02  0.25330631093E+03  0.12500000000E+03 0.  0.
         21    1    1    2  503  502 -0.13190575699E+03  0.12570887131E+03 -0.72823893783E+02  0.19622733897E+03  0.00000000000E+00 0.  1.
          1    1    1    2  501    0  0.12856794284E+02  0.42045061811E+02 -0.78967253084E+02  0.90382030524E+02  0.00000000000E+00 0.  1.
<mgrwt>
<rscale>  4 0.23215093E+03</rscale>
<asrwt>0</asrwt>
<pdfrwt beam="1">  1       21 0.35924886E-01 0.23215093E+03</pdfrwt>
<pdfrwt beam="2">  1        1 0.47139065E-01 0.23215093E+03</pdfrwt>
<totfact> 0.69029116E+03</totfact>
</mgrwt>
</event>
<event>
 5    0  0.1239749E+000  0.2167182E+03  0.7546771E-02  0.1136354E+00
         21   -1    0    0  501  502  0.00000000000E+00  0.00000000000E+00  0.12444714394E+04  0.12444714394E+04  0.00000000000E+00 0. -1.
          1   -1    0    0  503    0 -0.00000000000E+00 -0.00000000000E+00 -0.59367385098E+03  0.59367385098E+03  0.00000000000E+00 0.  1.
         25    1    1    2    0    0  0.23588277291E+03 -0.21964893196E+02  0.85460097578E+03  0.89559531424E+03  0.12500000000E+03 0.  0.
         21    1    1    2  503  502 -0.93235345374E+02 -0.82158595677E+02  0.34464680312E+03  0.36636632401E+03  0.00000000000E+00 0. -1.
          1    1    1    2  501    0 -0.14264742753E+03  0.10412348887E+03 -0.54845019049E+03  0.57618365212E+03  0.00000000000E+00 0.  1.
<mgrwt>
<rscale>  4 0.21671821E+03</rscale>
<asrwt>0</asrwt>
<pdfrwt beam="1">  1       21 0.19145714E+00 0.21671821E+03</pdfrwt>
<pdfrwt beam="2">  1        1 0.91334439E-01 0.21671821E+03</pdfrwt>
<totfact> 0.59025920E+01</totfact>
</mgrwt>
</event>
<event>
 5    0  0.1239749E+000  0.2079601E+03  0.7546771E-02  0.1143192E+00
         21   -1    0    0  503  502  0.00000000000E+00  0.00000000000E+00  0.27953293675E+03  0.27953293675E+03  0.00000000000E+00 0.  1.
         -4   -1    0    0    0  501 -0.00000000000E+00 -0.00000000000E+00 -0.84037051037E+03  0.84037051037E+03  0.00000000000E+00 0. -1.
         25    1    1    2    0    0  0.20025469330E+03 -0.38981094399E+02 -0.19959877098E+02  0.24009344973E+03  0.12500000000E+03 0.  0.
         21    1    1    2  503  501 -0.15526070697E+03  0.14309776844E+02  0.13241847011E+03  0.20456125750E+03  0.00000000000E+00 0.  1.
         -4    1    1    2    0  502 -0.44993986329E+02  0.24671317556E+02 -0.67329616664E+03  0.67524873989E+03  0.00000000000E+00 0. -1.
<mgrwt>
<rscale>  4 0.20796005E+03</rscale>
<asrwt>0</asrwt>
<pdfrwt beam="1">  1       21 0.43005068E-01 0.20796005E+03</pdfrwt>
<pdfrwt beam="2">  1       -4 0.12928777E+00 0.20796005E+03</pdfrwt>
<totfact> 0.10059927E+02</totfact>
</mgrwt>
</event>
<event>
 5    0  0.1239749E+000  0.2600417E+03  0.7546771E-02  0.1107118E+00
         21   -1    0    0  501  502  0.00000000000E+00  0.00000000000E+00  0.44619369138E+03  0.44619369138E+03  0.00000000000E+00 0. -1.
          1   -1    0    0  503    0 -0.00000000000E+00 -0.00000000000E+00 -0.85804878117E+03  0.85804878117E+03  0.00000000000E+00 0.  1.
         25    1    1    2    0    0  0.12216690321E+03  0.26391533909E+03  0.23636496654E+03  0.39505626922E+03  0.12500000000E+03 0.  0.
         21    1    1    2  503  502 -0.12842706304E+03 -0.12860330336E+03  0.57466558087E+02  0.19061669773E+03  0.00000000000E+00 0. -1.
          1    1    1    2  501    0  0.62601598300E+01 -0.13531203573E+03 -0.70568661442E+03  0.71856950560E+03  0.00000000000E+00 0.  1.
<mgrwt>
<rscale>  4 0.26004174E+03</rscale>
<asrwt>0</asrwt>
<pdfrwt beam="1">  1       21 0.68645184E-01 0.26004174E+03</pdfrwt>
<pdfrwt beam="2">  1        1 0.13200750E+00 0.26004174E+03</pdfrwt>
<totfact> 0.42947835E+02</totfact>
</mgrwt>
</event>
<event>
 5    0  0.1239749E+000  0.2942922E+03  0.7546771E-02  0.1088129E+00
         21   -1    0    0  501  502  0.00000000000E+00  0.00000000000E+00  0.94422848935E+02  0.94422848935E+02  0.00000000000E+00 0. -1.
          1   -1    0    0  503    0 -0.00000000000E+00 -0.00000000000E+00 -0.14220588323E+04  0.14220588323E+04  0.00000000000E+00 0. -1.
         25    1    1    2    0    0 -0.16600081125E+03  0.24820160921E+03 -0.70489480595E+03  0.77566874090E+03  0.12500000000E+03 0.  0.
         21    1    1    2  503  502 -0.15254724734E+02 -0.79671752960E+02 -0.12222603299E+02  0.82034668756E+02  0.00000000000E+00 0. -1.
          1    1    1    2  501    0  0.18125553598E+03 -0.16852985625E+03 -0.61051857413E+03  0.65877827159E+03  0.00000000000E+00 0. -1.
<mgrwt>
<rscale>  4 0.29429225E+03</rscale>
<asrwt>0</asrwt>
<pdfrwt beam="1">  1       21 0.14526592E-01 0.29429225E+03</pdfrwt>
<pdfrwt beam="2">  1        1 0.21877828E+00 0.29429225E+03</pdfrwt>
<totfact> 0.36614413E+03</totfact>
</mgrwt>
</event>
<event>
 5    0  0.1239749E+000  0.3211684E+03  0.7546771E-02  0.1075113E+00
         21   -1    0    0  501  502  0.00000000000E+00  0.00000000000E+00  0.23423309398E+03  0.23423309398E+03  0.00000000000E+00 0.  1.
          1   -1    0    0  503    0 -0.00000000000E+00 -0.00000000000E+00 -0.73846849507E+03  0.73846849507E+03  0.00000000000E+00 0.  1.
         25    1    1    2    0    0  0.80946802944E+02 -0.25783426441E+03 -0.21290806579E+03  0.36604062246E+03  0.12500000000E+03 0.  0.
         21    1    1    2  503  502  0.54114297462E+02  0.32158504030E+03 -0.60409681777E+02  0.33165437580E+03  0.00000000000E+00 0.  1.
          1    1    1    2  501    0 -0.13506110041E+03 -0.63750775891E+02 -0.23091765352E+03  0.27500659079E+03  0.00000000000E+00 0.  1.
<mgrwt>
<rscale>  4 0.32116841E+03</rscale>
<asrwt>0</asrwt>
<pdfrwt beam="1">  1       21 0.36035860E-01 0.32116841E+03</pdfrwt>
<pdfrwt beam="2">  1        1 0.11361054E+00 0.32116841E+03</pdfrwt>
<totfact> 0.20589003E+03</totfact>
</mgrwt>
</event>
<event>
 5    0  0.1239749E+000  0.2926170E+03  0.7546771E-02  0.1088991E+00
         21   -1    0    0  501  502  0.00000000000E+00  0.00000000000E+00  0.14646055347E+03  0.14646055347E+03  0.00000000000E+00 0.  1.
          3   -1    0    0  503    0 -0.00000000000E+00 -0.00000000000E+00 -0.16306134872E+04  0.16306134872E+04  0.00000000000E+00 0.  1.
         25    1    1    2    0    0  0.11963083427E+02 -0.28587378631E+03 -0.22701287608E+03  0.38603987225E+03  0.12500000000E+03 0.  0.
         21    1    1    2  503  502 -0.90246029197E+02  0.17100068118E+03 -0.12352728418E+04  0.12503137896E+04  0.00000000000E+00 0.  1.
          3    1    1    2  501    0  0.78282945770E+02  0.11487310513E+03 -0.21867215809E+02  0.14072037879E+03  0.00000000000E+00 0.  1.
<mgrwt>
<rscale>  4 0.29261700E+03</rscale>
<asrwt>0</asrwt>
<pdfrwt beam="1">  1       21 0.22532392E-01 0.29261700E+03</pdfrwt>
<pdfrwt beam="2">  1        3 0.25086362E+00 0.29261700E+03</pdfrwt>
<totfact> 0.72681016E+01</totfact>
</mgrwt>
</event>
<event>
 5    0  0.1239749E+000  0.2399479E+03  0.7546771E-02  0.1119828E+00
         21   -1    0    0  503  502  0.00000000000E+00  0.00000000000E+00  0.79342147794E+02  0.79342147794E+02  0.00000000000E+00 0. -1.
         -1   -1    0    0    0  501 -0.00000000000E+00 -0.00000000000E+00 -0.10509308237E+04  0.10509308237E+04  0.00000000000E+00 0.  1.
         25    1    1    2    0    0 -0.15777199836E+03  0.13557420800E+03 -0.16704054378E+03  0.29461824894E+03  0.12500000000E+03 0.  0.
         21    1    1    2  503  501  0.27101090295E+02  0.10336974534E+02 -0.79907756196E+02  0.85009244427E+02  0.00000000000E+00 0.  1.
         -1    1    1    2    0  502  0.13067090807E+03 -0.14591118253E+03 -0.72464037591E+03  0.75064547810E+03  0.00000000000E+00 0.  1.
<mgrwt>
<rscale>  4 0.23994789E+03</rscale>
<asrwt>0</asrwt>
<pdfrwt beam="1">  1       21 0.12206485E-01 0.23994789E+03</pdfrwt>
<pdfrwt beam="2">  1       -1 0.16168165E+00 0.23994789E+03</pdfrwt>
<totfact> 0.16443702E+03</totfact>
</mgrwt>
</event>
<event>
 5    0  0.1239749E+000  0.2997077E+03  0.7546771E-02  0.1085387E+00
          2   -1    0    0  503    0 -0.00000000000E+00  0.00000000000E+00  0.26599150526E+04  0.26599150526E+04  0.00000000000E+00 0.  1.
         21   -1    0    0  501  502  0.00000000000E+00 -0.00000000000E+00 -0.11454415352E+03  0.11454415352E+03  0.00000000000E+00 0.  1.
         25    1    1    2    0    0 -0.27054213198E+03 -0.12075576319E+03  0.31050804447E+03  0.44700698563E+03  0.12500000000E+03 0.  0.
         21    1    1    2  503  502  0.27227302115E+03 -0.16153386948E+03  0.72024687416E+03  0.78675367732E+03  0.00000000000E+00 0.  1.
          2    1    1    2  501    0 -0.17308891747E+01  0.28228963267E+03  0.15146159805E+04  0.15406985432E+04  0.00000000000E+00 0.  1.
<mgrwt>
<rscale>  4 0.29970771E+03</rscale>
<asrwt>0</asrwt>
<pdfrwt beam="1">  1       21 0.17622179E-01 0.29970771E+03</pdfrwt>
<pdfrwt beam="2">  1        2 0.40921765E+00 0.29970771E+03</pdfrwt>
<totfact> 0.11740686E+03</totfact>
</mgrwt>
</event>
<event>
 5    0  0.1239749E+000  0.2612639E+03  0.7546771E-02  0.1106386E+00
          2   -1    0    0  503    0 -0.00000000000E+00  0.00000000000E+00  0.15608157729E+04  0.15608157729E+04  0.00000000000E+00 0. -1.
         21   -1    0    0  501  502  0.00000000000E+00 -0.00000000000E+00 -0.14186673376E+03  0.14186673376E+03  0.00000000000E+00 0. -1.
         25    1    1    2    0    0 -0.19745356374E+03 -0.11533050667E+03  0.30786608573E+02  0.26241541660E+03  0.12500000000E+03 0.  0.
         21    1    1    2  503  502  0.26025791978E+03  0.12026375058E+02  0.10207613719E+04  0.10534859263E+04  0.00000000000E+00 0. -1.
          2    1    1    2  501    0 -0.62804356040E+02  0.10330413161E+03  0.36740105866E+03  0.38678116377E+03  0.00000000000E+00 0. -1.
<mgrwt>
<rscale>  4 0.26126386E+03</rscale>
<asrwt>0</asrwt>
<pdfrwt beam="1">  1       21 0.21825652E-01 0.26126386E+03</pdfrwt>
<pdfrwt beam="2">  1        2 0.24012549E+00 0.26126386E+03</pdfrwt>
<totfact> 0.30957593E+03</totfact>
</mgrwt>
</event>
<event>
 5    0  0.1239749E+000  0.2278908E+03  0.7546771E-02  0.1128133E+00
         21   -1    0    0  503  502  0.00000000000E+00  0.00000000000E+00  0.24923460913E+03  0.24923460913E+03  0.00000000000E+00 0. -1.
         -4   -1    0    0    0  501 -0.00000000000E+00 -0.00000000000E+00 -0.11106961958E+04  0.11106961958E+04  0.00000000000E+00 0.  1.
         25    1    1    2    0    0  0.15724885207E+03  0.18720273356E+03 -0.14356913689E+03  0.30985345245E+03  0.12500000000E+03 0.  0.
         21    1    1    2  503  501 -0.10305423921E+03 -0.14649890398E+03  0.11602491604E+03  0.21341013619E+03  0.00000000000E+00 0. -1.
         -4    1    1    2    0  502 -0.54194612864E+02 -0.40703829572E+02 -0.83391736582E+03  0.83666721629E+03  0.00000000000E+00 0.  1.
<mgrwt>
<rscale>  4 0.22789076E+03</rscale>
<asrwt>0</asrwt>
<pdfrwt beam="1">  1       21 0.38343787E-01 0.22789076E+03</pdfrwt>
<pdfrwt beam="2">  1       -4 0.17087634E+00 0.22789076E+03</pdfrwt>
<totfact> 0.61479917E+01</totfact>
</mgrwt>
</event>
<event>
 5    0  0.1239749E+000  0.2199682E+03  0.7546771E-02  0.1133907E+00
         21   -1    0    0  501  502  0.00000000000E+00  0.00000000000E+00  0.15007402780E+03  0.15007402780E+03  0.00000000000E+00 0.  1.
          2   -1    0    0  503    0 -0.00000000000E+00 -0.00000000000E+00 -0.16448137283E+04  0.16448137283E+04  0.00000000000E+00 0. -1.
         25    1    1    2    0    0 -0.21116822889E+02 -0.20465629447E+03 -0.14149607907E+03  0.27924229527E+03  0.12500000000E+03 0.  0.
         21    1    1    2  503  502  0.39406941664E+02  0.16626786784E+03 -0.94032648605E+01  0.17113249930E+03  0.00000000000E+00 0.  1.
          2    1    1    2  501    0 -0.18290118775E+02  0.38388426632E+02 -0.13438403566E+04  0.13445129615E+04  0.00000000000E+00 0. -1.
<mgrwt>
<rscale>  4 0.21996822E+03</rscale>
<asrwt>0</asrwt>
<pdfrwt beam="1">  1       21 0.23088312E-01 0.21996822E+03</pdfrwt>
<pdfrwt beam="2">  1        2 0.25304827E+00 0.21996822E+03</pdfrwt>
<totfact> 0.25584355E+03</totfact>
</mgrwt>
</event>
<event>
 5    0  0.1239749E+000  0.2607699E+03  0.7546771E-02  0.1106682E+00
          2   -1    0    0  503    0 -0.00000000000E+00  0.00000000000E+00  0.83871255428E+03  0.83871255428E+03  0.00000000000E+00 0.  1.
         21   -1    0    0  501  502  0.00000000000E+00 -0.00000000000E+00 -0.23806775006E+03  0.23806775006E+03  0.00000000000E+00 0. -1.
         25    1    1    2    0    0  0.21302495225E+03  0.80495224989E+02 -0.12590219135E+03  0.28867884113E+03  0.12500000000E+03 0.  0.
         21    1    1    2  503  502 -0.57203947016E+01  0.44887348652E+02  0.41215184051E+02  0.61206930824E+02  0.00000000000E+00 0.  1.
          2    1    1    2  501    0 -0.20730455755E+03 -0.12538257364E+03  0.68533181151E+03  0.72689453239E+03  0.00000000000E+00 0.  1.
<mgrwt>
<rscale>  4 0.26076992E+03</rscale>
<asrwt>0</asrwt>
<pdfrwt beam="1">  1       21 0.36625808E-01 0.26076992E+03</pdfrwt>
<pdfrwt beam="2">  1        2 0.12903270E+00 0.26076992E+03</pdfrwt>
<totfact> 0.29583083E+03</totfact>
</mgrwt>
</event>
<event>
 5    0  0.1239749E+000  0.3898878E+03  0.7546771E-02  0.1047339E+00
         21   -1    0    0  501  502  0.00000000000E+00  0.00000000000E+00  0.27981010566E+03  0.27981010566E+03  0.00000000000E+00 0.  1.
          2   -1    0    0  503    0 -0.00000000000E+00 -0.00000000000E+00 -0.11670531525E+04  0.11670531525E+04  0.00000000000E+00 0.  1.
         25    1    1    2    0    0  0.26344388255E+03 -0.10553963247E+03 -0.49277108693E+03  0.58222816609E+03  0.12500000000E+03 0.  0.
         21    1    1    2  503  502 -0.40693174916E+03 -0.17210455829E+02  0.21445554212E+02  0.40785973087E+03  0.00000000000E+00 0.  1.
          2    1    1    2  501    0  0.14348786661E+03  0.12275008830E+03 -0.41591751414E+03  0.45677536121E+03  0.00000000000E+00 0.  1.
<mgrwt>
<rscale>  4 0.38988780E+03</rscale>
<asrwt>0</asrwt>
<pdfrwt beam="1">  1       21 0.43047709E-01 0.38988780E+03</pdfrwt>
<pdfrwt beam="2">  1        2 0.17954664E+00 0.38988780E+03</pdfrwt>
<totfact> 0.12768258E+03</totfact>
</mgrwt>
</event>
<event>
 5    0  0.1239749E+000  0.2495496E+03  0.7546771E-02  0.1113590E+00
         21   -1    0    0  501  502  0.00000000000E+00  0.00000000000E+00  0.45662676895E+03  0.45662676895E+03  0.00000000000E+00 0.  1.
          2   -1    0    0  503    0 -0.00000000000E+00 -0.00000000000E+00 -0.23351716719E+04  0.23351716719E+04  0.00000000000E+00 0. -1.
         25    1    1    2    0    0  0.39562107411E+02 -0.24377823344E+03  0.26273080234E+03  0.38163524725E+03  0.12500000000E+03 0.  0.
         21    1    1    2  503  502 -0.23110150180E+02  0.18189656727E+03  0.71246768958E+02  0.19671436733E+03  0.00000000000E+00 0.  1.
          2    1    1    2  501    0 -0.16451957231E+02  0.61881666165E+02 -0.22125224743E+04  0.22134488263E+04  0.00000000000E+00 0. -1.
<mgrwt>
<rscale>  4 0.24954965E+03</rscale>
<asrwt>0</asrwt>
<pdfrwt beam="1">  1       21 0.70250273E-01 0.24954965E+03</pdfrwt>
<pdfrwt beam="2">  1        2 0.35925717E+00 0.24954965E+03</pdfrwt>
<totfact> 0.11226771E+02</totfact>
</mgrwt>
</event>
<event>
 5    0  0.1239749E+000  0.2896849E+03  0.7546771E-02  0.1090514E+00
         21   -1    0    0  501  502  0.00000000000E+00  0.00000000000E+00  0.85325558752E+03  0.85325558752E+03  0.00000000000E+00 0.  1.
          1   -1    0    0  503    0 -0.00000000000E+00 -0.00000000000E+00 -0.48918340302E+03  0.48918340302E+03  0.00000000000E+00 0. -1.
         25    1    1    2    0    0  0.21780720427E+03 -0.99544908292E+02 -0.28107544409E+02  0.27159565728E+03  0.12500000000E+03 0.  0.
         21    1    1    2  503  502 -0.24290957145E+03  0.10550262396E+03  0.70699703282E+03  0.75497064047E+03  0.00000000000E+00 0.  1.
          1    1    1    2  501    0  0.25102367180E+02 -0.59577156636E+01 -0.31481730391E+03  0.31587269280E+03  0.00000000000E+00 0. -1.
<mgrwt>
<rscale>  4 0.28968490E+03</rscale>
<asrwt>0</asrwt>
<pdfrwt beam="1">  1       21 0.13127009E+00 0.28968490E+03</pdfrwt>
<pdfrwt beam="2">  1        1 0.75258985E-01 0.28968490E+03</pdfrwt>
<totfact> 0.20384419E+02</totfact>
</mgrwt>
</event>
<event>
 5    0  0.1239749E+000  0.2972920E+03  0.7546771E-02  0.1086602E+00
          2   -1    0    0  503    0 -0.00000000000E+00  0.00000000000E+00  0.17702381205E+03  0.17702381205E+03  0.00000000000E+00 0.  1.
         21   -1    0    0  501  502  0.00000000000E+00 -0.00000000000E+00 -0.13053125779E+04  0.13053125779E+04  0.00000000000E+00 0. -1.
         25    1    1    2    0    0 -0.13289991716E+03 -0.23060724182E+03 -0.11002698147E+04  0.11388857506E+04  0.12500000000E+03 0.  0.
         21    1    1    2  503  502  0.13537592389E+03  0.25839241835E+03 -0.63277386648E+02  0.29849172567E+03  0.00000000000E+00 0. -1.
          2    1    1    2  501    0 -0.24760067306E+01 -0.27785176528E+02  0.35258435464E+02  0.44958913637E+02  0.00000000000E+00 0.  1.
<mgrwt>
<rscale>  4 0.29729203E+03</rscale>
<asrwt>0</asrwt>
<pdfrwt beam="1">  1       21 0.20081732E+00 0.29729203E+03</pdfrwt>
<pdfrwt beam="2">  1        2 0.27234432E-01 0.29729203E+03</pdfrwt>
<totfact> 0.29785403E+02</totfact>
</mgrwt>
</event>
<event>
 5    0  0.1239749E+000  0.3231131E+03  0.7546771E-02  0.1074225E+00
         21   -1    0    0  501  502  0.00000000000E+00  0.00000000000E+00  0.61101472309E+03  0.61101472309E+03  0.00000000000E+00 0.  1.
          2   -1    0    0  503    0 -0.00000000000E+00 -0.00000000000E+00 -0.44997388624E+03  0.44997388624E+03  0.00000000000E+00 0. -1.
         25    1    1    2    0    0  0.28105869873E+03  0.10488513199E+03  0.32853134963E+03  0.46211765897E+03  0.12500000000E+03 0.  0.
         21    1    1    2  503  502 -0.29046204818E+03 -0.61183793787E+02  0.11092861706E+03  0.31688612488E+03  0.00000000000E+00 0.  1.
          2    1    1    2  501    0  0.94033494556E+01 -0.43701338204E+02 -0.27841912984E+03  0.28198482549E+03  0.00000000000E+00 0. -1.
<mgrwt>
<rscale>  4 0.32311315E+03</rscale>
<asrwt>0</asrwt>
<pdfrwt beam="1">  1       21 0.94002265E-01 0.32311315E+03</pdfrwt>
<pdfrwt beam="2">  1        2 0.69226752E-01 0.32311315E+03</pdfrwt>
<totfact> 0.78458161E+02</totfact>
</mgrwt>
</event>
<event>
 5    0  0.1239749E+000  0.2817554E+03  0.7546771E-02  0.1094734E+00
         21   -1    0    0  503  502  0.00000000000E+00  0.00000000000E+00  0.10378980846E+04  0.10378980846E+04  0.00000000000E+00 0.  1.
         -1   -1    0    0    0  501 -0.00000000000E+00 -0.00000000000E+00 -0.27913593763E+03  0.27913593763E+03  0.00000000000E+00 0.  1.
         25    1    1    2    0    0 -0.19351321690E+03 -0.10151792900E+03  0.53450534191E+03  0.59082502956E+03  0.12500000000E+03 0.  0.
         21    1    1    2  503  501  0.68765903076E+02 -0.12786867341E+03  0.39053345499E+03  0.41664796475E+03  0.00000000000E+00 0.  1.
         -1    1    1    2    0  502  0.12474731382E+03  0.22938660241E+03 -0.16627664996E+03  0.30956102790E+03  0.00000000000E+00 0.  1.
<mgrwt>
<rscale>  4 0.28175537E+03</rscale>
<asrwt>0</asrwt>
<pdfrwt beam="1">  1       21 0.15967663E+00 0.28175537E+03</pdfrwt>
<pdfrwt beam="2">  1       -1 0.42943991E-01 0.28175537E+03</pdfrwt>
<totfact> 0.11971924E+02</totfact>
</mgrwt>
</event>
<event>
 5    0  0.1239749E+000  0.2945412E+03  0.7546771E-02  0.1088002E+00
         21   -1    0    0  503  502  0.00000000000E+00  0.00000000000E+00  0.40710231341E+03  0.40710231341E+03  0.00000000000E+00 0. -1.
         -1   -1    0    0    0  501 -0.00000000000E+00 -0.00000000000E+00 -0.64450800830E+03  0.64450800830E+03  0.00000000000E+00 0. -1.
         25    1    1    2    0    0  0.43449235093E+02 -0.26375438712E+03  0.27330359472E+03  0.40221147129E+03  0.12500000000E+03 0.  0.
         21    1    1    2  503  501 -0.23079963727E+02  0.26390800179E+03 -0.18515185565E+03  0.32320477686E+03  0.00000000000E+00 0. -1.
         -1    1    1    2    0  502 -0.20369271366E+02 -0.15361467214E+00 -0.32555743397E+03  0.32619407356E+03  0.00000000000E+00 0. -1.
<mgrwt>
<rscale>  4 0.29454122E+03</rscale>
<asrwt>0</asrwt>
<pdfrwt beam="1">  1       21 0.62631126E-01 0.29454122E+03</pdfrwt>
<pdfrwt beam="2">  1       -1 0.99155077E-01 0.29454122E+03</pdfrwt>
<totfact> 0.21666466E+02</totfact>
</mgrwt>
</event>
<event>
 5    0  0.1239749E+000  0.2985797E+03  0.7546771E-02  0.1085953E+00
          2   -1    0    0  503    0 -0.00000000000E+00  0.00000000000E+00  0.64990779339E+03  0.64990779339E+03  0.00000000000E+00 0. -1.
         21   -1    0    0  501  502  0.00000000000E+00 -0.00000000000E+00 -0.57552416852E+03  0.57552416852E+03  0.00000000000E+00 0. -1.
         25    1    1    2    0    0  0.16666228928E+03 -0.21995907005E+03 -0.47651154321E+03  0.56466499978E+03  0.12500000000E+03 0.  0.
         21    1    1    2  503  502 -0.15988817256E+03  0.18166589384E+03  0.21833241640E+03  0.32593828980E+03  0.00000000000E+00 0. -1.
          2    1    1    2  501    0 -0.67741167201E+01  0.38293176218E+02  0.33256275169E+03  0.33482867233E+03  0.00000000000E+00 0. -1.
<mgrwt>
<rscale>  4 0.29857966E+03</rscale>
<asrwt>0</asrwt>
<pdfrwt beam="1">  1       21 0.88542179E-01 0.29857966E+03</pdfrwt>
<pdfrwt beam="2">  1        2 0.99985815E-01 0.29857966E+03</pdfrwt>
<totfact> 0.59730578E+02</totfact>
</mgrwt>
</event>
<event>
 5    0  0.1239749E+000  0.2820511E+03  0.7546771E-02  0.1094574E+00
         21   -1    0    0  501  502  0.00000000000E+00  0.00000000000E+00  0.35523486032E+03  0.35523486032E+03  0.00000000000E+00 0.  1.
          2   -1    0    0  503    0 -0.00000000000E+00 -0.00000000000E+00 -0.15133624607E+04  0.15133624607E+04  0.00000000000E+00 0. -1.
         25    1    1    2    0    0  0.18075044193E+03 -0.15792139800E+03  0.17442674109E+03  0.32196207574E+03  0.12500000000E+03 0.  0.
         21    1    1    2  503  502 -0.36174223804E+03  0.37457421707E+02 -0.24724233429E+03  0.43976047695E+03  0.00000000000E+00 0. -1.
          2    1    1    2  501    0  0.18099179611E+03  0.12046397630E+03 -0.10853120072E+04  0.11068747683E+04  0.00000000000E+00 0. -1.
<mgrwt>
<rscale>  4 0.28205112E+03</rscale>
<asrwt>0</asrwt>
<pdfrwt beam="1">  1       21 0.54651515E-01 0.28205112E+03</pdfrwt>
<pdfrwt beam="2">  1        2 0.23282500E+00 0.28205112E+03</pdfrwt>
<totfact> 0.51663707E+02</totfact>
</mgrwt>
</event>
<event>
 5    0  0.1239749E+000  0.2450581E+03  0.7546771E-02  0.1116468E+00
          2   -1    0    0  503    0 -0.00000000000E+00  0.00000000000E+00  0.35022678715E+04  0.35022678715E+04  0.00000000000E+00 0.  1.
         21   -1    0    0  501  502  0.00000000000E+00 -0.00000000000E+00 -0.28933389992E+02  0.28933389992E+02  0.00000000000E+00 0.  1.
         25    1    1    2    0    0  0.10087522694E+03 -0.20703325440E+03  0.88193663796E+03  0.92004120191E+03  0.12500000000E+03 0.  0.
         21    1    1    2  503  502 -0.40796451022E+02  0.18792040528E+03  0.98894247246E+03  0.10074649587E+04  0.00000000000E+00 0.  1.
          2    1    1    2  501    0 -0.60078775922E+02  0.19112849125E+02  0.16024553711E+04  0.16036951009E+04  0.00000000000E+00 0.  1.
<mgrwt>
<rscale>  4 0.24505807E+03</rscale>
<asrwt>0</asrwt>
<pdfrwt beam="1">  1       21 0.44512935E-02 0.24505807E+03</pdfrwt>
<pdfrwt beam="2">  1        2 0.53881011E+00 0.24505807E+03</pdfrwt>
<totfact> 0.42626413E+03</totfact>
</mgrwt>
</event>
<event>
 5    0  0.1239749E+000  0.3357798E+03  0.7546771E-02  0.1068608E+00
         21   -1    0    0  501  502  0.00000000000E+00  0.00000000000E+00  0.84753013446E+02  0.84753013446E+02  0.00000000000E+00 0. -1.
          2   -1    0    0  503    0 -0.00000000000E+00 -0.00000000000E+00 -0.26188035917E+04  0.26188035917E+04  0.00000000000E+00 0. -1.
         25    1    1    2    0    0  0.95322754297E+02  0.29076901509E+03 -0.56947729636E+03  0.65845458362E+03  0.12500000000E+03 0.  0.
         21    1    1    2  503  502 -0.79611091581E+02 -0.30761244568E+03 -0.58821357424E+03  0.66854958796E+03  0.00000000000E+00 0. -1.
          2    1    1    2  501    0 -0.15711662717E+02  0.16843430588E+02 -0.13763597076E+04  0.13765524335E+04  0.00000000000E+00 0. -1.
<mgrwt>
<rscale>  4 0.33577976E+03</rscale>
<asrwt>0</asrwt>
<pdfrwt beam="1">  1       21 0.13038925E-01 0.33577976E+03</pdfrwt>
<pdfrwt beam="2">  1        2 0.40289287E+00 0.33577976E+03</pdfrwt>
<totfact> 0.21239890E+03</totfact>
</mgrwt>
</event>
<event>
 5    0  0.1239749E+000  0.2317109E+03  0.7546771E-02  0.1125441E+00
         21   -1    0    0  503  502  0.00000000000E+00  0.00000000000E+00  0.49805276301E+02  0.49805276301E+02  0.00000000000E+00 0. -1.
         -4   -1    0    0    0  501 -0.00000000000E+00 -0.00000000000E+00 -0.19546322969E+04  0.19546322969E+04  0.00000000000E+00 0. -1.
         25    1    1    2    0    0 -0.17091848674E+03  0.12090798568E+03 -0.32419302955E+03  0.40565747931E+03  0.12500000000E+03 0.  0.
         21    1    1    2  503  501  0.15443516310E+03 -0.42819291413E+02 -0.10791772939E+04  0.10910120728E+04  0.00000000000E+00 0. -1.
         -4    1    1    2    0  502  0.16483323644E+02 -0.78088694270E+02 -0.50145669711E+03  0.50776802106E+03  0.00000000000E+00 0. -1.
<mgrwt>
<rscale>  4 0.23171092E+03</rscale>
<asrwt>0</asrwt>
<pdfrwt beam="1">  1       21 0.76623493E-02 0.23171092E+03</pdfrwt>
<pdfrwt beam="2">  1       -4 0.30071269E+00 0.23171092E+03</pdfrwt>
<totfact> 0.19747384E+02</totfact>
</mgrwt>
</event>
<event>
 5    0  0.1239749E+000  0.2798829E+03  0.7546771E-02  0.1095753E+00
         21   -1    0    0  501  502  0.00000000000E+00  0.00000000000E+00  0.90812696673E+03  0.90812696673E+03  0.00000000000E+00 0.  1.
          1   -1    0    0  503    0 -0.00000000000E+00 -0.00000000000E+00 -0.89702677349E+02  0.89702677349E+02  0.00000000000E+00 0.  1.
         25    1    1    2    0    0  0.21186185253E+02 -0.24952073035E+03  0.55406723268E+03  0.62074547735E+03  0.12500000000E+03 0.  0.
         21    1    1    2  503  502  0.31304390080E+02  0.16325570988E+03  0.18453340478E+03  0.24836458912E+03  0.00000000000E+00 0.  1.
          1    1    1    2  501    0 -0.52490575333E+02  0.86265020467E+02  0.79823651912E+02  0.12871957761E+03  0.00000000000E+00 0.  1.
<mgrwt>
<rscale>  4 0.27988292E+03</rscale>
<asrwt>0</asrwt>
<pdfrwt beam="1">  1       21 0.13971183E+00 0.27988292E+03</pdfrwt>
<pdfrwt beam="2">  1        1 0.13800413E-01 0.27988292E+03</pdfrwt>
<totfact> 0.15449409E+03</totfact>
</mgrwt>
</event>
<event>
 5    0  0.1239749E+000  0.3057402E+03  0.7546771E-02  0.1082406E+00
         21   -1    0    0  503  502  0.00000000000E+00  0.00000000000E+00  0.83805324202E+03  0.83805324202E+03  0.00000000000E+00 0.  1.
         -2   -1    0    0    0  501 -0.00000000000E+00 -0.00000000000E+00 -0.36148773411E+03  0.36148773411E+03  0.00000000000E+00 0.  1.
         25    1    1    2    0    0  0.11402068282E+03 -0.25460887917E+03  0.67090105167E+03  0.73726495821E+03  0.12500000000E+03 0.  0.
         21    1    1    2  503  501 -0.14390417777E+03  0.24111761373E+03 -0.16323476491E+02  0.28126957161E+03  0.00000000000E+00 0.  1.
         -2    1    1    2    0  502  0.29883494946E+02  0.13491265449E+02 -0.17801206727E+03  0.18100644632E+03  0.00000000000E+00 0.  1.
<mgrwt>
<rscale>  4 0.30574017E+03</rscale>
<asrwt>0</asrwt>
<pdfrwt beam="1">  1       21 0.12893127E+00 0.30574017E+03</pdfrwt>
<pdfrwt beam="2">  1       -2 0.55613498E-01 0.30574017E+03</pdfrwt>
<totfact> 0.10437112E+02</totfact>
</mgrwt>
</event>
<event>
 5    0  0.1239749E+000  0.2490668E+03  0.7546771E-02  0.1113896E+00
          1   -1    0    0  503    0 -0.00000000000E+00  0.00000000000E+00  0.17552367346E+04  0.17552367346E+04  0.00000000000E+00 0.  1.
         21   -1    0    0  501  502  0.00000000000E+00 -0.00000000000E+00 -0.44633971213E+03  0.44633971213E+03  0.00000000000E+00 0.  1.
         25    1    1    2    0    0 -0.70195055311E+02  0.19296603139E+03 -0.29335280246E+03  0.37926784964E+03  0.12500000000E+03 0.  0.
         21    1    1    2  503  502  0.13522307116E+03 -0.21547238865E+03  0.38782898689E+02  0.25732808334E+03  0.00000000000E+00 0.  1.
          1    1    1    2  501    0 -0.65028015845E+02  0.22506357259E+02  0.15634669263E+04  0.15649805138E+04  0.00000000000E+00 0.  1.
<mgrwt>
<rscale>  4 0.24906675E+03</rscale>
<asrwt>0</asrwt>
<pdfrwt beam="1">  1       21 0.68667649E-01 0.24906675E+03</pdfrwt>
<pdfrwt beam="2">  1        1 0.27003642E+00 0.24906675E+03</pdfrwt>
<totfact> 0.10237782E+02</totfact>
</mgrwt>
</event>
<event>
 5    0  0.1239749E+000  0.2702684E+03  0.7546771E-02  0.1101126E+00
          2   -1    0    0  503    0 -0.00000000000E+00  0.00000000000E+00  0.48380971227E+03  0.48380971227E+03  0.00000000000E+00 0.  1.
         21   -1    0    0  501  502  0.00000000000E+00 -0.00000000000E+00 -0.14937480030E+04  0.14937480030E+04  0.00000000000E+00 0.  1.
         25    1    1    2    0    0  0.15802330810E+03 -0.18164306390E+03 -0.12399926414E+04  0.12693196285E+04  0.12500000000E+03 0.  0.
         21    1    1    2  503  502 -0.52187241608E+02  0.25693562572E+03 -0.15313949651E+03  0.30362992168E+03  0.00000000000E+00 0.  1.
          2    1    1    2  501    0 -0.10583606649E+03 -0.75292561817E+02  0.38319384712E+03  0.40460816515E+03  0.00000000000E+00 0.  1.
<mgrwt>
<rscale>  4 0.27026844E+03</rscale>
<asrwt>0</asrwt>
<pdfrwt beam="1">  1       21 0.22980738E+00 0.27026844E+03</pdfrwt>
<pdfrwt beam="2">  1        2 0.74432265E-01 0.27026844E+03</pdfrwt>
<totfact> 0.66044879E+01</totfact>
</mgrwt>
</event>
<event>
 5    0  0.1239749E+000  0.3750468E+03  0.7546771E-02  0.1052780E+00
         -1   -1    0    0    0  501 -0.00000000000E+00  0.00000000000E+00  0.39678614844E+03  0.39678614844E+03  0.00000000000E+00 0. -1.
         21   -1    0    0  503  502  0.00000000000E+00 -0.00000000000E+00 -0.13656854643E+04  0.13656854643E+04  0.00000000000E+00 0.  1.
         25    1    1    2    0    0  0.25642312000E+02  0.29555373018E+03 -0.19821935520E+03  0.37805482190E+03  0.12500000000E+03 0.  0.
         21    1    1    2  503  501 -0.84695001103E+02 -0.36559757120E+03 -0.10369803283E+04  0.11027978185E+04  0.00000000000E+00 0.  1.
         -1    1    1    2    0  502  0.59052689104E+02  0.70043841024E+02  0.26630036765E+03  0.28161897231E+03  0.00000000000E+00 0. -1.
<mgrwt>
<rscale>  4 0.37504682E+03</rscale>
<asrwt>0</asrwt>
<pdfrwt beam="1">  1       21 0.21010546E+00 0.37504682E+03</pdfrwt>
<pdfrwt beam="2">  1       -1 0.61044023E-01 0.37504682E+03</pdfrwt>
<totfact> 0.26525406E+01</totfact>
</mgrwt>
</event>
<event>
 5    0  0.1239749E+000  0.2561290E+03  0.7546771E-02  0.1109492E+00
          2   -1    0    0  503    0 -0.00000000000E+00  0.00000000000E+00  0.23788431804E+04  0.23788431804E+04  0.00000000000E+00 0. -1.
         21   -1    0    0  501  502  0.00000000000E+00 -0.00000000000E+00 -0.21917851891E+03  0.21917851891E+03  0.00000000000E+00 0. -1.
         25    1    1    2    0    0 -0.18119668304E+03  0.16644758603E+03  0.27762410969E+03  0.39145521216E+03  0.12500000000E+03 0.  0.
         21    1    1    2  503  502  0.17878448783E+03 -0.12637536897E+03 -0.88111993925E+02  0.23600497970E+03  0.00000000000E+00 0. -1.
          2    1    1    2  501    0  0.24121952095E+01 -0.40072217060E+02  0.19701525457E+04  0.19705615075E+04  0.00000000000E+00 0. -1.
<mgrwt>
<rscale>  4 0.25612899E+03</rscale>
<asrwt>0</asrwt>
<pdfrwt beam="1">  1       21 0.33719774E-01 0.25612899E+03</pdfrwt>
<pdfrwt beam="2">  1        2 0.36597585E+00 0.25612899E+03</pdfrwt>
<totfact> 0.49292851E+02</totfact>
</mgrwt>
</event>
<event>
 5    0  0.1239749E+000  0.2903118E+03  0.7546771E-02  0.1090186E+00
          2   -1    0    0  503    0 -0.00000000000E+00  0.00000000000E+00  0.14253536770E+03  0.14253536770E+03  0.00000000000E+00 0. -1.
         21   -1    0    0  501  502  0.00000000000E+00 -0.00000000000E+00 -0.16722490390E+04  0.16722490390E+04  0.00000000000E+00 0.  1.
         25    1    1    2    0    0 -0.22989079284E+03  0.64090972201E+02 -0.20118217445E+03  0.33623904691E+03  0.12500000000E+03 0.  0.
         21    1    1    2  503  502  0.25072086826E+03 -0.90400021122E+02 -0.13863273558E+04  0.14117140841E+04  0.00000000000E+00 0.  1.
          2    1    1    2  501    0 -0.20830075418E+02  0.26309048921E+02  0.57795858995E+02  0.66831275717E+02  0.00000000000E+00 0. -1.
<mgrwt>
<rscale>  4 0.29031184E+03</rscale>
<asrwt>0</asrwt>
<pdfrwt beam="1">  1       21 0.25726908E+00 0.29031184E+03</pdfrwt>
<pdfrwt beam="2">  1        2 0.21928519E-01 0.29031184E+03</pdfrwt>
<totfact> 0.17058686E+02</totfact>
</mgrwt>
</event>
<event>
 5    0  0.1239749E+000  0.2791571E+03  0.7546771E-02  0.1096150E+00
          2   -1    0    0  503    0 -0.00000000000E+00  0.00000000000E+00  0.89583357388E+03  0.89583357388E+03  0.00000000000E+00 0.  1.
         21   -1    0    0  501  502  0.00000000000E+00 -0.00000000000E+00 -0.19279956293E+03  0.19279956293E+03  0.00000000000E+00 0.  1.
         25    1    1    2    0    0 -0.24836920949E+03 -0.10159161819E+03  0.64626050056E+02  0.30300106841E+03  0.12500000000E+03 0.  0.
         21    1    1    2  503  502  0.22745886797E+03  0.48197364291E+02  0.11554957619E+03  0.25963864716E+03  0.00000000000E+00 0.  1.
          2    1    1    2  501    0  0.20910341520E+02  0.53394253895E+02  0.52285838471E+03  0.52599342124E+03  0.00000000000E+00 0.  1.
<mgrwt>
<rscale>  4 0.27915713E+03</rscale>
<asrwt>0</asrwt>
<pdfrwt beam="1">  1       21 0.29661472E-01 0.27915713E+03</pdfrwt>
<pdfrwt beam="2">  1        2 0.13782055E+00 0.27915713E+03</pdfrwt>
<totfact> 0.40990497E+03</totfact>
</mgrwt>
</event>
<event>
 5    0  0.1239749E+000  0.4016338E+03  0.7546771E-02  0.1043215E+00
          2   -1    0    0  503    0 -0.00000000000E+00  0.00000000000E+00  0.17817298781E+04  0.17817298781E+04  0.00000000000E+00 0.  1.
         21   -1    0    0  501  502  0.00000000000E+00 -0.00000000000E+00 -0.15600874854E+03  0.15600874854E+03  0.00000000000E+00 0.  1.
         25    1    1    2    0    0  0.38917575627E+03 -0.13231633028E+03  0.47995269451E+03  0.64416222296E+03  0.12500000000E+03 0.  0.
         21    1    1    2  503  502 -0.33647871390E+03  0.12433931849E+03  0.36773291298E+03  0.51371751607E+03  0.00000000000E+00 0.  1.
          2    1    1    2  501    0 -0.52697042370E+02  0.79770117887E+01  0.77803552210E+03  0.77985888765E+03  0.00000000000E+00 0.  1.
<mgrwt>
<rscale>  4 0.40163384E+03</rscale>
<asrwt>0</asrwt>
<pdfrwt beam="1">  1       21 0.24001347E-01 0.40163384E+03</pdfrwt>
<pdfrwt beam="2">  1        2 0.27411227E+00 0.40163384E+03</pdfrwt>
<totfact> 0.18779618E+03</totfact>
</mgrwt>
</event>
<event>
 5    0  0.1239749E+000  0.2770980E+03  0.7546771E-02  0.1097285E+00
         21   -1    0    0  501  502  0.00000000000E+00  0.00000000000E+00  0.24944832109E+03  0.24944832109E+03  0.00000000000E+00 0.  1.
          1   -1    0    0  503    0 -0.00000000000E+00 -0.00000000000E+00 -0.20061406376E+04  0.20061406376E+04  0.00000000000E+00 0.  1.
         25    1    1    2    0    0  0.11452532721E+03 -0.22956518734E+03  0.15074276168E+03  0.32274541981E+03  0.12500000000E+03 0.  0.
         21    1    1    2  503  502 -0.14181673018E+03  0.96281174558E+02 -0.89041681115E+03  0.90676576199E+03  0.00000000000E+00 0.  1.
          1    1    1    2  501    0  0.27291402971E+02  0.13328401278E+03 -0.10170182670E+04  0.10260777769E+04  0.00000000000E+00 0.  1.
<mgrwt>
<rscale>  4 0.27709795E+03</rscale>
<asrwt>0</asrwt>
<pdfrwt beam="1">  1       21 0.38376666E-01 0.27709795E+03</pdfrwt>
<pdfrwt beam="2">  1        1 0.30863701E+00 0.27709795E+03</pdfrwt>
<totfact> 0.23619734E+02</totfact>
</mgrwt>
</event>
<event>
 5    0  0.1239749E+000  0.2038521E+03  0.7546771E-02  0.1146529E+00
          1   -1    0    0  503    0 -0.00000000000E+00  0.00000000000E+00  0.15046919089E+04  0.15046919089E+04  0.00000000000E+00 0.  1.
         21   -1    0    0  501  502  0.00000000000E+00 -0.00000000000E+00 -0.52911546866E+02  0.52911546866E+02  0.00000000000E+00 0.  1.
         25    1    1    2    0    0 -0.13612512384E+03 -0.19417146129E+03  0.93384406258E+03  0.97155665760E+03  0.12500000000E+03 0.  0.
         21    1    1    2  503  502  0.12901867482E+03  0.64563987064E+02  0.26330174527E+03  0.30023679978E+03  0.00000000000E+00 0.  1.
          1    1    1    2  501    0  0.71064490203E+01  0.12960747422E+03  0.25463455418E+03  0.28580999838E+03  0.00000000000E+00 0.  1.
<mgrwt>
<rscale>  4 0.20385208E+03</rscale>
<asrwt>0</asrwt>
<pdfrwt beam="1">  1       21 0.81402391E-02 0.20385208E+03</pdfrwt>
<pdfrwt beam="2">  1        1 0.23149103E+00 0.20385208E+03</pdfrwt>
<totfact> 0.93596951E+03</totfact>
</mgrwt>
</event>
<event>
 5    0  0.1239749E+000  0.2587559E+03  0.7546771E-02  0.1107893E+00
          2   -1    0    0  503    0 -0.00000000000E+00  0.00000000000E+00  0.57346373432E+03  0.57346373432E+03  0.00000000000E+00 0. -1.
         21   -1    0    0  501  502  0.00000000000E+00 -0.00000000000E+00 -0.11601025667E+03  0.11601025667E+03  0.00000000000E+00 0. -1.
         25    1    1    2    0    0 -0.19905873057E+03 -0.10819068978E+03  0.13784068111E+03  0.29318024651E+03  0.12500000000E+03 0.  0.
         21    1    1    2  503  502  0.14006116783E+03  0.76702765670E+02  0.17465339752E+03  0.23665217992E+03  0.00000000000E+00 0. -1.
          2    1    1    2  501    0  0.58997562744E+02  0.31487924112E+02  0.14495939902E+03  0.15964156457E+03  0.00000000000E+00 0. -1.
<mgrwt>
<rscale>  4 0.25875588E+03</rscale>
<asrwt>0</asrwt>
<pdfrwt beam="1">  1       21 0.17847732E-01 0.25875588E+03</pdfrwt>
<pdfrwt beam="2">  1        2 0.88225188E-01 0.25875588E+03</pdfrwt>
<totfact> 0.18844157E+04</totfact>
</mgrwt>
</event>
<event>
 5    0  0.1239749E+000  0.2719898E+03  0.7546771E-02  0.1100146E+00
         21   -1    0    0  503  502  0.00000000000E+00  0.00000000000E+00  0.29079857181E+03  0.29079857181E+03  0.00000000000E+00 0.  1.
         -2   -1    0    0    0  501 -0.00000000000E+00 -0.00000000000E+00 -0.71401553207E+03  0.71401553207E+03  0.00000000000E+00 0. -1.
         25    1    1    2    0    0 -0.13293271323E+03 -0.21560882043E+03  0.25745968472E+02  0.28363026036E+03  0.12500000000E+03 0.  0.
         21    1    1    2  503  501 -0.77631410979E+02  0.92451580614E+02  0.75763850897E+02  0.14252751254E+03  0.00000000000E+00 0. -1.
         -2    1    1    2    0  502  0.21056412421E+03  0.12315723982E+03 -0.52472677962E+03  0.57865633098E+03  0.00000000000E+00 0. -1.
<mgrwt>
<rscale>  4 0.27198982E+03</rscale>
<asrwt>0</asrwt>
<pdfrwt beam="1">  1       21 0.44738242E-01 0.27198982E+03</pdfrwt>
<pdfrwt beam="2">  1       -2 0.10984854E+00 0.27198982E+03</pdfrwt>
<totfact> 0.26246877E+02</totfact>
</mgrwt>
</event>
<event>
 5    0  0.1239749E+000  0.2917485E+03  0.7546771E-02  0.1089440E+00
          2   -1    0    0  503    0 -0.00000000000E+00  0.00000000000E+00  0.19329898379E+04  0.19329898379E+04  0.00000000000E+00 0.  1.
         21   -1    0    0  501  502  0.00000000000E+00 -0.00000000000E+00 -0.96689082661E+02  0.96689082661E+02  0.00000000000E+00 0. -1.
         25    1    1    2    0    0 -0.14820611983E+03 -0.19561457303E+03  0.49300361424E+03  0.56471911495E+03  0.12500000000E+03 0.  0.
         21    1    1    2  503  502  0.19192644188E+03  0.19711877096E+03  0.25293793489E+03  0.37372338416E+03  0.00000000000E+00 0. -1.
          2    1    1    2  501    0 -0.43720322051E+02 -0.15041979332E+01  0.10903592061E+04  0.10912364215E+04  0.00000000000E+00 0.  1.
<mgrwt>
<rscale>  4 0.29174846E+03</rscale>
<asrwt>0</asrwt>
<pdfrwt beam="1">  1       21 0.14875245E-01 0.29174846E+03</pdfrwt>
<pdfrwt beam="2">  1        2 0.29738302E+00 0.29174846E+03</pdfrwt>
<totfact> 0.39814113E+03</totfact>
</mgrwt>
</event>
<event>
 5    0  0.1239749E+000  0.2910112E+03  0.7546771E-02  0.1089822E+00
         21   -1    0    0  501  502  0.00000000000E+00  0.00000000000E+00  0.36605739221E+03  0.36605739221E+03  0.00000000000E+00 0. -1.
          1   -1    0    0  503    0 -0.00000000000E+00 -0.00000000000E+00 -0.57129906205E+03  0.57129906205E+03  0.00000000000E+00 0.  1.
         25    1    1    2    0    0 -0.27347696175E+03  0.87452912683E+02  0.21467401291E+03  0.37966773943E+03  0.12500000000E+03 0.  0.
         21    1    1    2  503  502  0.15454539215E+03 -0.14925224454E+01 -0.37279842498E+03  0.40356557277E+03  0.00000000000E+00 0. -1.
          1    1    1    2  501    0  0.11893156960E+03 -0.85960390238E+02 -0.47117257779E+02  0.15412314206E+03  0.00000000000E+00 0.  1.
<mgrwt>
<rscale>  4 0.29101119E+03</rscale>
<asrwt>0</asrwt>
<pdfrwt beam="1">  1       21 0.56316522E-01 0.29101119E+03</pdfrwt>
<pdfrwt beam="2">  1        1 0.87892163E-01 0.29101119E+03</pdfrwt>
<totfact> 0.11881527E+03</totfact>
</mgrwt>
</event>
<event>
 5    0  0.1239749E+000  0.2492037E+03  0.7546771E-02  0.1113809E+00
         21   -1    0    0  501  502  0.00000000000E+00  0.00000000000E+00  0.29526129010E+03  0.29526129010E+03  0.00000000000E+00 0.  1.
          1   -1    0    0  503    0 -0.00000000000E+00 -0.00000000000E+00 -0.14273227441E+04  0.14273227441E+04  0.00000000000E+00 0.  1.
         25    1    1    2    0    0  0.97395053587E+02  0.22456874153E+03 -0.44573041927E+02  0.27843971017E+03  0.12500000000E+03 0.  0.
         21    1    1    2  503  502 -0.76130674506E+02 -0.19028343384E+03  0.11899380898E+03  0.23698774518E+03  0.00000000000E+00 0.  1.
          1    1    1    2  501    0 -0.21264379082E+02 -0.34285307694E+02 -0.12064822210E+04  0.12071565788E+04  0.00000000000E+00 0.  1.
<mgrwt>
<rscale>  4 0.24920371E+03</rscale>
<asrwt>0</asrwt>
<pdfrwt beam="1">  1       21 0.45424814E-01 0.24920371E+03</pdfrwt>
<pdfrwt beam="2">  1        1 0.21958811E+00 0.24920371E+03</pdfrwt>
<totfact> 0.40663412E+02</totfact>
</mgrwt>
</event>
<event>
 5    0  0.1239749E+000  0.2929745E+03  0.7546771E-02  0.1088806E+00
         21   -1    0    0  501  502  0.00000000000E+00  0.00000000000E+00  0.99845750047E+02  0.99845750047E+02  0.00000000000E+00 0.  1.
          2   -1    0    0  503    0 -0.00000000000E+00 -0.00000000000E+00 -0.22639178706E+04  0.22639178706E+04  0.00000000000E+00 0. -1.
         25    1    1    2    0    0 -0.14801917846E+03  0.16945618102E+03 -0.94004716277E+03  0.97464800965E+03  0.12500000000E+03 0.  0.
         21    1    1    2  503  502  0.18252518279E+03 -0.20511918192E+03 -0.14794619234E+03  0.31189324612E+03  0.00000000000E+00 0.  1.
          2    1    1    2  501    0 -0.34506004334E+02  0.35663000898E+02 -0.10760787655E+04  0.10772223649E+04  0.00000000000E+00 0. -1.
<mgrwt>
<rscale>  4 0.29297455E+03</rscale>
<asrwt>0</asrwt>
<pdfrwt beam="1">  1       21 0.15360885E-01 0.29297455E+03</pdfrwt>
<pdfrwt beam="2">  1        2 0.34829504E+00 0.29297455E+03</pdfrwt>
<totfact> 0.25033280E+03</totfact>
</mgrwt>
</event>
<event>
 5    0  0.1239749E+000  0.2400829E+03  0.7546771E-02  0.1119738E+00
         21   -1    0    0  501  502  0.00000000000E+00  0.00000000000E+00  0.11380509186E+03  0.11380509186E+03  0.00000000000E+00 0. -1.
          2   -1    0    0  503    0 -0.00000000000E+00 -0.00000000000E+00 -0.67773307802E+03  0.67773307802E+03  0.00000000000E+00 0. -1.
         25    1    1    2    0    0  0.18253205936E+03  0.10246561629E+03 -0.11799827925E+03  0.27086112516E+03  0.12500000000E+03 0.  0.
         21    1    1    2  503  502 -0.15594529650E+03 -0.12585170295E+03 -0.24436109969E+03  0.31602204619E+03  0.00000000000E+00 0. -1.
          2    1    1    2  501    0 -0.26586762865E+02  0.23386086656E+02 -0.20156860721E+03  0.20465499853E+03  0.00000000000E+00 0. -1.
<mgrwt>
<rscale>  4 0.24008290E+03</rscale>
<asrwt>0</asrwt>
<pdfrwt beam="1">  1       21 0.17508476E-01 0.24008290E+03</pdfrwt>
<pdfrwt beam="2">  1        2 0.10426662E+00 0.24008290E+03</pdfrwt>
<totfact> 0.16093103E+04</totfact>
</mgrwt>
</event>
<event>
 5    0  0.1239749E+000  0.3538247E+03  0.7546771E-02  0.1061056E+00
         21   -1    0    0  501  502  0.00000000000E+00  0.00000000000E+00  0.21983367657E+03  0.21983367657E+03  0.00000000000E+00 0. -1.
          1   -1    0    0  503    0 -0.00000000000E+00 -0.00000000000E+00 -0.21173248720E+04  0.21173248720E+04  0.00000000000E+00 0.  1.
         25    1    1    2    0    0 -0.12455925340E+03 -0.33506078185E+03 -0.10106553517E+03  0.39194384488E+03  0.12500000000E+03 0.  0.
         21    1    1    2  503  502  0.30743873712E+03  0.15389795359E+03 -0.40990436037E+03  0.53499975874E+03  0.00000000000E+00 0.  1.
          1    1    1    2  501    0 -0.18287948372E+03  0.18116282826E+03 -0.13865212999E+04  0.14102149449E+04  0.00000000000E+00 0.  1.
<mgrwt>
<rscale>  4 0.35382466E+03</rscale>
<asrwt>0</asrwt>
<pdfrwt beam="1">  1       21 0.33820567E-01 0.35382466E+03</pdfrwt>
<pdfrwt beam="2">  1        1 0.32574227E+00 0.35382466E+03</pdfrwt>
<totfact> 0.24794163E+02</totfact>
</mgrwt>
</event>
<event>
 5    0  0.1239749E+000  0.4524742E+03  0.7546771E-02  0.1026987E+00
          2   -1    0    0  503    0 -0.00000000000E+00  0.00000000000E+00  0.64464556237E+03  0.64464556237E+03  0.00000000000E+00 0.  1.
         21   -1    0    0  501  502  0.00000000000E+00 -0.00000000000E+00 -0.18509909528E+04  0.18509909528E+04  0.00000000000E+00 0. -1.
         25    1    1    2    0    0  0.19947777460E+02 -0.44145766365E+03 -0.10145789895E+04  0.11136778298E+04  0.12500000000E+03 0.  0.
         21    1    1    2  503  502  0.18096491133E+02  0.42711759969E+03 -0.72797103122E+03  0.84421487150E+03  0.00000000000E+00 0. -1.
          2    1    1    2  501    0 -0.38044268593E+02  0.14340063958E+02  0.53620463030E+03  0.53774381388E+03  0.00000000000E+00 0.  1.
<mgrwt>
<rscale>  4 0.45247415E+03</rscale>
<asrwt>0</asrwt>
<pdfrwt beam="1">  1       21 0.28476784E+00 0.45247415E+03</pdfrwt>
<pdfrwt beam="2">  1        2 0.99176240E-01 0.45247415E+03</pdfrwt>
<totfact> 0.19598863E+01</totfact>
</mgrwt>
</event>
<event>
 5    0  0.1239749E+000  0.2264274E+03  0.7546771E-02  0.1129180E+00
         21   -1    0    0  501  502  0.00000000000E+00  0.00000000000E+00  0.25537683886E+03  0.25537683886E+03  0.00000000000E+00 0. -1.
          1   -1    0    0  503    0 -0.00000000000E+00 -0.00000000000E+00 -0.80302650285E+03  0.80302650285E+03  0.00000000000E+00 0. -1.
         25    1    1    2    0    0 -0.12467388343E+03 -0.16419959879E+03  0.12392117476E+03  0.27108401467E+03  0.12500000000E+03 0.  0.
         21    1    1    2  503  502  0.94236491730E+02  0.13148935273E+03 -0.57592563302E+02  0.17171741206E+03  0.00000000000E+00 0. -1.
          1    1    1    2  501    0  0.30437391701E+02  0.32710246063E+02 -0.61397827545E+03  0.61560191499E+03  0.00000000000E+00 0. -1.
<mgrwt>
<rscale>  4 0.22642740E+03</rscale>
<asrwt>0</asrwt>
<pdfrwt beam="1">  1       21 0.39288745E-01 0.22642740E+03</pdfrwt>
<pdfrwt beam="2">  1        1 0.12354254E+00 0.22642740E+03</pdfrwt>
<totfact> 0.15736608E+03</totfact>
</mgrwt>
</event>
<event>
 5    0  0.1239749E+000  0.2585663E+03  0.7546771E-02  0.1108008E+00
         21   -1    0    0  501  502  0.00000000000E+00  0.00000000000E+00  0.37117057456E+03  0.37117057456E+03  0.00000000000E+00 0.  1.
          3   -1    0    0  503    0 -0.00000000000E+00 -0.00000000000E+00 -0.13748032179E+04  0.13748032179E+04  0.00000000000E+00 0.  1.
         25    1    1    2    0    0 -0.11875422059E+03 -0.19953852585E+03  0.27537113457E+03  0.38127739241E+03  0.12500000000E+03 0.  0.
         21    1    1    2  503  502  0.10580328882E+03  0.17010339444E+03 -0.19284737639E+03  0.27806404173E+03  0.00000000000E+00 0.  1.
          3    1    1    2  501    0  0.12950931772E+02  0.29435131405E+02 -0.10861564015E+04  0.10866323583E+04  0.00000000000E+00 0.  1.
<mgrwt>
<rscale>  4 0.25856626E+03</rscale>
<asrwt>0</asrwt>
<pdfrwt beam="1">  1       21 0.57103165E-01 0.25856626E+03</pdfrwt>
<pdfrwt beam="2">  1        3 0.21150819E+00 0.25856626E+03</pdfrwt>
<totfact> 0.18960223E+01</totfact>
</mgrwt>
</event>
<event>
 5    0  0.1239749E+000  0.3336277E+03  0.7546771E-02  0.1069543E+00
         21   -1    0    0  501  502  0.00000000000E+00  0.00000000000E+00  0.10841880680E+03  0.10841880680E+03  0.00000000000E+00 0.  1.
          2   -1    0    0  503    0 -0.00000000000E+00 -0.00000000000E+00 -0.29438197091E+04  0.29438197091E+04  0.00000000000E+00 0. -1.
         25    1    1    2    0    0  0.17137325222E+03  0.25531066676E+03 -0.20586132593E+03  0.39058445137E+03  0.12500000000E+03 0.  0.
         21    1    1    2  503  502 -0.13970017937E+03 -0.29058277884E+03 -0.16638293713E+04  0.16947810089E+04  0.00000000000E+00 0. -1.
          2    1    1    2  501    0 -0.31673072852E+02  0.35272112081E+02 -0.96571020508E+03  0.96687305559E+03  0.00000000000E+00 0. -1.
<mgrwt>
<rscale>  4 0.33362768E+03</rscale>
<asrwt>0</asrwt>
<pdfrwt beam="1">  1       21 0.16679817E-01 0.33362768E+03</pdfrwt>
<pdfrwt beam="2">  1        2 0.45289533E+00 0.33362768E+03</pdfrwt>
<totfact> 0.87847600E+02</totfact>
</mgrwt>
</event>
<event>
 5    0  0.1239749E+000  0.3417597E+03  0.7546771E-02  0.1066049E+00
         21   -1    0    0  501  502  0.00000000000E+00  0.00000000000E+00  0.27000342040E+03  0.27000342040E+03  0.00000000000E+00 0.  1.
          2   -1    0    0  503    0 -0.00000000000E+00 -0.00000000000E+00 -0.20672836416E+04  0.20672836416E+04  0.00000000000E+00 0.  1.
         25    1    1    2    0    0  0.28787505880E+02 -0.34742928435E+03  0.11437815245E+02  0.37052888111E+03  0.12500000000E+03 0.  0.
         21    1    1    2  503  502 -0.44457014568E+02  0.27330584547E+03 -0.16713841910E+03  0.32343123296E+03  0.00000000000E+00 0.  1.
          2    1    1    2  501    0  0.15669508689E+02  0.74123438884E+02 -0.16415796174E+04  0.16433269479E+04  0.00000000000E+00 0.  1.
<mgrwt>
<rscale>  4 0.34175972E+03</rscale>
<asrwt>0</asrwt>
<pdfrwt beam="1">  1       21 0.41538987E-01 0.34175972E+03</pdfrwt>
<pdfrwt beam="2">  1        2 0.31804364E+00 0.34175972E+03</pdfrwt>
<totfact> 0.45349785E+02</totfact>
</mgrwt>
</event>
<event>
 5    0  0.1239749E+000  0.3301721E+03  0.7546771E-02  0.1071061E+00
          2   -1    0    0  503    0 -0.00000000000E+00  0.00000000000E+00  0.67850697241E+03  0.67850697241E+03  0.00000000000E+00 0. -1.
         21   -1    0    0  501  502  0.00000000000E+00 -0.00000000000E+00 -0.65806025056E+03  0.65806025056E+03  0.00000000000E+00 0. -1.
         25    1    1    2    0    0  0.29534537553E+03 -0.78483872366E+02 -0.57307110761E+03  0.66138045287E+03  0.12500000000E+03 0.  0.
         21    1    1    2  503  502 -0.25515554278E+03  0.69981838155E+02  0.41623838227E+03  0.49321009677E+03  0.00000000000E+00 0. -1.
          2    1    1    2  501    0 -0.40189832749E+02  0.85020342111E+01  0.17727944719E+03  0.18197667333E+03  0.00000000000E+00 0. -1.
<mgrwt>
<rscale>  4 0.33017209E+03</rscale>
<asrwt>0</asrwt>
<pdfrwt beam="1">  1       21 0.10124004E+00 0.33017209E+03</pdfrwt>
<pdfrwt beam="2">  1        2 0.10438569E+00 0.33017209E+03</pdfrwt>
<totfact> 0.40730514E+02</totfact>
</mgrwt>
</event>
<event>
 5    0  0.1239749E+000  0.2637051E+03  0.7546771E-02  0.1104937E+00
          2   -1    0    0  503    0 -0.00000000000E+00  0.00000000000E+00  0.15764783372E+04  0.15764783372E+04  0.00000000000E+00 0. -1.
         21   -1    0    0  501  502  0.00000000000E+00 -0.00000000000E+00 -0.17218479671E+03  0.17218479671E+03  0.00000000000E+00 0. -1.
         25    1    1    2    0    0  0.14094417077E+03 -0.16296650644E+03  0.17553410371E+03  0.30473031202E+03  0.12500000000E+03 0.  0.
         21    1    1    2  503  502 -0.23186398367E+03  0.98352168132E+02  0.46124945240E+02  0.25604992965E+03  0.00000000000E+00 0. -1.
          2    1    1    2  501    0  0.90919812898E+02  0.64614338309E+02  0.11826344915E+04  0.11878828922E+04  0.00000000000E+00 0. -1.
<mgrwt>
<rscale>  4 0.26370507E+03</rscale>
<asrwt>0</asrwt>
<pdfrwt beam="1">  1       21 0.26489970E-01 0.26370507E+03</pdfrwt>
<pdfrwt beam="2">  1        2 0.24253512E+00 0.26370507E+03</pdfrwt>
<totfact> 0.20935041E+03</totfact>
</mgrwt>
</event>
<event>
 5    0  0.1239749E+000  0.4007942E+03  0.7546771E-02  0.1043505E+00
         21   -1    0    0  503  502  0.00000000000E+00  0.00000000000E+00  0.11719214643E+04  0.11719214643E+04  0.00000000000E+00 0. -1.
         -1   -1    0    0    0  501 -0.00000000000E+00 -0.00000000000E+00 -0.13672008569E+04  0.13672008569E+04  0.00000000000E+00 0. -1.
         25    1    1    2    0    0 -0.30516432183E+03 -0.22845454592E+03  0.10952363999E+04  0.11663980943E+04  0.12500000000E+03 0.  0.
         21    1    1    2  503  501  0.63059952576E+02 -0.62055498035E+02 -0.20715101155E+03  0.22525315546E+03  0.00000000000E+00 0. -1.
         -1    1    1    2    0  502  0.24210436926E+03  0.29051004395E+03 -0.10833647809E+04  0.11474710714E+04  0.00000000000E+00 0. -1.
<mgrwt>
<rscale>  4 0.40079417E+03</rscale>
<asrwt>0</asrwt>
<pdfrwt beam="1">  1       21 0.18029561E+00 0.40079417E+03</pdfrwt>
<pdfrwt beam="2">  1       -1 0.21033859E+00 0.40079417E+03</pdfrwt>
<totfact> 0.20651029E+00</totfact>
</mgrwt>
</event>
<event>
 5    0  0.1239749E+000  0.2842992E+03  0.7546771E-02  0.1093364E+00
         21   -1    0    0  501  502  0.00000000000E+00  0.00000000000E+00  0.39709285770E+03  0.39709285770E+03  0.00000000000E+00 0.  1.
          2   -1    0    0  503    0 -0.00000000000E+00 -0.00000000000E+00 -0.24739835762E+04  0.24739835762E+04  0.00000000000E+00 0.  1.
         25    1    1    2    0    0 -0.11696931027E+03 -0.22697842554E+03  0.33683490312E+03  0.44077633462E+03  0.12500000000E+03 0.  0.
         21    1    1    2  503  502  0.61857564991E+02  0.15141096818E+03 -0.98244131130E+03  0.99596313676E+03  0.00000000000E+00 0.  1.
          2    1    1    2  501    0  0.55111745278E+02  0.75567457364E+02 -0.14312843103E+04  0.14343369625E+04  0.00000000000E+00 0.  1.
<mgrwt>
<rscale>  4 0.28429918E+03</rscale>
<asrwt>0</asrwt>
<pdfrwt beam="1">  1       21 0.61091210E-01 0.28429918E+03</pdfrwt>
<pdfrwt beam="2">  1        2 0.38061285E+00 0.28429918E+03</pdfrwt>
<totfact> 0.12510602E+02</totfact>
</mgrwt>
</event>
<event>
 5    0  0.1239749E+000  0.1788264E+03  0.7546771E-02  0.1168944E+00
         21   -1    0    0  501  502  0.00000000000E+00  0.00000000000E+00  0.12061490629E+04  0.12061490629E+04  0.00000000000E+00 0.  1.
          2   -1    0    0  503    0 -0.00000000000E+00 -0.00000000000E+00 -0.43324649456E+03  0.43324649456E+03  0.00000000000E+00 0.  1.
         25    1    1    2    0    0 -0.14940030244E+03  0.16680556875E+03  0.22141210584E+03  0.33881096314E+03  0.12500000000E+03 0.  0.
         21    1    1    2  503  502  0.81689318859E+02 -0.62440457060E+02  0.91274038206E+03  0.91851345148E+03  0.00000000000E+00 0.  1.
          2    1    1    2  501    0  0.67710983583E+02 -0.10436511169E+03 -0.36124991954E+03  0.38207114285E+03  0.00000000000E+00 0.  1.
<mgrwt>
<rscale>  4 0.17882639E+03</rscale>
<asrwt>0</asrwt>
<pdfrwt beam="1">  1       21 0.18556139E+00 0.17882639E+03</pdfrwt>
<pdfrwt beam="2">  1        2 0.66653308E-01 0.17882639E+03</pdfrwt>
<totfact> 0.15432088E+02</totfact>
</mgrwt>
</event>
<event>
 5    0  0.1239749E+000  0.2576079E+03  0.7546771E-02  0.1108589E+00
          2   -1    0    0  503    0 -0.00000000000E+00  0.00000000000E+00  0.10605489120E+04  0.10605489120E+04  0.00000000000E+00 0. -1.
         21   -1    0    0  501  502  0.00000000000E+00 -0.00000000000E+00 -0.66389398571E+03  0.66389398571E+03  0.00000000000E+00 0. -1.
         25    1    1    2    0    0 -0.16197286888E+03  0.16193359720E+03 -0.61096253653E+03  0.66434774117E+03  0.12500000000E+03 0.  0.
         21    1    1    2  503  502  0.17339586820E+02 -0.53452796473E+02  0.70749638741E+03  0.70972459512E+03  0.00000000000E+00 0. -1.
          2    1    1    2  501    0  0.14463328206E+03 -0.10848080073E+03  0.30012107541E+03  0.35037056142E+03  0.00000000000E+00 0. -1.
<mgrwt>
<rscale>  4 0.25760794E+03</rscale>
<asrwt>0</asrwt>
<pdfrwt beam="1">  1       21 0.10213754E+00 0.25760794E+03</pdfrwt>
<pdfrwt beam="2">  1        2 0.16316137E+00 0.25760794E+03</pdfrwt>
<totfact> 0.22901072E+02</totfact>
</mgrwt>
</event>
<event>
 5    0  0.1239749E+000  0.2896399E+03  0.7546771E-02  0.1090537E+00
         21   -1    0    0  501  502  0.00000000000E+00  0.00000000000E+00  0.17812907842E+03  0.17812907842E+03  0.00000000000E+00 0. -1.
          2   -1    0    0  503    0 -0.00000000000E+00 -0.00000000000E+00 -0.10363328235E+04  0.10363328235E+04  0.00000000000E+00 0. -1.
         25    1    1    2    0    0 -0.15568020697E+03 -0.25363985577E+03 -0.67180133940E+02  0.32970846770E+03  0.12500000000E+03 0.  0.
         21    1    1    2  503  502 -0.30920291683E+02  0.18415058714E+03 -0.28249592453E+03  0.33863173294E+03  0.00000000000E+00 0. -1.
          2    1    1    2  501    0  0.18660049865E+03  0.69489268636E+02 -0.50852768666E+03  0.54612170132E+03  0.00000000000E+00 0. -1.
<mgrwt>
<rscale>  4 0.28963993E+03</rscale>
<asrwt>0</asrwt>
<pdfrwt beam="1">  1       21 0.27404473E-01 0.28963993E+03</pdfrwt>
<pdfrwt beam="2">  1        2 0.15943582E+00 0.28963993E+03</pdfrwt>
<totfact> 0.38944046E+03</totfact>
</mgrwt>
</event>
<event>
 5    0  0.1239749E+000  0.1775288E+03  0.7546771E-02  0.1170216E+00
         21   -1    0    0  501  502  0.00000000000E+00  0.00000000000E+00  0.18617095640E+04  0.18617095640E+04  0.00000000000E+00 0.  1.
          1   -1    0    0  503    0 -0.00000000000E+00 -0.00000000000E+00 -0.95546865894E+02  0.95546865894E+02  0.00000000000E+00 0.  1.
         25    1    1    2    0    0 -0.69166309630E+02 -0.20134151818E+03  0.15442237310E+04  0.15638332125E+04  0.12500000000E+03 0.  0.
         21    1    1    2  503  502 -0.16157536268E+02  0.11169749399E+03  0.24295852490E+03  0.26789221893E+03  0.00000000000E+00 0.  1.
          1    1    1    2  501    0  0.85323845898E+02  0.89644024186E+02 -0.21019557788E+02  0.12553099841E+03  0.00000000000E+00 0.  1.
<mgrwt>
<rscale>  4 0.17752881E+03</rscale>
<asrwt>0</asrwt>
<pdfrwt beam="1">  1       21 0.28641683E+00 0.17752881E+03</pdfrwt>
<pdfrwt beam="2">  1        1 0.14699519E-01 0.17752881E+03</pdfrwt>
<totfact> 0.17017461E+02</totfact>
</mgrwt>
</event>
<event>
 5    0  0.1239749E+000  0.2497453E+03  0.7546771E-02  0.1113466E+00
         21   -1    0    0  501  502  0.00000000000E+00  0.00000000000E+00  0.52261201871E+03  0.52261201871E+03  0.00000000000E+00 0.  1.
          1   -1    0    0  503    0 -0.00000000000E+00 -0.00000000000E+00 -0.91411130667E+03  0.91411130667E+03  0.00000000000E+00 0.  1.
         25    1    1    2    0    0 -0.45547641371E+02  0.21343666546E+03  0.47319531603E+03  0.53588114812E+03  0.12500000000E+03 0.  0.
         21    1    1    2  503  502  0.88751400812E+02 -0.16124688953E+03 -0.59864321252E+03  0.62629950217E+03  0.00000000000E+00 0.  1.
          1    1    1    2  501    0 -0.43203759441E+02 -0.52189775925E+02 -0.26605139147E+03  0.27454267509E+03  0.00000000000E+00 0.  1.
<mgrwt>
<rscale>  4 0.24974526E+03</rscale>
<asrwt>0</asrwt>
<pdfrwt beam="1">  1       21 0.80401849E-01 0.24974526E+03</pdfrwt>
<pdfrwt beam="2">  1        1 0.14063251E+00 0.24974526E+03</pdfrwt>
<totfact> 0.27336331E+02</totfact>
</mgrwt>
</event>
<event>
 5    0  0.1239749E+000  0.3088254E+03  0.7546771E-02  0.1080910E+00
          2   -1    0    0  503    0 -0.00000000000E+00  0.00000000000E+00  0.66001333516E+03  0.66001333516E+03  0.00000000000E+00 0. -1.
         21   -1    0    0  501  502  0.00000000000E+00 -0.00000000000E+00 -0.26504711646E+03  0.26504711646E+03  0.00000000000E+00 0. -1.
         25    1    1    2    0    0 -0.14965246819E+03  0.26114848256E+03  0.12176567662E+03  0.34791704641E+03  0.12500000000E+03 0.  0.
         21    1    1    2  503  502 -0.33907982320E+02 -0.28910034676E+03  0.26117671366E+03  0.39107804531E+03  0.00000000000E+00 0. -1.
          2    1    1    2  501    0  0.18356045051E+03  0.27951864205E+02  0.12023828411E+02  0.18606535990E+03  0.00000000000E+00 0. -1.
<mgrwt>
<rscale>  4 0.30882541E+03</rscale>
<asrwt>0</asrwt>
<pdfrwt beam="1">  1       21 0.40776480E-01 0.30882541E+03</pdfrwt>
<pdfrwt beam="2">  1        2 0.10154051E+00 0.30882541E+03</pdfrwt>
<totfact> 0.31637303E+03</totfact>
</mgrwt>
</event>
<event>
 5    0  0.1239749E+000  0.2695321E+03  0.7546771E-02  0.1101548E+00
          1   -1    0    0  503    0 -0.00000000000E+00  0.00000000000E+00  0.65653584501E+03  0.65653584501E+03  0.00000000000E+00 0. -1.
         21   -1    0    0  501  502  0.00000000000E+00 -0.00000000000E+00 -0.18281790173E+03  0.18281790173E+03  0.00000000000E+00 0. -1.
         25    1    1    2    0    0  0.11080223329E+03 -0.22702294724E+03  0.15943659550E+03  0.32382338004E+03  0.12500000000E+03 0.  0.
         21    1    1    2  503  502 -0.17509359610E+03  0.15952539127E+03  0.59491539557E+02  0.24422399787E+03  0.00000000000E+00 0. -1.
          1    1    1    2  501    0  0.64291362809E+02  0.67497555976E+02  0.25478980822E+03  0.27130636883E+03  0.00000000000E+00 0. -1.
<mgrwt>
<rscale>  4 0.26953206E+03</rscale>
<asrwt>0</asrwt>
<pdfrwt beam="1">  1       21 0.28125831E-01 0.26953206E+03</pdfrwt>
<pdfrwt beam="2">  1        1 0.10100551E+00 0.26953206E+03</pdfrwt>
<totfact> 0.40567662E+03</totfact>
</mgrwt>
</event>
<event>
 5    0  0.1239749E+000  0.2672991E+03  0.7546771E-02  0.1102835E+00
          2   -1    0    0  503    0 -0.00000000000E+00  0.00000000000E+00  0.24764400949E+04  0.24764400949E+04  0.00000000000E+00 0. -1.
         21   -1    0    0  501  502  0.00000000000E+00 -0.00000000000E+00 -0.35515280091E+02  0.35515280091E+02  0.00000000000E+00 0. -1.
         25    1    1    2    0    0  0.19559888142E+03 -0.12494944587E+03  0.88708098019E+03  0.92542366073E+03  0.12500000000E+03 0.  0.
         21    1    1    2  503  502  0.43110588130E+02  0.57615588941E+02  0.31698343294E+03  0.32504857430E+03  0.00000000000E+00 0. -1.
          2    1    1    2  501    0 -0.23870946955E+03  0.67333856928E+02  0.12368604017E+04  0.12614831400E+04  0.00000000000E+00 0. -1.
<mgrwt>
<rscale>  4 0.26729907E+03</rscale>
<asrwt>0</asrwt>
<pdfrwt beam="1">  1       21 0.54638912E-02 0.26729907E+03</pdfrwt>
<pdfrwt beam="2">  1        2 0.38099065E+00 0.26729907E+03</pdfrwt>
<totfact> 0.12129750E+04</totfact>
</mgrwt>
</event>
<event>
 5    0  0.1239749E+000  0.1901013E+03  0.7546771E-02  0.1158370E+00
          1   -1    0    0  503    0 -0.00000000000E+00  0.00000000000E+00  0.91156484292E+03  0.91156484292E+03  0.00000000000E+00 0. -1.
         21   -1    0    0  501  502  0.00000000000E+00 -0.00000000000E+00 -0.69872015958E+02  0.69872015958E+02  0.00000000000E+00 0. -1.
         25    1    1    2    0    0 -0.16888420448E+03 -0.12128374756E+03  0.30771778931E+03  0.39185055800E+03  0.12500000000E+03 0.  0.
         21    1    1    2  503  502  0.66908398961E+02  0.66139379154E+02  0.40664428495E+03  0.41738558410E+03  0.00000000000E+00 0. -1.
          1    1    1    2  501    0  0.10197580552E+03  0.55144368404E+02  0.12733075270E+03  0.17220071678E+03  0.00000000000E+00 0. -1.
<mgrwt>
<rscale>  4 0.19010131E+03</rscale>
<asrwt>0</asrwt>
<pdfrwt beam="1">  1       21 0.10749542E-01 0.19010131E+03</pdfrwt>
<pdfrwt beam="2">  1        1 0.14024074E+00 0.19010131E+03</pdfrwt>
<totfact> 0.14980029E+04</totfact>
</mgrwt>
</event>
<event>
 5    0  0.1239749E+000  0.2537208E+03  0.7546771E-02  0.1110976E+00
         21   -1    0    0  503  502  0.00000000000E+00  0.00000000000E+00  0.20777375915E+04  0.20777375915E+04  0.00000000000E+00 0. -1.
         -4   -1    0    0    0  501 -0.00000000000E+00 -0.00000000000E+00 -0.13773443693E+03  0.13773443693E+03  0.00000000000E+00 0. -1.
         25    1    1    2    0    0 -0.17362493472E+03  0.13957573037E+03  0.14446181443E+04  0.14670288290E+04  0.12500000000E+03 0.  0.
         21    1    1    2  503  501  0.18869217410E+03 -0.11088303367E+03  0.60013356262E+03  0.63879580204E+03  0.00000000000E+00 0. -1.
         -4    1    1    2    0  502 -0.15067239388E+02 -0.28692696704E+02 -0.10474855229E+03  0.10964739738E+03  0.00000000000E+00 0. -1.
<mgrwt>
<rscale>  4 0.25372075E+03</rscale>
<asrwt>0</asrwt>
<pdfrwt beam="1">  1       21 0.31965191E+00 0.25372075E+03</pdfrwt>
<pdfrwt beam="2">  1       -4 0.21189915E-01 0.25372075E+03</pdfrwt>
<totfact> 0.21383980E+01</totfact>
</mgrwt>
</event>
<event>
 5    0  0.1239749E+000  0.2654710E+03  0.7546771E-02  0.1103900E+00
          1   -1    0    0  503    0 -0.00000000000E+00  0.00000000000E+00  0.16141862164E+04  0.16141862164E+04  0.00000000000E+00 0.  1.
         21   -1    0    0  501  502  0.00000000000E+00 -0.00000000000E+00 -0.24329451537E+03  0.24329451537E+03  0.00000000000E+00 0.  1.
         25    1    1    2    0    0 -0.23829207266E+03  0.79118343282E+02  0.27648786579E+03  0.39384433989E+03  0.12500000000E+03 0.  0.
         21    1    1    2  503  502  0.21479585061E+03 -0.83980307211E+02 -0.11242276581E+03  0.25657129168E+03  0.00000000000E+00 0.  1.
          1    1    1    2  501    0  0.23496222048E+02  0.48619639285E+01  0.12068266011E+04  0.12070651002E+04  0.00000000000E+00 0.  1.
<mgrwt>
<rscale>  4 0.26547104E+03</rscale>
<asrwt>0</asrwt>
<pdfrwt beam="1">  1       21 0.37429926E-01 0.26547104E+03</pdfrwt>
<pdfrwt beam="2">  1        1 0.24833633E+00 0.26547104E+03</pdfrwt>
<totfact> 0.45021217E+02</totfact>
</mgrwt>
</event>
<event>
 5    0  0.1239749E+000  0.2300732E+03  0.7546771E-02  0.1126588E+00
          2   -1    0    0  503    0 -0.00000000000E+00  0.00000000000E+00  0.11734359688E+04  0.11734359688E+04  0.00000000000E+00 0.  1.
         21   -1    0    0  501  502  0.00000000000E+00 -0.00000000000E+00 -0.71630082520E+02  0.71630082520E+02  0.00000000000E+00 0. -1.
         25    1    1    2    0    0  0.14046800692E+03 -0.14672140860E+03  0.38813670008E+03  0.45555848215E+03  0.12500000000E+03 0.  0.
         21    1    1    2  503  502 -0.12029770890E+03  0.14420771468E+03  0.19602667079E+03  0.27146612938E+03  0.00000000000E+00 0. -1.
          2    1    1    2  501    0 -0.20170298025E+02  0.25136939281E+01  0.51764251538E+03  0.51804143976E+03  0.00000000000E+00 0.  1.
<mgrwt>
<rscale>  4 0.23007318E+03</rscale>
<asrwt>0</asrwt>
<pdfrwt beam="1">  1       21 0.11020014E-01 0.23007318E+03</pdfrwt>
<pdfrwt beam="2">  1        2 0.18052860E+00 0.23007318E+03</pdfrwt>
<totfact> 0.17887791E+04</totfact>
</mgrwt>
</event>
<event>
 5    0  0.1239749E+000  0.2951570E+03  0.7546771E-02  0.1087687E+00
         21   -1    0    0  503  502  0.00000000000E+00  0.00000000000E+00  0.23413005771E+03  0.23413005771E+03  0.00000000000E+00 0. -1.
         -3   -1    0    0    0  501 -0.00000000000E+00 -0.00000000000E+00 -0.18980637181E+04  0.18980637181E+04  0.00000000000E+00 0.  1.
         25    1    1    2    0    0 -0.32872802515E+03  0.16586523147E+03 -0.13942282465E+03  0.41308245371E+03  0.12500000000E+03 0.  0.
         21    1    1    2  503  501  0.66659649151E+02 -0.16688314933E+03 -0.77442653721E+01  0.17987069801E+03  0.00000000000E+00 0. -1.
         -3    1    1    2    0  502  0.26206837600E+03  0.10179178601E+01 -0.15167665703E+04  0.15392406241E+04  0.00000000000E+00 0.  1.
<mgrwt>
<rscale>  4 0.29515698E+03</rscale>
<asrwt>0</asrwt>
<pdfrwt beam="1">  1       21 0.36020010E-01 0.29515698E+03</pdfrwt>
<pdfrwt beam="2">  1       -3 0.29200979E+00 0.29515698E+03</pdfrwt>
<totfact> 0.17085159E+01</totfact>
</mgrwt>
</event>
<event>
 5    0  0.1239749E+000  0.7215985E+03  0.7546771E-02  0.9680993E-01
          1   -1    0    0  503    0 -0.00000000000E+00  0.00000000000E+00  0.74997615398E+03  0.74997615398E+03  0.00000000000E+00 0. -1.
         21   -1    0    0  501  502  0.00000000000E+00 -0.00000000000E+00 -0.16987760951E+04  0.16987760951E+04  0.00000000000E+00 0. -1.
         25    1    1    2    0    0 -0.44871163197E+03 -0.61840965231E+03 -0.88970327344E+03  0.11793937178E+04  0.12500000000E+03 0.  0.
         21    1    1    2  503  502  0.43922384603E+03  0.48306845339E+03 -0.49082622324E+03  0.81681276863E+03  0.00000000000E+00 0. -1.
          1    1    1    2  501    0  0.94877859425E+01  0.13534119892E+03  0.43172955555E+03  0.45254576270E+03  0.00000000000E+00 0. -1.
<mgrwt>
<rscale>  4 0.72159851E+03</rscale>
<asrwt>0</asrwt>
<pdfrwt beam="1">  1       21 0.26135017E+00 0.72159851E+03</pdfrwt>
<pdfrwt beam="2">  1        1 0.11538095E+00 0.72159851E+03</pdfrwt>
<totfact> 0.11648278E+01</totfact>
</mgrwt>
</event>
<event>
 5    0  0.1239749E+000  0.1817815E+03  0.7546771E-02  0.1166090E+00
          2   -1    0    0  503    0 -0.00000000000E+00  0.00000000000E+00  0.16902616609E+04  0.16902616609E+04  0.00000000000E+00 0. -1.
         21   -1    0    0  501  502  0.00000000000E+00 -0.00000000000E+00 -0.88049667812E+02  0.88049667812E+02  0.00000000000E+00 0. -1.
         25    1    1    2    0    0  0.21614585217E+03  0.40015134525E+02  0.41644845572E+03  0.48721099811E+03  0.12500000000E+03 0.  0.
         21    1    1    2  503  502 -0.11506275776E+03 -0.28339530444E+02  0.19127506433E+02  0.12003511450E+03  0.00000000000E+00 0. -1.
          2    1    1    2  501    0 -0.10108309441E+03 -0.11675604081E+02  0.11666360309E+04  0.11710652161E+04  0.00000000000E+00 0. -1.
<mgrwt>
<rscale>  4 0.18178149E+03</rscale>
<asrwt>0</asrwt>
<pdfrwt beam="1">  1       21 0.13546104E-01 0.18178149E+03</pdfrwt>
<pdfrwt beam="2">  1        2 0.26004023E+00 0.18178149E+03</pdfrwt>
<totfact> 0.66159172E+03</totfact>
</mgrwt>
</event>
<event>
 5    0  0.1239749E+000  0.2722950E+03  0.7546771E-02  0.1099973E+00
         21   -1    0    0  501  502  0.00000000000E+00  0.00000000000E+00  0.68181787881E+02  0.68181787881E+02  0.00000000000E+00 0.  1.
          2   -1    0    0  503    0 -0.00000000000E+00 -0.00000000000E+00 -0.13679392191E+04  0.13679392191E+04  0.00000000000E+00 0.  1.
         25    1    1    2    0    0 -0.49302478666E+02  0.23683083217E+03 -0.30680523827E+03  0.41021217888E+03  0.12500000000E+03 0.  0.
         21    1    1    2  503  502  0.38213821717E+02 -0.93904690582E+02 -0.25996005218E+03  0.27902977586E+03  0.00000000000E+00 0.  1.
          2    1    1    2  501    0  0.11088656950E+02 -0.14292614159E+03 -0.73299214081E+03  0.74687905229E+03  0.00000000000E+00 0.  1.
<mgrwt>
<rscale>  4 0.27229502E+03</rscale>
<asrwt>0</asrwt>
<pdfrwt beam="1">  1       21 0.10489507E-01 0.27229502E+03</pdfrwt>
<pdfrwt beam="2">  1        2 0.21045217E+00 0.27229502E+03</pdfrwt>
<totfact> 0.15065847E+04</totfact>
</mgrwt>
</event>
<event>
 5    0  0.1239749E+000  0.4329207E+03  0.7546771E-02  0.1032941E+00
          2   -1    0    0  503    0 -0.00000000000E+00  0.00000000000E+00  0.16526929295E+04  0.16526929295E+04  0.00000000000E+00 0. -1.
         21   -1    0    0  501  502  0.00000000000E+00 -0.00000000000E+00 -0.59870095340E+03  0.59870095340E+03  0.00000000000E+00 0.  1.
         25    1    1    2    0    0  0.40807720780E+03 -0.18353751614E+03 -0.22106875749E+03  0.51449919620E+03  0.12500000000E+03 0.  0.
         21    1    1    2  503  502 -0.37003422148E+03  0.94497268138E+02 -0.70069141786E+02  0.38828435892E+03  0.00000000000E+00 0.  1.
          2    1    1    2  501    0 -0.38042986321E+02  0.89040248001E+02  0.13451298754E+04  0.13486103278E+04  0.00000000000E+00 0. -1.
<mgrwt>
<rscale>  4 0.43292074E+03</rscale>
<asrwt>0</asrwt>
<pdfrwt beam="1">  1       21 0.92107840E-01 0.43292074E+03</pdfrwt>
<pdfrwt beam="2">  1        2 0.25426045E+00 0.43292074E+03</pdfrwt>
<totfact> 0.12570147E+02</totfact>
</mgrwt>
</event>
<event>
 5    0  0.1239749E+000  0.2895683E+03  0.7546771E-02  0.1090575E+00
         21   -1    0    0  501  502  0.00000000000E+00  0.00000000000E+00  0.15795424375E+03  0.15795424375E+03  0.00000000000E+00 0.  1.
          1   -1    0    0  503    0 -0.00000000000E+00 -0.00000000000E+00 -0.10902656915E+04  0.10902656915E+04  0.00000000000E+00 0.  1.
         25    1    1    2    0    0  0.14406141416E+03 -0.26122934508E+03 -0.28106054071E+03  0.42850261297E+03  0.12500000000E+03 0.  0.
         21    1    1    2  503  502 -0.15400698239E+03  0.18890615126E+03 -0.99660996256E+02  0.26331729678E+03  0.00000000000E+00 0.  1.
          1    1    1    2  501    0  0.99455682269E+01  0.72323193821E+02 -0.55158991080E+03  0.55640002551E+03  0.00000000000E+00 0.  1.
<mgrwt>
<rscale>  4 0.28956826E+03</rscale>
<asrwt>0</asrwt>
<pdfrwt beam="1">  1       21 0.24300652E-01 0.28956826E+03</pdfrwt>
<pdfrwt beam="2">  1        1 0.16773319E+00 0.28956826E+03</pdfrwt>
<totfact> 0.23764459E+03</totfact>
</mgrwt>
</event>
<event>
 5    0  0.1239749E+000  0.2357197E+03  0.7546771E-02  0.1122678E+00
         21   -1    0    0  503  502  0.00000000000E+00  0.00000000000E+00  0.16589655107E+04  0.16589655107E+04  0.00000000000E+00 0. -1.
         -1   -1    0    0    0  501 -0.00000000000E+00 -0.00000000000E+00 -0.79905126018E+02  0.79905126018E+02  0.00000000000E+00 0. -1.
         25    1    1    2    0    0 -0.22200065887E+03  0.65292111718E+01  0.77481025359E+03  0.81564873089E+03  0.12500000000E+03 0.  0.
         21    1    1    2  503  501  0.17145909940E+03 -0.94123975994E+02  0.79830468009E+03  0.82191721473E+03  0.00000000000E+00 0. -1.
         -1    1    1    2    0  502  0.50541559468E+02  0.87594764822E+02  0.59454510463E+01  0.10130469113E+03  0.00000000000E+00 0. -1.
<mgrwt>
<rscale>  4 0.23571973E+03</rscale>
<asrwt>0</asrwt>
<pdfrwt beam="1">  1       21 0.25522544E+00 0.23571973E+03</pdfrwt>
<pdfrwt beam="2">  1       -1 0.12293097E-01 0.23571973E+03</pdfrwt>
<totfact> 0.23682115E+02</totfact>
</mgrwt>
</event>
<event>
 5    0  0.1239749E+000  0.4071289E+03  0.7546771E-02  0.1041339E+00
         21   -1    0    0  503  502  0.00000000000E+00  0.00000000000E+00  0.50021872381E+03  0.50021872381E+03  0.00000000000E+00 0.  1.
         -3   -1    0    0    0  501 -0.00000000000E+00 -0.00000000000E+00 -0.81730666866E+03  0.81730666866E+03  0.00000000000E+00 0. -1.
         25    1    1    2    0    0  0.24877181829E+03  0.54916210811E+02 -0.37224884361E+03  0.46807842222E+03  0.12500000000E+03 0.  0.
         21    1    1    2  503  501 -0.39285765319E+03 -0.15090645849E+03  0.32301009981E+03  0.53051429713E+03  0.00000000000E+00 0.  1.
         -3    1    1    2    0  502  0.14408583490E+03  0.95990247678E+02 -0.26784920105E+03  0.31893267310E+03  0.00000000000E+00 0. -1.
<mgrwt>
<rscale>  4 0.40712886E+03</rscale>
<asrwt>0</asrwt>
<pdfrwt beam="1">  1       21 0.76956728E-01 0.40712886E+03</pdfrwt>
<pdfrwt beam="2">  1       -3 0.12573949E+00 0.40712886E+03</pdfrwt>
<totfact> 0.36439858E+01</totfact>
</mgrwt>
</event>
<event>
 5    0  0.1239749E+000  0.2196952E+03  0.7546771E-02  0.1134111E+00
         21   -1    0    0  501  502  0.00000000000E+00  0.00000000000E+00  0.74460514192E+03  0.74460514192E+03  0.00000000000E+00 0.  1.
          2   -1    0    0  503    0 -0.00000000000E+00 -0.00000000000E+00 -0.65359149819E+03  0.65359149819E+03  0.00000000000E+00 0.  1.
         25    1    1    2    0    0  0.21802938926E+03 -0.10787328169E+02  0.66601177829E+03  0.71193389430E+03  0.12500000000E+03 0.  0.
         21    1    1    2  503  502 -0.41323541993E+02  0.45387738901E+02  0.20045936805E+02  0.64571832464E+02  0.00000000000E+00 0.  1.
          2    1    1    2  501    0 -0.17670584727E+03 -0.34600410732E+02 -0.59504407136E+03  0.62169091335E+03  0.00000000000E+00 0.  1.
<mgrwt>
<rscale>  4 0.21969519E+03</rscale>
<asrwt>0</asrwt>
<pdfrwt beam="1">  1       21 0.11455464E+00 0.21969519E+03</pdfrwt>
<pdfrwt beam="2">  1        2 0.10055254E+00 0.21969519E+03</pdfrwt>
<totfact> 0.33343533E+02</totfact>
</mgrwt>
</event>
<event>
 5    0  0.1239749E+000  0.2652183E+03  0.7546771E-02  0.1104048E+00
         21   -1    0    0  501  502  0.00000000000E+00  0.00000000000E+00  0.32333526940E+03  0.32333526940E+03  0.00000000000E+00 0.  1.
          2   -1    0    0  503    0 -0.00000000000E+00 -0.00000000000E+00 -0.93373281216E+03  0.93373281216E+03  0.00000000000E+00 0.  1.
         25    1    1    2    0    0 -0.17248222968E+03 -0.14251709418E+03  0.82316732147E+02  0.26918819825E+03  0.12500000000E+03 0.  0.
         21    1    1    2  503  502  0.18725065817E+03  0.15799401910E+03  0.45640966540E+02  0.24921480069E+03  0.00000000000E+00 0.  1.
          2    1    1    2  501    0 -0.14768428492E+02 -0.15476924929E+02 -0.73835524146E+03  0.73866508261E+03  0.00000000000E+00 0.  1.
<mgrwt>
<rscale>  4 0.26521834E+03</rscale>
<asrwt>0</asrwt>
<pdfrwt beam="1">  1       21 0.49743888E-01 0.26521834E+03</pdfrwt>
<pdfrwt beam="2">  1        2 0.14365120E+00 0.26521834E+03</pdfrwt>
<totfact> 0.13647533E+03</totfact>
</mgrwt>
</event>
<event>
 5    0  0.1239749E+000  0.2640827E+03  0.7546771E-02  0.1104715E+00
         -4   -1    0    0    0  501 -0.00000000000E+00  0.00000000000E+00  0.11993724027E+04  0.11993724027E+04  0.00000000000E+00 0. -1.
         21   -1    0    0  503  502  0.00000000000E+00 -0.00000000000E+00 -0.82026078309E+02  0.82026078309E+02  0.00000000000E+00 0. -1.
         25    1    1    2    0    0  0.17859125944E+03  0.14044484196E+03  0.24236180072E+03  0.35494201502E+03  0.12500000000E+03 0.  0.
         21    1    1    2  503  501 -0.17282700506E+03 -0.18028710083E+03  0.82665238838E+03  0.86355473689E+03  0.00000000000E+00 0. -1.
         -4    1    1    2    0  502 -0.57642543832E+01  0.39842258874E+02  0.48332135304E+02  0.62901729100E+02  0.00000000000E+00 0. -1.
<mgrwt>
<rscale>  4 0.26408274E+03</rscale>
<asrwt>0</asrwt>
<pdfrwt beam="1">  1       21 0.12619398E-01 0.26408274E+03</pdfrwt>
<pdfrwt beam="2">  1       -4 0.18451882E+00 0.26408274E+03</pdfrwt>
<totfact> 0.40861553E+02</totfact>
</mgrwt>
</event>
<event>
 5    0  0.1239749E+000  0.2882047E+03  0.7546771E-02  0.1091290E+00
          2   -1    0    0  503    0 -0.00000000000E+00  0.00000000000E+00  0.91506764746E+03  0.91506764746E+03  0.00000000000E+00 0. -1.
         21   -1    0    0  501  502  0.00000000000E+00 -0.00000000000E+00 -0.10657839307E+04  0.10657839307E+04  0.00000000000E+00 0. -1.
         25    1    1    2    0    0  0.22647453473E+03 -0.12392659198E+03 -0.98730124708E+03  0.10281231772E+04  0.12500000000E+03 0.  0.
         21    1    1    2  503  502 -0.25521283586E+03  0.12978126080E+03  0.29767872677E+03  0.41302468645E+03  0.00000000000E+00 0. -1.
          2    1    1    2  501    0  0.28738301137E+02 -0.58546688264E+01  0.53890623706E+03  0.53970371449E+03  0.00000000000E+00 0. -1.
<mgrwt>
<rscale>  4 0.28820469E+03</rscale>
<asrwt>0</asrwt>
<pdfrwt beam="1">  1       21 0.16396676E+00 0.28820469E+03</pdfrwt>
<pdfrwt beam="2">  1        2 0.14077964E+00 0.28820469E+03</pdfrwt>
<totfact> 0.82198272E+01</totfact>
</mgrwt>
</event>
<event>
 5    0  0.1239749E+000  0.2251264E+03  0.7546771E-02  0.1130118E+00
          2   -1    0    0  503    0 -0.00000000000E+00  0.00000000000E+00  0.28019616836E+04  0.28019616836E+04  0.00000000000E+00 0.  1.
         21   -1    0    0  501  502  0.00000000000E+00 -0.00000000000E+00 -0.61787167044E+02  0.61787167044E+02  0.00000000000E+00 0.  1.
         25    1    1    2    0    0 -0.10971367887E+03  0.18915651028E+03  0.81422601880E+03  0.85229471805E+03  0.12500000000E+03 0.  0.
         21    1    1    2  503  502  0.93383581727E+02 -0.15394526445E+03  0.14797888253E+03  0.23306090933E+03  0.00000000000E+00 0.  1.
          2    1    1    2  501    0  0.16330097140E+02 -0.35211245833E+02  0.17779696152E+04  0.17783932233E+04  0.00000000000E+00 0.  1.
<mgrwt>
<rscale>  4 0.22512635E+03</rscale>
<asrwt>0</asrwt>
<pdfrwt beam="1">  1       21 0.95057202E-02 0.22512635E+03</pdfrwt>
<pdfrwt beam="2">  1        2 0.43107093E+00 0.22512635E+03</pdfrwt>
<totfact> 0.31067513E+03</totfact>
</mgrwt>
</event>
<event>
 5    0  0.1239749E+000  0.2447753E+03  0.7546771E-02  0.1116652E+00
          2   -1    0    0  503    0 -0.00000000000E+00  0.00000000000E+00  0.13087685124E+04  0.13087685124E+04  0.00000000000E+00 0.  1.
         21   -1    0    0  501  502  0.00000000000E+00 -0.00000000000E+00 -0.69250688905E+02  0.69250688905E+02  0.00000000000E+00 0. -1.
         25    1    1    2    0    0 -0.12014210077E+03 -0.17821748858E+03  0.35542157510E+03  0.43375695229E+03  0.12500000000E+03 0.  0.
         21    1    1    2  503  502  0.98774442686E+02 -0.37019047608E+02  0.19089505768E+03  0.21810026011E+03  0.00000000000E+00 0.  1.
          2    1    1    2  501    0  0.21367658085E+02  0.21523653618E+03  0.69320119071E+03  0.72616198889E+03  0.00000000000E+00 0.  1.
<mgrwt>
<rscale>  4 0.24477527E+03</rscale>
<asrwt>0</asrwt>
<pdfrwt beam="1">  1       21 0.10653953E-01 0.24477527E+03</pdfrwt>
<pdfrwt beam="2">  1        2 0.20134898E+00 0.24477527E+03</pdfrwt>
<totfact> 0.15897004E+04</totfact>
</mgrwt>
</event>
<event>
 5    0  0.1239749E+000  0.2876370E+03  0.7546771E-02  0.1091589E+00
         21   -1    0    0  501  502  0.00000000000E+00  0.00000000000E+00  0.33112241822E+03  0.33112241822E+03  0.00000000000E+00 0. -1.
          1   -1    0    0  503    0 -0.00000000000E+00 -0.00000000000E+00 -0.11579638375E+04  0.11579638375E+04  0.00000000000E+00 0. -1.
         25    1    1    2    0    0 -0.90478998128E+02 -0.21863416771E+03  0.15755003448E+03  0.31053882488E+03  0.12500000000E+03 0.  0.
         21    1    1    2  503  502  0.12138599162E+03  0.35079561212E+03 -0.29010589609E+03  0.47111946615E+03  0.00000000000E+00 0. -1.
          1    1    1    2  501    0 -0.30906993496E+02 -0.13216144441E+03 -0.69428555769E+03  0.70742796470E+03  0.00000000000E+00 0. -1.
<mgrwt>
<rscale>  4 0.28763696E+03</rscale>
<asrwt>0</asrwt>
<pdfrwt beam="1">  1       21 0.50941911E-01 0.28763696E+03</pdfrwt>
<pdfrwt beam="2">  1        1 0.17814828E+00 0.28763696E+03</pdfrwt>
<totfact> 0.48043844E+02</totfact>
</mgrwt>
</event>
<event>
 5    0  0.1239749E+000  0.2189958E+03  0.7546771E-02  0.1134634E+00
          2   -1    0    0  503    0 -0.00000000000E+00  0.00000000000E+00  0.66315825726E+03  0.66315825726E+03  0.00000000000E+00 0.  1.
         21   -1    0    0  501  502  0.00000000000E+00 -0.00000000000E+00 -0.18440068191E+04  0.18440068191E+04  0.00000000000E+00 0.  1.
         25    1    1    2    0    0 -0.54117791331E+02  0.26555604349E+03 -0.10655489646E+04  0.11065569771E+04  0.12500000000E+03 0.  0.
         21    1    1    2  503  502  0.35512174597E+01 -0.14818312744E+03 -0.74421814336E+03  0.75883561810E+03  0.00000000000E+00 0.  1.
          2    1    1    2  501    0  0.50566573871E+02 -0.11737291605E+03  0.62891854617E+03  0.64177248112E+03  0.00000000000E+00 0.  1.
<mgrwt>
<rscale>  4 0.21899581E+03</rscale>
<asrwt>0</asrwt>
<pdfrwt beam="1">  1       21 0.28369335E+00 0.21899581E+03</pdfrwt>
<pdfrwt beam="2">  1        2 0.10202435E+00 0.21899581E+03</pdfrwt>
<totfact> 0.23113644E+01</totfact>
</mgrwt>
</event>
<event>
 5    0  0.1239749E+000  0.2500760E+03  0.7546771E-02  0.1113257E+00
         21   -1    0    0  501  502  0.00000000000E+00  0.00000000000E+00  0.14002943974E+03  0.14002943974E+03  0.00000000000E+00 0.  1.
          4   -1    0    0  503    0 -0.00000000000E+00 -0.00000000000E+00 -0.10386150792E+04  0.10386150792E+04  0.00000000000E+00 0. -1.
         25    1    1    2    0    0  0.19828333116E+03  0.76692026527E+02 -0.83206596248E+02  0.26028116337E+03  0.12500000000E+03 0.  0.
         21    1    1    2  503  502 -0.19738333103E+03 -0.10401049124E+03 -0.19190020848E+03  0.29428566338E+03  0.00000000000E+00 0.  1.
          4    1    1    2  501    0 -0.90000012610E+00  0.27318464717E+02 -0.62347883471E+03  0.62407769216E+03  0.00000000000E+00 0. -1.
<mgrwt>
<rscale>  4 0.25007599E+03</rscale>
<asrwt>0</asrwt>
<pdfrwt beam="1">  1       21 0.21542990E-01 0.25007599E+03</pdfrwt>
<pdfrwt beam="2">  1        4 0.15978694E+00 0.25007599E+03</pdfrwt>
<totfact> 0.22555642E+02</totfact>
</mgrwt>
</event>
<event>
 5    0  0.1239749E+000  0.2240181E+03  0.7546771E-02  0.1130922E+00
         21   -1    0    0  501  502  0.00000000000E+00  0.00000000000E+00  0.13663620743E+03  0.13663620743E+03  0.00000000000E+00 0. -1.
          2   -1    0    0  503    0 -0.00000000000E+00 -0.00000000000E+00 -0.15018174763E+04  0.15018174763E+04  0.00000000000E+00 0.  1.
         25    1    1    2    0    0  0.23572874769E+03 -0.67007984649E+02 -0.13209521730E+03  0.30517578365E+03  0.12500000000E+03 0.  0.
         21    1    1    2  503  502 -0.53690490955E+02  0.70350493673E+02 -0.17098798310E+01  0.88514317871E+02  0.00000000000E+00 0. -1.
          2    1    1    2  501    0 -0.18203825673E+03 -0.33425090238E+01 -0.12313761717E+04  0.12447635822E+04  0.00000000000E+00 0.  1.
<mgrwt>
<rscale>  4 0.22401809E+03</rscale>
<asrwt>0</asrwt>
<pdfrwt beam="1">  1       21 0.21020953E-01 0.22401809E+03</pdfrwt>
<pdfrwt beam="2">  1        2 0.23104886E+00 0.22401809E+03</pdfrwt>
<totfact> 0.36283683E+03</totfact>
</mgrwt>
</event>
<event>
 5    0  0.1239749E+000  0.3027667E+03  0.7546771E-02  0.1083866E+00
         21   -1    0    0  501  502  0.00000000000E+00  0.00000000000E+00  0.14888991262E+03  0.14888991262E+03  0.00000000000E+00 0. -1.
          1   -1    0    0  503    0 -0.00000000000E+00 -0.00000000000E+00 -0.26458564851E+04  0.26458564851E+04  0.00000000000E+00 0.  1.
         25    1    1    2    0    0 -0.21763559185E+03  0.22131124184E+03 -0.12297556775E+04  0.12744677097E+04  0.12500000000E+03 0.  0.
         21    1    1    2  503  502  0.18462591977E+03 -0.19937178176E+03 -0.20026335801E+02  0.27246447794E+03  0.00000000000E+00 0. -1.
          1    1    1    2  501    0  0.33009672074E+02 -0.21939460087E+02 -0.12471845592E+04  0.12478142101E+04  0.00000000000E+00 0.  1.
<mgrwt>
<rscale>  4 0.30276674E+03</rscale>
<asrwt>0</asrwt>
<pdfrwt beam="1">  1       21 0.22906139E-01 0.30276674E+03</pdfrwt>
<pdfrwt beam="2">  1        1 0.40705486E+00 0.30276674E+03</pdfrwt>
<totfact> 0.24287540E+02</totfact>
</mgrwt>
</event>
<event>
 5    0  0.1239749E+000  0.2609234E+03  0.7546771E-02  0.1106590E+00
         21   -1    0    0  503  502  0.00000000000E+00  0.00000000000E+00  0.10923859197E+03  0.10923859197E+03  0.00000000000E+00 0. -1.
         -1   -1    0    0    0  501 -0.00000000000E+00 -0.00000000000E+00 -0.14045810390E+04  0.14045810390E+04  0.00000000000E+00 0. -1.
         25    1    1    2    0    0  0.22917806431E+03  0.22301478420E+02 -0.60889602992E+03  0.66287202109E+03  0.12500000000E+03 0.  0.
         21    1    1    2  503  501 -0.22460972062E+03 -0.44346626684E+02 -0.77679999720E+02  0.24176503522E+03  0.00000000000E+00 0. -1.
         -1    1    1    2    0  502 -0.45683436874E+01  0.22045148264E+02 -0.60876641741E+03  0.60918257467E+03  0.00000000000E+00 0. -1.
<mgrwt>
<rscale>  4 0.26092343E+03</rscale>
<asrwt>0</asrwt>
<pdfrwt beam="1">  1       21 0.16805938E-01 0.26092343E+03</pdfrwt>
<pdfrwt beam="2">  1       -1 0.21608938E+00 0.26092343E+03</pdfrwt>
<totfact> 0.38583750E+02</totfact>
</mgrwt>
</event>
<event>
 5    0  0.1239749E+000  0.2397795E+03  0.7546771E-02  0.1119940E+00
          2   -1    0    0  503    0 -0.00000000000E+00  0.00000000000E+00  0.23690737038E+04  0.23690737038E+04  0.00000000000E+00 0. -1.
         21   -1    0    0  501  502  0.00000000000E+00 -0.00000000000E+00 -0.12298672006E+03  0.12298672006E+03  0.00000000000E+00 0. -1.
         25    1    1    2    0    0  0.91447762703E+02  0.19434895170E+03  0.14726942010E+03  0.28887279281E+03  0.12500000000E+03 0.  0.
         21    1    1    2  503  502 -0.15467475220E+03 -0.13307450804E+03  0.15213647620E+03  0.25451642589E+03  0.00000000000E+00 0. -1.
          2    1    1    2  501    0  0.63226989496E+02 -0.61274443658E+02  0.19466810874E+04  0.19486712052E+04  0.00000000000E+00 0. -1.
<mgrwt>
<rscale>  4 0.23977954E+03</rscale>
<asrwt>0</asrwt>
<pdfrwt beam="1">  1       21 0.18921036E-01 0.23977954E+03</pdfrwt>
<pdfrwt beam="2">  1        2 0.36447284E+00 0.23977954E+03</pdfrwt>
<totfact> 0.15322473E+03</totfact>
</mgrwt>
</event>
<event>
 5    0  0.1239749E+000  0.2789243E+03  0.7546771E-02  0.1096278E+00
         21   -1    0    0  501  502  0.00000000000E+00  0.00000000000E+00  0.22526868505E+03  0.22526868505E+03  0.00000000000E+00 0. -1.
          3   -1    0    0  503    0 -0.00000000000E+00 -0.00000000000E+00 -0.75515894489E+03  0.75515894489E+03  0.00000000000E+00 0. -1.
         25    1    1    2    0    0 -0.22239180987E+03 -0.96726605742E+02  0.44095019580E+02  0.27637569377E+03  0.12500000000E+03 0.  0.
         21    1    1    2  503  502  0.25157922941E+03  0.86631785930E+02 -0.21054753749E+03  0.33930434797E+03  0.00000000000E+00 0. -1.
          3    1    1    2  501    0 -0.29187419544E+02  0.10094819812E+02 -0.36343774193E+03  0.36474758821E+03  0.00000000000E+00 0. -1.
<mgrwt>
<rscale>  4 0.27892432E+03</rscale>
<asrwt>0</asrwt>
<pdfrwt beam="1">  1       21 0.34656721E-01 0.27892432E+03</pdfrwt>
<pdfrwt beam="2">  1        3 0.11617830E+00 0.27892432E+03</pdfrwt>
<totfact> 0.24916943E+02</totfact>
</mgrwt>
</event>
<event>
 5    0  0.1239749E+000  0.2671460E+03  0.7546771E-02  0.1102924E+00
          2   -1    0    0  503    0 -0.00000000000E+00  0.00000000000E+00  0.28182387634E+04  0.28182387634E+04  0.00000000000E+00 0. -1.
         21   -1    0    0  501  502  0.00000000000E+00 -0.00000000000E+00 -0.79557783630E+02  0.79557783630E+02  0.00000000000E+00 0. -1.
         25    1    1    2    0    0  0.22731649829E+03  0.12738523915E+02  0.24208514903E+03  0.35505672753E+03  0.12500000000E+03 0.  0.
         21    1    1    2  503  502 -0.25510308000E+03 -0.27407350134E+02  0.69462159954E+03  0.74049166829E+03  0.00000000000E+00 0. -1.
          2    1    1    2  501    0  0.27786581710E+02  0.14668826219E+02  0.18019742312E+04  0.18022481512E+04  0.00000000000E+00 0. -1.
<mgrwt>
<rscale>  4 0.26714603E+03</rscale>
<asrwt>0</asrwt>
<pdfrwt beam="1">  1       21 0.12239661E-01 0.26714603E+03</pdfrwt>
<pdfrwt beam="2">  1        2 0.43357512E+00 0.26714603E+03</pdfrwt>
<totfact> 0.18930629E+03</totfact>
</mgrwt>
</event>
<event>
 5    0  0.1239749E+000  0.3288792E+03  0.7546771E-02  0.1071634E+00
         21   -1    0    0  501  502  0.00000000000E+00  0.00000000000E+00  0.75011517429E+03  0.75011517429E+03  0.00000000000E+00 0. -1.
          1   -1    0    0  503    0 -0.00000000000E+00 -0.00000000000E+00 -0.15507933772E+04  0.15507933772E+04  0.00000000000E+00 0. -1.
         25    1    1    2    0    0 -0.12840239272E+02  0.30392704379E+03  0.69748219970E+03  0.77113094776E+03  0.12500000000E+03 0.  0.
         21    1    1    2  503  502  0.72946307369E+01 -0.27929315355E+03 -0.12785276923E+04  0.13086981842E+04  0.00000000000E+00 0. -1.
          1    1    1    2  501    0  0.55456085355E+01 -0.24633890242E+02 -0.21963271034E+03  0.22107941961E+03  0.00000000000E+00 0. -1.
<mgrwt>
<rscale>  4 0.32887919E+03</rscale>
<asrwt>0</asrwt>
<pdfrwt beam="1">  1       21 0.11540234E+00 0.32887919E+03</pdfrwt>
<pdfrwt beam="2">  1        1 0.23858359E+00 0.32887919E+03</pdfrwt>
<totfact> 0.39241761E+01</totfact>
</mgrwt>
</event>
<event>
 5    0  0.1239749E+000  0.2516102E+03  0.7546771E-02  0.1112291E+00
         21   -1    0    0  501  502  0.00000000000E+00  0.00000000000E+00  0.46873896035E+03  0.46873896035E+03  0.00000000000E+00 0. -1.
          1   -1    0    0  503    0 -0.00000000000E+00 -0.00000000000E+00 -0.84267862720E+03  0.84267862720E+03  0.00000000000E+00 0. -1.
         25    1    1    2    0    0 -0.23841026618E+03  0.17555851865E+00  0.10870332835E+03  0.29031172803E+03  0.12500000000E+03 0.  0.
         21    1    1    2  503  502  0.20925935738E+03  0.81592270776E+01  0.22813593841E+03  0.30968057419E+03  0.00000000000E+00 0. -1.
          1    1    1    2  501    0  0.29150908794E+02 -0.83347855963E+01 -0.71077893362E+03  0.71142528533E+03  0.00000000000E+00 0. -1.
<mgrwt>
<rscale>  4 0.25161024E+03</rscale>
<asrwt>0</asrwt>
<pdfrwt beam="1">  1       21 0.72113687E-01 0.25161024E+03</pdfrwt>
<pdfrwt beam="2">  1        1 0.12964286E+00 0.25161024E+03</pdfrwt>
<totfact> 0.39781944E+02</totfact>
</mgrwt>
</event>
<event>
 5    0  0.1239749E+000  0.3123392E+03  0.7546771E-02  0.1079230E+00
         21   -1    0    0  503  502  0.00000000000E+00  0.00000000000E+00  0.39524887906E+03  0.39524887906E+03  0.00000000000E+00 0. -1.
         -1   -1    0    0    0  501 -0.00000000000E+00 -0.00000000000E+00 -0.28529157557E+04  0.28529157557E+04  0.00000000000E+00 0.  1.
         25    1    1    2    0    0  0.25790921690E+03 -0.15746853062E+03  0.31228579631E+03  0.45217355172E+03  0.12500000000E+03 0.  0.
         21    1    1    2  503  501 -0.13619844008E+03  0.75541462735E+02 -0.56235653910E+03  0.58352498211E+03  0.00000000000E+00 0. -1.
         -1    1    1    2    0  502 -0.12171077682E+03  0.81927067882E+02 -0.22075961339E+04  0.22124661010E+04  0.00000000000E+00 0.  1.
<mgrwt>
<rscale>  4 0.31233922E+03</rscale>
<asrwt>0</asrwt>
<pdfrwt beam="1">  1       21 0.60807521E-01 0.31233922E+03</pdfrwt>
<pdfrwt beam="2">  1       -1 0.43891011E+00 0.31233922E+03</pdfrwt>
<totfact> 0.10541989E+00</totfact>
</mgrwt>
</event>
<event>
 5    0  0.1239749E+000  0.3901632E+03  0.7546771E-02  0.1047240E+00
          2   -1    0    0  503    0 -0.00000000000E+00  0.00000000000E+00  0.52932018363E+03  0.52932018363E+03  0.00000000000E+00 0. -1.
         21   -1    0    0  501  502  0.00000000000E+00 -0.00000000000E+00 -0.13199993723E+04  0.13199993723E+04  0.00000000000E+00 0. -1.
         25    1    1    2    0    0  0.90237885511E+01  0.41089409823E+03 -0.40509072905E+03  0.59045650769E+03  0.12500000000E+03 0.  0.
         21    1    1    2  503  502 -0.11768568068E-01 -0.35268792476E+03 -0.78212946919E+03  0.85797160733E+03  0.00000000000E+00 0. -1.
          2    1    1    2  501    0 -0.90120199831E+01 -0.58206173461E+02  0.39654100956E+03  0.40089144091E+03  0.00000000000E+00 0. -1.
<mgrwt>
<rscale>  4 0.39016321E+03</rscale>
<asrwt>0</asrwt>
<pdfrwt beam="1">  1       21 0.20307683E+00 0.39016321E+03</pdfrwt>
<pdfrwt beam="2">  1        2 0.81433874E-01 0.39016321E+03</pdfrwt>
<totfact> 0.82033466E+01</totfact>
</mgrwt>
</event>
<event>
 5    0  0.1239749E+000  0.5329653E+03  0.7546771E-02  0.1005516E+00
         21   -1    0    0  501  502  0.00000000000E+00  0.00000000000E+00  0.22990837046E+03  0.22990837046E+03  0.00000000000E+00 0. -1.
          2   -1    0    0  503    0 -0.00000000000E+00 -0.00000000000E+00 -0.14670187587E+04  0.14670187587E+04  0.00000000000E+00 0. -1.
         25    1    1    2    0    0  0.30685677601E+03 -0.43116029523E+03 -0.38688501570E+03  0.66735694837E+03  0.12500000000E+03 0.  0.
         21    1    1    2  503  502 -0.31512307623E+03  0.39257651989E+03 -0.63289759850E+03  0.80868921554E+03  0.00000000000E+00 0. -1.
          2    1    1    2  501    0  0.82663002167E+01  0.38583775336E+02 -0.21732777403E+03  0.22088096524E+03  0.00000000000E+00 0. -1.
<mgrwt>
<rscale>  4 0.53296531E+03</rscale>
<asrwt>0</asrwt>
<pdfrwt beam="1">  1       21 0.35370519E-01 0.53296531E+03</pdfrwt>
<pdfrwt beam="2">  1        2 0.22569519E+00 0.53296531E+03</pdfrwt>
<totfact> 0.12477761E+03</totfact>
</mgrwt>
</event>
<event>
 5    0  0.1239749E+000  0.2596589E+03  0.7546771E-02  0.1107348E+00
         21   -1    0    0  501  502  0.00000000000E+00  0.00000000000E+00  0.67997050638E+02  0.67997050638E+02  0.00000000000E+00 0.  1.
          2   -1    0    0  503    0 -0.00000000000E+00 -0.00000000000E+00 -0.18865128372E+04  0.18865128372E+04  0.00000000000E+00 0.  1.
         25    1    1    2    0    0 -0.20047531697E+03  0.10448139750E+03 -0.31377355193E+03  0.40643026096E+03  0.12500000000E+03 0.  0.
         21    1    1    2  503  502  0.22225223481E+03 -0.78761317567E+02 -0.14943122935E+04  0.15128015836E+04  0.00000000000E+00 0.  1.
          2    1    1    2  501    0 -0.21776917840E+02 -0.25720079936E+02 -0.10429941165E+02  0.35278043246E+02  0.00000000000E+00 0.  1.
<mgrwt>
<rscale>  4 0.25965892E+03</rscale>
<asrwt>0</asrwt>
<pdfrwt beam="1">  1       21 0.10461086E-01 0.25965892E+03</pdfrwt>
<pdfrwt beam="2">  1        2 0.29023270E+00 0.25965892E+03</pdfrwt>
<totfact> 0.80540532E+03</totfact>
</mgrwt>
</event>
<event>
 5    0  0.1239749E+000  0.1860630E+03  0.7546771E-02  0.1162061E+00
          1   -1    0    0  503    0 -0.00000000000E+00  0.00000000000E+00  0.32380924823E+04  0.32380924823E+04  0.00000000000E+00 0. -1.
         21   -1    0    0  501  502  0.00000000000E+00 -0.00000000000E+00 -0.21276656509E+03  0.21276656509E+03  0.00000000000E+00 0.  1.
         25    1    1    2    0    0  0.19981914230E+03 -0.95557675418E+02 -0.81339094120E+02  0.26702061192E+03  0.12500000000E+03 0.  0.
         21    1    1    2  503  502 -0.11738993956E+03 -0.14242933108E+02  0.57332305485E+02  0.13141633196E+03  0.00000000000E+00 0.  1.
          1    1    1    2  501    0 -0.82429202739E+02  0.10980060853E+03  0.30493327058E+04  0.30524221035E+04  0.00000000000E+00 0. -1.
<mgrwt>
<rscale>  4 0.18606303E+03</rscale>
<asrwt>0</asrwt>
<pdfrwt beam="1">  1       21 0.32733320E-01 0.18606303E+03</pdfrwt>
<pdfrwt beam="2">  1        1 0.49816804E+00 0.18606303E+03</pdfrwt>
<totfact> 0.51682250E+01</totfact>
</mgrwt>
</event>
<event>
 5    0  0.1239749E+000  0.2533144E+03  0.7546771E-02  0.1111228E+00
          1   -1    0    0  503    0 -0.00000000000E+00  0.00000000000E+00  0.19703793251E+04  0.19703793251E+04  0.00000000000E+00 0. -1.
         21   -1    0    0  501  502  0.00000000000E+00 -0.00000000000E+00 -0.23542235065E+03  0.23542235065E+03  0.00000000000E+00 0.  1.
         25    1    1    2    0    0 -0.19628469357E+03  0.10708216359E+03 -0.13935147819E+03  0.29161293723E+03  0.12500000000E+03 0.  0.
         21    1    1    2  503  502  0.15711664208E+03 -0.12517877802E+03  0.49506073378E+03  0.53426631544E+03  0.00000000000E+00 0.  1.
          1    1    1    2  501    0  0.39168051492E+02  0.18096614430E+02  0.13792477189E+04  0.13799224231E+04  0.00000000000E+00 0. -1.
<mgrwt>
<rscale>  4 0.25331444E+03</rscale>
<asrwt>0</asrwt>
<pdfrwt beam="1">  1       21 0.36218824E-01 0.25331444E+03</pdfrwt>
<pdfrwt beam="2">  1        1 0.30313527E+00 0.25331444E+03</pdfrwt>
<totfact> 0.28405831E+02</totfact>
</mgrwt>
</event>
<event>
 5    0  0.1239749E+000  0.4330008E+03  0.7546771E-02  0.1032916E+00
         21   -1    0    0  501  502  0.00000000000E+00  0.00000000000E+00  0.11369469070E+04  0.11369469070E+04  0.00000000000E+00 0. -1.
          3   -1    0    0  503    0 -0.00000000000E+00 -0.00000000000E+00 -0.11577243039E+04  0.11577243039E+04  0.00000000000E+00 0.  1.
         25    1    1    2    0    0  0.21082166797E+03 -0.36194855046E+03  0.98707434383E+03  0.10795338295E+04  0.12500000000E+03 0.  0.
         21    1    1    2  503  502 -0.24530976592E+03 -0.61232041737E+02 -0.41439382451E+03  0.48543638717E+03  0.00000000000E+00 0. -1.
          3    1    1    2  501    0  0.34488097947E+02  0.42318059220E+03 -0.59345791629E+03  0.72970099419E+03  0.00000000000E+00 0.  1.
<mgrwt>
<rscale>  4 0.43300080E+03</rscale>
<asrwt>0</asrwt>
<pdfrwt beam="1">  1       21 0.17491491E+00 0.43300080E+03</pdfrwt>
<pdfrwt beam="2">  1        3 0.17811143E+00 0.43300080E+03</pdfrwt>
<totfact> 0.18518886E+00</totfact>
</mgrwt>
</event>
<event>
 5    0  0.1239749E+000  0.2921882E+03  0.7546771E-02  0.1089212E+00
         21   -1    0    0  501  502  0.00000000000E+00  0.00000000000E+00  0.24023625827E+03  0.24023625827E+03  0.00000000000E+00 0. -1.
          2   -1    0    0  503    0 -0.00000000000E+00 -0.00000000000E+00 -0.11171861512E+04  0.11171861512E+04  0.00000000000E+00 0.  1.
         25    1    1    2    0    0 -0.56981236075E+02  0.28074318859E+03 -0.39689513018E+03  0.50518743410E+03  0.12500000000E+03 0.  0.
         21    1    1    2  503  502  0.46712234199E+02 -0.25537397138E+03  0.95061356656E+02  0.27646800830E+03  0.00000000000E+00 0. -1.
          2    1    1    2  501    0  0.10269001876E+02 -0.25369217212E+02 -0.57511611941E+03  0.57576696708E+03  0.00000000000E+00 0.  1.
<mgrwt>
<rscale>  4 0.29218819E+03</rscale>
<asrwt>0</asrwt>
<pdfrwt beam="1">  1       21 0.36959424E-01 0.29218819E+03</pdfrwt>
<pdfrwt beam="2">  1        2 0.17187479E+00 0.29218819E+03</pdfrwt>
<totfact> 0.19247021E+03</totfact>
</mgrwt>
</event>
<event>
 5    0  0.1239749E+000  0.3115839E+03  0.7546771E-02  0.1079589E+00
          3   -1    0    0  503    0 -0.00000000000E+00  0.00000000000E+00  0.57281657546E+03  0.57281657546E+03  0.00000000000E+00 0.  1.
         21   -1    0    0  501  502  0.00000000000E+00 -0.00000000000E+00 -0.13716672278E+04  0.13716672278E+04  0.00000000000E+00 0.  1.
         25    1    1    2    0    0  0.14026563355E+03  0.26369068366E+03 -0.12488753421E+04  0.12901634953E+04  0.12500000000E+03 0.  0.
         21    1    1    2  503  502 -0.13118228155E+03 -0.16782287129E+03  0.20342102764E+02  0.21397922391E+03  0.00000000000E+00 0.  1.
          3    1    1    2  501    0 -0.90833520063E+01 -0.95867812377E+02  0.42968258697E+03  0.44034108403E+03  0.00000000000E+00 0.  1.
<mgrwt>
<rscale>  4 0.31158392E+03</rscale>
<asrwt>0</asrwt>
<pdfrwt beam="1">  1       21 0.21102573E+00 0.31158392E+03</pdfrwt>
<pdfrwt beam="2">  1        3 0.88125627E-01 0.31158392E+03</pdfrwt>
<totfact> 0.62711919E+00</totfact>
</mgrwt>
</event>
<event>
 5    0  0.1239749E+000  0.2423325E+03  0.7546771E-02  0.1118249E+00
         21   -1    0    0  501  502  0.00000000000E+00  0.00000000000E+00  0.17669087802E+03  0.17669087802E+03  0.00000000000E+00 0.  1.
          3   -1    0    0  503    0 -0.00000000000E+00 -0.00000000000E+00 -0.34104814320E+03  0.34104814320E+03  0.00000000000E+00 0. -1.
         25    1    1    2    0    0 -0.43885557949E+02  0.20544640746E+03 -0.98284773180E+01  0.24465438378E+03  0.12500000000E+03 0.  0.
         21    1    1    2  503  502  0.61219391283E+02 -0.19491035347E+03 -0.14586697858E+03  0.25102795701E+03  0.00000000000E+00 0. -1.
          3    1    1    2  501    0 -0.17333833333E+02 -0.10536053989E+02 -0.86618092843E+01  0.22056680434E+02  0.00000000000E+00 0. -1.
<mgrwt>
<rscale>  4 0.24233245E+03</rscale>
<asrwt>0</asrwt>
<pdfrwt beam="1">  1       21 0.27183212E-01 0.24233245E+03</pdfrwt>
<pdfrwt beam="2">  1        3 0.52468945E-01 0.24233245E+03</pdfrwt>
<totfact> 0.23077817E+03</totfact>
</mgrwt>
</event>
<event>
 5    0  0.1239749E+000  0.2981192E+03  0.7546771E-02  0.1086185E+00
          3   -1    0    0  503    0 -0.00000000000E+00  0.00000000000E+00  0.86301976357E+03  0.86301976357E+03  0.00000000000E+00 0. -1.
         21   -1    0    0  501  502  0.00000000000E+00 -0.00000000000E+00 -0.64781278761E+03  0.64781278761E+03  0.00000000000E+00 0.  1.
         25    1    1    2    0    0  0.15199659774E+03  0.24385670708E+03 -0.43480379268E+03  0.53595559279E+03  0.12500000000E+03 0.  0.
         21    1    1    2  503  502 -0.13963526364E+03 -0.19669467638E+03 -0.71599646831E+02  0.25162136633E+03  0.00000000000E+00 0.  1.
          3    1    1    2  501    0 -0.12361334102E+02 -0.47162030703E+02  0.72161041547E+03  0.72325559205E+03  0.00000000000E+00 0. -1.
<mgrwt>
<rscale>  4 0.29811922E+03</rscale>
<asrwt>0</asrwt>
<pdfrwt beam="1">  1       21 0.99663506E-01 0.29811922E+03</pdfrwt>
<pdfrwt beam="2">  1        3 0.13277227E+00 0.29811922E+03</pdfrwt>
<totfact> 0.18073869E+01</totfact>
</mgrwt>
</event>
<event>
 5    0  0.1239749E+000  0.2928532E+03  0.7546771E-02  0.1088869E+00
         21   -1    0    0  501  502  0.00000000000E+00  0.00000000000E+00  0.14622000741E+03  0.14622000741E+03  0.00000000000E+00 0. -1.
          1   -1    0    0  503    0 -0.00000000000E+00 -0.00000000000E+00 -0.69715981454E+03  0.69715981454E+03  0.00000000000E+00 0. -1.
         25    1    1    2    0    0  0.50713414365E+01  0.26638142493E+03 -0.12039629730E+03  0.31797020372E+03  0.12500000000E+03 0.  0.
         21    1    1    2  503  502 -0.40361595733E+02 -0.26036145450E+03 -0.35786498126E+03  0.44439227065E+03  0.00000000000E+00 0. -1.
          1    1    1    2  501    0  0.35290254296E+02 -0.60199704271E+01 -0.72678528571E+02  0.81017347572E+02  0.00000000000E+00 0. -1.
<mgrwt>
<rscale>  4 0.29285324E+03</rscale>
<asrwt>0</asrwt>
<pdfrwt beam="1">  1       21 0.22495386E-01 0.29285324E+03</pdfrwt>
<pdfrwt beam="2">  1        1 0.10725536E+00 0.29285324E+03</pdfrwt>
<totfact> 0.56868158E+03</totfact>
</mgrwt>
</event>
<event>
 5    0  0.1239749E+000  0.4289669E+03  0.7546771E-02  0.1035087E+00
         21   -1    0    0  501  502  0.00000000000E+00  0.00000000000E+00  0.17491503950E+03  0.17491503950E+03  0.00000000000E+00 0. -1.
          1   -1    0    0  503    0 -0.00000000000E+00 -0.00000000000E+00 -0.30427184737E+04  0.30427184737E+04  0.00000000000E+00 0. -1.
         25    1    1    2    0    0  0.35837552521E+03 -0.17453808513E+03 -0.11734609173E+03  0.43392587556E+03  0.12500000000E+03 0.  0.
         21    1    1    2  503  502 -0.27936452629E+03  0.18870490828E+03 -0.19193175543E+04  0.19487005812E+04  0.00000000000E+00 0. -1.
          1    1    1    2  501    0 -0.79010998928E+02 -0.14166823153E+02 -0.83113978821E+03  0.83500705649E+03  0.00000000000E+00 0. -1.
<mgrwt>
<rscale>  4 0.42613675E+03</rscale>
<asrwt>0</asrwt>
<pdfrwt beam="1">  1       21 0.26910008E-01 0.42896692E+03</pdfrwt>
<pdfrwt beam="2">  1        1 0.46811050E+00 0.42896692E+03</pdfrwt>
<totfact> 0.88874610E+01</totfact>
</mgrwt>
</event>
<event>
 5    0  0.1239749E+000  0.2649160E+03  0.7546771E-02  0.1104225E+00
         21   -1    0    0  503  502  0.00000000000E+00  0.00000000000E+00  0.15392143375E+04  0.15392143375E+04  0.00000000000E+00 0. -1.
         -1   -1    0    0    0  501 -0.00000000000E+00 -0.00000000000E+00 -0.41328290878E+03  0.41328290878E+03  0.00000000000E+00 0. -1.
         25    1    1    2    0    0  0.20028761948E+03 -0.18589960149E+03  0.51868841832E+03  0.59944680135E+03  0.12500000000E+03 0.  0.
         21    1    1    2  503  501  0.12118125486E+02  0.92800659131E+02  0.94154375976E+03  0.94618363062E+03  0.00000000000E+00 0. -1.
         -1    1    1    2    0  502 -0.21240574497E+03  0.93098942356E+02 -0.33430074936E+03  0.40686681431E+03  0.00000000000E+00 0. -1.
<mgrwt>
<rscale>  4 0.26491598E+03</rscale>
<asrwt>0</asrwt>
<pdfrwt beam="1">  1       21 0.23680220E+00 0.26491598E+03</pdfrwt>
<pdfrwt beam="2">  1       -1 0.63581987E-01 0.26491598E+03</pdfrwt>
<totfact> 0.17902876E+01</totfact>
</mgrwt>
</event>
<event>
 5    0  0.1239749E+000  0.2791889E+03  0.7546771E-02  0.1096133E+00
          1   -1    0    0  503    0 -0.00000000000E+00  0.00000000000E+00  0.16232576714E+04  0.16232576714E+04  0.00000000000E+00 0.  1.
         21   -1    0    0  501  502  0.00000000000E+00 -0.00000000000E+00 -0.13361146228E+03  0.13361146228E+03  0.00000000000E+00 0. -1.
         25    1    1    2    0    0  0.20709487875E+03 -0.61674468618E+02  0.69520645241E+03  0.73866707003E+03  0.12500000000E+03 0.  0.
         21    1    1    2  503  502 -0.23382050255E+03  0.10659087932E+03  0.37771994129E+02  0.25973133525E+03  0.00000000000E+00 0. -1.
          1    1    1    2  501    0  0.26725623799E+02 -0.44916410705E+02  0.75666776256E+03  0.75847072838E+03  0.00000000000E+00 0.  1.
<mgrwt>
<rscale>  4 0.27918887E+03</rscale>
<asrwt>0</asrwt>
<pdfrwt beam="1">  1       21 0.20555611E-01 0.27918887E+03</pdfrwt>
<pdfrwt beam="2">  1        1 0.24973194E+00 0.27918887E+03</pdfrwt>
<totfact> 0.14189249E+03</totfact>
</mgrwt>
</event>
<event>
 5    0  0.1239749E+000  0.3198751E+03  0.7546771E-02  0.1075707E+00
          1   -1    0    0  503    0 -0.00000000000E+00  0.00000000000E+00  0.34052405448E+04  0.34052405448E+04  0.00000000000E+00 0. -1.
         21   -1    0    0  501  502  0.00000000000E+00 -0.00000000000E+00 -0.56773773827E+02  0.56773773827E+02  0.00000000000E+00 0.  1.
         25    1    1    2    0    0  0.30784326355E+03  0.46534309340E+02  0.10292445443E+04  0.10825443403E+04  0.12500000000E+03 0.  0.
         21    1    1    2  503  502 -0.28140181184E+03 -0.36287629932E+02  0.64076876650E+03  0.70077698587E+03  0.00000000000E+00 0.  1.
          1    1    1    2  501    0 -0.26441451704E+02 -0.10246679408E+02  0.16784534602E+04  0.16786929924E+04  0.00000000000E+00 0. -1.
<mgrwt>
<rscale>  4 0.31987514E+03</rscale>
<asrwt>0</asrwt>
<pdfrwt beam="1">  1       21 0.87344294E-02 0.31987514E+03</pdfrwt>
<pdfrwt beam="2">  1        1 0.52388300E+00 0.31987514E+03</pdfrwt>
<totfact> 0.41030129E+02</totfact>
</mgrwt>
</event>
<event>
 5    0  0.1239749E+000  0.2390509E+03  0.7546771E-02  0.1120427E+00
         21   -1    0    0  501  502  0.00000000000E+00  0.00000000000E+00  0.35492133884E+02  0.35492133884E+02  0.00000000000E+00 0.  1.
          1   -1    0    0  503    0 -0.00000000000E+00 -0.00000000000E+00 -0.26778848432E+04  0.26778848432E+04  0.00000000000E+00 0.  1.
         25    1    1    2    0    0 -0.17956087359E+03 -0.11334547434E+03 -0.19880585499E+04  0.20032701020E+04  0.12500000000E+03 0.  0.
         21    1    1    2  503  502  0.15794162892E+03  0.12651830786E+03 -0.34674726666E+03  0.40147989651E+03  0.00000000000E+00 0.  1.
          1    1    1    2  501    0  0.21619244674E+02 -0.13172833520E+02 -0.30758689276E+03  0.30862697854E+03  0.00000000000E+00 0.  1.
<mgrwt>
<rscale>  4 0.23905086E+03</rscale>
<asrwt>0</asrwt>
<pdfrwt beam="1">  1       21 0.54603292E-02 0.23905086E+03</pdfrwt>
<pdfrwt beam="2">  1        1 0.41198221E+00 0.23905086E+03</pdfrwt>
<totfact> 0.31515898E+03</totfact>
</mgrwt>
</event>
<event>
 5    0  0.1239749E+000  0.2662482E+03  0.7546771E-02  0.1103446E+00
          1   -1    0    0  503    0 -0.00000000000E+00  0.00000000000E+00  0.60414755531E+03  0.60414755531E+03  0.00000000000E+00 0. -1.
         21   -1    0    0  501  502  0.00000000000E+00 -0.00000000000E+00 -0.75239056055E+03  0.75239056055E+03  0.00000000000E+00 0. -1.
         25    1    1    2    0    0 -0.14106809940E+03  0.16708188598E+03 -0.30003897350E+03  0.39174602858E+03  0.12500000000E+03 0.  0.
         21    1    1    2  503  502  0.13424168865E+03 -0.21065625707E+03 -0.36709932523E+03  0.44402567966E+03  0.00000000000E+00 0. -1.
          1    1    1    2  501    0  0.68264107504E+01  0.43574371092E+02  0.51889529349E+03  0.52076640762E+03  0.00000000000E+00 0. -1.
<mgrwt>
<rscale>  4 0.26624822E+03</rscale>
<asrwt>0</asrwt>
<pdfrwt beam="1">  1       21 0.11575239E+00 0.26624822E+03</pdfrwt>
<pdfrwt beam="2">  1        1 0.92945778E-01 0.26624822E+03</pdfrwt>
<totfact> 0.21263380E+02</totfact>
</mgrwt>
</event>
<event>
 5    0  0.1239749E+000  0.4428105E+03  0.7546771E-02  0.1029888E+00
         21   -1    0    0  501  502  0.00000000000E+00  0.00000000000E+00  0.19857984685E+04  0.19857984685E+04  0.00000000000E+00 0. -1.
          2   -1    0    0  503    0 -0.00000000000E+00 -0.00000000000E+00 -0.25243426051E+04  0.25243426051E+04  0.00000000000E+00 0. -1.
         25    1    1    2    0    0  0.17428640096E+03 -0.22318146371E+03  0.17993384878E+04  0.18257682518E+04  0.12500000000E+03 0.  0.
         21    1    1    2  503  502  0.23335993650E+03  0.96745721613E+02  0.50954870537E+02  0.25770718547E+03  0.00000000000E+00 0.  1.
          2    1    1    2  501    0 -0.40764633745E+03  0.12643574209E+03 -0.23888374950E+04  0.24266656364E+04  0.00000000000E+00 0. -1.
<mgrwt>
<rscale>  4 0.44281052E+03</rscale>
<asrwt>0</asrwt>
<pdfrwt beam="1">  1       21 0.30550746E+00 0.44281052E+03</pdfrwt>
<pdfrwt beam="2">  1        2 0.38836040E+00 0.44281052E+03</pdfrwt>
<totfact> 0.11918441E+00</totfact>
</mgrwt>
</event>
<event>
 5    0  0.1239749E+000  0.3000914E+03  0.7546771E-02  0.1085195E+00
          3   -1    0    0  503    0 -0.00000000000E+00  0.00000000000E+00  0.40222863297E+03  0.40222863297E+03  0.00000000000E+00 0.  1.
         21   -1    0    0  501  502  0.00000000000E+00 -0.00000000000E+00 -0.13699574686E+04  0.13699574686E+04  0.00000000000E+00 0. -1.
         25    1    1    2    0    0 -0.25281535309E+03 -0.94080985671E+02 -0.11866718270E+04  0.12233486255E+04  0.12500000000E+03 0.  0.
         21    1    1    2  503  502  0.25986746698E+03  0.14884413973E+03 -0.23300696971E+02  0.30038075971E+03  0.00000000000E+00 0. -1.
          3    1    1    2  501    0 -0.70521138884E+01 -0.54763154056E+02  0.24224368833E+03  0.24845671633E+03  0.00000000000E+00 0.  1.
<mgrwt>
<rscale>  4 0.30009140E+03</rscale>
<asrwt>0</asrwt>
<pdfrwt beam="1">  1       21 0.21076269E+00 0.30009140E+03</pdfrwt>
<pdfrwt beam="2">  1        3 0.61881328E-01 0.30009140E+03</pdfrwt>
<totfact> 0.13655212E+01</totfact>
</mgrwt>
</event>
<event>
 5    0  0.1239749E+000  0.2430286E+03  0.7546771E-02  0.1117792E+00
         21   -1    0    0  501  502  0.00000000000E+00  0.00000000000E+00  0.11392213539E+03  0.11392213539E+03  0.00000000000E+00 0.  1.
          2   -1    0    0  503    0 -0.00000000000E+00 -0.00000000000E+00 -0.20867519011E+04  0.20867519011E+04  0.00000000000E+00 0. -1.
         25    1    1    2    0    0 -0.19331946013E+03  0.68839008635E+02 -0.40073666796E+02  0.24360238411E+03  0.12500000000E+03 0.  0.
         21    1    1    2  503  502  0.22203768766E+03 -0.75841202133E+02 -0.11466345873E+04  0.11703945913E+04  0.00000000000E+00 0. -1.
          2    1    1    2  501    0 -0.28718227536E+02  0.70021934974E+01 -0.78612151168E+03  0.78667706108E+03  0.00000000000E+00 0. -1.
<mgrwt>
<rscale>  4 0.24302863E+03</rscale>
<asrwt>0</asrwt>
<pdfrwt beam="1">  1       21 0.17526483E-01 0.24302863E+03</pdfrwt>
<pdfrwt beam="2">  1        2 0.32103874E+00 0.24302863E+03</pdfrwt>
<totfact> 0.24915453E+03</totfact>
</mgrwt>
</event>
<event>
 5    0  0.1239749E+000  0.2630518E+03  0.7546771E-02  0.1105323E+00
         21   -1    0    0  501  502  0.00000000000E+00  0.00000000000E+00  0.14296101730E+03  0.14296101730E+03  0.00000000000E+00 0.  1.
          2   -1    0    0  503    0 -0.00000000000E+00 -0.00000000000E+00 -0.17171176380E+04  0.17171176380E+04  0.00000000000E+00 0.  1.
         25    1    1    2    0    0  0.19445921135E+03 -0.12348176369E+03 -0.39604085827E+01  0.26211221963E+03  0.12500000000E+03 0.  0.
         21    1    1    2  503  502 -0.22927810506E+03  0.89175560407E+02 -0.12395364730E+04  0.12637133369E+04  0.00000000000E+00 0.  1.
          2    1    1    2  501    0  0.34818893702E+02  0.34306203284E+02 -0.33065973913E+03  0.33425309875E+03  0.00000000000E+00 0.  1.
<mgrwt>
<rscale>  4 0.26305178E+03</rscale>
<asrwt>0</asrwt>
<pdfrwt beam="1">  1       21 0.21994003E-01 0.26305178E+03</pdfrwt>
<pdfrwt beam="2">  1        2 0.26417194E+00 0.26305178E+03</pdfrwt>
<totfact> 0.25203804E+03</totfact>
</mgrwt>
</event>
<event>
 5    0  0.1239749E+000  0.2696209E+03  0.7546771E-02  0.1101497E+00
         21   -1    0    0  501  502  0.00000000000E+00  0.00000000000E+00  0.37849293466E+03  0.37849293466E+03  0.00000000000E+00 0.  1.
          4   -1    0    0  503    0 -0.00000000000E+00 -0.00000000000E+00 -0.38096289810E+03  0.38096289810E+03  0.00000000000E+00 0.  1.
         25    1    1    2    0    0 -0.22506854542E+03 -0.22639072412E+03  0.57666949259E+02  0.34764793562E+03  0.12500000000E+03 0.  0.
         21    1    1    2  503  502  0.22733006930E+02  0.19350951641E+03 -0.68812158970E+02  0.20663454641E+03  0.00000000000E+00 0.  1.
          4    1    1    2  501    0  0.20233553849E+03  0.32881207701E+02  0.86752462713E+01  0.20517335074E+03  0.00000000000E+00 0.  1.
<mgrwt>
<rscale>  4 0.26962088E+03</rscale>
<asrwt>0</asrwt>
<pdfrwt beam="1">  1       21 0.58229682E-01 0.26962088E+03</pdfrwt>
<pdfrwt beam="2">  1        4 0.58609676E-01 0.26962088E+03</pdfrwt>
<totfact> 0.32087011E+02</totfact>
</mgrwt>
</event>
<event>
 5    0  0.1239749E+000  0.4702539E+03  0.7546771E-02  0.1021849E+00
         21   -1    0    0  501  502  0.00000000000E+00  0.00000000000E+00  0.57233559775E+03  0.57233559775E+03  0.00000000000E+00 0.  1.
          2   -1    0    0  503    0 -0.00000000000E+00 -0.00000000000E+00 -0.12171992371E+04  0.12171992371E+04  0.00000000000E+00 0.  1.
         25    1    1    2    0    0  0.15512115471E+03 -0.38169333137E+03 -0.15658661097E+03  0.45814488821E+03  0.12500000000E+03 0.  0.
         21    1    1    2  503  502 -0.19643415058E+03  0.42832270729E+03  0.28823543279E+03  0.55238245972E+03  0.00000000000E+00 0.  1.
          2    1    1    2  501    0  0.41312995862E+02 -0.46629375914E+02 -0.77651246121E+03  0.77900748696E+03  0.00000000000E+00 0.  1.
<mgrwt>
<rscale>  4 0.47025394E+03</rscale>
<asrwt>0</asrwt>
<pdfrwt beam="1">  1       21 0.88051632E-01 0.47025394E+03</pdfrwt>
<pdfrwt beam="2">  1        2 0.18726142E+00 0.47025394E+03</pdfrwt>
<totfact> 0.24057173E+02</totfact>
</mgrwt>
</event>
<event>
 5    0  0.1239749E+000  0.2947831E+03  0.7546771E-02  0.1087878E+00
         21   -1    0    0  501  502  0.00000000000E+00  0.00000000000E+00  0.68395358371E+03  0.68395358371E+03  0.00000000000E+00 0.  1.
          1   -1    0    0  503    0 -0.00000000000E+00 -0.00000000000E+00 -0.61836543012E+03  0.61836543012E+03  0.00000000000E+00 0.  1.
         25    1    1    2    0    0 -0.80465818926E+02 -0.25867726058E+03  0.30776085970E+03  0.42863786571E+03  0.12500000000E+03 0.  0.
         21    1    1    2  503  502  0.43038272016E+02  0.26105194579E+03  0.25950802046E+03  0.37060062593E+03  0.00000000000E+00 0.  1.
          1    1    1    2  501    0  0.37427546910E+02 -0.23746852129E+01 -0.50168072657E+03  0.50308052219E+03  0.00000000000E+00 0.  1.
<mgrwt>
<rscale>  4 0.29478313E+03</rscale>
<asrwt>0</asrwt>
<pdfrwt beam="1">  1       21 0.10522363E+00 0.29478313E+03</pdfrwt>
<pdfrwt beam="2">  1        1 0.95133144E-01 0.29478313E+03</pdfrwt>
<totfact> 0.25617009E+02</totfact>
</mgrwt>
</event>
<event>
 5    0  0.1239749E+000  0.2977973E+03  0.7546771E-02  0.1086347E+00
         21   -1    0    0  503  502  0.00000000000E+00  0.00000000000E+00  0.32848103650E+03  0.32848103650E+03  0.00000000000E+00 0.  1.
         -1   -1    0    0    0  501 -0.00000000000E+00 -0.00000000000E+00 -0.28695703743E+03  0.28695703743E+03  0.00000000000E+00 0.  1.
         25    1    1    2    0    0  0.21564973099E+03  0.17531525181E+03  0.71349861633E+02  0.31297930722E+03  0.12500000000E+03 0.  0.
         21    1    1    2  503  501 -0.22229177395E+03 -0.13982005027E+03 -0.13856261315E+02  0.26297390593E+03  0.00000000000E+00 0.  1.
         -1    1    1    2    0  502  0.66420429585E+01 -0.35495201544E+02 -0.15969601251E+02  0.39484860787E+02  0.00000000000E+00 0.  1.
<mgrwt>
<rscale>  4 0.29779731E+03</rscale>
<asrwt>0</asrwt>
<pdfrwt beam="1">  1       21 0.50535544E-01 0.29779731E+03</pdfrwt>
<pdfrwt beam="2">  1       -1 0.44147237E-01 0.29779731E+03</pdfrwt>
<totfact> 0.17223646E+03</totfact>
</mgrwt>
</event>
<event>
 5    0  0.1239749E+000  0.3049383E+03  0.7546771E-02  0.1082798E+00
         21   -1    0    0  501  502  0.00000000000E+00  0.00000000000E+00  0.73771291517E+03  0.73771291517E+03  0.00000000000E+00 0.  1.
          2   -1    0    0  503    0 -0.00000000000E+00 -0.00000000000E+00 -0.20943254839E+04  0.20943254839E+04  0.00000000000E+00 0.  1.
         25    1    1    2    0    0 -0.22871894146E+03 -0.16158517450E+03  0.51907445602E+03  0.60289751508E+03  0.12500000000E+03 0.  0.
         21    1    1    2  503  502  0.23988927199E+03  0.13334643990E+03  0.69976880832E+02  0.28324000371E+03  0.00000000000E+00 0.  1.
          2    1    1    2  501    0 -0.11170330525E+02  0.28238734600E+02 -0.19456639056E+04  0.19459008803E+04  0.00000000000E+00 0.  1.
<mgrwt>
<rscale>  4 0.30493830E+03</rscale>
<asrwt>0</asrwt>
<pdfrwt beam="1">  1       21 0.11349430E+00 0.30493830E+03</pdfrwt>
<pdfrwt beam="2">  1        2 0.32220392E+00 0.30493830E+03</pdfrwt>
<totfact> 0.47156221E+01</totfact>
</mgrwt>
</event>
<event>
 5    0  0.1239749E+000  0.2649234E+03  0.7546771E-02  0.1104221E+00
          1   -1    0    0  503    0 -0.00000000000E+00  0.00000000000E+00  0.52852714151E+03  0.52852714151E+03  0.00000000000E+00 0.  1.
         21   -1    0    0  501  502  0.00000000000E+00 -0.00000000000E+00 -0.30077590326E+03  0.30077590326E+03  0.00000000000E+00 0.  1.
         25    1    1    2    0    0 -0.20456416030E+03  0.96529654578E+02 -0.17106480755E+03  0.30992360070E+03  0.12500000000E+03 0.  0.
         21    1    1    2  503  502  0.23934769500E+03 -0.11684050500E+03  0.25030091195E+03  0.36549906872E+03  0.00000000000E+00 0.  1.
          1    1    1    2  501    0 -0.34783534708E+02  0.20310850427E+02  0.14851513385E+03  0.15388037534E+03  0.00000000000E+00 0.  1.
<mgrwt>
<rscale>  4 0.26492344E+03</rscale>
<asrwt>0</asrwt>
<pdfrwt beam="1">  1       21 0.46273216E-01 0.26492344E+03</pdfrwt>
<pdfrwt beam="2">  1        1 0.81311868E-01 0.26492344E+03</pdfrwt>
<totfact> 0.20177550E+03</totfact>
</mgrwt>
</event>
<event>
 5    0  0.1239749E+000  0.2958528E+03  0.7546771E-02  0.1087332E+00
         21   -1    0    0  501  502  0.00000000000E+00  0.00000000000E+00  0.10914010245E+03  0.10914010245E+03  0.00000000000E+00 0. -1.
          2   -1    0    0  503    0 -0.00000000000E+00 -0.00000000000E+00 -0.14531882076E+04  0.14531882076E+04  0.00000000000E+00 0. -1.
         25    1    1    2    0    0  0.16308254620E+03 -0.24857391871E+03 -0.26804250533E+03  0.41935270907E+03  0.12500000000E+03 0.  0.
         21    1    1    2  503  502 -0.20254793257E+03  0.12375195904E+03 -0.51759648304E+03  0.56942631798E+03  0.00000000000E+00 0. -1.
          2    1    1    2  501    0  0.39465386366E+02  0.12482195967E+03 -0.55840911681E+03  0.57354928303E+03  0.00000000000E+00 0. -1.
<mgrwt>
<rscale>  4 0.29585277E+03</rscale>
<asrwt>0</asrwt>
<pdfrwt beam="1">  1       21 0.16790786E-01 0.29585277E+03</pdfrwt>
<pdfrwt beam="2">  1        2 0.22356741E+00 0.29585277E+03</pdfrwt>
<totfact> 0.57158923E+03</totfact>
</mgrwt>
</event>
<event>
 5    0  0.1239749E+000  0.2373245E+03  0.7546771E-02  0.1121588E+00
         21   -1    0    0  501  502  0.00000000000E+00  0.00000000000E+00  0.66386881997E+02  0.66386881997E+02  0.00000000000E+00 0. -1.
          2   -1    0    0  503    0 -0.00000000000E+00 -0.00000000000E+00 -0.30990017997E+04  0.30990017997E+04  0.00000000000E+00 0.  1.
         25    1    1    2    0    0 -0.78941199361E+02 -0.19250303197E+03 -0.26849032610E+03  0.36194085910E+03  0.12500000000E+03 0.  0.
         21    1    1    2  503  502 -0.15970401835E+03  0.12789666368E+03 -0.89783259652E+03  0.92085085732E+03  0.00000000000E+00 0.  1.
          2    1    1    2  501    0  0.23864521771E+03  0.64606368292E+02 -0.18662919951E+04  0.18825969653E+04  0.00000000000E+00 0.  1.
<mgrwt>
<rscale>  4 0.23732446E+03</rscale>
<asrwt>0</asrwt>
<pdfrwt beam="1">  1       21 0.10213365E-01 0.23732446E+03</pdfrwt>
<pdfrwt beam="2">  1        2 0.47676960E+00 0.23732446E+03</pdfrwt>
<totfact> 0.18209722E+03</totfact>
</mgrwt>
</event>
<event>
 5    0  0.1239749E+000  0.3043675E+03  0.7546771E-02  0.1083077E+00
         21   -1    0    0  501  502  0.00000000000E+00  0.00000000000E+00  0.79477967706E+03  0.79477967706E+03  0.00000000000E+00 0. -1.
          2   -1    0    0  503    0 -0.00000000000E+00 -0.00000000000E+00 -0.30474971701E+04  0.30474971701E+04  0.00000000000E+00 0. -1.
         25    1    1    2    0    0  0.25302037312E+03 -0.84043069568E+02  0.58843996927E+03  0.65800390894E+03  0.12500000000E+03 0.  0.
         21    1    1    2  503  502 -0.30856207137E+03  0.10588532102E+03  0.15881586905E+02  0.32661059061E+03  0.00000000000E+00 0. -1.
          2    1    1    2  501    0  0.55541698256E+02 -0.21842251450E+02 -0.28570390492E+04  0.28576623476E+04  0.00000000000E+00 0. -1.
<mgrwt>
<rscale>  4 0.30436751E+03</rscale>
<asrwt>0</asrwt>
<pdfrwt beam="1">  1       21 0.12227380E+00 0.30436751E+03</pdfrwt>
<pdfrwt beam="2">  1        2 0.46884571E+00 0.30436751E+03</pdfrwt>
<totfact> 0.11490728E+01</totfact>
</mgrwt>
</event>
<event>
 5    0  0.1239749E+000  0.3843909E+03  0.7546771E-02  0.1049323E+00
          2   -1    0    0  503    0 -0.00000000000E+00  0.00000000000E+00  0.98334782135E+03  0.98334782135E+03  0.00000000000E+00 0. -1.
         21   -1    0    0  501  502  0.00000000000E+00 -0.00000000000E+00 -0.21435920270E+03  0.21435920270E+03  0.00000000000E+00 0. -1.
         25    1    1    2    0    0 -0.16986617760E+03 -0.31160087226E+03  0.14559152365E+03  0.40344951809E+03  0.12500000000E+03 0.  0.
         21    1    1    2  503  502  0.17438766511E+03  0.33380355355E+03  0.33222301362E+03  0.50220314702E+03  0.00000000000E+00 0. -1.
          2    1    1    2  501    0 -0.45214875107E+01 -0.22202681286E+02  0.29117408138E+03  0.29205435894E+03  0.00000000000E+00 0. -1.
<mgrwt>
<rscale>  4 0.38439085E+03</rscale>
<asrwt>0</asrwt>
<pdfrwt beam="1">  1       21 0.32978339E-01 0.38439085E+03</pdfrwt>
<pdfrwt beam="2">  1        2 0.15128428E+00 0.38439085E+03</pdfrwt>
<totfact> 0.28413354E+03</totfact>
</mgrwt>
</event>
<event>
 5    0  0.1239749E+000  0.2444033E+03  0.7546771E-02  0.1116894E+00
         21   -1    0    0  503  502  0.00000000000E+00  0.00000000000E+00  0.28777299248E+04  0.28777299248E+04  0.00000000000E+00 0.  1.
         -1   -1    0    0    0  501 -0.00000000000E+00 -0.00000000000E+00 -0.19348883959E+03  0.19348883959E+03  0.00000000000E+00 0. -1.
         25    1    1    2    0    0  0.25133072227E+03  0.53622476790E+02  0.13311147609E+03  0.31525571690E+03  0.12500000000E+03 0.  0.
         21    1    1    2  503  501 -0.20765678200E+03 -0.12488576304E+02  0.26403031173E+04  0.26484859552E+04  0.00000000000E+00 0.  1.
         -1    1    1    2    0  502 -0.43673940271E+02 -0.41133900485E+02 -0.89173508123E+02  0.10747709234E+03  0.00000000000E+00 0. -1.
<mgrwt>
<rscale>  4 0.24440328E+03</rscale>
<asrwt>0</asrwt>
<pdfrwt beam="1">  1       21 0.44272765E+00 0.24440328E+03</pdfrwt>
<pdfrwt beam="2">  1       -1 0.29767516E-01 0.24440328E+03</pdfrwt>
<totfact> 0.40700333E+00</totfact>
</mgrwt>
</event>
<event>
 5    0  0.1239749E+000  0.1963689E+03  0.7546771E-02  0.1152839E+00
          1   -1    0    0  503    0 -0.00000000000E+00  0.00000000000E+00  0.12766931239E+04  0.12766931239E+04  0.00000000000E+00 0.  1.
         21   -1    0    0  501  502  0.00000000000E+00 -0.00000000000E+00 -0.71068795489E+03  0.71068795489E+03  0.00000000000E+00 0. -1.
         25    1    1    2    0    0 -0.40406205673E+02 -0.21756806583E+03  0.78015487173E+03  0.82050907894E+03  0.12500000000E+03 0.  0.
         21    1    1    2  503  502  0.12050510221E+03  0.91501697061E+02 -0.67015762834E+03  0.68702640928E+03  0.00000000000E+00 0. -1.
          1    1    1    2  501    0 -0.80098896539E+02  0.12606636877E+03  0.45600792560E+03  0.47984559056E+03  0.00000000000E+00 0.  1.
<mgrwt>
<rscale>  4 0.19636889E+03</rscale>
<asrwt>0</asrwt>
<pdfrwt beam="1">  1       21 0.10933661E+00 0.19636889E+03</pdfrwt>
<pdfrwt beam="2">  1        1 0.19641433E+00 0.19636889E+03</pdfrwt>
<totfact> 0.75644305E+01</totfact>
</mgrwt>
</event>
<event>
 5    0  0.1239749E+000  0.1900195E+03  0.7546771E-02  0.1158444E+00
          4   -1    0    0  503    0 -0.00000000000E+00  0.00000000000E+00  0.29173215834E+03  0.29173215834E+03  0.00000000000E+00 0.  1.
         21   -1    0    0  501  502  0.00000000000E+00 -0.00000000000E+00 -0.79774287122E+03  0.79774287122E+03  0.00000000000E+00 0. -1.
         25    1    1    2    0    0 -0.20567412466E+03 -0.12825275093E+03 -0.57391099478E+03  0.63541281354E+03  0.12500000000E+03 0.  0.
         21    1    1    2  503  502  0.10849771331E+03  0.27424876066E+02 -0.15478697886E+03  0.19100493828E+03  0.00000000000E+00 0. -1.
          4    1    1    2  501    0  0.97176411352E+02  0.10082787487E+03  0.22268726076E+03  0.26305727775E+03  0.00000000000E+00 0.  1.
<mgrwt>
<rscale>  4 0.19001954E+03</rscale>
<asrwt>0</asrwt>
<pdfrwt beam="1">  1       21 0.12272967E+00 0.19001954E+03</pdfrwt>
<pdfrwt beam="2">  1        4 0.44881871E-01 0.19001954E+03</pdfrwt>
<totfact> 0.10153198E+02</totfact>
</mgrwt>
</event>
<event>
 5    0  0.1239749E+000  0.2444394E+03  0.7546771E-02  0.1116870E+00
         -1   -1    0    0    0  501 -0.00000000000E+00  0.00000000000E+00  0.26691276525E+03  0.26691276525E+03  0.00000000000E+00 0. -1.
         21   -1    0    0  503  502  0.00000000000E+00 -0.00000000000E+00 -0.47845909882E+03  0.47845909882E+03  0.00000000000E+00 0.  1.
         25    1    1    2    0    0  0.11459173359E+03 -0.18291880705E+03 -0.37990247201E+03  0.45446830871E+03  0.12500000000E+03 0.  0.
         21    1    1    2  503  501 -0.12799465664E+03  0.13276323212E+03  0.14154915243E+03  0.23247552663E+03  0.00000000000E+00 0. -1.
         -1    1    1    2    0  502  0.13402923042E+02  0.50155574931E+02  0.26806986006E+02  0.58428028731E+02  0.00000000000E+00 0. -1.
<mgrwt>
<rscale>  4 0.24443942E+03</rscale>
<asrwt>0</asrwt>
<pdfrwt beam="1">  1       21 0.73609091E-01 0.24443942E+03</pdfrwt>
<pdfrwt beam="2">  1       -1 0.41063503E-01 0.24443942E+03</pdfrwt>
<totfact> 0.88048261E+02</totfact>
</mgrwt>
</event>
<event>
 5    0  0.1239749E+000  0.3514410E+03  0.7546771E-02  0.1062025E+00
          2   -1    0    0  503    0 -0.00000000000E+00  0.00000000000E+00  0.37006882155E+03  0.37006882155E+03  0.00000000000E+00 0. -1.
         21   -1    0    0  501  502  0.00000000000E+00 -0.00000000000E+00 -0.58644234654E+03  0.58644234654E+03  0.00000000000E+00 0. -1.
         25    1    1    2    0    0  0.24662934852E+03  0.29802314978E+03 -0.27358093673E+03  0.49001567556E+03  0.12500000000E+03 0.  0.
         21    1    1    2  503  502 -0.10688606887E+03 -0.25334225512E+03 -0.56703602710E+02  0.28075296705E+03  0.00000000000E+00 0. -1.
          2    1    1    2  501    0 -0.13974327965E+03 -0.44680894658E+02  0.11391101446E+03  0.18574252548E+03  0.00000000000E+00 0. -1.
<mgrwt>
<rscale>  4 0.35144101E+03</rscale>
<asrwt>0</asrwt>
<pdfrwt beam="1">  1       21 0.90221899E-01 0.35144101E+03</pdfrwt>
<pdfrwt beam="2">  1        2 0.56933665E-01 0.35144101E+03</pdfrwt>
<totfact> 0.10631692E+03</totfact>
</mgrwt>
</event>
<event>
 5    0  0.1239749E+000  0.2393110E+03  0.7546771E-02  0.1120253E+00
          2   -1    0    0  503    0 -0.00000000000E+00  0.00000000000E+00  0.18507178627E+04  0.18507178627E+04  0.00000000000E+00 0.  1.
         21   -1    0    0  501  502  0.00000000000E+00 -0.00000000000E+00 -0.28615026725E+03  0.28615026725E+03  0.00000000000E+00 0.  1.
         25    1    1    2    0    0 -0.20157278429E+03  0.13630434960E+03  0.35490273381E+03  0.44809754915E+03  0.12500000000E+03 0.  0.
         21    1    1    2  503  502  0.16156092361E+03 -0.11788510034E+03 -0.19740485732E+03  0.28101157736E+03  0.00000000000E+00 0.  1.
          2    1    1    2  501    0  0.40011860681E+02 -0.18419249265E+02  0.14070697189E+04  0.14077590034E+04  0.00000000000E+00 0.  1.
<mgrwt>
<rscale>  4 0.23931103E+03</rscale>
<asrwt>0</asrwt>
<pdfrwt beam="1">  1       21 0.44023119E-01 0.23931103E+03</pdfrwt>
<pdfrwt beam="2">  1        2 0.28472582E+00 0.23931103E+03</pdfrwt>
<totfact> 0.55251154E+02</totfact>
</mgrwt>
</event>
<event>
 5    0  0.1239749E+000  0.5451451E+03  0.7546771E-02  0.1002624E+00
          1   -1    0    0  503    0 -0.00000000000E+00  0.00000000000E+00  0.20500245038E+04  0.20500245038E+04  0.00000000000E+00 0. -1.
         21   -1    0    0  501  502  0.00000000000E+00 -0.00000000000E+00 -0.43458228016E+03  0.43458228016E+03  0.00000000000E+00 0. -1.
         25    1    1    2    0    0  0.28486707640E+03 -0.50377967339E+03  0.20847206336E+03  0.62771714310E+03  0.12500000000E+03 0.  0.
         21    1    1    2  503  502 -0.15578671833E+03  0.47749113601E+03  0.62677149787E+02  0.50615779326E+03  0.00000000000E+00 0. -1.
          1    1    1    2  501    0 -0.12908035807E+03  0.26288537382E+02  0.13442930105E+04  0.13507318476E+04  0.00000000000E+00 0. -1.
<mgrwt>
<rscale>  4 0.54514507E+03</rscale>
<asrwt>0</asrwt>
<pdfrwt beam="1">  1       21 0.66858814E-01 0.54514507E+03</pdfrwt>
<pdfrwt beam="2">  1        1 0.31538838E+00 0.54514507E+03</pdfrwt>
<totfact> 0.60409161E+01</totfact>
</mgrwt>
</event>
<event>
 5    0  0.1239749E+000  0.4515963E+03  0.7546771E-02  0.1027247E+00
         21   -1    0    0  501  502  0.00000000000E+00  0.00000000000E+00  0.11990922008E+04  0.11990922008E+04  0.00000000000E+00 0.  1.
          2   -1    0    0  503    0 -0.00000000000E+00 -0.00000000000E+00 -0.38604805722E+03  0.38604805722E+03  0.00000000000E+00 0. -1.
         25    1    1    2    0    0 -0.25599244488E+03 -0.29566034510E+03  0.24486448142E+03  0.47804893657E+03  0.12500000000E+03 0.  0.
         21    1    1    2  503  502  0.23451573615E+03  0.39554763528E+03  0.76084545536E+03  0.88901145618E+03  0.00000000000E+00 0.  1.
          2    1    1    2  501    0  0.21476708726E+02 -0.99887290182E+02 -0.19266579320E+03  0.21807986525E+03  0.00000000000E+00 0. -1.
<mgrwt>
<rscale>  4 0.45159627E+03</rscale>
<asrwt>0</asrwt>
<pdfrwt beam="1">  1       21 0.18447572E+00 0.45159627E+03</pdfrwt>
<pdfrwt beam="2">  1        2 0.59392009E-01 0.45159627E+03</pdfrwt>
<totfact> 0.15242586E+02</totfact>
</mgrwt>
</event>
<event>
 5    0  0.1239749E+000  0.2629641E+03  0.7546771E-02  0.1105375E+00
         21   -1    0    0  501  502  0.00000000000E+00  0.00000000000E+00  0.36865656137E+03  0.36865656137E+03  0.00000000000E+00 0.  1.
          1   -1    0    0  503    0 -0.00000000000E+00 -0.00000000000E+00 -0.13241165945E+04  0.13241165945E+04  0.00000000000E+00 0. -1.
         25    1    1    2    0    0 -0.20275644673E+03 -0.11535118340E+03  0.26080124990E+03  0.37156205962E+03  0.12500000000E+03 0.  0.
         21    1    1    2  503  502  0.20935499679E+03  0.82072441400E+02 -0.19000195639E+03  0.29439114075E+03  0.00000000000E+00 0.  1.
          1    1    1    2  501    0 -0.65985500584E+01  0.33278742002E+02 -0.10262593266E+04  0.10268199555E+04  0.00000000000E+00 0. -1.
<mgrwt>
<rscale>  4 0.26296407E+03</rscale>
<asrwt>0</asrwt>
<pdfrwt beam="1">  1       21 0.56716395E-01 0.26296407E+03</pdfrwt>
<pdfrwt beam="2">  1        1 0.20371024E+00 0.26296407E+03</pdfrwt>
<totfact> 0.29680135E+02</totfact>
</mgrwt>
</event>
<event>
 5    0  0.1239749E+000  0.2798629E+03  0.7546771E-02  0.1095764E+00
         21   -1    0    0  501  502  0.00000000000E+00  0.00000000000E+00  0.13161306554E+03  0.13161306554E+03  0.00000000000E+00 0.  1.
          2   -1    0    0  503    0 -0.00000000000E+00 -0.00000000000E+00 -0.11642326483E+04  0.11642326483E+04  0.00000000000E+00 0. -1.
         25    1    1    2    0    0  0.52682543554E+02 -0.27602332357E+03 -0.18399208991E+03  0.35838863640E+03  0.12500000000E+03 0.  0.
         21    1    1    2  503  502 -0.15325359028E+03  0.16939711088E+03 -0.35178823395E+03  0.41944845411E+03  0.00000000000E+00 0.  1.
          2    1    1    2  501    0  0.10057104672E+03  0.10662621269E+03 -0.49683925887E+03  0.51800862332E+03  0.00000000000E+00 0. -1.
<mgrwt>
<rscale>  4 0.27986293E+03</rscale>
<asrwt>0</asrwt>
<pdfrwt beam="1">  1       21 0.20248165E-01 0.27986293E+03</pdfrwt>
<pdfrwt beam="2">  1        2 0.17911271E+00 0.27986293E+03</pdfrwt>
<totfact> 0.58594869E+03</totfact>
</mgrwt>
</event>
<event>
 5    0  0.1239749E+000  0.2437331E+03  0.7546771E-02  0.1117331E+00
         21   -1    0    0  501  502  0.00000000000E+00  0.00000000000E+00  0.88646511424E+03  0.88646511424E+03  0.00000000000E+00 0.  1.
          2   -1    0    0  503    0 -0.00000000000E+00 -0.00000000000E+00 -0.18208818140E+04  0.18208818140E+04  0.00000000000E+00 0.  1.
         25    1    1    2    0    0 -0.18914229745E+03  0.12404981002E+03  0.71108364039E+03  0.75658978825E+03  0.12500000000E+03 0.  0.
         21    1    1    2  503  502  0.15089983110E+03 -0.84490875722E+02  0.10306570904E+03  0.20132562551E+03  0.00000000000E+00 0. -1.
          2    1    1    2  501    0  0.38242466350E+02 -0.39558934298E+02 -0.17485660492E+04  0.17494315145E+04  0.00000000000E+00 0.  1.
<mgrwt>
<rscale>  4 0.24373307E+03</rscale>
<asrwt>0</asrwt>
<pdfrwt beam="1">  1       21 0.13637925E+00 0.24373307E+03</pdfrwt>
<pdfrwt beam="2">  1        2 0.28013566E+00 0.24373307E+03</pdfrwt>
<totfact> 0.43366193E+01</totfact>
</mgrwt>
</event>
<event>
 5    0  0.1239749E+000  0.3001367E+03  0.7546771E-02  0.1085172E+00
          2   -1    0    0  503    0 -0.00000000000E+00  0.00000000000E+00  0.24083253950E+04  0.24083253950E+04  0.00000000000E+00 0. -1.
         21   -1    0    0  501  502  0.00000000000E+00 -0.00000000000E+00 -0.87850245775E+03  0.87850245775E+03  0.00000000000E+00 0. -1.
         25    1    1    2    0    0  0.22755806212E+03  0.87226965777E+02 -0.26821135237E+03  0.38334520310E+03  0.12500000000E+03 0.  0.
         21    1    1    2  503  502 -0.27042134437E+03 -0.11153181016E+03 -0.51374083296E+03  0.59118245206E+03  0.00000000000E+00 0. -1.
          2    1    1    2  501    0  0.42863282246E+02  0.24304844385E+02  0.23117751226E+04  0.23123001976E+04  0.00000000000E+00 0. -1.
<mgrwt>
<rscale>  4 0.30013672E+03</rscale>
<asrwt>0</asrwt>
<pdfrwt beam="1">  1       21 0.13515423E+00 0.30013672E+03</pdfrwt>
<pdfrwt beam="2">  1        2 0.37051160E+00 0.30013672E+03</pdfrwt>
<totfact> 0.20635767E+01</totfact>
</mgrwt>
</event>
<event>
 5    0  0.1239749E+000  0.2441804E+03  0.7546771E-02  0.1117039E+00
          2   -1    0    0  503    0 -0.00000000000E+00  0.00000000000E+00  0.12910050712E+04  0.12910050712E+04  0.00000000000E+00 0. -1.
         21   -1    0    0  501  502  0.00000000000E+00 -0.00000000000E+00 -0.29700623820E+03  0.29700623820E+03  0.00000000000E+00 0. -1.
         25    1    1    2    0    0  0.15826812000E+03  0.13478565122E+03 -0.21549390423E+03  0.32446662747E+03  0.12500000000E+03 0.  0.
         21    1    1    2  503  502 -0.20365997946E+03 -0.11090382268E+03  0.48870181325E+03  0.54093114848E+03  0.00000000000E+00 0. -1.
          2    1    1    2  501    0  0.45391859463E+02 -0.23881828543E+02  0.72079092396E+03  0.72261353344E+03  0.00000000000E+00 0. -1.
<mgrwt>
<rscale>  4 0.24418037E+03</rscale>
<asrwt>0</asrwt>
<pdfrwt beam="1">  1       21 0.45693268E-01 0.24418037E+03</pdfrwt>
<pdfrwt beam="2">  1        2 0.19861616E+00 0.24418037E+03</pdfrwt>
<totfact> 0.10136915E+03</totfact>
</mgrwt>
</event>
<event>
 5    0  0.1239749E+000  0.2565953E+03  0.7546771E-02  0.1109206E+00
         21   -1    0    0  501  502  0.00000000000E+00  0.00000000000E+00  0.55538183434E+02  0.55538183434E+02  0.00000000000E+00 0. -1.
          1   -1    0    0  503    0 -0.00000000000E+00 -0.00000000000E+00 -0.17201309931E+04  0.17201309931E+04  0.00000000000E+00 0. -1.
         25    1    1    2    0    0  0.99594136150E+02  0.18352000679E+03 -0.43082766608E+03  0.49480911744E+03  0.12500000000E+03 0.  0.
         21    1    1    2  503  502 -0.12211710427E+03 -0.21338818397E+03 -0.63511052915E+03  0.68103780251E+03  0.00000000000E+00 0. -1.
          1    1    1    2  501    0  0.22522968119E+02  0.29868177179E+02 -0.59865461449E+03  0.59982225663E+03  0.00000000000E+00 0. -1.
<mgrwt>
<rscale>  4 0.25659527E+03</rscale>
<asrwt>0</asrwt>
<pdfrwt beam="1">  1       21 0.85443374E-02 0.25659527E+03</pdfrwt>
<pdfrwt beam="2">  1        1 0.26463549E+00 0.25659527E+03</pdfrwt>
<totfact> 0.61060171E+03</totfact>
</mgrwt>
</event>
<event>
 5    0  0.1239749E+000  0.2840579E+03  0.7546771E-02  0.1093493E+00
         21   -1    0    0  503  502  0.00000000000E+00  0.00000000000E+00  0.91466880830E+03  0.91466880830E+03  0.00000000000E+00 0.  1.
         -2   -1    0    0    0  501 -0.00000000000E+00 -0.00000000000E+00 -0.18927362391E+03  0.18927362391E+03  0.00000000000E+00 0.  1.
         25    1    1    2    0    0  0.25568242033E+03 -0.65459573505E+00  0.71793556358E+03  0.77228906636E+03  0.12500000000E+03 0.  0.
         21    1    1    2  503  501 -0.25223211416E+03  0.36549568308E+02  0.65658742061E+02  0.26318810909E+03  0.00000000000E+00 0.  1.
         -2    1    1    2    0  502 -0.34503061749E+01 -0.35894972573E+02 -0.58199121251E+02  0.68465256759E+02  0.00000000000E+00 0.  1.
<mgrwt>
<rscale>  4 0.28405790E+03</rscale>
<asrwt>0</asrwt>
<pdfrwt beam="1">  1       21 0.14071828E+00 0.28405790E+03</pdfrwt>
<pdfrwt beam="2">  1       -2 0.29119020E-01 0.28405790E+03</pdfrwt>
<totfact> 0.29209273E+02</totfact>
</mgrwt>
</event>
<event>
 5    0  0.1239749E+000  0.2594356E+03  0.7546771E-02  0.1107483E+00
         21   -1    0    0  501  502  0.00000000000E+00  0.00000000000E+00  0.50157981348E+02  0.50157981348E+02  0.00000000000E+00 0. -1.
          2   -1    0    0  503    0 -0.00000000000E+00 -0.00000000000E+00 -0.18950186713E+04  0.18950186713E+04  0.00000000000E+00 0. -1.
         25    1    1    2    0    0 -0.15021652038E+03 -0.14686838439E+03 -0.73824574729E+03  0.77766773671E+03  0.12500000000E+03 0.  0.
         21    1    1    2  503  502  0.21437840159E+03  0.11408615488E+03 -0.49183421044E+03  0.54852041016E+03  0.00000000000E+00 0. -1.
          2    1    1    2  501    0 -0.64161881205E+02  0.32782229512E+02 -0.61478073221E+03  0.61898850577E+03  0.00000000000E+00 0. -1.
<mgrwt>
<rscale>  4 0.25943563E+03</rscale>
<asrwt>0</asrwt>
<pdfrwt beam="1">  1       21 0.77166146E-02 0.25943563E+03</pdfrwt>
<pdfrwt beam="2">  1        2 0.29154126E+00 0.25943563E+03</pdfrwt>
<totfact> 0.13643990E+04</totfact>
</mgrwt>
</event>
<event>
 5    0  0.1239749E+000  0.2745538E+03  0.7546771E-02  0.1098701E+00
          2   -1    0    0  503    0 -0.00000000000E+00  0.00000000000E+00  0.87761488405E+03  0.87761488405E+03  0.00000000000E+00 0.  1.
         21   -1    0    0  501  502  0.00000000000E+00 -0.00000000000E+00 -0.14989479122E+03  0.14989479122E+03  0.00000000000E+00 0.  1.
         25    1    1    2    0    0 -0.22482254297E+03  0.21068416554E+02  0.44641873356E+03  0.51565854951E+03  0.12500000000E+03 0.  0.
         21    1    1    2  503  502  0.24142423536E+03 -0.67441033472E+02  0.26193500105E+02  0.25203185089E+03  0.00000000000E+00 0.  1.
          2    1    1    2  501    0 -0.16601692395E+02  0.46372616918E+02  0.25510785916E+03  0.25981927487E+03  0.00000000000E+00 0.  1.
<mgrwt>
<rscale>  4 0.27455376E+03</rscale>
<asrwt>0</asrwt>
<pdfrwt beam="1">  1       21 0.23060738E-01 0.27455376E+03</pdfrwt>
<pdfrwt beam="2">  1        2 0.13501767E+00 0.27455376E+03</pdfrwt>
<totfact> 0.68666336E+03</totfact>
</mgrwt>
</event>
<event>
 5    0  0.1239749E+000  0.2942504E+03  0.7546771E-02  0.1088151E+00
          2   -1    0    0  503    0 -0.00000000000E+00  0.00000000000E+00  0.16863921235E+04  0.16863921235E+04  0.00000000000E+00 0. -1.
         21   -1    0    0  501  502  0.00000000000E+00 -0.00000000000E+00 -0.39928141604E+03  0.39928141604E+03  0.00000000000E+00 0. -1.
         25    1    1    2    0    0 -0.18319084272E+03 -0.20543375922E+03 -0.29273341738E+03  0.42080846942E+03  0.12500000000E+03 0.  0.
         21    1    1    2  503  502  0.14370078684E+03  0.17292280678E+03  0.25877934277E+03  0.34281038707E+03  0.00000000000E+00 0. -1.
          2    1    1    2  501    0  0.39490055880E+02  0.32510952440E+02  0.13210647821E+04  0.13220546830E+04  0.00000000000E+00 0. -1.
<mgrwt>
<rscale>  4 0.29425044E+03</rscale>
<asrwt>0</asrwt>
<pdfrwt beam="1">  1       21 0.61427911E-01 0.29425044E+03</pdfrwt>
<pdfrwt beam="2">  1        2 0.25944494E+00 0.29425044E+03</pdfrwt>
<totfact> 0.32276015E+02</totfact>
</mgrwt>
</event>
<event>
 5    0  0.1239749E+000  0.3738253E+03  0.7546771E-02  0.1053240E+00
          2   -1    0    0  503    0 -0.00000000000E+00  0.00000000000E+00  0.16107568077E+04  0.16107568077E+04  0.00000000000E+00 0. -1.
         21   -1    0    0  501  502  0.00000000000E+00 -0.00000000000E+00 -0.22785595593E+04  0.22785595593E+04  0.00000000000E+00 0. -1.
         25    1    1    2    0    0 -0.22825863406E+03 -0.29680875121E+03 -0.15369056481E+04  0.15867896552E+04  0.12500000000E+03 0.  0.
         21    1    1    2  503  502  0.20187845664E+03  0.24900611357E+03 -0.68036313615E+03  0.75209903130E+03  0.00000000000E+00 0. -1.
          2    1    1    2  501    0  0.26380177423E+02  0.47802637648E+02  0.15494660327E+04  0.15504276804E+04  0.00000000000E+00 0. -1.
<mgrwt>
<rscale>  4 0.37382530E+03</rscale>
<asrwt>0</asrwt>
<pdfrwt beam="1">  1       21 0.35054762E+00 0.37382530E+03</pdfrwt>
<pdfrwt beam="2">  1        2 0.24780874E+00 0.37382530E+03</pdfrwt>
<totfact> 0.21036374E+00</totfact>
</mgrwt>
</event>
<event>
 5    0  0.1239749E+000  0.2758721E+03  0.7546771E-02  0.1097965E+00
         21   -1    0    0  501  502  0.00000000000E+00  0.00000000000E+00  0.90487812599E+02  0.90487812599E+02  0.00000000000E+00 0. -1.
          2   -1    0    0  503    0 -0.00000000000E+00 -0.00000000000E+00 -0.11300372604E+04  0.11300372604E+04  0.00000000000E+00 0.  1.
         25    1    1    2    0    0  0.24406025595E+03 -0.58749267371E+02 -0.21921474263E+03  0.35594520412E+03  0.12500000000E+03 0.  0.
         21    1    1    2  503  502 -0.23390424946E+03  0.23956187328E+02 -0.67446309058E+03  0.71427274719E+03  0.00000000000E+00 0.  1.
          2    1    1    2  501    0 -0.10156006490E+02  0.34793080043E+02 -0.14587161456E+03  0.15030712166E+03  0.00000000000E+00 0.  1.
<mgrwt>
<rscale>  4 0.27587214E+03</rscale>
<asrwt>0</asrwt>
<pdfrwt beam="1">  1       21 0.13921202E-01 0.27587214E+03</pdfrwt>
<pdfrwt beam="2">  1        2 0.17385189E+00 0.27587214E+03</pdfrwt>
<totfact> 0.12298294E+04</totfact>
</mgrwt>
</event>
<event>
 5    0  0.1239749E+000  0.6260738E+03  0.7546771E-02  0.9859547E-01
         21   -1    0    0  501  502  0.00000000000E+00  0.00000000000E+00  0.90857236366E+03  0.90857236366E+03  0.00000000000E+00 0. -1.
          2   -1    0    0  503    0 -0.00000000000E+00 -0.00000000000E+00 -0.76611417362E+03  0.76611417362E+03  0.00000000000E+00 0.  1.
         25    1    1    2    0    0  0.59949715353E+03  0.19770387792E+01  0.63193503191E+03  0.87998160794E+03  0.12500000000E+03 0.  0.
         21    1    1    2  503  502 -0.49776265480E+03 -0.58194882141E+01 -0.30444324156E+03  0.58351282273E+03  0.00000000000E+00 0.  1.
          2    1    1    2  501    0 -0.10173449873E+03  0.38424494348E+01 -0.18503360030E+03  0.21119210660E+03  0.00000000000E+00 0.  1.
<mgrwt>
<rscale>  4 0.62262529E+03</rscale>
<asrwt>0</asrwt>
<pdfrwt beam="1">  1       21 0.13978036E+00 0.62607375E+03</pdfrwt>
<pdfrwt beam="2">  1        2 0.11786372E+00 0.62607375E+03</pdfrwt>
<totfact> 0.14070294E+02</totfact>
</mgrwt>
</event>
<event>
 5    0  0.1239749E+000  0.2593764E+03  0.7546771E-02  0.1107518E+00
          4   -1    0    0  503    0 -0.00000000000E+00  0.00000000000E+00  0.73159864396E+03  0.73159864396E+03  0.00000000000E+00 0. -1.
         21   -1    0    0  501  502  0.00000000000E+00 -0.00000000000E+00 -0.21609725872E+03  0.21609725872E+03  0.00000000000E+00 0. -1.
         25    1    1    2    0    0 -0.44408982741E+02  0.22571962268E+03  0.22832574323E+02  0.26280759551E+03  0.12500000000E+03 0.  0.
         21    1    1    2  503  502 -0.12012830760E+02 -0.22769781479E+03  0.43427249827E+02  0.23211318143E+03  0.00000000000E+00 0. -1.
          4    1    1    2  501    0  0.56421813500E+02  0.19781921147E+01  0.44924156109E+03  0.45277512575E+03  0.00000000000E+00 0. -1.
<mgrwt>
<rscale>  4 0.25937637E+03</rscale>
<asrwt>0</asrwt>
<pdfrwt beam="1">  1       21 0.33245732E-01 0.25937637E+03</pdfrwt>
<pdfrwt beam="2">  1        4 0.11255364E+00 0.25937637E+03</pdfrwt>
<totfact> 0.23477972E+02</totfact>
</mgrwt>
</event>
<event>
 5    0  0.1239749E+000  0.2572938E+03  0.7546771E-02  0.1108780E+00
          2   -1    0    0  503    0 -0.00000000000E+00  0.00000000000E+00  0.40702313681E+03  0.40702313681E+03  0.00000000000E+00 0.  1.
         21   -1    0    0  501  502  0.00000000000E+00 -0.00000000000E+00 -0.22449695142E+03  0.22449695142E+03  0.00000000000E+00 0.  1.
         25    1    1    2    0    0  0.17099321106E+03 -0.13875144528E+03  0.13377239647E+02  0.25356378356E+03  0.12500000000E+03 0.  0.
         21    1    1    2  503  502 -0.12768286870E+03  0.19873635704E+03  0.56000530959E+02  0.24276555365E+03  0.00000000000E+00 0.  1.
          2    1    1    2  501    0 -0.43310342351E+02 -0.59984911762E+02  0.11314841478E+03  0.13519075102E+03  0.00000000000E+00 0.  1.
<mgrwt>
<rscale>  4 0.25729382E+03</rscale>
<asrwt>0</asrwt>
<pdfrwt beam="1">  1       21 0.34537993E-01 0.25729382E+03</pdfrwt>
<pdfrwt beam="2">  1        2 0.62618944E-01 0.25729382E+03</pdfrwt>
<totfact> 0.77697052E+03</totfact>
</mgrwt>
</event>
<event>
 5    0  0.1239749E+000  0.2241725E+03  0.7546771E-02  0.1130810E+00
          1   -1    0    0  503    0 -0.00000000000E+00  0.00000000000E+00  0.62067825196E+03  0.62067825196E+03  0.00000000000E+00 0. -1.
         21   -1    0    0  501  502  0.00000000000E+00 -0.00000000000E+00 -0.18154803438E+03  0.18154803438E+03  0.00000000000E+00 0.  1.
         25    1    1    2    0    0  0.14456655392E+03  0.14597381780E+03 -0.64014695417E+02  0.24885884598E+03  0.12500000000E+03 0.  0.
         21    1    1    2  503  502 -0.92098453335E+02 -0.10406725186E+03  0.20438699672E+03  0.24715614992E+03  0.00000000000E+00 0. -1.
          1    1    1    2  501    0 -0.52468100583E+02 -0.41906565943E+02  0.29875791628E+03  0.30621129043E+03  0.00000000000E+00 0. -1.
<mgrwt>
<rscale>  4 0.22417248E+03</rscale>
<asrwt>0</asrwt>
<pdfrwt beam="1">  1       21 0.27930467E-01 0.22417248E+03</pdfrwt>
<pdfrwt beam="2">  1        1 0.95488961E-01 0.22417248E+03</pdfrwt>
<totfact> 0.45118176E+03</totfact>
</mgrwt>
</event>
<event>
 5    0  0.1239749E+000  0.3369505E+03  0.7546771E-02  0.1068102E+00
          1   -1    0    0  503    0 -0.00000000000E+00  0.00000000000E+00  0.18695142685E+04  0.18695142685E+04  0.00000000000E+00 0.  1.
         21   -1    0    0  501  502  0.00000000000E+00 -0.00000000000E+00 -0.41413902364E+03  0.41413902364E+03  0.00000000000E+00 0.  1.
         25    1    1    2    0    0  0.18054972862E+03 -0.25539398032E+03 -0.30505883938E+03  0.45443391727E+03  0.12500000000E+03 0.  0.
         21    1    1    2  503  502 -0.22133598042E+03  0.22798870624E+03  0.71261885007E+03  0.78025258210E+03  0.00000000000E+00 0.  1.
          1    1    1    2  501    0  0.40786251806E+02  0.27405274085E+02  0.10478152342E+04  0.10489667928E+04  0.00000000000E+00 0.  1.
<mgrwt>
<rscale>  4 0.33695049E+03</rscale>
<asrwt>0</asrwt>
<pdfrwt beam="1">  1       21 0.63713697E-01 0.33695049E+03</pdfrwt>
<pdfrwt beam="2">  1        1 0.28761758E+00 0.33695049E+03</pdfrwt>
<totfact> 0.96356815E+01</totfact>
</mgrwt>
</event>
<event>
 5    0  0.1239749E+000  0.1971797E+03  0.7546771E-02  0.1152141E+00
          2   -1    0    0  503    0 -0.00000000000E+00  0.00000000000E+00  0.42709895558E+03  0.42709895558E+03  0.00000000000E+00 0. -1.
         21   -1    0    0  501  502  0.00000000000E+00 -0.00000000000E+00 -0.69279390948E+03  0.69279390948E+03  0.00000000000E+00 0.  1.
         25    1    1    2    0    0  0.12332149799E+03 -0.21116868185E+03 -0.24527401437E+03  0.36821834037E+03  0.12500000000E+03 0.  0.
         21    1    1    2  503  502 -0.12322505870E+02  0.13658985615E+03 -0.36079071999E+03  0.38597743015E+03  0.00000000000E+00 0.  1.
          2    1    1    2  501    0 -0.11099899212E+03  0.74578825703E+02  0.34036978047E+03  0.36569709454E+03  0.00000000000E+00 0. -1.
<mgrwt>
<rscale>  4 0.19717973E+03</rscale>
<asrwt>0</asrwt>
<pdfrwt beam="1">  1       21 0.10658368E+00 0.19717973E+03</pdfrwt>
<pdfrwt beam="2">  1        2 0.65707531E-01 0.19717973E+03</pdfrwt>
<totfact> 0.65158517E+02</totfact>
</mgrwt>
</event>
<event>
 5    0  0.1239749E+000  0.3769002E+03  0.7546771E-02  0.1052085E+00
          1   -1    0    0  503    0 -0.00000000000E+00  0.00000000000E+00  0.52338585758E+03  0.52338585758E+03  0.00000000000E+00 0.  1.
         21   -1    0    0  501  502  0.00000000000E+00 -0.00000000000E+00 -0.67590561705E+03  0.67590561705E+03  0.00000000000E+00 0.  1.
         25    1    1    2    0    0 -0.15526295124E+03 -0.29242838695E+03 -0.14587996792E+03  0.38278833650E+03  0.12500000000E+03 0.  0.
         21    1    1    2  503  502  0.20598791869E+03  0.31201317214E+03 -0.32387018548E+03  0.49464647910E+03  0.00000000000E+00 0.  1.
          1    1    1    2  501    0 -0.50724967455E+02 -0.19584785196E+02  0.31723039393E+03  0.32185665904E+03  0.00000000000E+00 0.  1.
<mgrwt>
<rscale>  4 0.37690021E+03</rscale>
<asrwt>0</asrwt>
<pdfrwt beam="1">  1       21 0.10398548E+00 0.37690021E+03</pdfrwt>
<pdfrwt beam="2">  1        1 0.80520901E-01 0.37690021E+03</pdfrwt>
<totfact> 0.32130345E+02</totfact>
</mgrwt>
</event>
<event>
 5    0  0.1239749E+000  0.2651187E+03  0.7546771E-02  0.1104106E+00
         21   -1    0    0  501  502  0.00000000000E+00  0.00000000000E+00  0.28695125204E+03  0.28695125204E+03  0.00000000000E+00 0.  1.
          2   -1    0    0  503    0 -0.00000000000E+00 -0.00000000000E+00 -0.74807626500E+03  0.74807626500E+03  0.00000000000E+00 0.  1.
         25    1    1    2    0    0 -0.10614141114E+03 -0.22728107938E+03 -0.18046281634E+03  0.33333844105E+03  0.12500000000E+03 0.  0.
         21    1    1    2  503  502  0.12135935404E+03  0.19533377153E+03  0.14676052672E+03  0.27280400898E+03  0.00000000000E+00 0.  1.
          2    1    1    2  501    0 -0.15217942897E+02  0.31947307851E+02 -0.42742272335E+03  0.42888506700E+03  0.00000000000E+00 0.  1.
<mgrwt>
<rscale>  4 0.26511874E+03</rscale>
<asrwt>0</asrwt>
<pdfrwt beam="1">  1       21 0.44146347E-01 0.26511874E+03</pdfrwt>
<pdfrwt beam="2">  1        2 0.11508865E+00 0.26511874E+03</pdfrwt>
<totfact> 0.23356446E+03</totfact>
</mgrwt>
</event>
<event>
 5    0  0.1239749E+000  0.2208453E+03  0.7546771E-02  0.1133254E+00
         21   -1    0    0  501  502  0.00000000000E+00  0.00000000000E+00  0.51483656058E+03  0.51483656058E+03  0.00000000000E+00 0.  1.
          1   -1    0    0  503    0 -0.00000000000E+00 -0.00000000000E+00 -0.92160355538E+03  0.92160355538E+03  0.00000000000E+00 0.  1.
         25    1    1    2    0    0  0.30035029925E+03 -0.68154189926E+02  0.32687553407E+03  0.46618441699E+03  0.12500000000E+03 0.  0.
         21    1    1    2  503  502 -0.12334960783E+03  0.97448249185E+02  0.51077364699E+02  0.16528818532E+03  0.00000000000E+00 0.  1.
          1    1    1    2  501    0 -0.17700069142E+03 -0.29294059259E+02 -0.78471989357E+03  0.80496751366E+03  0.00000000000E+00 0.  1.
<mgrwt>
<rscale>  4 0.22084530E+03</rscale>
<asrwt>0</asrwt>
<pdfrwt beam="1">  1       21 0.79205625E-01 0.22084530E+03</pdfrwt>
<pdfrwt beam="2">  1        1 0.14178516E+00 0.22084530E+03</pdfrwt>
<totfact> 0.28407886E+02</totfact>
</mgrwt>
</event>
<event>
 5    0  0.1239749E+000  0.2492601E+03  0.7546771E-02  0.1113773E+00
         21   -1    0    0  501  502  0.00000000000E+00  0.00000000000E+00  0.18737867403E+03  0.18737867403E+03  0.00000000000E+00 0. -1.
          2   -1    0    0  503    0 -0.00000000000E+00 -0.00000000000E+00 -0.20368174515E+04  0.20368174515E+04  0.00000000000E+00 0. -1.
         25    1    1    2    0    0  0.23089092055E+03  0.88491314694E+02  0.59592381449E+02  0.28340356719E+03  0.12500000000E+03 0.  0.
         21    1    1    2  503  502 -0.10164023527E+03 -0.81729179207E+02 -0.30718316770E+03  0.33372427942E+03  0.00000000000E+00 0. -1.
          2    1    1    2  501    0 -0.12925068528E+03 -0.67621354873E+01 -0.16018479912E+04  0.16070682789E+04  0.00000000000E+00 0. -1.
<mgrwt>
<rscale>  4 0.24926012E+03</rscale>
<asrwt>0</asrwt>
<pdfrwt beam="1">  1       21 0.28827489E-01 0.24926012E+03</pdfrwt>
<pdfrwt beam="2">  1        2 0.31335653E+00 0.24926012E+03</pdfrwt>
<totfact> 0.10244995E+03</totfact>
</mgrwt>
</event>
<event>
 5    0  0.1239749E+000  0.2871609E+03  0.7546771E-02  0.1091841E+00
          1   -1    0    0  503    0 -0.00000000000E+00  0.00000000000E+00  0.23196653162E+04  0.23196653162E+04  0.00000000000E+00 0. -1.
         21   -1    0    0  501  502  0.00000000000E+00 -0.00000000000E+00 -0.29050167583E+03  0.29050167583E+03  0.00000000000E+00 0.  1.
         25    1    1    2    0    0 -0.18098055533E+03 -0.20067858949E+03 -0.16909470247E+03  0.34240893109E+03  0.12500000000E+03 0.  0.
         21    1    1    2  503  502  0.88271253811E+02  0.20092886580E+03  0.32472212804E+03  0.39192943727E+03  0.00000000000E+00 0.  1.
          1    1    1    2  501    0  0.92709301515E+02 -0.25027630258E+00  0.18735362148E+04  0.18758286237E+04  0.00000000000E+00 0. -1.
<mgrwt>
<rscale>  4 0.28716089E+03</rscale>
<asrwt>0</asrwt>
<pdfrwt beam="1">  1       21 0.44692567E-01 0.28716089E+03</pdfrwt>
<pdfrwt beam="2">  1        1 0.35687158E+00 0.28716089E+03</pdfrwt>
<totfact> 0.10718510E+02</totfact>
</mgrwt>
</event>
<event>
 5    0  0.1239749E+000  0.2780906E+03  0.7546771E-02  0.1099626E+00
         21   -1    0    0  501  502  0.00000000000E+00  0.00000000000E+00  0.82261707214E+03  0.82261707214E+03  0.00000000000E+00 0.  1.
          2   -1    0    0  503    0 -0.00000000000E+00 -0.00000000000E+00 -0.60951798187E+03  0.60951798187E+03  0.00000000000E+00 0. -1.
         25    1    1    2    0    0 -0.21372864839E+03 -0.72286331391E+02 -0.21987248816E+02  0.25887002136E+03  0.12500000000E+03 0.  0.
         21    1    1    2  503  502  0.11325302299E+03  0.33185571849E+03  0.61163104174E+03  0.70501560006E+03  0.00000000000E+00 0.  1.
          2    1    1    2  501    0  0.10047562540E+03 -0.25956938710E+03 -0.37654470265E+03  0.46824943259E+03  0.00000000000E+00 0. -1.
<mgrwt>
<rscale>  4 0.27290856E+03</rscale>
<asrwt>0</asrwt>
<pdfrwt beam="1">  1       21 0.12655647E+00 0.27809059E+03</pdfrwt>
<pdfrwt beam="2">  1        2 0.93771997E-01 0.27809059E+03</pdfrwt>
<totfact> 0.27289535E+02</totfact>
</mgrwt>
</event>
<event>
 5    0  0.1239749E+000  0.2377184E+03  0.7546771E-02  0.1121322E+00
          2   -1    0    0  503    0 -0.00000000000E+00  0.00000000000E+00  0.85160302624E+03  0.85160302624E+03  0.00000000000E+00 0.  1.
         21   -1    0    0  501  502  0.00000000000E+00 -0.00000000000E+00 -0.82732075073E+03  0.82732075073E+03  0.00000000000E+00 0.  1.
         25    1    1    2    0    0 -0.22696882777E+03  0.14283430412E+03  0.80597802655E+02  0.30665533259E+03  0.12500000000E+03 0.  0.
         21    1    1    2  503  502  0.14794170204E+03 -0.13122378949E+03 -0.69808143531E+03  0.72555090825E+03  0.00000000000E+00 0.  1.
          2    1    1    2  501    0  0.79027125722E+02 -0.11610514629E+02  0.64176590817E+03  0.64671753613E+03  0.00000000000E+00 0.  1.
<mgrwt>
<rscale>  4 0.23771838E+03</rscale>
<asrwt>0</asrwt>
<pdfrwt beam="1">  1       21 0.12728012E+00 0.23771838E+03</pdfrwt>
<pdfrwt beam="2">  1        2 0.13101585E+00 0.23771838E+03</pdfrwt>
<totfact> 0.18247545E+02</totfact>
</mgrwt>
</event>
<event>
 5    0  0.1239749E+000  0.3550035E+03  0.7546771E-02  0.1060580E+00
         21   -1    0    0  501  502  0.00000000000E+00  0.00000000000E+00  0.26637700345E+03  0.26637700345E+03  0.00000000000E+00 0.  1.
          1   -1    0    0  503    0 -0.00000000000E+00 -0.00000000000E+00 -0.29653528922E+04  0.29653528922E+04  0.00000000000E+00 0.  1.
         25    1    1    2    0    0  0.17428066292E+03 -0.30803359863E+03  0.68978826507E+02  0.38163009035E+03  0.12500000000E+03 0.  0.
         21    1    1    2  503  502  0.22243539583E+02  0.29179300229E+03 -0.54658293760E+03  0.61999261198E+03  0.00000000000E+00 0.  1.
          1    1    1    2  501    0 -0.19652420250E+03  0.16240596340E+02 -0.22213717777E+04  0.22301071933E+04  0.00000000000E+00 0.  1.
<mgrwt>
<rscale>  4 0.35500348E+03</rscale>
<asrwt>0</asrwt>
<pdfrwt beam="1">  1       21 0.40981079E-01 0.35500348E+03</pdfrwt>
<pdfrwt beam="2">  1        1 0.45620812E+00 0.35500348E+03</pdfrwt>
<totfact> 0.44953386E+01</totfact>
</mgrwt>
</event>
<event>
 5    0  0.1239749E+000  0.2449816E+03  0.7546771E-02  0.1116518E+00
         21   -1    0    0  501  502  0.00000000000E+00  0.00000000000E+00  0.20050325180E+03  0.20050325180E+03  0.00000000000E+00 0. -1.
          1   -1    0    0  503    0 -0.00000000000E+00 -0.00000000000E+00 -0.10603052944E+04  0.10603052944E+04  0.00000000000E+00 0.  1.
         25    1    1    2    0    0 -0.18395771633E+03  0.79573719013E+02 -0.42077685669E+03  0.48254593696E+03  0.12500000000E+03 0.  0.
         21    1    1    2  503  502  0.18529474502E+03 -0.10369897048E+03  0.10278944032E+03  0.23590949123E+03  0.00000000000E+00 0. -1.
          1    1    1    2  501    0 -0.13370286903E+01  0.24125251463E+02 -0.54181462620E+03  0.54235311797E+03  0.00000000000E+00 0.  1.
<mgrwt>
<rscale>  4 0.24498155E+03</rscale>
<asrwt>0</asrwt>
<pdfrwt beam="1">  1       21 0.30846654E-01 0.24498155E+03</pdfrwt>
<pdfrwt beam="2">  1        1 0.16312389E+00 0.24498155E+03</pdfrwt>
<totfact> 0.15981648E+03</totfact>
</mgrwt>
</event>
<event>
 5    0  0.1239749E+000  0.5701502E+03  0.7546771E-02  0.9969346E-01
         21   -1    0    0  501  502  0.00000000000E+00  0.00000000000E+00  0.52494659556E+03  0.52494659556E+03  0.00000000000E+00 0. -1.
          2   -1    0    0  503    0 -0.00000000000E+00 -0.00000000000E+00 -0.27405634820E+04  0.27405634820E+04  0.00000000000E+00 0.  1.
         25    1    1    2    0    0  0.20499971832E+03  0.27407857662E+03  0.26567363802E+03  0.45094504390E+03  0.12500000000E+03 0.  0.
         21    1    1    2  503  502  0.25563085977E+03  0.73814215256E+02  0.96346075651E+00  0.26607631067E+03  0.00000000000E+00 0. -1.
          2    1    1    2  501    0 -0.46063057809E+03 -0.34789279188E+03 -0.24822539852E+04  0.25484887230E+04  0.00000000000E+00 0.  1.
<mgrwt>
<rscale>  4 0.57015020E+03</rscale>
<asrwt>0</asrwt>
<pdfrwt beam="1">  1       21 0.80761014E-01 0.57015020E+03</pdfrwt>
<pdfrwt beam="2">  1        2 0.42162515E+00 0.57015020E+03</pdfrwt>
<totfact> 0.41085436E+01</totfact>
</mgrwt>
</event>
<event>
 5    0  0.1239749E+000  0.4625565E+03  0.7546771E-02  0.1024042E+00
         21   -1    0    0  503  502  0.00000000000E+00  0.00000000000E+00  0.66251167772E+03  0.66251167772E+03  0.00000000000E+00 0.  1.
         -1   -1    0    0    0  501 -0.00000000000E+00 -0.00000000000E+00 -0.18974385871E+04  0.18974385871E+04  0.00000000000E+00 0.  1.
         25    1    1    2    0    0 -0.25995130754E+03 -0.36707693637E+03  0.53609029051E+03  0.71087126759E+03  0.12500000000E+03 0.  0.
         21    1    1    2  503  501  0.17772213066E+03  0.35303239255E+03 -0.10274975798E+04  0.11008943193E+04  0.00000000000E+00 0.  1.
         -1    1    1    2    0  502  0.82229176880E+02  0.14044543827E+02 -0.74351962014E+03  0.74818467792E+03  0.00000000000E+00 0.  1.
<mgrwt>
<rscale>  4 0.46255650E+03</rscale>
<asrwt>0</asrwt>
<pdfrwt beam="1">  1       21 0.10192487E+00 0.46255650E+03</pdfrwt>
<pdfrwt beam="2">  1       -1 0.29191363E+00 0.46255650E+03</pdfrwt>
<totfact> 0.27115781E+00</totfact>
</mgrwt>
</event>
<event>
 5    0  0.1239749E+000  0.2998182E+03  0.7546771E-02  0.1085332E+00
         21   -1    0    0  503  502  0.00000000000E+00  0.00000000000E+00  0.51873005904E+03  0.51873005904E+03  0.00000000000E+00 0.  1.
         -3   -1    0    0    0  501 -0.00000000000E+00 -0.00000000000E+00 -0.27079880228E+03  0.27079880228E+03  0.00000000000E+00 0.  1.
         25    1    1    2    0    0  0.21310648727E+03 -0.21055621329E+03  0.29937165633E+03  0.44158428696E+03  0.12500000000E+03 0.  0.
         21    1    1    2  503  501 -0.10351381973E+03  0.20881764874E+03 -0.20026092746E+02  0.23392512839E+03  0.00000000000E+00 0.  1.
         -3    1    1    2    0  502 -0.10959266755E+03  0.17385645545E+01 -0.31414306829E+02  0.11401944597E+03  0.00000000000E+00 0.  1.
<mgrwt>
<rscale>  4 0.29981820E+03</rscale>
<asrwt>0</asrwt>
<pdfrwt beam="1">  1       21 0.79804624E-01 0.29981820E+03</pdfrwt>
<pdfrwt beam="2">  1       -3 0.41661354E-01 0.29981820E+03</pdfrwt>
<totfact> 0.38271404E+02</totfact>
</mgrwt>
</event>
<event>
 5    0  0.1239749E+000  0.3717091E+03  0.7546771E-02  0.1054041E+00
          1   -1    0    0  503    0 -0.00000000000E+00  0.00000000000E+00  0.11796440909E+04  0.11796440909E+04  0.00000000000E+00 0. -1.
         21   -1    0    0  501  502  0.00000000000E+00 -0.00000000000E+00 -0.72161271416E+03  0.72161271416E+03  0.00000000000E+00 0. -1.
         25    1    1    2    0    0 -0.21540872591E+03  0.34823998697E+03  0.26909128957E+03  0.50567492508E+03  0.12500000000E+03 0.  0.
         21    1    1    2  503  502  0.19872204801E+03 -0.27916428428E+03 -0.55282846511E+03  0.65041714446E+03  0.00000000000E+00 0. -1.
          1    1    1    2  501    0  0.16686677905E+02 -0.69075702691E+02  0.74176855229E+03  0.74516473554E+03  0.00000000000E+00 0. -1.
<mgrwt>
<rscale>  4 0.37170912E+03</rscale>
<asrwt>0</asrwt>
<pdfrwt beam="1">  1       21 0.11101734E+00 0.37170912E+03</pdfrwt>
<pdfrwt beam="2">  1        1 0.18148371E+00 0.37170912E+03</pdfrwt>
<totfact> 0.75766420E+01</totfact>
</mgrwt>
</event>
<event>
 5    0  0.1239749E+000  0.2558121E+03  0.7546771E-02  0.1109686E+00
          2   -1    0    0  503    0 -0.00000000000E+00  0.00000000000E+00  0.57369206797E+03  0.57369206797E+03  0.00000000000E+00 0. -1.
         21   -1    0    0  501  502  0.00000000000E+00 -0.00000000000E+00 -0.21541118659E+03  0.21541118659E+03  0.00000000000E+00 0. -1.
         25    1    1    2    0    0  0.20716576043E+03  0.11838507849E+03  0.22239635730E+03  0.34931049060E+03  0.12500000000E+03 0.  0.
         21    1    1    2  503  502 -0.21789669607E+03 -0.20356913521E+02  0.21990120703E+03  0.31024170406E+03  0.00000000000E+00 0. -1.
          2    1    1    2  501    0  0.10730935646E+02 -0.98028164974E+02 -0.84016682942E+02  0.12955105990E+03  0.00000000000E+00 0. -1.
<mgrwt>
<rscale>  4 0.25581209E+03</rscale>
<asrwt>0</asrwt>
<pdfrwt beam="1">  1       21 0.33140183E-01 0.25581209E+03</pdfrwt>
<pdfrwt beam="2">  1        2 0.88260317E-01 0.25581209E+03</pdfrwt>
<totfact> 0.57467984E+03</totfact>
</mgrwt>
</event>
<event>
 5    0  0.1239749E+000  0.2320026E+03  0.7546771E-02  0.1125238E+00
         21   -1    0    0  501  502  0.00000000000E+00  0.00000000000E+00  0.76776862352E+03  0.76776862352E+03  0.00000000000E+00 0.  1.
          2   -1    0    0  503    0 -0.00000000000E+00 -0.00000000000E+00 -0.11701931934E+03  0.11701931934E+03  0.00000000000E+00 0.  1.
         25    1    1    2    0    0  0.47900118247E+02 -0.19950024903E+03  0.59185118464E+03  0.63875472245E+03  0.12500000000E+03 0.  0.
         21    1    1    2  503  502 -0.36550367853E+01  0.17491296979E+03  0.78496174852E+02  0.19175389373E+03  0.00000000000E+00 0.  1.
          2    1    1    2  501    0 -0.44245081461E+02  0.24587279239E+02 -0.19598055311E+02  0.54279326690E+02  0.00000000000E+00 0.  1.
<mgrwt>
<rscale>  4 0.23200264E+03</rscale>
<asrwt>0</asrwt>
<pdfrwt beam="1">  1       21 0.11811825E+00 0.23200264E+03</pdfrwt>
<pdfrwt beam="2">  1        2 0.18002973E-01 0.23200264E+03</pdfrwt>
<totfact> 0.20712678E+03</totfact>
</mgrwt>
</event>
<event>
 5    0  0.1239749E+000  0.2421191E+03  0.7546771E-02  0.1118389E+00
         21   -1    0    0  501  502  0.00000000000E+00  0.00000000000E+00  0.16184522427E+04  0.16184522427E+04  0.00000000000E+00 0. -1.
          1   -1    0    0  503    0 -0.00000000000E+00 -0.00000000000E+00 -0.18016961746E+03  0.18016961746E+03  0.00000000000E+00 0. -1.
         25    1    1    2    0    0 -0.42031658825E+02  0.21334343702E+03  0.12165422607E+04  0.12421280749E+04  0.12500000000E+03 0.  0.
         21    1    1    2  503  502  0.39163692533E+02 -0.18507442060E+03  0.36464337767E+03  0.41079329213E+03  0.00000000000E+00 0. -1.
          1    1    1    2  501    0  0.28679662916E+01 -0.28269016417E+02 -0.14290301314E+03  0.14570049308E+03  0.00000000000E+00 0. -1.
<mgrwt>
<rscale>  4 0.24211912E+03</rscale>
<asrwt>0</asrwt>
<pdfrwt beam="1">  1       21 0.24899264E+00 0.24211912E+03</pdfrwt>
<pdfrwt beam="2">  1        1 0.27718404E-01 0.24211912E+03</pdfrwt>
<totfact> 0.11692070E+02</totfact>
</mgrwt>
</event>
<event>
 5    0  0.1239749E+000  0.2522566E+03  0.7546771E-02  0.1111887E+00
          3   -1    0    0  503    0 -0.00000000000E+00  0.00000000000E+00  0.23942102171E+03  0.23942102171E+03  0.00000000000E+00 0. -1.
         21   -1    0    0  501  502  0.00000000000E+00 -0.00000000000E+00 -0.46051196908E+03  0.46051196908E+03  0.00000000000E+00 0. -1.
         25    1    1    2    0    0 -0.13822902301E+03 -0.17000333806E+03 -0.35211334194E+03  0.43314801549E+03  0.12500000000E+03 0.  0.
         21    1    1    2  503  502  0.87036840570E+02  0.14133146786E+03  0.12503224948E+03  0.20780533880E+03  0.00000000000E+00 0. -1.
          3    1    1    2  501    0  0.51192182439E+02  0.28671870202E+02  0.59901450810E+01  0.58979636502E+02  0.00000000000E+00 0. -1.
<mgrwt>
<rscale>  4 0.25225661E+03</rscale>
<asrwt>0</asrwt>
<pdfrwt beam="1">  1       21 0.70847994E-01 0.25225661E+03</pdfrwt>
<pdfrwt beam="2">  1        3 0.36834004E-01 0.25225661E+03</pdfrwt>
<totfact> 0.64163846E+02</totfact>
</mgrwt>
</event>
<event>
 5    0  0.1239749E+000  0.2384256E+03  0.7546771E-02  0.1120846E+00
         -1   -1    0    0    0  501 -0.00000000000E+00  0.00000000000E+00  0.20097421117E+03  0.20097421117E+03  0.00000000000E+00 0. -1.
         21   -1    0    0  503  502  0.00000000000E+00 -0.00000000000E+00 -0.54571582807E+03  0.54571582807E+03  0.00000000000E+00 0. -1.
         25    1    1    2    0    0 -0.21900631451E+03  0.12359585578E+02 -0.22248195401E+03  0.33651113654E+03  0.12500000000E+03 0.  0.
         21    1    1    2  503  501  0.53108396696E+02 -0.15332861939E+03 -0.37476378764E+01  0.16230900194E+03  0.00000000000E+00 0. -1.
         -1    1    1    2    0  502  0.16589791782E+03  0.14096903381E+03 -0.11851202501E+03  0.24786990076E+03  0.00000000000E+00 0. -1.
<mgrwt>
<rscale>  4 0.23842560E+03</rscale>
<asrwt>0</asrwt>
<pdfrwt beam="1">  1       21 0.83956280E-01 0.23842560E+03</pdfrwt>
<pdfrwt beam="2">  1       -1 0.30919110E-01 0.23842560E+03</pdfrwt>
<totfact> 0.10746564E+03</totfact>
</mgrwt>
</event>
<event>
 5    0  0.1239749E+000  0.3054435E+03  0.7546771E-02  0.1082551E+00
         21   -1    0    0  501  502  0.00000000000E+00  0.00000000000E+00  0.49406883132E+03  0.49406883132E+03  0.00000000000E+00 0. -1.
          2   -1    0    0  503    0 -0.00000000000E+00 -0.00000000000E+00 -0.25805523476E+04  0.25805523476E+04  0.00000000000E+00 0.  1.
         25    1    1    2    0    0 -0.20570071873E+03  0.88358409816E+02  0.98511632421E+02  0.27468078927E+03  0.12500000000E+03 0.  0.
         21    1    1    2  503  502  0.32713473360E+03 -0.86768268652E+02  0.21233263134E+03  0.39953849966E+03  0.00000000000E+00 0. -1.
          2    1    1    2  501    0 -0.12143401488E+03 -0.15901411646E+01 -0.23973277801E+04  0.24004018900E+04  0.00000000000E+00 0.  1.
<mgrwt>
<rscale>  4 0.30544353E+03</rscale>
<asrwt>0</asrwt>
<pdfrwt beam="1">  1       21 0.76010590E-01 0.30544353E+03</pdfrwt>
<pdfrwt beam="2">  1        2 0.39700805E+00 0.30544353E+03</pdfrwt>
<totfact> 0.66328037E+01</totfact>
</mgrwt>
</event>
<event>
 5    0  0.1239749E+000  0.3071167E+03  0.7546771E-02  0.1081736E+00
          2   -1    0    0  503    0 -0.00000000000E+00  0.00000000000E+00  0.11216803743E+04  0.11216803743E+04  0.00000000000E+00 0.  1.
         21   -1    0    0  501  502  0.00000000000E+00 -0.00000000000E+00 -0.11088452712E+03  0.11088452712E+03  0.00000000000E+00 0.  1.
         25    1    1    2    0    0  0.10880577737E+03  0.25856713065E+03  0.19376330937E+03  0.36313203976E+03  0.12500000000E+03 0.  0.
         21    1    1    2  503  502 -0.67143610088E+02 -0.11551495168E+03  0.25373944374E+03  0.28676763023E+03  0.00000000000E+00 0.  1.
          2    1    1    2  501    0 -0.41662167280E+02 -0.14305217897E+03  0.56329309406E+03  0.58266523142E+03  0.00000000000E+00 0.  1.
<mgrwt>
<rscale>  4 0.30711669E+03</rscale>
<asrwt>0</asrwt>
<pdfrwt beam="1">  1       21 0.17059159E-01 0.30711669E+03</pdfrwt>
<pdfrwt beam="2">  1        2 0.17256620E+00 0.30711669E+03</pdfrwt>
<totfact> 0.84921207E+03</totfact>
</mgrwt>
</event>
<event>
 5    0  0.1239749E+000  0.2347076E+03  0.7546771E-02  0.1123370E+00
         21   -1    0    0  501  502  0.00000000000E+00  0.00000000000E+00  0.11505533390E+03  0.11505533390E+03  0.00000000000E+00 0. -1.
          2   -1    0    0  503    0 -0.00000000000E+00 -0.00000000000E+00 -0.11894784476E+04  0.11894784476E+04  0.00000000000E+00 0.  1.
         25    1    1    2    0    0 -0.12545515411E+03 -0.17993902760E+03 -0.10806717285E+03  0.27462804517E+03  0.12500000000E+03 0.  0.
         21    1    1    2  503  502  0.14482151087E+03  0.10152328885E+03 -0.23507540609E+03  0.29417799839E+03  0.00000000000E+00 0. -1.
          2    1    1    2  501    0 -0.19366356752E+02  0.78415738756E+02 -0.73128053480E+03  0.73572773798E+03  0.00000000000E+00 0.  1.
<mgrwt>
<rscale>  4 0.23470761E+03</rscale>
<asrwt>0</asrwt>
<pdfrwt beam="1">  1       21 0.17700821E-01 0.23470761E+03</pdfrwt>
<pdfrwt beam="2">  1        2 0.18299668E+00 0.23470761E+03</pdfrwt>
<totfact> 0.73877674E+03</totfact>
</mgrwt>
</event>
<event>
 5    0  0.1239749E+000  0.2896406E+03  0.7546771E-02  0.1090537E+00
          1   -1    0    0  503    0 -0.00000000000E+00  0.00000000000E+00  0.45906981358E+03  0.45906981358E+03  0.00000000000E+00 0. -1.
         21   -1    0    0  501  502  0.00000000000E+00 -0.00000000000E+00 -0.59752324618E+03  0.59752324618E+03  0.00000000000E+00 0.  1.
         25    1    1    2    0    0  0.26827340180E+03  0.33936306060E+02 -0.36061549268E+03  0.46775081458E+03  0.12500000000E+03 0.  0.
         21    1    1    2  503  502 -0.24272282037E+03 -0.47705680020E+02 -0.98948504478E+02  0.26642260785E+03  0.00000000000E+00 0.  1.
          1    1    1    2  501    0 -0.25550581431E+02  0.13769373960E+02  0.32111056456E+03  0.32241963734E+03  0.00000000000E+00 0. -1.
<mgrwt>
<rscale>  4 0.28964064E+03</rscale>
<asrwt>0</asrwt>
<pdfrwt beam="1">  1       21 0.91926653E-01 0.28964064E+03</pdfrwt>
<pdfrwt beam="2">  1        1 0.70626126E-01 0.28964064E+03</pdfrwt>
<totfact> 0.53164910E+02</totfact>
</mgrwt>
</event>
<event>
 5    0  0.1239749E+000  0.3249678E+03  0.7546771E-02  0.1073385E+00
          2   -1    0    0  503    0 -0.00000000000E+00  0.00000000000E+00  0.14333558209E+04  0.14333558209E+04  0.00000000000E+00 0.  1.
         21   -1    0    0  501  502  0.00000000000E+00 -0.00000000000E+00 -0.15836084181E+03  0.15836084181E+03  0.00000000000E+00 0.  1.
         25    1    1    2    0    0 -0.40522237236E+02  0.32338641316E+03  0.11603934121E+03  0.36784637097E+03  0.12500000000E+03 0.  0.
         21    1    1    2  503  502  0.14487167783E+02 -0.24577996778E+03  0.47483686455E+03  0.53487168417E+03  0.00000000000E+00 0.  1.
          2    1    1    2  501    0  0.26035069453E+02 -0.77606445380E+02  0.68411877338E+03  0.68899860761E+03  0.00000000000E+00 0.  1.
<mgrwt>
<rscale>  4 0.32496778E+03</rscale>
<asrwt>0</asrwt>
<pdfrwt beam="1">  1       21 0.24363207E-01 0.32496778E+03</pdfrwt>
<pdfrwt beam="2">  1        2 0.22051627E+00 0.32496778E+03</pdfrwt>
<totfact> 0.28733791E+03</totfact>
</mgrwt>
</event>
<event>
 5    0  0.1239749E+000  0.2188817E+03  0.7546771E-02  0.1134720E+00
         21   -1    0    0  501  502  0.00000000000E+00  0.00000000000E+00  0.13192954808E+04  0.13192954808E+04  0.00000000000E+00 0. -1.
          2   -1    0    0  503    0 -0.00000000000E+00 -0.00000000000E+00 -0.50335583653E+03  0.50335583653E+03  0.00000000000E+00 0.  1.
         25    1    1    2    0    0 -0.22600191355E+03 -0.18552094978E+03  0.31641375716E+03  0.44859508853E+03  0.12500000000E+03 0.  0.
         21    1    1    2  503  502  0.90980678258E+02  0.14125696547E+03  0.91741305616E+03  0.93267235926E+03  0.00000000000E+00 0. -1.
          2    1    1    2  501    0  0.13502123530E+03  0.44263984309E+02 -0.41788716902E+03  0.44138386958E+03  0.00000000000E+00 0.  1.
<mgrwt>
<rscale>  4 0.21888173E+03</rscale>
<asrwt>0</asrwt>
<pdfrwt beam="1">  1       21 0.20296853E+00 0.21888173E+03</pdfrwt>
<pdfrwt beam="2">  1        2 0.77439360E-01 0.21888173E+03</pdfrwt>
<totfact> 0.97040237E+01</totfact>
</mgrwt>
</event>
<event>
 5    0  0.1239749E+000  0.2555474E+03  0.7546771E-02  0.1109848E+00
          2   -1    0    0  503    0 -0.00000000000E+00  0.00000000000E+00  0.22352266027E+04  0.22352266027E+04  0.00000000000E+00 0.  1.
         21   -1    0    0  501  502  0.00000000000E+00 -0.00000000000E+00 -0.27030469077E+03  0.27030469077E+03  0.00000000000E+00 0.  1.
         25    1    1    2    0    0  0.19049910904E+03  0.11350234882E+03 -0.16471301436E+03  0.30319642285E+03  0.12500000000E+03 0.  0.
         21    1    1    2  503  502 -0.18019929795E+03 -0.14414736158E+03  0.33149827164E+03  0.40390760445E+03  0.00000000000E+00 0.  1.
          2    1    1    2  501    0 -0.10299811089E+02  0.30645012762E+02  0.17981366546E+04  0.17984272662E+04  0.00000000000E+00 0.  1.
<mgrwt>
<rscale>  4 0.25554740E+03</rscale>
<asrwt>0</asrwt>
<pdfrwt beam="1">  1       21 0.41585339E-01 0.25554740E+03</pdfrwt>
<pdfrwt beam="2">  1        2 0.34388100E+00 0.25554740E+03</pdfrwt>
<totfact> 0.38575420E+02</totfact>
</mgrwt>
</event>
<event>
 5    0  0.1239749E+000  0.2269642E+03  0.7546771E-02  0.1128795E+00
          1   -1    0    0  503    0 -0.00000000000E+00  0.00000000000E+00  0.23993854629E+03  0.23993854629E+03  0.00000000000E+00 0.  1.
         21   -1    0    0  501  502  0.00000000000E+00 -0.00000000000E+00 -0.11079010808E+04  0.11079010808E+04  0.00000000000E+00 0. -1.
         25    1    1    2    0    0 -0.72986123753E+02 -0.20103297522E+03 -0.90163761409E+03  0.93504899258E+03  0.12500000000E+03 0.  0.
         21    1    1    2  503  502 -0.44879026781E-02  0.15009017753E+03 -0.14780973237E+03  0.21065321834E+03  0.00000000000E+00 0. -1.
          1    1    1    2  501    0  0.72990611656E+02  0.50942797687E+02  0.18148481198E+03  0.20213741615E+03  0.00000000000E+00 0.  1.
<mgrwt>
<rscale>  4 0.22696424E+03</rscale>
<asrwt>0</asrwt>
<pdfrwt beam="1">  1       21 0.17044632E+00 0.22696424E+03</pdfrwt>
<pdfrwt beam="2">  1        1 0.36913623E-01 0.22696424E+03</pdfrwt>
<totfact> 0.26178385E+02</totfact>
</mgrwt>
</event>
<event>
 5    0  0.1239749E+000  0.1885881E+03  0.7546771E-02  0.1159741E+00
          2   -1    0    0  503    0 -0.00000000000E+00  0.00000000000E+00  0.73718214453E+03  0.73718214453E+03  0.00000000000E+00 0.  1.
         21   -1    0    0  501  502  0.00000000000E+00 -0.00000000000E+00 -0.12858051146E+04  0.12858051146E+04  0.00000000000E+00 0. -1.
         25    1    1    2    0    0  0.16187359152E+03 -0.19762489027E+03 -0.11064470228E+04  0.11424135290E+04  0.12500000000E+03 0.  0.
         21    1    1    2  503  502 -0.11263752950E+03  0.65958866222E+02 -0.12661456242E+03  0.18184892769E+03  0.00000000000E+00 0. -1.
          2    1    1    2  501    0 -0.49236062017E+02  0.13166602405E+03  0.68443861515E+03  0.69872480248E+03  0.00000000000E+00 0.  1.
<mgrwt>
<rscale>  4 0.18858810E+03</rscale>
<asrwt>0</asrwt>
<pdfrwt beam="1">  1       21 0.19781617E+00 0.18858810E+03</pdfrwt>
<pdfrwt beam="2">  1        2 0.11341264E+00 0.18858810E+03</pdfrwt>
<totfact> 0.69196020E+01</totfact>
</mgrwt>
</event>
<event>
 5    0  0.1239749E+000  0.3527089E+03  0.7546771E-02  0.1061509E+00
         21   -1    0    0  501  502  0.00000000000E+00  0.00000000000E+00  0.24401829011E+03  0.24401829011E+03  0.00000000000E+00 0.  1.
          1   -1    0    0  503    0 -0.00000000000E+00 -0.00000000000E+00 -0.99550558970E+03  0.99550558970E+03  0.00000000000E+00 0.  1.
         25    1    1    2    0    0  0.27636328607E+03  0.16140993608E+03 -0.50633465151E+03  0.61190653917E+03  0.12500000000E+03 0.  0.
         21    1    1    2  503  502 -0.27455734695E+03 -0.18757618049E+03  0.45649842130E+02  0.33563442663E+03  0.00000000000E+00 0.  1.
          1    1    1    2  501    0 -0.18059391262E+01  0.26166244410E+02 -0.29080249021E+03  0.29198291401E+03  0.00000000000E+00 0.  1.
<mgrwt>
<rscale>  4 0.35270886E+03</rscale>
<asrwt>0</asrwt>
<pdfrwt beam="1">  1       21 0.37541275E-01 0.35270886E+03</pdfrwt>
<pdfrwt beam="2">  1        1 0.15315471E+00 0.35270886E+03</pdfrwt>
<totfact> 0.11604426E+03</totfact>
</mgrwt>
</event>
<event>
 5    0  0.1239749E+000  0.2719632E+03  0.7546771E-02  0.1100161E+00
         21   -1    0    0  501  502  0.00000000000E+00  0.00000000000E+00  0.32299206023E+03  0.32299206023E+03  0.00000000000E+00 0.  1.
          2   -1    0    0  503    0 -0.00000000000E+00 -0.00000000000E+00 -0.22262284175E+04  0.22262284175E+04  0.00000000000E+00 0.  1.
         25    1    1    2    0    0  0.97254778597E+02 -0.21608116618E+03  0.20412423098E+03  0.33681042741E+03  0.12500000000E+03 0.  0.
         21    1    1    2  503  502 -0.78584426784E+02  0.25482362081E+03 -0.28783706925E+03  0.39237834839E+03  0.00000000000E+00 0.  1.
          2    1    1    2  501    0 -0.18670351813E+02 -0.38742454622E+02 -0.18195235190E+04  0.18200317019E+04  0.00000000000E+00 0.  1.
<mgrwt>
<rscale>  4 0.27196317E+03</rscale>
<asrwt>0</asrwt>
<pdfrwt beam="1">  1       21 0.49691088E-01 0.27196317E+03</pdfrwt>
<pdfrwt beam="2">  1        2 0.34249667E+00 0.27196317E+03</pdfrwt>
<totfact> 0.26683165E+02</totfact>
</mgrwt>
</event>
<event>
 5    0  0.1239749E+000  0.2538930E+03  0.7546771E-02  0.1110869E+00
         -1   -1    0    0    0  501 -0.00000000000E+00  0.00000000000E+00  0.31951788894E+03  0.31951788894E+03  0.00000000000E+00 0.  1.
         21   -1    0    0  503  502  0.00000000000E+00 -0.00000000000E+00 -0.50899209835E+03  0.50899209835E+03  0.00000000000E+00 0.  1.
         25    1    1    2    0    0  0.75872023460E+01 -0.23118303981E+03 -0.37877198711E+03  0.46108175171E+03  0.12500000000E+03 0.  0.
         21    1    1    2  503  501 -0.52173038545E+02  0.18915712752E+03  0.32251779059E+02  0.19885326775E+03  0.00000000000E+00 0.  1.
         -1    1    1    2    0  502  0.44585836199E+02  0.42025912292E+02  0.15704599863E+03  0.16857496783E+03  0.00000000000E+00 0.  1.
<mgrwt>
<rscale>  4 0.25389300E+03</rscale>
<asrwt>0</asrwt>
<pdfrwt beam="1">  1       21 0.78306476E-01 0.25389300E+03</pdfrwt>
<pdfrwt beam="2">  1       -1 0.49156599E-01 0.25389300E+03</pdfrwt>
<totfact> 0.55059214E+02</totfact>
</mgrwt>
</event>
<event>
 5    0  0.1239749E+000  0.2902275E+03  0.7546771E-02  0.1090230E+00
         21   -1    0    0  501  502  0.00000000000E+00  0.00000000000E+00  0.34967647308E+03  0.34967647308E+03  0.00000000000E+00 0. -1.
          1   -1    0    0  503    0 -0.00000000000E+00 -0.00000000000E+00 -0.38889712064E+03  0.38889712064E+03  0.00000000000E+00 0.  1.
         25    1    1    2    0    0  0.21327751885E+03  0.58643761751E+02  0.29878563110E+02  0.25582048271E+03  0.12500000000E+03 0.  0.
         21    1    1    2  503  502 -0.30144932579E+03 -0.52519921964E+02  0.73767994960E+02  0.31475666046E+03  0.00000000000E+00 0. -1.
          1    1    1    2  501    0  0.88171806939E+02 -0.61238397870E+01 -0.14286720563E+03  0.16799645055E+03  0.00000000000E+00 0.  1.
<mgrwt>
<rscale>  4 0.29022753E+03</rscale>
<asrwt>0</asrwt>
<pdfrwt beam="1">  1       21 0.53796381E-01 0.29022753E+03</pdfrwt>
<pdfrwt beam="2">  1        1 0.59830326E-01 0.29022753E+03</pdfrwt>
<totfact> 0.21829483E+03</totfact>
</mgrwt>
</event>
<event>
 5    0  0.1239749E+000  0.3229746E+03  0.7546771E-02  0.1074288E+00
         21   -1    0    0  501  502  0.00000000000E+00  0.00000000000E+00  0.14899172998E+04  0.14899172998E+04  0.00000000000E+00 0.  1.
          1   -1    0    0  503    0 -0.00000000000E+00 -0.00000000000E+00 -0.85364579903E+03  0.85364579903E+03  0.00000000000E+00 0. -1.
         25    1    1    2    0    0 -0.12276337245E+03  0.18752379384E+03  0.25605045042E+02  0.25790819530E+03  0.12500000000E+03 0.  0.
         21    1    1    2  503  502  0.16400859063E+03 -0.26196104575E+03  0.13278986081E+04  0.13633917708E+04  0.00000000000E+00 0.  1.
          1    1    1    2  501    0 -0.41245218177E+02  0.74437251906E+02 -0.71723215237E+03  0.72226313273E+03  0.00000000000E+00 0. -1.
<mgrwt>
<rscale>  4 0.32297463E+03</rscale>
<asrwt>0</asrwt>
<pdfrwt beam="1">  1       21 0.22921805E+00 0.32297463E+03</pdfrwt>
<pdfrwt beam="2">  1        1 0.13133012E+00 0.32297463E+03</pdfrwt>
<totfact> 0.18160108E+01</totfact>
</mgrwt>
</event>
<event>
 5    0  0.1239749E+000  0.2786276E+03  0.7546771E-02  0.1096441E+00
         21   -1    0    0  501  502  0.00000000000E+00  0.00000000000E+00  0.14153779671E+03  0.14153779671E+03  0.00000000000E+00 0. -1.
          2   -1    0    0  503    0 -0.00000000000E+00 -0.00000000000E+00 -0.72771004994E+03  0.72771004994E+03  0.00000000000E+00 0. -1.
         25    1    1    2    0    0  0.18379034397E+03 -0.15482280315E+03 -0.11054616261E+03  0.29256528328E+03  0.12500000000E+03 0.  0.
         21    1    1    2  503  502 -0.18750553390E+03  0.18743561605E+03 -0.31033769679E+03  0.40816653642E+03  0.00000000000E+00 0. -1.
          2    1    1    2  501    0  0.37151899256E+01 -0.32612812903E+02 -0.16528839383E+03  0.16851602695E+03  0.00000000000E+00 0. -1.
<mgrwt>
<rscale>  4 0.27862765E+03</rscale>
<asrwt>0</asrwt>
<pdfrwt beam="1">  1       21 0.21775046E-01 0.27862765E+03</pdfrwt>
<pdfrwt beam="2">  1        2 0.11195539E+00 0.27862765E+03</pdfrwt>
<totfact> 0.97265646E+03</totfact>
</mgrwt>
</event>
<event>
 5    0  0.1239749E+000  0.2450223E+03  0.7546771E-02  0.1116492E+00
          2   -1    0    0  503    0 -0.00000000000E+00  0.00000000000E+00  0.64752560426E+03  0.64752560426E+03  0.00000000000E+00 0.  1.
         21   -1    0    0  501  502  0.00000000000E+00 -0.00000000000E+00 -0.17414266286E+03  0.17414266286E+03  0.00000000000E+00 0.  1.
         25    1    1    2    0    0 -0.17173281360E+03  0.13574905407E+03 -0.40988819566E+02  0.25539195030E+03  0.12500000000E+03 0.  0.
         21    1    1    2  503  502  0.15640268451E+03 -0.97400813858E+02  0.33617766318E+03  0.38335902166E+03  0.00000000000E+00 0.  1.
          2    1    1    2  501    0  0.15330129085E+02 -0.38348240208E+02  0.17819409778E+03  0.18291729516E+03  0.00000000000E+00 0.  1.
<mgrwt>
<rscale>  4 0.24502233E+03</rscale>
<asrwt>0</asrwt>
<pdfrwt beam="1">  1       21 0.26791179E-01 0.24502233E+03</pdfrwt>
<pdfrwt beam="2">  1        2 0.99619323E-01 0.24502233E+03</pdfrwt>
<totfact> 0.75881499E+03</totfact>
</mgrwt>
</event>
<event>
 5    0  0.1239749E+000  0.2686966E+03  0.7546771E-02  0.1102028E+00
         21   -1    0    0  501  502  0.00000000000E+00  0.00000000000E+00  0.19653125787E+03  0.19653125787E+03  0.00000000000E+00 0. -1.
          2   -1    0    0  503    0 -0.00000000000E+00 -0.00000000000E+00 -0.80349433478E+03  0.80349433478E+03  0.00000000000E+00 0. -1.
         25    1    1    2    0    0  0.23587713326E+03 -0.56333432292E+02  0.39898501399E+02  0.27573242102E+03  0.12500000000E+03 0.  0.
         21    1    1    2  503  502 -0.74125363814E+01  0.91569335547E+02 -0.14349732170E+03  0.17038594497E+03  0.00000000000E+00 0. -1.
          2    1    1    2  501    0 -0.22846459688E+03 -0.35235903255E+02 -0.50336425662E+03  0.55390722666E+03  0.00000000000E+00 0. -1.
<mgrwt>
<rscale>  4 0.26869664E+03</rscale>
<asrwt>0</asrwt>
<pdfrwt beam="1">  1       21 0.30235578E-01 0.26869664E+03</pdfrwt>
<pdfrwt beam="2">  1        2 0.12361451E+00 0.26869664E+03</pdfrwt>
<totfact> 0.45663356E+03</totfact>
</mgrwt>
</event>
<event>
 5    0  0.1239749E+000  0.2342404E+03  0.7546771E-02  0.1123690E+00
         21   -1    0    0  503  502  0.00000000000E+00  0.00000000000E+00  0.17655000559E+04  0.17655000559E+04  0.00000000000E+00 0. -1.
         -2   -1    0    0    0  501 -0.00000000000E+00 -0.00000000000E+00 -0.82364356861E+02  0.82364356861E+02  0.00000000000E+00 0. -1.
         25    1    1    2    0    0  0.11255137673E+03 -0.17043945315E+03  0.14276155461E+04  0.14475595211E+04  0.12500000000E+03 0.  0.
         21    1    1    2  503  501 -0.83148964127E+02  0.16298803535E+03  0.29704836996E+03  0.34887903921E+03  0.00000000000E+00 0. -1.
         -2    1    1    2    0  502 -0.29402412600E+02  0.74514178047E+01 -0.41528217023E+02  0.51425852478E+02  0.00000000000E+00 0. -1.
<mgrwt>
<rscale>  4 0.23424040E+03</rscale>
<asrwt>0</asrwt>
<pdfrwt beam="1">  1       21 0.27161537E+00 0.23424040E+03</pdfrwt>
<pdfrwt beam="2">  1       -2 0.12671441E-01 0.23424040E+03</pdfrwt>
<totfact> 0.17115156E+02</totfact>
</mgrwt>
</event>
<event>
 5    0  0.1239749E+000  0.1999698E+03  0.7546771E-02  0.1149764E+00
          2   -1    0    0  503    0 -0.00000000000E+00  0.00000000000E+00  0.22859060223E+04  0.22859060223E+04  0.00000000000E+00 0.  1.
         21   -1    0    0  501  502  0.00000000000E+00 -0.00000000000E+00 -0.60043675887E+02  0.60043675887E+02  0.00000000000E+00 0.  1.
         25    1    1    2    0    0  0.20829337995E+03  0.58557891156E+02  0.59353247545E+03  0.64398832144E+03  0.12500000000E+03 0.  0.
         21    1    1    2  503  502 -0.14208563026E+03 -0.82990379227E+01  0.11670207575E+03  0.18405590140E+03  0.00000000000E+00 0.  1.
          2    1    1    2  501    0 -0.66207749693E+02 -0.50258853234E+02  0.15156277952E+04  0.15179054754E+04  0.00000000000E+00 0.  1.
<mgrwt>
<rscale>  4 0.19996981E+03</rscale>
<asrwt>0</asrwt>
<pdfrwt beam="1">  1       21 0.92374903E-02 0.19996981E+03</pdfrwt>
<pdfrwt beam="2">  1        2 0.35167778E+00 0.19996981E+03</pdfrwt>
<totfact> 0.63465891E+03</totfact>
</mgrwt>
</event>
<event>
 5    0  0.1239749E+000  0.2484003E+03  0.7546771E-02  0.1114320E+00
          2   -1    0    0  503    0 -0.00000000000E+00  0.00000000000E+00  0.35116156030E+04  0.35116156030E+04  0.00000000000E+00 0.  1.
         21   -1    0    0  501  502  0.00000000000E+00 -0.00000000000E+00 -0.62334414404E+02  0.62334414404E+02  0.00000000000E+00 0.  1.
         25    1    1    2    0    0 -0.87444725021E+02  0.19193760806E+03  0.22190197713E+03  0.33068430985E+03  0.12500000000E+03 0.  0.
         21    1    1    2  503  502  0.99655416799E+02 -0.21784719249E+03  0.18324721208E+04  0.18480645754E+04  0.00000000000E+00 0.  1.
          2    1    1    2  501    0 -0.12210691778E+02  0.25909584430E+02  0.13949070907E+04  0.13952011322E+04  0.00000000000E+00 0.  1.
<mgrwt>
<rscale>  4 0.24840032E+03</rscale>
<asrwt>0</asrwt>
<pdfrwt beam="1">  1       21 0.95899127E-02 0.24840032E+03</pdfrwt>
<pdfrwt beam="2">  1        2 0.54024840E+00 0.24840032E+03</pdfrwt>
<totfact> 0.11111023E+03</totfact>
</mgrwt>
</event>
<event>
 5    0  0.1239749E+000  0.5517167E+03  0.7546771E-02  0.1001268E+00
         21   -1    0    0  501  502  0.00000000000E+00  0.00000000000E+00  0.24803805108E+03  0.24803805108E+03  0.00000000000E+00 0. -1.
          2   -1    0    0  503    0 -0.00000000000E+00 -0.00000000000E+00 -0.19943766292E+04  0.19943766292E+04  0.00000000000E+00 0. -1.
         25    1    1    2    0    0 -0.41872800623E+03 -0.33193981846E+03 -0.17337668875E+03  0.57550122717E+03  0.12500000000E+03 0.  0.
         21    1    1    2  503  502  0.28056825989E+03  0.21084831426E+03 -0.82167841472E+03  0.89349369181E+03  0.00000000000E+00 0. -1.
          2    1    1    2  501    0  0.13815974634E+03  0.12109150419E+03 -0.75128347466E+03  0.77341976131E+03  0.00000000000E+00 0. -1.
<mgrwt>
<rscale>  4 0.55097712E+03</rscale>
<asrwt>0</asrwt>
<pdfrwt beam="1">  1       21 0.38159702E-01 0.55171673E+03</pdfrwt>
<pdfrwt beam="2">  1        2 0.30682716E+00 0.55171673E+03</pdfrwt>
<totfact> 0.55047816E+02</totfact>
</mgrwt>
</event>
<event>
 5    0  0.1239749E+000  0.3164012E+03  0.7546771E-02  0.1077318E+00
         21   -1    0    0  501  502  0.00000000000E+00  0.00000000000E+00  0.10317559323E+03  0.10317559323E+03  0.00000000000E+00 0.  1.
          2   -1    0    0  503    0 -0.00000000000E+00 -0.00000000000E+00 -0.21892335882E+04  0.21892335882E+04  0.00000000000E+00 0.  1.
         25    1    1    2    0    0 -0.22766581172E+03  0.16411714380E+03 -0.38378645669E+03  0.49161285892E+03  0.12500000000E+03 0.  0.
         21    1    1    2  503  502  0.23936649570E+03 -0.18294956116E+03 -0.41235495152E+03  0.51068920807E+03  0.00000000000E+00 0.  1.
          2    1    1    2  501    0 -0.11700683980E+02  0.18832417360E+02 -0.12899165868E+04  0.12901071145E+04  0.00000000000E+00 0.  1.
<mgrwt>
<rscale>  4 0.31640124E+03</rscale>
<asrwt>0</asrwt>
<pdfrwt beam="1">  1       21 0.15873169E-01 0.31640124E+03</pdfrwt>
<pdfrwt beam="2">  1        2 0.33680516E+00 0.31640124E+03</pdfrwt>
<totfact> 0.25599242E+03</totfact>
</mgrwt>
</event>
<event>
 5    0  0.1239749E+000  0.2615500E+03  0.7546771E-02  0.1106216E+00
         21   -1    0    0  501  502  0.00000000000E+00  0.00000000000E+00  0.39496325993E+03  0.39496325993E+03  0.00000000000E+00 0. -1.
          2   -1    0    0  503    0 -0.00000000000E+00 -0.00000000000E+00 -0.16260390856E+04  0.16260390856E+04  0.00000000000E+00 0. -1.
         25    1    1    2    0    0  0.87929272240E+02  0.18345805849E+03  0.10539446901E+03  0.26100078590E+03  0.12500000000E+03 0.  0.
         21    1    1    2  503  502 -0.17104412662E+03 -0.19755618379E+03  0.12947766690E+03  0.29163162591E+03  0.00000000000E+00 0. -1.
          2    1    1    2  501    0  0.83114854384E+02  0.14098125292E+02 -0.14659479616E+04  0.14683699337E+04  0.00000000000E+00 0. -1.
<mgrwt>
<rscale>  4 0.26155003E+03</rscale>
<asrwt>0</asrwt>
<pdfrwt beam="1">  1       21 0.60763579E-01 0.26155003E+03</pdfrwt>
<pdfrwt beam="2">  1        2 0.25015986E+00 0.26155003E+03</pdfrwt>
<totfact> 0.36230009E+02</totfact>
</mgrwt>
</event>
<event>
 5    0  0.1239749E+000  0.2480387E+03  0.7546771E-02  0.1114551E+00
         -3   -1    0    0    0  501 -0.00000000000E+00  0.00000000000E+00  0.14341548897E+03  0.14341548897E+03  0.00000000000E+00 0. -1.
         21   -1    0    0  503  502  0.00000000000E+00 -0.00000000000E+00 -0.10693513632E+04  0.10693513632E+04  0.00000000000E+00 0. -1.
         25    1    1    2    0    0  0.16312912476E+03  0.14263076019E+03 -0.89465964529E+03  0.92897552498E+03  0.12500000000E+03 0.  0.
         21    1    1    2  503  501 -0.13490810912E+03 -0.15560363207E+03 -0.84147831011E+02  0.22247144914E+03  0.00000000000E+00 0. -1.
         -3    1    1    2    0  502 -0.28221015638E+02  0.12972871885E+02  0.52871602112E+02  0.61319878005E+02  0.00000000000E+00 0. -1.
<mgrwt>
<rscale>  4 0.24803868E+03</rscale>
<asrwt>0</asrwt>
<pdfrwt beam="1">  1       21 0.16451560E+00 0.24803868E+03</pdfrwt>
<pdfrwt beam="2">  1       -3 0.22063921E-01 0.24803868E+03</pdfrwt>
<totfact> 0.21205622E+02</totfact>
</mgrwt>
</event>
<event>
 5    0  0.1239749E+000  0.3345392E+03  0.7546771E-02  0.1069146E+00
          2   -1    0    0  503    0 -0.00000000000E+00  0.00000000000E+00  0.70618785323E+03  0.70618785323E+03  0.00000000000E+00 0. -1.
         21   -1    0    0  501  502  0.00000000000E+00 -0.00000000000E+00 -0.47509027856E+03  0.47509027856E+03  0.00000000000E+00 0.  1.
         25    1    1    2    0    0  0.19203961839E+03 -0.20707228689E+03 -0.10805491875E+03  0.32719873547E+03  0.12500000000E+03 0.  0.
         21    1    1    2  503  502 -0.25616830939E+03  0.22357790280E+03 -0.14193991664E+03  0.36845111113E+03  0.00000000000E+00 0.  1.
          2    1    1    2  501    0  0.64128691009E+02 -0.16505615908E+02  0.48109241006E+03  0.48562828519E+03  0.00000000000E+00 0. -1.
<mgrwt>
<rscale>  4 0.33453915E+03</rscale>
<asrwt>0</asrwt>
<pdfrwt beam="1">  1       21 0.73090812E-01 0.33453915E+03</pdfrwt>
<pdfrwt beam="2">  1        2 0.10864428E+00 0.33453915E+03</pdfrwt>
<totfact> 0.82712835E+02</totfact>
</mgrwt>
</event>
<event>
 5    0  0.1239749E+000  0.2572926E+03  0.7546771E-02  0.1108781E+00
         21   -1    0    0  501  502  0.00000000000E+00  0.00000000000E+00  0.13302923382E+03  0.13302923382E+03  0.00000000000E+00 0.  1.
          2   -1    0    0  503    0 -0.00000000000E+00 -0.00000000000E+00 -0.16141013722E+04  0.16141013722E+04  0.00000000000E+00 0.  1.
         25    1    1    2    0    0  0.13140562329E+03  0.18932919010E+03 -0.23103840244E+03  0.34945203312E+03  0.12500000000E+03 0.  0.
         21    1    1    2  503  502 -0.10909912670E+03 -0.19338391195E+03 -0.93494881922E+02  0.24091751658E+03  0.00000000000E+00 0.  1.
          2    1    1    2  501    0 -0.22306496588E+02  0.40547218546E+01 -0.11565388540E+04  0.11567610563E+04  0.00000000000E+00 0.  1.
<mgrwt>
<rscale>  4 0.25729258E+03</rscale>
<asrwt>0</asrwt>
<pdfrwt beam="1">  1       21 0.20466037E-01 0.25729258E+03</pdfrwt>
<pdfrwt beam="2">  1        2 0.24832327E+00 0.25729258E+03</pdfrwt>
<totfact> 0.32809380E+03</totfact>
</mgrwt>
</event>
<event>
 5    0  0.1239749E+000  0.3117953E+03  0.7546771E-02  0.1079489E+00
         21   -1    0    0  503  502  0.00000000000E+00  0.00000000000E+00  0.55291025055E+02  0.55291025055E+02  0.00000000000E+00 0.  1.
         -1   -1    0    0    0  501 -0.00000000000E+00 -0.00000000000E+00 -0.21725000390E+04  0.21725000390E+04  0.00000000000E+00 0.  1.
         25    1    1    2    0    0  0.22242031206E+03 -0.16109704992E+03 -0.64077301856E+03  0.70826415696E+03  0.12500000000E+03 0.  0.
         21    1    1    2  503  501 -0.22434949929E+03  0.20896388584E+03 -0.11766521839E+04  0.12159395401E+04  0.00000000000E+00 0.  1.
         -1    1    1    2    0  502  0.19291872281E+01 -0.47866835916E+02 -0.29978381150E+03  0.30358736697E+03  0.00000000000E+00 0.  1.
<mgrwt>
<rscale>  4 0.31179532E+03</rscale>
<asrwt>0</asrwt>
<pdfrwt beam="1">  1       21 0.85063129E-02 0.31179532E+03</pdfrwt>
<pdfrwt beam="2">  1       -1 0.33423072E+00 0.31179532E+03</pdfrwt>
<totfact> 0.23232300E+02</totfact>
</mgrwt>
</event>
<event>
 5    0  0.1239749E+000  0.3413413E+03  0.7546771E-02  0.1066226E+00
         -2   -1    0    0    0  501 -0.00000000000E+00  0.00000000000E+00  0.46566434847E+03  0.46566434847E+03  0.00000000000E+00 0.  1.
         21   -1    0    0  503  502  0.00000000000E+00 -0.00000000000E+00 -0.14946682872E+04  0.14946682872E+04  0.00000000000E+00 0.  1.
         25    1    1    2    0    0 -0.28614162753E+03 -0.14036384280E+03 -0.13968736967E+04  0.14382142274E+04  0.12500000000E+03 0.  0.
         21    1    1    2  503  501  0.24929119087E+03  0.16193711073E+03  0.37530720391E+03  0.47877471005E+03  0.00000000000E+00 0.  1.
         -2    1    1    2    0  502  0.36850436660E+02 -0.21573267931E+02 -0.74374458999E+01  0.43343698189E+02  0.00000000000E+00 0.  1.
<mgrwt>
<rscale>  4 0.34134130E+03</rscale>
<asrwt>0</asrwt>
<pdfrwt beam="1">  1       21 0.22994897E+00 0.34134130E+03</pdfrwt>
<pdfrwt beam="2">  1       -2 0.71640669E-01 0.34134130E+03</pdfrwt>
<totfact> 0.11489100E+01</totfact>
</mgrwt>
</event>
<event>
 5    0  0.1239749E+000  0.2762474E+03  0.7546771E-02  0.1097756E+00
          1   -1    0    0  503    0 -0.00000000000E+00  0.00000000000E+00  0.28409972365E+04  0.28409972365E+04  0.00000000000E+00 0. -1.
         21   -1    0    0  501  502  0.00000000000E+00 -0.00000000000E+00 -0.39840086902E+03  0.39840086902E+03  0.00000000000E+00 0. -1.
         25    1    1    2    0    0 -0.25871869809E+03 -0.17849873659E+02 -0.29200925910E+03  0.41005900811E+03  0.12500000000E+03 0.  0.
         21    1    1    2  503  502  0.19264666088E+03  0.64587815718E+02  0.17415135254E+03  0.26760608266E+03  0.00000000000E+00 0. -1.
          1    1    1    2  501    0  0.66072037219E+02 -0.46737942058E+02  0.25604542741E+04  0.25617330147E+04  0.00000000000E+00 0. -1.
<mgrwt>
<rscale>  4 0.27624745E+03</rscale>
<asrwt>0</asrwt>
<pdfrwt beam="1">  1       21 0.61292443E-01 0.27624745E+03</pdfrwt>
<pdfrwt beam="2">  1        1 0.43707648E+00 0.27624745E+03</pdfrwt>
<totfact> 0.24698379E+01</totfact>
</mgrwt>
</event>
<event>
 5    0  0.1239749E+000  0.3919746E+03  0.7546771E-02  0.1046595E+00
         21   -1    0    0  501  502  0.00000000000E+00  0.00000000000E+00  0.11113023399E+04  0.11113023399E+04  0.00000000000E+00 0. -1.
          1   -1    0    0  503    0 -0.00000000000E+00 -0.00000000000E+00 -0.56222211749E+03  0.56222211749E+03  0.00000000000E+00 0. -1.
         25    1    1    2    0    0 -0.37037286442E+03  0.25726001496E+02  0.96917488563E+03  0.10453529762E+04  0.12500000000E+03 0.  0.
         21    1    1    2  503  502 -0.78812527673E+01 -0.74362372283E+02 -0.24515562182E+02  0.78694913087E+02  0.00000000000E+00 0. -1.
          1    1    1    2  501    0  0.37825411718E+03  0.48636370787E+02 -0.39557910105E+03  0.54947656812E+03  0.00000000000E+00 0. -1.
<mgrwt>
<rscale>  4 0.39197459E+03</rscale>
<asrwt>0</asrwt>
<pdfrwt beam="1">  1       21 0.17096959E+00 0.39197459E+03</pdfrwt>
<pdfrwt beam="2">  1        1 0.86495711E-01 0.39197459E+03</pdfrwt>
<totfact> 0.78861578E+01</totfact>
</mgrwt>
</event>
<event>
 5    0  0.1239749E+000  0.4060354E+03  0.7546771E-02  0.1041710E+00
          2   -1    0    0  503    0 -0.00000000000E+00  0.00000000000E+00  0.18490496164E+04  0.18490496164E+04  0.00000000000E+00 0.  1.
         21   -1    0    0  501  502  0.00000000000E+00 -0.00000000000E+00 -0.24287914438E+03  0.24287914438E+03  0.00000000000E+00 0.  1.
         25    1    1    2    0    0  0.14246598164E+03 -0.41810423518E+03  0.14093927243E+03  0.48020473333E+03  0.12500000000E+03 0.  0.
         21    1    1    2  503  502  0.33191929312E+02  0.32874892996E+03  0.35834799499E+03  0.48743291706E+03  0.00000000000E+00 0.  1.
          2    1    1    2  501    0 -0.17565791095E+03  0.89355305220E+02  0.11068832046E+04  0.11242911104E+04  0.00000000000E+00 0.  1.
<mgrwt>
<rscale>  4 0.40603541E+03</rscale>
<asrwt>0</asrwt>
<pdfrwt beam="1">  1       21 0.37366023E-01 0.40603541E+03</pdfrwt>
<pdfrwt beam="2">  1        2 0.28446916E+00 0.40603541E+03</pdfrwt>
<totfact> 0.71782604E+02</totfact>
</mgrwt>
</event>
<event>
 5    0  0.1239749E+000  0.2187579E+03  0.7546771E-02  0.1134812E+00
         -1   -1    0    0    0  501 -0.00000000000E+00  0.00000000000E+00  0.67912012703E+03  0.67912012703E+03  0.00000000000E+00 0. -1.
         21   -1    0    0  503  502  0.00000000000E+00 -0.00000000000E+00 -0.53573679552E+03  0.53573679552E+03  0.00000000000E+00 0. -1.
         25    1    1    2    0    0  0.15685061500E+03 -0.14166848118E+03  0.35540404269E+02  0.24811326914E+03  0.12500000000E+03 0.  0.
         21    1    1    2  503  501 -0.12819632722E+03  0.11985908557E+03 -0.41086985966E+03  0.44678243059E+03  0.00000000000E+00 0. -1.
         -1    1    1    2    0  502 -0.28654287783E+02  0.21809395610E+02  0.51871278690E+03  0.51996122283E+03  0.00000000000E+00 0. -1.
<mgrwt>
<rscale>  4 0.21875792E+03</rscale>
<asrwt>0</asrwt>
<pdfrwt beam="1">  1       21 0.82421045E-01 0.21875792E+03</pdfrwt>
<pdfrwt beam="2">  1       -1 0.10448002E+00 0.21875792E+03</pdfrwt>
<totfact> 0.10836882E+02</totfact>
</mgrwt>
</event>
<event>
 5    0  0.1239749E+000  0.2748481E+03  0.7546771E-02  0.1098537E+00
          2   -1    0    0  503    0 -0.00000000000E+00  0.00000000000E+00  0.17467573984E+04  0.17467573984E+04  0.00000000000E+00 0. -1.
         21   -1    0    0  501  502  0.00000000000E+00 -0.00000000000E+00 -0.14305194236E+03  0.14305194236E+03  0.00000000000E+00 0.  1.
         25    1    1    2    0    0  0.16096043651E+03 -0.16476169704E+03  0.81766245533E+03  0.85863354803E+03  0.12500000000E+03 0.  0.
         21    1    1    2  503  502 -0.21569040161E+03  0.12273103420E+03  0.61542885585E+01  0.24824006802E+03  0.00000000000E+00 0.  1.
          2    1    1    2  501    0  0.54729965092E+02  0.42030662838E+02  0.77988871215E+03  0.78293572472E+03  0.00000000000E+00 0. -1.
<mgrwt>
<rscale>  4 0.27484807E+03</rscale>
<asrwt>0</asrwt>
<pdfrwt beam="1">  1       21 0.22007992E-01 0.27484807E+03</pdfrwt>
<pdfrwt beam="2">  1        2 0.26873189E+00 0.27484807E+03</pdfrwt>
<totfact> 0.24165900E+03</totfact>
</mgrwt>
</event>
<event>
 5    0  0.1239749E+000  0.2708596E+03  0.7546771E-02  0.1100789E+00
         21   -1    0    0  501  502  0.00000000000E+00  0.00000000000E+00  0.12688056896E+04  0.12688056896E+04  0.00000000000E+00 0.  1.
          1   -1    0    0  503    0 -0.00000000000E+00 -0.00000000000E+00 -0.18497767338E+04  0.18497767338E+04  0.00000000000E+00 0. -1.
         25    1    1    2    0    0 -0.20484358041E+02  0.25085568467E+03  0.11610945163E+04  0.11946186251E+04  0.12500000000E+03 0.  0.
         21    1    1    2  503  502  0.75495303449E+02 -0.16868165079E+03 -0.58123302833E+01  0.18489679105E+03  0.00000000000E+00 0.  1.
          1    1    1    2  501    0 -0.55010945409E+02 -0.82174033873E+02 -0.17362532303E+04  0.17390670072E+04  0.00000000000E+00 0. -1.
<mgrwt>
<rscale>  4 0.27085963E+03</rscale>
<asrwt>0</asrwt>
<pdfrwt beam="1">  1       21 0.19520088E+00 0.27085963E+03</pdfrwt>
<pdfrwt beam="2">  1        1 0.28458103E+00 0.27085963E+03</pdfrwt>
<totfact> 0.63353078E+00</totfact>
</mgrwt>
</event>
<event>
 5    0  0.1239749E+000  0.2548559E+03  0.7546771E-02  0.1110274E+00
         21   -1    0    0  501  502  0.00000000000E+00  0.00000000000E+00  0.37619767711E+03  0.37619767711E+03  0.00000000000E+00 0. -1.
          1   -1    0    0  503    0 -0.00000000000E+00 -0.00000000000E+00 -0.56052188097E+03  0.56052188097E+03  0.00000000000E+00 0.  1.
         25    1    1    2    0    0 -0.16986933130E+03  0.14252633413E+03  0.24827787839E+03  0.35557875434E+03  0.12500000000E+03 0.  0.
         21    1    1    2  503  502 -0.82413534739E+02 -0.10193800202E+03 -0.12355151947E+03  0.18013418589E+03  0.00000000000E+00 0.  1.
          1    1    1    2  501    0  0.25228286604E+03 -0.40588332107E+02 -0.30905056278E+03  0.40100661785E+03  0.00000000000E+00 0.  1.
<mgrwt>
<rscale>  4 0.25485585E+03</rscale>
<asrwt>0</asrwt>
<pdfrwt beam="1">  1       21 0.57876566E-01 0.25485585E+03</pdfrwt>
<pdfrwt beam="2">  1        1 0.86234135E-01 0.25485585E+03</pdfrwt>
<totfact> 0.11655966E+03</totfact>
</mgrwt>
</event>
<event>
 5    0  0.1239749E+000  0.1706754E+03  0.7546771E-02  0.1177145E+00
          4   -1    0    0  503    0 -0.00000000000E+00  0.00000000000E+00  0.63922451737E+03  0.63922451737E+03  0.00000000000E+00 0. -1.
         21   -1    0    0  501  502  0.00000000000E+00 -0.00000000000E+00 -0.55677466606E+03  0.55677466606E+03  0.00000000000E+00 0.  1.
         25    1    1    2    0    0  0.14281371430E+03  0.14395863625E+03 -0.40656534275E+03  0.47121144285E+03  0.12500000000E+03 0.  0.
         21    1    1    2  503  502 -0.10661235169E+03 -0.34435916552E+02 -0.84157459461E+02  0.14012317390E+03  0.00000000000E+00 0.  1.
          4    1    1    2  501    0 -0.36201362611E+02 -0.10952271969E+03  0.57317265353E+03  0.58466456668E+03  0.00000000000E+00 0. -1.
<mgrwt>
<rscale>  4 0.17067540E+03</rscale>
<asrwt>0</asrwt>
<pdfrwt beam="1">  1       21 0.85657641E-01 0.17067540E+03</pdfrwt>
<pdfrwt beam="2">  1        4 0.98342233E-01 0.17067540E+03</pdfrwt>
<totfact> 0.44350170E+01</totfact>
</mgrwt>
</event>
<event>
 5    0  0.1239749E+000  0.1752853E+03  0.7546771E-02  0.1172446E+00
          2   -1    0    0  503    0 -0.00000000000E+00  0.00000000000E+00  0.14796159159E+04  0.14796159159E+04  0.00000000000E+00 0.  1.
         21   -1    0    0  501  502  0.00000000000E+00 -0.00000000000E+00 -0.13038164752E+03  0.13038164752E+03  0.00000000000E+00 0.  1.
         25    1    1    2    0    0  0.94025880848E+02 -0.19624333832E+03  0.17559546452E+03  0.30628594689E+03  0.12500000000E+03 0.  0.
         21    1    1    2  503  502 -0.60169196721E+02  0.82447542078E+02 -0.20146067525E+02  0.10403746184E+03  0.00000000000E+00 0.  1.
          2    1    1    2  501    0 -0.33856684127E+02  0.11379579624E+03  0.11937848714E+04  0.11996741547E+04  0.00000000000E+00 0.  1.
<mgrwt>
<rscale>  4 0.17528526E+03</rscale>
<asrwt>0</asrwt>
<pdfrwt beam="1">  1       21 0.20058716E-01 0.17528526E+03</pdfrwt>
<pdfrwt beam="2">  1        2 0.22763321E+00 0.17528526E+03</pdfrwt>
<totfact> 0.41656440E+03</totfact>
</mgrwt>
</event>
<event>
 5    0  0.1239749E+000  0.2361456E+03  0.7546771E-02  0.1122387E+00
         21   -1    0    0  501  502  0.00000000000E+00  0.00000000000E+00  0.34381597627E+03  0.34381597627E+03  0.00000000000E+00 0.  1.
          2   -1    0    0  503    0 -0.00000000000E+00 -0.00000000000E+00 -0.17740915772E+04  0.17740915772E+04  0.00000000000E+00 0.  1.
         25    1    1    2    0    0  0.17583297954E+03  0.10337630957E+03  0.20835373240E+03  0.31723835814E+03  0.12500000000E+03 0.  0.
         21    1    1    2  503  502 -0.19053332915E+03 -0.51157264990E+02 -0.40220157496E+02  0.20133970385E+03  0.00000000000E+00 0.  1.
          2    1    1    2  501    0  0.14700349614E+02 -0.52219044577E+02 -0.15984091758E+04  0.15993294915E+04  0.00000000000E+00 0.  1.
<mgrwt>
<rscale>  4 0.23614556E+03</rscale>
<asrwt>0</asrwt>
<pdfrwt beam="1">  1       21 0.52894767E-01 0.23614556E+03</pdfrwt>
<pdfrwt beam="2">  1        2 0.27293716E+00 0.23614556E+03</pdfrwt>
<totfact> 0.41400722E+02</totfact>
</mgrwt>
</event>
<event>
 5    0  0.1239749E+000  0.2521552E+03  0.7546771E-02  0.1111950E+00
          2   -1    0    0  503    0 -0.00000000000E+00  0.00000000000E+00  0.14613907972E+04  0.14613907972E+04  0.00000000000E+00 0. -1.
         21   -1    0    0  501  502  0.00000000000E+00 -0.00000000000E+00 -0.15136022826E+03  0.15136022826E+03  0.00000000000E+00 0. -1.
         25    1    1    2    0    0  0.19299240849E+03 -0.10007685256E+03 -0.21516115222E+02  0.25169304593E+03  0.12500000000E+03 0.  0.
         21    1    1    2  503  502 -0.19798556091E+03  0.12189737768E+03  0.92073420185E+03  0.94963610055E+03  0.00000000000E+00 0. -1.
          2    1    1    2  501    0  0.49931524188E+01 -0.21820525120E+02  0.41081248231E+03  0.41142187898E+03  0.00000000000E+00 0. -1.
<mgrwt>
<rscale>  4 0.25215518E+03</rscale>
<asrwt>0</asrwt>
<pdfrwt beam="1">  1       21 0.23286190E-01 0.25215518E+03</pdfrwt>
<pdfrwt beam="2">  1        2 0.22482934E+00 0.25215518E+03</pdfrwt>
<totfact> 0.31043904E+03</totfact>
</mgrwt>
</event>
<event>
 5    0  0.1239749E+000  0.2648634E+03  0.7546771E-02  0.1104256E+00
         21   -1    0    0  503  502  0.00000000000E+00  0.00000000000E+00  0.81327503714E+02  0.81327503714E+02  0.00000000000E+00 0.  1.
         -2   -1    0    0    0  501 -0.00000000000E+00 -0.00000000000E+00 -0.16115939993E+04  0.16115939993E+04  0.00000000000E+00 0.  1.
         25    1    1    2    0    0  0.21024309420E+03 -0.11930418135E+03 -0.80547578249E+03  0.85020696453E+03  0.12500000000E+03 0.  0.
         21    1    1    2  503  501 -0.18508395284E+03  0.13933086423E+03 -0.17087701744E+03  0.28786822404E+03  0.00000000000E+00 0.  1.
         -2    1    1    2    0  502 -0.25159141365E+02 -0.20026682877E+02 -0.55391369563E+03  0.55484631442E+03  0.00000000000E+00 0.  1.
<mgrwt>
<rscale>  4 0.26486340E+03</rscale>
<asrwt>0</asrwt>
<pdfrwt beam="1">  1       21 0.12511923E-01 0.26486340E+03</pdfrwt>
<pdfrwt beam="2">  1       -2 0.24793754E+00 0.26486340E+03</pdfrwt>
<totfact> 0.32678340E+02</totfact>
</mgrwt>
</event>
<event>
 5    0  0.1239749E+000  0.2593417E+03  0.7546771E-02  0.1107539E+00
          2   -1    0    0  503    0 -0.00000000000E+00  0.00000000000E+00  0.69404834044E+03  0.69404834044E+03  0.00000000000E+00 0. -1.
         21   -1    0    0  501  502  0.00000000000E+00 -0.00000000000E+00 -0.43302571611E+03  0.43302571611E+03  0.00000000000E+00 0. -1.
         25    1    1    2    0    0  0.19895397611E+03  0.67284261439E+02 -0.13037356182E+03  0.27700563545E+03  0.12500000000E+03 0.  0.
         21    1    1    2  503  502 -0.23130829067E+03 -0.72186331519E+02 -0.16471588771E+03  0.29299439492E+03  0.00000000000E+00 0. -1.
          2    1    1    2  501    0  0.32354314554E+02  0.49020700804E+01  0.55611207385E+03  0.55707402618E+03  0.00000000000E+00 0. -1.
<mgrwt>
<rscale>  4 0.25934171E+03</rscale>
<asrwt>0</asrwt>
<pdfrwt beam="1">  1       21 0.66619341E-01 0.25934171E+03</pdfrwt>
<pdfrwt beam="2">  1        2 0.10677667E+00 0.25934171E+03</pdfrwt>
<totfact> 0.10686144E+03</totfact>
</mgrwt>
</event>
<event>
 5    0  0.1239749E+000  0.2402296E+03  0.7546771E-02  0.1119640E+00
          2   -1    0    0  503    0 -0.00000000000E+00  0.00000000000E+00  0.71006237079E+03  0.71006237079E+03  0.00000000000E+00 0. -1.
         21   -1    0    0  501  502  0.00000000000E+00 -0.00000000000E+00 -0.14072787104E+03  0.14072787104E+03  0.00000000000E+00 0.  1.
         25    1    1    2    0    0 -0.36632477793E+02 -0.22566727882E+03  0.94991793947E+02  0.27733752014E+03  0.12500000000E+03 0.  0.
         21    1    1    2  503  502  0.68145965626E+02  0.17149280929E+03  0.13570000492E+03  0.22905926657E+03  0.00000000000E+00 0. -1.
          2    1    1    2  501    0 -0.31513487833E+02  0.54174469531E+02  0.33864270089E+03  0.34439345512E+03  0.00000000000E+00 0. -1.
<mgrwt>
<rscale>  4 0.24022955E+03</rscale>
<asrwt>0</asrwt>
<pdfrwt beam="1">  1       21 0.21650442E-01 0.24022955E+03</pdfrwt>
<pdfrwt beam="2">  1        2 0.10924036E+00 0.24022955E+03</pdfrwt>
<totfact> 0.10219266E+04</totfact>
</mgrwt>
</event>
<event>
 5    0  0.1239749E+000  0.2940900E+03  0.7546771E-02  0.1088233E+00
          2   -1    0    0  503    0 -0.00000000000E+00  0.00000000000E+00  0.68748457838E+03  0.68748457838E+03  0.00000000000E+00 0.  1.
         21   -1    0    0  501  502  0.00000000000E+00 -0.00000000000E+00 -0.38134603428E+03  0.38134603428E+03  0.00000000000E+00 0.  1.
         25    1    1    2    0    0  0.20638135145E+03  0.13065811855E+03 -0.16792651221E+03  0.32169724847E+03  0.12500000000E+03 0.  0.
         21    1    1    2  503  502 -0.21875596538E+03 -0.28612461770E+03  0.15522532509E+03  0.39219430234E+03  0.00000000000E+00 0.  1.
          2    1    1    2  501    0  0.12374613936E+02  0.15546649915E+03  0.31883973121E+03  0.35493906185E+03  0.00000000000E+00 0.  1.
<mgrwt>
<rscale>  4 0.29409001E+03</rscale>
<asrwt>0</asrwt>
<pdfrwt beam="1">  1       21 0.58668621E-01 0.29409001E+03</pdfrwt>
<pdfrwt beam="2">  1        2 0.10576686E+00 0.29409001E+03</pdfrwt>
<totfact> 0.14077653E+03</totfact>
</mgrwt>
</event>
<event>
 5    0  0.1239749E+000  0.4185356E+03  0.7546771E-02  0.1037544E+00
         21   -1    0    0  501  502  0.00000000000E+00  0.00000000000E+00  0.12830737622E+03  0.12830737622E+03  0.00000000000E+00 0. -1.
          2   -1    0    0  503    0 -0.00000000000E+00 -0.00000000000E+00 -0.17259029950E+04  0.17259029950E+04  0.00000000000E+00 0. -1.
         25    1    1    2    0    0  0.30228802536E+03  0.29335374994E+03 -0.86054149178E+03  0.96622519733E+03  0.12500000000E+03 0.  0.
         21    1    1    2  503  502 -0.30695086794E+03 -0.23736665658E+03 -0.44428191813E+03  0.58987133153E+03  0.00000000000E+00 0. -1.
          2    1    1    2  501    0  0.46628425842E+01 -0.55987093365E+02 -0.29277220889E+03  0.29811384239E+03  0.00000000000E+00 0. -1.
<mgrwt>
<rscale>  4 0.41853565E+03</rscale>
<asrwt>0</asrwt>
<pdfrwt beam="1">  1       21 0.19739595E-01 0.41853565E+03</pdfrwt>
<pdfrwt beam="2">  1        2 0.26552355E+00 0.41853565E+03</pdfrwt>
<totfact> 0.29118702E+03</totfact>
</mgrwt>
</event>
<event>
 5    0  0.1239749E+000  0.7390732E+03  0.7546771E-02  0.9652650E-01
         21   -1    0    0  501  502  0.00000000000E+00  0.00000000000E+00  0.51409263822E+03  0.51409263822E+03  0.00000000000E+00 0.  1.
          2   -1    0    0  503    0 -0.00000000000E+00 -0.00000000000E+00 -0.24681661174E+04  0.24681661174E+04  0.00000000000E+00 0.  1.
         25    1    1    2    0    0 -0.68753718261E+03 -0.23518973197E+03  0.12838020134E+03  0.74841703855E+03  0.12500000000E+03 0.  0.
         21    1    1    2  503  502  0.69163378130E+03  0.26066018929E+03 -0.17407648740E+04  0.18911804167E+04  0.00000000000E+00 0.  1.
          2    1    1    2  501    0 -0.40965986916E+01 -0.25470457320E+02 -0.34168880650E+03  0.34266130042E+03  0.00000000000E+00 0.  1.
<mgrwt>
<rscale>  4 0.73907324E+03</rscale>
<asrwt>0</asrwt>
<pdfrwt beam="1">  1       21 0.79091174E-01 0.73907324E+03</pdfrwt>
<pdfrwt beam="2">  1        2 0.37971787E+00 0.73907324E+03</pdfrwt>
<totfact> 0.58628330E+01</totfact>
</mgrwt>
</event>
<event>
 5    0  0.1239749E+000  0.3131654E+03  0.7546771E-02  0.1078838E+00
         21   -1    0    0  501  502  0.00000000000E+00  0.00000000000E+00  0.49562585874E+03  0.49562585874E+03  0.00000000000E+00 0.  1.
          2   -1    0    0  503    0 -0.00000000000E+00 -0.00000000000E+00 -0.12372605399E+04  0.12372605399E+04  0.00000000000E+00 0. -1.
         25    1    1    2    0    0 -0.26058720909E+03 -0.12285915279E+03  0.39767264408E+03  0.50672339281E+03  0.12500000000E+03 0.  0.
         21    1    1    2  503  502  0.27489894309E+03  0.69400434420E+02 -0.43222371957E+03  0.51691700782E+03  0.00000000000E+00 0. -1.
          2    1    1    2  501    0 -0.14311734000E+02  0.53458718373E+02 -0.70708360566E+03  0.70924599801E+03  0.00000000000E+00 0. -1.
<mgrwt>
<rscale>  4 0.31316540E+03</rscale>
<asrwt>0</asrwt>
<pdfrwt beam="1">  1       21 0.76250133E-01 0.31316540E+03</pdfrwt>
<pdfrwt beam="2">  1        2 0.19034777E+00 0.31316540E+03</pdfrwt>
<totfact> 0.34706049E+02</totfact>
</mgrwt>
</event>
<event>
 5    0  0.1239749E+000  0.2856514E+03  0.7546771E-02  0.1092642E+00
          2   -1    0    0  503    0 -0.00000000000E+00  0.00000000000E+00  0.22235246324E+04  0.22235246324E+04  0.00000000000E+00 0. -1.
         21   -1    0    0  501  502  0.00000000000E+00 -0.00000000000E+00 -0.15248627454E+03  0.15248627454E+03  0.00000000000E+00 0. -1.
         25    1    1    2    0    0 -0.23634054620E+03 -0.11256630292E+03  0.17343743544E+03  0.33798457116E+03  0.12500000000E+03 0.  0.
         21    1    1    2  503  502  0.26927011224E+03 -0.20508592343E+02  0.20287571200E+03  0.33776552551E+03  0.00000000000E+00 0. -1.
          2    1    1    2  501    0 -0.32929566039E+02  0.13307489527E+03  0.16947252104E+04  0.17002608102E+04  0.00000000000E+00 0. -1.
<mgrwt>
<rscale>  4 0.28565141E+03</rscale>
<asrwt>0</asrwt>
<pdfrwt beam="1">  1       21 0.23459428E-01 0.28565141E+03</pdfrwt>
<pdfrwt beam="2">  1        2 0.34208069E+00 0.28565141E+03</pdfrwt>
<totfact> 0.11923831E+03</totfact>
</mgrwt>
</event>
<event>
 5    0  0.1239749E+000  0.3817896E+03  0.7546771E-02  0.1050274E+00
         21   -1    0    0  501  502  0.00000000000E+00  0.00000000000E+00  0.25436812582E+03  0.25436812582E+03  0.00000000000E+00 0. -1.
          2   -1    0    0  503    0 -0.00000000000E+00 -0.00000000000E+00 -0.99350820612E+03  0.99350820612E+03  0.00000000000E+00 0. -1.
         25    1    1    2    0    0 -0.30960424622E+03 -0.21055520804E+03 -0.20846332895E+03  0.44639695835E+03  0.12500000000E+03 0.  0.
         21    1    1    2  503  502  0.29634160512E+03  0.18861994488E+03 -0.93440937854E+02  0.36349283267E+03  0.00000000000E+00 0. -1.
          2    1    1    2  501    0  0.13262641100E+02  0.21935263157E+02 -0.43723581349E+03  0.43798654091E+03  0.00000000000E+00 0. -1.
<mgrwt>
<rscale>  4 0.38178956E+03</rscale>
<asrwt>0</asrwt>
<pdfrwt beam="1">  1       21 0.39133557E-01 0.38178956E+03</pdfrwt>
<pdfrwt beam="2">  1        2 0.15284742E+00 0.38178956E+03</pdfrwt>
<totfact> 0.19817408E+03</totfact>
</mgrwt>
</event>
<event>
 5    0  0.1239749E+000  0.2552226E+03  0.7546771E-02  0.1110048E+00
          2   -1    0    0  503    0 -0.00000000000E+00  0.00000000000E+00  0.15145649581E+04  0.15145649581E+04  0.00000000000E+00 0. -1.
         21   -1    0    0  501  502  0.00000000000E+00 -0.00000000000E+00 -0.21104701821E+04  0.21104701821E+04  0.00000000000E+00 0. -1.
         25    1    1    2    0    0  0.21535635358E+03 -0.57489862298E+02 -0.20740809604E+04  0.20897656026E+04  0.12500000000E+03 0.  0.
         21    1    1    2  503  502 -0.19198735374E+03  0.73300210809E+02  0.34376322822E+03  0.40050620716E+03  0.00000000000E+00 0. -1.
          2    1    1    2  501    0 -0.23368999845E+02 -0.15810348511E+02  0.11344125082E+04  0.11347633304E+04  0.00000000000E+00 0. -1.
<mgrwt>
<rscale>  4 0.25522258E+03</rscale>
<asrwt>0</asrwt>
<pdfrwt beam="1">  1       21 0.32468772E+00 0.25522258E+03</pdfrwt>
<pdfrwt beam="2">  1        2 0.23300999E+00 0.25522258E+03</pdfrwt>
<totfact> 0.38514400E+00</totfact>
</mgrwt>
</event>
<event>
 5    0  0.1239749E+000  0.2861094E+03  0.7546771E-02  0.1092398E+00
          1   -1    0    0  503    0 -0.00000000000E+00  0.00000000000E+00  0.42630041498E+03  0.42630041498E+03  0.00000000000E+00 0.  1.
         21   -1    0    0  501  502  0.00000000000E+00 -0.00000000000E+00 -0.58609816329E+03  0.58609816329E+03  0.00000000000E+00 0.  1.
         25    1    1    2    0    0 -0.36650123741E+03 -0.15977276183E+02 -0.30313885707E+03  0.49203312596E+03  0.12500000000E+03 0.  0.
         21    1    1    2  503  502  0.17656895356E+03  0.42571162426E+02  0.24367668261E+03  0.30391976717E+03  0.00000000000E+00 0. -1.
          1    1    1    2  501    0  0.18993228385E+03 -0.26593886243E+02 -0.10033557386E+03  0.21644568514E+03  0.00000000000E+00 0.  1.
<mgrwt>
<rscale>  4 0.28610941E+03</rscale>
<asrwt>0</asrwt>
<pdfrwt beam="1">  1       21 0.90168948E-01 0.28610941E+03</pdfrwt>
<pdfrwt beam="2">  1        1 0.65584679E-01 0.28610941E+03</pdfrwt>
<totfact> 0.61378557E+02</totfact>
</mgrwt>
</event>
<event>
 5    0  0.1239749E+000  0.3410474E+03  0.7546771E-02  0.1067611E+00
         21   -1    0    0  501  502  0.00000000000E+00  0.00000000000E+00  0.14999267605E+03  0.14999267605E+03  0.00000000000E+00 0. -1.
          2   -1    0    0  503    0 -0.00000000000E+00 -0.00000000000E+00 -0.80023400761E+03  0.80023400761E+03  0.00000000000E+00 0. -1.
         25    1    1    2    0    0 -0.20150183398E+03  0.22861200606E+03 -0.19980997991E+03  0.38524727966E+03  0.12500000000E+03 0.  0.
         21    1    1    2  503  502  0.11769263665E+03 -0.56376910997E+02 -0.27863302449E+03  0.30767885068E+03  0.00000000000E+00 0. -1.
          2    1    1    2  501    0  0.83809197327E+02 -0.17223509506E+03 -0.17179832715E+03  0.25730055332E+03  0.00000000000E+00 0. -1.
<mgrwt>
<rscale>  4 0.33809246E+03</rscale>
<asrwt>0</asrwt>
<pdfrwt beam="1">  1       21 0.23075796E-01 0.34104739E+03</pdfrwt>
<pdfrwt beam="2">  1        2 0.12311292E+00 0.34104739E+03</pdfrwt>
<totfact> 0.76274678E+03</totfact>
</mgrwt>
</event>
<event>
 5    0  0.1239749E+000  0.3014472E+03  0.7546771E-02  0.1084519E+00
         21   -1    0    0  501  502  0.00000000000E+00  0.00000000000E+00  0.21226351327E+04  0.21226351327E+04  0.00000000000E+00 0. -1.
          2   -1    0    0  503    0 -0.00000000000E+00 -0.00000000000E+00 -0.15181656824E+03  0.15181656824E+03  0.00000000000E+00 0. -1.
         25    1    1    2    0    0 -0.75897918241E+02  0.21848415068E+03  0.14449741072E+04  0.14686970377E+04  0.12500000000E+03 0.  0.
         21    1    1    2  503  502 -0.18265348414E+03 -0.94044220558E+02  0.47067791845E+03  0.51356042838E+03  0.00000000000E+00 0. -1.
          2    1    1    2  501    0  0.25855140239E+03 -0.12443993013E+03  0.55166538829E+02  0.29219423487E+03  0.00000000000E+00 0. -1.
<mgrwt>
<rscale>  4 0.30144718E+03</rscale>
<asrwt>0</asrwt>
<pdfrwt beam="1">  1       21 0.32655923E+00 0.30144718E+03</pdfrwt>
<pdfrwt beam="2">  1        2 0.23356397E-01 0.30144718E+03</pdfrwt>
<totfact> 0.61319580E+01</totfact>
</mgrwt>
</event>
<event>
 5    0  0.1239749E+000  0.2061800E+03  0.7546771E-02  0.1144627E+00
         -3   -1    0    0    0  501 -0.00000000000E+00  0.00000000000E+00  0.20245255981E+03  0.20245255981E+03  0.00000000000E+00 0.  1.
         21   -1    0    0  503  502  0.00000000000E+00 -0.00000000000E+00 -0.62059582942E+03  0.62059582942E+03  0.00000000000E+00 0. -1.
         25    1    1    2    0    0  0.54263298155E+02  0.20577179253E+03 -0.13505012303E+03  0.28133622564E+03  0.12500000000E+03 0.  0.
         21    1    1    2  503  501  0.11152807132E+02 -0.66793807285E+02 -0.36251814644E+03  0.36878883429E+03  0.00000000000E+00 0. -1.
         -3    1    1    2    0  502 -0.65416105287E+02 -0.13897798524E+03  0.79424999853E+02  0.17292332930E+03  0.00000000000E+00 0.  1.
<mgrwt>
<rscale>  4 0.20618004E+03</rscale>
<asrwt>0</asrwt>
<pdfrwt beam="1">  1       21 0.95476281E-01 0.20618004E+03</pdfrwt>
<pdfrwt beam="2">  1       -3 0.31146548E-01 0.20618004E+03</pdfrwt>
<totfact> 0.45044757E+02</totfact>
</mgrwt>
</event>
<event>
 5    0  0.1239749E+000  0.3098034E+03  0.7546771E-02  0.1080440E+00
          1   -1    0    0  503    0 -0.00000000000E+00  0.00000000000E+00  0.17072657476E+03  0.17072657476E+03  0.00000000000E+00 0. -1.
         21   -1    0    0  501  502  0.00000000000E+00 -0.00000000000E+00 -0.87911761464E+03  0.87911761464E+03  0.00000000000E+00 0. -1.
         25    1    1    2    0    0  0.75792969982E+02 -0.27314569358E+03 -0.67925036607E+03  0.74656493624E+03  0.12500000000E+03 0.  0.
         21    1    1    2  503  502 -0.15630872587E+02  0.16480316343E+03 -0.59113220177E+02  0.17578048713E+03  0.00000000000E+00 0. -1.
          1    1    1    2  501    0 -0.60162097395E+02  0.10834253015E+03  0.29972546363E+02  0.12749876603E+03  0.00000000000E+00 0. -1.
<mgrwt>
<rscale>  4 0.30980340E+03</rscale>
<asrwt>0</asrwt>
<pdfrwt beam="1">  1       21 0.13524887E+00 0.30980340E+03</pdfrwt>
<pdfrwt beam="2">  1        1 0.26265626E-01 0.30980340E+03</pdfrwt>
<totfact> 0.71953733E+02</totfact>
</mgrwt>
</event>
<event>
 5    0  0.1239749E+000  0.3067465E+03  0.7546771E-02  0.1081916E+00
          1   -1    0    0  503    0 -0.00000000000E+00  0.00000000000E+00  0.13430033444E+04  0.13430033444E+04  0.00000000000E+00 0.  1.
         21   -1    0    0  501  502  0.00000000000E+00 -0.00000000000E+00 -0.12669224470E+04  0.12669224470E+04  0.00000000000E+00 0. -1.
         25    1    1    2    0    0 -0.22874028806E+03  0.15807259140E+03 -0.11568702824E+04  0.11963623673E+04  0.12500000000E+03 0.  0.
         21    1    1    2  503  502  0.26797908336E+03 -0.15391975357E+03  0.17553338510E+03  0.35540969169E+03  0.00000000000E+00 0. -1.
          1    1    1    2  501    0 -0.39238795299E+02 -0.41528378287E+01  0.10574177947E+04  0.10581537325E+04  0.00000000000E+00 0.  1.
<mgrwt>
<rscale>  4 0.30674648E+03</rscale>
<asrwt>0</asrwt>
<pdfrwt beam="1">  1       21 0.19491115E+00 0.30674648E+03</pdfrwt>
<pdfrwt beam="2">  1        1 0.20661590E+00 0.30674648E+03</pdfrwt>
<totfact> 0.13336790E+01</totfact>
</mgrwt>
</event>
<event>
 5    0  0.1239749E+000  0.2704266E+03  0.7546771E-02  0.1101036E+00
          1   -1    0    0  503    0 -0.00000000000E+00  0.00000000000E+00  0.11681708322E+04  0.11681708322E+04  0.00000000000E+00 0.  1.
         21   -1    0    0  501  502  0.00000000000E+00 -0.00000000000E+00 -0.18573947204E+03  0.18573947204E+03  0.00000000000E+00 0.  1.
         25    1    1    2    0    0  0.17123022366E+03  0.16613014973E+03 -0.58005658053E+02  0.27551528544E+03  0.12500000000E+03 0.  0.
         21    1    1    2  503  502 -0.19353750553E+03 -0.16133470127E+03  0.10060832272E+04  0.10371543337E+04  0.00000000000E+00 0.  1.
          1    1    1    2  501    0  0.22307281873E+02 -0.47954484592E+01  0.34353791028E+02  0.41240685112E+02  0.00000000000E+00 0.  1.
<mgrwt>
<rscale>  4 0.27042657E+03</rscale>
<asrwt>0</asrwt>
<pdfrwt beam="1">  1       21 0.28575304E-01 0.27042657E+03</pdfrwt>
<pdfrwt beam="2">  1        1 0.17971858E+00 0.27042657E+03</pdfrwt>
<totfact> 0.15372691E+03</totfact>
</mgrwt>
</event>
<event>
 5    0  0.1239749E+000  0.3836989E+03  0.7546771E-02  0.1049575E+00
          1   -1    0    0  503    0 -0.00000000000E+00  0.00000000000E+00  0.13338109833E+04  0.13338109833E+04  0.00000000000E+00 0.  1.
         21   -1    0    0  501  502  0.00000000000E+00 -0.00000000000E+00 -0.99139826855E+03  0.99139826855E+03  0.00000000000E+00 0. -1.
         25    1    1    2    0    0  0.35690716852E+03  0.55395613815E+02 -0.82654836256E+03  0.91063636904E+03  0.12500000000E+03 0.  0.
         21    1    1    2  503  502 -0.36352948475E+03 -0.92281153063E+02  0.16472640277E+03  0.40963921353E+03  0.00000000000E+00 0. -1.
          1    1    1    2  501    0  0.66223162350E+01  0.36885539247E+02  0.10042346746E+04  0.10049336693E+04  0.00000000000E+00 0.  1.
<mgrwt>
<rscale>  4 0.38369892E+03</rscale>
<asrwt>0</asrwt>
<pdfrwt beam="1">  1       21 0.15252281E+00 0.38369892E+03</pdfrwt>
<pdfrwt beam="2">  1        1 0.20520169E+00 0.38369892E+03</pdfrwt>
<totfact> 0.25828464E+01</totfact>
</mgrwt>
</event>
<event>
 5    0  0.1239749E+000  0.2969251E+03  0.7546771E-02  0.1086788E+00
         -1   -1    0    0    0  501 -0.00000000000E+00  0.00000000000E+00  0.49802457273E+03  0.49802457273E+03  0.00000000000E+00 0. -1.
         21   -1    0    0  503  502  0.00000000000E+00 -0.00000000000E+00 -0.17097062365E+04  0.17097062365E+04  0.00000000000E+00 0.  1.
         25    1    1    2    0    0  0.11721047934E+03  0.27327799453E+03 -0.14841352343E+04  0.15187829182E+04  0.12500000000E+03 0.  0.
         21    1    1    2  503  501  0.78685128691E+02 -0.18406720621E+03  0.39386439819E+03  0.44181585536E+03  0.00000000000E+00 0. -1.
         -1    1    1    2    0  502 -0.19589560803E+03 -0.89210788316E+02 -0.12141082761E+03  0.24713203568E+03  0.00000000000E+00 0. -1.
<mgrwt>
<rscale>  4 0.29692505E+03</rscale>
<asrwt>0</asrwt>
<pdfrwt beam="1">  1       21 0.26303172E+00 0.29692505E+03</pdfrwt>
<pdfrwt beam="2">  1       -1 0.76619167E-01 0.29692505E+03</pdfrwt>
<totfact> 0.83466049E+00</totfact>
</mgrwt>
</event>
<event>
 5    0  0.1239749E+000  0.2698007E+03  0.7546771E-02  0.1101394E+00
         21   -1    0    0  503  502  0.00000000000E+00  0.00000000000E+00  0.76843320933E+03  0.76843320933E+03  0.00000000000E+00 0.  1.
         -4   -1    0    0    0  501 -0.00000000000E+00 -0.00000000000E+00 -0.98374272962E+03  0.98374272962E+03  0.00000000000E+00 0. -1.
         25    1    1    2    0    0 -0.14289527743E+03  0.14115790338E+03  0.38279176369E+03  0.44999905372E+03  0.12500000000E+03 0.  0.
         21    1    1    2  503  501  0.32914952971E+03 -0.14974901230E+03  0.24624192973E+03  0.43749201998E+03  0.00000000000E+00 0.  1.
         -4    1    1    2    0  502 -0.18625425228E+03  0.85911089192E+01 -0.84434321372E+03  0.86468486525E+03  0.00000000000E+00 0. -1.
<mgrwt>
<rscale>  4 0.26980068E+03</rscale>
<asrwt>0</asrwt>
<pdfrwt beam="1">  1       21 0.11822049E+00 0.26980068E+03</pdfrwt>
<pdfrwt beam="2">  1       -4 0.15134503E+00 0.26980068E+03</pdfrwt>
<totfact> 0.68620569E+00</totfact>
</mgrwt>
</event>
<event>
 5    0  0.1239749E+000  0.2513794E+03  0.7546771E-02  0.1112436E+00
         21   -1    0    0  501  502  0.00000000000E+00  0.00000000000E+00  0.59894395857E+03  0.59894395857E+03  0.00000000000E+00 0.  1.
          2   -1    0    0  503    0 -0.00000000000E+00 -0.00000000000E+00 -0.16695459067E+04  0.16695459067E+04  0.00000000000E+00 0. -1.
         25    1    1    2    0    0 -0.18315397209E+03 -0.12856318247E+03  0.46772749821E+03  0.53335530555E+03  0.12500000000E+03 0.  0.
         21    1    1    2  503  502  0.11457971650E+03  0.17656557898E+03 -0.16636825436E+02  0.21114141961E+03  0.00000000000E+00 0.  1.
          2    1    1    2  501    0  0.68574255593E+02 -0.48002396505E+02 -0.15216926209E+04  0.15239931401E+04  0.00000000000E+00 0. -1.
<mgrwt>
<rscale>  4 0.25137940E+03</rscale>
<asrwt>0</asrwt>
<pdfrwt beam="1">  1       21 0.92145224E-01 0.25137940E+03</pdfrwt>
<pdfrwt beam="2">  1        2 0.25685322E+00 0.25137940E+03</pdfrwt>
<totfact> 0.13549016E+02</totfact>
</mgrwt>
</event>
<event>
 5    0  0.1239749E+000  0.2076769E+03  0.7546771E-02  0.1143419E+00
         21   -1    0    0  501  502  0.00000000000E+00  0.00000000000E+00  0.17364122493E+03  0.17364122493E+03  0.00000000000E+00 0.  1.
          2   -1    0    0  503    0 -0.00000000000E+00 -0.00000000000E+00 -0.15513051390E+04  0.15513051390E+04  0.00000000000E+00 0. -1.
         25    1    1    2    0    0  0.21576274170E+03  0.87060985599E+02 -0.77422421727E+03  0.81803503258E+03  0.12500000000E+03 0.  0.
         21    1    1    2  503  502 -0.15899337829E+03 -0.32798472617E+02  0.10551636355E+03  0.19361905155E+03  0.00000000000E+00 0.  1.
          2    1    1    2  501    0 -0.56769363408E+02 -0.54262512982E+02 -0.70895606036E+03  0.71329227982E+03  0.00000000000E+00 0. -1.
<mgrwt>
<rscale>  4 0.20767688E+03</rscale>
<asrwt>0</asrwt>
<pdfrwt beam="1">  1       21 0.26714035E-01 0.20767688E+03</pdfrwt>
<pdfrwt beam="2">  1        2 0.23866232E+00 0.20767688E+03</pdfrwt>
<totfact> 0.21815323E+03</totfact>
</mgrwt>
</event>
<event>
 5    0  0.1239749E+000  0.2759935E+03  0.7546771E-02  0.1097898E+00
         21   -1    0    0  503  502  0.00000000000E+00  0.00000000000E+00  0.12567248910E+04  0.12567248910E+04  0.00000000000E+00 0.  1.
         -1   -1    0    0    0  501 -0.00000000000E+00 -0.00000000000E+00 -0.31106666062E+03  0.31106666062E+03  0.00000000000E+00 0.  1.
         25    1    1    2    0    0  0.24240868157E+03  0.58756127448E+02  0.11723023678E+04  0.12050444361E+04  0.12500000000E+03 0.  0.
         21    1    1    2  503  501 -0.19102776355E+03 -0.90903837248E+02 -0.12888065022E+03  0.24772027788E+03  0.00000000000E+00 0.  1.
         -1    1    1    2    0  502 -0.51380918016E+02  0.32147709800E+02 -0.97763487121E+02  0.11502683772E+03  0.00000000000E+00 0.  1.
<mgrwt>
<rscale>  4 0.27599352E+03</rscale>
<asrwt>0</asrwt>
<pdfrwt beam="1">  1       21 0.19334229E+00 0.27599352E+03</pdfrwt>
<pdfrwt beam="2">  1       -1 0.47856410E-01 0.27599352E+03</pdfrwt>
<totfact> 0.57284329E+01</totfact>
</mgrwt>
</event>
<event>
 5    0  0.1239749E+000  0.2674123E+03  0.7546771E-02  0.1102770E+00
          2   -1    0    0  503    0 -0.00000000000E+00  0.00000000000E+00  0.49523839533E+03  0.49523839533E+03  0.00000000000E+00 0.  1.
         21   -1    0    0  501  502  0.00000000000E+00 -0.00000000000E+00 -0.30157526459E+03  0.30157526459E+03  0.00000000000E+00 0. -1.
         25    1    1    2    0    0  0.21550496832E+03  0.12308903131E+03 -0.56104891557E+02  0.28348908243E+03  0.12500000000E+03 0.  0.
         21    1    1    2  503  502 -0.20090204941E+03 -0.10432418777E+03 -0.33693375668E+02  0.22886767612E+03  0.00000000000E+00 0. -1.
          2    1    1    2  501    0 -0.14602918916E+02 -0.18764843539E+02  0.28346139797E+03  0.28445690136E+03  0.00000000000E+00 0.  1.
<mgrwt>
<rscale>  4 0.26741226E+03</rscale>
<asrwt>0</asrwt>
<pdfrwt beam="1">  1       21 0.46396195E-01 0.26741226E+03</pdfrwt>
<pdfrwt beam="2">  1        2 0.76190522E-01 0.26741226E+03</pdfrwt>
<totfact> 0.34197877E+03</totfact>
</mgrwt>
</event>
<event>
 5    0  0.1239749E+000  0.2372358E+03  0.7546771E-02  0.1121648E+00
         21   -1    0    0  501  502  0.00000000000E+00  0.00000000000E+00  0.96478644839E+02  0.96478644839E+02  0.00000000000E+00 0.  1.
          2   -1    0    0  503    0 -0.00000000000E+00 -0.00000000000E+00 -0.32186210837E+04  0.32186210837E+04  0.00000000000E+00 0. -1.
         25    1    1    2    0    0 -0.24471006514E+03  0.68456937045E+01 -0.15864452818E+04  0.16100818338E+04  0.12500000000E+03 0.  0.
         21    1    1    2  503  502  0.19711272078E+03  0.24717313894E+02 -0.33171062967E+02  0.20140677674E+03  0.00000000000E+00 0.  1.
          2    1    1    2  501    0  0.47597344361E+02 -0.31563007599E+02 -0.15025260941E+04  0.15036111180E+04  0.00000000000E+00 0. -1.
<mgrwt>
<rscale>  4 0.23723576E+03</rscale>
<asrwt>0</asrwt>
<pdfrwt beam="1">  1       21 0.14842867E-01 0.23723576E+03</pdfrwt>
<pdfrwt beam="2">  1        2 0.49517254E+00 0.23723576E+03</pdfrwt>
<totfact> 0.78508680E+02</totfact>
</mgrwt>
</event>
<event>
 5    0  0.1239749E+000  0.2490328E+03  0.7546771E-02  0.1113918E+00
          2   -1    0    0  503    0 -0.00000000000E+00  0.00000000000E+00  0.15932084334E+04  0.15932084334E+04  0.00000000000E+00 0.  1.
         21   -1    0    0  501  502  0.00000000000E+00 -0.00000000000E+00 -0.24763320565E+03  0.24763320565E+03  0.00000000000E+00 0. -1.
         25    1    1    2    0    0 -0.19996686091E+02  0.23664229288E+03 -0.64017185303E+02  0.27590332047E+03  0.12500000000E+03 0.  0.
         21    1    1    2  503  502 -0.12186866557E+02 -0.19135884232E+03  0.42094876824E+02  0.19631277316E+03  0.00000000000E+00 0. -1.
          2    1    1    2  501    0  0.32183552648E+02 -0.45283450553E+02  0.13674975363E+04  0.13686255454E+04  0.00000000000E+00 0.  1.
<mgrwt>
<rscale>  4 0.24903280E+03</rscale>
<asrwt>0</asrwt>
<pdfrwt beam="1">  1       21 0.38097417E-01 0.24903280E+03</pdfrwt>
<pdfrwt beam="2">  1        2 0.24510898E+00 0.24903280E+03</pdfrwt>
<totfact> 0.10073145E+03</totfact>
</mgrwt>
</event>
<event>
 5    0  0.1239749E+000  0.2448759E+03  0.7546771E-02  0.1116587E+00
         21   -1    0    0  501  502  0.00000000000E+00  0.00000000000E+00  0.16209835506E+03  0.16209835506E+03  0.00000000000E+00 0.  1.
          1   -1    0    0  503    0 -0.00000000000E+00 -0.00000000000E+00 -0.38673029152E+03  0.38673029152E+03  0.00000000000E+00 0.  1.
         25    1    1    2    0    0  0.11550103078E+03 -0.16343099947E+03 -0.97966340713E+02  0.25548499684E+03  0.12500000000E+03 0.  0.
         21    1    1    2  503  502 -0.13899948491E+03  0.17002376861E+03 -0.68149473106E+02  0.22994192610E+03  0.00000000000E+00 0.  1.
          1    1    1    2  501    0  0.23498454126E+02 -0.65927691348E+01 -0.58516122642E+02  0.63401723638E+02  0.00000000000E+00 0.  1.
<mgrwt>
<rscale>  4 0.24487586E+03</rscale>
<asrwt>0</asrwt>
<pdfrwt beam="1">  1       21 0.24938209E-01 0.24487586E+03</pdfrwt>
<pdfrwt beam="2">  1        1 0.59496967E-01 0.24487586E+03</pdfrwt>
<totfact> 0.10474761E+04</totfact>
</mgrwt>
</event>
<event>
 5    0  0.1239749E+000  0.2755091E+03  0.7546771E-02  0.1098167E+00
          2   -1    0    0  503    0 -0.00000000000E+00  0.00000000000E+00  0.15204634285E+04  0.15204634285E+04  0.00000000000E+00 0.  1.
         21   -1    0    0  501  502  0.00000000000E+00 -0.00000000000E+00 -0.15479629031E+03  0.15479629031E+03  0.00000000000E+00 0.  1.
         25    1    1    2    0    0  0.17722703276E+03 -0.16991428109E+03 -0.89818419464E+01  0.27565550519E+03  0.12500000000E+03 0.  0.
         21    1    1    2  503  502 -0.12146358541E+03  0.51519814359E+02  0.72420038107E+03  0.73612083641E+03  0.00000000000E+00 0. -1.
          2    1    1    2  501    0 -0.55763447348E+02  0.11839446673E+03  0.65044859904E+03  0.66348337719E+03  0.00000000000E+00 0.  1.
<mgrwt>
<rscale>  4 0.27550914E+03</rscale>
<asrwt>0</asrwt>
<pdfrwt beam="1">  1       21 0.23814815E-01 0.27550914E+03</pdfrwt>
<pdfrwt beam="2">  1        2 0.23391744E+00 0.27550914E+03</pdfrwt>
<totfact> 0.27396382E+03</totfact>
</mgrwt>
</event>
<event>
 5    0  0.1239749E+000  0.2544951E+03  0.7546771E-02  0.1110497E+00
          1   -1    0    0  503    0 -0.00000000000E+00  0.00000000000E+00  0.23867833252E+03  0.23867833252E+03  0.00000000000E+00 0. -1.
         21   -1    0    0  501  502  0.00000000000E+00 -0.00000000000E+00 -0.17443385354E+04  0.17443385354E+04  0.00000000000E+00 0. -1.
         25    1    1    2    0    0 -0.28009169433E+03  0.21425368811E+02 -0.11834393347E+04  0.12227281229E+04  0.12500000000E+03 0.  0.
         21    1    1    2  503  502  0.81863674872E+02  0.73385523240E+02 -0.47829363759E+03  0.49076664520E+03  0.00000000000E+00 0. -1.
          1    1    1    2  501    0  0.19822801946E+03 -0.94810892051E+02  0.15607276938E+03  0.26952209982E+03  0.00000000000E+00 0. -1.
<mgrwt>
<rscale>  4 0.25449507E+03</rscale>
<asrwt>0</asrwt>
<pdfrwt beam="1">  1       21 0.26835976E+00 0.25449507E+03</pdfrwt>
<pdfrwt beam="2">  1        1 0.36719745E-01 0.25449507E+03</pdfrwt>
<totfact> 0.62305744E+01</totfact>
</mgrwt>
</event>
<event>
 5    0  0.1239749E+000  0.2682051E+03  0.7546771E-02  0.1102311E+00
         21   -1    0    0  501  502  0.00000000000E+00  0.00000000000E+00  0.55234542622E+03  0.55234542622E+03  0.00000000000E+00 0. -1.
          2   -1    0    0  503    0 -0.00000000000E+00 -0.00000000000E+00 -0.77376813306E+03  0.77376813306E+03  0.00000000000E+00 0. -1.
         25    1    1    2    0    0 -0.32339800990E+02 -0.23707460939E+03  0.48697117981E+03  0.55679095099E+03  0.12500000000E+03 0.  0.
         21    1    1    2  503  502  0.20855368457E+02  0.21453564385E+03 -0.35703665358E+03  0.41705594454E+03  0.00000000000E+00 0. -1.
          2    1    1    2  501    0  0.11484432533E+02  0.22538965534E+02 -0.35135723306E+03  0.35226666374E+03  0.00000000000E+00 0. -1.
<mgrwt>
<rscale>  4 0.26820514E+03</rscale>
<asrwt>0</asrwt>
<pdfrwt beam="1">  1       21 0.84976219E-01 0.26820514E+03</pdfrwt>
<pdfrwt beam="2">  1        2 0.11904125E+00 0.26820514E+03</pdfrwt>
<totfact> 0.53759650E+02</totfact>
</mgrwt>
</event>
<event>
 5    0  0.1239749E+000  0.2411131E+03  0.7546771E-02  0.1119054E+00
          2   -1    0    0  503    0 -0.00000000000E+00  0.00000000000E+00  0.24860789499E+03  0.24860789499E+03  0.00000000000E+00 0.  1.
         21   -1    0    0  501  502  0.00000000000E+00 -0.00000000000E+00 -0.93301080668E+03  0.93301080668E+03  0.00000000000E+00 0. -1.
         25    1    1    2    0    0  0.32111303791E+02 -0.32351744412E+03 -0.29554183823E+03  0.45679826032E+03  0.12500000000E+03 0.  0.
         21    1    1    2  503  502 -0.80661948055E+02  0.16612818551E+03 -0.49537115561E+03  0.52867523650E+03  0.00000000000E+00 0. -1.
          2    1    1    2  501    0  0.48550644264E+02  0.15738925861E+03  0.10651008215E+03  0.19614520485E+03  0.00000000000E+00 0.  1.
<mgrwt>
<rscale>  4 0.24111307E+03</rscale>
<asrwt>0</asrwt>
<pdfrwt beam="1">  1       21 0.14354012E+00 0.24111307E+03</pdfrwt>
<pdfrwt beam="2">  1        2 0.38247368E-01 0.24111307E+03</pdfrwt>
<totfact> 0.54085400E+02</totfact>
</mgrwt>
</event>
<event>
 5    0  0.1239749E+000  0.2855803E+03  0.7546771E-02  0.1092680E+00
         21   -1    0    0  501  502  0.00000000000E+00  0.00000000000E+00  0.28026737734E+03  0.28026737734E+03  0.00000000000E+00 0.  1.
          2   -1    0    0  503    0 -0.00000000000E+00 -0.00000000000E+00 -0.24024698974E+04  0.24024698974E+04  0.00000000000E+00 0.  1.
         25    1    1    2    0    0 -0.26709989419E+03 -0.40159641238E+02  0.14616761641E+03  0.33157973754E+03  0.12500000000E+03 0.  0.
         21    1    1    2  503  502  0.21029079551E+03  0.50930773773E+02 -0.24461752186E+03  0.32657907832E+03  0.00000000000E+00 0.  1.
          2    1    1    2  501    0  0.56809098675E+02 -0.10771132535E+02 -0.20237526146E+04  0.20245784588E+04  0.00000000000E+00 0.  1.
<mgrwt>
<rscale>  4 0.28558027E+03</rscale>
<asrwt>0</asrwt>
<pdfrwt beam="1">  1       21 0.43118059E-01 0.28558027E+03</pdfrwt>
<pdfrwt beam="2">  1        2 0.36961074E+00 0.28558027E+03</pdfrwt>
<totfact> 0.28573670E+02</totfact>
</mgrwt>
</event>
<event>
 5    0  0.1239749E+000  0.3968306E+03  0.7546771E-02  0.1044883E+00
         21   -1    0    0  503  502  0.00000000000E+00  0.00000000000E+00  0.57959957663E+03  0.57959957663E+03  0.00000000000E+00 0.  1.
         -2   -1    0    0    0  501 -0.00000000000E+00 -0.00000000000E+00 -0.51425909095E+03  0.51425909095E+03  0.00000000000E+00 0. -1.
         25    1    1    2    0    0 -0.34604667665E+03 -0.24902304485E+03 -0.50609038934E+02  0.44715439628E+03  0.12500000000E+03 0.  0.
         21    1    1    2  503  501  0.28364941174E+03  0.22084972049E+03  0.28858358282E+03  0.46099031671E+03  0.00000000000E+00 0.  1.
         -2    1    1    2    0  502  0.62397264910E+02  0.28173324354E+02 -0.17263405822E+03  0.18571395459E+03  0.00000000000E+00 0. -1.
<mgrwt>
<rscale>  4 0.39683063E+03</rscale>
<asrwt>0</asrwt>
<pdfrwt beam="1">  1       21 0.89169165E-01 0.39683063E+03</pdfrwt>
<pdfrwt beam="2">  1       -2 0.79116783E-01 0.39683063E+03</pdfrwt>
<totfact> 0.11768567E+02</totfact>
</mgrwt>
</event>
<event>
 5    0  0.1239749E+000  0.2845683E+03  0.7546771E-02  0.1093220E+00
         21   -1    0    0  501  502  0.00000000000E+00  0.00000000000E+00  0.54622519503E+03  0.54622519503E+03  0.00000000000E+00 0.  1.
          1   -1    0    0  503    0 -0.00000000000E+00 -0.00000000000E+00 -0.21396944567E+03  0.21396944567E+03  0.00000000000E+00 0. -1.
         25    1    1    2    0    0  0.87779667489E+02  0.22759620025E+03  0.32110959329E+03  0.42218677300E+03  0.12500000000E+03 0.  0.
         21    1    1    2  503  502 -0.10572109858E+03 -0.26362011328E+03  0.42237319250E+02  0.28715240892E+03  0.00000000000E+00 0.  1.
          1    1    1    2  501    0  0.17941431093E+02  0.36023913033E+02 -0.31091163184E+02  0.50855458783E+02  0.00000000000E+00 0. -1.
<mgrwt>
<rscale>  4 0.28456828E+03</rscale>
<asrwt>0</asrwt>
<pdfrwt beam="1">  1       21 0.84034645E-01 0.28456828E+03</pdfrwt>
<pdfrwt beam="2">  1        1 0.32918377E-01 0.28456828E+03</pdfrwt>
<totfact> 0.17386716E+03</totfact>
</mgrwt>
</event>
<event>
 5    0  0.1239749E+000  0.2709173E+03  0.7546771E-02  0.1100756E+00
          2   -1    0    0  503    0 -0.00000000000E+00  0.00000000000E+00  0.10703279976E+04  0.10703279976E+04  0.00000000000E+00 0. -1.
         21   -1    0    0  501  502  0.00000000000E+00 -0.00000000000E+00 -0.14928143088E+03  0.14928143088E+03  0.00000000000E+00 0. -1.
         25    1    1    2    0    0 -0.21276736876E+03 -0.11255853735E+03  0.18755001318E+02  0.27187520595E+03  0.12500000000E+03 0.  0.
         21    1    1    2  503  502  0.18852717947E+03  0.15223948958E+03  0.72384535422E+03  0.76332919269E+03  0.00000000000E+00 0. -1.
          2    1    1    2  501    0  0.24240189289E+02 -0.39680952225E+02  0.17844621113E+03  0.18440502979E+03  0.00000000000E+00 0. -1.
<mgrwt>
<rscale>  4 0.27091734E+03</rscale>
<asrwt>0</asrwt>
<pdfrwt beam="1">  1       21 0.22966375E-01 0.27091734E+03</pdfrwt>
<pdfrwt beam="2">  1        2 0.16466584E+00 0.27091734E+03</pdfrwt>
<totfact> 0.52510942E+03</totfact>
</mgrwt>
</event>
<event>
 5    0  0.1239749E+000  0.2976570E+03  0.7546771E-02  0.1086418E+00
          2   -1    0    0  503    0 -0.00000000000E+00  0.00000000000E+00  0.86299244020E+03  0.86299244020E+03  0.00000000000E+00 0.  1.
         21   -1    0    0  501  502  0.00000000000E+00 -0.00000000000E+00 -0.16317748514E+03  0.16317748514E+03  0.00000000000E+00 0. -1.
         25    1    1    2    0    0  0.37555438769E+02  0.26751501478E+03  0.27440995924E+02  0.29891922383E+03  0.12500000000E+03 0.  0.
         21    1    1    2  503  502 -0.28107178537E+02 -0.23942722373E+03  0.53635394004E+03  0.58803992887E+03  0.00000000000E+00 0.  1.
          2    1    1    2  501    0 -0.94482602320E+01 -0.28087791048E+02  0.13602001908E+03  0.13921077264E+03  0.00000000000E+00 0.  1.
<mgrwt>
<rscale>  4 0.29765701E+03</rscale>
<asrwt>0</asrwt>
<pdfrwt beam="1">  1       21 0.25104229E-01 0.29765701E+03</pdfrwt>
<pdfrwt beam="2">  1        2 0.13276806E+00 0.29765701E+03</pdfrwt>
<totfact> 0.59317144E+03</totfact>
</mgrwt>
</event>
<event>
 5    0  0.1239749E+000  0.2530059E+03  0.7546771E-02  0.1111420E+00
         21   -1    0    0  503  502  0.00000000000E+00  0.00000000000E+00  0.41776079402E+03  0.41776079402E+03  0.00000000000E+00 0. -1.
         -1   -1    0    0    0  501 -0.00000000000E+00 -0.00000000000E+00 -0.27722557373E+03  0.27722557373E+03  0.00000000000E+00 0. -1.
         25    1    1    2    0    0 -0.10951687474E+03 -0.18627232489E+03  0.16770914920E+03  0.30073690096E+03  0.12500000000E+03 0.  0.
         21    1    1    2  503  501  0.14533976855E+03  0.17266331829E+03  0.11053713516E+03  0.25130604461E+03  0.00000000000E+00 0. -1.
         -1    1    1    2    0  502 -0.35822893808E+02  0.13609006594E+02 -0.13771106406E+03  0.14294342219E+03  0.00000000000E+00 0. -1.
<mgrwt>
<rscale>  4 0.25300585E+03</rscale>
<asrwt>0</asrwt>
<pdfrwt beam="1">  1       21 0.64270891E-01 0.25300585E+03</pdfrwt>
<pdfrwt beam="2">  1       -1 0.42650088E-01 0.25300585E+03</pdfrwt>
<totfact> 0.11074444E+03</totfact>
</mgrwt>
</event>
<event>
 5    0  0.1239749E+000  0.4615578E+03  0.7546771E-02  0.1024330E+00
         21   -1    0    0  501  502  0.00000000000E+00  0.00000000000E+00  0.35201231940E+03  0.35201231940E+03  0.00000000000E+00 0. -1.
          1   -1    0    0  503    0 -0.00000000000E+00 -0.00000000000E+00 -0.26382162642E+04  0.26382162642E+04  0.00000000000E+00 0. -1.
         25    1    1    2    0    0  0.34534237419E+03 -0.57161423220E+02 -0.33570544631E+00  0.37169059231E+03  0.12500000000E+03 0.  0.
         21    1    1    2  503  502  0.40287675421E+02  0.32302740433E+03 -0.44271319046E+02  0.32852663580E+03  0.00000000000E+00 0. -1.
          1    1    1    2  501    0 -0.38563004961E+03 -0.26586598111E+03 -0.22415969203E+04  0.22900113555E+04  0.00000000000E+00 0. -1.
<mgrwt>
<rscale>  4 0.46155781E+03</rscale>
<asrwt>0</asrwt>
<pdfrwt beam="1">  1       21 0.54155743E-01 0.46155781E+03</pdfrwt>
<pdfrwt beam="2">  1        1 0.40587941E+00 0.46155781E+03</pdfrwt>
<totfact> 0.39957699E+01</totfact>
</mgrwt>
</event>
<event>
 5    0  0.1239749E+000  0.3053378E+03  0.7546771E-02  0.1082602E+00
         21   -1    0    0  501  502  0.00000000000E+00  0.00000000000E+00  0.17180503574E+04  0.17180503574E+04  0.00000000000E+00 0.  1.
          2   -1    0    0  503    0 -0.00000000000E+00 -0.00000000000E+00 -0.38250052410E+04  0.38250052410E+04  0.00000000000E+00 0. -1.
         25    1    1    2    0    0  0.43786639944E+03 -0.13868689905E+03  0.11273614253E+04  0.12237360103E+04  0.12500000000E+03 0.  0.
         21    1    1    2  503  502 -0.16003720054E+03  0.13383011694E+03  0.51711499654E+03  0.55761126728E+03  0.00000000000E+00 0.  1.
          2    1    1    2  501    0 -0.27782919891E+03  0.48567821073E+01 -0.37514313054E+04  0.37617083208E+04  0.00000000000E+00 0. -1.
<mgrwt>
<rscale>  4 0.30533777E+03</rscale>
<asrwt>0</asrwt>
<pdfrwt beam="1">  1       21 0.26431544E+00 0.30533777E+03</pdfrwt>
<pdfrwt beam="2">  1        2 0.58846234E+00 0.30533777E+03</pdfrwt>
<totfact> 0.36777930E-01</totfact>
</mgrwt>
</event>
<event>
 5    0  0.1239749E+000  0.2669283E+03  0.7546771E-02  0.1103051E+00
          2   -1    0    0  503    0 -0.00000000000E+00  0.00000000000E+00  0.19850244406E+04  0.19850244406E+04  0.00000000000E+00 0.  1.
         21   -1    0    0  501  502  0.00000000000E+00 -0.00000000000E+00 -0.10218402224E+04  0.10218402224E+04  0.00000000000E+00 0.  1.
         25    1    1    2    0    0 -0.12109937058E+02  0.23713405384E+03 -0.99371678216E+03  0.10293091145E+04  0.12500000000E+03 0.  0.
         21    1    1    2  503  502  0.83018293027E+02 -0.12634146351E+03  0.11717478699E+04  0.11814598059E+04  0.00000000000E+00 0.  1.
          2    1    1    2  501    0 -0.70908355969E+02 -0.11079259033E+03  0.78515313054E+03  0.79609574262E+03  0.00000000000E+00 0.  1.
<mgrwt>
<rscale>  4 0.26692833E+03</rscale>
<asrwt>0</asrwt>
<pdfrwt beam="1">  1       21 0.15720619E+00 0.26692833E+03</pdfrwt>
<pdfrwt beam="2">  1        2 0.30538838E+00 0.26692833E+03</pdfrwt>
<totfact> 0.23921749E+01</totfact>
</mgrwt>
</event>
<event>
 5    0  0.1716177E+000  0.2520042E+03  0.7546771E-02  0.1112045E+00
          1   -1    0    0  503    0 -0.00000000000E+00  0.00000000000E+00  0.10108407262E+04  0.10108407262E+04  0.00000000000E+00 0.  1.
         21   -1    0    0  501  502  0.00000000000E+00 -0.00000000000E+00 -0.45822504982E+03  0.45822504982E+03  0.00000000000E+00 0. -1.
         25    1    1    2    0    0  0.21111545096E+03 -0.57544535878E+02 -0.40937128899E+03  0.48071921065E+03  0.12500000000E+03 0.  0.
         21    1    1    2  503  502 -0.20110755278E+03  0.39012735803E+02  0.84489683438E+03  0.86937730709E+03  0.00000000000E+00 0.  1.
          1    1    1    2  501    0 -0.10007898178E+02  0.18531800075E+02  0.11709013098E+03  0.11896925826E+03  0.00000000000E+00 0.  1.
<mgrwt>
<rscale>  4 0.25200418E+03</rscale>
<asrwt>0</asrwt>
<pdfrwt beam="1">  1       21 0.70496161E-01 0.25200418E+03</pdfrwt>
<pdfrwt beam="2">  1        1 0.15551396E+00 0.25200418E+03</pdfrwt>
<totfact> 0.30972785E+02</totfact>
</mgrwt>
</event>
<event>
 5    0  0.1239749E+000  0.2444353E+03  0.7546771E-02  0.1116873E+00
         21   -1    0    0  503  502  0.00000000000E+00  0.00000000000E+00  0.63687648190E+03  0.63687648190E+03  0.00000000000E+00 0. -1.
         -2   -1    0    0    0  501 -0.00000000000E+00 -0.00000000000E+00 -0.84705473212E+03  0.84705473212E+03  0.00000000000E+00 0.  1.
         25    1    1    2    0    0 -0.20937235937E+03  0.36056686149E+02  0.55672019178E+03  0.60885075463E+03  0.12500000000E+03 0.  0.
         21    1    1    2  503  501  0.46441812630E+02 -0.13246731965E+03 -0.77886927646E+02  0.16053288209E+03  0.00000000000E+00 0.  1.
         -2    1    1    2    0  502  0.16293054674E+03  0.96410633500E+02 -0.68901151435E+03  0.71454757729E+03  0.00000000000E+00 0.  1.
<mgrwt>
<rscale>  4 0.24443528E+03</rscale>
<asrwt>0</asrwt>
<pdfrwt beam="1">  1       21 0.97980998E-01 0.24443528E+03</pdfrwt>
<pdfrwt beam="2">  1       -2 0.13031611E+00 0.24443528E+03</pdfrwt>
<totfact> 0.31113176E+01</totfact>
</mgrwt>
</event>
<event>
 5    0  0.1239749E+000  0.3486765E+03  0.7546771E-02  0.1063160E+00
         21   -1    0    0  501  502  0.00000000000E+00  0.00000000000E+00  0.32016588349E+03  0.32016588349E+03  0.00000000000E+00 0.  1.
          2   -1    0    0  503    0 -0.00000000000E+00 -0.00000000000E+00 -0.18237612569E+04  0.18237612569E+04  0.00000000000E+00 0.  1.
         25    1    1    2    0    0 -0.21486847105E+03  0.22220458356E+03 -0.74160918287E+03  0.81311285620E+03  0.12500000000E+03 0.  0.
         21    1    1    2  503  502  0.20549405308E+03 -0.25517517373E+03  0.18964921532E+03  0.37856175191E+03  0.00000000000E+00 0.  1.
          2    1    1    2  501    0  0.93744179770E+01  0.32970590172E+02 -0.95163540586E+03  0.95225253227E+03  0.00000000000E+00 0.  1.
<mgrwt>
<rscale>  4 0.34867655E+03</rscale>
<asrwt>0</asrwt>
<pdfrwt beam="1">  1       21 0.49256289E-01 0.34867655E+03</pdfrwt>
<pdfrwt beam="2">  1        2 0.28057866E+00 0.34867655E+03</pdfrwt>
<totfact> 0.42688605E+02</totfact>
</mgrwt>
</event>
<event>
 5    0  0.1239749E+000  0.2833328E+03  0.7546771E-02  0.1093882E+00
         21   -1    0    0  501  502  0.00000000000E+00  0.00000000000E+00  0.26213872654E+03  0.26213872654E+03  0.00000000000E+00 0. -1.
          2   -1    0    0  503    0 -0.00000000000E+00 -0.00000000000E+00 -0.12592242286E+04  0.12592242286E+04  0.00000000000E+00 0.  1.
         25    1    1    2    0    0 -0.17888114914E+03 -0.18375883693E+03  0.11893170355E+03  0.30908821682E+03  0.12500000000E+03 0.  0.
         21    1    1    2  503  502  0.28933391088E+03  0.40048262719E+02 -0.67899270814E+03  0.73915429582E+03  0.00000000000E+00 0.  1.
          2    1    1    2  501    0 -0.11045276173E+03  0.14371057421E+03 -0.43702449750E+03  0.47312044252E+03  0.00000000000E+00 0.  1.
<mgrwt>
<rscale>  4 0.28333280E+03</rscale>
<asrwt>0</asrwt>
<pdfrwt beam="1">  1       21 0.40329035E-01 0.28333280E+03</pdfrwt>
<pdfrwt beam="2">  1        2 0.19372680E+00 0.28333280E+03</pdfrwt>
<totfact> 0.13409458E+03</totfact>
</mgrwt>
</event>
<event>
 5    0  0.1239749E+000  0.2508359E+03  0.7546771E-02  0.1112778E+00
         21   -1    0    0  501  502  0.00000000000E+00  0.00000000000E+00  0.15237145344E+03  0.15237145344E+03  0.00000000000E+00 0.  1.
          2   -1    0    0  503    0 -0.00000000000E+00 -0.00000000000E+00 -0.28451482111E+04  0.28451482111E+04  0.00000000000E+00 0.  1.
         25    1    1    2    0    0 -0.26968998218E+02  0.22696104668E+03  0.25259643250E+02  0.26172828115E+03  0.12500000000E+03 0.  0.
         21    1    1    2  503  502  0.83570266113E+02 -0.12977674482E+03 -0.81843459705E+03  0.83286324359E+03  0.00000000000E+00 0.  1.
          2    1    1    2  501    0 -0.56601267895E+02 -0.97184301857E+02 -0.18996018039E+04  0.19029281398E+04  0.00000000000E+00 0.  1.
<mgrwt>
<rscale>  4 0.25083588E+03</rscale>
<asrwt>0</asrwt>
<pdfrwt beam="1">  1       21 0.23441763E-01 0.25083588E+03</pdfrwt>
<pdfrwt beam="2">  1        2 0.43771509E+00 0.25083588E+03</pdfrwt>
<totfact> 0.55292097E+02</totfact>
</mgrwt>
</event>
<event>
 5    0  0.1239749E+000  0.4705373E+03  0.7546771E-02  0.1021769E+00
          1   -1    0    0  503    0 -0.00000000000E+00  0.00000000000E+00  0.15550624161E+04  0.15550624161E+04  0.00000000000E+00 0.  1.
         21   -1    0    0  501  502  0.00000000000E+00 -0.00000000000E+00 -0.29402420008E+03  0.29402420008E+03  0.00000000000E+00 0.  1.
         25    1    1    2    0    0  0.32087411540E+03  0.31198040296E+03  0.37648617123E+02  0.46619136428E+03  0.12500000000E+03 0.  0.
         21    1    1    2  503  502 -0.33621095117E+03 -0.32906758768E+03  0.61613545172E+03  0.77520718251E+03  0.00000000000E+00 0.  1.
          1    1    1    2  501    0  0.15336835771E+02  0.17087184723E+02  0.60725414713E+03  0.60768806934E+03  0.00000000000E+00 0.  1.
<mgrwt>
<rscale>  4 0.47053726E+03</rscale>
<asrwt>0</asrwt>
<pdfrwt beam="1">  1       21 0.45234493E-01 0.47053726E+03</pdfrwt>
<pdfrwt beam="2">  1        1 0.23924037E+00 0.47053726E+03</pdfrwt>
<totfact> 0.30761068E+02</totfact>
</mgrwt>
</event>
<event>
 5    0  0.1239749E+000  0.2372487E+03  0.7546771E-02  0.1121639E+00
          1   -1    0    0  503    0 -0.00000000000E+00  0.00000000000E+00  0.81324728603E+03  0.81324728603E+03  0.00000000000E+00 0. -1.
         21   -1    0    0  501  502  0.00000000000E+00 -0.00000000000E+00 -0.21233371677E+03  0.21233371677E+03  0.00000000000E+00 0. -1.
         25    1    1    2    0    0 -0.19524591299E+03  0.14124236298E+03 -0.63965206481E+02  0.27890306430E+03  0.12500000000E+03 0.  0.
         21    1    1    2  503  502  0.14431582130E+03 -0.39921797330E+02  0.12510504121E+03  0.19512067424E+03  0.00000000000E+00 0. -1.
          1    1    1    2  501    0  0.50930091688E+02 -0.10132056565E+03  0.53977373454E+03  0.55155726426E+03  0.00000000000E+00 0. -1.
<mgrwt>
<rscale>  4 0.23724868E+03</rscale>
<asrwt>0</asrwt>
<pdfrwt beam="1">  1       21 0.32666726E-01 0.23724868E+03</pdfrwt>
<pdfrwt beam="2">  1        1 0.12511497E+00 0.23724868E+03</pdfrwt>
<totfact> 0.22223184E+03</totfact>
</mgrwt>
</event>
<event>
 5    0  0.1239749E+000  0.2700440E+03  0.7546771E-02  0.1101254E+00
         -2   -1    0    0    0  501 -0.00000000000E+00  0.00000000000E+00  0.53534258691E+03  0.53534258691E+03  0.00000000000E+00 0.  1.
         21   -1    0    0  503  502  0.00000000000E+00 -0.00000000000E+00 -0.37824352453E+03  0.37824352453E+03  0.00000000000E+00 0.  1.
         25    1    1    2    0    0  0.19676026120E+03 -0.26412907974E+03  0.78793074181E+01  0.35237175630E+03  0.12500000000E+03 0.  0.
         21    1    1    2  503  501  0.21880813442E+02  0.22286054567E+03 -0.83732755188E+02  0.23907481487E+03  0.00000000000E+00 0.  1.
         -2    1    1    2    0  502 -0.21864107465E+03  0.41268534068E+02  0.23295251015E+03  0.32213954028E+03  0.00000000000E+00 0.  1.
<mgrwt>
<rscale>  4 0.27004404E+03</rscale>
<asrwt>0</asrwt>
<pdfrwt beam="1">  1       21 0.58191311E-01 0.27004404E+03</pdfrwt>
<pdfrwt beam="2">  1       -2 0.82360398E-01 0.27004404E+03</pdfrwt>
<totfact> 0.29279821E+02</totfact>
</mgrwt>
</event>
<event>
 5    0  0.1239749E+000  0.2116698E+03  0.7546771E-02  0.1140250E+00
         21   -1    0    0  501  502  0.00000000000E+00  0.00000000000E+00  0.11358131473E+03  0.11358131473E+03  0.00000000000E+00 0. -1.
          2   -1    0    0  503    0 -0.00000000000E+00 -0.00000000000E+00 -0.53977815658E+04  0.53977815658E+04  0.00000000000E+00 0. -1.
         25    1    1    2    0    0 -0.26322160724E+03  0.13589773491E+03 -0.66204689100E+03  0.73599245564E+03  0.12500000000E+03 0.  0.
         21    1    1    2  503  502  0.13235594254E+03 -0.83316289022E+02 -0.54267164435E+01  0.15649009167E+03  0.00000000000E+00 0. -1.
          2    1    1    2  501    0  0.13086566470E+03 -0.52581445891E+02 -0.46167266437E+04  0.46188803332E+04  0.00000000000E+00 0. -1.
<mgrwt>
<rscale>  4 0.21166976E+03</rscale>
<asrwt>0</asrwt>
<pdfrwt beam="1">  1       21 0.17474046E-01 0.21166976E+03</pdfrwt>
<pdfrwt beam="2">  1        2 0.83042805E+00 0.21166976E+03</pdfrwt>
<totfact> 0.57261358E+00</totfact>
</mgrwt>
</event>
<event>
 5    0  0.1239749E+000  0.2791948E+03  0.7546771E-02  0.1096130E+00
         21   -1    0    0  501  502  0.00000000000E+00  0.00000000000E+00  0.16361086667E+03  0.16361086667E+03  0.00000000000E+00 0. -1.
          2   -1    0    0  503    0 -0.00000000000E+00 -0.00000000000E+00 -0.11271912810E+04  0.11271912810E+04  0.00000000000E+00 0. -1.
         25    1    1    2    0    0  0.19804549534E+03  0.18346255188E+03 -0.98263676715E+02  0.31330700012E+03  0.12500000000E+03 0.  0.
         21    1    1    2  503  502 -0.20199974751E+03 -0.10945491712E+03 -0.19003052267E+03  0.29815411522E+03  0.00000000000E+00 0. -1.
          2    1    1    2  501    0  0.39542521740E+01 -0.74007634760E+02 -0.67528621497E+03  0.67934103235E+03  0.00000000000E+00 0. -1.
<mgrwt>
<rscale>  4 0.27919485E+03</rscale>
<asrwt>0</asrwt>
<pdfrwt beam="1">  1       21 0.25170903E-01 0.27919485E+03</pdfrwt>
<pdfrwt beam="2">  1        2 0.17341404E+00 0.27919485E+03</pdfrwt>
<totfact> 0.40669945E+03</totfact>
</mgrwt>
</event>
<event>
 5    0  0.1239749E+000  0.2817983E+03  0.7546771E-02  0.1094711E+00
         21   -1    0    0  501  502  0.00000000000E+00  0.00000000000E+00  0.17620224575E+03  0.17620224575E+03  0.00000000000E+00 0.  1.
          1   -1    0    0  503    0 -0.00000000000E+00 -0.00000000000E+00 -0.90052027568E+03  0.90052027568E+03  0.00000000000E+00 0. -1.
         25    1    1    2    0    0 -0.22593682331E+03  0.11286190699E+03  0.26986196243E+02  0.28308746522E+03  0.12500000000E+03 0.  0.
         21    1    1    2  503  502  0.19857840116E+03 -0.10682200076E+03 -0.62998928287E+03  0.66912690709E+03  0.00000000000E+00 0. -1.
          1    1    1    2  501    0  0.27358422145E+02 -0.60399062304E+01 -0.12131494330E+03  0.12450814912E+03  0.00000000000E+00 0. -1.
<mgrwt>
<rscale>  4 0.28179826E+03</rscale>
<asrwt>0</asrwt>
<pdfrwt beam="1">  1       21 0.27108038E-01 0.28179826E+03</pdfrwt>
<pdfrwt beam="2">  1        1 0.13854158E+00 0.28179826E+03</pdfrwt>
<totfact> 0.26823688E+03</totfact>
</mgrwt>
</event>
<event>
 5    0  0.1239749E+000  0.3332500E+03  0.7546771E-02  0.1069708E+00
         21   -1    0    0  501  502  0.00000000000E+00  0.00000000000E+00  0.29262153339E+03  0.29262153339E+03  0.00000000000E+00 0.  1.
          1   -1    0    0  503    0 -0.00000000000E+00 -0.00000000000E+00 -0.13589273921E+04  0.13589273921E+04  0.00000000000E+00 0. -1.
         25    1    1    2    0    0 -0.30436581399E+03 -0.70551207473E+02  0.15701942446E+03  0.37134367001E+03  0.12500000000E+03 0.  0.
         21    1    1    2  503  502  0.27836990519E+03  0.61898557410E+02 -0.69581408020E+03  0.75198302489E+03  0.00000000000E+00 0.  1.
          1    1    1    2  501    0  0.25995908803E+02  0.86526500629E+01 -0.52751120298E+03  0.52822223059E+03  0.00000000000E+00 0. -1.
<mgrwt>
<rscale>  4 0.33324999E+03</rscale>
<asrwt>0</asrwt>
<pdfrwt beam="1">  1       21 0.45018698E-01 0.33324999E+03</pdfrwt>
<pdfrwt beam="2">  1        1 0.20906575E+00 0.33324999E+03</pdfrwt>
<totfact> 0.44244776E+02</totfact>
</mgrwt>
</event>
<event>
 5    0  0.1239749E+000  0.2687505E+03  0.7546771E-02  0.1101997E+00
         21   -1    0    0  503  502  0.00000000000E+00  0.00000000000E+00  0.12713245531E+04  0.12713245531E+04  0.00000000000E+00 0. -1.
         -3   -1    0    0    0  501 -0.00000000000E+00 -0.00000000000E+00 -0.20865739187E+03  0.20865739187E+03  0.00000000000E+00 0.  1.
         25    1    1    2    0    0 -0.24256851197E+03 -0.12834564733E+01  0.11218165290E+04  0.11545295384E+04  0.12500000000E+03 0.  0.
         21    1    1    2  503  501  0.20454354520E+03 -0.80721867531E+02 -0.47370822798E+01  0.21994663382E+03  0.00000000000E+00 0.  1.
         -3    1    1    2    0  502  0.38024966767E+02  0.82005324005E+02 -0.54412285528E+02  0.10550577273E+03  0.00000000000E+00 0.  1.
<mgrwt>
<rscale>  4 0.26875054E+03</rscale>
<asrwt>0</asrwt>
<pdfrwt beam="1">  1       21 0.19558839E+00 0.26875054E+03</pdfrwt>
<pdfrwt beam="2">  1       -3 0.32101138E-01 0.26875054E+03</pdfrwt>
<totfact> 0.64240139E+01</totfact>
</mgrwt>
</event>
<event>
 5    0  0.1239749E+000  0.2388375E+03  0.7546771E-02  0.1120570E+00
          2   -1    0    0  503    0 -0.00000000000E+00  0.00000000000E+00  0.26217277634E+04  0.26217277634E+04  0.00000000000E+00 0. -1.
         21   -1    0    0  501  502  0.00000000000E+00 -0.00000000000E+00 -0.13322585310E+03  0.13322585310E+03  0.00000000000E+00 0.  1.
         25    1    1    2    0    0  0.21368800607E+03  0.93696363091E+01  0.38520568522E+02  0.25071734727E+03  0.12500000000E+03 0.  0.
         21    1    1    2  503  502 -0.17981044410E+03 -0.30441798445E+02  0.28164559839E+03  0.33553351844E+03  0.00000000000E+00 0.  1.
          2    1    1    2  501    0 -0.33877561970E+02  0.21072162136E+02  0.21683357434E+04  0.21687027508E+04  0.00000000000E+00 0. -1.
<mgrwt>
<rscale>  4 0.23883751E+03</rscale>
<asrwt>0</asrwt>
<pdfrwt beam="1">  1       21 0.20496287E-01 0.23883751E+03</pdfrwt>
<pdfrwt beam="2">  1        2 0.40334269E+00 0.23883751E+03</pdfrwt>
<totfact> 0.96073191E+02</totfact>
</mgrwt>
</event>
<event>
 5    0  0.1239749E+000  0.2139647E+03  0.7546771E-02  0.1138464E+00
         21   -1    0    0  501  502  0.00000000000E+00  0.00000000000E+00  0.42017240835E+03  0.42017240835E+03  0.00000000000E+00 0.  1.
          2   -1    0    0  503    0 -0.00000000000E+00 -0.00000000000E+00 -0.19988035138E+04  0.19988035138E+04  0.00000000000E+00 0. -1.
         25    1    1    2    0    0  0.13161093595E+03  0.15423179818E+03 -0.16069917937E+03  0.28732927502E+03  0.12500000000E+03 0.  0.
         21    1    1    2  503  502 -0.12472140534E+03 -0.11711872522E+03  0.33613568105E+03  0.37717293225E+03  0.00000000000E+00 0.  1.
          2    1    1    2  501    0 -0.68895306130E+01 -0.37113072964E+02 -0.17540676071E+04  0.17544737149E+04  0.00000000000E+00 0. -1.
<mgrwt>
<rscale>  4 0.21396473E+03</rscale>
<asrwt>0</asrwt>
<pdfrwt beam="1">  1       21 0.64641910E-01 0.21396473E+03</pdfrwt>
<pdfrwt beam="2">  1        2 0.30750823E+00 0.21396473E+03</pdfrwt>
<totfact> 0.20892599E+02</totfact>
</mgrwt>
</event>
<event>
 5    0  0.1239749E+000  0.3913246E+03  0.7546771E-02  0.1046826E+00
         21   -1    0    0  501  502  0.00000000000E+00  0.00000000000E+00  0.34677059996E+03  0.34677059996E+03  0.00000000000E+00 0. -1.
          1   -1    0    0  503    0 -0.00000000000E+00 -0.00000000000E+00 -0.10451099930E+04  0.10451099930E+04  0.00000000000E+00 0. -1.
         25    1    1    2    0    0  0.36899183429E+03  0.54425312930E+01  0.15461211428E+03  0.41918313516E+03  0.12500000000E+03 0.  0.
         21    1    1    2  503  502 -0.37848993747E+03 -0.31027932049E+02 -0.54913458244E+03  0.66765721367E+03  0.00000000000E+00 0. -1.
          1    1    1    2  501    0  0.94981031773E+01  0.25585400756E+02 -0.30381692490E+03  0.30504024415E+03  0.00000000000E+00 0. -1.
<mgrwt>
<rscale>  4 0.39132465E+03</rscale>
<asrwt>0</asrwt>
<pdfrwt beam="1">  1       21 0.53349324E-01 0.39132465E+03</pdfrwt>
<pdfrwt beam="2">  1        1 0.16078615E+00 0.39132465E+03</pdfrwt>
<totfact> 0.50559822E+02</totfact>
</mgrwt>
</event>
<event>
 5    0  0.1239749E+000  0.3383831E+03  0.7546771E-02  0.1067487E+00
         21   -1    0    0  501  502  0.00000000000E+00  0.00000000000E+00  0.45612618033E+03  0.45612618033E+03  0.00000000000E+00 0.  1.
          2   -1    0    0  503    0 -0.00000000000E+00 -0.00000000000E+00 -0.62523092793E+03  0.62523092793E+03  0.00000000000E+00 0.  1.
         25    1    1    2    0    0 -0.12593827912E+03  0.37762582827E+03  0.16786312674E+03  0.44973853031E+03  0.12500000000E+03 0.  0.
         21    1    1    2  503  502 -0.77033409455E+01 -0.16918560873E+03 -0.34452301463E+03  0.38390001207E+03  0.00000000000E+00 0.  1.
          2    1    1    2  501    0  0.13364162007E+03 -0.20844021954E+03  0.75551402950E+01  0.24771856588E+03  0.00000000000E+00 0.  1.
<mgrwt>
<rscale>  4 0.33838314E+03</rscale>
<asrwt>0</asrwt>
<pdfrwt beam="1">  1       21 0.70173259E-01 0.33838314E+03</pdfrwt>
<pdfrwt beam="2">  1        2 0.96189373E-01 0.33838314E+03</pdfrwt>
<totfact> 0.10489471E+03</totfact>
</mgrwt>
</event>
<event>
 5    0  0.1239749E+000  0.2813204E+03  0.7546771E-02  0.1094970E+00
          2   -1    0    0  503    0 -0.00000000000E+00  0.00000000000E+00  0.47787427529E+03  0.47787427529E+03  0.00000000000E+00 0. -1.
         21   -1    0    0  501  502  0.00000000000E+00 -0.00000000000E+00 -0.31530066825E+03  0.31530066825E+03  0.00000000000E+00 0.  1.
         25    1    1    2    0    0 -0.11881934144E+03  0.21720146922E+03 -0.50479996676E+02  0.28190023802E+03  0.12500000000E+03 0.  0.
         21    1    1    2  503  502  0.14038693883E+03 -0.21486076436E+03 -0.37850395165E+02  0.25943456414E+03  0.00000000000E+00 0.  1.
          2    1    1    2  501    0 -0.21567597384E+02 -0.23407048561E+01  0.25090399888E+03  0.25184014138E+03  0.00000000000E+00 0. -1.
<mgrwt>
<rscale>  4 0.28132043E+03</rscale>
<asrwt>0</asrwt>
<pdfrwt beam="1">  1       21 0.48507795E-01 0.28132043E+03</pdfrwt>
<pdfrwt beam="2">  1        2 0.73519120E-01 0.28132043E+03</pdfrwt>
<totfact> 0.32310090E+03</totfact>
</mgrwt>
</event>
<event>
 5    0  0.1239749E+000  0.2538452E+03  0.7546771E-02  0.1110899E+00
          1   -1    0    0  503    0 -0.00000000000E+00  0.00000000000E+00  0.20783661612E+04  0.20783661612E+04  0.00000000000E+00 0.  1.
         21   -1    0    0  501  502  0.00000000000E+00 -0.00000000000E+00 -0.46732354371E+03  0.46732354371E+03  0.00000000000E+00 0.  1.
         25    1    1    2    0    0 -0.39705015497E+02  0.22075216080E+03 -0.31378703914E+03  0.40545691594E+03  0.12500000000E+03 0.  0.
         21    1    1    2  503  502  0.77807474700E+02 -0.20127190498E+03  0.86226246135E+00  0.21578954180E+03  0.00000000000E+00 0.  1.
          1    1    1    2  501    0 -0.38102459204E+02 -0.19480255817E+02  0.19239673942E+04  0.19244432472E+04  0.00000000000E+00 0.  1.
<mgrwt>
<rscale>  4 0.25384516E+03</rscale>
<asrwt>0</asrwt>
<pdfrwt beam="1">  1       21 0.71895931E-01 0.25384516E+03</pdfrwt>
<pdfrwt beam="2">  1        1 0.31974864E+00 0.25384516E+03</pdfrwt>
<totfact> 0.56849132E+01</totfact>
</mgrwt>
</event>
<event>
 5    0  0.1239749E+000  0.2586810E+03  0.7546771E-02  0.1107938E+00
         -1   -1    0    0    0  501 -0.00000000000E+00  0.00000000000E+00  0.77823638093E+03  0.77823638093E+03  0.00000000000E+00 0.  1.
         21   -1    0    0  503  502  0.00000000000E+00 -0.00000000000E+00 -0.60337797976E+03  0.60337797976E+03  0.00000000000E+00 0.  1.
         25    1    1    2    0    0  0.24786836618E+03  0.65209352245E+02 -0.23208939956E+03  0.36767033598E+03  0.12500000000E+03 0.  0.
         21    1    1    2  503  501 -0.18997550070E+03 -0.93714451649E+02 -0.26479942423E+03  0.33910444466E+03  0.00000000000E+00 0.  1.
         -1    1    1    2    0  502 -0.57892865476E+02  0.28505099404E+02  0.67174722496E+03  0.67483958005E+03  0.00000000000E+00 0.  1.
<mgrwt>
<rscale>  4 0.25868100E+03</rscale>
<asrwt>0</asrwt>
<pdfrwt beam="1">  1       21 0.92827381E-01 0.25868100E+03</pdfrwt>
<pdfrwt beam="2">  1       -1 0.11972867E+00 0.25868100E+03</pdfrwt>
<totfact> 0.58593598E+01</totfact>
</mgrwt>
</event>
<event>
 5    0  0.1239749E+000  0.2343392E+03  0.7546771E-02  0.1123622E+00
          1   -1    0    0  503    0 -0.00000000000E+00  0.00000000000E+00  0.18607439176E+03  0.18607439176E+03  0.00000000000E+00 0. -1.
         21   -1    0    0  501  502  0.00000000000E+00 -0.00000000000E+00 -0.65973728236E+03  0.65973728236E+03  0.00000000000E+00 0.  1.
         25    1    1    2    0    0 -0.25646068383E+03  0.67537487543E+02 -0.45119744660E+03  0.53808691713E+03  0.12500000000E+03 0.  0.
         21    1    1    2  503  502  0.13891773367E+03  0.53923420625E+01 -0.77130697927E+02  0.15898540387E+03  0.00000000000E+00 0.  1.
          1    1    1    2  501    0  0.11754295016E+03 -0.72929829606E+02  0.54665253931E+02  0.14873935312E+03  0.00000000000E+00 0. -1.
<mgrwt>
<rscale>  4 0.23433920E+03</rscale>
<asrwt>0</asrwt>
<pdfrwt beam="1">  1       21 0.10149804E+00 0.23433920E+03</pdfrwt>
<pdfrwt beam="2">  1        1 0.28626830E-01 0.23433920E+03</pdfrwt>
<totfact> 0.13551817E+03</totfact>
</mgrwt>
</event>
<event>
 5    0  0.1239749E+000  0.2307061E+03  0.7546771E-02  0.1126144E+00
         21   -1    0    0  501  502  0.00000000000E+00  0.00000000000E+00  0.21008244843E+04  0.21008244843E+04  0.00000000000E+00 0.  1.
          4   -1    0    0  503    0 -0.00000000000E+00 -0.00000000000E+00 -0.51952523520E+02  0.51952523520E+02  0.00000000000E+00 0.  1.
         25    1    1    2    0    0  0.66435850515E+02  0.19206619844E+03  0.16914195555E+04  0.17081651734E+04  0.12500000000E+03 0.  0.
         21    1    1    2  503  502 -0.23514594336E+02 -0.17245956403E+03  0.35728233876E+03  0.39742408956E+03  0.00000000000E+00 0.  1.
          4    1    1    2  501    0 -0.42921256179E+02 -0.19606634413E+02  0.17006652595E+00  0.47187744888E+02  0.00000000000E+00 0.  1.
<mgrwt>
<rscale>  4 0.23070610E+03</rscale>
<asrwt>0</asrwt>
<pdfrwt beam="1">  1       21 0.32320370E+00 0.23070610E+03</pdfrwt>
<pdfrwt beam="2">  1        4 0.79926975E-02 0.23070610E+03</pdfrwt>
<totfact> 0.11361693E+02</totfact>
</mgrwt>
</event>
<event>
 5    0  0.1239749E+000  0.2039264E+03  0.7546771E-02  0.1146468E+00
          2   -1    0    0  503    0 -0.00000000000E+00  0.00000000000E+00  0.11317055046E+04  0.11317055046E+04  0.00000000000E+00 0. -1.
         21   -1    0    0  501  502  0.00000000000E+00 -0.00000000000E+00 -0.17362615506E+03  0.17362615506E+03  0.00000000000E+00 0. -1.
         25    1    1    2    0    0 -0.72443799601E+02 -0.21904856187E+03  0.90019953886E+02  0.27741479531E+03  0.12500000000E+03 0.  0.
         21    1    1    2  503  502  0.17596265852E+01  0.13947749105E+03 -0.13330500530E+02  0.14012412012E+03  0.00000000000E+00 0. -1.
          2    1    1    2  501    0  0.70684173016E+02  0.79571070819E+02  0.88138989616E+03  0.88779274421E+03  0.00000000000E+00 0. -1.
<mgrwt>
<rscale>  4 0.20392644E+03</rscale>
<asrwt>0</asrwt>
<pdfrwt beam="1">  1       21 0.26711717E-01 0.20392644E+03</pdfrwt>
<pdfrwt beam="2">  1        2 0.17410853E+00 0.20392644E+03</pdfrwt>
<totfact> 0.37068103E+03</totfact>
</mgrwt>
</event>
<event>
 5    0  0.1239749E+000  0.2279858E+03  0.7546771E-02  0.1128066E+00
         -2   -1    0    0    0  501 -0.00000000000E+00  0.00000000000E+00  0.92405415912E+03  0.92405415912E+03  0.00000000000E+00 0. -1.
         21   -1    0    0  503  502  0.00000000000E+00 -0.00000000000E+00 -0.27449882536E+03  0.27449882536E+03  0.00000000000E+00 0. -1.
         25    1    1    2    0    0 -0.10100069550E+03  0.24741449849E+03  0.41936929441E+02  0.29799124250E+03  0.12500000000E+03 0.  0.
         21    1    1    2  503  501 -0.25356806439E+02 -0.17231249760E+03 -0.84091444379E+02  0.19340614126E+03  0.00000000000E+00 0. -1.
         -2    1    1    2    0  502  0.12635750194E+03 -0.75102000895E+02  0.69170984870E+03  0.70715560071E+03  0.00000000000E+00 0. -1.
<mgrwt>
<rscale>  4 0.22798576E+03</rscale>
<asrwt>0</asrwt>
<pdfrwt beam="1">  1       21 0.42230589E-01 0.22798576E+03</pdfrwt>
<pdfrwt beam="2">  1       -2 0.14216218E+00 0.22798576E+03</pdfrwt>
<totfact> 0.15953905E+02</totfact>
</mgrwt>
</event>
<event>
 5    0  0.1239749E+000  0.2607296E+03  0.7546771E-02  0.1106706E+00
         21   -1    0    0  503  502  0.00000000000E+00  0.00000000000E+00  0.91918307934E+03  0.91918307934E+03  0.00000000000E+00 0.  1.
         -1   -1    0    0    0  501 -0.00000000000E+00 -0.00000000000E+00 -0.46964806852E+03  0.46964806852E+03  0.00000000000E+00 0.  1.
         25    1    1    2    0    0 -0.22220445266E+03 -0.72935350753E+02  0.58878162637E+03  0.64574235397E+03  0.12500000000E+03 0.  0.
         21    1    1    2  503  501  0.21632401160E+03  0.50242660034E+02  0.26069257362E+03  0.34246316710E+03  0.00000000000E+00 0.  1.
         -1    1    1    2    0  502  0.58804410561E+01  0.22692690718E+02 -0.39993918917E+03  0.40062562678E+03  0.00000000000E+00 0.  1.
<mgrwt>
<rscale>  4 0.26072961E+03</rscale>
<asrwt>0</asrwt>
<pdfrwt beam="1">  1       21 0.14141278E+00 0.26072961E+03</pdfrwt>
<pdfrwt beam="2">  1       -1 0.72253549E-01 0.26072961E+03</pdfrwt>
<totfact> 0.62285527E+01</totfact>
</mgrwt>
</event>
<event>
 5    0  0.1239749E+000  0.2634415E+03  0.7546771E-02  0.1105093E+00
         21   -1    0    0  501  502  0.00000000000E+00  0.00000000000E+00  0.46950804318E+02  0.46950804318E+02  0.00000000000E+00 0.  1.
          1   -1    0    0  503    0 -0.00000000000E+00 -0.00000000000E+00 -0.20524476873E+04  0.20524476873E+04  0.00000000000E+00 0.  1.
         25    1    1    2    0    0 -0.23005930196E+03  0.50323240000E+02 -0.52852257460E+03  0.59196353162E+03  0.12500000000E+03 0.  0.
         21    1    1    2  503  502  0.20643534048E+03 -0.10132382184E+03 -0.94843455438E+03  0.97591504273E+03  0.00000000000E+00 0.  1.
          1    1    1    2  501    0  0.23623961482E+02  0.51000581839E+02 -0.52853975398E+03  0.53151991725E+03  0.00000000000E+00 0.  1.
<mgrwt>
<rscale>  4 0.26344147E+03</rscale>
<asrwt>0</asrwt>
<pdfrwt beam="1">  1       21 0.72231996E-02 0.26344147E+03</pdfrwt>
<pdfrwt beam="2">  1        1 0.31576123E+00 0.26344147E+03</pdfrwt>
<totfact> 0.49728274E+03</totfact>
</mgrwt>
</event>
<event>
 5    0  0.1239749E+000  0.4144745E+03  0.7546771E-02  0.1055142E+00
         21   -1    0    0  501  502  0.00000000000E+00  0.00000000000E+00  0.65663485707E+03  0.65663485707E+03  0.00000000000E+00 0. -1.
          2   -1    0    0  503    0 -0.00000000000E+00 -0.00000000000E+00 -0.81014818086E+03  0.81014818086E+03  0.00000000000E+00 0.  1.
         25    1    1    2    0    0 -0.61269575890E+02 -0.21947232466E+03  0.11147338993E+03  0.28279564863E+03  0.12500000000E+03 0.  0.
         21    1    1    2  503  502 -0.36195087812E+03  0.15502189527E+03  0.28569402785E+03  0.48647847201E+03  0.00000000000E+00 0. -1.
          2    1    1    2  501    0  0.42322045401E+03  0.64450429395E+02 -0.55068074157E+03  0.69750891728E+03  0.00000000000E+00 0.  1.
<mgrwt>
<rscale>  4 0.36882821E+03</rscale>
<asrwt>0</asrwt>
<pdfrwt beam="1">  1       21 0.10102075E+00 0.41447445E+03</pdfrwt>
<pdfrwt beam="2">  1        2 0.12463818E+00 0.41447445E+03</pdfrwt>
<totfact> 0.31765424E+02</totfact>
</mgrwt>
</event>
<event>
 5    0  0.1239749E+000  0.3267989E+03  0.7546771E-02  0.1072562E+00
         21   -1    0    0  503  502  0.00000000000E+00  0.00000000000E+00  0.27152430436E+03  0.27152430436E+03  0.00000000000E+00 0.  1.
         -2   -1    0    0    0  501 -0.00000000000E+00 -0.00000000000E+00 -0.57386951928E+03  0.57386951928E+03  0.00000000000E+00 0.  1.
         25    1    1    2    0    0 -0.18509447902E+03 -0.23838800557E+03  0.68825094997E+01  0.32674328807E+03  0.12500000000E+03 0.  0.
         21    1    1    2  503  501  0.17716396807E+02 -0.13220630995E+02  0.46742506414E+02  0.51706070297E+02  0.00000000000E+00 0. -1.
         -2    1    1    2    0  502  0.16737808222E+03  0.25160863656E+03 -0.35597023083E+03  0.46694446526E+03  0.00000000000E+00 0.  1.
<mgrwt>
<rscale>  4 0.32679889E+03</rscale>
<asrwt>0</asrwt>
<pdfrwt beam="1">  1       21 0.41772970E-01 0.32679889E+03</pdfrwt>
<pdfrwt beam="2">  1       -2 0.88287618E-01 0.32679889E+03</pdfrwt>
<totfact> 0.49469410E+02</totfact>
</mgrwt>
</event>
<event>
 5    0  0.1239749E+000  0.1956571E+03  0.7546771E-02  0.1153456E+00
         21   -1    0    0  501  502  0.00000000000E+00  0.00000000000E+00  0.12797863927E+03  0.12797863927E+03  0.00000000000E+00 0. -1.
          2   -1    0    0  503    0 -0.00000000000E+00 -0.00000000000E+00 -0.13651402292E+04  0.13651402292E+04  0.00000000000E+00 0. -1.
         25    1    1    2    0    0  0.93860430661E+02 -0.18227595652E+03 -0.14509686603E+03  0.28055731197E+03  0.12500000000E+03 0.  0.
         21    1    1    2  503  502 -0.89668699396E+02  0.98061937255E+02 -0.16731277666E+02  0.13392742379E+03  0.00000000000E+00 0. -1.
          2    1    1    2  501    0 -0.41917312652E+01  0.84214019262E+02 -0.10753334463E+04  0.10786341327E+04  0.00000000000E+00 0. -1.
<mgrwt>
<rscale>  4 0.19565706E+03</rscale>
<asrwt>0</asrwt>
<pdfrwt beam="1">  1       21 0.19689022E-01 0.19565706E+03</pdfrwt>
<pdfrwt beam="2">  1        2 0.21002157E+00 0.19565706E+03</pdfrwt>
<totfact> 0.49174237E+03</totfact>
</mgrwt>
</event>
<event>
 5    0  0.1239749E+000  0.2696999E+03  0.7546771E-02  0.1101451E+00
         -1   -1    0    0    0  501 -0.00000000000E+00  0.00000000000E+00  0.39504678643E+03  0.39504678643E+03  0.00000000000E+00 0. -1.
         21   -1    0    0  503  502  0.00000000000E+00 -0.00000000000E+00 -0.94022853925E+03  0.94022853925E+03  0.00000000000E+00 0. -1.
         25    1    1    2    0    0 -0.53143956031E+02 -0.24104324878E+03 -0.77729355698E+03  0.82506751334E+03  0.12500000000E+03 0.  0.
         21    1    1    2  503  501  0.57131316162E+02  0.20454445567E+03 -0.56107029740E+02  0.21965978334E+03  0.00000000000E+00 0. -1.
         -1    1    1    2    0  502 -0.39873601307E+01  0.36498793113E+02  0.28821883390E+03  0.29054802900E+03  0.00000000000E+00 0. -1.
<mgrwt>
<rscale>  4 0.26969994E+03</rscale>
<asrwt>0</asrwt>
<pdfrwt beam="1">  1       21 0.14465054E+00 0.26969994E+03</pdfrwt>
<pdfrwt beam="2">  1       -1 0.60776430E-01 0.26969994E+03</pdfrwt>
<totfact> 0.82174272E+01</totfact>
</mgrwt>
</event>
<event>
 5    0  0.1239749E+000  0.2154180E+03  0.7546771E-02  0.1137346E+00
         21   -1    0    0  501  502  0.00000000000E+00  0.00000000000E+00  0.74946555946E+03  0.74946555946E+03  0.00000000000E+00 0.  1.
          4   -1    0    0  503    0 -0.00000000000E+00 -0.00000000000E+00 -0.25184602369E+03  0.25184602369E+03  0.00000000000E+00 0.  1.
         25    1    1    2    0    0  0.16372464052E+03 -0.15961683298E+03  0.52510163786E+03  0.58620817238E+03  0.12500000000E+03 0.  0.
         21    1    1    2  503  502 -0.45073591939E+02  0.12958968683E+03  0.14757561265E+03  0.20150354109E+03  0.00000000000E+00 0. -1.
          4    1    1    2  501    0 -0.11865104858E+03  0.30027146149E+02 -0.17505771475E+03  0.21359986968E+03  0.00000000000E+00 0.  1.
<mgrwt>
<rscale>  4 0.21541797E+03</rscale>
<asrwt>0</asrwt>
<pdfrwt beam="1">  1       21 0.11530239E+00 0.21541797E+03</pdfrwt>
<pdfrwt beam="2">  1        4 0.38745543E-01 0.21541797E+03</pdfrwt>
<totfact> 0.15774010E+02</totfact>
</mgrwt>
</event>
<event>
 5    0  0.1239749E+000  0.2722107E+03  0.7546771E-02  0.1100021E+00
         21   -1    0    0  501  502  0.00000000000E+00  0.00000000000E+00  0.12193169409E+03  0.12193169409E+03  0.00000000000E+00 0.  1.
          1   -1    0    0  503    0 -0.00000000000E+00 -0.00000000000E+00 -0.12475802810E+04  0.12475802810E+04  0.00000000000E+00 0.  1.
         25    1    1    2    0    0  0.20978543940E+02  0.23891410659E+03 -0.80846073608E+02  0.28227847466E+03  0.12500000000E+03 0.  0.
         21    1    1    2  503  502  0.20435806963E+02 -0.25316158589E+03 -0.82913441742E+03  0.86716336000E+03  0.00000000000E+00 0.  1.
          1    1    1    2  501    0 -0.41414350903E+02  0.14247479297E+02 -0.21566809591E+03  0.22007014046E+03  0.00000000000E+00 0.  1.
<mgrwt>
<rscale>  4 0.27221073E+03</rscale>
<asrwt>0</asrwt>
<pdfrwt beam="1">  1       21 0.18758722E-01 0.27221073E+03</pdfrwt>
<pdfrwt beam="2">  1        1 0.19193543E+00 0.27221073E+03</pdfrwt>
<totfact> 0.30207838E+03</totfact>
</mgrwt>
</event>
<event>
 5    0  0.1239749E+000  0.2470520E+03  0.7546771E-02  0.1115182E+00
          2   -1    0    0  503    0 -0.00000000000E+00  0.00000000000E+00  0.11948123521E+04  0.11948123521E+04  0.00000000000E+00 0. -1.
         21   -1    0    0  501  502  0.00000000000E+00 -0.00000000000E+00 -0.10084197739E+03  0.10084197739E+03  0.00000000000E+00 0. -1.
         25    1    1    2    0    0 -0.21013787970E+03  0.85705047960E+02  0.22328938586E+03  0.34203279605E+03  0.12500000000E+03 0.  0.
         21    1    1    2  503  502  0.18914426692E+03 -0.68440039274E+02  0.20435462429E+03  0.28674100711E+03  0.00000000000E+00 0. -1.
          2    1    1    2  501    0  0.20993612779E+02 -0.17265008686E+02  0.66632636454E+03  0.66688052631E+03  0.00000000000E+00 0. -1.
<mgrwt>
<rscale>  4 0.24705195E+03</rscale>
<asrwt>0</asrwt>
<pdfrwt beam="1">  1       21 0.15514151E-01 0.24705195E+03</pdfrwt>
<pdfrwt beam="2">  1        2 0.18381727E+00 0.24705195E+03</pdfrwt>
<totfact> 0.93230281E+03</totfact>
</mgrwt>
</event>
<event>
 5    0  0.1239749E+000  0.2354516E+03  0.7546771E-02  0.1122860E+00
          2   -1    0    0  503    0 -0.00000000000E+00  0.00000000000E+00  0.10830007875E+04  0.10830007875E+04  0.00000000000E+00 0. -1.
         21   -1    0    0  501  502  0.00000000000E+00 -0.00000000000E+00 -0.60344142521E+03  0.60344142521E+03  0.00000000000E+00 0.  1.
         25    1    1    2    0    0  0.31732295534E+02  0.19850020055E+03 -0.38318125832E+03  0.45040220351E+03  0.12500000000E+03 0.  0.
         21    1    1    2  503  502 -0.57531547615E+02 -0.18978706877E+03 -0.13373357467E+03  0.23919381145E+03  0.00000000000E+00 0.  1.
          2    1    1    2  501    0  0.25799252081E+02 -0.87131317830E+01  0.99647419525E+03  0.99684619771E+03  0.00000000000E+00 0. -1.
<mgrwt>
<rscale>  4 0.23545161E+03</rscale>
<asrwt>0</asrwt>
<pdfrwt beam="1">  1       21 0.92837142E-01 0.23545161E+03</pdfrwt>
<pdfrwt beam="2">  1        2 0.16661551E+00 0.23545161E+03</pdfrwt>
<totfact> 0.28245739E+02</totfact>
</mgrwt>
</event>
<event>
 5    0  0.1239749E+000  0.2903195E+03  0.7546771E-02  0.1090182E+00
         -2   -1    0    0    0  501 -0.00000000000E+00  0.00000000000E+00  0.42579559459E+03  0.42579559459E+03  0.00000000000E+00 0. -1.
         21   -1    0    0  503  502  0.00000000000E+00 -0.00000000000E+00 -0.35027021304E+03  0.35027021304E+03  0.00000000000E+00 0.  1.
         25    1    1    2    0    0  0.28743943674E+03 -0.51621995940E+02 -0.11978068875E+03  0.33949767843E+03  0.12500000000E+03 0.  0.
         21    1    1    2  503  501 -0.17081007156E+03  0.15609985995E+03  0.14029828461E+03  0.27060461099E+03  0.00000000000E+00 0. -1.
         -2    1    1    2    0  502 -0.11662936518E+03 -0.10447786401E+03  0.55007785691E+02  0.16596351821E+03  0.00000000000E+00 0. -1.
<mgrwt>
<rscale>  4 0.29031950E+03</rscale>
<asrwt>0</asrwt>
<pdfrwt beam="1">  1       21 0.53887725E-01 0.29031950E+03</pdfrwt>
<pdfrwt beam="2">  1       -2 0.65507014E-01 0.29031950E+03</pdfrwt>
<totfact> 0.56412867E+02</totfact>
</mgrwt>
</event>
<event>
 5    0  0.1239749E+000  0.3025277E+03  0.7546771E-02  0.1083984E+00
         21   -1    0    0  501  502  0.00000000000E+00  0.00000000000E+00  0.17511316890E+04  0.17511316890E+04  0.00000000000E+00 0. -1.
          2   -1    0    0  503    0 -0.00000000000E+00 -0.00000000000E+00 -0.15920375247E+03  0.15920375247E+03  0.00000000000E+00 0. -1.
         25    1    1    2    0    0  0.24967232699E+03 -0.10359537027E+02  0.13967288489E+04  0.14244016527E+04  0.12500000000E+03 0.  0.
         21    1    1    2  503  502  0.27567274654E+02  0.32314524587E+02  0.20331826855E+03  0.20770773085E+03  0.00000000000E+00 0. -1.
          2    1    1    2  501    0 -0.27723960164E+03 -0.21954987560E+02 -0.81191809336E+01  0.27822605790E+03  0.00000000000E+00 0. -1.
<mgrwt>
<rscale>  4 0.30252767E+03</rscale>
<asrwt>0</asrwt>
<pdfrwt beam="1">  1       21 0.26940486E+00 0.30252767E+03</pdfrwt>
<pdfrwt beam="2">  1        2 0.24492886E-01 0.30252767E+03</pdfrwt>
<totfact> 0.12639616E+02</totfact>
</mgrwt>
</event>
<event>
 5    0  0.1239749E+000  0.3561676E+03  0.7546771E-02  0.1060112E+00
          4   -1    0    0  503    0 -0.00000000000E+00  0.00000000000E+00  0.86191862588E+03  0.86191862588E+03  0.00000000000E+00 0. -1.
         21   -1    0    0  501  502  0.00000000000E+00 -0.00000000000E+00 -0.37198534239E+03  0.37198534239E+03  0.00000000000E+00 0.  1.
         25    1    1    2    0    0  0.11225268293E+03  0.28920201686E+03  0.89475750970E+02  0.34622157846E+03  0.12500000000E+03 0.  0.
         21    1    1    2  503  502 -0.13442681647E+03 -0.31967381572E+03 -0.11916814654E+03  0.36669192054E+03  0.00000000000E+00 0.  1.
          4    1    1    2  501    0  0.22174133540E+02  0.30471798855E+02  0.51962567906E+03  0.52099046926E+03  0.00000000000E+00 0. -1.
<mgrwt>
<rscale>  4 0.35616759E+03</rscale>
<asrwt>0</asrwt>
<pdfrwt beam="1">  1       21 0.57228515E-01 0.35616759E+03</pdfrwt>
<pdfrwt beam="2">  1        4 0.13260286E+00 0.35616759E+03</pdfrwt>
<totfact> 0.50112206E+01</totfact>
</mgrwt>
</event>
<event>
 5    0  0.1239749E+000  0.3906815E+03  0.7546771E-02  0.1047055E+00
          2   -1    0    0  503    0 -0.00000000000E+00  0.00000000000E+00  0.26922812735E+04  0.26922812735E+04  0.00000000000E+00 0.  1.
         21   -1    0    0  501  502  0.00000000000E+00 -0.00000000000E+00 -0.14663290135E+03  0.14663290135E+03  0.00000000000E+00 0.  1.
         25    1    1    2    0    0 -0.90238468741E+02 -0.38024852097E+03  0.22553060499E+03  0.46821039365E+03  0.12500000000E+03 0.  0.
         21    1    1    2  503  502  0.88485921204E+02  0.29781978712E+03  0.98037955810E+03  0.10284310681E+04  0.00000000000E+00 0.  1.
          2    1    1    2  501    0  0.17525475366E+01  0.82428733844E+02  0.13397382091E+04  0.13422727131E+04  0.00000000000E+00 0.  1.
<mgrwt>
<rscale>  4 0.39068150E+03</rscale>
<asrwt>0</asrwt>
<pdfrwt beam="1">  1       21 0.22558910E-01 0.39068150E+03</pdfrwt>
<pdfrwt beam="2">  1        2 0.41419708E+00 0.39068150E+03</pdfrwt>
<totfact> 0.67813519E+02</totfact>
</mgrwt>
</event>
<event>
 5    0  0.1239749E+000  0.3224447E+03  0.7546771E-02  0.1074530E+00
         -3   -1    0    0    0  501 -0.00000000000E+00  0.00000000000E+00  0.10230644962E+04  0.10230644962E+04  0.00000000000E+00 0.  1.
         21   -1    0    0  503  502  0.00000000000E+00 -0.00000000000E+00 -0.22084671511E+04  0.22084671511E+04  0.00000000000E+00 0.  1.
         25    1    1    2    0    0 -0.10767984049E+03  0.27633009177E+03 -0.20012833990E+04  0.20269961792E+04  0.12500000000E+03 0.  0.
         21    1    1    2  503  501  0.73343363522E+02 -0.29679606717E+03 -0.73355441413E+02  0.31440129650E+03  0.00000000000E+00 0.  1.
         -3    1    1    2    0  502  0.34336476971E+02  0.20465975393E+02  0.88923618544E+03  0.89013417151E+03  0.00000000000E+00 0.  1.
<mgrwt>
<rscale>  4 0.32244469E+03</rscale>
<asrwt>0</asrwt>
<pdfrwt beam="1">  1       21 0.33976417E+00 0.32244469E+03</pdfrwt>
<pdfrwt beam="2">  1       -3 0.15739454E+00 0.32244469E+03</pdfrwt>
<totfact> 0.25860053E-01</totfact>
</mgrwt>
</event>
<event>
 5    0  0.1239749E+000  0.2193783E+03  0.7546771E-02  0.1134347E+00
         21   -1    0    0  501  502  0.00000000000E+00  0.00000000000E+00  0.10040849602E+04  0.10040849602E+04  0.00000000000E+00 0. -1.
          2   -1    0    0  503    0 -0.00000000000E+00 -0.00000000000E+00 -0.14193903214E+04  0.14193903214E+04  0.00000000000E+00 0. -1.
         25    1    1    2    0    0 -0.19990973917E+03  0.57712244005E+02  0.81580482253E+03  0.85115046578E+03  0.12500000000E+03 0.  0.
         21    1    1    2  503  502  0.14091980365E+03  0.36989343655E+02  0.13681192119E+03  0.19986021211E+03  0.00000000000E+00 0. -1.
          2    1    1    2  501    0  0.58989935519E+02 -0.94701587660E+02 -0.13679221049E+04  0.13724646037E+04  0.00000000000E+00 0. -1.
<mgrwt>
<rscale>  4 0.21937832E+03</rscale>
<asrwt>0</asrwt>
<pdfrwt beam="1">  1       21 0.15447461E+00 0.21937832E+03</pdfrwt>
<pdfrwt beam="2">  1        2 0.21836774E+00 0.21937832E+03</pdfrwt>
<totfact> 0.52106771E+01</totfact>
</mgrwt>
</event>
<event>
 5    0  0.1239749E+000  0.2730039E+03  0.7546771E-02  0.1099573E+00
         21   -1    0    0  503  502  0.00000000000E+00  0.00000000000E+00  0.31098313974E+03  0.31098313974E+03  0.00000000000E+00 0.  1.
         -2   -1    0    0    0  501 -0.00000000000E+00 -0.00000000000E+00 -0.32664599345E+03  0.32664599345E+03  0.00000000000E+00 0. -1.
         25    1    1    2    0    0 -0.85997299661E+02  0.25447664880E+03  0.51347956273E+02  0.30069172411E+03  0.12500000000E+03 0.  0.
         21    1    1    2  503  501  0.99014323665E+02 -0.20019445307E+03  0.29664629698E+02  0.22530345223E+03  0.00000000000E+00 0.  1.
         -2    1    1    2    0  502 -0.13017024004E+02 -0.54282195733E+02 -0.96675439679E+02  0.11163395686E+03  0.00000000000E+00 0. -1.
<mgrwt>
<rscale>  4 0.27300386E+03</rscale>
<asrwt>0</asrwt>
<pdfrwt beam="1">  1       21 0.47843560E-01 0.27300386E+03</pdfrwt>
<pdfrwt beam="2">  1       -2 0.50253230E-01 0.27300386E+03</pdfrwt>
<totfact> 0.12581362E+03</totfact>
</mgrwt>
</event>
<event>
 5    0  0.1239749E+000  0.2662776E+03  0.7546771E-02  0.1103429E+00
         21   -1    0    0  503  502  0.00000000000E+00  0.00000000000E+00  0.15844429910E+03  0.15844429910E+03  0.00000000000E+00 0. -1.
         -4   -1    0    0    0  501 -0.00000000000E+00 -0.00000000000E+00 -0.56356082799E+03  0.56356082799E+03  0.00000000000E+00 0. -1.
         25    1    1    2    0    0 -0.23067422578E+03  0.10665945942E+03 -0.21414790461E+03  0.35506501344E+03  0.12500000000E+03 0.  0.
         21    1    1    2  503  501  0.80462011551E+01 -0.63240605559E+02 -0.10801482511E+03  0.12542455098E+03  0.00000000000E+00 0. -1.
         -4    1    1    2    0  502  0.22262802462E+03 -0.43418853857E+02 -0.82953799165E+02  0.24151556267E+03  0.00000000000E+00 0. -1.
<mgrwt>
<rscale>  4 0.26627762E+03</rscale>
<asrwt>0</asrwt>
<pdfrwt beam="1">  1       21 0.24376047E-01 0.26627762E+03</pdfrwt>
<pdfrwt beam="2">  1       -4 0.86701663E-01 0.26627762E+03</pdfrwt>
<totfact> 0.79223040E+02</totfact>
</mgrwt>
</event>
<event>
 5    0  0.1239749E+000  0.2498863E+03  0.7546771E-02  0.1113377E+00
          2   -1    0    0  503    0 -0.00000000000E+00  0.00000000000E+00  0.10511371987E+03  0.10511371987E+03  0.00000000000E+00 0.  1.
         21   -1    0    0  501  502  0.00000000000E+00 -0.00000000000E+00 -0.75759432641E+03  0.75759432641E+03  0.00000000000E+00 0.  1.
         25    1    1    2    0    0  0.16985744648E+03  0.14050098040E+03 -0.45320890820E+03  0.51924502125E+03  0.12500000000E+03 0.  0.
         21    1    1    2  503  502 -0.13388500216E+03 -0.16614661851E+03 -0.20849887288E+03  0.29833148114E+03  0.00000000000E+00 0.  1.
          2    1    1    2  501    0 -0.35972444315E+02  0.25645638107E+02  0.92271745419E+01  0.45131543890E+02  0.00000000000E+00 0.  1.
<mgrwt>
<rscale>  4 0.24988634E+03</rscale>
<asrwt>0</asrwt>
<pdfrwt beam="1">  1       21 0.11655297E+00 0.24988634E+03</pdfrwt>
<pdfrwt beam="2">  1        2 0.16171342E-01 0.24988634E+03</pdfrwt>
<totfact> 0.24119947E+03</totfact>
</mgrwt>
</event>
<event>
 5    0  0.1239749E+000  0.2673126E+03  0.7546771E-02  0.1102828E+00
         21   -1    0    0  503  502  0.00000000000E+00  0.00000000000E+00  0.25280330564E+03  0.25280330564E+03  0.00000000000E+00 0. -1.
         -3   -1    0    0    0  501 -0.00000000000E+00 -0.00000000000E+00 -0.65558471601E+03  0.65558471601E+03  0.00000000000E+00 0. -1.
         25    1    1    2    0    0 -0.23569514345E+03 -0.87351129420E+02  0.12864388126E+03  0.30879875104E+03  0.12500000000E+03 0.  0.
         21    1    1    2  503  501  0.17929329028E+03  0.55798128533E+02 -0.26087434804E+03  0.32142641546E+03  0.00000000000E+00 0. -1.
         -3    1    1    2    0  502  0.56401853163E+02  0.31553000887E+02 -0.27055094359E+03  0.27816285515E+03  0.00000000000E+00 0. -1.
<mgrwt>
<rscale>  4 0.26731259E+03</rscale>
<asrwt>0</asrwt>
<pdfrwt beam="1">  1       21 0.38892817E-01 0.26731259E+03</pdfrwt>
<pdfrwt beam="2">  1       -3 0.10085919E+00 0.26731259E+03</pdfrwt>
<totfact> 0.27508349E+02</totfact>
</mgrwt>
</event>
<event>
 5    0  0.1239749E+000  0.2760966E+03  0.7546771E-02  0.1097840E+00
         21   -1    0    0  501  502  0.00000000000E+00  0.00000000000E+00  0.71696308800E+03  0.71696308800E+03  0.00000000000E+00 0.  1.
          2   -1    0    0  503    0 -0.00000000000E+00 -0.00000000000E+00 -0.26198395046E+03  0.26198395046E+03  0.00000000000E+00 0.  1.
         25    1    1    2    0    0 -0.96445779090E+02  0.22482145191E+03  0.54195186350E+03  0.60760455552E+03  0.12500000000E+03 0.  0.
         21    1    1    2  503  502  0.18380133141E+03 -0.19414762226E+03 -0.51923414955E+02  0.27234586407E+03  0.00000000000E+00 0.  1.
          2    1    1    2  501    0 -0.87355552317E+02 -0.30673829643E+02 -0.35049311006E+02  0.98996618870E+02  0.00000000000E+00 0.  1.
<mgrwt>
<rscale>  4 0.27609663E+03</rscale>
<asrwt>0</asrwt>
<pdfrwt beam="1">  1       21 0.11030201E+00 0.27609663E+03</pdfrwt>
<pdfrwt beam="2">  1        2 0.40305223E-01 0.27609663E+03</pdfrwt>
<totfact> 0.97936702E+02</totfact>
</mgrwt>
</event>
<event>
 5    0  0.1239749E+000  0.2756901E+03  0.7546771E-02  0.1098066E+00
         21   -1    0    0  501  502  0.00000000000E+00  0.00000000000E+00  0.10075176302E+03  0.10075176302E+03  0.00000000000E+00 0. -1.
          2   -1    0    0  503    0 -0.00000000000E+00 -0.00000000000E+00 -0.10661097489E+04  0.10661097489E+04  0.00000000000E+00 0. -1.
         25    1    1    2    0    0 -0.16651647415E+03 -0.14936584857E+03 -0.36092959619E+03  0.44264327204E+03  0.12500000000E+03 0.  0.
         21    1    1    2  503  502  0.15061779412E+03  0.21917648162E+03 -0.25819651068E+03  0.37066088022E+03  0.00000000000E+00 0. -1.
          2    1    1    2  501    0  0.15898680023E+02 -0.69810633054E+02 -0.34623187903E+03  0.35355735966E+03  0.00000000000E+00 0. -1.
<mgrwt>
<rscale>  4 0.27569009E+03</rscale>
<asrwt>0</asrwt>
<pdfrwt beam="1">  1       21 0.15500271E-01 0.27569009E+03</pdfrwt>
<pdfrwt beam="2">  1        2 0.16401688E+00 0.27569009E+03</pdfrwt>
<totfact> 0.11017247E+04</totfact>
</mgrwt>
</event>
<event>
 5    0  0.1239749E+000  0.2890359E+03  0.7546771E-02  0.1090854E+00
         21   -1    0    0  503  502  0.00000000000E+00  0.00000000000E+00  0.89333223418E+02  0.89333223418E+02  0.00000000000E+00 0.  1.
         -1   -1    0    0    0  501 -0.00000000000E+00 -0.00000000000E+00 -0.16737476367E+04  0.16737476367E+04  0.00000000000E+00 0. -1.
         25    1    1    2    0    0  0.17680704345E+03 -0.15710417384E+03 -0.38635798997E+03  0.46993611104E+03  0.12500000000E+03 0.  0.
         21    1    1    2  503  501 -0.23405745807E+03  0.16474708853E+03 -0.39386610863E+03  0.48688295142E+03  0.00000000000E+00 0.  1.
         -1    1    1    2    0  502  0.57250414613E+02 -0.76429146927E+01 -0.80419031469E+03  0.80626179766E+03  0.00000000000E+00 0. -1.
<mgrwt>
<rscale>  4 0.28903588E+03</rscale>
<asrwt>0</asrwt>
<pdfrwt beam="1">  1       21 0.13743572E-01 0.28903588E+03</pdfrwt>
<pdfrwt beam="2">  1       -1 0.25749965E+00 0.28903588E+03</pdfrwt>
<totfact> 0.30065239E+02</totfact>
</mgrwt>
</event>
<event>
 5    0  0.1239749E+000  0.2901784E+03  0.7546771E-02  0.1090256E+00
          2   -1    0    0  503    0 -0.00000000000E+00  0.00000000000E+00  0.17838101893E+04  0.17838101893E+04  0.00000000000E+00 0. -1.
         21   -1    0    0  501  502  0.00000000000E+00 -0.00000000000E+00 -0.22125264076E+03  0.22125264076E+03  0.00000000000E+00 0. -1.
         25    1    1    2    0    0  0.78569340499E+02  0.23674657933E+03  0.36243511035E+02  0.28135507137E+03  0.12500000000E+03 0.  0.
         21    1    1    2  503  502 -0.12325441717E+03 -0.24999762435E+03  0.99235735727E+02  0.29586854307E+03  0.00000000000E+00 0. -1.
          2    1    1    2  501    0  0.44685076676E+02  0.13251045018E+02  0.14270783018E+04  0.14278392156E+04  0.00000000000E+00 0. -1.
<mgrwt>
<rscale>  4 0.29017844E+03</rscale>
<asrwt>0</asrwt>
<pdfrwt beam="1">  1       21 0.34038869E-01 0.29017844E+03</pdfrwt>
<pdfrwt beam="2">  1        2 0.27443233E+00 0.29017844E+03</pdfrwt>
<totfact> 0.98187155E+02</totfact>
</mgrwt>
</event>
<event>
 5    0  0.1239749E+000  0.3233373E+03  0.7546771E-02  0.1074124E+00
         21   -1    0    0  501  502  0.00000000000E+00  0.00000000000E+00  0.41209012001E+03  0.41209012001E+03  0.00000000000E+00 0. -1.
          1   -1    0    0  503    0 -0.00000000000E+00 -0.00000000000E+00 -0.14639312945E+04  0.14639312945E+04  0.00000000000E+00 0.  1.
         25    1    1    2    0    0  0.29321605508E+03 -0.51033335270E+02  0.27735281079E+03  0.42559327758E+03  0.12500000000E+03 0.  0.
         21    1    1    2  503  502 -0.27312620975E+03  0.17043280541E+03 -0.40040059782E+03  0.51377612474E+03  0.00000000000E+00 0. -1.
          1    1    1    2  501    0 -0.20089845330E+02 -0.11939947014E+03 -0.92879338742E+03  0.93665201215E+03  0.00000000000E+00 0.  1.
<mgrwt>
<rscale>  4 0.32333733E+03</rscale>
<asrwt>0</asrwt>
<pdfrwt beam="1">  1       21 0.63398481E-01 0.32333733E+03</pdfrwt>
<pdfrwt beam="2">  1        1 0.22522020E+00 0.32333733E+03</pdfrwt>
<totfact> 0.18167753E+02</totfact>
</mgrwt>
</event>
<event>
 5    0  0.1239749E+000  0.3649661E+03  0.7546771E-02  0.1056635E+00
         21   -1    0    0  501  502  0.00000000000E+00  0.00000000000E+00  0.15117062242E+04  0.15117062242E+04  0.00000000000E+00 0.  1.
          4   -1    0    0  503    0 -0.00000000000E+00 -0.00000000000E+00 -0.23145568338E+03  0.23145568338E+03  0.00000000000E+00 0. -1.
         25    1    1    2    0    0  0.90270977306E+02  0.25730641001E+03  0.40154662715E+03  0.50121864666E+03  0.12500000000E+03 0.  0.
         21    1    1    2  503  502  0.40653570490E+02 -0.41925438605E+03  0.93561035198E+03  0.10260573492E+04  0.00000000000E+00 0.  1.
          4    1    1    2  501    0 -0.13092454780E+03  0.16194797603E+03 -0.56906438351E+02  0.21588591173E+03  0.00000000000E+00 0. -1.
<mgrwt>
<rscale>  4 0.36496611E+03</rscale>
<asrwt>0</asrwt>
<pdfrwt beam="1">  1       21 0.23257018E+00 0.36496611E+03</pdfrwt>
<pdfrwt beam="2">  1        4 0.35608568E-01 0.36496611E+03</pdfrwt>
<totfact> 0.24904421E+01</totfact>
</mgrwt>
</event>
<event>
 5    0  0.1239749E+000  0.3316912E+03  0.7546771E-02  0.1070391E+00
          2   -1    0    0  503    0 -0.00000000000E+00  0.00000000000E+00  0.30086112483E+04  0.30086112483E+04  0.00000000000E+00 0. -1.
         21   -1    0    0  501  502  0.00000000000E+00 -0.00000000000E+00 -0.20910986376E+04  0.20910986376E+04  0.00000000000E+00 0. -1.
         25    1    1    2    0    0  0.27806500682E+03 -0.13033554296E+03 -0.20138437664E+04  0.20409554668E+04  0.12500000000E+03 0.  0.
         21    1    1    2  503  502  0.82517102634E+02  0.10476384199E+03  0.32256115416E+02  0.13720419745E+03  0.00000000000E+00 0. -1.
          2    1    1    2  501    0 -0.36058210945E+03  0.25571700969E+02  0.28991002617E+04  0.29215502216E+04  0.00000000000E+00 0. -1.
<mgrwt>
<rscale>  4 0.33169117E+03</rscale>
<asrwt>0</asrwt>
<pdfrwt beam="1">  1       21 0.32170748E+00 0.33169117E+03</pdfrwt>
<pdfrwt beam="2">  1        2 0.46286327E+00 0.33169117E+03</pdfrwt>
<totfact> 0.55754762E-01</totfact>
</mgrwt>
</event>
<event>
 5    0  0.1239749E+000  0.1944363E+03  0.7546771E-02  0.1154520E+00
         21   -1    0    0  503  502  0.00000000000E+00  0.00000000000E+00  0.14700177487E+04  0.14700177487E+04  0.00000000000E+00 0. -1.
         -1   -1    0    0    0  501 -0.00000000000E+00 -0.00000000000E+00 -0.23703554392E+03  0.23703554392E+03  0.00000000000E+00 0.  1.
         25    1    1    2    0    0  0.17009610453E+03 -0.13842699903E+03  0.61524155870E+03  0.66501270242E+03  0.12500000000E+03 0.  0.
         21    1    1    2  503  501 -0.35194750499E+02  0.81424999483E+02  0.80187598676E+03  0.80676750006E+03  0.00000000000E+00 0. -1.
         -1    1    1    2    0  502 -0.13490135403E+03  0.57001999545E+02 -0.18413534066E+03  0.23527309015E+03  0.00000000000E+00 0.  1.
<mgrwt>
<rscale>  4 0.19443630E+03</rscale>
<asrwt>0</asrwt>
<pdfrwt beam="1">  1       21 0.22615657E+00 0.19443630E+03</pdfrwt>
<pdfrwt beam="2">  1       -1 0.36467008E-01 0.19443630E+03</pdfrwt>
<totfact> 0.61543285E+01</totfact>
</mgrwt>
</event>
<event>
 5    0  0.1239749E+000  0.2641724E+03  0.7546771E-02  0.1104662E+00
          2   -1    0    0  503    0 -0.00000000000E+00  0.00000000000E+00  0.41080197487E+03  0.41080197487E+03  0.00000000000E+00 0.  1.
         21   -1    0    0  501  502  0.00000000000E+00 -0.00000000000E+00 -0.47595886757E+03  0.47595886757E+03  0.00000000000E+00 0.  1.
         25    1    1    2    0    0 -0.97545429694E+02 -0.21482778701E+03 -0.20862717356E+03  0.33884566763E+03  0.12500000000E+03 0.  0.
         21    1    1    2  503  502  0.45769524610E+02  0.22794247977E+03 -0.13197532639E+03  0.26733894262E+03  0.00000000000E+00 0.  1.
          2    1    1    2  501    0  0.51775905084E+02 -0.13114692754E+02  0.27544560725E+03  0.28057623218E+03  0.00000000000E+00 0.  1.
<mgrwt>
<rscale>  4 0.26417242E+03</rscale>
<asrwt>0</asrwt>
<pdfrwt beam="1">  1       21 0.73224441E-01 0.26417242E+03</pdfrwt>
<pdfrwt beam="2">  1        2 0.63200304E-01 0.26417242E+03</pdfrwt>
<totfact> 0.15746086E+03</totfact>
</mgrwt>
</event>
<event>
 5    0  0.1239749E+000  0.2410166E+03  0.7546771E-02  0.1119117E+00
         21   -1    0    0  503  502  0.00000000000E+00  0.00000000000E+00  0.10288759682E+04  0.10288759682E+04  0.00000000000E+00 0.  1.
         -2   -1    0    0    0  501 -0.00000000000E+00 -0.00000000000E+00 -0.17895998933E+03  0.17895998933E+03  0.00000000000E+00 0. -1.
         25    1    1    2    0    0 -0.13027969901E+03 -0.16149298856E+03  0.90874469661E+03  0.94047578860E+03  0.12500000000E+03 0.  0.
         21    1    1    2  503  501  0.30848831896E+02 -0.11202660769E+02 -0.59651414751E+02  0.68084075373E+02  0.00000000000E+00 0. -1.
         -2    1    1    2    0  502  0.99430867112E+02  0.17269564933E+03  0.82269699705E+00  0.19927609355E+03  0.00000000000E+00 0. -1.
<mgrwt>
<rscale>  4 0.24101660E+03</rscale>
<asrwt>0</asrwt>
<pdfrwt beam="1">  1       21 0.15828861E+00 0.24101660E+03</pdfrwt>
<pdfrwt beam="2">  1       -2 0.27532307E-01 0.24101660E+03</pdfrwt>
<totfact> 0.24109212E+02</totfact>
</mgrwt>
</event>
<event>
 5    0  0.1239749E+000  0.2970344E+03  0.7546771E-02  0.1086733E+00
         21   -1    0    0  501  502  0.00000000000E+00  0.00000000000E+00  0.12558501980E+03  0.12558501980E+03  0.00000000000E+00 0. -1.
          4   -1    0    0  503    0 -0.00000000000E+00 -0.00000000000E+00 -0.16809116283E+04  0.16809116283E+04  0.00000000000E+00 0.  1.
         25    1    1    2    0    0  0.24268631704E+03 -0.77262493963E+02 -0.52718229985E+03  0.59867547029E+03  0.12500000000E+03 0.  0.
         21    1    1    2  503  502 -0.24788736361E+03  0.12088366300E+03 -0.12361860580E+03  0.30222932472E+03  0.00000000000E+00 0. -1.
          4    1    1    2  501    0  0.52010465762E+01 -0.43621169036E+02 -0.90452570281E+03  0.90559185305E+03  0.00000000000E+00 0.  1.
<mgrwt>
<rscale>  4 0.29703438E+03</rscale>
<asrwt>0</asrwt>
<pdfrwt beam="1">  1       21 0.19320772E-01 0.29703438E+03</pdfrwt>
<pdfrwt beam="2">  1        4 0.25860179E+00 0.29703438E+03</pdfrwt>
<totfact> 0.64647097E+01</totfact>
</mgrwt>
</event>
<event>
 5    0  0.1239749E+000  0.2443070E+03  0.7546771E-02  0.1116956E+00
         21   -1    0    0  501  502  0.00000000000E+00  0.00000000000E+00  0.14164384369E+03  0.14164384369E+03  0.00000000000E+00 0. -1.
          2   -1    0    0  503    0 -0.00000000000E+00 -0.00000000000E+00 -0.14415148758E+04  0.14415148758E+04  0.00000000000E+00 0.  1.
         25    1    1    2    0    0 -0.22572849803E+03 -0.68925793196E+02 -0.83046779614E+02  0.27968891182E+03  0.12500000000E+03 0.  0.
         21    1    1    2  503  502  0.18669234467E+03 -0.15909977349E+02 -0.17157564332E+03  0.25405778933E+03  0.00000000000E+00 0. -1.
          2    1    1    2  501    0  0.39036153361E+02  0.84835770546E+02 -0.10452486092E+04  0.10494120183E+04  0.00000000000E+00 0.  1.
<mgrwt>
<rscale>  4 0.24430702E+03</rscale>
<asrwt>0</asrwt>
<pdfrwt beam="1">  1       21 0.21791359E-01 0.24430702E+03</pdfrwt>
<pdfrwt beam="2">  1        2 0.22177153E+00 0.24430702E+03</pdfrwt>
<totfact> 0.36206607E+03</totfact>
</mgrwt>
</event>
<event>
 5    0  0.1239749E+000  0.3467566E+03  0.7546771E-02  0.1063954E+00
         21   -1    0    0  501  502  0.00000000000E+00  0.00000000000E+00  0.54135640573E+03  0.54135640573E+03  0.00000000000E+00 0. -1.
          1   -1    0    0  503    0 -0.00000000000E+00 -0.00000000000E+00 -0.96684717985E+03  0.96684717985E+03  0.00000000000E+00 0.  1.
         25    1    1    2    0    0  0.27001658782E+03 -0.19879188658E+03  0.14886817043E+03  0.38757438516E+03  0.12500000000E+03 0.  0.
         21    1    1    2  503  502 -0.26130955247E+03  0.17513918017E+03  0.18228105681E+03  0.36356952335E+03  0.00000000000E+00 0. -1.
          1    1    1    2  501    0 -0.87070353542E+01  0.23652706411E+02 -0.75664000135E+03  0.75705967706E+03  0.00000000000E+00 0.  1.
<mgrwt>
<rscale>  4 0.34675661E+03</rscale>
<asrwt>0</asrwt>
<pdfrwt beam="1">  1       21 0.83285602E-01 0.34675661E+03</pdfrwt>
<pdfrwt beam="2">  1        1 0.14874572E+00 0.34675661E+03</pdfrwt>
<totfact> 0.21877911E+02</totfact>
</mgrwt>
</event>
<event>
 5    0  0.1239749E+000  0.2960701E+03  0.7546771E-02  0.1087222E+00
         21   -1    0    0  501  502  0.00000000000E+00  0.00000000000E+00  0.51610404455E+03  0.51610404455E+03  0.00000000000E+00 0. -1.
          2   -1    0    0  503    0 -0.00000000000E+00 -0.00000000000E+00 -0.68711415674E+03  0.68711415674E+03  0.00000000000E+00 0.  1.
         25    1    1    2    0    0  0.39638427809E+03  0.73824191276E+02  0.24896295121E+03  0.49007964476E+03  0.12500000000E+03 0.  0.
         21    1    1    2  503  502 -0.15499014154E+03 -0.17076206987E+03 -0.14078755436E+02  0.23104077527E+03  0.00000000000E+00 0.  1.
          2    1    1    2  501    0 -0.24139413655E+03  0.96937878596E+02 -0.40589430796E+03  0.48209778127E+03  0.00000000000E+00 0.  1.
<mgrwt>
<rscale>  4 0.29607010E+03</rscale>
<asrwt>0</asrwt>
<pdfrwt beam="1">  1       21 0.79400622E-01 0.29607010E+03</pdfrwt>
<pdfrwt beam="2">  1        2 0.10570987E+00 0.29607010E+03</pdfrwt>
<totfact> 0.71898357E+02</totfact>
</mgrwt>
</event>
<event>
 5    0  0.1239749E+000  0.2489299E+03  0.7546771E-02  0.1113983E+00
         21   -1    0    0  501  502  0.00000000000E+00  0.00000000000E+00  0.15250827738E+03  0.15250827738E+03  0.00000000000E+00 0. -1.
          2   -1    0    0  503    0 -0.00000000000E+00 -0.00000000000E+00 -0.17221104274E+04  0.17221104274E+04  0.00000000000E+00 0.  1.
         25    1    1    2    0    0 -0.22595434711E+03  0.80483102167E+02 -0.22937791474E+02  0.27144804105E+03  0.12500000000E+03 0.  0.
         21    1    1    2  503  502  0.11022668343E+03  0.57557887888E+02 -0.12495021205E+04  0.12556744727E+04  0.00000000000E+00 0.  1.
          2    1    1    2  501    0  0.11572766368E+03 -0.13804099006E+03 -0.29716223807E+03  0.34749619108E+03  0.00000000000E+00 0.  1.
<mgrwt>
<rscale>  4 0.24892995E+03</rscale>
<asrwt>0</asrwt>
<pdfrwt beam="1">  1       21 0.23462812E-01 0.24892995E+03</pdfrwt>
<pdfrwt beam="2">  1        2 0.26494006E+00 0.24892995E+03</pdfrwt>
<totfact> 0.22289071E+03</totfact>
</mgrwt>
</event>
<event>
 5    0  0.1239749E+000  0.3092918E+03  0.7546771E-02  0.1080686E+00
         21   -1    0    0  501  502  0.00000000000E+00  0.00000000000E+00  0.34443948039E+03  0.34443948039E+03  0.00000000000E+00 0.  1.
          1   -1    0    0  503    0 -0.00000000000E+00 -0.00000000000E+00 -0.46431600934E+03  0.46431600934E+03  0.00000000000E+00 0.  1.
         25    1    1    2    0    0 -0.16215645573E+03  0.22475204941E+03  0.61029424028E+02  0.31009319639E+03  0.12500000000E+03 0.  0.
         21    1    1    2  503  502  0.15160670239E+03 -0.24654887654E+03  0.25765806018E+02  0.29057669813E+03  0.00000000000E+00 0.  1.
          1    1    1    2  501    0  0.10549753337E+02  0.21796827137E+02 -0.20667175900E+03  0.20808559521E+03  0.00000000000E+00 0.  1.
<mgrwt>
<rscale>  4 0.30929181E+03</rscale>
<asrwt>0</asrwt>
<pdfrwt beam="1">  1       21 0.52990689E-01 0.30929181E+03</pdfrwt>
<pdfrwt beam="2">  1        1 0.71433232E-01 0.30929181E+03</pdfrwt>
<totfact> 0.17795310E+03</totfact>
</mgrwt>
</event>
<event>
 5    0  0.1239749E+000  0.2642971E+03  0.7546771E-02  0.1104589E+00
         21   -1    0    0  501  502  0.00000000000E+00  0.00000000000E+00  0.13074301797E+03  0.13074301797E+03  0.00000000000E+00 0.  1.
          2   -1    0    0  503    0 -0.00000000000E+00 -0.00000000000E+00 -0.14812267956E+04  0.14812267956E+04  0.00000000000E+00 0.  1.
         25    1    1    2    0    0  0.67529639666E+02  0.20563712384E+03 -0.29017819309E+03  0.38298206574E+03  0.12500000000E+03 0.  0.
         21    1    1    2  503  502 -0.86634274464E+02 -0.22533392199E+03 -0.89003984915E+02  0.25729862658E+03  0.00000000000E+00 0.  1.
          2    1    1    2  501    0  0.19104634798E+02  0.19696798144E+02 -0.97130159958E+03  0.97168912121E+03  0.00000000000E+00 0.  1.
<mgrwt>
<rscale>  4 0.26429710E+03</rscale>
<asrwt>0</asrwt>
<pdfrwt beam="1">  1       21 0.20114310E-01 0.26429710E+03</pdfrwt>
<pdfrwt beam="2">  1        2 0.22788105E+00 0.26429710E+03</pdfrwt>
<totfact> 0.39794310E+03</totfact>
</mgrwt>
</event>
<event>
 5    0  0.1239749E+000  0.2802088E+03  0.7546771E-02  0.1095575E+00
         21   -1    0    0  503  502  0.00000000000E+00  0.00000000000E+00  0.11966677955E+04  0.11966677955E+04  0.00000000000E+00 0. -1.
         -3   -1    0    0    0  501 -0.00000000000E+00 -0.00000000000E+00 -0.91799589406E+03  0.91799589406E+03  0.00000000000E+00 0. -1.
         25    1    1    2    0    0  0.24639127620E+03  0.57426365609E+01  0.10589512842E+04  0.10944151229E+04  0.12500000000E+03 0.  0.
         21    1    1    2  503  501 -0.30576204559E+03  0.93753864569E+02 -0.10724726586E+03  0.33731615983E+03  0.00000000000E+00 0. -1.
         -3    1    1    2    0  502  0.59370769389E+02 -0.99496501130E+02 -0.67303211689E+03  0.68293240687E+03  0.00000000000E+00 0. -1.
<mgrwt>
<rscale>  4 0.28020876E+03</rscale>
<asrwt>0</asrwt>
<pdfrwt beam="1">  1       21 0.18410274E+00 0.28020876E+03</pdfrwt>
<pdfrwt beam="2">  1       -3 0.14123014E+00 0.28020876E+03</pdfrwt>
<totfact> 0.31441986E+00</totfact>
</mgrwt>
</event>
<event>
 5    0  0.1239749E+000  0.3102826E+03  0.7546771E-02  0.1080210E+00
         21   -1    0    0  501  502  0.00000000000E+00  0.00000000000E+00  0.32908245271E+03  0.32908245271E+03  0.00000000000E+00 0.  1.
          1   -1    0    0  503    0 -0.00000000000E+00 -0.00000000000E+00 -0.32965980799E+04  0.32965980799E+04  0.00000000000E+00 0. -1.
         25    1    1    2    0    0 -0.11471040088E+02  0.28497578513E+03  0.64752177582E+02  0.31805758499E+03  0.12500000000E+03 0.  0.
         21    1    1    2  503  502  0.69605223175E+02 -0.27721831314E+03 -0.11258938842E+02  0.28604482854E+03  0.00000000000E+00 0.  1.
          1    1    1    2  501    0 -0.58134183087E+02 -0.77574719889E+01 -0.30210088659E+04  0.30215781190E+04  0.00000000000E+00 0. -1.
<mgrwt>
<rscale>  4 0.31028264E+03</rscale>
<asrwt>0</asrwt>
<pdfrwt beam="1">  1       21 0.50628068E-01 0.31028264E+03</pdfrwt>
<pdfrwt beam="2">  1        1 0.50716895E+00 0.31028264E+03</pdfrwt>
<totfact> 0.17240072E+01</totfact>
</mgrwt>
</event>
<event>
 5    0  0.1239749E+000  0.2749432E+03  0.7546771E-02  0.1098483E+00
          1   -1    0    0  503    0 -0.00000000000E+00  0.00000000000E+00  0.93025347130E+03  0.93025347130E+03  0.00000000000E+00 0.  1.
         21   -1    0    0  501  502  0.00000000000E+00 -0.00000000000E+00 -0.16359379881E+04  0.16359379881E+04  0.00000000000E+00 0.  1.
         25    1    1    2    0    0  0.19312802586E+03 -0.20099660901E+03 -0.15750834546E+03  0.34370328788E+03  0.12500000000E+03 0.  0.
         21    1    1    2  503  502 -0.17038607027E+03  0.17054536240E+03 -0.13744040831E+04  0.13953865834E+04  0.00000000000E+00 0.  1.
          1    1    1    2  501    0 -0.22741955598E+02  0.30451246616E+02  0.82622791173E+03  0.82710158813E+03  0.00000000000E+00 0.  1.
<mgrwt>
<rscale>  4 0.27494322E+03</rscale>
<asrwt>0</asrwt>
<pdfrwt beam="1">  1       21 0.25168277E+00 0.27494322E+03</pdfrwt>
<pdfrwt beam="2">  1        1 0.14311592E+00 0.27494322E+03</pdfrwt>
<totfact> 0.11992392E+01</totfact>
</mgrwt>
</event>
<event>
 5    0  0.1239749E+000  0.2477264E+03  0.7546771E-02  0.1114750E+00
          1   -1    0    0  503    0 -0.00000000000E+00  0.00000000000E+00  0.90222256574E+03  0.90222256574E+03  0.00000000000E+00 0.  1.
         21   -1    0    0  501  502  0.00000000000E+00 -0.00000000000E+00 -0.56952002265E+03  0.56952002265E+03  0.00000000000E+00 0.  1.
         25    1    1    2    0    0  0.20422284540E+03 -0.71192835538E+02 -0.51438575792E+03  0.57183310359E+03  0.12500000000E+03 0.  0.
         21    1    1    2  503  502 -0.79549602007E+02 -0.21817514999E+02  0.72380961360E+02  0.10974127167E+03  0.00000000000E+00 0.  1.
          1    1    1    2  501    0 -0.12467324339E+03  0.93010350537E+02  0.77470733965E+03  0.79016821313E+03  0.00000000000E+00 0.  1.
<mgrwt>
<rscale>  4 0.24772641E+03</rscale>
<asrwt>0</asrwt>
<pdfrwt beam="1">  1       21 0.87618465E-01 0.24772641E+03</pdfrwt>
<pdfrwt beam="2">  1        1 0.13880347E+00 0.24772641E+03</pdfrwt>
<totfact> 0.22949455E+02</totfact>
</mgrwt>
</event>
<event>
 5    0  0.1239749E+000  0.3375998E+03  0.7546771E-02  0.1067823E+00
         -1   -1    0    0    0  501 -0.00000000000E+00  0.00000000000E+00  0.22871524038E+03  0.22871524038E+03  0.00000000000E+00 0.  1.
         21   -1    0    0  503  502  0.00000000000E+00 -0.00000000000E+00 -0.54518799410E+03  0.54518799410E+03  0.00000000000E+00 0.  1.
         25    1    1    2    0    0 -0.72384153553E+02 -0.30725110744E+03 -0.22675937425E+03  0.40827383276E+03  0.12500000000E+03 0.  0.
         21    1    1    2  503  501  0.10862506344E+03  0.29283107748E+03 -0.94548916107E+02  0.32632643454E+03  0.00000000000E+00 0.  1.
         -1    1    1    2    0  502 -0.36240909889E+02  0.14420029965E+02  0.48355366379E+01  0.39302967170E+02  0.00000000000E+00 0.  1.
<mgrwt>
<rscale>  4 0.33759984E+03</rscale>
<asrwt>0</asrwt>
<pdfrwt beam="1">  1       21 0.83875076E-01 0.33759984E+03</pdfrwt>
<pdfrwt beam="2">  1       -1 0.35186960E-01 0.33759984E+03</pdfrwt>
<totfact> 0.83531839E+02</totfact>
</mgrwt>
</event>
<event>
 5    0  0.1239749E+000  0.2827519E+03  0.7546771E-02  0.1094195E+00
          1   -1    0    0  503    0 -0.00000000000E+00  0.00000000000E+00  0.35278795069E+03  0.35278795069E+03  0.00000000000E+00 0.  1.
         21   -1    0    0  501  502  0.00000000000E+00 -0.00000000000E+00 -0.36263849089E+03  0.36263849089E+03  0.00000000000E+00 0.  1.
         25    1    1    2    0    0 -0.20818243938E+03  0.16745554962E+03 -0.18733675721E+03  0.34943003558E+03  0.12500000000E+03 0.  0.
         21    1    1    2  503  502  0.12390704270E+03 -0.19489230964E+03  0.11892204625E+03  0.25976608837E+03  0.00000000000E+00 0.  1.
          1    1    1    2  501    0  0.84275396680E+02  0.27436760018E+02  0.58564170766E+02  0.10623031763E+03  0.00000000000E+00 0.  1.
<mgrwt>
<rscale>  4 0.28275192E+03</rscale>
<asrwt>0</asrwt>
<pdfrwt beam="1">  1       21 0.55790537E-01 0.28275192E+03</pdfrwt>
<pdfrwt beam="2">  1        1 0.54275070E-01 0.28275192E+03</pdfrwt>
<totfact> 0.22933161E+03</totfact>
</mgrwt>
</event>
<event>
 5    0  0.1239749E+000  0.2837846E+03  0.7546771E-02  0.1093640E+00
          2   -1    0    0  503    0 -0.00000000000E+00  0.00000000000E+00  0.30950486921E+04  0.30950486921E+04  0.00000000000E+00 0.  1.
         21   -1    0    0  501  502  0.00000000000E+00 -0.00000000000E+00 -0.34175971457E+03  0.34175971457E+03  0.00000000000E+00 0. -1.
         25    1    1    2    0    0  0.25648056286E+03 -0.10457825320E+03  0.48815874130E+02  0.30777732167E+03  0.12500000000E+03 0.  0.
         21    1    1    2  503  502 -0.21766386247E+03  0.11515513097E+03 -0.14067549284E+03  0.28359805271E+03  0.00000000000E+00 0. -1.
          2    1    1    2  501    0 -0.38816700385E+02 -0.10576877769E+02  0.28451485963E+04  0.28454330323E+04  0.00000000000E+00 0.  1.
<mgrwt>
<rscale>  4 0.28378456E+03</rscale>
<asrwt>0</asrwt>
<pdfrwt beam="1">  1       21 0.52578420E-01 0.28378456E+03</pdfrwt>
<pdfrwt beam="2">  1        2 0.47616132E+00 0.28378456E+03</pdfrwt>
<totfact> 0.76102321E+01</totfact>
</mgrwt>
</event>
<event>
 5    0  0.1239749E+000  0.4095543E+03  0.7546771E-02  0.1040521E+00
          1   -1    0    0  503    0 -0.00000000000E+00  0.00000000000E+00  0.10468174925E+04  0.10468174925E+04  0.00000000000E+00 0. -1.
         21   -1    0    0  501  502  0.00000000000E+00 -0.00000000000E+00 -0.50953884351E+03  0.50953884351E+03  0.00000000000E+00 0.  1.
         25    1    1    2    0    0  0.17544415116E+03 -0.38295448087E+03 -0.33558879962E+03  0.55288301387E+03  0.12500000000E+03 0.  0.
         21    1    1    2  503  502 -0.55416055564E+02  0.28197711307E+03  0.32610529582E+03  0.43465698599E+03  0.00000000000E+00 0. -1.
          1    1    1    2  501    0 -0.12002809560E+03  0.10097736780E+03  0.54676215275E+03  0.56881633610E+03  0.00000000000E+00 0. -1.
<mgrwt>
<rscale>  4 0.40955430E+03</rscale>
<asrwt>0</asrwt>
<pdfrwt beam="1">  1       21 0.78390592E-01 0.40955430E+03</pdfrwt>
<pdfrwt beam="2">  1        1 0.16104884E+00 0.40955430E+03</pdfrwt>
<totfact> 0.21354851E+02</totfact>
</mgrwt>
</event>
<event>
 5    0  0.1239749E+000  0.3008087E+03  0.7546771E-02  0.1084837E+00
         21   -1    0    0  501  502  0.00000000000E+00  0.00000000000E+00  0.12090400045E+04  0.12090400045E+04  0.00000000000E+00 0. -1.
          2   -1    0    0  503    0 -0.00000000000E+00 -0.00000000000E+00 -0.25604074725E+03  0.25604074725E+03  0.00000000000E+00 0. -1.
         25    1    1    2    0    0  0.67208492902E+02  0.26865168256E+03  0.10370733330E+04  0.10806649833E+04  0.12500000000E+03 0.  0.
         21    1    1    2  503  502 -0.43820545624E+02 -0.25346577694E+03  0.37267205312E+02  0.25991149434E+03  0.00000000000E+00 0. -1.
          2    1    1    2  501    0 -0.23387947278E+02 -0.15185905620E+02 -0.12134128102E+03  0.12450427417E+03  0.00000000000E+00 0. -1.
<mgrwt>
<rscale>  4 0.30080866E+03</rscale>
<asrwt>0</asrwt>
<pdfrwt beam="1">  1       21 0.18600615E+00 0.30080866E+03</pdfrwt>
<pdfrwt beam="2">  1        2 0.39390885E-01 0.30080866E+03</pdfrwt>
<totfact> 0.24857023E+02</totfact>
</mgrwt>
</event>
<event>
 5    0  0.1239749E+000  0.2940072E+03  0.7546771E-02  0.1088275E+00
          3   -1    0    0  503    0 -0.00000000000E+00  0.00000000000E+00  0.52404127989E+03  0.52404127989E+03  0.00000000000E+00 0.  1.
         21   -1    0    0  501  502  0.00000000000E+00 -0.00000000000E+00 -0.65561183216E+03  0.65561183216E+03  0.00000000000E+00 0.  1.
         25    1    1    2    0    0 -0.19095496356E+03 -0.16798611208E+03 -0.27160949470E+03  0.39253006200E+03  0.12500000000E+03 0.  0.
         21    1    1    2  503  502  0.19848257272E+03  0.19458524126E+03 -0.26328389853E+03  0.38285396565E+03  0.00000000000E+00 0.  1.
          3    1    1    2  501    0 -0.75276091560E+01 -0.26599129186E+02  0.40332284095E+03  0.40426908440E+03  0.00000000000E+00 0.  1.
<mgrwt>
<rscale>  4 0.29400716E+03</rscale>
<asrwt>0</asrwt>
<pdfrwt beam="1">  1       21 0.10086336E+00 0.29400716E+03</pdfrwt>
<pdfrwt beam="2">  1        3 0.80621736E-01 0.29400716E+03</pdfrwt>
<totfact> 0.56066202E+01</totfact>
</mgrwt>
</event>
<event>
 5    0  0.1239749E+000  0.2417334E+03  0.7546771E-02  0.1118643E+00
         21   -1    0    0  501  502  0.00000000000E+00  0.00000000000E+00  0.60046979109E+02  0.60046979109E+02  0.00000000000E+00 0. -1.
          2   -1    0    0  503    0 -0.00000000000E+00 -0.00000000000E+00 -0.18350037315E+04  0.18350037315E+04  0.00000000000E+00 0.  1.
         25    1    1    2    0    0 -0.64661338225E+02 -0.20285651728E+03 -0.28231978998E+03  0.37504842231E+03  0.12500000000E+03 0.  0.
         21    1    1    2  503  502 -0.53758766579E+02  0.50596247100E+02 -0.20273595650E+03  0.21575878490E+03  0.00000000000E+00 0. -1.
          2    1    1    2  501    0  0.11842010480E+03  0.15226027018E+03 -0.12899010059E+04  0.13042435034E+04  0.00000000000E+00 0.  1.
<mgrwt>
<rscale>  4 0.24173343E+03</rscale>
<asrwt>0</asrwt>
<pdfrwt beam="1">  1       21 0.92379956E-02 0.24173343E+03</pdfrwt>
<pdfrwt beam="2">  1        2 0.28230830E+00 0.24173343E+03</pdfrwt>
<totfact> 0.10751505E+04</totfact>
</mgrwt>
</event>
<event>
 5    0  0.1239749E+000  0.2764963E+03  0.7546771E-02  0.1097618E+00
         21   -1    0    0  501  502  0.00000000000E+00  0.00000000000E+00  0.38392096510E+03  0.38392096510E+03  0.00000000000E+00 0.  1.
          1   -1    0    0  503    0 -0.00000000000E+00 -0.00000000000E+00 -0.15941410012E+04  0.15941410012E+04  0.00000000000E+00 0. -1.
         25    1    1    2    0    0 -0.13958891598E+03 -0.21740965073E+03 -0.41434751423E+02  0.28998941415E+03  0.12500000000E+03 0.  0.
         21    1    1    2  503  502  0.10660985068E+03  0.21840826923E+03  0.20252775444E+03  0.31636264579E+03  0.00000000000E+00 0.  1.
          1    1    1    2  501    0  0.32979065302E+02 -0.99861850462E+00 -0.13713130392E+04  0.13717099064E+04  0.00000000000E+00 0. -1.
<mgrwt>
<rscale>  4 0.27649631E+03</rscale>
<asrwt>0</asrwt>
<pdfrwt beam="1">  1       21 0.59064764E-01 0.27649631E+03</pdfrwt>
<pdfrwt beam="2">  1        1 0.24525246E+00 0.27649631E+03</pdfrwt>
<totfact> 0.17812526E+02</totfact>
</mgrwt>
</event>
<event>
 5    0  0.1239749E+000  0.2927084E+03  0.7546771E-02  0.1088943E+00
          2   -1    0    0  503    0 -0.00000000000E+00  0.00000000000E+00  0.86490898158E+03  0.86490898158E+03  0.00000000000E+00 0. -1.
         21   -1    0    0  501  502  0.00000000000E+00 -0.00000000000E+00 -0.27588554011E+03  0.27588554011E+03  0.00000000000E+00 0. -1.
         25    1    1    2    0    0  0.21229690973E+03 -0.15521446966E+03 -0.15851415871E+03  0.33153166966E+03  0.12500000000E+03 0.  0.
         21    1    1    2  503  502 -0.29342190173E+01 -0.30107919821E+02  0.66079782088E+02  0.72674851757E+02  0.00000000000E+00 0. -1.
          2    1    1    2  501    0 -0.20936269072E+03  0.18532238948E+03  0.68145781809E+03  0.73658800027E+03  0.00000000000E+00 0. -1.
<mgrwt>
<rscale>  4 0.29270840E+03</rscale>
<asrwt>0</asrwt>
<pdfrwt beam="1">  1       21 0.42443930E-01 0.29270840E+03</pdfrwt>
<pdfrwt beam="2">  1        2 0.13306292E+00 0.29270840E+03</pdfrwt>
<totfact> 0.20829393E+03</totfact>
</mgrwt>
</event>
