<event>
 5    0  0.3533448E+000  0.3000189E+03  0.7546771E-02  0.1085231E+00
         21   -1    0    0  502  501  0.00000000000E+00  0.00000000000E+00  0.13388361267E+03  0.13388361267E+03  0.00000000000E+00 0. -1.
         21   -1    0    0  503  502 -0.00000000000E+00 -0.00000000000E+00 -0.10190904087E+04  0.10190904087E+04  0.00000000000E+00 0.  1.
         25    1    1    2    0    0 -0.14462040569E+03 -0.23123851673E+03 -0.92880257402E+02  0.31406696034E+03  0.12500000000E+03 0.  0.
         21    1    1    2  503  504  0.11205223248E+03  0.20566312426E+03 -0.66849075690E+03  0.70833107763E+03  0.00000000000E+00 0.  1.
         21    1    1    2  504  501  0.32568173203E+02  0.25575392467E+02 -0.12383578171E+03  0.13057598339E+03  0.00000000000E+00 0. -1.
<mgrwt>
<rscale>  4 0.30001886E+03</rscale>
<asrwt>0</asrwt>
<pdfrwt beam="1">  1       21 0.20597478E-01 0.30001886E+03</pdfrwt>
<pdfrwt beam="2">  1       21 0.15678314E+00 0.30001886E+03</pdfrwt>
<totfact> 0.53967230E+03</totfact>
</mgrwt>
</event>
<event>
 5    0  0.2167549E+000  0.3140024E+03  0.7546771E-02  0.1078443E+00
         21   -1    0    0  502  501  0.00000000000E+00  0.00000000000E+00  0.16075635371E+03  0.16075635371E+03  0.00000000000E+00 0.  1.
         21   -1    0    0  503  502 -0.00000000000E+00 -0.00000000000E+00 -0.65966198203E+03  0.65966198203E+03  0.00000000000E+00 0.  1.
         25    1    1    2    0    0  0.14441078975E+03  0.24923487655E+03 -0.10657634304E+03  0.33159616521E+03  0.12500000000E+03 0.  0.
         21    1    1    2  503  504 -0.13300275943E+03 -0.21274564055E+03 -0.35970274702E+03  0.43856186315E+03  0.00000000000E+00 0.  1.
         21    1    1    2  504  501 -0.11408030319E+02 -0.36489235993E+02 -0.32626538256E+02  0.50260307377E+02  0.00000000000E+00 0.  1.
<mgrwt>
<rscale>  4 0.31400239E+03</rscale>
<asrwt>0</asrwt>
<pdfrwt beam="1">  1       21 0.24731747E-01 0.31400239E+03</pdfrwt>
<pdfrwt beam="2">  1       21 0.10148646E+00 0.31400239E+03</pdfrwt>
<totfact> 0.11465131E+04</totfact>
</mgrwt>
</event>
<event>
 5    0  0.2159162E+000  0.3132423E+03  0.7546771E-02  0.1078802E+00
         21   -1    0    0  502  501  0.00000000000E+00  0.00000000000E+00  0.18288924338E+03  0.18288924338E+03  0.00000000000E+00 0. -1.
         21   -1    0    0  503  502 -0.00000000000E+00 -0.00000000000E+00 -0.91761765556E+03  0.91761765556E+03  0.00000000000E+00 0. -1.
         25    1    1    2    0    0 -0.22548486031E+03  0.21711114208E+03 -0.95966922546E+02  0.35045016831E+03  0.12500000000E+03 0.  0.
         21    1    1    2  503  504  0.85169070390E+02  0.28743739331E+02 -0.67184466171E+02  0.11222176971E+03  0.00000000000E+00 0. -1.
         21    1    1    2  504  501  0.14031578992E+03 -0.24585488141E+03 -0.57157702347E+03  0.63783496092E+03  0.00000000000E+00 0. -1.
<mgrwt>
<rscale>  4 0.31324225E+03</rscale>
<asrwt>0</asrwt>
<pdfrwt beam="1">  1       21 0.28136807E-01 0.31324225E+03</pdfrwt>
<pdfrwt beam="2">  1       21 0.14117195E+00 0.31324225E+03</pdfrwt>
<totfact> 0.38936861E+03</totfact>
</mgrwt>
</event>
<event>
 5    0  0.2159162E+000  0.5179432E+03  0.7546771E-02  0.1009199E+00
         21   -1    0    0  502  501  0.00000000000E+00  0.00000000000E+00  0.62381326239E+03  0.62381326239E+03  0.00000000000E+00 0. -1.
         21   -1    0    0  503  502 -0.00000000000E+00 -0.00000000000E+00 -0.58890401497E+03  0.58890401497E+03  0.00000000000E+00 0.  1.
         25    1    1    2    0    0 -0.11593636214E+03  0.48907964025E+03  0.34229024377E+03  0.62082827380E+03  0.12500000000E+03 0.  0.
         21    1    1    2  503  504 -0.10390476536E+01 -0.23467186552E+02 -0.35898414986E+01  0.23762900216E+02  0.00000000000E+00 0.  1.
         21    1    1    2  504  501  0.11697540979E+03 -0.46561245370E+03 -0.30379115485E+03  0.56812610335E+03  0.00000000000E+00 0.  1.
<mgrwt>
<rscale>  4 0.51794318E+03</rscale>
<asrwt>0</asrwt>
<pdfrwt beam="1">  1       21 0.95971271E-01 0.51794318E+03</pdfrwt>
<pdfrwt beam="2">  1       21 0.90600618E-01 0.51794318E+03</pdfrwt>
<totfact> 0.77055062E+02</totfact>
</mgrwt>
</event>
<event>
 5    0  0.2159162E+000  0.3808117E+03  0.7546771E-02  0.1050634E+00
         21   -1    0    0  502  501  0.00000000000E+00  0.00000000000E+00  0.22051636415E+03  0.22051636415E+03  0.00000000000E+00 0.  1.
         21   -1    0    0  503  502 -0.00000000000E+00 -0.00000000000E+00 -0.14470499846E+04  0.14470499846E+04  0.00000000000E+00 0.  1.
         25    1    1    2    0    0 -0.40391956542E+03  0.31608520043E+03 -0.68667971034E+03  0.86614946392E+03  0.12500000000E+03 0.  0.
         21    1    1    2  503  504  0.17808611228E+03 -0.23144745598E+03 -0.46463201263E+03  0.54878547305E+03  0.00000000000E+00 0.  1.
         21    1    1    2  504  501  0.22583345314E+03 -0.84637744451E+02 -0.75221897443E+02  0.25263141174E+03  0.00000000000E+00 0.  1.
<mgrwt>
<rscale>  4 0.38081174E+03</rscale>
<asrwt>0</asrwt>
<pdfrwt beam="1">  1       21 0.33925594E-01 0.38081174E+03</pdfrwt>
<pdfrwt beam="2">  1       21 0.22262308E+00 0.38081174E+03</pdfrwt>
<totfact> 0.69289711E+02</totfact>
</mgrwt>
</event>
<event>
 5    0  0.2159162E+000  0.2962487E+03  0.7546771E-02  0.1087131E+00
         21   -1    0    0  502  501  0.00000000000E+00  0.00000000000E+00  0.69017301173E+03  0.69017301173E+03  0.00000000000E+00 0.  1.
         21   -1    0    0  503  502 -0.00000000000E+00 -0.00000000000E+00 -0.31420234560E+03  0.31420234560E+03  0.00000000000E+00 0.  1.
         25    1    1    2    0    0  0.24685354799E+03 -0.11508787800E+03  0.57717602789E+03  0.65033765153E+03  0.12500000000E+03 0.  0.
         21    1    1    2  503  504 -0.14866800174E+02  0.28980513180E+02 -0.62209708278E+02  0.70220650066E+02  0.00000000000E+00 0.  1.
         21    1    1    2  504  501 -0.23198674782E+03  0.86107364823E+02 -0.13899565349E+03  0.28381705574E+03  0.00000000000E+00 0.  1.
<mgrwt>
<rscale>  4 0.29624868E+03</rscale>
<asrwt>0</asrwt>
<pdfrwt beam="1">  1       21 0.10618046E+00 0.29624868E+03</pdfrwt>
<pdfrwt beam="2">  1       21 0.48338823E-01 0.29624868E+03</pdfrwt>
<totfact> 0.27004538E+03</totfact>
</mgrwt>
</event>
<event>
 5    0  0.2793158E+000  0.3197503E+03  0.7546771E-02  0.1075764E+00
         21   -1    0    0  502  501  0.00000000000E+00  0.00000000000E+00  0.85976232862E+02  0.85976232862E+02  0.00000000000E+00 0.  1.
         21   -1    0    0  503  502 -0.00000000000E+00 -0.00000000000E+00 -0.11889456630E+04  0.11889456630E+04  0.00000000000E+00 0.  1.
         25    1    1    2    0    0  0.29275335409E+03 -0.30178334246E+02 -0.45859692970E+03  0.55906296794E+03  0.12500000000E+03 0.  0.
         21    1    1    2  503  504 -0.65413044172E+02 -0.61700638017E+01 -0.25671422712E+03  0.26498892512E+03  0.00000000000E+00 0.  1.
         21    1    1    2  504  501 -0.22734030992E+03  0.36348398047E+02 -0.38765827335E+03  0.45087000283E+03  0.00000000000E+00 0.  1.
<mgrwt>
<rscale>  4 0.31975031E+03</rscale>
<asrwt>0</asrwt>
<pdfrwt beam="1">  1       21 0.13227114E-01 0.31975031E+03</pdfrwt>
<pdfrwt beam="2">  1       21 0.18291470E+00 0.31975031E+03</pdfrwt>
<totfact> 0.78819600E+03</totfact>
</mgrwt>
</event>
