<LesHouchesEvents version="3.0">
  <!--
  <scalesfunctionalform>
    muR  H_T/2 := sum_i mT(i)/2, i=final state
    muF1 H_T/2 := sum_i mT(i)/2, i=final state
    muF2 H_T/2 := sum_i mT(i)/2, i=final state
    QES  H_T/2 := sum_i mT(i)/2, i=final state
  </scalesfunctionalform>
HERWIG6   
  -->
  <header>
      103
  </header>
  <init>
   2212   2212 0.65000000D+04 0.65000000D+04 -1 -1   247000   247000 -3   1
 0.22968485D-01 0.50309281D-03 0.47607883D-03     66
  </init>
  <event>
  5     66 0.47607883E-03 0.22990312E+02 0.75467711E-02 0.12328184E+00
       -1 -1    0    0    0  501 0.00000000E+00 0.00000000E+00 0.57503116E+02 0.57504006E+02 0.32000000E+00 0.0000E+00 0.9000E+01
        1 -1    0    0  502    0 0.00000000E+00 0.00000000E+00 -.29671009E+03 0.29671026E+03 0.32000000E+00 0.0000E+00 0.9000E+01
       25  1    1    2    0    0 0.12411285E+02 -.12177596E+02 -.13920767E+03 0.18789920E+03 0.12500000E+03 0.0000E+00 0.9000E+01
       23  1    1    2    0    0 0.34220157E+01 0.28841293E+02 -.10573330E+03 0.14261246E+03 0.91188000E+02 0.0000E+00 0.9000E+01
       21  1    1    2  502  501 -.15833300E+02 -.16663697E+02 0.57340050E+01 0.23702605E+02 0.75000000E+00 0.0000E+00 0.9000E+01
#aMCatNLO 1  0  0  2  5 0.80931553D+01 0.00000000D+00  -5  6  0 0.00000000D+00 0.00000000D+00 0.00000000D+00 0.00000000D+00 0.00000000D+00
  <mgrwgt>
 0.6697904465D-01   11    4    0
 0.130621371269292D+03 0.000000000000000D+00 0.000000000000000D+00 0.130621371269292D+03
 0.130621371269292D+03 0.000000000000000D+00 0.000000000000000D+00 -.130621371269292D+03
 0.127303937026255D+03 0.124128373514197D+02 -.121759618368175D+02 -.167020898279293D+02
 0.965516092723608D+02 0.342319339995598D+01 0.288425325951247D+02 -.127809220922551D+02
 0.373871962399685D+02 -.158360307513757D+02 -.166665707583072D+02 0.294830119201844D+02
 0.000000000000000D+00 -.000000000000000D+00 0.000000000000000D+00 -.000000000000000D+00
 0.132001154391177D+03 0.000000000000000D+00 0.000000000000000D+00 0.132001154391177D+03
 0.143116326728404D+03 0.000000000000000D+00 0.000000000000000D+00 -.143116326728404D+03
 0.127827376742269D+03 0.162533288480350D+02 -.131037300623715D+02 -.167020898279293D+02
 0.964911948250447D+02 0.632906660175161D+01 0.281405451472965D+02 -.127809220922551D+02
 0.370495016378712D+02 -.147155351876859D+02 -.169372549094846D+02 0.294830119201844D+02
 0.137494079143954D+02 -.786686026210073D+01 0.190043982455966D+01 -.111151723372265D+02
 0.130621371269292D+03 0.000000000000000D+00 0.000000000000000D+00 0.130621371269292D+03
 0.130621371269292D+03 0.000000000000000D+00 0.000000000000000D+00 -.130621371269292D+03
 0.127303937026255D+03 0.124128373514197D+02 -.121759618368175D+02 -.167020898279293D+02
 0.965516092723608D+02 0.342319339995598D+01 0.288425325951247D+02 -.127809220922551D+02
 0.000000000000000D+00 -.000000000000000D+00 0.000000000000000D+00 -.000000000000000D+00
 0.373871962399685D+02 -.158360307513757D+02 -.166665707583072D+02 0.294830119201844D+02
 0.132001154391177D+03 0.000000000000000D+00 0.000000000000000D+00 0.132001154391177D+03
 0.143116326728404D+03 0.000000000000000D+00 0.000000000000000D+00 -.143116326728404D+03
 0.127827376742269D+03 0.162533288480350D+02 -.131037300623715D+02 -.167020898279293D+02
 0.964911948250447D+02 0.632906660175161D+01 0.281405451472965D+02 -.127809220922551D+02
 0.137494079143954D+02 -.786686026210073D+01 0.190043982455966D+01 -.111151723372265D+02
 0.370495016378712D+02 -.147155351876859D+02 -.169372549094846D+02 0.294830119201844D+02
0.373941768689D-04 0.000000000000D+00 0.000000000000D+00 0.393707485136D-04 0.000000000000D+00  6 -1 1 25 23 21 21 2 0.88467149D-02 0.45647787D-01 0.14993487D+05 0.14993487D+05 0.14993487D+05 0.12478440D+01  1  2  2  2  6  2        1 0.361645746102D-01 0.100000000000D+01
0.465153677508D-05 0.197334492796D-05 -.143603485289D-06 0.393707485136D-04 0.000000000000D+00  6 -1 1 25 23 21 21 4 0.88467149D-02 0.45647787D-01 0.14993487D+05 0.14993487D+05 0.14993487D+05 0.12478440D+01  1  2  3  2  6  2        1 0.700481157954D-02 0.100000000000D+01
0.105133627855D-05 0.000000000000D+00 0.000000000000D+00 0.393707485136D-04 0.000000000000D+00  6 -1 1 25 23 21 21 4 0.88467149D-02 0.45647787D-01 0.14993487D+05 0.14993487D+05 0.14993487D+05 0.12478440D+01  1  2 15  2  6  2        1 0.158322139415D-02 0.100000000000D+01
0.447074836279D-03 0.000000000000D+00 0.000000000000D+00 0.391707619851D-04 0.000000000000D+00  6 -1 1 25 23 21 21 4 0.88467149D-02 0.50956803D-01 0.15989936D+05 0.15989936D+05 0.15989936D+05 0.12446707D+01  1  2 12  2  6  2        1 0.582863418512D+00 0.100000000000D+01
-.457316842864D-03 0.000000000000D+00 0.000000000000D+00 0.393707485136D-04 0.000000000000D+00  6 -1 1 25 23 21 21 4 0.88467149D-02 0.45647787D-01 0.14993487D+05 0.14993487D+05 0.14993487D+05 0.12478440D+01  1  2  4  2  6  2        1 -.688679563617D+00 0.100000000000D+01
-.894634194180D-03 0.000000000000D+00 -.103334716645D-03 0.393707485136D-04 0.000000000000D+00  6 -1 1 25 23 21 21 4 0.88467149D-02 0.50379670D-01 0.14993487D+05 0.14993487D+05 0.14993487D+05 0.12478440D+01  1  2  5  2  6  2        1 -.119268374231D+01 0.100000000000D+01
0.900941069407D-03 0.000000000000D+00 0.102834106054D-03 0.393707485136D-04 0.000000000000D+00  6 -1 1 25 23 21 21 4 0.88467149D-02 0.45647787D-01 0.14993487D+05 0.14993487D+05 0.14993487D+05 0.12478440D+01  1  2  6  2  6  2        1 0.135673923278D+01 0.100000000000D+01
0.149595512644D-05 0.000000000000D+00 0.000000000000D+00 0.393707485136D-04 0.273769639282D-05  6 -1 1 25 23 21 21 4 0.89401648D-02 0.50014355D-01 0.15989936D+05 0.15989936D+05 0.15989936D+05 0.12446707D+01  1  2 11  2  6  2        1 0.196447791077D-02 0.100000000000D+01
0.789010858796D-05 0.000000000000D+00 0.000000000000D+00 0.391707619851D-04 0.000000000000D+00  6 -1 21 25 23 -1 21 4 0.88467149D-02 0.50956803D-01 0.15989936D+05 0.15989936D+05 0.15989936D+05 0.12446707D+01  3  4 12  5  5  2        1 0.454804999666D-01 0.100000000000D+01
-.140267879174D-04 0.000000000000D+00 -.165853000194D-05 0.393707485136D-04 0.000000000000D+00  6 -1 21 25 23 -1 21 4 0.88467149D-02 0.50379670D-01 0.14993487D+05 0.14993487D+05 0.14993487D+05 0.12478440D+01  3  4  5  5  5  2        1 -.835884818240D-01 0.100000000000D+01
0.221489942740D-07 0.000000000000D+00 0.000000000000D+00 0.393707485136D-04 0.791351520749D-07  6 -1 21 25 23 -1 21 4 0.89401648D-02 0.50014355D-01 0.15989936D+05 0.15989936D+05 0.15989936D+05 0.12446707D+01  3  4 11  5  5  2        1 0.130595646207D-03 0.100000000000D+01
  </mgrwgt>
  </event>
  <event>
  5     66 0.47607883E-03 0.41470809E+02 0.75467711E-02 0.11438761E+00
       -1 -1    0    0    0  501 0.00000000E+00 0.00000000E+00 0.10229381E+04 0.10229382E+04 0.32000000E+00 0.0000E+00 0.9000E+01
        1 -1    0    0  502    0 0.00000000E+00 0.00000000E+00 -.46190314E+02 0.46191422E+02 0.32000000E+00 0.0000E+00 0.9000E+01
       25  1    1    2    0    0 0.18673142E+02 -.17161620E+03 0.55288910E+03 0.59254719E+03 0.12500000E+03 0.0000E+00 0.9000E+01
       23  1    1    2    0    0 -.40706114E+02 0.13648869E+03 0.28237765E+03 0.32914820E+03 0.91188000E+02 0.0000E+00 0.9000E+01
       21  1    1    2  502  501 0.22032972E+02 0.35127508E+02 0.14148105E+03 0.14743420E+03 0.75000000E+00 0.0000E+00 0.9000E+01
#aMCatNLO 1  0  0  5  2 0.76958495D+01 0.00000000D+00  -5  6  0 0.00000000D+00 0.00000000D+00 0.00000000D+00 0.00000000D+00 0.00000000D+00
  <mgrwgt>
 0.1177377008D+00   14    2    0
 0.217371689670815D+03 0.000000000000000D+00 0.000000000000000D+00 0.217371689670815D+03
 0.217371689670815D+03 -.000000000000000D+00 -.000000000000000D+00 -.217371689670815D+03
 0.215017041218718D+03 0.186716081305253D+02 -.171618644538297D+03 0.283855581433509D+02
 0.175022539127572D+03 -.407073625918062D+02 0.136486700591568D+03 -.450769237094719D+02
 0.447037989953411D+02 0.220357544612808D+02 0.351319439467290D+02 0.166913655661210D+02
 0.000000000000000D+00 -.000000000000000D+00 0.000000000000000D+00 0.000000000000000D+00
 0.217371689670815D+03 0.000000000000000D+00 0.000000000000000D+00 0.217371689670815D+03
 0.217371689670815D+03 -.000000000000000D+00 -.000000000000000D+00 -.217371689670815D+03
 0.210294203332102D+03 0.231507751233067D+02 -.164477439366723D+03 0.317783811047605D+02
 0.178190540361357D+03 -.369874976991289D+02 0.142417338688329D+03 -.422592473331375D+02
 0.103830107907284D+02 -.176344516480751D+01 -.313542531096400D+01 -.973993235861862D+01
 0.358756248574438D+02 0.156001677406296D+02 0.251955259893579D+02 0.202207985869957D+02
0.192370084708D-02 0.000000000000D+00 0.000000000000D+00 0.644235456743D-05 0.000000000000D+00  6 -1 1 25 23 21 21 2 0.15737518D+00 0.71062912D-02 0.44885535D+05 0.44885535D+05 0.44885535D+05 0.11969510D+01  1  2  2  3  6  5       21 0.939803244202D-01 0.100000000000D+01
0.292978146204D-03 0.101516482708D-03 -.738751777484D-05 0.644235456743D-05 0.000000000000D+00  6 -1 1 25 23 21 21 4 0.15737518D+00 0.71062912D-02 0.44885535D+05 0.44885535D+05 0.44885535D+05 0.11969510D+01  1  2  3  3  6  5       21 0.205063034575D-01 0.100000000000D+01
0.209889913442D-04 0.000000000000D+00 0.000000000000D+00 0.644235456743D-05 0.000000000000D+00  6 -1 1 25 23 21 21 4 0.15737518D+00 0.71062912D-02 0.44885535D+05 0.44885535D+05 0.44885535D+05 0.11969510D+01  1  2 15  3  6  5       21 0.146907416594D-02 0.100000000000D+01
0.319752757436D-03 0.000000000000D+00 0.000000000000D+00 0.646369326383D-05 0.000000000000D+00  6 -1 1 25 23 21 21 4 0.15737518D+00 0.71062912D-02 0.42894063D+05 0.42894063D+05 0.42894063D+05 0.11989317D+01  1  2 12  3  6  5       21 0.225308741682D-01 0.100000000000D+01
-.394286726372D-03 0.000000000000D+00 0.000000000000D+00 0.644235456743D-05 0.000000000000D+00  6 -1 1 25 23 21 21 4 0.15737518D+00 0.71062912D-02 0.44885535D+05 0.44885535D+05 0.44885535D+05 0.11969510D+01  1  2  4  3  6  5       21 -.275971548220D-01 0.100000000000D+01
0.221350827748D-05 0.000000000000D+00 0.000000000000D+00 0.644235456743D-05 0.326926875595D-05  6 -1 1 25 23 21 21 4 0.15737518D+00 0.71062912D-02 0.42894063D+05 0.42894063D+05 0.42894063D+05 0.11989317D+01  1  2 11  3  6  5       21 0.155971372601D-03 0.100000000000D+01
0.235779640200D-04 0.000000000000D+00 0.000000000000D+00 0.646369326383D-05 0.000000000000D+00  6 -1 1 25 23 1 -1 4 0.15737518D+00 0.71062912D-02 0.42894063D+05 0.42894063D+05 0.42894063D+05 0.11989317D+01  1  2 12  6  6  5       21 0.166138407918D-02 0.100000000000D+01
0.349427311839D-07 0.000000000000D+00 0.000000000000D+00 0.646369326383D-05 0.746370510016D-08  6 -1 1 25 23 1 -1 4 0.15737518D+00 0.71062912D-02 0.42894063D+05 0.42894063D+05 0.42894063D+05 0.11989317D+01  1  2 11  6  6  5       21 0.246218448814D-05 0.100000000000D+01
0.235779640200D-04 0.000000000000D+00 0.000000000000D+00 0.646369326383D-05 0.000000000000D+00  6 -1 1 25 23 2 -2 4 0.15737518D+00 0.71062912D-02 0.42894063D+05 0.42894063D+05 0.42894063D+05 0.11989317D+01  1  2 12  7  6  5       21 0.166138407918D-02 0.100000000000D+01
0.235779640200D-04 0.000000000000D+00 0.000000000000D+00 0.646369326383D-05 0.000000000000D+00  6 -1 1 25 23 4 -4 4 0.15737518D+00 0.71062912D-02 0.42894063D+05 0.42894063D+05 0.42894063D+05 0.11989317D+01  1  2 12  7  6  5       21 0.166138407918D-02 0.100000000000D+01
0.209519574673D-06 0.000000000000D+00 0.000000000000D+00 0.646369326383D-05 0.381785414204D-08  6 -1 1 25 23 2 -2 4 0.15737518D+00 0.71062912D-02 0.42894063D+05 0.42894063D+05 0.42894063D+05 0.11989317D+01  1  2 11  7  6  5       21 0.147634666565D-04 0.100000000000D+01
0.209519574673D-06 0.000000000000D+00 0.000000000000D+00 0.646369326383D-05 0.381785414204D-08  6 -1 1 25 23 4 -4 4 0.15737518D+00 0.71062912D-02 0.42894063D+05 0.42894063D+05 0.42894063D+05 0.11989317D+01  1  2 11  7  6  5       21 0.147634666565D-04 0.100000000000D+01
0.235779640200D-04 0.000000000000D+00 0.000000000000D+00 0.646369326383D-05 0.000000000000D+00  6 -1 1 25 23 3 -3 4 0.15737518D+00 0.71062912D-02 0.42894063D+05 0.42894063D+05 0.42894063D+05 0.11989317D+01  1  2 12  8  6  5       21 0.166138407918D-02 0.100000000000D+01
0.209791771396D-06 0.000000000000D+00 0.000000000000D+00 0.646369326383D-05 0.382281409571D-08  6 -1 1 25 23 3 -3 4 0.15737518D+00 0.71062912D-02 0.42894063D+05 0.42894063D+05 0.42894063D+05 0.11989317D+01  1  2 11  8  6  5       21 0.147826465696D-04 0.100000000000D+01
  </mgrwgt>
  </event>
  <event>
  5     66 0.47607883E-03 0.30617941E+02 0.75467711E-02 0.10922169E+00
       -1 -1    0    0    0  501 0.00000000E+00 0.00000000E+00 0.21424504E+02 0.21426893E+02 0.32000000E+00 0.0000E+00 0.9000E+01
        1 -1    0    0  502    0 0.00000000E+00 0.00000000E+00 -.95123390E+03 0.95123396E+03 0.32000000E+00 0.0000E+00 0.9000E+01
       25  1    1    2    0    0 0.11855045E+02 -.27420260E+02 -.38657440E+03 0.40737842E+03 0.12500000E+03 0.0000E+00 0.9000E+01
       23  1    1    2    0    0 -.24626234E+02 -.40385747E+00 -.51512391E+03 0.52371224E+03 0.91188000E+02 0.0000E+00 0.9000E+01
       21  1    1    2  502  501 0.12771190E+02 0.27824118E+02 -.28111093E+02 0.41570192E+02 0.75000000E+00 0.0000E+00 0.9000E+01
#aMCatNLO 1  0  0  2  5 0.80931553D+01 0.00000000D+00  -5  6  0 0.00000000D+00 0.00000000D+00 0.00000000D+00 0.00000000D+00 0.00000000D+00
  <mgrwgt>
 0.1403269265D+00    3    2    0
 0.142761698284522D+03 0.000000000000000D+00 0.000000000000000D+00 0.142761698284522D+03
 0.142761698284522D+03 0.000000000000000D+00 0.000000000000000D+00 -.142761698284522D+03
 0.128888064281788D+03 0.118543978872555D+02 -.274216697790359D+02 0.972925441986591D+01
 0.106567776041414D+03 -.246267691790374D+02 -.405022790979997D+00 -.493436697333516D+02
 0.500675562458429D+02 0.127723712917818D+02 0.278266925700159D+02 0.396144153134857D+02
 0.000000000000000D+00 0.000000000000000D+00 -.000000000000000D+00 0.000000000000000D+00
 0.315082977172693D+03 0.000000000000000D+00 0.000000000000000D+00 0.315082977172693D+03
 0.281590302435797D+03 0.000000000000000D+00 0.000000000000000D+00 -.281590302435797D+03
 0.145219858551447D+03 -.689877272068958D+02 0.246949877700486D+02 0.972925441986591D+01
 0.152887436224040D+03 -.101147398387754D+03 0.489256871979841D+02 -.493436697333516D+02
 0.676044508656133D+02 -.219324085652081D+02 0.501998937323634D+02 0.396144153134857D+02
 0.230961533967388D+03 0.192067534159857D+03 -.123820568700396D+03 0.334926747368958D+02
0.139946843380D-03 0.000000000000D+00 0.000000000000D+00 0.202898130830D-04 0.000000000000D+00  6 -1 1 25 23 21 21 2 0.32962654D-02 0.14634387D+00 0.16077485D+05 0.16077485D+05 0.16077485D+05 0.12444026D+01  1  2  2  2  6  2        1 0.120163702251D+00 0.100000000000D+01
0.900338005604D-05 0.738519782200D-05 -.537432727428D-06 0.202898130830D-04 0.000000000000D+00  6 -1 1 25 23 21 21 4 0.32962654D-02 0.14634387D+00 0.16077485D+05 0.16077485D+05 0.16077485D+05 0.12444026D+01  1  2  3  2  6  2        1 0.119711975494D-01 0.100000000000D+01
0.616111542875D-05 0.000000000000D+00 0.000000000000D+00 0.202898130830D-04 0.000000000000D+00  6 -1 1 25 23 21 21 4 0.32962654D-02 0.14634387D+00 0.16077485D+05 0.16077485D+05 0.16077485D+05 0.12444026D+01  1  2 15  2  6  2        1 0.819202671251D-02 0.100000000000D+01
  </mgrwgt>
  </event>
  <event>
  5     66 0.47607883E-03 0.70213795E+02 0.75467711E-02 0.11895791E+00
       -1 -1    0    0    0  501 0.00000000E+00 0.00000000E+00 0.37638698E+03 0.37638711E+03 0.32000000E+00 0.0000E+00 0.9000E+01
        1 -1    0    0  502    0 0.00000000E+00 0.00000000E+00 -.82451020E+02 0.82451641E+02 0.32000000E+00 0.0000E+00 0.9000E+01
       25  1    1    2    0    0 -.80115304E+02 -.30047410E+02 0.10643738E+03 0.18513569E+03 0.12500000E+03 0.0000E+00 0.9000E+01
       23  1    1    2    0    0 0.43035179E+01 0.18128621E+02 0.28808176E+02 0.97428587E+02 0.91188000E+02 0.0000E+00 0.9000E+01
       21  1    1    2  502  501 0.75811787E+02 0.11918790E+02 0.15869040E+03 0.17627448E+03 0.75000000E+00 0.0000E+00 0.9000E+01
#aMCatNLO 1  0  0  5  1 0.10421025D+02 0.00000000D+00  -5  6  0 0.00000000D+00 0.00000000D+00 0.00000000D+00 0.00000000D+00 0.00000000D+00
  <mgrwgt>
 0.2165639268D-01   20    2    0
 0.176163742042018D+03 0.000000000000000D+00 0.000000000000000D+00 0.176163742042018D+03
 0.176163742042018D+03 -.000000000000000D+00 -.000000000000000D+00 -.176163742042018D+03
 0.152306816092921D+03 -.801162806248877D+02 -.300475639001093D+02 -.158395615742985D+02
 0.102848389274056D+03 0.430285869791125D+01 0.181285171425849D+02 -.437650786073171D+02
 0.971722787170584D+02 0.758134219269765D+02 0.119190467575245D+02 0.596046401816156D+02
 0.000000000000000D+00 0.000000000000000D+00 0.000000000000000D+00 0.000000000000000D+00
 0.176163742042018D+03 0.000000000000000D+00 0.000000000000000D+00 0.176163742042018D+03
 0.176163742042018D+03 -.000000000000000D+00 -.000000000000000D+00 -.176163742042018D+03
 0.151482102087782D+03 -.788144271385145D+02 -.298428923237429D+02 -.148160421676795D+02
 0.102620989713842D+03 0.518337477789291D+01 0.182669479383635D+02 -.430728153802069D+02
 0.187476324114770D+02 0.185350497190183D+02 0.247799539143908D+01 0.133611069503722D+01
 0.794767598709355D+02 0.550960026416033D+02 0.909794899394031D+01 0.565527468528492D+02
0.395444600341D-04 0.000000000000D+00 0.000000000000D+00 0.359179273144D-05 0.000000000000D+00  6 -1 1 25 23 21 21 2 0.57905747D-01 0.12684831D-01 0.25808042D+05 0.25808042D+05 0.25808042D+05 0.12218193D+01  1  2  2  3  6  5       21 0.842999612916D-02 0.100000000000D+01
-.186009666440D-05 0.208681848810D-05 -.151861138826D-06 0.359179273144D-05 0.000000000000D+00  6 -1 1 25 23 21 21 4 0.57905747D-01 0.12684831D-01 0.25808042D+05 0.25808042D+05 0.25808042D+05 0.12218193D+01  1  2  3  3  6  5       21 -.591958383804D-03 0.100000000000D+01
0.151086276586D-05 0.000000000000D+00 0.000000000000D+00 0.359179273144D-05 0.000000000000D+00  6 -1 1 25 23 21 21 4 0.57905747D-01 0.12684831D-01 0.25808042D+05 0.25808042D+05 0.25808042D+05 0.12218193D+01  1  2 15  3  6  5       21 0.480817958630D-03 0.100000000000D+01
0.622861292396D-05 0.000000000000D+00 0.000000000000D+00 0.359666944044D-05 0.000000000000D+00  6 -1 1 25 23 21 21 4 0.57905747D-01 0.12684831D-01 0.25351304D+05 0.25351304D+05 0.25351304D+05 0.12226484D+01  1  2 12  3  6  5       21 0.198704929675D-02 0.100000000000D+01
0.705113172075D-05 0.000000000000D+00 0.000000000000D+00 0.359666944044D-05 0.000000000000D+00  6 -1 1 25 23 21 21 4 0.57905747D-01 0.12684831D-01 0.25351304D+05 0.25351304D+05 0.25351304D+05 0.12226484D+01  1  2 12  3  6  5       21 0.224944887378D-02 0.100000000000D+01
-.321635578417D-04 0.000000000000D+00 0.000000000000D+00 0.359179273144D-05 0.000000000000D+00  6 -1 1 25 23 21 21 4 0.57905747D-01 0.12684831D-01 0.25808042D+05 0.25808042D+05 0.25808042D+05 0.12218193D+01  1  2  4  3  6  5       21 -.102357517659D-01 0.100000000000D+01
-.119961785583D-04 0.000000000000D+00 0.000000000000D+00 0.359179273144D-05 0.000000000000D+00  6 -1 1 25 23 21 21 4 0.57905747D-01 0.12684831D-01 0.25808042D+05 0.25808042D+05 0.25808042D+05 0.12218193D+01  1  2  5  3  6  5       21 -.381767174099D-02 0.100000000000D+01
0.678118207393D-04 0.000000000000D+00 -.000000000000D+00 0.359179273144D-05 0.000000000000D+00  6 -1 1 25 23 21 21 4 0.57905747D-01 0.12684831D-01 0.25808042D+05 0.25808042D+05 0.25808042D+05 0.12218193D+01  1  2  6  3  6  5       21 0.215804783568D-01 0.100000000000D+01
0.162449498042D-05 0.000000000000D+00 0.000000000000D+00 0.359666944044D-05 0.000000000000D+00  6 -1 1 25 23 1 -1 4 0.57905747D-01 0.12684831D-01 0.25351304D+05 0.25351304D+05 0.25351304D+05 0.12226484D+01  1  2 12  6  6  5       21 0.518245658837D-03 0.100000000000D+01
0.174448334595D-05 0.000000000000D+00 0.000000000000D+00 0.359666944044D-05 0.000000000000D+00  6 -1 1 25 23 1 -1 4 0.57905747D-01 0.12684831D-01 0.25351304D+05 0.25351304D+05 0.25351304D+05 0.12226484D+01  1  2 12  6  6  5       21 0.556524293304D-03 0.100000000000D+01
-.214075087555D-05 0.000000000000D+00 0.000000000000D+00 0.359179273144D-05 0.000000000000D+00  6 -1 1 25 23 1 -1 4 0.57905747D-01 0.12684831D-01 0.25808042D+05 0.25808042D+05 0.25808042D+05 0.12218193D+01  1  2  5  6  6  5       21 -.681273964238D-03 0.100000000000D+01
0.162449498042D-05 0.000000000000D+00 0.000000000000D+00 0.359666944044D-05 0.000000000000D+00  6 -1 1 25 23 2 -2 4 0.57905747D-01 0.12684831D-01 0.25351304D+05 0.25351304D+05 0.25351304D+05 0.12226484D+01  1  2 12  7  6  5       21 0.518245658837D-03 0.100000000000D+01
0.162449498042D-05 0.000000000000D+00 0.000000000000D+00 0.359666944044D-05 0.000000000000D+00  6 -1 1 25 23 4 -4 4 0.57905747D-01 0.12684831D-01 0.25351304D+05 0.25351304D+05 0.25351304D+05 0.12226484D+01  1  2 12  7  6  5       21 0.518245658837D-03 0.100000000000D+01
0.174448334595D-05 0.000000000000D+00 0.000000000000D+00 0.359666944044D-05 0.000000000000D+00  6 -1 1 25 23 2 -2 4 0.57905747D-01 0.12684831D-01 0.25351304D+05 0.25351304D+05 0.25351304D+05 0.12226484D+01  1  2 12  7  6  5       21 0.556524293304D-03 0.100000000000D+01
0.174448334595D-05 0.000000000000D+00 0.000000000000D+00 0.359666944044D-05 0.000000000000D+00  6 -1 1 25 23 4 -4 4 0.57905747D-01 0.12684831D-01 0.25351304D+05 0.25351304D+05 0.25351304D+05 0.12226484D+01  1  2 12  7  6  5       21 0.556524293304D-03 0.100000000000D+01
-.214075087555D-05 0.000000000000D+00 0.000000000000D+00 0.359179273144D-05 0.000000000000D+00  6 -1 1 25 23 2 -2 4 0.57905747D-01 0.12684831D-01 0.25808042D+05 0.25808042D+05 0.25808042D+05 0.12218193D+01  1  2  5  7  6  5       21 -.681273964238D-03 0.100000000000D+01
-.214075087555D-05 0.000000000000D+00 0.000000000000D+00 0.359179273144D-05 0.000000000000D+00  6 -1 1 25 23 4 -4 4 0.57905747D-01 0.12684831D-01 0.25808042D+05 0.25808042D+05 0.25808042D+05 0.12218193D+01  1  2  5  7  6  5       21 -.681273964238D-03 0.100000000000D+01
0.162449498042D-05 0.000000000000D+00 0.000000000000D+00 0.359666944044D-05 0.000000000000D+00  6 -1 1 25 23 3 -3 4 0.57905747D-01 0.12684831D-01 0.25351304D+05 0.25351304D+05 0.25351304D+05 0.12226484D+01  1  2 12  8  6  5       21 0.518245658837D-03 0.100000000000D+01
0.174448334595D-05 0.000000000000D+00 0.000000000000D+00 0.359666944044D-05 0.000000000000D+00  6 -1 1 25 23 3 -3 4 0.57905747D-01 0.12684831D-01 0.25351304D+05 0.25351304D+05 0.25351304D+05 0.12226484D+01  1  2 12  8  6  5       21 0.556524293304D-03 0.100000000000D+01
-.214075087555D-05 0.000000000000D+00 0.000000000000D+00 0.359179273144D-05 0.000000000000D+00  6 -1 1 25 23 3 -3 4 0.57905747D-01 0.12684831D-01 0.25808042D+05 0.25808042D+05 0.25808042D+05 0.12218193D+01  1  2  5  8  6  5       21 -.681273964238D-03 0.100000000000D+01
  </mgrwgt>
  </event>
  <event>
  6     66 0.47607883E-03 0.14877258E+02 0.75467711E-02 0.12097391E+00
       -1 -1    0    0    0  501 0.00000000E+00 0.00000000E+00 0.14066872E+03 0.14066909E+03 0.32000000E+00 0.0000E+00 0.9000E+01
        1 -1    0    0  503    0 0.00000000E+00 0.00000000E+00 -.20495017E+03 0.20495042E+03 0.32000000E+00 0.0000E+00 0.9000E+01
       25  1    1    2    0    0 0.30306878E+02 0.15236195E+02 0.90212878E+01 0.12983463E+03 0.12500000E+03 0.0000E+00 0.9000E+01
       23  1    1    2    0    0 -.66705947E+02 -.28504333E+02 -.67211001E+02 0.13451673E+03 0.91188000E+02 0.0000E+00 0.9000E+01
       21  1    1    2  502  501 0.13824220E+02 0.86713896E+01 0.32466885E+02 0.36345057E+02 0.75000000E+00 0.0000E+00 0.9000E+01
       21  1    1    2  503  502 0.22574849E+02 0.45967481E+01 -.38558622E+02 0.44923087E+02 0.75000000E+00 0.0000E+00 0.9000E+01
#aMCatNLO 2  0  0  2  5 0.29578923D+02 0.00000000D+00  -5  6  0 0.00000000D+00 0.00000000D+00 0.00000000D+00 0.00000000D+00 0.00000000D+00
  <mgrwgt>
 0.7952304583D-01    1    2    0
 0.149353539557570D+03 0.000000000000000D+00 0.000000000000000D+00 0.149353539557570D+03
 0.149353539557570D+03 0.000000000000000D+00 0.000000000000000D+00 -.149353539557570D+03
 0.134000191926405D+03 0.403077726610892D+02 0.172721535895789D+02 0.201991982463008D+02
 0.124146658958707D+03 -.571464982887670D+02 -.265582299513758D+02 -.559113561076045D+02
 0.405602282300286D+02 0.168387256276778D+02 0.928607636179688D+01 0.357121578613037D+02
 0.000000000000000D+00 0.000000000000000D+00 0.000000000000000D+00 -.000000000000000D+00
 0.153260949296005D+03 0.000000000000000D+00 0.000000000000000D+00 0.153260949296005D+03
 0.188103634658056D+03 0.000000000000000D+00 0.000000000000000D+00 -.188103634658056D+03
 0.131086080053742D+03 0.303056502311598D+02 0.152354959922277D+02 0.201991982463008D+02
 0.129242908153393D+03 -.667072856271315D+02 -.285050217753863D+02 -.559113561076045D+02
 0.392651923009344D+02 0.138267868229739D+02 0.867277772519936D+01 0.357121578613037D+02
 0.417704034459923D+02 0.225748485729979D+02 0.459674805795931D+01 -.348426853620503D+02
0.140369112675D-03 0.000000000000D+00 0.000000000000D+00 0.361316333835D-04 0.486068990921D-06  6 -1 1 25 23 21 21 4 0.21640922D-01 0.31530163D-01 0.20363778D+05 0.20363778D+05 0.20363778D+05 0.12329651D+01  1  2  1  2  6  2        1 0.795230458297D-01 0.100000000000D+01
  </mgrwgt>
  </event>
  <event>
  6     66 0.47607883E-03 0.38473920E+02 0.75467711E-02 0.11707803E+00
       21 -1    0    0  503  501 0.00000000E+00 0.00000000E+00 0.54597381E+03 0.54597432E+03 0.75000000E+00 0.0000E+00 0.9000E+01
        3 -1    0    0  502    0 0.00000000E+00 0.00000000E+00 -.64367819E+02 0.64369761E+02 0.50000000E+00 0.0000E+00 0.9000E+01
       25  1    1    2    0    0 0.79165077E+02 0.67973935E+02 0.23717282E+03 0.28768648E+03 0.12500000E+03 0.0000E+00 0.9000E+01
       23  1    1    2    0    0 -.53705739E+02 -.33892432E+02 0.74789517E+02 0.13394673E+03 0.91188000E+02 0.0000E+00 0.9000E+01
        3  1    1    2  503    0 -.20980413E+02 0.18026420E+02 0.83150155E+02 0.87631775E+02 0.50000000E+00 0.0000E+00 0.9000E+01
       21  1    1    2  502  501 -.44789257E+01 -.52107923E+02 0.86493496E+02 0.10107910E+03 0.75000000E+00 0.0000E+00 0.9000E+01
#aMCatNLO 2  0  0  1  2 0.27660975D+02 0.00000000D+00  -5  6  0 0.00000000D+00 0.00000000D+00 0.00000000D+00 0.00000000D+00 0.00000000D+00
  <mgrwgt>
 0.3691387922D-02    1    2    0
 0.168594170361310D+03 0.000000000000000D+00 0.000000000000000D+00 0.168594170361310D+03
 0.168594170361310D+03 0.000000000000000D+00 0.000000000000000D+00 -.168594170361310D+03
 0.164416094156803D+03 0.689295694520966D+02 0.767711482997749D+02 0.276144393689477D+02
 0.120795897166341D+03 -.611490751932425D+02 -.274950127498346D+02 -.422044109675611D+02
 0.000000000000000D+00 -.000000000000000D+00 0.000000000000000D+00 0.000000000000000D+00
 0.519763493994768D+02 -.778049425885406D+01 -.492761355499403D+02 0.145899715986134D+02
 0.200520512769228D+03 0.000000000000000D+00 0.000000000000000D+00 0.200520512769228D+03
 0.175260070186125D+03 0.000000000000000D+00 0.000000000000000D+00 -.175260070186125D+03
 0.165153044800425D+03 0.791655442655240D+02 0.679763749131521D+02 0.276144393689477D+02
 0.118866784601190D+03 -.537054741872354D+02 -.338905720611367D+02 -.422044109675611D+02
 0.374595716801979D+02 -.209804131999789D+02 0.180264198588566D+02 0.252604425831033D+02
 0.543011818735398D+02 -.447965687830968D+01 -.521122227108720D+02 0.145899715986134D+02
0.375451544652D-05 0.000000000000D+00 0.000000000000D+00 0.572713571853D-05 0.187730029841D-08  6 21 3 25 23 3 21 4 0.83995378D-01 0.99028382D-02 0.31314033D+05 0.31314033D+05 0.31314033D+05 0.12129492D+01  1  2  1  4  5  1       -3 0.369138792199D-02 0.100000000000D+01
  </mgrwgt>
  </event>
  <event>
  5     66 0.47607883E-03 0.31962590E+02 0.75467711E-02 0.11773625E+00
       -1 -1    0    0    0  501 0.00000000E+00 0.00000000E+00 0.17778327E+03 0.17778355E+03 0.32000000E+00 0.0000E+00 0.9000E+01
        1 -1    0    0  502    0 0.00000000E+00 0.00000000E+00 -.13309527E+03 0.13309565E+03 0.32000000E+00 0.0000E+00 0.9000E+01
       25  1    1    2    0    0 -.28706681E+02 -.48474872E+02 0.28006173E+02 0.13994010E+03 0.12500000E+03 0.0000E+00 0.9000E+01
       23  1    1    2    0    0 -.28228019E+01 0.53702695E+02 -.33849781E+02 0.11114408E+03 0.91188000E+02 0.0000E+00 0.9000E+01
       21  1    1    2  502  501 0.31529483E+02 -.52278236E+01 0.50531608E+02 0.59795019E+02 0.75000000E+00 0.0000E+00 0.9000E+01
#aMCatNLO 1  0  0  1  1 0.63208415D+02 0.00000000D+00  -5  6  0 0.00000000D+00 0.00000000D+00 0.00000000D+00 0.00000000D+00 0.00000000D+00
  <mgrwgt>
 0.8838595583D-01    4    2    0
 0.153825275492962D+03 0.000000000000000D+00 0.000000000000000D+00 0.153825275492962D+03
 0.153825275492962D+03 0.000000000000000D+00 0.000000000000000D+00 -.153825275492962D+03
 0.137340755684862D+03 -.287080858798265D+02 -.484746385469150D+02 0.797109747471171D+01
 0.117228173655161D+03 -.282400125840376D+01 0.537028939666114D+02 -.503509438941125D+02
 0.530816216459005D+02 0.315320871382302D+02 -.522825541969643D+01 0.423798464194008D+02
 0.000000000000000D+00 0.000000000000000D+00 -.000000000000000D+00 -.000000000000000D+00
 0.179478972684157D+03 0.000000000000000D+00 0.000000000000000D+00 0.179478972684157D+03
 0.201548055111839D+03 0.000000000000000D+00 0.000000000000000D+00 -.201548055111839D+03
 0.140998986158639D+03 -.539830064242450D+02 -.357492757998328D+02 0.797109747471171D+01
 0.125156788016621D+03 -.248340117830984D+02 0.647844468245764D+02 -.503509438941125D+02
 0.479209127440982D+02 0.223604502940477D+02 -.610539386856050D+00 0.423798464194008D+02
 0.669503408766377D+02 0.564565679132957D+02 -.284246316378876D+02 -.220690824276819D+02
0.216642517488D-03 0.000000000000D+00 0.000000000000D+00 0.167994504278D-04 0.000000000000D+00  6 -1 1 25 23 21 21 2 0.27351323D-01 0.20476246D-01 0.18897455D+05 0.18897455D+05 0.18897455D+05 0.12365465D+01  1  2  2  1  6  1       -1 0.949551971581D-01 0.100000000000D+01
0.156726767054D-04 0.114325397392D-04 -.831964310441D-06 0.167994504278D-04 0.000000000000D+00  6 -1 1 25 23 21 21 4 0.27351323D-01 0.20476246D-01 0.18897455D+05 0.18897455D+05 0.18897455D+05 0.12365465D+01  1  2  3  1  6  1       -1 0.105036225932D-01 0.100000000000D+01
0.881747928614D-05 0.000000000000D+00 0.000000000000D+00 0.167994504278D-04 0.000000000000D+00  6 -1 1 25 23 21 21 4 0.27351323D-01 0.20476246D-01 0.18897455D+05 0.18897455D+05 0.18897455D+05 0.12365465D+01  1  2 15  1  6  1       -1 0.590935909586D-02 0.100000000000D+01
-.342922594701D-04 0.000000000000D+00 0.000000000000D+00 0.167994504278D-04 0.000000000000D+00  6 -1 1 25 23 21 21 4 0.27351323D-01 0.20476246D-01 0.18897455D+05 0.18897455D+05 0.18897455D+05 0.12365465D+01  1  2  4  1  6  1       -1 -.229822230187D-01 0.100000000000D+01
  </mgrwgt>
  </event>
  <event>
  5     66 0.47607883E-03 0.40948437E+02 0.75467711E-02 0.11495552E+00
       -1 -1    0    0    0  501 0.00000000E+00 0.00000000E+00 0.14693328E+03 0.14693363E+03 0.32000000E+00 0.0000E+00 0.9000E+01
        1 -1    0    0  502    0 0.00000000E+00 0.00000000E+00 -.22967857E+03 0.22967879E+03 0.32000000E+00 0.0000E+00 0.9000E+01
       25  1    1    2    0    0 0.27311771E+01 -.12721857E+00 0.81640067E+02 0.14932373E+03 0.12500000E+03 0.0000E+00 0.9000E+01
       23  1    1    2    0    0 0.38126315E+02 0.28388874E+01 -.61231350E+02 0.11630221E+03 0.91188000E+02 0.0000E+00 0.9000E+01
       21  1    1    2  502  501 -.40857492E+02 -.27116688E+01 -.10315400E+03 0.11098648E+03 0.75000000E+00 0.0000E+00 0.9000E+01
#aMCatNLO 1  0  0  1  5 0.11764685D+03 0.00000000D+00  -5  6  0 0.00000000D+00 0.00000000D+00 0.00000000D+00 0.00000000D+00 0.00000000D+00
  <mgrwgt>
 0.4741155597D-01    6    4    0
 0.183705017582819D+03 0.000000000000000D+00 0.000000000000000D+00 0.183705017582819D+03
 0.183705017582819D+03 0.000000000000000D+00 0.000000000000000D+00 -.183705017582819D+03
 0.171451035230813D+03 0.273183137875172D+01 -.127175148678150D+00 0.117315721050152D+03
 0.105425005166880D+03 0.381267169086814D+02 0.283891407501040D+01 -.365714970308380D+02
 0.905339947679447D+02 -.408585482874331D+02 -.271173892633225D+01 -.807442240193139D+02
 0.000000000000000D+00 -.000000000000000D+00 0.000000000000000D+00 0.000000000000000D+00
 0.301200255239025D+03 0.000000000000000D+00 0.000000000000000D+00 0.301200255239025D+03
 0.224841021261380D+03 0.000000000000000D+00 0.000000000000000D+00 -.224841021261380D+03
 0.180612278053016D+03 0.375970397582626D+02 -.426530090309978D+02 0.117315721050152D+03
 0.117735177703462D+03 0.602265097135955D+02 -.241166717750877D+02 -.365714970308380D+02
 0.874386451072493D+02 -.232337264415458D+02 -.242091078181282D+02 -.807442240193139D+02
 0.140255175636678D+03 -.745898230303123D+02 0.909787886242137D+02 0.763592339776452D+02
 0.183705017582819D+03 0.000000000000000D+00 0.000000000000000D+00 0.183705017582819D+03
 0.183705017582819D+03 0.000000000000000D+00 0.000000000000000D+00 -.183705017582819D+03
 0.171451035230813D+03 0.273183137875172D+01 -.127175148678150D+00 0.117315721050152D+03
 0.105425005166880D+03 0.381267169086814D+02 0.283891407501040D+01 -.365714970308380D+02
 0.000000000000000D+00 -.000000000000000D+00 0.000000000000000D+00 0.000000000000000D+00
 0.905339947679447D+02 -.408585482874331D+02 -.271173892633225D+01 -.807442240193139D+02
 0.301200255239025D+03 0.000000000000000D+00 0.000000000000000D+00 0.301200255239025D+03
 0.224841021261380D+03 0.000000000000000D+00 0.000000000000000D+00 -.224841021261380D+03
 0.180612278053016D+03 0.375970397582626D+02 -.426530090309978D+02 0.117315721050152D+03
 0.117735177703462D+03 0.602265097135955D+02 -.241166717750877D+02 -.365714970308380D+02
 0.140255175636678D+03 -.745898230303123D+02 0.909787886242137D+02 0.763592339776452D+02
 0.874386451072493D+02 -.232337264415458D+02 -.242091078181282D+02 -.807442240193139D+02
0.774579435603D-04 0.000000000000D+00 0.000000000000D+00 0.915129148933D-05 0.000000000000D+00  6 -1 1 25 23 21 21 2 0.22605164D-01 0.35335208D-01 0.17537287D+05 0.17537287D+05 0.17537287D+05 0.12401586D+01  1  2  2  1  6  1       -1 0.235585382682D-01 0.100000000000D+01
0.102423629078D-05 0.408756798127D-05 -.297458898417D-06 0.915129148933D-05 0.000000000000D+00  6 -1 1 25 23 21 21 4 0.22605164D-01 0.35335208D-01 0.17537287D+05 0.17537287D+05 0.17537287D+05 0.12401586D+01  1  2  3  1  6  1       -1 0.479111940830D-03 0.100000000000D+01
0.342777414283D-05 0.000000000000D+00 0.000000000000D+00 0.915129148933D-05 0.000000000000D+00  6 -1 1 25 23 21 21 4 0.22605164D-01 0.35335208D-01 0.17537287D+05 0.17537287D+05 0.17537287D+05 0.12401586D+01  1  2 15  1  6  1       -1 0.160342641349D-02 0.100000000000D+01
-.398357406829D-04 0.000000000000D+00 -.409133696917D-04 0.915129148933D-05 0.000000000000D+00  6 -1 1 25 23 21 21 4 0.44408263D-01 0.35335208D-01 0.17537287D+05 0.17537287D+05 0.17537287D+05 0.12401586D+01  1  2  5  1  6  1       -1 -.593175711121D-02 0.100000000000D+01
0.608801714283D-04 0.000000000000D+00 0.330807016048D-04 0.915129148933D-05 0.000000000000D+00  6 -1 1 25 23 21 21 4 0.22605164D-01 0.35335208D-01 0.17537287D+05 0.17537287D+05 0.17537287D+05 0.12401586D+01  1  2  6  1  6  1       -1 0.284782108909D-01 0.100000000000D+01
-.495990067294D-06 0.000000000000D+00 -.299225223881D-05 0.915129148933D-05 0.000000000000D+00  6 21 1 25 23 1 21 4 0.44408263D-01 0.35335208D-01 0.17537287D+05 0.17537287D+05 0.17537287D+05 0.12401586D+01  3  4  5  4  5  1       -1 -.775974436436D-03 0.100000000000D+01
  </mgrwgt>
  </event>
  <event>
  5     66 0.47607883E-03 0.94781709E+02 0.75467711E-02 0.11252128E+00
       -1 -1    0    0    0  501 0.00000000E+00 0.00000000E+00 0.13243559E+03 0.13243597E+03 0.32000000E+00 0.0000E+00 0.9000E+01
        1 -1    0    0  502    0 -.00000000E+00 -.00000000E+00 -.41012775E+03 0.41012787E+03 0.32000000E+00 0.0000E+00 0.9000E+01
       25  1    1    2    0    0 0.10773613E+03 -.28630799E+02 -.10392925E+03 0.19711186E+03 0.12500000E+03 0.0000E+00 0.9000E+01
       23  1    1    2    0    0 -.26059005E+02 0.13467065E+03 -.94924687E+02 0.19010840E+03 0.91188000E+02 0.0000E+00 0.9000E+01
       21  1    1    2  502  501 -.81677123E+02 -.10603985E+03 -.78838220E+02 0.15534359E+03 0.75000000E+00 0.0000E+00 0.9000E+01
#aMCatNLO 1  0  0  5  2 0.55273761D+02 0.00000000D+00  -5  6  0 0.00000000D+00 0.00000000D+00 0.00000000D+00 0.00000000D+00 0.00000000D+00
  <mgrwgt>
 0.2517184214D-01   14    2    0
 0.233057177153992D+03 0.000000000000000D+00 0.000000000000000D+00 0.233057177153992D+03
 0.233057177153992D+03 -.000000000000000D+00 -.000000000000000D+00 -.233057177153992D+03
 0.167524385651005D+03 0.107736588593937D+03 -.286302010038560D+02 -.354384767818989D+01
 0.164737028162851D+03 -.260585517466953D+02 0.134671238845274D+03 0.276521476052362D+01
 0.133852940494129D+03 -.816780368472414D+02 -.106041037841418D+03 0.778632917666271D+00
 0.000000000000000D+00 0.000000000000000D+00 0.000000000000000D+00 -.000000000000000D+00
 0.233057177153992D+03 0.000000000000000D+00 0.000000000000000D+00 0.233057177153992D+03
 0.233057177153992D+03 -.000000000000000D+00 -.000000000000000D+00 -.233057177153992D+03
 0.163496376777367D+03 0.953980097596918D+02 -.446491426382946D+02 -.342622458135260D+01
 0.154839902909570D+03 -.379705693757899D+02 0.119206093490019D+03 0.287877146927729D+01
 0.624984759459483D+02 0.249976559756304D+02 -.559856354479534D+02 0.121154989488329D+02
 0.852795986750985D+02 -.824250963595323D+02 -.185713154037712D+02 -.115680458367576D+02
0.127162167890D-03 0.000000000000D+00 0.000000000000D+00 0.854469870048D-06 0.000000000000D+00  6 -1 1 25 23 21 21 2 0.20374745D-01 0.63096616D-01 0.54300975D+05 0.54300975D+05 0.54300975D+05 0.11887488D+01  1  2  2  3  6  5       21 0.206063288865D-01 0.100000000000D+01
-.907275027616D-05 0.671053196100D-05 -.488336207264D-06 0.854469870048D-06 0.000000000000D+00  6 -1 1 25 23 21 21 4 0.20374745D-01 0.63096616D-01 0.54300975D+05 0.54300975D+05 0.54300975D+05 0.11887488D+01  1  2  3  3  6  5       21 -.207759946270D-02 0.100000000000D+01
0.248886798795D-05 0.000000000000D+00 0.000000000000D+00 0.854469870048D-06 0.000000000000D+00  6 -1 1 25 23 21 21 4 0.20374745D-01 0.63096616D-01 0.54300975D+05 0.54300975D+05 0.54300975D+05 0.11887488D+01  1  2 15  3  6  5       21 0.569934213672D-03 0.100000000000D+01
0.203288155253D-04 0.000000000000D+00 0.000000000000D+00 0.854990176405D-06 0.000000000000D+00  6 -1 1 25 23 21 21 4 0.20374745D-01 0.63096616D-01 0.53842073D+05 0.53842073D+05 0.53842073D+05 0.11891106D+01  1  2 12  3  6  5       21 0.466063026581D-02 0.100000000000D+01
0.204230934734D-04 0.000000000000D+00 0.000000000000D+00 0.854990176405D-06 0.000000000000D+00  6 -1 1 25 23 21 21 4 0.20374745D-01 0.63096616D-01 0.53842073D+05 0.53842073D+05 0.53842073D+05 0.11891106D+01  1  2 12  3  6  5       21 0.468224464161D-02 0.100000000000D+01
-.227952284467D-04 0.000000000000D+00 0.000000000000D+00 0.854469870048D-06 0.000000000000D+00  6 -1 1 25 23 21 21 4 0.20374745D-01 0.63096616D-01 0.54300975D+05 0.54300975D+05 0.54300975D+05 0.11887488D+01  1  2  4  3  6  5       21 -.521995568394D-02 0.100000000000D+01
0.106098398710D-05 0.000000000000D+00 0.000000000000D+00 0.854990176405D-06 0.000000000000D+00  6 -1 1 25 23 1 -1 4 0.20374745D-01 0.63096616D-01 0.53842073D+05 0.53842073D+05 0.53842073D+05 0.11891106D+01  1  2 12  6  6  5       21 0.243243590640D-03 0.100000000000D+01
0.106568444922D-05 0.000000000000D+00 0.000000000000D+00 0.854990176405D-06 0.000000000000D+00  6 -1 1 25 23 1 -1 4 0.20374745D-01 0.63096616D-01 0.53842073D+05 0.53842073D+05 0.53842073D+05 0.11891106D+01  1  2 12  6  6  5       21 0.244321229226D-03 0.100000000000D+01
0.106098398710D-05 0.000000000000D+00 0.000000000000D+00 0.854990176405D-06 0.000000000000D+00  6 -1 1 25 23 2 -2 4 0.20374745D-01 0.63096616D-01 0.53842073D+05 0.53842073D+05 0.53842073D+05 0.11891106D+01  1  2 12  7  6  5       21 0.243243590640D-03 0.100000000000D+01
0.106098398710D-05 0.000000000000D+00 0.000000000000D+00 0.854990176405D-06 0.000000000000D+00  6 -1 1 25 23 4 -4 4 0.20374745D-01 0.63096616D-01 0.53842073D+05 0.53842073D+05 0.53842073D+05 0.11891106D+01  1  2 12  7  6  5       21 0.243243590640D-03 0.100000000000D+01
0.106568444922D-05 0.000000000000D+00 0.000000000000D+00 0.854990176405D-06 0.000000000000D+00  6 -1 1 25 23 2 -2 4 0.20374745D-01 0.63096616D-01 0.53842073D+05 0.53842073D+05 0.53842073D+05 0.11891106D+01  1  2 12  7  6  5       21 0.244321229226D-03 0.100000000000D+01
0.106568444922D-05 0.000000000000D+00 0.000000000000D+00 0.854990176405D-06 0.000000000000D+00  6 -1 1 25 23 4 -4 4 0.20374745D-01 0.63096616D-01 0.53842073D+05 0.53842073D+05 0.53842073D+05 0.11891106D+01  1  2 12  7  6  5       21 0.244321229226D-03 0.100000000000D+01
0.106098398710D-05 0.000000000000D+00 0.000000000000D+00 0.854990176405D-06 0.000000000000D+00  6 -1 1 25 23 3 -3 4 0.20374745D-01 0.63096616D-01 0.53842073D+05 0.53842073D+05 0.53842073D+05 0.11891106D+01  1  2 12  8  6  5       21 0.243243590640D-03 0.100000000000D+01
0.106568444922D-05 0.000000000000D+00 0.000000000000D+00 0.854990176405D-06 0.000000000000D+00  6 -1 1 25 23 3 -3 4 0.20374745D-01 0.63096616D-01 0.53842073D+05 0.53842073D+05 0.53842073D+05 0.11891106D+01  1  2 12  8  6  5       21 0.244321229226D-03 0.100000000000D+01
  </mgrwgt>
  </event>
  <event>
  5     66 0.47607883E-03 0.23042836E+02 0.75467711E-02 0.11947148E+00
       -1 -1    0    0    0  501 0.00000000E+00 0.00000000E+00 0.77701771E+02 0.77702430E+02 0.32000000E+00 0.0000E+00 0.9000E+01
        1 -1    0    0  502    0 0.00000000E+00 0.00000000E+00 -.49221808E+03 0.49221818E+03 0.32000000E+00 0.0000E+00 0.9000E+01
       25  1    1    2    0    0 -.32396920E+02 0.14845245E+02 -.42133009E+03 0.44092402E+03 0.12500000E+03 0.0000E+00 0.9000E+01
       23  1    1    2    0    0 0.22860882E+02 0.61307366E+01 -.17134226E+02 0.95755099E+02 0.91188000E+02 0.0000E+00 0.9000E+01
       21  1    1    2  502  501 0.95360378E+01 -.20975981E+02 0.23948008E+02 0.33241501E+02 0.75000000E+00 0.0000E+00 0.9000E+01
#aMCatNLO 1  0  0  1  1 0.58414546D+02 0.00000000D+00  -5  6  0 0.00000000D+00 0.00000000D+00 0.00000000D+00 0.00000000D+00 0.00000000D+00
  <mgrwgt>
 0.1487490539D+00    4    2    0
 0.195566955586974D+03 0.000000000000000D+00 0.000000000000000D+00 0.195566955586974D+03
 0.195566955586974D+03 0.000000000000000D+00 0.000000000000000D+00 -.195566955586974D+03
 0.195953488496480D+03 -.323971665241854D+02 0.148457870516831D+02 -.146638316486382D+03
 0.121365357097557D+03 0.228607293143670D+02 0.613107260698606D+01 0.765120615545063D+02
 0.738150655799123D+02 0.953643720981843D+01 -.209768596586692D+02 0.701262549318759D+02
 0.000000000000000D+00 -.000000000000000D+00 -.000000000000000D+00 -.000000000000000D+00
 0.204759287384893D+03 0.000000000000000D+00 0.000000000000000D+00 0.204759287384893D+03
 0.319197082268870D+03 0.000000000000000D+00 0.000000000000000D+00 -.319197082268870D+03
 0.197069868028125D+03 -.152116067393066D+02 0.384362334662345D+02 -.146638316486382D+03
 0.125461806269905D+03 0.336536323369587D+02 0.209463828790393D+02 0.765120615545063D+02
 0.729401902266143D+02 0.159535398591628D+02 -.121681668909636D+02 0.701262549318759D+02
 0.128484505129120D+03 -.343955654568150D+02 -.472144494543102D+02 -.114437794883977D+03
0.432987098403D-03 0.000000000000D+00 0.000000000000D+00 0.177536838307D-04 0.000000000000D+00  6 -1 1 25 23 21 21 2 0.11954177D-01 0.75725917D-01 0.15281055D+05 0.15281055D+05 0.15281055D+05 0.12469045D+01  1  2  2  1  6  1       -1 0.139995590755D+00 0.100000000000D+01
0.378411595127D-04 0.228493569334D-04 -.166278446599D-05 0.177536838307D-04 0.000000000000D+00  6 -1 1 25 23 21 21 4 0.11954177D-01 0.75725917D-01 0.15281055D+05 0.15281055D+05 0.15281055D+05 0.12469045D+01  1  2  3  1  6  1       -1 0.190226149365D-01 0.100000000000D+01
0.144511765559D-04 0.000000000000D+00 0.000000000000D+00 0.177536838307D-04 0.000000000000D+00  6 -1 1 25 23 21 21 4 0.11954177D-01 0.75725917D-01 0.15281055D+05 0.15281055D+05 0.15281055D+05 0.12469045D+01  1  2 15  1  6  1       -1 0.726455453642D-02 0.100000000000D+01
-.348793149078D-04 0.000000000000D+00 0.000000000000D+00 0.177536838307D-04 0.000000000000D+00  6 -1 1 25 23 21 21 4 0.11954177D-01 0.75725917D-01 0.15281055D+05 0.15281055D+05 0.15281055D+05 0.12469045D+01  1  2  4  1  6  1       -1 -.175337062945D-01 0.100000000000D+01
  </mgrwgt>
  </event>
  <event>
  5     66 0.47607883E-03 0.71472059E+02 0.75467711E-02 0.11547661E+00
       -1 -1    0    0    0  501 0.00000000E+00 0.00000000E+00 0.54056338E+03 0.54056348E+03 0.32000000E+00 0.0000E+00 0.9000E+01
        1 -1    0    0  502    0 0.00000000E+00 0.00000000E+00 -.89059436E+02 0.89060011E+02 0.32000000E+00 0.0000E+00 0.9000E+01
       25  1    1    2    0    0 -.86846230E+02 -.10840027E+03 0.93767686E+02 0.20907000E+03 0.12500000E+03 0.0000E+00 0.9000E+01
       23  1    1    2    0    0 0.84925230E+02 0.36957146E+02 0.30558239E+03 0.33207525E+03 0.91188000E+02 0.0000E+00 0.9000E+01
       21  1    1    2  502  501 0.19210005E+01 0.71443119E+02 0.52153868E+02 0.88478235E+02 0.75000000E+00 0.0000E+00 0.9000E+01
#aMCatNLO 1  0  0  5  2 0.72706042D+01 0.00000000D+00  -5  6  0 0.00000000D+00 0.00000000D+00 0.00000000D+00 0.00000000D+00 0.00000000D+00
  <mgrwgt>
 0.1863530262D-02    1    2    0
 0.219413948164351D+03 0.000000000000000D+00 0.000000000000000D+00 0.219413948164351D+03
 0.219413948164351D+03 -.000000000000000D+00 -.000000000000000D+00 -.219413948164351D+03
 0.203494918457496D+03 -.868462767036417D+02 -.108402000276518D+03 -.805724046853950D+02
 0.162046807071431D+03 0.849251923927296D+02 0.369557642860423D+02 0.967775775742397D+02
 0.732861707997747D+02 0.192108431091213D+01 0.714462359904759D+02 -.162051728888446D+02
 0.000000000000000D+00 0.000000000000000D+00 0.000000000000000D+00 -.000000000000000D+00
 0.219413948164351D+03 0.000000000000000D+00 0.000000000000000D+00 0.219413948164351D+03
 0.219413948164351D+03 -.000000000000000D+00 -.000000000000000D+00 -.219413948164351D+03
 0.200922062800858D+03 -.866898029041325D+02 -.102582649224322D+03 -.818923285217506D+02
 0.162615083994768D+03 0.850508079875370D+02 0.416274808680351D+02 0.957179559741743D+02
 0.284757747741011D+02 0.201246733532423D+02 0.201446535269313D+02 -.245368479074622D+00
 0.468149747589743D+02 -.184856784366469D+02 0.408105148293557D+02 -.135802589733490D+02
0.140143899100D-04 0.000000000000D+00 0.000000000000D+00 0.192474630865D-05 0.000000000000D+00  6 -1 1 25 23 21 21 4 0.83163649D-01 0.13701503D-01 0.37696256D+05 0.37696256D+05 0.37696256D+05 0.12046252D+01  1  2 14  3  6  5       21 0.186353026177D-02 0.100000000000D+01
  </mgrwgt>
  </event>
  <event>
  6     66 0.47607883E-03 0.12352085E+02 0.75467711E-02 0.12278622E+00
       -1 -1    0    0    0  501 0.00000000E+00 0.00000000E+00 0.10579369E+03 0.10579418E+03 0.32000000E+00 0.0000E+00 0.9000E+01
        1 -1    0    0  502    0 -.00000000E+00 -.00000000E+00 -.58344706E+03 0.58344715E+03 0.32000000E+00 0.0000E+00 0.9000E+01
       25  1    1    2    0    0 -.75971551E+01 -.12835089E+02 -.33636080E+03 0.35914627E+03 0.12500000E+03 0.0000E+00 0.9000E+01
       23  1    1    2    0    0 -.13437641E+02 -.14326134E+02 -.22135112E+03 0.24020279E+03 0.91188000E+02 0.0000E+00 0.9000E+01
        1  1    1    2  502    0 0.11469781E+01 0.18625454E+02 0.29673034E+02 0.35054450E+02 0.32000000E+00 0.0000E+00 0.9000E+01
       -1  1    1    2    0  501 0.19887817E+02 0.85357697E+01 0.50385512E+02 0.54837823E+02 0.32000000E+00 0.0000E+00 0.9000E+01
#aMCatNLO 2  0  0  5  2 0.10743584D+02 0.00000000D+00  -5  6  0 0.00000000D+00 0.00000000D+00 0.00000000D+00 0.00000000D+00 0.00000000D+00
  <mgrwgt>
 0.4572431653D-02    2    2    0
 0.248445599507457D+03 0.000000000000000D+00 0.000000000000000D+00 0.248445599507457D+03
 0.248445599507457D+03 -.000000000000000D+00 -.000000000000000D+00 -.248445599507457D+03
 0.175137152278282D+03 -.764234886219662D+01 -.128934456473367D+02 -.121751286117863D+03
 0.120598991741272D+03 -.134687627059982D+02 -.143663206638683D+02 -.764268717583272D+02
 0.201155054995360D+03 0.211111115681947D+02 0.272597663112049D+02 0.198178157876190D+03
 0.000000000000000D+00 0.000000000000000D+00 0.000000000000000D+00 0.000000000000000D+00
 0.248445599507457D+03 0.000000000000000D+00 0.000000000000000D+00 0.248445599507457D+03
 0.248445599507457D+03 -.000000000000000D+00 -.000000000000000D+00 -.248445599507457D+03
 0.174837226917933D+03 -.759730566934666D+01 -.128352835317592D+02 -.121328448269888D+03
 0.120406434783184D+03 -.134377442813645D+02 -.143262680591475D+02 -.761356898262781D+02
 0.769729303344359D+02 0.114012303005150D+01 0.185881148567602D+02 0.746861038602106D+02
 0.124674606979361D+03 0.198949269206596D+02 0.857343673414639D+01 0.122778034235955D+03
-.982899137254D-05 0.000000000000D+00 0.000000000000D+00 0.458153510352D-04 0.000000000000D+00  6 -1 1 25 23 1 -1 4 0.16275997D-01 0.89761131D-01 0.16828948D+05 0.16828948D+05 0.16828948D+05 0.12421663D+01  1  2 13  6  6  5       21 -.240737202405D-02 0.100000000000D+01
0.284976436697D-04 0.000000000000D+00 0.000000000000D+00 0.459784590845D-04 0.193049277304D-06  6 -1 1 25 23 1 -1 4 0.16275997D-01 0.89761131D-01 0.16828948D+05 0.16828948D+05 0.16828948D+05 0.12421663D+01  1  2  1  6  6  5       21 0.697980367687D-02 0.100000000000D+01
  </mgrwgt>
  </event>
  <event>
  5     66 0.47607883E-03 0.34614735E+02 0.75467711E-02 0.12068376E+00
       -1 -1    0    0    0  501 0.00000000E+00 0.00000000E+00 0.86537829E+02 0.86538421E+02 0.32000000E+00 0.0000E+00 0.9000E+01
        1 -1    0    0  502    0 -.00000000E+00 -.00000000E+00 -.31708424E+03 0.31708440E+03 0.32000000E+00 0.0000E+00 0.9000E+01
       25  1    1    2    0    0 0.56731098E+02 -.52947433E+02 -.72169518E+02 0.16387583E+03 0.12500000E+03 0.0000E+00 0.9000E+01
       23  1    1    2    0    0 -.23580087E+02 0.31909962E+02 -.17158084E+03 0.19831667E+03 0.91188000E+02 0.0000E+00 0.9000E+01
       21  1    1    2  502  501 -.33151011E+02 0.21037470E+02 0.13203948E+02 0.41430320E+02 0.75000000E+00 0.0000E+00 0.9000E+01
#aMCatNLO 1  0  0  5  2 0.14116013D+02 0.00000000D+00  -5  6  0 0.00000000D+00 0.00000000D+00 0.00000000D+00 0.00000000D+00 0.00000000D+00
  <mgrwgt>
 0.6256301218D-01   20    2    0
 0.165650033734625D+03 0.000000000000000D+00 0.000000000000000D+00 0.165650033734625D+03
 0.165650033734625D+03 -.000000000000000D+00 -.000000000000000D+00 -.165650033734625D+03
 0.149428720622475D+03 0.567322793811524D+02 -.529481823658005D+02 0.261128513810080D+02
 0.122209226880679D+03 -.235791202505162D+02 0.319093490330912D+02 -.710328256742561D+02
 0.596621199660963D+02 -.331531591306362D+02 0.210388333327093D+02 0.449199742932481D+02
 0.000000000000000D+00 0.000000000000000D+00 0.000000000000000D+00 0.000000000000000D+00
 0.165650033734625D+03 0.000000000000000D+00 0.000000000000000D+00 0.165650033734625D+03
 0.165650033734625D+03 -.000000000000000D+00 -.000000000000000D+00 -.165650033734625D+03
 0.148692901477763D+03 0.546026873672751D+02 -.515967536446313D+02 0.289982843541233D+02
 0.121500656733224D+03 -.253200292734539D+02 0.330141214210459D+02 -.686740281838238D+02
 0.197798374721533D+02 -.398472741604378D+01 0.180651685160254D+02 0.700097167057790D+01
 0.413266717861099D+02 -.252979306777774D+02 0.517463707560013D+00 0.326747721591227D+02
0.733250886895D-04 0.000000000000D+00 0.000000000000D+00 0.975171321215D-05 0.000000000000D+00  6 -1 1 25 23 21 21 2 0.13313570D-01 0.48782249D-01 0.20426175D+05 0.20426175D+05 0.20426175D+05 0.12328192D+01  1  2  2  3  6  5       21 0.343612091378D-01 0.100000000000D+01
0.274291429981D-05 0.386947123787D-05 -.281587647507D-06 0.975171321215D-05 0.000000000000D+00  6 -1 1 25 23 21 21 4 0.13313570D-01 0.48782249D-01 0.20426175D+05 0.20426175D+05 0.20426175D+05 0.12328192D+01  1  2  3  3  6  5       21 0.195356048881D-02 0.100000000000D+01
0.102179419772D-05 0.000000000000D+00 0.000000000000D+00 0.975171321215D-05 0.000000000000D+00  6 -1 1 25 23 21 21 4 0.13313570D-01 0.48782249D-01 0.20426175D+05 0.20426175D+05 0.20426175D+05 0.12328192D+01  1  2 15  3  6  5       21 0.727743033204D-03 0.100000000000D+01
0.101100081488D-04 0.000000000000D+00 0.000000000000D+00 0.973062698160D-05 0.000000000000D+00  6 -1 1 25 23 21 21 4 0.13313570D-01 0.48782249D-01 0.21006394D+05 0.21006394D+05 0.21006394D+05 0.12314856D+01  1  2 12  3  6  5       21 0.717378272808D-02 0.100000000000D+01
0.139363081768D-04 0.000000000000D+00 0.000000000000D+00 0.973062698160D-05 0.000000000000D+00  6 -1 1 25 23 21 21 4 0.13313570D-01 0.48782249D-01 0.21006394D+05 0.21006394D+05 0.21006394D+05 0.12314856D+01  1  2 12  3  6  5       21 0.988881961516D-02 0.100000000000D+01
-.426095228152D-04 0.000000000000D+00 0.000000000000D+00 0.975171321215D-05 0.000000000000D+00  6 -1 1 25 23 21 21 4 0.13313570D-01 0.48782249D-01 0.20426175D+05 0.20426175D+05 0.20426175D+05 0.12328192D+01  1  2  4  3  6  5       21 -.303473864367D-01 0.100000000000D+01
-.193076111577D-04 0.000000000000D+00 0.000000000000D+00 0.975171321215D-05 0.000000000000D+00  6 -1 1 25 23 21 21 4 0.13313570D-01 0.48782249D-01 0.20426175D+05 0.20426175D+05 0.20426175D+05 0.12328192D+01  1  2  5  3  6  5       21 -.137512813629D-01 0.100000000000D+01
0.774339090762D-04 0.000000000000D+00 -.000000000000D+00 0.975171321215D-05 0.000000000000D+00  6 -1 1 25 23 21 21 4 0.13313570D-01 0.48782249D-01 0.20426175D+05 0.20426175D+05 0.20426175D+05 0.12328192D+01  1  2  6  3  6  5       21 0.551500370523D-01 0.100000000000D+01
0.955385151725D-06 0.000000000000D+00 0.000000000000D+00 0.973062698160D-05 0.000000000000D+00  6 -1 1 25 23 1 -1 4 0.13313570D-01 0.48782249D-01 0.21006394D+05 0.21006394D+05 0.21006394D+05 0.12314856D+01  1  2 12  6  6  5       21 0.677914933322D-03 0.100000000000D+01
0.125168133221D-05 0.000000000000D+00 0.000000000000D+00 0.973062698160D-05 0.000000000000D+00  6 -1 1 25 23 1 -1 4 0.13313570D-01 0.48782249D-01 0.21006394D+05 0.21006394D+05 0.21006394D+05 0.12314856D+01  1  2 12  6  6  5       21 0.888158524691D-03 0.100000000000D+01
-.310920661343D-05 0.000000000000D+00 0.000000000000D+00 0.975171321215D-05 0.000000000000D+00  6 -1 1 25 23 1 -1 4 0.13313570D-01 0.48782249D-01 0.20426175D+05 0.20426175D+05 0.20426175D+05 0.12328192D+01  1  2  5  6  6  5       21 -.221444147635D-02 0.100000000000D+01
0.955385151725D-06 0.000000000000D+00 0.000000000000D+00 0.973062698160D-05 0.000000000000D+00  6 -1 1 25 23 2 -2 4 0.13313570D-01 0.48782249D-01 0.21006394D+05 0.21006394D+05 0.21006394D+05 0.12314856D+01  1  2 12  7  6  5       21 0.677914933322D-03 0.100000000000D+01
0.955385151725D-06 0.000000000000D+00 0.000000000000D+00 0.973062698160D-05 0.000000000000D+00  6 -1 1 25 23 4 -4 4 0.13313570D-01 0.48782249D-01 0.21006394D+05 0.21006394D+05 0.21006394D+05 0.12314856D+01  1  2 12  7  6  5       21 0.677914933322D-03 0.100000000000D+01
0.125168133221D-05 0.000000000000D+00 0.000000000000D+00 0.973062698160D-05 0.000000000000D+00  6 -1 1 25 23 2 -2 4 0.13313570D-01 0.48782249D-01 0.21006394D+05 0.21006394D+05 0.21006394D+05 0.12314856D+01  1  2 12  7  6  5       21 0.888158524691D-03 0.100000000000D+01
0.125168133221D-05 0.000000000000D+00 0.000000000000D+00 0.973062698160D-05 0.000000000000D+00  6 -1 1 25 23 4 -4 4 0.13313570D-01 0.48782249D-01 0.21006394D+05 0.21006394D+05 0.21006394D+05 0.12314856D+01  1  2 12  7  6  5       21 0.888158524691D-03 0.100000000000D+01
-.310920661343D-05 0.000000000000D+00 0.000000000000D+00 0.975171321215D-05 0.000000000000D+00  6 -1 1 25 23 2 -2 4 0.13313570D-01 0.48782249D-01 0.20426175D+05 0.20426175D+05 0.20426175D+05 0.12328192D+01  1  2  5  7  6  5       21 -.221444147635D-02 0.100000000000D+01
-.310920661343D-05 0.000000000000D+00 0.000000000000D+00 0.975171321215D-05 0.000000000000D+00  6 -1 1 25 23 4 -4 4 0.13313570D-01 0.48782249D-01 0.20426175D+05 0.20426175D+05 0.20426175D+05 0.12328192D+01  1  2  5  7  6  5       21 -.221444147635D-02 0.100000000000D+01
0.955385151725D-06 0.000000000000D+00 0.000000000000D+00 0.973062698160D-05 0.000000000000D+00  6 -1 1 25 23 3 -3 4 0.13313570D-01 0.48782249D-01 0.21006394D+05 0.21006394D+05 0.21006394D+05 0.12314856D+01  1  2 12  8  6  5       21 0.677914933322D-03 0.100000000000D+01
0.125168133221D-05 0.000000000000D+00 0.000000000000D+00 0.973062698160D-05 0.000000000000D+00  6 -1 1 25 23 3 -3 4 0.13313570D-01 0.48782249D-01 0.21006394D+05 0.21006394D+05 0.21006394D+05 0.12314856D+01  1  2 12  8  6  5       21 0.888158524691D-03 0.100000000000D+01
-.310920661343D-05 0.000000000000D+00 0.000000000000D+00 0.975171321215D-05 0.000000000000D+00  6 -1 1 25 23 3 -3 4 0.13313570D-01 0.48782249D-01 0.20426175D+05 0.20426175D+05 0.20426175D+05 0.12328192D+01  1  2  5  8  6  5       21 -.221444147635D-02 0.100000000000D+01
  </mgrwgt>
  </event>
  <event>
  5     66 0.47607883E-03 0.24012370E+02 0.75467711E-02 0.11214018E+00
       -1 -1    0    0    0  501 0.00000000E+00 0.00000000E+00 0.28157340E+03 0.28157358E+03 0.32000000E+00 0.0000E+00 0.9000E+01
        1 -1    0    0  502    0 -.00000000E+00 -.00000000E+00 -.31389373E+03 0.31389389E+03 0.32000000E+00 0.0000E+00 0.9000E+01
       25  1    1    2    0    0 0.60271871E+02 0.20099484E+03 0.15522619E+03 0.28939902E+03 0.12500000E+03 0.0000E+00 0.9000E+01
       23  1    1    2    0    0 -.55421331E+02 -.17747937E+03 -.13207985E+03 0.24562326E+03 0.91188000E+02 0.0000E+00 0.9000E+01
       21  1    1    2  502  501 -.48505400E+01 -.23515476E+02 -.55466672E+02 0.60445178E+02 0.75000000E+00 0.0000E+00 0.9000E+01
#aMCatNLO 1  0  0  5  2 0.20750225D+01 0.00000000D+00  -5  6  0 0.00000000D+00 0.00000000D+00 0.00000000D+00 0.00000000D+00 0.00000000D+00
  <mgrwgt>
 0.1574096617D+00   23    2    0
 0.297294844840780D+03 0.000000000000000D+00 0.000000000000000D+00 0.297294844840780D+03
 0.297294844840780D+03 -.000000000000000D+00 -.000000000000000D+00 -.297294844840780D+03
 0.298265940243498D+03 0.602720775504728D+02 0.200995847403298D+03 0.171188542559710D+03
 0.238804832933731D+03 -.554211650337895D+02 -.177478565277274D+03 -.118921613771109D+03
 0.575189165043312D+02 -.485091251668329D+01 -.235172821260236D+02 -.522669287886013D+02
 0.000000000000000D+00 0.000000000000000D+00 -.000000000000000D+00 0.000000000000000D+00
 0.297294844840780D+03 0.000000000000000D+00 0.000000000000000D+00 0.297294844840780D+03
 0.297294844840780D+03 -.000000000000000D+00 -.000000000000000D+00 -.297294844840780D+03
 0.297784101917480D+03 0.602221417542958D+02 0.200753758063850D+03 0.170650501378013D+03
 0.239173454548960D+03 -.554612090311933D+02 -.177672699057498D+03 -.119353074192940D+03
 0.551749365622763D+02 -.547654029028720D+01 -.207797548297257D+02 -.508181357422384D+02
 0.245719665284330D+01 0.715607567184729D+00 -.230130417662640D+01 -.479291442834302D+00
0.832560770827D-03 0.000000000000D+00 0.000000000000D+00 0.127856093043D-04 0.000000000000D+00  6 -1 1 25 23 21 21 2 0.43319010D-01 0.48291369D-01 0.56488979D+05 0.56488979D+05 0.56488979D+05 0.11870689D+01  1  2  2  3  6  5       21 0.522446773371D-01 0.100000000000D+01
0.200984541948D-03 0.439354389346D-04 -.319725257826D-05 0.127856093043D-04 0.000000000000D+00  6 -1 1 25 23 21 21 4 0.43319010D-01 0.48291369D-01 0.56488979D+05 0.56488979D+05 0.56488979D+05 0.11870689D+01  1  2  3  3  6  5       21 0.177721755464D-01 0.100000000000D+01
0.111793223122D-04 0.000000000000D+00 0.000000000000D+00 0.127856093043D-04 0.000000000000D+00  6 -1 1 25 23 21 21 4 0.43319010D-01 0.48291369D-01 0.56488979D+05 0.56488979D+05 0.56488979D+05 0.11870689D+01  1  2 15  3  6  5       21 0.988538106948D-03 0.100000000000D+01
-.109962036084D-01 0.000000000000D+00 0.000000000000D+00 0.127856093043D-04 0.000000000000D+00  6 -1 1 25 23 21 21 4 0.43319010D-01 0.48291369D-01 0.56488979D+05 0.56488979D+05 0.56488979D+05 0.11870689D+01  1  2  4  3  6  5       21 -.972345728576D+00 0.100000000000D+01
-.131536664958D-01 0.000000000000D+00 0.000000000000D+00 0.127856093043D-04 0.000000000000D+00  6 -1 1 25 23 21 21 4 0.43319010D-01 0.48291369D-01 0.56488979D+05 0.56488979D+05 0.56488979D+05 0.11870689D+01  1  2  5  3  6  5       21 -.116312064488D+01 0.100000000000D+01
0.142510923014D-01 0.000000000000D+00 -.000000000000D+00 0.127856093043D-04 0.000000000000D+00  6 -1 1 25 23 21 21 4 0.43319010D-01 0.48291369D-01 0.56488979D+05 0.56488979D+05 0.56488979D+05 0.11870689D+01  1  2  6  3  6  5       21 0.126016116291D+01 0.100000000000D+01
0.109451323358D-01 0.000000000000D+00 0.000000000000D+00 0.127856093043D-04 0.161157092819D-04  6 -1 1 25 23 21 21 4 0.43319010D-01 0.48291369D-01 0.56453939D+05 0.56453939D+05 0.56453939D+05 0.11870952D+01  1  2 11  3  6  5       21 0.967918827492D+00 0.100000000000D+01
0.361460490524D-07 0.000000000000D+00 0.000000000000D+00 0.127861764981D-04 0.000000000000D+00  6 -1 1 25 23 1 -1 4 0.43319010D-01 0.48291369D-01 0.56453939D+05 0.56453939D+05 0.56453939D+05 0.11870952D+01  1  2 12  6  6  5       21 0.319652977633D-05 0.100000000000D+01
0.332972262609D-07 0.000000000000D+00 0.000000000000D+00 0.127861764981D-04 0.000000000000D+00  6 -1 1 25 23 1 -1 4 0.43319010D-01 0.48291369D-01 0.56453939D+05 0.56453939D+05 0.56453939D+05 0.11870952D+01  1  2 12  6  6  5       21 0.294459776386D-05 0.100000000000D+01
-.433001164175D-04 0.000000000000D+00 0.000000000000D+00 0.127856093043D-04 0.000000000000D+00  6 -1 1 25 23 1 -1 4 0.43319010D-01 0.48291369D-01 0.56488979D+05 0.56488979D+05 0.56488979D+05 0.11870689D+01  1  2  5  6  6  5       21 -.382883809219D-02 0.100000000000D+01
0.253981812623D-04 0.000000000000D+00 0.000000000000D+00 0.127856093043D-04 0.719983986977D-07  6 -1 1 25 23 1 -1 4 0.43319010D-01 0.48291369D-01 0.56453939D+05 0.56453939D+05 0.56453939D+05 0.11870952D+01  1  2 11  6  6  5       21 0.224605578750D-02 0.100000000000D+01
0.361460490524D-07 0.000000000000D+00 0.000000000000D+00 0.127861764981D-04 0.000000000000D+00  6 -1 1 25 23 2 -2 4 0.43319010D-01 0.48291369D-01 0.56453939D+05 0.56453939D+05 0.56453939D+05 0.11870952D+01  1  2 12  7  6  5       21 0.319652977633D-05 0.100000000000D+01
0.361460490524D-07 0.000000000000D+00 0.000000000000D+00 0.127861764981D-04 0.000000000000D+00  6 -1 1 25 23 4 -4 4 0.43319010D-01 0.48291369D-01 0.56453939D+05 0.56453939D+05 0.56453939D+05 0.11870952D+01  1  2 12  7  6  5       21 0.319652977633D-05 0.100000000000D+01
0.332972262609D-07 0.000000000000D+00 0.000000000000D+00 0.127861764981D-04 0.000000000000D+00  6 -1 1 25 23 2 -2 4 0.43319010D-01 0.48291369D-01 0.56453939D+05 0.56453939D+05 0.56453939D+05 0.11870952D+01  1  2 12  7  6  5       21 0.294459776386D-05 0.100000000000D+01
0.332972262609D-07 0.000000000000D+00 0.000000000000D+00 0.127861764981D-04 0.000000000000D+00  6 -1 1 25 23 4 -4 4 0.43319010D-01 0.48291369D-01 0.56453939D+05 0.56453939D+05 0.56453939D+05 0.11870952D+01  1  2 12  7  6  5       21 0.294459776386D-05 0.100000000000D+01
-.433001164175D-04 0.000000000000D+00 0.000000000000D+00 0.127856093043D-04 0.000000000000D+00  6 -1 1 25 23 2 -2 4 0.43319010D-01 0.48291369D-01 0.56488979D+05 0.56488979D+05 0.56488979D+05 0.11870689D+01  1  2  5  7  6  5       21 -.382883809219D-02 0.100000000000D+01
-.433001164175D-04 0.000000000000D+00 0.000000000000D+00 0.127856093043D-04 0.000000000000D+00  6 -1 1 25 23 4 -4 4 0.43319010D-01 0.48291369D-01 0.56488979D+05 0.56488979D+05 0.56488979D+05 0.11870689D+01  1  2  5  7  6  5       21 -.382883809219D-02 0.100000000000D+01
0.257645843364D-04 0.000000000000D+00 0.000000000000D+00 0.127856093043D-04 0.706859904477D-07  6 -1 1 25 23 2 -2 4 0.43319010D-01 0.48291369D-01 0.56453939D+05 0.56453939D+05 0.56453939D+05 0.11870952D+01  1  2 11  7  6  5       21 0.227845817634D-02 0.100000000000D+01
0.257645843364D-04 0.000000000000D+00 0.000000000000D+00 0.127856093043D-04 0.706859904477D-07  6 -1 1 25 23 4 -4 4 0.43319010D-01 0.48291369D-01 0.56453939D+05 0.56453939D+05 0.56453939D+05 0.11870952D+01  1  2 11  7  6  5       21 0.227845817634D-02 0.100000000000D+01
0.361460490524D-07 0.000000000000D+00 0.000000000000D+00 0.127861764981D-04 0.000000000000D+00  6 -1 1 25 23 3 -3 4 0.43319010D-01 0.48291369D-01 0.56453939D+05 0.56453939D+05 0.56453939D+05 0.11870952D+01  1  2 12  8  6  5       21 0.319652977633D-05 0.100000000000D+01
0.332972262609D-07 0.000000000000D+00 0.000000000000D+00 0.127861764981D-04 0.000000000000D+00  6 -1 1 25 23 3 -3 4 0.43319010D-01 0.48291369D-01 0.56453939D+05 0.56453939D+05 0.56453939D+05 0.11870952D+01  1  2 12  8  6  5       21 0.294459776386D-05 0.100000000000D+01
-.433001164175D-04 0.000000000000D+00 0.000000000000D+00 0.127856093043D-04 0.000000000000D+00  6 -1 1 25 23 3 -3 4 0.43319010D-01 0.48291369D-01 0.56488979D+05 0.56488979D+05 0.56488979D+05 0.11870689D+01  1  2  5  8  6  5       21 -.382883809219D-02 0.100000000000D+01
0.257647126021D-04 0.000000000000D+00 0.000000000000D+00 0.127856093043D-04 0.706863423490D-07  6 -1 1 25 23 3 -3 4 0.43319010D-01 0.48291369D-01 0.56453939D+05 0.56453939D+05 0.56453939D+05 0.11870952D+01  1  2 11  8  6  5       21 0.227846951935D-02 0.100000000000D+01
  </mgrwgt>
  </event>
  <event>
  5     66 0.47607883E-03 0.25362724E+02 0.75467711E-02 0.11981303E+00
       -1 -1    0    0    0  501 0.00000000E+00 0.00000000E+00 0.12538692E+03 0.12538733E+03 0.32000000E+00 0.0000E+00 0.9000E+01
        1 -1    0    0  502    0 -.00000000E+00 -.00000000E+00 -.26357497E+03 0.26357516E+03 0.32000000E+00 0.0000E+00 0.9000E+01
       25  1    1    2    0    0 -.58484684E+02 -.78269567E+02 -.55620264E+02 0.16812257E+03 0.12500000E+03 0.0000E+00 0.9000E+01
       23  1    1    2    0    0 0.56450929E+02 0.52989785E+02 -.12397465E+03 0.17227765E+03 0.91188000E+02 0.0000E+00 0.9000E+01
       21  1    1    2  502  501 0.20337543E+01 0.25279782E+02 0.41406868E+02 0.48562277E+02 0.75000000E+00 0.0000E+00 0.9000E+01
#aMCatNLO 1  0  0  5  1 0.24853550D+01 0.00000000D+00  -5  6  0 0.00000000D+00 0.00000000D+00 0.00000000D+00 0.00000000D+00 0.00000000D+00
  <mgrwgt>
 0.1364145800D+00   25    2    0
 0.181793761148201D+03 0.000000000000000D+00 0.000000000000000D+00 0.181793761148201D+03
 0.181793761148201D+03 -.000000000000000D+00 -.000000000000000D+00 -.181793761148201D+03
 0.158716747054194D+03 -.584847382777944D+02 -.782702442271883D+02 0.439432050028806D+01
 0.137182651750653D+03 0.564508823738038D+02 0.529891996414468D+02 -.671511071980117D+02
 0.676881234915553D+02 0.203385590399061D+01 0.252810445857415D+02 0.627567866977238D+02
 0.000000000000000D+00 0.000000000000000D+00 0.000000000000000D+00 0.000000000000000D+00
 0.181793761148201D+03 0.000000000000000D+00 0.000000000000000D+00 0.181793761148201D+03
 0.181793761148201D+03 -.000000000000000D+00 -.000000000000000D+00 -.181793761148201D+03
 0.158703179868972D+03 -.584823309826345D+02 -.782403212930474D+02 0.446860015233635D+01
 0.137162087819218D+03 0.564529629891265D+02 0.530150619105665D+02 -.670869075997254D+02
 0.361229089307334D+02 0.277369120101948D+01 0.117517609484870D+02 0.340450774907190D+02
 0.315993456774793D+02 -.744323207511441D+00 0.134734984339939D+02 0.285732299566701D+02
0.162920368754D-04 0.000000000000D+00 0.000000000000D+00 0.232621477790D-04 0.000000000000D+00  6 -1 1 25 23 21 21 2 0.19290342D-01 0.40550041D-01 0.23049653D+05 0.23049653D+05 0.23049653D+05 0.12270978D+01  1  2  2  3  6  5       21 0.530959977149D-02 0.100000000000D+01
0.224683814303D-05 0.859754406334D-06 -.625657113934D-07 0.232621477790D-04 0.000000000000D+00  6 -1 1 25 23 21 21 4 0.19290342D-01 0.40550041D-01 0.23049653D+05 0.23049653D+05 0.23049653D+05 0.12270978D+01  1  2  3  3  6  5       21 0.110259632902D-02 0.100000000000D+01
0.548788667989D-06 0.000000000000D+00 0.000000000000D+00 0.232621477790D-04 0.000000000000D+00  6 -1 1 25 23 21 21 4 0.19290342D-01 0.40550041D-01 0.23049653D+05 0.23049653D+05 0.23049653D+05 0.12270978D+01  1  2 15  3  6  5       21 0.269308393490D-03 0.100000000000D+01
0.159934286649D-05 0.000000000000D+00 0.000000000000D+00 0.232597684073D-04 0.000000000000D+00  6 -1 1 25 23 21 21 4 0.19290342D-01 0.40550041D-01 0.23080447D+05 0.23080447D+05 0.23080447D+05 0.12270350D+01  1  2 12  3  6  5       21 0.784707470374D-03 0.100000000000D+01
0.162143164134D-05 0.000000000000D+00 0.000000000000D+00 0.232597684073D-04 0.000000000000D+00  6 -1 1 25 23 21 21 4 0.19290342D-01 0.40550041D-01 0.23080447D+05 0.23080447D+05 0.23080447D+05 0.12270350D+01  1  2 12  3  6  5       21 0.795545188161D-03 0.100000000000D+01
-.102553175102D-02 0.000000000000D+00 0.000000000000D+00 0.232621477790D-04 0.000000000000D+00  6 -1 1 25 23 21 21 4 0.19290342D-01 0.40550041D-01 0.23049653D+05 0.23049653D+05 0.23049653D+05 0.12270978D+01  1  2  4  3  6  5       21 -.503261682413D+00 0.100000000000D+01
-.666441960331D-03 0.000000000000D+00 0.000000000000D+00 0.232621477790D-04 0.000000000000D+00  6 -1 1 25 23 21 21 4 0.19290342D-01 0.40550041D-01 0.23049653D+05 0.23049653D+05 0.23049653D+05 0.12270978D+01  1  2  5  3  6  5       21 -.327044678873D+00 0.100000000000D+01
0.127424361879D-02 0.000000000000D+00 -.000000000000D+00 0.232621477790D-04 0.000000000000D+00  6 -1 1 25 23 21 21 4 0.19290342D-01 0.40550041D-01 0.23049653D+05 0.23049653D+05 0.23049653D+05 0.12270978D+01  1  2  6  3  6  5       21 0.625312660242D+00 0.100000000000D+01
0.681481204115D-03 0.000000000000D+00 0.000000000000D+00 0.232621477790D-04 0.196905410125D-04  6 -1 1 25 23 21 21 4 0.19290342D-01 0.40550041D-01 0.23080447D+05 0.23080447D+05 0.23080447D+05 0.12270350D+01  1  2 11  3  6  5       21 0.334364446168D+00 0.100000000000D+01
0.567070706856D-07 0.000000000000D+00 0.000000000000D+00 0.232597684073D-04 0.000000000000D+00  6 -1 1 25 23 1 -1 4 0.19290342D-01 0.40550041D-01 0.23080447D+05 0.23080447D+05 0.23080447D+05 0.12270350D+01  1  2 12  6  6  5       21 0.278229658707D-04 0.100000000000D+01
0.574844360407D-07 0.000000000000D+00 0.000000000000D+00 0.232597684073D-04 0.000000000000D+00  6 -1 1 25 23 1 -1 4 0.19290342D-01 0.40550041D-01 0.23080447D+05 0.23080447D+05 0.23080447D+05 0.12270350D+01  1  2 12  6  6  5       21 0.282043752696D-04 0.100000000000D+01
-.236450813784D-04 0.000000000000D+00 0.000000000000D+00 0.232621477790D-04 0.000000000000D+00  6 -1 1 25 23 1 -1 4 0.19290342D-01 0.40550041D-01 0.23049653D+05 0.23049653D+05 0.23049653D+05 0.12270978D+01  1  2  5  6  6  5       21 -.116034081084D-01 0.100000000000D+01
0.229445494686D-04 0.000000000000D+00 0.000000000000D+00 0.232621477790D-04 0.748438500060D-06  6 -1 1 25 23 1 -1 4 0.19290342D-01 0.40550041D-01 0.23080447D+05 0.23080447D+05 0.23080447D+05 0.12270350D+01  1  2 11  6  6  5       21 0.112575981984D-01 0.100000000000D+01
0.567070706856D-07 0.000000000000D+00 0.000000000000D+00 0.232597684073D-04 0.000000000000D+00  6 -1 1 25 23 2 -2 4 0.19290342D-01 0.40550041D-01 0.23080447D+05 0.23080447D+05 0.23080447D+05 0.12270350D+01  1  2 12  7  6  5       21 0.278229658707D-04 0.100000000000D+01
0.567070706856D-07 0.000000000000D+00 0.000000000000D+00 0.232597684073D-04 0.000000000000D+00  6 -1 1 25 23 4 -4 4 0.19290342D-01 0.40550041D-01 0.23080447D+05 0.23080447D+05 0.23080447D+05 0.12270350D+01  1  2 12  7  6  5       21 0.278229658707D-04 0.100000000000D+01
0.574844360407D-07 0.000000000000D+00 0.000000000000D+00 0.232597684073D-04 0.000000000000D+00  6 -1 1 25 23 2 -2 4 0.19290342D-01 0.40550041D-01 0.23080447D+05 0.23080447D+05 0.23080447D+05 0.12270350D+01  1  2 12  7  6  5       21 0.282043752696D-04 0.100000000000D+01
0.574844360407D-07 0.000000000000D+00 0.000000000000D+00 0.232597684073D-04 0.000000000000D+00  6 -1 1 25 23 4 -4 4 0.19290342D-01 0.40550041D-01 0.23080447D+05 0.23080447D+05 0.23080447D+05 0.12270350D+01  1  2 12  7  6  5       21 0.282043752696D-04 0.100000000000D+01
-.236450813784D-04 0.000000000000D+00 0.000000000000D+00 0.232621477790D-04 0.000000000000D+00  6 -1 1 25 23 2 -2 4 0.19290342D-01 0.40550041D-01 0.23049653D+05 0.23049653D+05 0.23049653D+05 0.12270978D+01  1  2  5  7  6  5       21 -.116034081084D-01 0.100000000000D+01
-.236450813784D-04 0.000000000000D+00 0.000000000000D+00 0.232621477790D-04 0.000000000000D+00  6 -1 1 25 23 4 -4 4 0.19290342D-01 0.40550041D-01 0.23049653D+05 0.23049653D+05 0.23049653D+05 0.12270978D+01  1  2  5  7  6  5       21 -.116034081084D-01 0.100000000000D+01
0.229030649740D-04 0.000000000000D+00 0.000000000000D+00 0.232621477790D-04 0.744540210379D-06  6 -1 1 25 23 2 -2 4 0.19290342D-01 0.40550041D-01 0.23080447D+05 0.23080447D+05 0.23080447D+05 0.12270350D+01  1  2 11  7  6  5       21 0.112372440932D-01 0.100000000000D+01
0.229030649740D-04 0.000000000000D+00 0.000000000000D+00 0.232621477790D-04 0.744540210379D-06  6 -1 1 25 23 4 -4 4 0.19290342D-01 0.40550041D-01 0.23080447D+05 0.23080447D+05 0.23080447D+05 0.12270350D+01  1  2 11  7  6  5       21 0.112372440932D-01 0.100000000000D+01
0.567070706856D-07 0.000000000000D+00 0.000000000000D+00 0.232597684073D-04 0.000000000000D+00  6 -1 1 25 23 3 -3 4 0.19290342D-01 0.40550041D-01 0.23080447D+05 0.23080447D+05 0.23080447D+05 0.12270350D+01  1  2 12  8  6  5       21 0.278229658707D-04 0.100000000000D+01
0.574844360407D-07 0.000000000000D+00 0.000000000000D+00 0.232597684073D-04 0.000000000000D+00  6 -1 1 25 23 3 -3 4 0.19290342D-01 0.40550041D-01 0.23080447D+05 0.23080447D+05 0.23080447D+05 0.12270350D+01  1  2 12  8  6  5       21 0.282043752696D-04 0.100000000000D+01
-.236450813784D-04 0.000000000000D+00 0.000000000000D+00 0.232621477790D-04 0.000000000000D+00  6 -1 1 25 23 3 -3 4 0.19290342D-01 0.40550041D-01 0.23049653D+05 0.23049653D+05 0.23049653D+05 0.12270978D+01  1  2  5  8  6  5       21 -.116034081084D-01 0.100000000000D+01
0.229076922432D-04 0.000000000000D+00 0.000000000000D+00 0.232621477790D-04 0.744690635137D-06  6 -1 1 25 23 3 -3 4 0.19290342D-01 0.40550041D-01 0.23080447D+05 0.23080447D+05 0.23080447D+05 0.12270350D+01  1  2 11  8  6  5       21 0.112395144336D-01 0.100000000000D+01
  </mgrwgt>
  </event>
  <event>
  6     66 0.47607883E-03 0.21955795E+02 0.75467711E-02 0.11227139E+00
       -1 -1    0    0    0  501 0.00000000E+00 0.00000000E+00 0.24077628E+03 0.24077650E+03 0.32000000E+00 0.0000E+00 0.9000E+01
        1 -1    0    0  502    0 -.00000000E+00 -.00000000E+00 -.25028237E+03 0.25028257E+03 0.32000000E+00 0.0000E+00 0.9000E+01
       25  1    1    2    0    0 0.11244154E+03 0.16890183E+03 0.41167339E+02 0.24184846E+03 0.12500000E+03 0.0000E+00 0.9000E+01
       23  1    1    2    0    0 -.11379421E+03 -.13957034E+03 -.64903174E+02 0.21202989E+03 0.91188000E+02 0.0000E+00 0.9000E+01
       21  1    1    2  503  501 0.51020004E+01 -.24861445E+02 0.44637621E+01 0.25780022E+02 0.75000000E+00 0.0000E+00 0.9000E+01
       21  1    1    2  502  503 -.37493341E+01 -.44700527E+01 0.97659848E+01 0.11400695E+02 0.75000000E+00 0.0000E+00 0.9000E+01
#aMCatNLO 2  0  0  5  2 0.81871710D+01 0.00000000D+00  -5  6  0 0.00000000D+00 0.00000000D+00 0.00000000D+00 0.00000000D+00 0.00000000D+00
  <mgrwgt>
 0.9724518708D-01    4    2    0
 0.245483525198453D+03 0.000000000000000D+00 0.000000000000000D+00 0.245483525198453D+03
 0.245483525198453D+03 -.000000000000000D+00 -.000000000000000D+00 -.245483525198453D+03
 0.243854785455163D+03 0.112349326007822D+03 0.170901449870150D+03 0.448383738247941D+02
 0.209972663697102D+03 -.113873959288657D+03 -.137840983545472D+03 -.616915942993737D+02
 0.371396012446419D+02 0.152463328083444D+01 -.330604663246783D+02 0.168532204745796D+02
 0.000000000000000D+00 0.000000000000000D+00 0.000000000000000D+00 0.000000000000000D+00
 0.245483525198453D+03 0.000000000000000D+00 0.000000000000000D+00 0.245483525198453D+03
 0.245483525198453D+03 -.000000000000000D+00 -.000000000000000D+00 -.245483525198453D+03
 0.242675904685029D+03 0.112442735154402D+03 0.168875946436798D+03 0.458709138863608D+02
 0.210823999409328D+03 -.113793170434056D+03 -.139592825933092D+03 -.607985583178084D+02
 0.254424631946824D+02 0.517846954327202D+01 -.244836890848542D+02 0.458817560674867D+01
 0.120246831078669D+02 -.382803426361871D+01 -.479943141885194D+01 0.103394688246988D+02
-.174724385704D-03 0.000000000000D+00 0.000000000000D+00 0.913012847260D-05 0.000000000000D+00  6 -1 1 25 23 21 21 4 0.37042537D-01 0.38505012D-01 0.55538612D+05 0.55538612D+05 0.55538612D+05 0.11877895D+01  1  2 13  3  6  5       21 -.271948207951D-01 0.100000000000D+01
-.180644637777D-03 0.000000000000D+00 0.000000000000D+00 0.913012847260D-05 0.000000000000D+00  6 -1 1 25 23 21 21 4 0.37042537D-01 0.38505012D-01 0.55538612D+05 0.55538612D+05 0.55538612D+05 0.11877895D+01  1  2 13  3  6  5       21 -.281162731358D-01 0.100000000000D+01
-.708403290091D-03 0.000000000000D+00 0.000000000000D+00 0.912414094820D-05 0.000000000000D+00  6 -1 1 25 23 21 21 4 0.37042537D-01 0.38505012D-01 0.56050107D+05 0.56050107D+05 0.56050107D+05 0.11874000D+01  1  2  8  3  6  5       21 -.110116023856D+00 0.100000000000D+01
0.168764697719D-02 0.000000000000D+00 0.000000000000D+00 0.912414094820D-05 0.225123304877D-05  6 -1 1 25 23 21 21 4 0.37042537D-01 0.38505012D-01 0.55538612D+05 0.55538612D+05 0.55538612D+05 0.11877895D+01  1  2  1  3  6  5       21 0.262672304872D+00 0.100000000000D+01
  </mgrwgt>
  </event>
  <event>
  5     66 -.47607883E-03 0.20858660E+02 0.75467711E-02 0.11130940E+00
       -1 -1    0    0    0  501 0.00000000E+00 0.00000000E+00 0.27006469E+02 0.27008364E+02 0.32000000E+00 0.0000E+00 0.9000E+01
        1 -1    0    0  502    0 -.00000000E+00 -.00000000E+00 -.35430979E+04 0.35430979E+04 0.32000000E+00 0.0000E+00 0.9000E+01
       25  1    1    2    0    0 0.44109256E+02 -.20663118E+03 -.72183422E+03 0.76243800E+03 0.12500000E+03 0.0000E+00 0.9000E+01
       23  1    1    2    0    0 -.24751537E+02 0.21439699E+03 -.20882134E+04 0.21013160E+04 0.91188000E+02 0.0000E+00 0.9000E+01
       21  1    1    2  502  501 -.19357719E+02 -.77658090E+01 -.70604387E+03 0.70635227E+03 0.75000000E+00 0.0000E+00 0.9000E+01
#aMCatNLO 1  0  0  5  2 0.89047760D+00 0.00000000D+00  -5  6  0 0.00000000D+00 0.00000000D+00 0.00000000D+00 0.00000000D+00 0.00000000D+00
  <mgrwgt>
 -.8315182042D+00   25    2    0
 0.309337958169823D+03 0.000000000000000D+00 0.000000000000000D+00 0.309337958169823D+03
 0.309337958169823D+03 -.000000000000000D+00 -.000000000000000D+00 -.309337958169823D+03
 0.297328927991061D+03 0.441099066982734D+02 -.206630920430796D+03 0.167742273363948D+03
 0.257925070925766D+03 -.247509723487552D+02 0.214397216775154D+03 -.107848568256237D+03
 0.634219174228184D+02 -.193589343495182D+02 -.776629634435843D+01 -.598937051077110D+02
 0.000000000000000D+00 0.000000000000000D+00 0.000000000000000D+00 -.000000000000000D+00
 0.309337958169823D+03 0.000000000000000D+00 0.000000000000000D+00 0.309337958169823D+03
 0.309337958169823D+03 -.000000000000000D+00 -.000000000000000D+00 -.309337958169823D+03
 0.297313351980297D+03 0.441002612981848D+02 -.206634789912147D+03 0.167712431909965D+03
 0.257933909578137D+03 -.247593398436742D+02 0.214393859955815D+03 -.107874456058950D+03
 0.566508230613230D+02 -.178903834456429D+02 -.753515762825106D+01 -.532209670450528D+02
 0.677783171988878D+01 -.145053800886766D+01 -.223912415417291D+00 -.661700880596231D+01
0.118973333417D-02 0.000000000000D+00 0.000000000000D+00 0.178247528321D-04 0.000000000000D+00  6 -1 1 25 23 21 21 2 0.41549883D-02 0.54509213D+00 0.62661812D+05 0.62661812D+05 0.62661812D+05 0.11826933D+01  1  2  2  3  6  5       21 0.113311388631D-01 0.100000000000D+01
0.342488629209D-03 0.627839529356D-04 -.456888926718D-05 0.178247528321D-04 0.000000000000D+00  6 -1 1 25 23 21 21 4 0.41549883D-02 0.54509213D+00 0.62661812D+05 0.62661812D+05 0.62661812D+05 0.11826933D+01  1  2  3  3  6  5       21 0.456262066572D-02 0.100000000000D+01
0.188866316676D-04 0.000000000000D+00 0.000000000000D+00 0.178247528321D-04 0.000000000000D+00  6 -1 1 25 23 21 21 4 0.41549883D-02 0.54509213D+00 0.62661812D+05 0.62661812D+05 0.62661812D+05 0.11826933D+01  1  2 15  3  6  5       21 0.251606998315D-03 0.100000000000D+01
0.402692809373D-07 0.000000000000D+00 0.000000000000D+00 0.178246473773D-04 0.000000000000D+00  6 -1 1 25 23 21 21 4 0.41549883D-02 0.54509213D+00 0.62667038D+05 0.62667038D+05 0.62667038D+05 0.11826898D+01  1  2 12  3  6  5       21 0.536457390384D-06 0.100000000000D+01
0.395448379292D-07 0.000000000000D+00 0.000000000000D+00 0.178246473773D-04 0.000000000000D+00  6 -1 1 25 23 21 21 4 0.41549883D-02 0.54509213D+00 0.62667038D+05 0.62667038D+05 0.62667038D+05 0.11826898D+01  1  2 12  3  6  5       21 0.526806539995D-06 0.100000000000D+01
-.675949212245D+00 0.000000000000D+00 0.000000000000D+00 0.178247528321D-04 0.000000000000D+00  6 -1 1 25 23 21 21 4 0.41549883D-02 0.54509213D+00 0.62661812D+05 0.62661812D+05 0.62661812D+05 0.11826933D+01  1  2  4  3  6  5       21 -.900497003912D+01 0.100000000000D+01
-.326540223386D+00 0.000000000000D+00 0.000000000000D+00 0.178247528321D-04 0.000000000000D+00  6 -1 1 25 23 21 21 4 0.41549883D-02 0.54509213D+00 0.62661812D+05 0.62661812D+05 0.62661812D+05 0.11826933D+01  1  2  5  3  6  5       21 -.435015660184D+01 0.100000000000D+01
0.391924949779D+00 0.000000000000D+00 -.000000000000D+00 0.178247528321D-04 0.000000000000D+00  6 -1 1 25 23 21 21 4 0.41549883D-02 0.54509213D+00 0.62661812D+05 0.62661812D+05 0.62661812D+05 0.11826933D+01  1  2  6  3  6  5       21 0.522120947315D+01 0.100000000000D+01
0.545812044692D+00 0.000000000000D+00 0.000000000000D+00 0.178247528321D-04 0.265526791186D-03  6 -1 1 25 23 21 21 4 0.41549883D-02 0.54509213D+00 0.62667038D+05 0.62667038D+05 0.62667038D+05 0.11826898D+01  1  2 11  3  6  5       21 0.727117292191D+01 0.100000000000D+01
0.395354398012D-08 0.000000000000D+00 0.000000000000D+00 0.178246473773D-04 0.000000000000D+00  6 -1 1 25 23 1 -1 4 0.41549883D-02 0.54509213D+00 0.62667038D+05 0.62667038D+05 0.62667038D+05 0.11826898D+01  1  2 12  6  6  5       21 0.526681340461D-07 0.100000000000D+01
0.392163049769D-08 0.000000000000D+00 0.000000000000D+00 0.178246473773D-04 0.000000000000D+00  6 -1 1 25 23 1 -1 4 0.41549883D-02 0.54509213D+00 0.62667038D+05 0.62667038D+05 0.62667038D+05 0.11826898D+01  1  2 12  6  6  5       21 0.522429905346D-07 0.100000000000D+01
-.213663670480D-02 0.000000000000D+00 0.000000000000D+00 0.178247528321D-04 0.000000000000D+00  6 -1 1 25 23 1 -1 4 0.41549883D-02 0.54509213D+00 0.62661812D+05 0.62661812D+05 0.62661812D+05 0.11826933D+01  1  2  5  6  6  5       21 -.284641939995D-01 0.100000000000D+01
0.241862415510D-02 0.000000000000D+00 0.000000000000D+00 0.178247528321D-04 0.227021069983D-05  6 -1 1 25 23 1 -1 4 0.41549883D-02 0.54509213D+00 0.62667038D+05 0.62667038D+05 0.62667038D+05 0.11826898D+01  1  2 11  6  6  5       21 0.322203121677D-01 0.100000000000D+01
0.395354398012D-08 0.000000000000D+00 0.000000000000D+00 0.178246473773D-04 0.000000000000D+00  6 -1 1 25 23 2 -2 4 0.41549883D-02 0.54509213D+00 0.62667038D+05 0.62667038D+05 0.62667038D+05 0.11826898D+01  1  2 12  7  6  5       21 0.526681340461D-07 0.100000000000D+01
0.395354398012D-08 0.000000000000D+00 0.000000000000D+00 0.178246473773D-04 0.000000000000D+00  6 -1 1 25 23 4 -4 4 0.41549883D-02 0.54509213D+00 0.62667038D+05 0.62667038D+05 0.62667038D+05 0.11826898D+01  1  2 12  7  6  5       21 0.526681340461D-07 0.100000000000D+01
0.392163049769D-08 0.000000000000D+00 0.000000000000D+00 0.178246473773D-04 0.000000000000D+00  6 -1 1 25 23 2 -2 4 0.41549883D-02 0.54509213D+00 0.62667038D+05 0.62667038D+05 0.62667038D+05 0.11826898D+01  1  2 12  7  6  5       21 0.522429905346D-07 0.100000000000D+01
0.392163049769D-08 0.000000000000D+00 0.000000000000D+00 0.178246473773D-04 0.000000000000D+00  6 -1 1 25 23 4 -4 4 0.41549883D-02 0.54509213D+00 0.62667038D+05 0.62667038D+05 0.62667038D+05 0.11826898D+01  1  2 12  7  6  5       21 0.522429905346D-07 0.100000000000D+01
-.213663670480D-02 0.000000000000D+00 0.000000000000D+00 0.178247528321D-04 0.000000000000D+00  6 -1 1 25 23 2 -2 4 0.41549883D-02 0.54509213D+00 0.62661812D+05 0.62661812D+05 0.62661812D+05 0.11826933D+01  1  2  5  7  6  5       21 -.284641939995D-01 0.100000000000D+01
-.213663670480D-02 0.000000000000D+00 0.000000000000D+00 0.178247528321D-04 0.000000000000D+00  6 -1 1 25 23 4 -4 4 0.41549883D-02 0.54509213D+00 0.62661812D+05 0.62661812D+05 0.62661812D+05 0.11826933D+01  1  2  5  7  6  5       21 -.284641939995D-01 0.100000000000D+01
0.241996412808D-02 0.000000000000D+00 0.000000000000D+00 0.178247528321D-04 0.227083681500D-05  6 -1 1 25 23 2 -2 4 0.41549883D-02 0.54509213D+00 0.62667038D+05 0.62667038D+05 0.62667038D+05 0.11826898D+01  1  2 11  7  6  5       21 0.322381629559D-01 0.100000000000D+01
0.241996412808D-02 0.000000000000D+00 0.000000000000D+00 0.178247528321D-04 0.227083681500D-05  6 -1 1 25 23 4 -4 4 0.41549883D-02 0.54509213D+00 0.62667038D+05 0.62667038D+05 0.62667038D+05 0.11826898D+01  1  2 11  7  6  5       21 0.322381629559D-01 0.100000000000D+01
0.395354398012D-08 0.000000000000D+00 0.000000000000D+00 0.178246473773D-04 0.000000000000D+00  6 -1 1 25 23 3 -3 4 0.41549883D-02 0.54509213D+00 0.62667038D+05 0.62667038D+05 0.62667038D+05 0.11826898D+01  1  2 12  8  6  5       21 0.526681340461D-07 0.100000000000D+01
0.392163049769D-08 0.000000000000D+00 0.000000000000D+00 0.178246473773D-04 0.000000000000D+00  6 -1 1 25 23 3 -3 4 0.41549883D-02 0.54509213D+00 0.62667038D+05 0.62667038D+05 0.62667038D+05 0.11826898D+01  1  2 12  8  6  5       21 0.522429905346D-07 0.100000000000D+01
-.213663670480D-02 0.000000000000D+00 0.000000000000D+00 0.178247528321D-04 0.000000000000D+00  6 -1 1 25 23 3 -3 4 0.41549883D-02 0.54509213D+00 0.62661812D+05 0.62661812D+05 0.62661812D+05 0.11826933D+01  1  2  5  8  6  5       21 -.284641939995D-01 0.100000000000D+01
0.242005174542D-02 0.000000000000D+00 0.000000000000D+00 0.178247528321D-04 0.227091903303D-05  6 -1 1 25 23 3 -3 4 0.41549883D-02 0.54509213D+00 0.62667038D+05 0.62667038D+05 0.62667038D+05 0.11826898D+01  1  2 11  8  6  5       21 0.322393301725D-01 0.100000000000D+01
  </mgrwgt>
  </event>
  <event>
  5     66 -.47607883E-03 0.47711778E+02 0.75467711E-02 0.10899280E+00
       -1 -1    0    0    0  501 0.00000000E+00 0.00000000E+00 0.15380967E+03 0.15381001E+03 0.32000000E+00 0.0000E+00 0.9000E+01
        1 -1    0    0  502    0 -.00000000E+00 -.00000000E+00 -.83422330E+03 0.83422336E+03 0.32000000E+00 0.0000E+00 0.9000E+01
       25  1    1    2    0    0 -.12257093E+03 -.18319842E+03 -.51477951E+03 0.57376671E+03 0.12500000E+03 0.0000E+00 0.9000E+01
       23  1    1    2    0    0 0.16200036E+03 0.21005831E+03 -.44423048E+02 0.28400224E+03 0.91188000E+02 0.0000E+00 0.9000E+01
       21  1    1    2  502  501 -.39429433E+02 -.26859891E+02 -.12121107E+03 0.13026442E+03 0.75000000E+00 0.0000E+00 0.9000E+01
#aMCatNLO 1  0  0  5  2 0.89047760D+00 0.00000000D+00  -5  6  0 0.00000000D+00 0.00000000D+00 0.00000000D+00 0.00000000D+00 0.00000000D+00
  <mgrwgt>
 -.4186922504D-01    1    2    0
 0.358206376865002D+03 0.000000000000000D+00 0.000000000000000D+00 0.358206376865002D+03
 0.358206376865002D+03 -.000000000000000D+00 -.000000000000000D+00 -.358206376865002D+03
 0.302390651514386D+03 -.122569805868036D+03 -.183197654006806D+03 -.165016267013798D+03
 0.349489957959440D+03 0.162001662609989D+03 0.210059195630935D+03 0.208467203686755D+03
 0.645321442561771D+02 -.394318567419529D+02 -.268615416241291D+02 -.434509366729571D+02
 0.000000000000000D+00 0.000000000000000D+00 0.000000000000000D+00 0.000000000000000D+00
 0.358206376865002D+03 0.000000000000000D+00 0.000000000000000D+00 0.358206376865002D+03
 0.358206376865002D+03 -.000000000000000D+00 -.000000000000000D+00 -.358206376865002D+03
 0.312389526774381D+03 -.129577668080107D+03 -.187971509413554D+03 -.172738403437202D+03
 0.337536431207286D+03 0.154170267842614D+03 0.204724338134990D+03 0.199837596404375D+03
 0.183182745131446D+02 0.628315323147814D+01 0.150774838616318D+02 -.829160099202330D+01
 0.481685212351915D+02 -.308757529939854D+02 -.318303125830678D+02 -.188075919751492D+02
-.674002991028D-03 0.000000000000D+00 0.000000000000D+00 0.281298333093D-05 0.000000000000D+00  6 -1 1 25 23 21 21 4 0.23663057D-01 0.12834208D+00 0.84569303D+05 0.84569303D+05 0.84569303D+05 0.11703179D+01  1  2 14  3  6  5       21 -.418692250388D-01 0.100000000000D+01
  </mgrwgt>
  </event>
  <event>
  6     66 -.47607883E-03 0.13886477E+02 0.75467711E-02 0.11728624E+00
       -1 -1    0    0    0  501 0.00000000E+00 0.00000000E+00 0.20192517E+02 0.20195052E+02 0.32000000E+00 0.0000E+00 0.9000E+01
        1 -1    0    0  502    0 -.00000000E+00 -.00000000E+00 -.16887664E+04 0.16887665E+04 0.32000000E+00 0.0000E+00 0.9000E+01
       25  1    1    2    0    0 0.79016891E+02 0.80812458E+02 -.69801652E+03 0.71807130E+03 0.12500000E+03 0.0000E+00 0.9000E+01
       23  1    1    2    0    0 -.90751138E+02 -.89982324E+02 -.87927594E+03 0.89318196E+03 0.91188000E+02 0.0000E+00 0.9000E+01
       21  1    1    2  502  503 0.19460755E+02 0.16287051E+01 -.32379004E+02 0.37819784E+02 0.75000000E+00 0.0000E+00 0.9000E+01
       21  1    1    2  503  501 -.77265073E+01 0.75411613E+01 -.58902462E+02 0.59888485E+02 0.75000000E+00 0.0000E+00 0.9000E+01
#aMCatNLO 2  0  0  5  2 0.11137497D+02 0.00000000D+00  -5  6  0 0.00000000D+00 0.00000000D+00 0.00000000D+00 0.00000000D+00 0.00000000D+00
  <mgrwgt>
 -.9330342108D-01    2    2    0
 0.184668993707925D+03 0.000000000000000D+00 0.000000000000000D+00 0.184668993707925D+03
 0.184668993707925D+03 -.000000000000000D+00 -.000000000000000D+00 -.184668993707925D+03
 0.165831426276954D+03 0.755248517767655D+02 0.780835624922694D+02 0.860325366721386D+01
 0.165131448414922D+03 -.941459098572434D+02 -.926352082620856D+02 -.388382512351149D+02
 0.383751127239741D+02 0.186210580804778D+02 0.145516457698161D+02 0.302349975679010D+02
 0.000000000000000D+00 0.000000000000000D+00 0.000000000000000D+00 -.000000000000000D+00
 0.184668993707925D+03 0.000000000000000D+00 0.000000000000000D+00 0.184668993707925D+03
 0.184668993707925D+03 -.000000000000000D+00 -.000000000000000D+00 -.184668993707925D+03
 0.169219076991332D+03 0.791136813412207D+02 0.808880957429844D+02 0.144304334485106D+02
 0.160371458932125D+03 -.906593475455677D+02 -.899105929639309D+02 -.331771227128658D+02
 0.283742933693864D+02 0.194659288003451D+02 0.107743328241294D+01 0.206159471689721D+02
 0.113731581230073D+02 -.792026259599815D+01 0.794506393853358D+01 -.186925790461690D+01
-.170494921396D-03 0.000000000000D+00 0.000000000000D+00 0.227071732366D-04 0.000000000000D+00  6 -1 1 25 23 21 21 4 0.31067384D-02 0.25981042D+00 0.31722999D+05 0.31722999D+05 0.31722999D+05 0.12123612D+01  1  2 13  3  6  5       21 -.710285657188D-01 0.100000000000D+01
-.531738624386D-04 0.000000000000D+00 0.000000000000D+00 0.227696293708D-04 0.000000000000D+00  6 -1 1 25 23 21 21 4 0.31067384D-02 0.25981042D+00 0.30579476D+05 0.30579476D+05 0.30579476D+05 0.12140273D+01  1  2  8  3  6  5       21 -.222748553647D-01 0.100000000000D+01
  </mgrwgt>
  </event>
  <event>
  6     66 0.47607883E-03 0.49606938E+02 0.75467711E-02 0.11055932E+00
       -1 -1    0    0    0  501 0.00000000E+00 0.00000000E+00 0.58314450E+02 0.58315328E+02 0.32000000E+00 0.0000E+00 0.9000E+01
        1 -1    0    0  502    0 -.00000000E+00 -.00000000E+00 -.12955631E+04 0.12955632E+04 0.32000000E+00 0.0000E+00 0.9000E+01
       25  1    1    2    0    0 0.18180283E+02 0.18769325E+03 -.41807849E+03 0.47536713E+03 0.12500000E+03 0.0000E+00 0.9000E+01
       23  1    1    2    0    0 -.78992129E+02 -.20275938E+03 -.50792457E+03 0.56004798E+03 0.91188000E+02 0.0000E+00 0.9000E+01
       21  1    1    2  503  501 0.53208306E+02 0.10735205E+02 -.21236774E+03 0.21919623E+03 0.75000000E+00 0.0000E+00 0.9000E+01
       21  1    1    2  502  503 0.76035395E+01 0.43309220E+01 -.98877883E+02 0.99267160E+02 0.75000000E+00 0.0000E+00 0.9000E+01
#aMCatNLO 2  0  0  5  1 0.10875459D+02 0.00000000D+00  -5  6  0 0.00000000D+00 0.00000000D+00 0.00000000D+00 0.00000000D+00 0.00000000D+00
  <mgrwgt>
 0.3684030422D+00    4    2    0
 0.274864825293824D+03 0.000000000000000D+00 0.000000000000000D+00 0.274864825293824D+03
 0.274864825293824D+03 -.000000000000000D+00 -.000000000000000D+00 -.274864825293824D+03
 0.229628683457028D+03 0.169744307655866D+02 0.187394504975785D+03 0.412249981355107D+02
 0.236855524003627D+03 -.802335917743242D+02 -.203066954135509D+03 0.105674403783866D+02
 0.832454431269926D+02 0.632591610087377D+02 0.156724491597240D+02 -.517924385138973D+02
 0.000000000000000D+00 0.000000000000000D+00 0.000000000000000D+00 -.000000000000000D+00
 0.274864825293824D+03 0.000000000000000D+00 0.000000000000000D+00 0.274864825293824D+03
 0.274864825293824D+03 -.000000000000000D+00 -.000000000000000D+00 -.274864825293824D+03
 0.229790712932721D+03 0.181868455211523D+02 0.187694880578529D+03 0.402323527118336D+02
 0.236126551137546D+03 -.789853849038143D+02 -.202757711040802D+03 0.954549072615233D+01
 0.615451005894042D+02 0.530158648081793D+02 0.106619286016676D+02 -.293843625708246D+02
 0.222672859279764D+02 0.778267457448281D+01 0.440090186060545D+01 -.203934808671613D+02
-.117454158153D-02 0.000000000000D+00 0.000000000000D+00 0.251060268165D-05 0.000000000000D+00  6 -1 1 25 23 21 21 4 0.89715244D-02 0.19931748D+00 0.68956917D+05 0.68956917D+05 0.68956917D+05 0.11786982D+01  1  2 13  3  6  5       21 -.161177691579D+00 0.100000000000D+01
-.111222140806D-02 0.000000000000D+00 0.000000000000D+00 0.251060268165D-05 0.000000000000D+00  6 -1 1 25 23 21 21 4 0.89715244D-02 0.19931748D+00 0.68956917D+05 0.68956917D+05 0.68956917D+05 0.11786982D+01  1  2 13  3  6  5       21 -.152625740880D+00 0.100000000000D+01
-.218762522444D-03 0.000000000000D+00 0.000000000000D+00 0.250892662336D-05 0.000000000000D+00  6 -1 1 25 23 21 21 4 0.89715244D-02 0.19931748D+00 0.69613968D+05 0.69613968D+05 0.69613968D+05 0.11783046D+01  1  2  8  3  6  5       21 -.299766432364D-01 0.100000000000D+01
0.518985398947D-02 0.000000000000D+00 0.000000000000D+00 0.250892662336D-05 0.369342511590D-06  6 -1 1 25 23 21 21 4 0.89715244D-02 0.19931748D+00 0.68956917D+05 0.68956917D+05 0.68956917D+05 0.11786982D+01  1  2  1  3  6  5       21 0.712183117917D+00 0.100000000000D+01
  </mgrwgt>
  </event>
  <event>
  5     66 0.47607883E-03 0.28077375E+02 0.75467711E-02 0.11360207E+00
       -1 -1    0    0    0  501 0.00000000E+00 0.00000000E+00 0.16963739E+03 0.16963770E+03 0.32000000E+00 0.0000E+00 0.9000E+01
        1 -1    0    0  502    0 -.00000000E+00 -.00000000E+00 -.31317660E+03 0.31317677E+03 0.32000000E+00 0.0000E+00 0.9000E+01
       25  1    1    2    0    0 0.16730508E+02 -.16516673E+03 -.82097795E+02 0.22343904E+03 0.12500000E+03 0.0000E+00 0.9000E+01
       23  1    1    2    0    0 -.29288033E+02 0.14005535E+03 -.11075759E+03 0.20262227E+03 0.91188000E+02 0.0000E+00 0.9000E+01
       21  1    1    2  502  501 0.12557525E+02 0.25111375E+02 0.49316175E+02 0.56753152E+02 0.75000000E+00 0.0000E+00 0.9000E+01
#aMCatNLO 1  0  0  5  2 0.26598821D+02 0.00000000D+00  -5  6  0 0.00000000D+00 0.00000000D+00 0.00000000D+00 0.00000000D+00 0.00000000D+00
  <mgrwgt>
 0.1523748226D+00   15    2    0
 0.230492029407969D+03 0.000000000000000D+00 0.000000000000000D+00 0.230492029407969D+03
 0.230492029407969D+03 -.000000000000000D+00 -.000000000000000D+00 -.230492029407969D+03
 0.208457541299124D+03 0.167302223079377D+02 -.165167296349736D+03 -.164137260401613D+02
 0.177730512085688D+03 -.292882760242526D+02 0.140054863362442D+03 -.529123399434922D+02
 0.747960054311261D+02 0.125580537163149D+02 0.251124329872939D+02 0.693260659836535D+02
 0.000000000000000D+00 0.000000000000000D+00 0.000000000000000D+00 0.000000000000000D+00
 0.230492029407969D+03 0.000000000000000D+00 0.000000000000000D+00 0.230492029407969D+03
 0.230492029407969D+03 -.000000000000000D+00 -.000000000000000D+00 -.230492029407969D+03
 0.205427848872351D+03 0.184045155834172D+02 -.161819199691499D+03 -.717087928110627D+01
 0.177602490655638D+03 -.278508451045498D+02 0.142929304614274D+03 -.449770791907214D+02
 0.436785068058002D+02 -.585005377521063D+01 0.347055427427705D+02 0.258672404894919D+02
 0.342752124821481D+02 0.152963832963432D+02 -.158156476655460D+02 0.262807179823357D+02
0.562015362222D-03 0.000000000000D+00 0.000000000000D+00 0.154907093299D-04 0.000000000000D+00  6 -1 1 25 23 21 21 2 0.26098097D-01 0.48181052D-01 0.41119569D+05 0.41119569D+05 0.41119569D+05 0.12007847D+01  1  2  2  3  6  5       21 0.868923778768D-01 0.100000000000D+01
0.102796908212D-03 0.296583654821D-04 -.215828697298D-05 0.154907093299D-04 0.000000000000D+00  6 -1 1 25 23 21 21 4 0.26098097D-01 0.48181052D-01 0.41119569D+05 0.41119569D+05 0.41119569D+05 0.12007847D+01  1  2  3  3  6  5       21 0.229162662560D-01 0.100000000000D+01
0.844060316948D-05 0.000000000000D+00 0.000000000000D+00 0.154907093299D-04 0.000000000000D+00  6 -1 1 25 23 21 21 4 0.26098097D-01 0.48181052D-01 0.41119569D+05 0.41119569D+05 0.41119569D+05 0.12007847D+01  1  2 15  3  6  5       21 0.188164326104D-02 0.100000000000D+01
0.201108336030D-03 0.000000000000D+00 0.000000000000D+00 0.153368835498D-04 0.000000000000D+00  6 -1 1 25 23 21 21 4 0.26098097D-01 0.48181052D-01 0.47157029D+05 0.47157029D+05 0.47157029D+05 0.11948078D+01  1  2 12  3  6  5       21 0.439811012408D-01 0.100000000000D+01
-.262168827040D-03 0.000000000000D+00 0.000000000000D+00 0.154907093299D-04 0.000000000000D+00  6 -1 1 25 23 21 21 4 0.26098097D-01 0.48181052D-01 0.41119569D+05 0.41119569D+05 0.41119569D+05 0.12007847D+01  1  2  4  3  6  5       21 -.584446628694D-01 0.100000000000D+01
-.262637234186D-03 0.000000000000D+00 0.000000000000D+00 0.154907093299D-04 0.000000000000D+00  6 -1 1 25 23 21 21 4 0.26098097D-01 0.48181052D-01 0.41119569D+05 0.41119569D+05 0.41119569D+05 0.12007847D+01  1  2  5  3  6  5       21 -.585490837422D-01 0.100000000000D+01
0.527314880072D-03 0.000000000000D+00 -.000000000000D+00 0.154907093299D-04 0.000000000000D+00  6 -1 1 25 23 21 21 4 0.26098097D-01 0.48181052D-01 0.41119569D+05 0.41119569D+05 0.41119569D+05 0.12007847D+01  1  2  6  3  6  5       21 0.117553031532D+00 0.100000000000D+01
0.589032490102D-05 0.000000000000D+00 0.000000000000D+00 0.153368835498D-04 0.000000000000D+00  6 -1 1 25 23 1 -1 4 0.26098097D-01 0.48181052D-01 0.47157029D+05 0.47157029D+05 0.47157029D+05 0.11948078D+01  1  2 12  6  6  5       21 0.128817621849D-02 0.100000000000D+01
-.101025586089D-04 0.000000000000D+00 0.000000000000D+00 0.154907093299D-04 0.000000000000D+00  6 -1 1 25 23 1 -1 4 0.26098097D-01 0.48181052D-01 0.41119569D+05 0.41119569D+05 0.41119569D+05 0.12007847D+01  1  2  5  6  6  5       21 -.225213896969D-02 0.100000000000D+01
0.589032490102D-05 0.000000000000D+00 0.000000000000D+00 0.153368835498D-04 0.000000000000D+00  6 -1 1 25 23 2 -2 4 0.26098097D-01 0.48181052D-01 0.47157029D+05 0.47157029D+05 0.47157029D+05 0.11948078D+01  1  2 12  7  6  5       21 0.128817621849D-02 0.100000000000D+01
0.589032490102D-05 0.000000000000D+00 0.000000000000D+00 0.153368835498D-04 0.000000000000D+00  6 -1 1 25 23 4 -4 4 0.26098097D-01 0.48181052D-01 0.47157029D+05 0.47157029D+05 0.47157029D+05 0.11948078D+01  1  2 12  7  6  5       21 0.128817621849D-02 0.100000000000D+01
-.101025586089D-04 0.000000000000D+00 0.000000000000D+00 0.154907093299D-04 0.000000000000D+00  6 -1 1 25 23 2 -2 4 0.26098097D-01 0.48181052D-01 0.41119569D+05 0.41119569D+05 0.41119569D+05 0.12007847D+01  1  2  5  7  6  5       21 -.225213896969D-02 0.100000000000D+01
-.101025586089D-04 0.000000000000D+00 0.000000000000D+00 0.154907093299D-04 0.000000000000D+00  6 -1 1 25 23 4 -4 4 0.26098097D-01 0.48181052D-01 0.41119569D+05 0.41119569D+05 0.41119569D+05 0.12007847D+01  1  2  5  7  6  5       21 -.225213896969D-02 0.100000000000D+01
0.589032490102D-05 0.000000000000D+00 0.000000000000D+00 0.153368835498D-04 0.000000000000D+00  6 -1 1 25 23 3 -3 4 0.26098097D-01 0.48181052D-01 0.47157029D+05 0.47157029D+05 0.47157029D+05 0.11948078D+01  1  2 12  8  6  5       21 0.128817621849D-02 0.100000000000D+01
-.101025586089D-04 0.000000000000D+00 0.000000000000D+00 0.154907093299D-04 0.000000000000D+00  6 -1 1 25 23 3 -3 4 0.26098097D-01 0.48181052D-01 0.41119569D+05 0.41119569D+05 0.41119569D+05 0.12007847D+01  1  2  5  8  6  5       21 -.225213896969D-02 0.100000000000D+01
  </mgrwgt>
  </event>
  <event>
  6     66 -.47607883E-03 0.26753998E+02 0.75467711E-02 0.11973682E+00
       -3 -1    0    0    0  501 0.00000000E+00 0.00000000E+00 0.31027579E+02 0.31031607E+02 0.50000000E+00 0.0000E+00 0.9000E+01
        3 -1    0    0  502    0 -.00000000E+00 -.00000000E+00 -.10630582E+04 0.10630583E+04 0.50000000E+00 0.0000E+00 0.9000E+01
       25  1    1    2    0    0 0.25641819E+02 0.45872808E+02 -.26187772E+03 0.29490126E+03 0.12500000E+03 0.0000E+00 0.9000E+01
       23  1    1    2    0    0 -.65059177E+01 -.56480384E+02 -.67971487E+03 0.68815690E+03 0.91188000E+02 0.0000E+00 0.9000E+01
       21  1    1    2  502  503 -.38333139E+02 -.24531804E+01 -.39792209E+02 0.55312115E+02 0.75000000E+00 0.0000E+00 0.9000E+01
       21  1    1    2  503  501 0.19197237E+02 0.13060756E+02 -.50645850E+02 0.55719673E+02 0.75000000E+00 0.0000E+00 0.9000E+01
#aMCatNLO 2  0  0  5  2 0.24309594D+02 0.00000000D+00  -5  6  0 0.00000000D+00 0.00000000D+00 0.00000000D+00 0.00000000D+00 0.00000000D+00
  <mgrwgt>
 -.3664004070D-02    2    2    0
 0.181621560192741D+03 0.000000000000000D+00 0.000000000000000D+00 0.181621560192741D+03
 0.181621560192741D+03 -.000000000000000D+00 -.000000000000000D+00 -.181621560192741D+03
 0.141052525348115D+03 0.303714738035831D+02 0.432510256221762D+02 0.384413484246930D+02
 0.149763186811666D+03 -.167582760201054D+01 -.591578401179557D+02 -.103011175774343D+03
 0.724274082257025D+02 -.286956462015725D+02 0.159068144957795D+02 0.645698273496499D+02
 0.000000000000000D+00 0.000000000000000D+00 0.000000000000000D+00 0.000000000000000D+00
 0.181621560192741D+03 0.000000000000000D+00 0.000000000000000D+00 0.181621560192741D+03
 0.181621560192741D+03 -.000000000000000D+00 -.000000000000000D+00 -.181621560192741D+03
 0.144251784207908D+03 0.255850459002508D+02 0.459042790189078D+02 0.492115823887142D+02
 0.141463941175828D+03 -.656162008714979D+01 -.564495061017061D+02 -.920173554917953D+02
 0.532081623358105D+02 -.384231964220252D+02 -.278929721116140D+01 0.367013124688511D+02
 0.243192326659363D+02 0.193997706089242D+02 0.133345242939597D+02 0.610446063422995D+01
-.126698191949D-03 0.000000000000D+00 0.000000000000D+00 0.120074677861D-04 0.000000000000D+00  6 -3 3 25 23 21 21 4 0.47737926D-02 0.16354774D+00 0.23273002D+05 0.23273002D+05 0.23273002D+05 0.12266447D+01  1  2 13  3  6  5       21 -.461906688878D-02 0.100000000000D+01
0.261967915384D-04 0.000000000000D+00 0.000000000000D+00 0.121863228083D-04 0.352756276868D-07  6 -3 3 25 23 21 21 4 0.47737926D-02 0.16354774D+00 0.23273002D+05 0.23273002D+05 0.23273002D+05 0.12266447D+01  1  2  1  3  6  5       21 0.955062819173D-03 0.100000000000D+01
  </mgrwgt>
  </event>
  <event>
  5     66 0.47607883E-03 0.52590291E+02 0.75467711E-02 0.11249551E+00
       -3 -1    0    0    0  501 0.00000000E+00 0.00000000E+00 0.50323878E+03 0.50323903E+03 0.50000000E+00 0.0000E+00 0.9000E+01
        3 -1    0    0  502    0 0.00000000E+00 0.00000000E+00 -.14292117E+03 0.14292205E+03 0.50000000E+00 0.0000E+00 0.9000E+01
       25  1    1    2    0    0 -.17483041E+03 0.80010223E+01 0.15911336E+03 0.26752897E+03 0.12500000E+03 0.0000E+00 0.9000E+01
       23  1    1    2    0    0 0.16524488E+03 -.59709154E+02 0.30851301E+02 0.20034497E+03 0.91188000E+02 0.0000E+00 0.9000E+01
       21  1    1    2  502  501 0.95855251E+01 0.51708131E+02 0.17035295E+03 0.17828714E+03 0.75000000E+00 0.0000E+00 0.9000E+01
#aMCatNLO 1  0  0  5  1 0.15279500D+01 0.00000000D+00  -5  6  0 0.00000000D+00 0.00000000D+00 0.00000000D+00 0.00000000D+00 0.00000000D+00
  <mgrwgt>
 0.7673228719D-02   13    2    0
 0.268186202967847D+03 0.000000000000000D+00 0.000000000000000D+00 0.268186202967847D+03
 0.268186202967847D+03 -.000000000000000D+00 -.000000000000000D+00 -.268186202967847D+03
 0.215401586679968D+03 -.174830514078060D+03 0.800044222073960D+01 0.119636037932400D+02
 0.220628670632727D+03 0.165244771336572D+03 -.597097477476846D+02 -.974200725261276D+02
 0.100342148622998D+03 0.958574274148754D+01 0.517093055269450D+02 0.854564687328876D+02
 0.000000000000000D+00 0.000000000000000D+00 0.000000000000000D+00 -.000000000000000D+00
 0.268186202967847D+03 0.000000000000000D+00 0.000000000000000D+00 0.268186202967847D+03
 0.268186202967847D+03 -.000000000000000D+00 -.000000000000000D+00 -.268186202967847D+03
 0.215395126767269D+03 -.174765694656825D+03 0.835010393679977D+01 0.125414660406843D+02
 0.220321208192667D+03 0.165311118444261D+03 -.593518450838206D+02 -.968285910221269D+02
 0.991216512955035D+02 0.904202286401558D+01 0.498405072128083D+02 0.852013346071763D+02
 0.153441968025374D+01 0.412553348548879D+00 0.116123393421264D+01 -.914209625733700D+00
0.326661743368D-03 0.000000000000D+00 0.000000000000D+00 0.399611883549D-05 0.000000000000D+00  6 -3 3 25 23 21 21 2 0.77421438D-01 0.21987959D-01 0.54199282D+05 0.54199282D+05 0.54199282D+05 0.11888287D+01  1  2  2  3  6  5       21 0.346364313400D-02 0.100000000000D+01
0.246214674335D-04 0.172384137962D-04 -.125446710654D-05 0.399611883549D-05 0.000000000000D+00  6 -3 3 25 23 21 21 4 0.77421438D-01 0.21987959D-01 0.54199282D+05 0.54199282D+05 0.54199282D+05 0.11888287D+01  1  2  3  3  6  5       21 0.368966840720D-03 0.100000000000D+01
0.696246334785D-05 0.000000000000D+00 0.000000000000D+00 0.399611883549D-05 0.000000000000D+00  6 -3 3 25 23 21 21 4 0.77421438D-01 0.21987959D-01 0.54199282D+05 0.54199282D+05 0.54199282D+05 0.11888287D+01  1  2 15  3  6  5       21 0.104336514955D-03 0.100000000000D+01
-.674897076182D-02 0.000000000000D+00 0.000000000000D+00 0.399611883549D-05 0.000000000000D+00  6 -3 3 25 23 21 21 4 0.77421438D-01 0.21987959D-01 0.54199282D+05 0.54199282D+05 0.54199282D+05 0.11888287D+01  1  2  4  3  6  5       21 -.101137205848D+00 0.100000000000D+01
0.696801290314D-02 0.000000000000D+00 0.000000000000D+00 0.399611883549D-05 0.146614431023D-04  6 -3 3 25 23 21 21 4 0.77421438D-01 0.21987959D-01 0.54014237D+05 0.54014237D+05 0.54014237D+05 0.11889745D+01  1  2 11  3  6  5       21 0.104456566069D+00 0.100000000000D+01
0.926118521139D-09 0.000000000000D+00 0.000000000000D+00 0.399709916857D-05 0.000000000000D+00  6 -3 3 25 23 3 -3 4 0.77421438D-01 0.21987959D-01 0.54014237D+05 0.54014237D+05 0.54014237D+05 0.11889745D+01  1  2 12  6  6  5       21 0.138833210896D-07 0.100000000000D+01
0.681154195716D-05 0.000000000000D+00 0.000000000000D+00 0.399709916857D-05 0.150087250934D-07  6 -3 3 25 23 3 -3 4 0.77421438D-01 0.21987959D-01 0.54014237D+05 0.54014237D+05 0.54014237D+05 0.11889745D+01  1  2 11  6  6  5       21 0.102110930673D-03 0.100000000000D+01
0.926118521139D-09 0.000000000000D+00 0.000000000000D+00 0.399709916857D-05 0.000000000000D+00  6 -3 3 25 23 2 -2 4 0.77421438D-01 0.21987959D-01 0.54014237D+05 0.54014237D+05 0.54014237D+05 0.11889745D+01  1  2 12  7  6  5       21 0.138833210896D-07 0.100000000000D+01
0.926118521139D-09 0.000000000000D+00 0.000000000000D+00 0.399709916857D-05 0.000000000000D+00  6 -3 3 25 23 4 -4 4 0.77421438D-01 0.21987959D-01 0.54014237D+05 0.54014237D+05 0.54014237D+05 0.11889745D+01  1  2 12  7  6  5       21 0.138833210896D-07 0.100000000000D+01
0.699920608263D-05 0.000000000000D+00 0.000000000000D+00 0.399709916857D-05 0.136475748448D-07  6 -3 3 25 23 2 -2 4 0.77421438D-01 0.21987959D-01 0.54014237D+05 0.54014237D+05 0.54014237D+05 0.11889745D+01  1  2 11  7  6  5       21 0.104924178925D-03 0.100000000000D+01
0.699920608263D-05 0.000000000000D+00 0.000000000000D+00 0.399709916857D-05 0.136475748448D-07  6 -3 3 25 23 4 -4 4 0.77421438D-01 0.21987959D-01 0.54014237D+05 0.54014237D+05 0.54014237D+05 0.11889745D+01  1  2 11  7  6  5       21 0.104924178925D-03 0.100000000000D+01
0.926118521139D-09 0.000000000000D+00 0.000000000000D+00 0.399709916857D-05 0.000000000000D+00  6 -3 3 25 23 1 -1 4 0.77421438D-01 0.21987959D-01 0.54014237D+05 0.54014237D+05 0.54014237D+05 0.11889745D+01  1  2 12  8  6  5       21 0.138833210896D-07 0.100000000000D+01
0.699807254653D-05 0.000000000000D+00 0.000000000000D+00 0.399709916857D-05 0.136453645915D-07  6 -3 3 25 23 1 -1 4 0.77421438D-01 0.21987959D-01 0.54014237D+05 0.54014237D+05 0.54014237D+05 0.11889745D+01  1  2 11  8  6  5       21 0.104907186234D-03 0.100000000000D+01
  </mgrwgt>
  </event>
  <event>
  5     66 0.47607883E-03 0.10869939E+03 0.75467711E-02 0.11431175E+00
       -1 -1    0    0    0  501 0.00000000E+00 0.00000000E+00 0.94751988E+02 0.94752528E+02 0.32000000E+00 0.0000E+00 0.9000E+01
        1 -1    0    0  502    0 -.00000000E+00 -.00000000E+00 -.86690545E+03 0.86690551E+03 0.32000000E+00 0.0000E+00 0.9000E+01
       25  1    1    2    0    0 -.52987674E+02 -.11213635E+03 -.80712758E+02 0.19370546E+03 0.12500000E+03 0.0000E+00 0.9000E+01
       23  1    1    2    0    0 0.47985449E+01 -.22784430E+02 -.42288337E+02 0.10317806E+03 0.91188000E+02 0.0000E+00 0.9000E+01
       21  1    1    2  502  501 0.48189129E+02 0.13492078E+03 -.64915236E+03 0.66477452E+03 0.75000000E+00 0.0000E+00 0.9000E+01
#aMCatNLO 1  0  0  5  2 0.10008344D+02 0.00000000D+00  -5  6  0 0.00000000D+00 0.00000000D+00 0.00000000D+00 0.00000000D+00 0.00000000D+00
  <mgrwgt>
 0.3471299495D-01   20    2    0
 0.286603039655601D+03 0.000000000000000D+00 0.000000000000000D+00 0.286603039655601D+03
 0.286603039655601D+03 -.000000000000000D+00 -.000000000000000D+00 -.286603039655601D+03
 0.216250284596342D+03 -.529877622864903D+02 -.112136598576359D+03 0.125526355382421D+03
 0.116134493274162D+03 0.479849760044386D+01 -.227845621024156D+02 0.680426875911439D+02
 0.240821301440698D+03 0.481892646860465D+02 0.134921160678775D+03 -.193569042973565D+03
 0.000000000000000D+00 0.000000000000000D+00 0.000000000000000D+00 0.000000000000000D+00
 0.286603039655601D+03 0.000000000000000D+00 0.000000000000000D+00 0.286603039655601D+03
 0.286603039655601D+03 -.000000000000000D+00 -.000000000000000D+00 -.286603039655601D+03
 0.215390300777611D+03 -.527740586911684D+02 -.111538267447841D+03 0.124667940117196D+03
 0.115806860955104D+03 0.491333087373228D+01 -.224630498606838D+02 0.675814195689656D+02
 0.221468049001055D+03 0.534190280507223D+02 0.119925862353520D+03 -.178360005912801D+03
 0.205408685774306D+02 -.555830023328611D+01 0.140754549550050D+02 -.138893537733602D+02
0.321284998477D-04 0.000000000000D+00 0.000000000000D+00 0.235041719553D-05 0.000000000000D+00  6 -1 1 25 23 21 21 2 0.14577275D-01 0.13337011D+00 0.42739670D+05 0.42739670D+05 0.42739670D+05 0.11990895D+01  1  2  2  3  6  5       21 0.317702430796D-02 0.100000000000D+01
-.233235918898D-05 0.169546751730D-05 -.123381899043D-06 0.235041719553D-05 0.000000000000D+00  6 -1 1 25 23 21 21 4 0.14577275D-01 0.13337011D+00 0.42739670D+05 0.42739670D+05 0.42739670D+05 0.11990895D+01  1  2  3  3  6  5       21 -.331610833056D-03 0.100000000000D+01
0.133795268550D-05 0.000000000000D+00 0.000000000000D+00 0.235041719553D-05 0.000000000000D+00  6 -1 1 25 23 21 21 4 0.14577275D-01 0.13337011D+00 0.42739670D+05 0.42739670D+05 0.42739670D+05 0.11990895D+01  1  2 15  3  6  5       21 0.190227820280D-03 0.100000000000D+01
0.366700999220D-03 0.000000000000D+00 0.000000000000D+00 0.234824015806D-05 0.000000000000D+00  6 -1 1 25 23 21 21 4 0.14577275D-01 0.13337011D+00 0.43285849D+05 0.43285849D+05 0.43285849D+05 0.11985340D+01  1  2 12  3  6  5       21 0.520361906701D-01 0.100000000000D+01
0.279352244895D-03 0.000000000000D+00 0.000000000000D+00 0.234824015806D-05 0.000000000000D+00  6 -1 1 25 23 21 21 4 0.14577275D-01 0.13337011D+00 0.43285849D+05 0.43285849D+05 0.43285849D+05 0.11985340D+01  1  2 12  3  6  5       21 0.396410882719D-01 0.100000000000D+01
-.489741341137D-03 0.000000000000D+00 0.000000000000D+00 0.235041719553D-05 0.000000000000D+00  6 -1 1 25 23 21 21 4 0.14577275D-01 0.13337011D+00 0.42739670D+05 0.42739670D+05 0.42739670D+05 0.11990895D+01  1  2  4  3  6  5       21 -.696305847247D-01 0.100000000000D+01
-.808541336688D-03 0.000000000000D+00 0.000000000000D+00 0.235041719553D-05 0.000000000000D+00  6 -1 1 25 23 21 21 4 0.14577275D-01 0.13337011D+00 0.42739670D+05 0.42739670D+05 0.42739670D+05 0.11990895D+01  1  2  5  3  6  5       21 -.114957021837D+00 0.100000000000D+01
0.878313645618D-03 0.000000000000D+00 -.000000000000D+00 0.235041719553D-05 0.000000000000D+00  6 -1 1 25 23 21 21 4 0.14577275D-01 0.13337011D+00 0.42739670D+05 0.42739670D+05 0.42739670D+05 0.11990895D+01  1  2  6  3  6  5       21 0.124877129168D+00 0.100000000000D+01
0.266801196242D-05 0.000000000000D+00 0.000000000000D+00 0.234824015806D-05 0.000000000000D+00  6 -1 1 25 23 1 -1 4 0.14577275D-01 0.13337011D+00 0.43285849D+05 0.43285849D+05 0.43285849D+05 0.11985340D+01  1  2 12  6  6  5       21 0.378600493268D-03 0.100000000000D+01
0.244955185987D-05 0.000000000000D+00 0.000000000000D+00 0.234824015806D-05 0.000000000000D+00  6 -1 1 25 23 1 -1 4 0.14577275D-01 0.13337011D+00 0.43285849D+05 0.43285849D+05 0.43285849D+05 0.11985340D+01  1  2 12  6  6  5       21 0.347600219000D-03 0.100000000000D+01
-.561662899649D-05 0.000000000000D+00 0.000000000000D+00 0.235041719553D-05 0.000000000000D+00  6 -1 1 25 23 1 -1 4 0.14577275D-01 0.13337011D+00 0.42739670D+05 0.42739670D+05 0.42739670D+05 0.11990895D+01  1  2  5  6  6  5       21 -.798562686784D-03 0.100000000000D+01
0.266801196242D-05 0.000000000000D+00 0.000000000000D+00 0.234824015806D-05 0.000000000000D+00  6 -1 1 25 23 2 -2 4 0.14577275D-01 0.13337011D+00 0.43285849D+05 0.43285849D+05 0.43285849D+05 0.11985340D+01  1  2 12  7  6  5       21 0.378600493268D-03 0.100000000000D+01
0.266801196242D-05 0.000000000000D+00 0.000000000000D+00 0.234824015806D-05 0.000000000000D+00  6 -1 1 25 23 4 -4 4 0.14577275D-01 0.13337011D+00 0.43285849D+05 0.43285849D+05 0.43285849D+05 0.11985340D+01  1  2 12  7  6  5       21 0.378600493268D-03 0.100000000000D+01
0.244955185987D-05 0.000000000000D+00 0.000000000000D+00 0.234824015806D-05 0.000000000000D+00  6 -1 1 25 23 2 -2 4 0.14577275D-01 0.13337011D+00 0.43285849D+05 0.43285849D+05 0.43285849D+05 0.11985340D+01  1  2 12  7  6  5       21 0.347600219000D-03 0.100000000000D+01
0.244955185987D-05 0.000000000000D+00 0.000000000000D+00 0.234824015806D-05 0.000000000000D+00  6 -1 1 25 23 4 -4 4 0.14577275D-01 0.13337011D+00 0.43285849D+05 0.43285849D+05 0.43285849D+05 0.11985340D+01  1  2 12  7  6  5       21 0.347600219000D-03 0.100000000000D+01
-.561662899649D-05 0.000000000000D+00 0.000000000000D+00 0.235041719553D-05 0.000000000000D+00  6 -1 1 25 23 2 -2 4 0.14577275D-01 0.13337011D+00 0.42739670D+05 0.42739670D+05 0.42739670D+05 0.11990895D+01  1  2  5  7  6  5       21 -.798562686784D-03 0.100000000000D+01
-.561662899649D-05 0.000000000000D+00 0.000000000000D+00 0.235041719553D-05 0.000000000000D+00  6 -1 1 25 23 4 -4 4 0.14577275D-01 0.13337011D+00 0.42739670D+05 0.42739670D+05 0.42739670D+05 0.11990895D+01  1  2  5  7  6  5       21 -.798562686784D-03 0.100000000000D+01
0.266801196242D-05 0.000000000000D+00 0.000000000000D+00 0.234824015806D-05 0.000000000000D+00  6 -1 1 25 23 3 -3 4 0.14577275D-01 0.13337011D+00 0.43285849D+05 0.43285849D+05 0.43285849D+05 0.11985340D+01  1  2 12  8  6  5       21 0.378600493268D-03 0.100000000000D+01
0.244955185987D-05 0.000000000000D+00 0.000000000000D+00 0.234824015806D-05 0.000000000000D+00  6 -1 1 25 23 3 -3 4 0.14577275D-01 0.13337011D+00 0.43285849D+05 0.43285849D+05 0.43285849D+05 0.11985340D+01  1  2 12  8  6  5       21 0.347600219000D-03 0.100000000000D+01
-.561662899649D-05 0.000000000000D+00 0.000000000000D+00 0.235041719553D-05 0.000000000000D+00  6 -1 1 25 23 3 -3 4 0.14577275D-01 0.13337011D+00 0.42739670D+05 0.42739670D+05 0.42739670D+05 0.11990895D+01  1  2  5  8  6  5       21 -.798562686784D-03 0.100000000000D+01
  </mgrwgt>
  </event>
  <event>
  6     66 0.47607883E-03 0.21744171E+02 0.75467711E-02 0.11193752E+00
       -1 -1    0    0    0  503 0.00000000E+00 0.00000000E+00 0.19521932E+03 0.19521958E+03 0.32000000E+00 0.0000E+00 0.9000E+01
        1 -1    0    0  502    0 0.00000000E+00 0.00000000E+00 -.47609454E+03 0.47609464E+03 0.32000000E+00 0.0000E+00 0.9000E+01
       25  1    1    2    0    0 0.26514725E+02 0.20640016E+03 -.49679167E+02 0.24778434E+03 0.12500000E+03 0.0000E+00 0.9000E+01
       23  1    1    2    0    0 -.43175352E+02 -.16037999E+03 -.27111533E+03 0.33076370E+03 0.91188000E+02 0.0000E+00 0.9000E+01
       21  1    1    2  502  501 0.73561663E+01 -.16619326E+02 -.18973123E+02 0.26284160E+02 0.75000000E+00 0.0000E+00 0.9000E+01
       21  1    1    2  501  503 0.93044609E+01 -.29400843E+02 0.58892404E+02 0.66482030E+02 0.75000000E+00 0.0000E+00 0.9000E+01
#aMCatNLO 2  0  0  1  5 0.85754319D+02 0.00000000D+00  -5  6  0 0.00000000D+00 0.00000000D+00 0.00000000D+00 0.00000000D+00 0.00000000D+00
  <mgrwgt>
 0.4803033585D+00    1    2    0
 0.249714321402860D+03 0.000000000000000D+00 0.000000000000000D+00 0.249714321402860D+03
 0.249714321402860D+03 0.000000000000000D+00 0.000000000000000D+00 -.249714321402860D+03
 0.254630038787068D+03 0.313549355294438D+02 0.191103378800932D+03 0.108202695352361D+03
 0.224760026413849D+03 -.390785595151220D+02 -.173327394694949D+03 -.103113037798518D+03
 0.200385776048021D+02 0.772362398567818D+01 -.177759841059826D+02 -.508965755384261D+01
 0.000000000000000D+00 0.000000000000000D+00 -.000000000000000D+00 0.000000000000000D+00
 0.368526984580031D+03 0.000000000000000D+00 0.000000000000000D+00 0.368526984580031D+03
 0.252198958250122D+03 0.000000000000000D+00 0.000000000000000D+00 -.252198958250122D+03
 0.265780890598080D+03 0.265118646714270D+02 0.206406830209750D+03 0.108202695352361D+03
 0.215712522151636D+03 -.431777043317658D+02 -.160374649348394D+03 -.103113037798518D+03
 0.188863948148193D+02 0.736137871193401D+01 -.166313378459261D+02 -.508965755384261D+01
 0.120346135265618D+03 0.930446094840485D+01 -.294008430154300D+02 0.116328026329909D+03
0.490274948208D-02 0.000000000000D+00 0.000000000000D+00 0.246680698595D-04 0.123027505773D-06  6 -1 1 25 23 21 21 4 0.30033632D-01 0.73245005D-01 0.57901832D+05 0.57901832D+05 0.57901832D+05 0.11860221D+01  1  2  1  1  6  1       -1 0.480303358454D+00 0.100000000000D+01
  </mgrwgt>
  </event>
  <event>
  5     66 0.47607883E-03 0.35701779E+02 0.75467711E-02 0.11725476E+00
       -1 -1    0    0    0  501 0.00000000E+00 0.00000000E+00 0.78529690E+02 0.78530342E+02 0.32000000E+00 0.0000E+00 0.9000E+01
        1 -1    0    0  502    0 -.00000000E+00 -.00000000E+00 -.44766502E+03 0.44766513E+03 0.32000000E+00 0.0000E+00 0.9000E+01
       25  1    1    2    0    0 -.97319429E+01 -.10352379E+03 -.13643857E+03 0.21225543E+03 0.12500000E+03 0.0000E+00 0.9000E+01
       23  1    1    2    0    0 -.22352957E+02 0.11917599E+03 -.11339766E+03 0.18941185E+03 0.91188000E+02 0.0000E+00 0.9000E+01
       21  1    1    2  502  501 0.32084900E+02 -.15652197E+02 -.11929910E+03 0.12452819E+03 0.75000000E+00 0.0000E+00 0.9000E+01
#aMCatNLO 1  0  0  5  2 0.17059735D+01 0.00000000D+00  -5  6  0 0.00000000D+00 0.00000000D+00 0.00000000D+00 0.00000000D+00 0.00000000D+00
  <mgrwgt>
 0.1229800243D+00   25    2    0
 0.187497192128652D+03 0.000000000000000D+00 0.000000000000000D+00 0.187497192128652D+03
 0.187497192128652D+03 -.000000000000000D+00 -.000000000000000D+00 -.187497192128652D+03
 0.163531801866715D+03 -.973314148103462D+01 -.103523203778810D+03 0.174889238678595D+02
 0.154159388803309D+03 -.223540866194391D+02 0.119176536890323D+03 0.273333802968036D+02
 0.573031935872811D+02 0.320872281004737D+02 -.156533331115137D+02 -.448223041646631D+02
 0.000000000000000D+00 0.000000000000000D+00 0.000000000000000D+00 -.000000000000000D+00
 0.187497192128652D+03 0.000000000000000D+00 0.000000000000000D+00 0.187497192128652D+03
 0.187497192128652D+03 -.000000000000000D+00 -.000000000000000D+00 -.187497192128652D+03
 0.163545782635736D+03 -.959506880726221D+01 -.103590560720624D+03 0.172960516334217D+02
 0.154059369364745D+03 -.222239750188175D+02 0.119113063653563D+03 0.271516287999104D+02
 0.544164880953354D+02 0.309609418129411D+02 -.162491454134565D+02 -.416957975342576D+02
 0.297274416148850D+01 0.858102013138586D+00 0.726642480517740D+00 -.275188289907447D+01
0.641131360743D-04 0.000000000000D+00 0.000000000000D+00 0.108584740206D-04 0.000000000000D+00  6 -1 1 25 23 21 21 2 0.12081550D-01 0.68871600D-01 0.30627199D+05 0.30627199D+05 0.30627199D+05 0.12139564D+01  1  2  2  3  6  5       21 0.220830551405D-01 0.100000000000D+01
0.675815321212D-05 0.338334314275D-05 -.246211323902D-06 0.108584740206D-04 0.000000000000D+00  6 -1 1 25 23 21 21 4 0.12081550D-01 0.68871600D-01 0.30627199D+05 0.30627199D+05 0.30627199D+05 0.12139564D+01  1  2  3  3  6  5       21 0.343041258006D-02 0.100000000000D+01
0.940057965061D-06 0.000000000000D+00 0.000000000000D+00 0.108584740206D-04 0.000000000000D+00  6 -1 1 25 23 21 21 4 0.12081550D-01 0.68871600D-01 0.30627199D+05 0.30627199D+05 0.30627199D+05 0.12139564D+01  1  2 15  3  6  5       21 0.477169807803D-03 0.100000000000D+01
0.171896621874D-07 0.000000000000D+00 0.000000000000D+00 0.108568283854D-04 0.000000000000D+00  6 -1 1 25 23 21 21 4 0.12081550D-01 0.68871600D-01 0.30689231D+05 0.30689231D+05 0.30689231D+05 0.12138644D+01  1  2 12  3  6  5       21 0.872302084510D-05 0.100000000000D+01
0.151615528363D-07 0.000000000000D+00 0.000000000000D+00 0.108568283854D-04 0.000000000000D+00  6 -1 1 25 23 21 21 4 0.12081550D-01 0.68871600D-01 0.30689231D+05 0.30689231D+05 0.30689231D+05 0.12138644D+01  1  2 12  3  6  5       21 0.769384179822D-05 0.100000000000D+01
-.224265704212D-02 0.000000000000D+00 0.000000000000D+00 0.108584740206D-04 0.000000000000D+00  6 -1 1 25 23 21 21 4 0.12081550D-01 0.68871600D-01 0.30627199D+05 0.30627199D+05 0.30627199D+05 0.12139564D+01  1  2  4  3  6  5       21 -.113836408980D+01 0.100000000000D+01
-.205890770285D-02 0.000000000000D+00 0.000000000000D+00 0.108584740206D-04 0.000000000000D+00  6 -1 1 25 23 21 21 4 0.12081550D-01 0.68871600D-01 0.30627199D+05 0.30627199D+05 0.30627199D+05 0.12139564D+01  1  2  5  3  6  5       21 -.104509363185D+01 0.100000000000D+01
0.221732530812D-02 0.000000000000D+00 -.000000000000D+00 0.108584740206D-04 0.000000000000D+00  6 -1 1 25 23 21 21 4 0.12081550D-01 0.68871600D-01 0.30627199D+05 0.30627199D+05 0.30627199D+05 0.12139564D+01  1  2  6  3  6  5       21 0.112550579904D+01 0.100000000000D+01
0.227348370804D-02 0.000000000000D+00 0.000000000000D+00 0.108584740206D-04 0.511339547061D-04  6 -1 1 25 23 21 21 4 0.12081550D-01 0.68871600D-01 0.30689231D+05 0.30689231D+05 0.30689231D+05 0.12138644D+01  1  2 11  3  6  5       21 0.115369607384D+01 0.100000000000D+01
0.191260106604D-08 0.000000000000D+00 0.000000000000D+00 0.108568283854D-04 0.000000000000D+00  6 -1 1 25 23 1 -1 4 0.12081550D-01 0.68871600D-01 0.30689231D+05 0.30689231D+05 0.30689231D+05 0.12138644D+01  1  2 12  6  6  5       21 0.970563515765D-06 0.100000000000D+01
0.186860469073D-08 0.000000000000D+00 0.000000000000D+00 0.108568283854D-04 0.000000000000D+00  6 -1 1 25 23 1 -1 4 0.12081550D-01 0.68871600D-01 0.30689231D+05 0.30689231D+05 0.30689231D+05 0.12138644D+01  1  2 12  6  6  5       21 0.948237230654D-06 0.100000000000D+01
-.819255377781D-05 0.000000000000D+00 0.000000000000D+00 0.108584740206D-04 0.000000000000D+00  6 -1 1 25 23 1 -1 4 0.12081550D-01 0.68871600D-01 0.30627199D+05 0.30627199D+05 0.30627199D+05 0.12139564D+01  1  2  5  6  6  5       21 -.415850879080D-02 0.100000000000D+01
0.885024165609D-05 0.000000000000D+00 0.000000000000D+00 0.108584740206D-04 0.236057665179D-06  6 -1 1 25 23 1 -1 4 0.12081550D-01 0.68871600D-01 0.30689231D+05 0.30689231D+05 0.30689231D+05 0.12138644D+01  1  2 11  6  6  5       21 0.449112039599D-02 0.100000000000D+01
0.191260106604D-08 0.000000000000D+00 0.000000000000D+00 0.108568283854D-04 0.000000000000D+00  6 -1 1 25 23 2 -2 4 0.12081550D-01 0.68871600D-01 0.30689231D+05 0.30689231D+05 0.30689231D+05 0.12138644D+01  1  2 12  7  6  5       21 0.970563515765D-06 0.100000000000D+01
0.191260106604D-08 0.000000000000D+00 0.000000000000D+00 0.108568283854D-04 0.000000000000D+00  6 -1 1 25 23 4 -4 4 0.12081550D-01 0.68871600D-01 0.30689231D+05 0.30689231D+05 0.30689231D+05 0.12138644D+01  1  2 12  7  6  5       21 0.970563515765D-06 0.100000000000D+01
0.186860469073D-08 0.000000000000D+00 0.000000000000D+00 0.108568283854D-04 0.000000000000D+00  6 -1 1 25 23 2 -2 4 0.12081550D-01 0.68871600D-01 0.30689231D+05 0.30689231D+05 0.30689231D+05 0.12138644D+01  1  2 12  7  6  5       21 0.948237230654D-06 0.100000000000D+01
0.186860469073D-08 0.000000000000D+00 0.000000000000D+00 0.108568283854D-04 0.000000000000D+00  6 -1 1 25 23 4 -4 4 0.12081550D-01 0.68871600D-01 0.30689231D+05 0.30689231D+05 0.30689231D+05 0.12138644D+01  1  2 12  7  6  5       21 0.948237230654D-06 0.100000000000D+01
-.819255377781D-05 0.000000000000D+00 0.000000000000D+00 0.108584740206D-04 0.000000000000D+00  6 -1 1 25 23 2 -2 4 0.12081550D-01 0.68871600D-01 0.30627199D+05 0.30627199D+05 0.30627199D+05 0.12139564D+01  1  2  5  7  6  5       21 -.415850879080D-02 0.100000000000D+01
-.819255377781D-05 0.000000000000D+00 0.000000000000D+00 0.108584740206D-04 0.000000000000D+00  6 -1 1 25 23 4 -4 4 0.12081550D-01 0.68871600D-01 0.30627199D+05 0.30627199D+05 0.30627199D+05 0.12139564D+01  1  2  5  7  6  5       21 -.415850879080D-02 0.100000000000D+01
0.877709131962D-05 0.000000000000D+00 0.000000000000D+00 0.108584740206D-04 0.232528891930D-06  6 -1 1 25 23 2 -2 4 0.12081550D-01 0.68871600D-01 0.30689231D+05 0.30689231D+05 0.30689231D+05 0.12138644D+01  1  2 11  7  6  5       21 0.445399971829D-02 0.100000000000D+01
0.877709131962D-05 0.000000000000D+00 0.000000000000D+00 0.108584740206D-04 0.232528891930D-06  6 -1 1 25 23 4 -4 4 0.12081550D-01 0.68871600D-01 0.30689231D+05 0.30689231D+05 0.30689231D+05 0.12138644D+01  1  2 11  7  6  5       21 0.445399971829D-02 0.100000000000D+01
0.191260106604D-08 0.000000000000D+00 0.000000000000D+00 0.108568283854D-04 0.000000000000D+00  6 -1 1 25 23 3 -3 4 0.12081550D-01 0.68871600D-01 0.30689231D+05 0.30689231D+05 0.30689231D+05 0.12138644D+01  1  2 12  8  6  5       21 0.970563515765D-06 0.100000000000D+01
0.186860469073D-08 0.000000000000D+00 0.000000000000D+00 0.108568283854D-04 0.000000000000D+00  6 -1 1 25 23 3 -3 4 0.12081550D-01 0.68871600D-01 0.30689231D+05 0.30689231D+05 0.30689231D+05 0.12138644D+01  1  2 12  8  6  5       21 0.948237230654D-06 0.100000000000D+01
-.819255377781D-05 0.000000000000D+00 0.000000000000D+00 0.108584740206D-04 0.000000000000D+00  6 -1 1 25 23 3 -3 4 0.12081550D-01 0.68871600D-01 0.30627199D+05 0.30627199D+05 0.30627199D+05 0.12139564D+01  1  2  5  8  6  5       21 -.415850879080D-02 0.100000000000D+01
0.878114889269D-05 0.000000000000D+00 0.000000000000D+00 0.108584740206D-04 0.232636388017D-06  6 -1 1 25 23 3 -3 4 0.12081550D-01 0.68871600D-01 0.30689231D+05 0.30689231D+05 0.30689231D+05 0.12138644D+01  1  2 11  8  6  5       21 0.445605876367D-02 0.100000000000D+01
  </mgrwgt>
  </event>
  <event>
  6     66 0.47607883E-03 0.11778578E+03 0.75467711E-02 0.11510875E+00
       21 -1    0    0  503  501 0.00000000E+00 0.00000000E+00 0.14251724E+04 0.14251726E+04 0.75000000E+00 0.0000E+00 0.9000E+01
        3 -1    0    0  502    0 0.00000000E+00 0.00000000E+00 -.72378671E+02 0.72380398E+02 0.50000000E+00 0.0000E+00 0.9000E+01
       25  1    1    2    0    0 0.20440158E+02 -.25163851E+02 0.86482292E+02 0.15541945E+03 0.12500000E+03 0.0000E+00 0.9000E+01
       23  1    1    2    0    0 -.15291734E+02 -.88810049E+02 0.10637100E+03 0.16658662E+03 0.91188000E+02 0.0000E+00 0.9000E+01
        3  1    1    2  503    0 -.15490647E+02 0.12405544E+03 0.11525404E+04 0.11593012E+04 0.50000000E+00 0.0000E+00 0.9000E+01
       21  1    1    2  502  501 0.10342223E+02 -.10081540E+02 0.74000107E+01 0.16245667E+02 0.75000000E+00 0.0000E+00 0.9000E+01
#aMCatNLO 2  0  0  1  5 0.85754319D+02 0.00000000D+00  -5  6  0 0.00000000D+00 0.00000000D+00 0.00000000D+00 0.00000000D+00 0.00000000D+00
  <mgrwgt>
 0.3632707201D-03    1    2    0
 0.121123019710939D+03 0.000000000000000D+00 0.000000000000000D+00 0.121123019710939D+03
 0.121123019710939D+03 0.000000000000000D+00 0.000000000000000D+00 -.121123019710939D+03
 0.131330173485289D+03 0.125851636807601D+02 0.376456893096427D+02 -.685785675021165D+01
 0.100174350220732D+03 -.221836020031723D+02 -.336907339607892D+02 0.961620223861976D+01
 0.000000000000000D+00 -.000000000000000D+00 0.000000000000000D+00 0.000000000000000D+00
 0.107415157158567D+02 0.959843832241222D+01 -.395495534885344D+01 -.275834548840811D+01
 0.721455541907153D+03 0.000000000000000D+00 0.000000000000000D+00 0.721455541907153D+03
 0.142979532906164D+03 0.000000000000000D+00 0.000000000000000D+00 -.142979532906164D+03
 0.129314435913176D+03 0.204273593147962D+02 -.251578243844881D+02 -.685785675021165D+01
 0.128562652840675D+03 -.153014327118505D+02 -.888059636111366D+02 0.961620223861976D+01
 0.591831230449899D+03 -.154906465171991D+02 0.124055440092757D+03 0.578476009000989D+03
 0.147267556095667D+02 0.103647199142534D+02 -.100916520971327D+02 -.275834548840811D+01
0.564420292621D-05 0.000000000000D+00 0.000000000000D+00 0.160580303560D-03 0.377587016519D-07  6 21 3 25 23 3 21 4 0.21925728D+00 0.11135320D-01 0.39366519D+05 0.39366519D+05 0.39366519D+05 0.12027049D+01  1  2  1  4  5  1       -3 0.363270720140D-03 0.100000000000D+01
  </mgrwgt>
  </event>
  <event>
  6     66 -.47607883E-03 0.17377363E+02 0.75467711E-02 0.11783002E+00
       -1 -1    0    0    0  501 0.00000000E+00 0.00000000E+00 0.39050163E+02 0.39051474E+02 0.32000000E+00 0.0000E+00 0.9000E+01
        1 -1    0    0  502    0 -.00000000E+00 -.00000000E+00 -.14232095E+04 0.14232096E+04 0.32000000E+00 0.0000E+00 0.9000E+01
       25  1    1    2    0    0 0.12003109E+03 -.32954230E+02 -.44147160E+03 0.47541100E+03 0.12500000E+03 0.0000E+00 0.9000E+01
       23  1    1    2    0    0 -.94654089E+02 0.27498063E+02 -.93323270E+03 0.94284360E+03 0.91188000E+02 0.0000E+00 0.9000E+01
       21  1    1    2  502  503 -.65645198E+01 -.36191838E+01 0.11926467E+02 0.14106542E+02 0.75000000E+00 0.0000E+00 0.9000E+01
       21  1    1    2  503  501 -.18812482E+02 0.90753511E+01 -.21381550E+02 0.29899910E+02 0.75000000E+00 0.0000E+00 0.9000E+01
#aMCatNLO 2  0  0  5  2 0.15178877D+02 0.00000000D+00  -5  6  0 0.00000000D+00 0.00000000D+00 0.00000000D+00 0.00000000D+00 0.00000000D+00
  <mgrwgt>
 -.5492653605D-01    2    2    0
 0.235748911020749D+03 0.000000000000000D+00 0.000000000000000D+00 0.235748911020749D+03
 0.235748911020749D+03 -.000000000000000D+00 -.000000000000000D+00 -.235748911020749D+03
 0.178463270580178D+03 0.120549498122361D+03 -.330656904285346D+02 0.244666623204917D+02
 0.185558179725164D+03 -.941166451653778D+02 0.273825103590047D+02 -.128486738413619D+03
 0.107476371736155D+03 -.264328529569834D+02 0.568318006952987D+01 0.104020076093127D+03
 0.000000000000000D+00 0.000000000000000D+00 0.000000000000000D+00 0.000000000000000D+00
 0.235748911020749D+03 0.000000000000000D+00 0.000000000000000D+00 0.235748911020749D+03
 0.235748911020749D+03 -.000000000000000D+00 -.000000000000000D+00 -.235748911020749D+03
 0.178384267882611D+03 0.120028815400118D+03 -.329537413447782D+02 0.265156827753121D+02
 0.184387493355156D+03 -.946564396136493D+02 0.274985685482229D+02 -.126362508400490D+03
 0.784449397986820D+02 -.639297352238834D+01 -.369167960752390D+01 0.780967987259163D+02
 0.302811210050483D+02 -.189794022640803D+02 0.914685240407915D+01 0.217500268992613D+02
-.424100584985D-03 0.000000000000D+00 0.000000000000D+00 0.168668149488D-04 0.000000000000D+00  6 -1 1 25 23 21 21 4 0.60078210D-02 0.21895542D+00 0.28752959D+05 0.28752959D+05 0.28752959D+05 0.12168384D+01  1  2 13  3  6  5       21 -.100512671259D+00 0.100000000000D+01
0.192344968718D-03 0.000000000000D+00 0.000000000000D+00 0.168776445102D-04 0.198574134493D-05  6 -1 1 25 23 21 21 4 0.60078210D-02 0.21895542D+00 0.28752959D+05 0.28752959D+05 0.28752959D+05 0.12168384D+01  1  2  1  3  6  5       21 0.455861352084D-01 0.100000000000D+01
  </mgrwgt>
  </event>
  <event>
  5     66 0.47607883E-03 0.88402258E+02 0.75467711E-02 0.11022900E+00
       -1 -1    0    0    0  501 0.00000000E+00 0.00000000E+00 0.64075686E+02 0.64076485E+02 0.32000000E+00 0.0000E+00 0.9000E+01
        1 -1    0    0  502    0 -.00000000E+00 -.00000000E+00 -.11257815E+04 0.11257816E+04 0.32000000E+00 0.0000E+00 0.9000E+01
       25  1    1    2    0    0 0.23256536E+03 0.18206812E+01 -.51782561E+03 0.58125581E+03 0.12500000E+03 0.0000E+00 0.9000E+01
       23  1    1    2    0    0 -.15403680E+03 -.42413282E+02 -.38793993E+03 0.42934702E+03 0.91188000E+02 0.0000E+00 0.9000E+01
       21  1    1    2  502  501 -.78528562E+02 0.40592601E+02 -.15594029E+03 0.17925521E+03 0.75000000E+00 0.0000E+00 0.9000E+01
#aMCatNLO 1  0  0  5  5 0.30501187D+01 0.00000000D+00  -5  6  0 0.00000000D+00 0.00000000D+00 0.00000000D+00 0.00000000D+00 0.00000000D+00
  <mgrwgt>
 0.7070892234D-01   11    2    0
 0.268580946580556D+03 0.000000000000000D+00 0.000000000000000D+00 0.268580946580556D+03
 0.268580946580556D+03 -.000000000000000D+00 -.000000000000000D+00 -.268580946580556D+03
 0.264043465076529D+03 0.232566734426723D+03 0.181997022783432D+01 0.183117341613611D+01
 0.184271359236697D+03 -.154035836792695D+03 -.424137786167535D+02 -.107105022273970D+02
 0.888470688478862D+02 -.785308976340284D+02 0.405938083889192D+02 0.887932881126087D+01
 0.000000000000000D+00 0.000000000000000D+00 -.000000000000000D+00 0.000000000000000D+00
 0.268580946580556D+03 0.000000000000000D+00 0.000000000000000D+00 0.268580946580556D+03
 0.268580946580556D+03 -.000000000000000D+00 -.000000000000000D+00 -.268580946580556D+03
 0.258895209281063D+03 0.226653254617472D+03 0.487673735415931D+01 0.249979854620647D+01
 0.187292666395187D+03 -.158237546230455D+03 -.402418514777410D+02 -.102354234903485D+02
 0.838721294318629D+02 -.727296861378756D+02 0.410008084303274D+02 0.799128010902178D+01
 0.710188805299861D+01 0.431397775085916D+01 -.563569430674578D+01 -.255655164879715D+00
0.510774893048D-03 0.000000000000D+00 0.000000000000D+00 0.135758252833D-05 0.000000000000D+00  6 -1 1 25 23 21 21 2 0.98578628D-02 0.17319722D+00 0.71931026D+05 0.71931026D+05 0.71931026D+05 0.11769491D+01  1  2  2  3  6  5       21 0.571333132337D-01 0.100000000000D+01
0.142218328359D-04 0.269543316346D-04 -.196151007942D-05 0.135758252833D-05 0.000000000000D+00  6 -1 1 25 23 21 21 4 0.98578628D-02 0.17319722D+00 0.71931026D+05 0.71931026D+05 0.71931026D+05 0.11769491D+01  1  2  3  3  6  5       21 0.220359003327D-02 0.100000000000D+01
0.225200770492D-06 0.000000000000D+00 0.000000000000D+00 0.135758252833D-05 0.000000000000D+00  6 -1 1 25 23 21 21 4 0.98578628D-02 0.17319722D+00 0.71931026D+05 0.71931026D+05 0.71931026D+05 0.11769491D+01  1  2 15  3  6  5       21 0.348935456538D-04 0.100000000000D+01
-.465222105999D-03 0.000000000000D+00 0.000000000000D+00 0.135758252833D-05 0.000000000000D+00  6 -1 1 25 23 21 21 4 0.98578628D-02 0.17319722D+00 0.71931026D+05 0.71931026D+05 0.71931026D+05 0.11769491D+01  1  2  4  3  6  5       21 -.720834513995D-01 0.100000000000D+01
0.786526891905D-06 0.000000000000D+00 0.000000000000D+00 0.135758252833D-05 0.000000000000D+00  6 -1 1 25 23 21 21 4 0.98578628D-02 0.17319722D+00 0.71931026D+05 0.71931026D+05 0.71931026D+05 0.11769491D+01  1  2  5  3  6  5       21 0.121867753608D-03 0.100000000000D+01
-.853227480362D-06 0.000000000000D+00 0.000000000000D+00 0.135758252833D-05 0.000000000000D+00  6 -1 1 25 23 21 21 4 0.98578628D-02 0.17319722D+00 0.71931026D+05 0.71931026D+05 0.71931026D+05 0.11769491D+01  1  2  6  3  6  5       21 -.132202620684D-03 0.100000000000D+01
0.507490998398D-03 0.000000000000D+00 0.000000000000D+00 0.135758252833D-05 0.525452176374D-07  6 -1 1 25 23 21 21 4 0.98578628D-02 0.17319722D+00 0.71953707D+05 0.71953707D+05 0.71953707D+05 0.11769361D+01  1  2 11  3  6  5       21 0.786290829370D-01 0.100000000000D+01
0.659662070436D-05 0.000000000000D+00 0.000000000000D+00 0.135755247233D-05 0.100847548327D-08  6 -1 1 25 23 1 -1 4 0.98578628D-02 0.17319722D+00 0.71953707D+05 0.71953707D+05 0.71953707D+05 0.11769361D+01  1  2 11  6  6  5       21 0.102205997368D-02 0.100000000000D+01
0.811989720128D-05 0.000000000000D+00 0.000000000000D+00 0.135755247233D-05 0.856346623712D-09  6 -1 1 25 23 2 -2 4 0.98578628D-02 0.17319722D+00 0.71953707D+05 0.71953707D+05 0.71953707D+05 0.11769361D+01  1  2 11  7  6  5       21 0.125807171456D-02 0.100000000000D+01
0.811989720128D-05 0.000000000000D+00 0.000000000000D+00 0.135755247233D-05 0.856346623712D-09  6 -1 1 25 23 4 -4 4 0.98578628D-02 0.17319722D+00 0.71953707D+05 0.71953707D+05 0.71953707D+05 0.11769361D+01  1  2 11  7  6  5       21 0.125807171456D-02 0.100000000000D+01
0.815574240139D-05 0.000000000000D+00 0.000000000000D+00 0.135755247233D-05 0.860126956804D-09  6 -1 1 25 23 3 -3 4 0.98578628D-02 0.17319722D+00 0.71953707D+05 0.71953707D+05 0.71953707D+05 0.11769361D+01  1  2 11  8  6  5       21 0.126362545881D-02 0.100000000000D+01
  </mgrwgt>
  </event>
  <event>
  5     66 0.47607883E-03 0.21405923E+02 0.75467711E-02 0.10654979E+00
       -1 -1    0    0    0  501 0.00000000E+00 0.00000000E+00 0.39896359E+02 0.39897642E+02 0.32000000E+00 0.0000E+00 0.9000E+01
        1 -1    0    0  502    0 0.00000000E+00 0.00000000E+00 -.49970183E+03 0.49970193E+03 0.32000000E+00 0.0000E+00 0.9000E+01
       25  1    1    2    0    0 -.24477883E+02 -.28199328E+02 -.35057576E+03 0.37406247E+03 0.12500000E+03 0.0000E+00 0.9000E+01
       23  1    1    2    0    0 0.43833396E+02 0.19080712E+02 -.89435005E+02 0.13637929E+03 0.91188000E+02 0.0000E+00 0.9000E+01
       21  1    1    2  502  501 -.19355513E+02 0.91186155E+01 -.19794711E+02 0.29157814E+02 0.75000000E+00 0.0000E+00 0.9000E+01
#aMCatNLO 1  0  0  2  2 0.28721649D+02 0.00000000D+00  -5  6  0 0.00000000D+00 0.00000000D+00 0.00000000D+00 0.00000000D+00 0.00000000D+00
  <mgrwgt>
 0.2159278299D+00    3    2    0
 0.141197228283440D+03 0.000000000000000D+00 0.000000000000000D+00 0.141197228283440D+03
 0.141197228283440D+03 0.000000000000000D+00 0.000000000000000D+00 -.141197228283440D+03
 0.143938684108203D+03 -.244728477977880D+02 -.282016997356091D+02 -.608201334714899D+02
 0.114972498210211D+03 0.438374179346724D+02 0.190788174053770D+02 0.511634978859948D+02
 0.234832742484651D+02 -.193645701368844D+02 0.912288233023213D+01 0.965663558549505D+01
 0.000000000000000D+00 -.000000000000000D+00 -.000000000000000D+00 0.000000000000000D+00
 0.371801238864585D+03 0.000000000000000D+00 0.000000000000000D+00 0.371801238864585D+03
 0.335551098084294D+03 0.000000000000000D+00 0.000000000000000D+00 -.335551098084294D+03
 0.173010125149732D+03 0.131731974607896D+02 0.102151268408646D+03 -.608201334714899D+02
 0.198530279666013D+03 0.810741559184819D+02 0.148014520660782D+03 0.511634978859948D+02
 0.375767032697983D+02 -.121120845303851D+02 0.342352950348646D+02 0.965663558549505D+01
 0.298235228863336D+03 -.821352688488864D+02 -.284401084104292D+03 0.362501407802911D+02
0.186633389566D-03 0.000000000000D+00 0.000000000000D+00 0.308823955548D-04 0.000000000000D+00  6 -1 1 25 23 21 21 2 0.61380079D-02 0.76877311D-01 0.16233922D+05 0.16233922D+05 0.16233922D+05 0.12439275D+01  1  2  2  2  6  2        1 0.161517884622D+00 0.100000000000D+01
0.356659625200D-04 0.984891455103D-05 -.716721357632D-06 0.308823955548D-04 0.000000000000D+00  6 -1 1 25 23 21 21 4 0.61380079D-02 0.76877311D-01 0.16233922D+05 0.16233922D+05 0.16233922D+05 0.12439275D+01  1  2  3  2  6  2        1 0.477612162671D-01 0.100000000000D+01
0.496497658994D-05 0.000000000000D+00 0.000000000000D+00 0.308823955548D-04 0.000000000000D+00  6 -1 1 25 23 21 21 4 0.61380079D-02 0.76877311D-01 0.16233922D+05 0.16233922D+05 0.16233922D+05 0.12439275D+01  1  2 15  2  6  2        1 0.664872903794D-02 0.100000000000D+01
  </mgrwgt>
  </event>
  <event>
  6     66 0.47607883E-03 0.24700582E+02 0.75467711E-02 0.11956256E+00
       -1 -1    0    0    0  501 0.00000000E+00 0.00000000E+00 0.44461685E+02 0.44462837E+02 0.32000000E+00 0.0000E+00 0.9000E+01
       21 -1    0    0  502  503 0.00000000E+00 0.00000000E+00 -.13112246E+04 0.13112248E+04 0.75000000E+00 0.0000E+00 0.9000E+01
       25  1    1    2    0    0 -.16623695E+02 0.25985423E+02 -.23433463E+03 0.26737484E+03 0.12500000E+03 0.0000E+00 0.9000E+01
       23  1    1    2    0    0 -.37258139E+02 -.47641673E+02 -.18427025E+03 0.21430976E+03 0.91188000E+02 0.0000E+00 0.9000E+01
       -1  1    1    2    0  503 0.25189466E+02 0.30752597E+02 -.84241332E+03 0.84335078E+03 0.32000000E+00 0.0000E+00 0.9000E+01
       21  1    1    2  502  501 0.28692368E+02 -.90963467E+01 -.57446844E+01 0.30652233E+02 0.75000000E+00 0.0000E+00 0.9000E+01
#aMCatNLO 2  0  0  2  5 0.39752125D+02 0.00000000D+00  -5  6  0 0.00000000D+00 0.00000000D+00 0.00000000D+00 0.00000000D+00 0.00000000D+00
  <mgrwgt>
 0.9328231309D-02    1    2    0
 0.142158586435187D+03 0.000000000000000D+00 0.000000000000000D+00 0.142158586435187D+03
 0.142158586435187D+03 0.000000000000000D+00 0.000000000000000D+00 -.142158586435187D+03
 0.133395740770173D+03 -.497948510963771D+01 0.402037790650197D+02 -.229844410973430D+02
 0.102703304398340D+03 -.278790405212618D+02 -.361892591469623D+02 -.120753472971122D+02
 0.000000000000000D+00 0.000000000000000D+00 0.000000000000000D+00 -.000000000000000D+00
 0.482181277018606D+02 0.328585256308995D+02 -.401451991805745D+01 0.350597883944552D+02
 0.145070618993322D+03 0.000000000000000D+00 0.000000000000000D+00 0.145070618993322D+03
 0.401873938859893D+03 0.000000000000000D+00 0.000000000000000D+00 -.401873938859893D+03
 0.130785879856186D+03 -.166256091126820D+02 0.259855913696757D+02 -.229844410973430D+02
 0.110086616165686D+03 -.372596242106606D+02 -.476415586032357D+02 -.120753472971122D+02
 0.259861841195087D+03 0.251894660688244D+02 0.307525968655689D+02 -.256803319866571D+03
 0.462102206362553D+02 0.286957672545182D+02 -.909662963200891D+01 0.350597883944552D+02
0.317410971384D-04 0.000000000000D+00 0.000000000000D+00 0.179245801283D-04 0.209055430600D-07  6 -1 21 25 23 -1 21 4 0.68403597D-02 0.20172683D+00 0.23720303D+05 0.23720303D+05 0.23720303D+05 0.12257518D+01  1  2  1  5  5  2        1 0.932823130945D-02 0.100000000000D+01
  </mgrwgt>
  </event>
  <event>
  5     66 0.47607883E-03 0.30536677E+02 0.75467711E-02 0.10937900E+00
       -1 -1    0    0    0  501 0.00000000E+00 0.00000000E+00 0.70561836E+03 0.70561843E+03 0.32000000E+00 0.0000E+00 0.9000E+01
        1 -1    0    0  502    0 0.00000000E+00 0.00000000E+00 -.25642113E+02 0.25644110E+02 0.32000000E+00 0.0000E+00 0.9000E+01
       25  1    1    2    0    0 -.31281375E+02 0.44760283E+02 0.34882353E+03 0.37454621E+03 0.12500000E+03 0.0000E+00 0.9000E+01
       23  1    1    2    0    0 0.42063673E+02 -.16199124E+02 0.24332663E+03 0.26373256E+03 0.91188000E+02 0.0000E+00 0.9000E+01
       21  1    1    2  502  501 -.10782297E+02 -.28561159E+02 0.87826089E+02 0.92983773E+02 0.75000000E+00 0.0000E+00 0.9000E+01
#aMCatNLO 1  0  0  1  2 0.47654693D+02 0.00000000D+00  -5  6  0 0.00000000D+00 0.00000000D+00 0.00000000D+00 0.00000000D+00 0.00000000D+00
  <mgrwgt>
 0.1174029678D+00    5    4    0
 0.134515063920225D+03 0.000000000000000D+00 0.000000000000000D+00 0.134515063920225D+03
 0.134515063920225D+03 0.000000000000000D+00 0.000000000000000D+00 -.134515063920225D+03
 0.136416603614621D+03 -.312797495579329D+02 0.447645892301123D+02 0.148275432928244D+01
 0.101852601479475D+03 0.420648864761432D+02 -.161959090055674D+02 -.519027372778833D+01
 0.307609227463537D+02 -.107851369182103D+02 -.285686802245448D+02 0.370751939850590D+01
 0.000000000000000D+00 0.000000000000000D+00 0.000000000000000D+00 0.000000000000000D+00
 0.437497773513282D+03 0.000000000000000D+00 0.000000000000000D+00 0.437497773513282D+03
 0.219509735974518D+03 0.000000000000000D+00 0.000000000000000D+00 -.219509735974518D+03
 0.175525859902985D+03 -.121539764127085D+03 -.202537569407248D+02 0.148275432928244D+01
 0.111376701553242D+03 -.196326451175856D+02 -.606394146508482D+02 -.519027372778833D+01
 0.605191088494195D+02 -.371968568514348D+02 -.475942294423542D+02 0.370751939850590D+01
 0.309585839182154D+03 0.178369266096105D+03 0.128487401033927D+03 0.217988037538765D+03
 0.134515063920225D+03 0.000000000000000D+00 0.000000000000000D+00 0.134515063920225D+03
 0.134515063920225D+03 0.000000000000000D+00 0.000000000000000D+00 -.134515063920225D+03
 0.136416603614621D+03 -.312797495579329D+02 0.447645892301123D+02 0.148275432928244D+01
 0.101852601479475D+03 0.420648864761432D+02 -.161959090055674D+02 -.519027372778833D+01
 0.000000000000000D+00 0.000000000000000D+00 0.000000000000000D+00 0.000000000000000D+00
 0.307609227463537D+02 -.107851369182103D+02 -.285686802245448D+02 0.370751939850590D+01
 0.437497773513282D+03 0.000000000000000D+00 0.000000000000000D+00 0.437497773513282D+03
 0.219509735974518D+03 0.000000000000000D+00 0.000000000000000D+00 -.219509735974518D+03
 0.175525859902985D+03 -.121539764127085D+03 -.202537569407248D+02 0.148275432928244D+01
 0.111376701553242D+03 -.196326451175856D+02 -.606394146508482D+02 -.519027372778833D+01
 0.309585839182154D+03 0.178369266096105D+03 0.128487401033927D+03 0.217988037538765D+03
 0.605191088494195D+02 -.371968568514348D+02 -.475942294423542D+02 0.370751939850590D+01
0.324953623444D-03 0.000000000000D+00 0.000000000000D+00 0.195024386437D-04 0.000000000000D+00  6 -1 1 25 23 21 21 2 0.10855683D+00 0.39450997D-02 0.18045287D+05 0.18045287D+05 0.18045287D+05 0.12387739D+01  1  2  2  1  6  1       -1 0.939184940511D-01 0.100000000000D+01
0.390219411759D-04 0.171482738314D-04 -.124790747628D-05 0.195024386437D-04 0.000000000000D+00  6 -1 1 25 23 21 21 4 0.10855683D+00 0.39450997D-02 0.18045287D+05 0.18045287D+05 0.18045287D+05 0.12387739D+01  1  2  3  1  6  1       -1 0.173070366528D-01 0.100000000000D+01
0.134979633499D-04 0.000000000000D+00 0.000000000000D+00 0.195024386437D-04 0.000000000000D+00  6 -1 1 25 23 21 21 4 0.10855683D+00 0.39450997D-02 0.18045287D+05 0.18045287D+05 0.18045287D+05 0.12387739D+01  1  2 15  1  6  1       -1 0.598662545722D-02 0.100000000000D+01
0.116870290429D-04 0.000000000000D+00 -.174957238950D-03 0.195024386437D-04 0.000000000000D+00  6 -1 1 25 23 21 21 4 0.42916884D+00 0.39450997D-02 0.18045287D+05 0.18045287D+05 0.18045287D+05 0.12387739D+01  1  2  5  1  6  1       -1 0.375075678259D-04 0.100000000000D+01
0.429286915960D-05 0.000000000000D+00 -.286563085660D-04 0.195024386437D-04 0.000000000000D+00  6 21 1 25 23 1 21 4 0.42916884D+00 0.39450997D-02 0.18045287D+05 0.18045287D+05 0.18045287D+05 0.12387739D+01  3  4  5  4  5  1       -1 0.153304063564D-03 0.100000000000D+01
  </mgrwgt>
  </event>
  <event>
  5     66 0.47607883E-03 0.31043444E+02 0.75467711E-02 0.12154294E+00
       -1 -1    0    0    0  501 0.00000000E+00 0.00000000E+00 0.10119041E+03 0.10119091E+03 0.32000000E+00 0.0000E+00 0.9000E+01
        1 -1    0    0  502    0 -.00000000E+00 -.00000000E+00 -.24183762E+03 0.24183784E+03 0.32000000E+00 0.0000E+00 0.9000E+01
       25  1    1    2    0    0 0.26444558E+01 0.69215302E+02 -.65373404E+02 0.15715099E+03 0.12500000E+03 0.0000E+00 0.9000E+01
       23  1    1    2    0    0 -.59747972E+01 -.38353045E+02 -.10394178E+03 0.14361685E+03 0.91188000E+02 0.0000E+00 0.9000E+01
       21  1    1    2  502  501 0.33303415E+01 -.30862257E+02 0.28667963E+02 0.42260912E+02 0.75000000E+00 0.0000E+00 0.9000E+01
#aMCatNLO 1  0  0  5  2 0.46659148D+01 0.00000000D+00  -5  6  0 0.00000000D+00 0.00000000D+00 0.00000000D+00 0.00000000D+00 0.00000000D+00
  <mgrwgt>
 0.1497592921D+00   20    2    0
 0.156434555980341D+03 0.000000000000000D+00 0.000000000000000D+00 0.156434555980341D+03
 0.156434555980341D+03 -.000000000000000D+00 -.000000000000000D+00 -.156434555980341D+03
 0.142912458633156D+03 0.264433375416468D+01 0.692164329910005D+02 -.103137557293953D+01
 0.110735416845633D+03 -.597489176678612D+01 -.383521688445645D+02 -.494013462698072D+02
 0.592212364818928D+02 0.333055801262145D+01 -.308642641464360D+02 0.504327218427468D+02
 0.000000000000000D+00 0.000000000000000D+00 -.000000000000000D+00 0.000000000000000D+00
 0.156434555980341D+03 0.000000000000000D+00 0.000000000000000D+00 0.156434555980341D+03
 0.156434555980341D+03 -.000000000000000D+00 -.000000000000000D+00 -.156434555980341D+03
 0.142544020268154D+03 0.272631561253364D+01 0.684567075268811D+02 0.210028493167387D+00
 0.110512221753438D+03 -.591135040790049D+01 -.389410062938560D+02 -.484391760670829D+02
 0.514300659482374D+01 0.374961150859331D+01 0.147577055685815D+01 0.319578341452238D+01
 0.546698633442664D+02 -.564576713226451D+00 -.309914717898832D+02 0.450333641593932D+02
0.201605886049D-03 0.000000000000D+00 0.000000000000D+00 0.186970177591D-04 0.000000000000D+00  6 -1 1 25 23 21 21 2 0.15567810D-01 0.37205844D-01 0.18640083D+05 0.18640083D+05 0.18640083D+05 0.12372071D+01  1  2  2  3  6  5       21 0.103974991981D+00 0.100000000000D+01
0.151003320876D-04 0.106390348978D-04 -.774219686477D-06 0.186970177591D-04 0.000000000000D+00  6 -1 1 25 23 21 21 4 0.15567810D-01 0.37205844D-01 0.18640083D+05 0.18640083D+05 0.18640083D+05 0.12372071D+01  1  2  3  3  6  5       21 0.119205701385D-01 0.100000000000D+01
0.907405121229D-05 0.000000000000D+00 0.000000000000D+00 0.186970177591D-04 0.000000000000D+00  6 -1 1 25 23 21 21 4 0.15567810D-01 0.37205844D-01 0.18640083D+05 0.18640083D+05 0.18640083D+05 0.12372071D+01  1  2 15  3  6  5       21 0.716327715773D-02 0.100000000000D+01
0.165745646489D-05 0.000000000000D+00 0.000000000000D+00 0.186563676529D-04 0.000000000000D+00  6 -1 1 25 23 21 21 4 0.15567810D-01 0.37205844D-01 0.19168514D+05 0.19168514D+05 0.19168514D+05 0.12358615D+01  1  2 12  3  6  5       21 0.130361990737D-02 0.100000000000D+01
-.106174237204D-03 0.000000000000D+00 0.000000000000D+00 0.186970177591D-04 0.000000000000D+00  6 -1 1 25 23 21 21 4 0.15567810D-01 0.37205844D-01 0.18640083D+05 0.18640083D+05 0.18640083D+05 0.12372071D+01  1  2  4  3  6  5       21 -.838165302699D-01 0.100000000000D+01
-.691682722520D-05 0.000000000000D+00 0.000000000000D+00 0.186970177591D-04 0.000000000000D+00  6 -1 1 25 23 21 21 4 0.15567810D-01 0.37205844D-01 0.18640083D+05 0.18640083D+05 0.18640083D+05 0.12372071D+01  1  2  5  3  6  5       21 -.546031197169D-02 0.100000000000D+01
0.145478418524D-03 0.000000000000D+00 -.000000000000D+00 0.186970177591D-04 0.000000000000D+00  6 -1 1 25 23 21 21 4 0.15567810D-01 0.37205844D-01 0.18640083D+05 0.18640083D+05 0.18640083D+05 0.12372071D+01  1  2  6  3  6  5       21 0.114844208830D+00 0.100000000000D+01
0.268889025311D-05 0.000000000000D+00 0.000000000000D+00 0.186970177591D-04 0.316087792844D-05  6 -1 1 25 23 21 21 4 0.15567810D-01 0.37205844D-01 0.19168514D+05 0.19168514D+05 0.19168514D+05 0.12358615D+01  1  2 11  3  6  5       21 0.211486149828D-02 0.100000000000D+01
0.123347663377D-05 0.000000000000D+00 0.000000000000D+00 0.186563676529D-04 0.000000000000D+00  6 -1 1 25 23 1 -1 4 0.15567810D-01 0.37205844D-01 0.19168514D+05 0.19168514D+05 0.19168514D+05 0.12358615D+01  1  2 12  6  6  5       21 0.970151994402D-03 0.100000000000D+01
-.807975998369D-05 0.000000000000D+00 0.000000000000D+00 0.186970177591D-04 0.000000000000D+00  6 -1 1 25 23 1 -1 4 0.15567810D-01 0.37205844D-01 0.18640083D+05 0.18640083D+05 0.18640083D+05 0.12372071D+01  1  2  5  6  6  5       21 -.637835943142D-02 0.100000000000D+01
0.611305167667D-05 0.000000000000D+00 0.000000000000D+00 0.186970177591D-04 0.703499523912D-07  6 -1 1 25 23 1 -1 4 0.15567810D-01 0.37205844D-01 0.19168514D+05 0.19168514D+05 0.19168514D+05 0.12358615D+01  1  2 11  6  6  5       21 0.480802725697D-02 0.100000000000D+01
0.123347663377D-05 0.000000000000D+00 0.000000000000D+00 0.186563676529D-04 0.000000000000D+00  6 -1 1 25 23 2 -2 4 0.15567810D-01 0.37205844D-01 0.19168514D+05 0.19168514D+05 0.19168514D+05 0.12358615D+01  1  2 12  7  6  5       21 0.970151994402D-03 0.100000000000D+01
0.123347663377D-05 0.000000000000D+00 0.000000000000D+00 0.186563676529D-04 0.000000000000D+00  6 -1 1 25 23 4 -4 4 0.15567810D-01 0.37205844D-01 0.19168514D+05 0.19168514D+05 0.19168514D+05 0.12358615D+01  1  2 12  7  6  5       21 0.970151994402D-03 0.100000000000D+01
-.807975998369D-05 0.000000000000D+00 0.000000000000D+00 0.186970177591D-04 0.000000000000D+00  6 -1 1 25 23 2 -2 4 0.15567810D-01 0.37205844D-01 0.18640083D+05 0.18640083D+05 0.18640083D+05 0.12372071D+01  1  2  5  7  6  5       21 -.637835943142D-02 0.100000000000D+01
-.807975998369D-05 0.000000000000D+00 0.000000000000D+00 0.186970177591D-04 0.000000000000D+00  6 -1 1 25 23 4 -4 4 0.15567810D-01 0.37205844D-01 0.18640083D+05 0.18640083D+05 0.18640083D+05 0.12372071D+01  1  2  5  7  6  5       21 -.637835943142D-02 0.100000000000D+01
0.615742877639D-05 0.000000000000D+00 0.000000000000D+00 0.186970177591D-04 0.646255701847D-07  6 -1 1 25 23 2 -2 4 0.15567810D-01 0.37205844D-01 0.19168514D+05 0.19168514D+05 0.19168514D+05 0.12358615D+01  1  2 11  7  6  5       21 0.484293065978D-02 0.100000000000D+01
0.615742877639D-05 0.000000000000D+00 0.000000000000D+00 0.186970177591D-04 0.646255701847D-07  6 -1 1 25 23 4 -4 4 0.15567810D-01 0.37205844D-01 0.19168514D+05 0.19168514D+05 0.19168514D+05 0.12358615D+01  1  2 11  7  6  5       21 0.484293065978D-02 0.100000000000D+01
0.123347663377D-05 0.000000000000D+00 0.000000000000D+00 0.186563676529D-04 0.000000000000D+00  6 -1 1 25 23 3 -3 4 0.15567810D-01 0.37205844D-01 0.19168514D+05 0.19168514D+05 0.19168514D+05 0.12358615D+01  1  2 12  8  6  5       21 0.970151994402D-03 0.100000000000D+01
-.807975998369D-05 0.000000000000D+00 0.000000000000D+00 0.186970177591D-04 0.000000000000D+00  6 -1 1 25 23 3 -3 4 0.15567810D-01 0.37205844D-01 0.18640083D+05 0.18640083D+05 0.18640083D+05 0.12372071D+01  1  2  5  8  6  5       21 -.637835943142D-02 0.100000000000D+01
0.617092545270D-05 0.000000000000D+00 0.000000000000D+00 0.186970177591D-04 0.647672251568D-07  6 -1 1 25 23 3 -3 4 0.15567810D-01 0.37205844D-01 0.19168514D+05 0.19168514D+05 0.19168514D+05 0.12358615D+01  1  2 11  8  6  5       21 0.485354604323D-02 0.100000000000D+01
  </mgrwgt>
  </event>
  <event>
  5     66 -.47607883E-03 0.24053366E+02 0.75467711E-02 0.11788180E+00
       -1 -1    0    0    0  501 0.00000000E+00 0.00000000E+00 0.86943836E+01 0.87002705E+01 0.32000000E+00 0.0000E+00 0.9000E+01
        1 -1    0    0  502    0 0.00000000E+00 0.00000000E+00 -.30678888E+04 0.30678888E+04 0.32000000E+00 0.0000E+00 0.9000E+01
       25  1    1    2    0    0 0.76531882E+02 0.48937238E+02 -.15961838E+04 0.16036457E+04 0.12500000E+03 0.0000E+00 0.9000E+01
       23  1    1    2    0    0 -.82469239E+02 -.72238639E+02 -.13426882E+04 0.13502394E+04 0.91188000E+02 0.0000E+00 0.9000E+01
       21  1    1    2  502  501 0.59373570E+01 0.23301401E+02 -.12032239E+03 0.12270391E+03 0.75000000E+00 0.0000E+00 0.9000E+01
#aMCatNLO 1  0  0  1  2 0.16681740D+02 0.00000000D+00  -5  6  0 0.00000000D+00 0.00000000D+00 0.00000000D+00 0.00000000D+00 0.00000000D+00
  <mgrwgt>
 -.2542055601D+00    7    4    0
 0.163347737975145D+03 0.000000000000000D+00 0.000000000000000D+00 0.163347737975145D+03
 0.163347737975145D+03 0.000000000000000D+00 0.000000000000000D+00 -.163347737975145D+03
 0.155257738488646D+03 0.765309274431540D+02 0.489334900413193D+02 -.151160860567663D+02
 0.142604708277440D+03 -.824701166766912D+02 -.722420814503642D+02 -.782944407750868D+00
 0.288330291842048D+02 0.593918923353716D+01 0.233085914090448D+02 0.158990304645172D+02
 0.000000000000000D+00 0.000000000000000D+00 0.000000000000000D+00 0.000000000000000D+00
 0.194309994741495D+03 0.000000000000000D+00 0.000000000000000D+00 0.194309994741495D+03
 0.165823033863809D+03 0.000000000000000D+00 0.000000000000000D+00 -.165823033863809D+03
 0.151027219265899D+03 0.689994841032255D+02 0.468486509411234D+02 -.151160860567663D+02
 0.147833086918449D+03 -.896118836584199D+02 -.742190511195189D+02 -.782944407750868D+00
 0.282607944145582D+02 0.453527145498744D+01 0.229199616941184D+02 0.158990304645172D+02
 0.330119280063977D+02 0.160771281002070D+02 0.445043848427703D+01 0.284869608776855D+02
 0.163347737975145D+03 0.000000000000000D+00 0.000000000000000D+00 0.163347737975145D+03
 0.163347737975145D+03 0.000000000000000D+00 0.000000000000000D+00 -.163347737975145D+03
 0.155257738488646D+03 0.765309274431540D+02 0.489334900413193D+02 -.151160860567663D+02
 0.142604708277440D+03 -.824701166766912D+02 -.722420814503642D+02 -.782944407750868D+00
 0.000000000000000D+00 0.000000000000000D+00 0.000000000000000D+00 0.000000000000000D+00
 0.288330291842048D+02 0.593918923353716D+01 0.233085914090448D+02 0.158990304645172D+02
 0.194309994741495D+03 0.000000000000000D+00 0.000000000000000D+00 0.194309994741495D+03
 0.165823033863809D+03 0.000000000000000D+00 0.000000000000000D+00 -.165823033863809D+03
 0.151027219265899D+03 0.689994841032255D+02 0.468486509411234D+02 -.151160860567663D+02
 0.147833086918449D+03 -.896118836584199D+02 -.742190511195189D+02 -.782944407750868D+00
 0.330119280063977D+02 0.160771281002070D+02 0.445043848427703D+01 0.284869608776855D+02
 0.282607944145582D+02 0.453527145498744D+01 0.229199616941184D+02 0.158990304645172D+02
0.383323281649D-03 0.000000000000D+00 0.000000000000D+00 0.242113340201D-04 0.000000000000D+00  6 -1 1 25 23 21 21 2 0.13380516D-02 0.47198335D+00 0.25788514D+05 0.25788514D+05 0.25788514D+05 0.12218544D+01  1  2  2  1  6  1       -1 0.465985870729D-01 0.100000000000D+01
0.838700816512D-04 0.202285253200D-04 -.147206233287D-05 0.242113340201D-04 0.000000000000D+00  6 -1 1 25 23 21 21 4 0.13380516D-02 0.47198335D+00 0.25788514D+05 0.25788514D+05 0.25788514D+05 0.12218544D+01  1  2  3  1  6  1       -1 0.152213620750D-01 0.100000000000D+01
0.593870542408D-05 0.000000000000D+00 0.000000000000D+00 0.242113340201D-04 0.000000000000D+00  6 -1 1 25 23 21 21 4 0.13380516D-02 0.47198335D+00 0.25788514D+05 0.25788514D+05 0.25788514D+05 0.12218544D+01  1  2 15  1  6  1       -1 0.107780013727D-02 0.100000000000D+01
-.975360916063D-03 0.000000000000D+00 0.000000000000D+00 0.242113340201D-04 0.000000000000D+00  6 -1 1 25 23 21 21 4 0.13380516D-02 0.47198335D+00 0.25788514D+05 0.25788514D+05 0.25788514D+05 0.12218544D+01  1  2  4  1  6  1       -1 -.177015705302D+00 0.100000000000D+01
-.419983780845D-02 0.000000000000D+00 -.475389503040D-03 0.242113340201D-04 0.000000000000D+00  6 -1 1 25 23 21 21 4 0.16238506D-02 0.47198335D+00 0.25788514D+05 0.25788514D+05 0.25788514D+05 0.12218544D+01  1  2  5  1  6  1       -1 -.576732959239D+00 0.100000000000D+01
0.422129243671D-02 0.000000000000D+00 0.466618794411D-03 0.242113340201D-04 0.000000000000D+00  6 -1 1 25 23 21 21 4 0.13380516D-02 0.47198335D+00 0.25788514D+05 0.25788514D+05 0.25788514D+05 0.12218544D+01  1  2  6  1  6  1       -1 0.766111339569D+00 0.100000000000D+01
-.112033928296D-03 0.000000000000D+00 -.132672125556D-04 0.242113340201D-04 0.000000000000D+00  6 21 1 25 23 1 21 4 0.16238506D-02 0.47198335D+00 0.25788514D+05 0.25788514D+05 0.25788514D+05 0.12218544D+01  3  4  5  4  5  1       -1 -.329465984431D+00 0.100000000000D+01
  </mgrwgt>
  </event>
  <event>
  5     66 -.47607883E-03 0.31270335E+02 0.75467711E-02 0.12284082E+00
       -1 -1    0    0    0  501 0.00000000E+00 0.00000000E+00 0.11711115E+03 0.11711158E+03 0.32000000E+00 0.0000E+00 0.9000E+01
        1 -1    0    0  502    0 -.00000000E+00 -.00000000E+00 -.14332560E+03 0.14332596E+03 0.32000000E+00 0.0000E+00 0.9000E+01
       25  1    1    2    0    0 0.97059217E+01 -.98908927E+01 -.19625755E+02 0.12728788E+03 0.12500000E+03 0.0000E+00 0.9000E+01
       23  1    1    2    0    0 0.25721698E+02 0.18388712E+02 -.34784747E+01 0.96576921E+02 0.91188000E+02 0.0000E+00 0.9000E+01
       21  1    1    2  502  501 -.35427620E+02 -.84978195E+01 -.31102216E+01 0.36572738E+02 0.75000000E+00 0.0000E+00 0.9000E+01
#aMCatNLO 1  0  0  5  1 0.69206297D+01 0.00000000D+00  -5  6  0 0.00000000D+00 0.00000000D+00 0.00000000D+00 0.00000000D+00 0.00000000D+00
  <mgrwgt>
 -.1260394396D+00   20    2    0
 0.129557434260230D+03 0.000000000000000D+00 0.000000000000000D+00 0.129557434260230D+03
 0.129557434260230D+03 -.000000000000000D+00 -.000000000000000D+00 -.129557434260230D+03
 0.125952326197809D+03 0.970956942133989D+01 -.989001771098039D+01 -.684837834585274D+01
 0.967188602835894D+02 0.257244990540318D+02 0.183893840086698D+02 0.627433620052976D+01
 0.364436820390618D+02 -.354340684753717D+02 -.849936629768943D+01 0.574042145322967D+00
 0.000000000000000D+00 -.000000000000000D+00 0.000000000000000D+00 0.000000000000000D+00
 0.129557434260230D+03 0.000000000000000D+00 0.000000000000000D+00 0.129557434260230D+03
 0.129557434260230D+03 -.000000000000000D+00 -.000000000000000D+00 -.129557434260230D+03
 0.125883002109964D+03 0.841940167098580D+01 -.101994828321913D+02 -.682747725559959D+01
 0.964164921704945D+02 0.247350548610193D+02 0.181520517183239D+02 0.629036548228240D+01
 0.171540023926112D+02 -.149520546368914D+02 -.448573322871850D+01 0.711154396892076D+01
 0.196613718473901D+02 -.182024018951137D+02 -.346683565741411D+01 -.657443219560358D+01
0.109702842604D-03 0.000000000000D+00 0.000000000000D+00 0.153187912875D-04 0.000000000000D+00  6 -1 1 25 23 21 21 2 0.18017161D-01 0.22050153D-01 0.16734048D+05 0.16734048D+05 0.16734048D+05 0.12424425D+01  1  2  2  3  6  5       21 0.867084624115D-01 0.100000000000D+01
0.711524608551D-05 0.578917805291D-05 -.421287801022D-06 0.153187912875D-04 0.000000000000D+00  6 -1 1 25 23 21 21 4 0.18017161D-01 0.22050153D-01 0.16734048D+05 0.16734048D+05 0.16734048D+05 0.12424425D+01  1  2  3  3  6  5       21 0.868132692784D-02 0.100000000000D+01
0.397828955889D-05 0.000000000000D+00 0.000000000000D+00 0.153187912875D-04 0.000000000000D+00  6 -1 1 25 23 21 21 4 0.18017161D-01 0.22050153D-01 0.16734048D+05 0.16734048D+05 0.16734048D+05 0.12424425D+01  1  2 15  3  6  5       21 0.485391957767D-02 0.100000000000D+01
0.665721641397D-04 0.000000000000D+00 0.000000000000D+00 0.153438403075D-04 0.000000000000D+00  6 -1 1 25 23 21 21 4 0.18017161D-01 0.22050153D-01 0.16390252D+05 0.16390252D+05 0.16390252D+05 0.12434579D+01  1  2 12  3  6  5       21 0.814354676355D-01 0.100000000000D+01
0.666175631910D-04 0.000000000000D+00 0.000000000000D+00 0.153438403075D-04 0.000000000000D+00  6 -1 1 25 23 21 21 4 0.18017161D-01 0.22050153D-01 0.16390252D+05 0.16390252D+05 0.16390252D+05 0.12434579D+01  1  2 12  3  6  5       21 0.814910027532D-01 0.100000000000D+01
-.524737175602D-03 0.000000000000D+00 0.000000000000D+00 0.153187912875D-04 0.000000000000D+00  6 -1 1 25 23 21 21 4 0.18017161D-01 0.22050153D-01 0.16734048D+05 0.16734048D+05 0.16734048D+05 0.12424425D+01  1  2  4  3  6  5       21 -.640232947371D+00 0.100000000000D+01
-.141148757674D-03 0.000000000000D+00 0.000000000000D+00 0.153187912875D-04 0.000000000000D+00  6 -1 1 25 23 21 21 4 0.18017161D-01 0.22050153D-01 0.16734048D+05 0.16734048D+05 0.16734048D+05 0.12424425D+01  1  2  5  3  6  5       21 -.172215900350D+00 0.100000000000D+01
0.325573489718D-03 0.000000000000D+00 -.000000000000D+00 0.153187912875D-04 0.000000000000D+00  6 -1 1 25 23 21 21 4 0.18017161D-01 0.22050153D-01 0.16734048D+05 0.16734048D+05 0.16734048D+05 0.12424425D+01  1  2  6  3  6  5       21 0.397232909349D+00 0.100000000000D+01
0.285150703113D-05 0.000000000000D+00 0.000000000000D+00 0.153438403075D-04 0.000000000000D+00  6 -1 1 25 23 1 -1 4 0.18017161D-01 0.22050153D-01 0.16390252D+05 0.16390252D+05 0.16390252D+05 0.12434579D+01  1  2 12  6  6  5       21 0.348815171547D-02 0.100000000000D+01
0.285343821810D-05 0.000000000000D+00 0.000000000000D+00 0.153438403075D-04 0.000000000000D+00  6 -1 1 25 23 1 -1 4 0.18017161D-01 0.22050153D-01 0.16390252D+05 0.16390252D+05 0.16390252D+05 0.12434579D+01  1  2 12  6  6  5       21 0.349051407090D-02 0.100000000000D+01
-.391021297572D-06 0.000000000000D+00 0.000000000000D+00 0.153187912875D-04 0.000000000000D+00  6 -1 1 25 23 1 -1 4 0.18017161D-01 0.22050153D-01 0.16734048D+05 0.16734048D+05 0.16734048D+05 0.12424425D+01  1  2  5  6  6  5       21 -.477085919331D-03 0.100000000000D+01
0.285150703113D-05 0.000000000000D+00 0.000000000000D+00 0.153438403075D-04 0.000000000000D+00  6 -1 1 25 23 2 -2 4 0.18017161D-01 0.22050153D-01 0.16390252D+05 0.16390252D+05 0.16390252D+05 0.12434579D+01  1  2 12  7  6  5       21 0.348815171547D-02 0.100000000000D+01
0.285150703113D-05 0.000000000000D+00 0.000000000000D+00 0.153438403075D-04 0.000000000000D+00  6 -1 1 25 23 4 -4 4 0.18017161D-01 0.22050153D-01 0.16390252D+05 0.16390252D+05 0.16390252D+05 0.12434579D+01  1  2 12  7  6  5       21 0.348815171547D-02 0.100000000000D+01
0.285343821810D-05 0.000000000000D+00 0.000000000000D+00 0.153438403075D-04 0.000000000000D+00  6 -1 1 25 23 2 -2 4 0.18017161D-01 0.22050153D-01 0.16390252D+05 0.16390252D+05 0.16390252D+05 0.12434579D+01  1  2 12  7  6  5       21 0.349051407090D-02 0.100000000000D+01
0.285343821810D-05 0.000000000000D+00 0.000000000000D+00 0.153438403075D-04 0.000000000000D+00  6 -1 1 25 23 4 -4 4 0.18017161D-01 0.22050153D-01 0.16390252D+05 0.16390252D+05 0.16390252D+05 0.12434579D+01  1  2 12  7  6  5       21 0.349051407090D-02 0.100000000000D+01
-.391021297572D-06 0.000000000000D+00 0.000000000000D+00 0.153187912875D-04 0.000000000000D+00  6 -1 1 25 23 2 -2 4 0.18017161D-01 0.22050153D-01 0.16734048D+05 0.16734048D+05 0.16734048D+05 0.12424425D+01  1  2  5  7  6  5       21 -.477085919331D-03 0.100000000000D+01
-.391021297572D-06 0.000000000000D+00 0.000000000000D+00 0.153187912875D-04 0.000000000000D+00  6 -1 1 25 23 4 -4 4 0.18017161D-01 0.22050153D-01 0.16734048D+05 0.16734048D+05 0.16734048D+05 0.12424425D+01  1  2  5  7  6  5       21 -.477085919331D-03 0.100000000000D+01
0.285150703113D-05 0.000000000000D+00 0.000000000000D+00 0.153438403075D-04 0.000000000000D+00  6 -1 1 25 23 3 -3 4 0.18017161D-01 0.22050153D-01 0.16390252D+05 0.16390252D+05 0.16390252D+05 0.12434579D+01  1  2 12  8  6  5       21 0.348815171547D-02 0.100000000000D+01
0.285343821810D-05 0.000000000000D+00 0.000000000000D+00 0.153438403075D-04 0.000000000000D+00  6 -1 1 25 23 3 -3 4 0.18017161D-01 0.22050153D-01 0.16390252D+05 0.16390252D+05 0.16390252D+05 0.12434579D+01  1  2 12  8  6  5       21 0.349051407090D-02 0.100000000000D+01
-.391021297572D-06 0.000000000000D+00 0.000000000000D+00 0.153187912875D-04 0.000000000000D+00  6 -1 1 25 23 3 -3 4 0.18017161D-01 0.22050153D-01 0.16734048D+05 0.16734048D+05 0.16734048D+05 0.12424425D+01  1  2  5  8  6  5       21 -.477085919331D-03 0.100000000000D+01
  </mgrwgt>
  </event>
  <event>
  5     66 0.47607883E-03 0.21756555E+02 0.75467711E-02 0.96406403E-01
       -3 -1    0    0    0  501 0.00000000E+00 0.00000000E+00 0.32835634E+03 0.32835672E+03 0.50000000E+00 0.0000E+00 0.9000E+01
        3 -1    0    0  502    0 0.00000000E+00 0.00000000E+00 -.65337634E+02 0.65339547E+02 0.50000000E+00 0.0000E+00 0.9000E+01
       25  1    1    2    0    0 0.84408196E+02 -.19511545E+01 0.11402990E+03 0.18909355E+03 0.12500000E+03 0.0000E+00 0.9000E+01
       23  1    1    2    0    0 -.68425865E+02 -.12799000E+02 0.10497096E+03 0.15549941E+03 0.91188000E+02 0.0000E+00 0.9000E+01
       21  1    1    2  502  501 -.15982332E+02 0.14750154E+02 0.44017841E+02 0.49103308E+02 0.75000000E+00 0.0000E+00 0.9000E+01
#aMCatNLO 1  0  0  2  2 0.72108349D+03 0.00000000D+00  -5  6  0 0.00000000D+00 0.00000000D+00 0.00000000D+00 0.00000000D+00 0.00000000D+00
  <mgrwgt>
 0.6785506720D-01    3    2    0
 0.146473471326352D+03 0.000000000000000D+00 0.000000000000000D+00 0.146473471326352D+03
 0.146473471326352D+03 0.000000000000000D+00 0.000000000000000D+00 -.146473471326352D+03
 0.151747886437906D+03 0.844115214835406D+02 -.195422344728143D+01 -.165316995473423D+02
 0.114730126489104D+03 -.684233505312224D+02 -.128013202141932D+02 0.145666848012987D+01
 0.264689297256926D+02 -.159881709523182D+02 0.147555436614746D+02 0.150750310672124D+02
 0.000000000000000D+00 -.000000000000000D+00 0.000000000000000D+00 0.000000000000000D+00
 0.781917204490888D+03 0.000000000000000D+00 0.000000000000000D+00 0.781917204490888D+03
 0.720127124968026D+03 0.000000000000000D+00 0.000000000000000D+00 -.720127124968026D+03
 0.481585905923512D+03 0.236071856766978D+03 -.400370785818393D+03 -.165316995473423D+02
 0.274353154901528D+03 0.247478991645612D+02 -.257565179836680D+03 0.145666848012987D+01
 0.223792015208110D+02 -.429082580483796D+01 -.159737570077983D+02 0.150750310672124D+02
 0.723726067113062D+03 -.256528930126701D+03 0.673909722662872D+03 0.617900795228619D+02
0.500233722805D-03 0.000000000000D+00 0.000000000000D+00 0.332162202336D-04 0.000000000000D+00  6 -3 3 25 23 21 21 2 0.50516536D-01 0.10052120D-01 0.20638502D+05 0.20638502D+05 0.20638502D+05 0.12323263D+01  1  2  2  2  6  2        3 0.507359429149D-01 0.100000000000D+01
0.106578352764D-03 0.263980587981D-04 -.192102921014D-05 0.332162202336D-04 0.000000000000D+00  6 -3 3 25 23 21 21 4 0.50516536D-01 0.10052120D-01 0.20638502D+05 0.20638502D+05 0.20638502D+05 0.12323263D+01  1  2  3  2  6  2        3 0.164158443300D-01 0.100000000000D+01
0.456598015148D-05 0.000000000000D+00 0.000000000000D+00 0.332162202336D-04 0.000000000000D+00  6 -3 3 25 23 21 21 4 0.50516536D-01 0.10052120D-01 0.20638502D+05 0.20638502D+05 0.20638502D+05 0.12323263D+01  1  2 15  2  6  2        3 0.703279957298D-03 0.100000000000D+01
  </mgrwgt>
  </event>
  <event>
  5     66 0.47607883E-03 0.29140497E+02 0.75467711E-02 0.12229433E+00
       -3 -1    0    0    0  501 0.00000000E+00 0.00000000E+00 0.25591408E+03 0.25591457E+03 0.50000000E+00 0.0000E+00 0.9000E+01
        3 -1    0    0  502    0 0.00000000E+00 0.00000000E+00 -.75128853E+02 0.75130516E+02 0.50000000E+00 0.0000E+00 0.9000E+01
       25  1    1    2    0    0 0.37772087E+02 -.34462498E+00 0.43990368E+02 0.13779333E+03 0.12500000E+03 0.0000E+00 0.9000E+01
       23  1    1    2    0    0 -.47630535E+02 0.27757729E+02 0.11559220E+03 0.15721313E+03 0.91188000E+02 0.0000E+00 0.9000E+01
       21  1    1    2  502  501 0.98584476E+01 -.27413104E+02 0.21202652E+02 0.36038621E+02 0.75000000E+00 0.0000E+00 0.9000E+01
#aMCatNLO 1  0  0  5  2 0.64661535D+01 0.00000000D+00  -5  6  0 0.00000000D+00 0.00000000D+00 0.00000000D+00 0.00000000D+00 0.00000000D+00
  <mgrwgt>
 0.7616780144D-01   19    2    0
 0.138661051584999D+03 0.000000000000000D+00 0.000000000000000D+00 0.138661051584999D+03
 0.138661051584999D+03 -.000000000000000D+00 -.000000000000000D+00 -.138661051584999D+03
 0.135809196903290D+03 0.377704939042645D+02 -.340193909680883D+00 -.373150374761750D+02
 0.112315807644543D+03 -.476318528772147D+02 0.277613933725349D+02 0.354979003934713D+02
 0.291970986221636D+02 0.986135897295023D+01 -.274211994628540D+02 0.181713708270371D+01
 0.000000000000000D+00 -.000000000000000D+00 0.000000000000000D+00 0.000000000000000D+00
 0.138661051584999D+03 0.000000000000000D+00 0.000000000000000D+00 0.138661051584999D+03
 0.138661051584999D+03 -.000000000000000D+00 -.000000000000000D+00 -.138661051584999D+03
 0.136155362616534D+03 0.390303744958047D+02 -.384350791485661D+01 -.370828812643440D+02
 0.111261943408180D+03 -.465961250244796D+02 0.248813744910615D+02 0.356887523332452D+02
 0.234373886486770D+02 0.136067575183661D+02 -.190824527991629D+02 0.165322936227635D+00
 0.646740849660623D+01 -.604100698969118D+01 -.195541377704194D+01 0.122880599487113D+01
0.307183858473D-03 0.000000000000D+00 0.000000000000D+00 0.190244027292D-04 0.000000000000D+00  6 -3 3 25 23 21 21 2 0.39371562D-01 0.11558451D-01 0.17726443D+05 0.17726443D+05 0.17726443D+05 0.12396378D+01  1  2  2  3  6  5       21 0.402858231138D-01 0.100000000000D+01
0.397554694641D-04 0.162105375710D-04 -.117966689990D-05 0.190244027292D-04 0.000000000000D+00  6 -3 3 25 23 21 21 4 0.39371562D-01 0.11558451D-01 0.17726443D+05 0.17726443D+05 0.17726443D+05 0.12396378D+01  1  2  3  3  6  5       21 0.801198945541D-02 0.100000000000D+01
0.806499446682D-05 0.000000000000D+00 0.000000000000D+00 0.190244027292D-04 0.000000000000D+00  6 -3 3 25 23 21 21 4 0.39371562D-01 0.11558451D-01 0.17726443D+05 0.17726443D+05 0.17726443D+05 0.12396378D+01  1  2 15  3  6  5       21 0.162535247344D-02 0.100000000000D+01
0.120666959138D-03 0.000000000000D+00 0.000000000000D+00 0.190255661366D-04 0.000000000000D+00  6 -3 3 25 23 21 21 4 0.39371562D-01 0.11558451D-01 0.17712599D+05 0.17712599D+05 0.17712599D+05 0.12396757D+01  1  2 12  3  6  5       21 0.243197571547D-01 0.100000000000D+01
0.123732986763D-03 0.000000000000D+00 0.000000000000D+00 0.190255661366D-04 0.000000000000D+00  6 -3 3 25 23 21 21 4 0.39371562D-01 0.11558451D-01 0.17712599D+05 0.17712599D+05 0.17712599D+05 0.12396757D+01  1  2 12  3  6  5       21 0.249376980375D-01 0.100000000000D+01
-.171709500237D-03 0.000000000000D+00 0.000000000000D+00 0.190244027292D-04 0.000000000000D+00  6 -3 3 25 23 21 21 4 0.39371562D-01 0.11558451D-01 0.17726443D+05 0.17726443D+05 0.17726443D+05 0.12396378D+01  1  2  4  3  6  5       21 -.346049166023D-01 0.100000000000D+01
0.305383678683D-04 0.000000000000D+00 0.000000000000D+00 0.190244027292D-04 0.195166310742D-05  6 -3 3 25 23 21 21 4 0.39371562D-01 0.11558451D-01 0.17712599D+05 0.17712599D+05 0.17712599D+05 0.12396757D+01  1  2 11  3  6  5       21 0.615483887026D-02 0.100000000000D+01
0.295996392375D-05 0.000000000000D+00 0.000000000000D+00 0.190255661366D-04 0.000000000000D+00  6 -3 3 25 23 3 -3 4 0.39371562D-01 0.11558451D-01 0.17712599D+05 0.17712599D+05 0.17712599D+05 0.12396757D+01  1  2 12  6  6  5       21 0.596564331500D-03 0.100000000000D+01
0.299357492225D-05 0.000000000000D+00 0.000000000000D+00 0.190255661366D-04 0.000000000000D+00  6 -3 3 25 23 3 -3 4 0.39371562D-01 0.11558451D-01 0.17712599D+05 0.17712599D+05 0.17712599D+05 0.12396757D+01  1  2 12  6  6  5       21 0.603338442053D-03 0.100000000000D+01
0.748733825747D-06 0.000000000000D+00 0.000000000000D+00 0.190255661366D-04 0.826358773366D-07  6 -3 3 25 23 3 -3 4 0.39371562D-01 0.11558451D-01 0.17712599D+05 0.17712599D+05 0.17712599D+05 0.12396757D+01  1  2 11  6  6  5       21 0.150903154813D-03 0.100000000000D+01
0.295996392375D-05 0.000000000000D+00 0.000000000000D+00 0.190255661366D-04 0.000000000000D+00  6 -3 3 25 23 2 -2 4 0.39371562D-01 0.11558451D-01 0.17712599D+05 0.17712599D+05 0.17712599D+05 0.12396757D+01  1  2 12  7  6  5       21 0.596564331500D-03 0.100000000000D+01
0.295996392375D-05 0.000000000000D+00 0.000000000000D+00 0.190255661366D-04 0.000000000000D+00  6 -3 3 25 23 4 -4 4 0.39371562D-01 0.11558451D-01 0.17712599D+05 0.17712599D+05 0.17712599D+05 0.12396757D+01  1  2 12  7  6  5       21 0.596564331500D-03 0.100000000000D+01
0.299357492225D-05 0.000000000000D+00 0.000000000000D+00 0.190255661366D-04 0.000000000000D+00  6 -3 3 25 23 2 -2 4 0.39371562D-01 0.11558451D-01 0.17712599D+05 0.17712599D+05 0.17712599D+05 0.12396757D+01  1  2 12  7  6  5       21 0.603338442053D-03 0.100000000000D+01
0.299357492225D-05 0.000000000000D+00 0.000000000000D+00 0.190255661366D-04 0.000000000000D+00  6 -3 3 25 23 4 -4 4 0.39371562D-01 0.11558451D-01 0.17712599D+05 0.17712599D+05 0.17712599D+05 0.12396757D+01  1  2 12  7  6  5       21 0.603338442053D-03 0.100000000000D+01
0.804581940676D-06 0.000000000000D+00 0.000000000000D+00 0.190255661366D-04 0.768744567352D-07  6 -3 3 25 23 2 -2 4 0.39371562D-01 0.11558451D-01 0.17712599D+05 0.17712599D+05 0.17712599D+05 0.12396757D+01  1  2 11  7  6  5       21 0.162159032995D-03 0.100000000000D+01
0.804581940676D-06 0.000000000000D+00 0.000000000000D+00 0.190255661366D-04 0.768744567352D-07  6 -3 3 25 23 4 -4 4 0.39371562D-01 0.11558451D-01 0.17712599D+05 0.17712599D+05 0.17712599D+05 0.12396757D+01  1  2 11  7  6  5       21 0.162159032995D-03 0.100000000000D+01
0.295996392375D-05 0.000000000000D+00 0.000000000000D+00 0.190255661366D-04 0.000000000000D+00  6 -3 3 25 23 1 -1 4 0.39371562D-01 0.11558451D-01 0.17712599D+05 0.17712599D+05 0.17712599D+05 0.12396757D+01  1  2 12  8  6  5       21 0.596564331500D-03 0.100000000000D+01
0.299357492225D-05 0.000000000000D+00 0.000000000000D+00 0.190255661366D-04 0.000000000000D+00  6 -3 3 25 23 1 -1 4 0.39371562D-01 0.11558451D-01 0.17712599D+05 0.17712599D+05 0.17712599D+05 0.12396757D+01  1  2 12  8  6  5       21 0.603338442053D-03 0.100000000000D+01
0.805909639013D-06 0.000000000000D+00 0.000000000000D+00 0.190255661366D-04 0.770013127871D-07  6 -3 3 25 23 1 -1 4 0.39371562D-01 0.11558451D-01 0.17712599D+05 0.17712599D+05 0.17712599D+05 0.12396757D+01  1  2 11  8  6  5       21 0.162426623240D-03 0.100000000000D+01
  </mgrwgt>
  </event>
  <event>
  6     66 0.47607883E-03 0.10205073E+03 0.75467711E-02 0.11305233E+00
       21 -1    0    0  503  501 0.00000000E+00 0.00000000E+00 0.88413841E+03 0.88413873E+03 0.75000000E+00 0.0000E+00 0.9000E+01
        1 -1    0    0  502    0 0.00000000E+00 0.00000000E+00 -.95178077E+02 0.95178615E+02 0.32000000E+00 0.0000E+00 0.9000E+01
       25  1    1    2    0    0 0.28525129E+02 -.55891696E+01 0.55975594E+03 0.57427923E+03 0.12500000E+03 0.0000E+00 0.9000E+01
       23  1    1    2    0    0 0.92028161E+02 0.17177717E+02 0.57401137E+02 0.14273892E+03 0.91188000E+02 0.0000E+00 0.9000E+01
        1  1    1    2  503    0 0.21255802E+01 -.58667299E+02 0.21173552E+02 0.62408267E+02 0.32000000E+00 0.0000E+00 0.9000E+01
       21  1    1    2  502  501 -.12267887E+03 0.47078751E+02 0.15062971E+03 0.19989093E+03 0.75000000E+00 0.0000E+00 0.9000E+01
#aMCatNLO 2  0  0  1  1 0.58705792D+02 0.00000000D+00  -5  6  0 0.00000000D+00 0.00000000D+00 0.00000000D+00 0.00000000D+00 0.00000000D+00
  <mgrwgt>
 0.7903092628D-03    1    2    0
 0.248887194978169D+03 0.000000000000000D+00 0.000000000000000D+00 0.248887194978169D+03
 0.248887194978169D+03 0.000000000000000D+00 0.000000000000000D+00 -.248887194978169D+03
 0.195223602088560D+03 0.293521779156434D+02 -.283943533907342D+02 0.144289518536736D+03
 0.172758484434585D+03 0.927649448833785D+02 -.313862834151777D+01 -.113644430629276D+03
 0.000000000000000D+00 0.000000000000000D+00 -.000000000000000D+00 -.000000000000000D+00
 0.129792303433192D+03 -.122117122799022D+03 0.315329817322519D+02 -.306450879074601D+02
 0.263045274243695D+03 0.000000000000000D+00 0.000000000000000D+00 0.263045274243695D+03
 0.319910019954391D+03 0.000000000000000D+00 0.000000000000000D+00 -.319910019954391D+03
 0.193104724051727D+03 0.285259275285914D+02 -.558934255204814D+01 0.144289518536736D+03
 0.173189748712974D+03 0.920288670793739D+02 0.171775646206826D+02 -.113644430629276D+03
 0.817310795444419D+02 0.212558015514226D+01 -.586672989642598D+02 -.568647457106959D+02
 0.134929741888943D+03 -.122680374763108D+03 0.470790768956254D+02 -.306450879074601D+02
0.250431389175D-05 0.000000000000D+00 0.000000000000D+00 0.505063131223D-06 0.314474703134D-10  6 21 1 25 23 1 21 4 0.13602120D+00 0.14642830D-01 0.50430308D+05 0.50430308D+05 0.50430308D+05 0.11919134D+01  1  2  1  4  5  1       -1 0.790309262785D-03 0.100000000000D+01
  </mgrwgt>
  </event>
  <event>
  5     66 0.47607883E-03 0.22899123E+02 0.75467711E-02 0.11667911E+00
       -3 -1    0    0    0  501 0.00000000E+00 0.00000000E+00 0.80720472E+03 0.80720488E+03 0.50000000E+00 0.0000E+00 0.9000E+01
        3 -1    0    0  502    0 0.00000000E+00 0.00000000E+00 -.41928905E+02 0.41931886E+02 0.50000000E+00 0.0000E+00 0.9000E+01
       25  1    1    2    0    0 0.94061026E+00 -.11512147E+03 0.34629639E+03 0.38574607E+03 0.12500000E+03 0.0000E+00 0.9000E+01
       23  1    1    2    0    0 -.21174086E+02 0.12583593E+03 0.26670126E+03 0.30939915E+03 0.91188000E+02 0.0000E+00 0.9000E+01
       21  1    1    2  502  501 0.20233476E+02 -.10714462E+02 0.15227817E+03 0.15399155E+03 0.75000000E+00 0.0000E+00 0.9000E+01
#aMCatNLO 1  0  0  5  2 0.15710279D+02 0.00000000D+00  -5  6  0 0.00000000D+00 0.00000000D+00 0.00000000D+00 0.00000000D+00 0.00000000D+00
  <mgrwgt>
 0.3140394613D-01    9    2    0
 0.183974295462876D+03 0.000000000000000D+00 0.000000000000000D+00 0.183974295462876D+03
 0.183974295462876D+03 -.000000000000000D+00 -.000000000000000D+00 -.183974295462876D+03
 0.169965848044573D+03 0.938850995748366D+00 -.115120534247334D+03 -.312580468471450D+01
 0.159322989176782D+03 -.211757350973695D+02 0.125836800763812D+03 -.280223366770105D+02
 0.386597537043967D+02 0.202368841016211D+02 -.107162665164772D+02 0.311481413617249D+02
 0.000000000000000D+00 0.000000000000000D+00 0.000000000000000D+00 -.000000000000000D+00
 0.183974295462876D+03 0.000000000000000D+00 0.000000000000000D+00 0.183974295462876D+03
 0.183974295462876D+03 -.000000000000000D+00 -.000000000000000D+00 -.183974295462876D+03
 0.171688987393885D+03 0.544577421696901D+01 -.117507136362827D+03 0.381114672025876D+01
 0.156068629820904D+03 -.170152618243515D+02 0.123633658214571D+03 -.216186329749539D+02
 0.162062297838066D+02 -.806149206804449D+01 -.128231002411251D+02 0.576388147418521D+01
 0.239847439271565D+02 0.196309796754269D+02 0.669657838938116D+01 0.120436047805098D+02
0.144307123459D-02 0.000000000000D+00 0.000000000000D+00 0.247483787372D-04 0.000000000000D+00  6 -3 3 25 23 21 21 2 0.12418558D+00 0.64508419D-02 0.30568242D+05 0.30568242D+05 0.30568242D+05 0.12140440D+01  1  2  2  3  6  5       21 0.422564865028D-01 0.100000000000D+01
0.312677834577D-03 0.761529612340D-04 -.554177351022D-05 0.247483787372D-04 0.000000000000D+00  6 -3 3 25 23 21 21 4 0.12418558D+00 0.64508419D-02 0.30568242D+05 0.30568242D+05 0.30568242D+05 0.12140440D+01  1  2  3  3  6  5       21 0.134949596976D-01 0.100000000000D+01
0.250621864948D-04 0.000000000000D+00 0.000000000000D+00 0.247483787372D-04 0.000000000000D+00  6 -3 3 25 23 21 21 4 0.12418558D+00 0.64508419D-02 0.30568242D+05 0.30568242D+05 0.30568242D+05 0.12140440D+01  1  2 15  3  6  5       21 0.108166668462D-02 0.100000000000D+01
0.271274252170D-03 0.000000000000D+00 0.000000000000D+00 0.246195920284D-04 0.000000000000D+00  6 -3 3 25 23 21 21 4 0.12418558D+00 0.64508419D-02 0.32778938D+05 0.32778938D+05 0.32778938D+05 0.12108811D+01  1  2 12  3  6  5       21 0.116303271875D-01 0.100000000000D+01
-.917719215889D-03 0.000000000000D+00 0.000000000000D+00 0.247483787372D-04 0.000000000000D+00  6 -3 3 25 23 21 21 4 0.12418558D+00 0.64508419D-02 0.30568242D+05 0.30568242D+05 0.30568242D+05 0.12140440D+01  1  2  4  3  6  5       21 -.396081284395D-01 0.100000000000D+01
0.148615534561D-04 0.000000000000D+00 0.000000000000D+00 0.246195920284D-04 0.000000000000D+00  6 -3 3 25 23 3 -3 4 0.12418558D+00 0.64508419D-02 0.32778938D+05 0.32778938D+05 0.32778938D+05 0.12108811D+01  1  2 12  6  6  5       21 0.637158623885D-03 0.100000000000D+01
0.148615534561D-04 0.000000000000D+00 0.000000000000D+00 0.246195920284D-04 0.000000000000D+00  6 -3 3 25 23 2 -2 4 0.12418558D+00 0.64508419D-02 0.32778938D+05 0.32778938D+05 0.32778938D+05 0.12108811D+01  1  2 12  7  6  5       21 0.637158623885D-03 0.100000000000D+01
0.148615534561D-04 0.000000000000D+00 0.000000000000D+00 0.246195920284D-04 0.000000000000D+00  6 -3 3 25 23 4 -4 4 0.12418558D+00 0.64508419D-02 0.32778938D+05 0.32778938D+05 0.32778938D+05 0.12108811D+01  1  2 12  7  6  5       21 0.637158623885D-03 0.100000000000D+01
0.148615534561D-04 0.000000000000D+00 0.000000000000D+00 0.246195920284D-04 0.000000000000D+00  6 -3 3 25 23 1 -1 4 0.12418558D+00 0.64508419D-02 0.32778938D+05 0.32778938D+05 0.32778938D+05 0.12108811D+01  1  2 12  8  6  5       21 0.637158623885D-03 0.100000000000D+01
  </mgrwgt>
  </event>
  <event>
  6     66 0.47607883E-03 0.27034172E+02 0.75467711E-02 0.11737852E+00
       -3 -1    0    0    0  501 0.00000000E+00 0.00000000E+00 0.22392265E+03 0.22392320E+03 0.50000000E+00 0.0000E+00 0.9000E+01
        3 -1    0    0  503    0 0.00000000E+00 0.00000000E+00 -.17250115E+03 0.17250188E+03 0.50000000E+00 0.0000E+00 0.9000E+01
       25  1    1    2    0    0 0.99262064E+02 0.36402184E+02 0.10888941E+03 0.19662141E+03 0.12500000E+03 0.0000E+00 0.9000E+01
       23  1    1    2    0    0 -.86562389E+02 -.73006539E+02 -.48801449E+02 0.15336178E+03 0.91188000E+02 0.0000E+00 0.9000E+01
       21  1    1    2  502  501 -.19371713E+01 0.75792333E+01 0.80521168E+01 0.11251511E+02 0.75000000E+00 0.0000E+00 0.9000E+01
       21  1    1    2  503  502 -.10762504E+02 0.29025122E+02 -.16718587E+02 0.35190380E+02 0.75000000E+00 0.0000E+00 0.9000E+01
#aMCatNLO 2  0  0  2  5 0.12647553D+02 0.00000000D+00  -5  6  0 0.00000000D+00 0.00000000D+00 0.00000000D+00 0.00000000D+00 0.00000000D+00
  <mgrwgt>
 0.7009416921D-02    1    2    0
 0.176698295081248D+03 0.000000000000000D+00 0.000000000000000D+00 0.176698295081248D+03
 0.176698295081248D+03 0.000000000000000D+00 0.000000000000000D+00 -.176698295081248D+03
 0.179948998946048D+03 0.938049362668885D+02 0.511163767940588D+02 0.731053498527819D+02
 0.162818399788023D+03 -.915501363714050D+02 -.595579211783386D+02 -.791581108972692D+02
 0.106291914284249D+02 -.225479989548351D+01 0.844154438427981D+01 0.605276104448732D+01
 0.000000000000000D+00 -.000000000000000D+00 0.000000000000000D+00 -.000000000000000D+00
 0.185002105137049D+03 0.000000000000000D+00 0.000000000000000D+00 0.185002105137049D+03
 0.208785200488957D+03 0.000000000000000D+00 0.000000000000000D+00 -.208785200488957D+03
 0.179296560354183D+03 0.992647984845014D+02 0.363918144584053D+02 0.731053498527819D+02
 0.165545361253264D+03 -.865596198677777D+02 -.730167170995466D+02 -.791581108972692D+02
 0.990790449728110D+01 -.194267435571993D+01 0.759978102403009D+01 0.605276104448732D+01
 0.390374795212774D+02 -.107625042610038D+02 0.290251216171112D+02 -.237830953519077D+02
0.120242648936D-03 0.000000000000D+00 0.000000000000D+00 0.135951815733D-03 0.113165771414D-05  6 -3 3 25 23 21 21 4 0.34449082D-01 0.26538234D-01 0.30260284D+05 0.30260284D+05 0.30260284D+05 0.12145048D+01  1  2  1  2  6  2        3 0.700941692136D-02 0.100000000000D+01
  </mgrwgt>
  </event>
  <event>
  5     66 0.47607883E-03 0.29778398E+02 0.75467711E-02 0.11143040E+00
       -1 -1    0    0    0  501 0.00000000E+00 0.00000000E+00 0.39590392E+02 0.39591686E+02 0.32000000E+00 0.0000E+00 0.9000E+01
        1 -1    0    0  502    0 0.00000000E+00 0.00000000E+00 -.19712934E+04 0.19712934E+04 0.32000000E+00 0.0000E+00 0.9000E+01
       25  1    1    2    0    0 0.18613628E+03 0.19258144E+02 -.37157557E+03 0.43440879E+03 0.12500000E+03 0.0000E+00 0.9000E+01
       23  1    1    2    0    0 -.17395079E+03 0.79059844E+01 -.13707169E+04 0.13847388E+04 0.91188000E+02 0.0000E+00 0.9000E+01
       21  1    1    2  502  501 -.12185496E+02 -.27164128E+02 -.18941052E+03 0.19173754E+03 0.75000000E+00 0.0000E+00 0.9000E+01
#aMCatNLO 1  0  0  2  5 0.24908271D+02 0.00000000D+00  -5  6  0 0.00000000D+00 0.00000000D+00 0.00000000D+00 0.00000000D+00 0.00000000D+00
  <mgrwgt>
 0.3322410691D+00    7    4    0
 0.279366436332952D+03 0.000000000000000D+00 0.000000000000000D+00 0.279366436332952D+03
 0.279366436332952D+03 0.000000000000000D+00 0.000000000000000D+00 -.279366436332952D+03
 0.278798442705545D+03 0.186137662127723D+03 0.192612186420779D+02 0.164576267575507D+03
 0.244717225678807D+03 -.173949576396907D+03 0.790868326838518D+01 -.145774712485496D+03
 0.352172042815524D+02 -.121880857308158D+02 -.271699019104630D+02 -.188015550900104D+02
 0.000000000000000D+00 0.000000000000000D+00 0.000000000000000D+00 -.000000000000000D+00
 0.291774563316921D+03 0.000000000000000D+00 0.000000000000000D+00 0.291774563316921D+03
 0.321843651430149D+03 0.000000000000000D+00 0.000000000000000D+00 -.321843651430149D+03
 0.264980633707150D+03 0.165044794691758D+03 0.162666571831354D+02 0.164576267575507D+03
 0.258897943157524D+03 -.193484509710421D+03 0.513530223893283D+01 -.145774712485496D+03
 0.365721805255904D+02 -.149727533333944D+02 -.275652421032539D+02 -.188015550900104D+02
 0.531674573568057D+02 0.434124683520582D+02 0.616328268118575D+01 -.300690881132284D+02
 0.279366436332952D+03 0.000000000000000D+00 0.000000000000000D+00 0.279366436332952D+03
 0.279366436332952D+03 0.000000000000000D+00 0.000000000000000D+00 -.279366436332952D+03
 0.278798442705545D+03 0.186137662127723D+03 0.192612186420779D+02 0.164576267575507D+03
 0.244717225678807D+03 -.173949576396907D+03 0.790868326838518D+01 -.145774712485496D+03
 0.000000000000000D+00 0.000000000000000D+00 0.000000000000000D+00 -.000000000000000D+00
 0.352172042815524D+02 -.121880857308158D+02 -.271699019104630D+02 -.188015550900104D+02
 0.291774563316921D+03 0.000000000000000D+00 0.000000000000000D+00 0.291774563316921D+03
 0.321843651430149D+03 0.000000000000000D+00 0.000000000000000D+00 -.321843651430149D+03
 0.264980633707150D+03 0.165044794691758D+03 0.162666571831354D+02 0.164576267575507D+03
 0.258897943157524D+03 -.193484509710421D+03 0.513530223893283D+01 -.145774712485496D+03
 0.531674573568057D+02 0.434124683520582D+02 0.616328268118575D+01 -.300690881132284D+02
 0.365721805255904D+02 -.149727533333944D+02 -.275652421032539D+02 -.188015550900104D+02
0.111779451208D-02 0.000000000000D+00 0.000000000000D+00 0.768587347636D-05 0.000000000000D+00  6 -1 1 25 23 21 21 2 0.60909311D-02 0.30327601D+00 0.50935967D+05 0.50935967D+05 0.50935967D+05 0.11914849D+01  1  2  2  2  6  2        1 0.735519306788D-01 0.100000000000D+01
0.279200355749D-03 0.589876369963D-04 -.429262524844D-05 0.768587347636D-05 0.000000000000D+00  6 -1 1 25 23 21 21 4 0.60909311D-02 0.30327601D+00 0.50935967D+05 0.50935967D+05 0.50935967D+05 0.11914849D+01  1  2  3  2  6  2        1 0.260810547594D-01 0.100000000000D+01
0.758989800835D-05 0.000000000000D+00 0.000000000000D+00 0.768587347636D-05 0.000000000000D+00  6 -1 1 25 23 21 21 4 0.60909311D-02 0.30327601D+00 0.50935967D+05 0.50935967D+05 0.50935967D+05 0.11914849D+01  1  2 15  2  6  2        1 0.708998185344D-03 0.100000000000D+01
-.330773276689D-03 0.000000000000D+00 0.000000000000D+00 0.768587347636D-05 0.000000000000D+00  6 -1 1 25 23 21 21 4 0.60909311D-02 0.30327601D+00 0.50935967D+05 0.50935967D+05 0.50935967D+05 0.11914849D+01  1  2  4  2  6  2        1 -.308986566980D-01 0.100000000000D+01
-.685046576508D-02 0.000000000000D+00 -.146063268972D-02 0.768587347636D-05 0.000000000000D+00  6 -1 1 25 23 21 21 4 0.60909311D-02 0.35516991D+00 0.50935967D+05 0.50935967D+05 0.50935967D+05 0.11914849D+01  1  2  5  2  6  2        1 -.386601247971D+00 0.100000000000D+01
0.701156206608D-02 0.000000000000D+00 0.144259943482D-02 0.768587347636D-05 0.000000000000D+00  6 -1 1 25 23 21 21 4 0.60909311D-02 0.30327601D+00 0.50935967D+05 0.50935967D+05 0.50935967D+05 0.11914849D+01  1  2  6  2  6  2        1 0.654973858121D+00 0.100000000000D+01
-.151787595034D-03 0.000000000000D+00 -.347345895564D-04 0.768587347636D-05 0.000000000000D+00  6 -1 21 25 23 -1 21 4 0.60909311D-02 0.35516991D+00 0.50935967D+05 0.50935967D+05 0.50935967D+05 0.11914849D+01  3  4  5  5  5  2        1 -.557486797841D-02 0.100000000000D+01
  </mgrwgt>
  </event>
  <event>
  6     66 0.47607883E-03 0.19086244E+02 0.75467711E-02 0.12259650E+00
       21 -1    0    0  503  501 0.00000000E+00 0.00000000E+00 0.22639701E+02 0.22652121E+02 0.75000000E+00 0.0000E+00 0.9000E+01
        1 -1    0    0  502    0 0.00000000E+00 0.00000000E+00 -.16367415E+04 0.16367415E+04 0.32000000E+00 0.0000E+00 0.9000E+01
       25  1    1    2    0    0 0.22264151E+02 0.45442860E+02 -.76803195E+03 0.77978127E+03 0.12500000E+03 0.0000E+00 0.9000E+01
       23  1    1    2    0    0 -.50895181E+01 -.50466623E+02 -.84935474E+03 0.85574033E+03 0.91188000E+02 0.0000E+00 0.9000E+01
        1  1    1    2  503    0 0.21785844E+01 -.12031059E+01 -.15656952E+01 0.29576165E+01 0.32000000E+00 0.0000E+00 0.9000E+01
       21  1    1    2  502  501 -.19353218E+02 0.62268688E+01 0.48506305E+01 0.20914398E+02 0.75000000E+00 0.0000E+00 0.9000E+01
#aMCatNLO 2  0  0  1  5 0.74797294D+02 0.00000000D+00  -5  6  0 0.00000000D+00 0.00000000D+00 0.00000000D+00 0.00000000D+00 0.00000000D+00
  <mgrwgt>
 0.4598281073D+00    1    2    0
 0.189407931040197D+03 0.000000000000000D+00 0.000000000000000D+00 0.189407931040197D+03
 0.189407931040197D+03 0.000000000000000D+00 0.000000000000000D+00 -.189407931040197D+03
 0.140364955548019D+03 0.230715788038715D+02 0.449970019631019D+02 -.389909324308451D+02
 0.126482937576673D+03 -.436236494638325D+01 -.508681543879742D+02 -.712466335714208D+02
 0.000000000000000D+00 0.000000000000000D+00 -.000000000000000D+00 0.000000000000000D+00
 0.111967968955703D+03 -.187092138574882D+02 0.587115242487236D+01 0.110237566002266D+03
 0.195413440045937D+03 0.000000000000000D+00 0.000000000000000D+00 0.195413440045937D+03
 0.189670027977686D+03 0.000000000000000D+00 0.000000000000000D+00 -.189670027977686D+03
 0.140378208048558D+03 0.222643052204609D+02 0.454428123705793D+02 -.389909324308451D+02
 0.126349199777404D+03 -.508938071021670D+01 -.504666657222014D+02 -.712466335714208D+02
 0.625943095962532D+01 0.217858439892778D+01 -.120310588450913D+01 0.574341206825037D+01
 0.112096629238036D+03 -.193535089091719D+02 0.622695923613124D+01 0.110237566002266D+03
0.585215176952D-04 0.000000000000D+00 0.000000000000D+00 0.629613773820D-04 0.854606363823D-06  6 21 1 25 23 1 21 4 0.34839137D-02 0.25180192D+00 0.17163570D+05 0.17163570D+05 0.17163570D+05 0.12412063D+01  1  2  1  4  5  1       -1 0.459828107274D+00 0.100000000000D+01
  </mgrwgt>
  </event>
  <event>
  6     66 -.47607883E-03 0.72611218E+02 0.75467711E-02 0.11542531E+00
       -1 -1    0    0    0  501 0.00000000E+00 0.00000000E+00 0.27655579E+03 0.27655598E+03 0.32000000E+00 0.0000E+00 0.9000E+01
        1 -1    0    0  503    0 0.00000000E+00 0.00000000E+00 -.14771044E+03 0.14771079E+03 0.32000000E+00 0.0000E+00 0.9000E+01
       25  1    1    2    0    0 0.14354110E+03 -.11757075E+02 0.35403102E+02 0.19396045E+03 0.12500000E+03 0.0000E+00 0.9000E+01
       23  1    1    2    0    0 -.50812831E+02 -.90371685E+00 0.21820138E+02 0.10664957E+03 0.91188000E+02 0.0000E+00 0.9000E+01
       21  1    1    2  502  501 -.78422224E+02 0.15125277E+02 0.74053372E+02 0.10891870E+03 0.75000000E+00 0.0000E+00 0.9000E+01
       21  1    1    2  503  502 -.14306042E+02 -.24644854E+01 -.24312633E+01 0.14738048E+02 0.75000000E+00 0.0000E+00 0.9000E+01
#aMCatNLO 2  0  0  2  5 0.14516767D+02 0.00000000D+00  -5  6  0 0.00000000D+00 0.00000000D+00 0.00000000D+00 0.00000000D+00 0.00000000D+00
  <mgrwgt>
 -.1499750589D-01    3    2    0
 0.193823040238076D+03 0.000000000000000D+00 0.000000000000000D+00 0.193823040238076D+03
 0.193823040238076D+03 0.000000000000000D+00 0.000000000000000D+00 -.193823040238076D+03
 0.187698667143349D+03 0.136524010772525D+03 -.129663531313744D+02 -.282640728920270D+02
 0.107161192816789D+03 -.547294351533276D+02 -.157868444041439D+01 -.130562852738594D+02
 0.927862205160142D+02 -.817945756191969D+02 0.145450375717888D+02 0.413203581658864D+02
 0.000000000000000D+00 -.000000000000000D+00 -.000000000000000D+00 -.000000000000000D+00
 0.198364206140136D+03 0.000000000000000D+00 0.000000000000000D+00 0.198364206140136D+03
 0.205918145673224D+03 0.000000000000000D+00 0.000000000000000D+00 -.205918145673224D+03
 0.192786205735360D+03 0.143542430128593D+03 -.117572980811357D+02 -.282640728920270D+02
 0.105206486199100D+03 -.508121035187436D+02 -.903850214078444D+00 -.130562852738594D+02
 0.899251089377849D+02 -.784242846493892D+02 0.151256337304234D+02 0.413203581658864D+02
 0.163645509411155D+02 -.143060419604601D+02 -.246448543520925D+01 -.755393953308874D+01
-.194582167886D-03 0.000000000000D+00 0.000000000000D+00 0.225803491948D-05 0.000000000000D+00  6 -1 1 25 23 21 21 4 0.41571271D-01 0.23431246D-01 0.37924181D+05 0.37924181D+05 0.37924181D+05 0.12043576D+01  1  2 13  2  6  2        1 -.487578110419D-01 0.100000000000D+01
-.999896124995D-05 0.000000000000D+00 0.000000000000D+00 0.227071738285D-05 0.000000000000D+00  6 -1 1 25 23 21 21 4 0.41571271D-01 0.21389015D-01 0.35156065D+05 0.35156065D+05 0.35156065D+05 0.12077351D+01  1  2  8  2  6  2        1 -.284378495420D-02 0.100000000000D+01
0.146410013136D-03 0.000000000000D+00 0.000000000000D+00 0.227071738285D-05 0.102060338508D-06  6 -1 1 25 23 21 21 4 0.42545262D-01 0.22723750D-01 0.37924181D+05 0.37924181D+05 0.37924181D+05 0.12043576D+01  1  2  1  2  6  2        1 0.366040901041D-01 0.100000000000D+01
  </mgrwgt>
  </event>
  <event>
  5     66 0.47607883E-03 0.43329057E+02 0.75467711E-02 0.11342371E+00
       -1 -1    0    0    0  501 0.00000000E+00 0.00000000E+00 0.46473430E+03 0.46473441E+03 0.32000000E+00 0.0000E+00 0.9000E+01
        1 -1    0    0  502    0 0.00000000E+00 0.00000000E+00 -.15275545E+03 0.15275578E+03 0.32000000E+00 0.0000E+00 0.9000E+01
       25  1    1    2    0    0 -.25701365E+02 -.17296581E+03 -.94838257E+01 0.21515733E+03 0.12500000E+03 0.0000E+00 0.9000E+01
       23  1    1    2    0    0 0.64054096E+02 0.15281738E+03 0.29828693E+03 0.35319460E+03 0.91188000E+02 0.0000E+00 0.9000E+01
       21  1    1    2  502  501 -.38352731E+02 0.20148436E+02 0.23175743E+02 0.49138264E+02 0.75000000E+00 0.0000E+00 0.9000E+01
#aMCatNLO 1  0  0  5  1 0.16515302D+02 0.00000000D+00  -5  6  0 0.00000000D+00 0.00000000D+00 0.00000000D+00 0.00000000D+00 0.00000000D+00
  <mgrwgt>
 0.8457501922D-01   14    2    0
 0.266441048150813D+03 0.000000000000000D+00 0.000000000000000D+00 0.266441048150813D+03
 0.266441048150813D+03 -.000000000000000D+00 -.000000000000000D+00 -.266441048150813D+03
 0.254871812189251D+03 -.256986220515175D+02 -.172967252891893D+03 -.136954557793153D+03
 0.234639014725284D+03 0.640566212987879D+02 0.152816048650729D+03 0.138867636365762D+03
 0.433712693870915D+02 -.383579992472705D+02 0.201512042411634D+02 -.191307857260875D+01
 0.000000000000000D+00 0.000000000000000D+00 0.000000000000000D+00 0.000000000000000D+00
 0.266441048150813D+03 0.000000000000000D+00 0.000000000000000D+00 0.266441048150813D+03
 0.266441048150813D+03 -.000000000000000D+00 -.000000000000000D+00 -.266441048150813D+03
 0.253319633196371D+03 -.330516404258336D+02 -.169104377404183D+03 -.137321284477859D+03
 0.235033808312575D+03 0.572609285946461D+02 0.156386135577281D+03 0.138528705911790D+03
 0.269159486679926D+02 -.242577656336752D+02 0.674351642480589D+00 0.116436398528115D+02
 0.176127061246880D+02 0.484774648627342D-01 0.120438901844217D+02 -.128510612867425D+02
0.129407383534D-02 0.000000000000D+00 0.000000000000D+00 0.390126411982D-05 0.000000000000D+00  6 -1 1 25 23 21 21 2 0.71497618D-01 0.23500872D-01 0.50044146D+05 0.50044146D+05 0.50044146D+05 0.11922438D+01  1  2  2  3  6  5       21 0.786792408733D-01 0.100000000000D+01
0.207335620153D-03 0.682901524569D-04 -.496958426517D-05 0.390126411982D-05 0.000000000000D+00  6 -1 1 25 23 21 21 4 0.71497618D-01 0.23500872D-01 0.50044146D+05 0.50044146D+05 0.50044146D+05 0.11922438D+01  1  2  3  3  6  5       21 0.179186452565D-01 0.100000000000D+01
0.910665719738D-05 0.000000000000D+00 0.000000000000D+00 0.390126411982D-05 0.000000000000D+00  6 -1 1 25 23 21 21 4 0.71497618D-01 0.23500872D-01 0.50044146D+05 0.50044146D+05 0.50044146D+05 0.11922438D+01  1  2 15  3  6  5       21 0.787028102897D-03 0.100000000000D+01
0.407687288249D-03 0.000000000000D+00 0.000000000000D+00 0.391191062178D-05 0.000000000000D+00  6 -1 1 25 23 21 21 4 0.71497618D-01 0.23500872D-01 0.48191547D+05 0.48191547D+05 0.48191547D+05 0.11938695D+01  1  2 12  3  6  5       21 0.354298393225D-01 0.100000000000D+01
0.404762449676D-03 0.000000000000D+00 0.000000000000D+00 0.391191062178D-05 0.000000000000D+00  6 -1 1 25 23 21 21 4 0.71497618D-01 0.23500872D-01 0.48191547D+05 0.48191547D+05 0.48191547D+05 0.11938695D+01  1  2 12  3  6  5       21 0.351756578366D-01 0.100000000000D+01
-.106559167750D-02 0.000000000000D+00 0.000000000000D+00 0.390126411982D-05 0.000000000000D+00  6 -1 1 25 23 21 21 4 0.71497618D-01 0.23500872D-01 0.50044146D+05 0.50044146D+05 0.50044146D+05 0.11922438D+01  1  2  4  3  6  5       21 -.920920353354D-01 0.100000000000D+01
0.125192758592D-04 0.000000000000D+00 0.000000000000D+00 0.391191062178D-05 0.000000000000D+00  6 -1 1 25 23 1 -1 4 0.71497618D-01 0.23500872D-01 0.48191547D+05 0.48191547D+05 0.48191547D+05 0.11938695D+01  1  2 12  6  6  5       21 0.108798077573D-02 0.100000000000D+01
0.124410202617D-04 0.000000000000D+00 0.000000000000D+00 0.391191062178D-05 0.000000000000D+00  6 -1 1 25 23 1 -1 4 0.71497618D-01 0.23500872D-01 0.48191547D+05 0.48191547D+05 0.48191547D+05 0.11938695D+01  1  2 12  6  6  5       21 0.108118001612D-02 0.100000000000D+01
0.125192758592D-04 0.000000000000D+00 0.000000000000D+00 0.391191062178D-05 0.000000000000D+00  6 -1 1 25 23 2 -2 4 0.71497618D-01 0.23500872D-01 0.48191547D+05 0.48191547D+05 0.48191547D+05 0.11938695D+01  1  2 12  7  6  5       21 0.108798077573D-02 0.100000000000D+01
0.125192758592D-04 0.000000000000D+00 0.000000000000D+00 0.391191062178D-05 0.000000000000D+00  6 -1 1 25 23 4 -4 4 0.71497618D-01 0.23500872D-01 0.48191547D+05 0.48191547D+05 0.48191547D+05 0.11938695D+01  1  2 12  7  6  5       21 0.108798077573D-02 0.100000000000D+01
0.124410202617D-04 0.000000000000D+00 0.000000000000D+00 0.391191062178D-05 0.000000000000D+00  6 -1 1 25 23 2 -2 4 0.71497618D-01 0.23500872D-01 0.48191547D+05 0.48191547D+05 0.48191547D+05 0.11938695D+01  1  2 12  7  6  5       21 0.108118001612D-02 0.100000000000D+01
0.124410202617D-04 0.000000000000D+00 0.000000000000D+00 0.391191062178D-05 0.000000000000D+00  6 -1 1 25 23 4 -4 4 0.71497618D-01 0.23500872D-01 0.48191547D+05 0.48191547D+05 0.48191547D+05 0.11938695D+01  1  2 12  7  6  5       21 0.108118001612D-02 0.100000000000D+01
0.125192758592D-04 0.000000000000D+00 0.000000000000D+00 0.391191062178D-05 0.000000000000D+00  6 -1 1 25 23 3 -3 4 0.71497618D-01 0.23500872D-01 0.48191547D+05 0.48191547D+05 0.48191547D+05 0.11938695D+01  1  2 12  8  6  5       21 0.108798077573D-02 0.100000000000D+01
0.124410202617D-04 0.000000000000D+00 0.000000000000D+00 0.391191062178D-05 0.000000000000D+00  6 -1 1 25 23 3 -3 4 0.71497618D-01 0.23500872D-01 0.48191547D+05 0.48191547D+05 0.48191547D+05 0.11938695D+01  1  2 12  8  6  5       21 0.108118001612D-02 0.100000000000D+01
  </mgrwgt>
  </event>
  <event>
  5     66 0.47607883E-03 0.33557329E+02 0.75467711E-02 0.12043604E+00
       -1 -1    0    0    0  501 0.00000000E+00 0.00000000E+00 0.10650851E+03 0.10650899E+03 0.32000000E+00 0.0000E+00 0.9000E+01
        1 -1    0    0  502    0 -.00000000E+00 -.00000000E+00 -.23137784E+03 0.23137807E+03 0.32000000E+00 0.0000E+00 0.9000E+01
       25  1    1    2    0    0 -.21019196E+02 -.74229134E+02 -.35815448E+01 0.14693399E+03 0.12500000E+03 0.0000E+00 0.9000E+01
       23  1    1    2    0    0 -.11572112E+02 0.66258962E+02 -.85969290E+02 0.14223268E+03 0.91188000E+02 0.0000E+00 0.9000E+01
       21  1    1    2  502  501 0.32591308E+02 0.79701720E+01 -.35318501E+02 0.48720386E+02 0.75000000E+00 0.0000E+00 0.9000E+01
#aMCatNLO 1  0  0  5  1 0.16019814D+02 0.00000000D+00  -5  6  0 0.00000000D+00 0.00000000D+00 0.00000000D+00 0.00000000D+00 0.00000000D+00
  <mgrwgt>
 0.4189056701D-01   14    2    0
 0.156983527043989D+03 0.000000000000000D+00 0.000000000000000D+00 0.156983527043989D+03
 0.156983527043989D+03 -.000000000000000D+00 -.000000000000000D+00 -.156983527043989D+03
 0.156705318555490D+03 -.210223016882866D+02 -.742298939431514D+02 0.545851860901165D+02
 0.118877106969595D+03 -.115744681963778D+02 0.662583861708695D+02 -.359495920069131D+02
 0.383846285628927D+02 0.325967698846644D+02 0.797150777228191D+01 -.186355940832033D+02
 0.000000000000000D+00 0.000000000000000D+00 0.000000000000000D+00 0.000000000000000D+00
 0.156983527043989D+03 0.000000000000000D+00 0.000000000000000D+00 0.156983527043989D+03
 0.156983527043989D+03 -.000000000000000D+00 -.000000000000000D+00 -.156983527043989D+03
 0.153783958832506D+03 -.141074677782931D+02 -.725388781629810D+02 0.506319711441155D+02
 0.120163125165824D+03 -.625085922370084D+01 0.675602694695042D+02 -.389931026438116D+02
 0.202309567386480D+02 0.214630058806431D+01 0.544410723316600D+01 -.193661225024658D+02
 0.197890133509998D+02 0.182120264139296D+02 -.465498539689256D+00 0.772725400216183D+01
0.782644843092D-04 0.000000000000D+00 0.000000000000D+00 0.125992754006D-04 0.000000000000D+00  6 -1 1 25 23 21 21 2 0.16385978D-01 0.35596645D-01 0.21573667D+05 0.21573667D+05 0.21573667D+05 0.12302211D+01  1  2  2  3  6  5       21 0.390216053046D-01 0.100000000000D+01
0.787179442586D-05 0.413013030592D-05 -.300556227259D-06 0.125992754006D-04 0.000000000000D+00  6 -1 1 25 23 21 21 4 0.16385978D-01 0.35596645D-01 0.21573667D+05 0.21573667D+05 0.21573667D+05 0.12302211D+01  1  2  3  3  6  5       21 0.593991817679D-02 0.100000000000D+01
0.231370782731D-05 0.000000000000D+00 0.000000000000D+00 0.125992754006D-04 0.000000000000D+00  6 -1 1 25 23 21 21 4 0.16385978D-01 0.35596645D-01 0.21573667D+05 0.21573667D+05 0.21573667D+05 0.12302211D+01  1  2 15  3  6  5       21 0.174588339529D-02 0.100000000000D+01
0.200818895626D-04 0.000000000000D+00 0.000000000000D+00 0.126725467396D-04 0.000000000000D+00  6 -1 1 25 23 21 21 4 0.16385978D-01 0.35596645D-01 0.20013802D+05 0.20013802D+05 0.20013802D+05 0.12337931D+01  1  2 12  3  6  5       21 0.153031155341D-01 0.100000000000D+01
0.174522390873D-04 0.000000000000D+00 0.000000000000D+00 0.126725467396D-04 0.000000000000D+00  6 -1 1 25 23 21 21 4 0.16385978D-01 0.35596645D-01 0.20013802D+05 0.20013802D+05 0.20013802D+05 0.12337931D+01  1  2 12  3  6  5       21 0.132992281553D-01 0.100000000000D+01
-.497791173125D-04 0.000000000000D+00 0.000000000000D+00 0.125992754006D-04 0.000000000000D+00  6 -1 1 25 23 21 21 4 0.16385978D-01 0.35596645D-01 0.21573667D+05 0.21573667D+05 0.21573667D+05 0.12302211D+01  1  2  4  3  6  5       21 -.375624499005D-01 0.100000000000D+01
0.727236891549D-06 0.000000000000D+00 0.000000000000D+00 0.126725467396D-04 0.000000000000D+00  6 -1 1 25 23 1 -1 4 0.16385978D-01 0.35596645D-01 0.20013802D+05 0.20013802D+05 0.20013802D+05 0.12337931D+01  1  2 12  6  6  5       21 0.554180428957D-03 0.100000000000D+01
0.632038886868D-06 0.000000000000D+00 0.000000000000D+00 0.126725467396D-04 0.000000000000D+00  6 -1 1 25 23 1 -1 4 0.16385978D-01 0.35596645D-01 0.20013802D+05 0.20013802D+05 0.20013802D+05 0.12337931D+01  1  2 12  6  6  5       21 0.481636156680D-03 0.100000000000D+01
0.727236891549D-06 0.000000000000D+00 0.000000000000D+00 0.126725467396D-04 0.000000000000D+00  6 -1 1 25 23 2 -2 4 0.16385978D-01 0.35596645D-01 0.20013802D+05 0.20013802D+05 0.20013802D+05 0.12337931D+01  1  2 12  7  6  5       21 0.554180428957D-03 0.100000000000D+01
0.727236891549D-06 0.000000000000D+00 0.000000000000D+00 0.126725467396D-04 0.000000000000D+00  6 -1 1 25 23 4 -4 4 0.16385978D-01 0.35596645D-01 0.20013802D+05 0.20013802D+05 0.20013802D+05 0.12337931D+01  1  2 12  7  6  5       21 0.554180428957D-03 0.100000000000D+01
0.632038886868D-06 0.000000000000D+00 0.000000000000D+00 0.126725467396D-04 0.000000000000D+00  6 -1 1 25 23 2 -2 4 0.16385978D-01 0.35596645D-01 0.20013802D+05 0.20013802D+05 0.20013802D+05 0.12337931D+01  1  2 12  7  6  5       21 0.481636156680D-03 0.100000000000D+01
0.632038886868D-06 0.000000000000D+00 0.000000000000D+00 0.126725467396D-04 0.000000000000D+00  6 -1 1 25 23 4 -4 4 0.16385978D-01 0.35596645D-01 0.20013802D+05 0.20013802D+05 0.20013802D+05 0.12337931D+01  1  2 12  7  6  5       21 0.481636156680D-03 0.100000000000D+01
0.727236891549D-06 0.000000000000D+00 0.000000000000D+00 0.126725467396D-04 0.000000000000D+00  6 -1 1 25 23 3 -3 4 0.16385978D-01 0.35596645D-01 0.20013802D+05 0.20013802D+05 0.20013802D+05 0.12337931D+01  1  2 12  8  6  5       21 0.554180428957D-03 0.100000000000D+01
0.632038886868D-06 0.000000000000D+00 0.000000000000D+00 0.126725467396D-04 0.000000000000D+00  6 -1 1 25 23 3 -3 4 0.16385978D-01 0.35596645D-01 0.20013802D+05 0.20013802D+05 0.20013802D+05 0.12337931D+01  1  2 12  8  6  5       21 0.481636156680D-03 0.100000000000D+01
  </mgrwgt>
  </event>
  <event>
  5     66 0.47607883E-03 0.80195066E+02 0.75467711E-02 0.10511930E+00
       -3 -1    0    0    0  501 0.00000000E+00 0.00000000E+00 0.30653765E+03 0.30653806E+03 0.50000000E+00 0.0000E+00 0.9000E+01
        3 -1    0    0  502    0 -.00000000E+00 -.00000000E+00 -.59797908E+03 0.59797929E+03 0.50000000E+00 0.0000E+00 0.9000E+01
       25  1    1    2    0    0 -.77410725E+01 -.28139563E+03 -.26564573E+03 0.40673834E+03 0.12500000E+03 0.0000E+00 0.9000E+01
       23  1    1    2    0    0 0.25350329E+02 0.35963130E+03 0.64044592E+02 0.37735165E+03 0.91188000E+02 0.0000E+00 0.9000E+01
       21  1    1    2  502  501 -.17609256E+02 -.78235664E+02 -.89840296E+02 0.12042735E+03 0.75000000E+00 0.0000E+00 0.9000E+01
#aMCatNLO 1  0  0  5  1 0.29970878D+02 0.00000000D+00  -5  6  0 0.00000000D+00 0.00000000D+00 0.00000000D+00 0.00000000D+00 0.00000000D+00
  <mgrwgt>
 0.3089472172D-01   20    2    0
 0.428139439799671D+03 0.000000000000000D+00 0.000000000000000D+00 0.428139439799671D+03
 0.428139439799671D+03 -.000000000000000D+00 -.000000000000000D+00 -.428139439799671D+03
 0.339236227957394D+03 -.774086234678709D+01 -.281394700109924D+03 -.142173556468618D+03
 0.420409228264611D+03 0.253505891552567D+02 0.359632454221009D+03 0.196088024536180D+03
 0.966334233773375D+02 -.176097268084696D+02 -.782377541110849D+02 -.539144680675626D+02
 0.000000000000000D+00 0.000000000000000D+00 0.000000000000000D+00 -.000000000000000D+00
 0.428139439799671D+03 0.000000000000000D+00 0.000000000000000D+00 0.428139439799671D+03
 0.428139439799671D+03 -.000000000000000D+00 -.000000000000000D+00 -.428139439799671D+03
 0.346859699421979D+03 -.926473192892625D+01 -.288165056911111D+03 -.146839081312868D+03
 0.410655567597080D+03 0.235047330400081D+02 0.351431552614755D+03 0.190436696059295D+03
 0.541817122619913D+02 0.104820644059462D+02 -.525400226903707D+02 -.808271520753649D+01
 0.445819003182929D+02 -.247220655170281D+02 -.107264730132742D+02 -.355148995388903D+02
0.980746792916D-02 0.000000000000D+00 0.000000000000D+00 0.110830842616D-05 0.000000000000D+00  6 -3 3 25 23 21 21 2 0.47159686D-01 0.91996829D-01 0.14443025D+06 0.14443025D+06 0.14443025D+06 0.11491840D+01  1  2  2  3  6  5       21 0.159315938876D-01 0.100000000000D+01
0.110163708477D-02 0.517554301623D-03 -.376632592136D-04 0.110830842616D-05 0.000000000000D+00  6 -3 3 25 23 21 21 4 0.47159686D-01 0.91996829D-01 0.14443025D+06 0.14443025D+06 0.14443025D+06 0.11491840D+01  1  2  3  3  6  5       21 0.236330621572D-02 0.100000000000D+01
0.211757259110D-03 0.000000000000D+00 0.000000000000D+00 0.110830842616D-05 0.000000000000D+00  6 -3 3 25 23 21 21 4 0.47159686D-01 0.91996829D-01 0.14443025D+06 0.14443025D+06 0.14443025D+06 0.11491840D+01  1  2 15  3  6  5       21 0.454275962200D-03 0.100000000000D+01
0.390514521953D-02 0.000000000000D+00 0.000000000000D+00 0.110859736549D-05 0.000000000000D+00  6 -3 3 25 23 21 21 4 0.47159686D-01 0.91996829D-01 0.14386800D+06 0.14386800D+06 0.14386800D+06 0.11493338D+01  1  2 12  3  6  5       21 0.838150307866D-02 0.100000000000D+01
0.358434454814D-02 0.000000000000D+00 0.000000000000D+00 0.110859736549D-05 0.000000000000D+00  6 -3 3 25 23 21 21 4 0.47159686D-01 0.91996829D-01 0.14386800D+06 0.14386800D+06 0.14386800D+06 0.11493338D+01  1  2 12  3  6  5       21 0.769297764268D-02 0.100000000000D+01
-.945492659489D-02 0.000000000000D+00 0.000000000000D+00 0.110830842616D-05 0.000000000000D+00  6 -3 3 25 23 21 21 4 0.47159686D-01 0.91996829D-01 0.14443025D+06 0.14443025D+06 0.14443025D+06 0.11491840D+01  1  2  4  3  6  5       21 -.202833465756D-01 0.100000000000D+01
-.591072748544D-02 0.000000000000D+00 0.000000000000D+00 0.110830842616D-05 0.000000000000D+00  6 -3 3 25 23 21 21 4 0.47159686D-01 0.91996829D-01 0.14443025D+06 0.14443025D+06 0.14443025D+06 0.11491840D+01  1  2  5  3  6  5       21 -.126800914738D-01 0.100000000000D+01
0.134275131485D-01 0.000000000000D+00 -.000000000000D+00 0.110830842616D-05 0.000000000000D+00  6 -3 3 25 23 21 21 4 0.47159686D-01 0.91996829D-01 0.14443025D+06 0.14443025D+06 0.14443025D+06 0.11491840D+01  1  2  6  3  6  5       21 0.288056073314D-01 0.100000000000D+01
0.119724701511D-03 0.000000000000D+00 0.000000000000D+00 0.110859736549D-05 0.000000000000D+00  6 -3 3 25 23 3 -3 4 0.47159686D-01 0.91996829D-01 0.14386800D+06 0.14386800D+06 0.14386800D+06 0.11493338D+01  1  2 12  6  6  5       21 0.256961751202D-03 0.100000000000D+01
0.110053158336D-03 0.000000000000D+00 0.000000000000D+00 0.110859736549D-05 0.000000000000D+00  6 -3 3 25 23 3 -3 4 0.47159686D-01 0.91996829D-01 0.14386800D+06 0.14386800D+06 0.14386800D+06 0.11493338D+01  1  2 12  6  6  5       21 0.236203990776D-03 0.100000000000D+01
-.203210943233D-03 0.000000000000D+00 0.000000000000D+00 0.110830842616D-05 0.000000000000D+00  6 -3 3 25 23 3 -3 4 0.47159686D-01 0.91996829D-01 0.14443025D+06 0.14443025D+06 0.14443025D+06 0.11491840D+01  1  2  5  6  6  5       21 -.435941828653D-03 0.100000000000D+01
0.119724701511D-03 0.000000000000D+00 0.000000000000D+00 0.110859736549D-05 0.000000000000D+00  6 -3 3 25 23 2 -2 4 0.47159686D-01 0.91996829D-01 0.14386800D+06 0.14386800D+06 0.14386800D+06 0.11493338D+01  1  2 12  7  6  5       21 0.256961751202D-03 0.100000000000D+01
0.119724701511D-03 0.000000000000D+00 0.000000000000D+00 0.110859736549D-05 0.000000000000D+00  6 -3 3 25 23 4 -4 4 0.47159686D-01 0.91996829D-01 0.14386800D+06 0.14386800D+06 0.14386800D+06 0.11493338D+01  1  2 12  7  6  5       21 0.256961751202D-03 0.100000000000D+01
0.110053158336D-03 0.000000000000D+00 0.000000000000D+00 0.110859736549D-05 0.000000000000D+00  6 -3 3 25 23 2 -2 4 0.47159686D-01 0.91996829D-01 0.14386800D+06 0.14386800D+06 0.14386800D+06 0.11493338D+01  1  2 12  7  6  5       21 0.236203990776D-03 0.100000000000D+01
0.110053158336D-03 0.000000000000D+00 0.000000000000D+00 0.110859736549D-05 0.000000000000D+00  6 -3 3 25 23 4 -4 4 0.47159686D-01 0.91996829D-01 0.14386800D+06 0.14386800D+06 0.14386800D+06 0.11493338D+01  1  2 12  7  6  5       21 0.236203990776D-03 0.100000000000D+01
-.203210943233D-03 0.000000000000D+00 0.000000000000D+00 0.110830842616D-05 0.000000000000D+00  6 -3 3 25 23 2 -2 4 0.47159686D-01 0.91996829D-01 0.14443025D+06 0.14443025D+06 0.14443025D+06 0.11491840D+01  1  2  5  7  6  5       21 -.435941828653D-03 0.100000000000D+01
-.203210943233D-03 0.000000000000D+00 0.000000000000D+00 0.110830842616D-05 0.000000000000D+00  6 -3 3 25 23 4 -4 4 0.47159686D-01 0.91996829D-01 0.14443025D+06 0.14443025D+06 0.14443025D+06 0.11491840D+01  1  2  5  7  6  5       21 -.435941828653D-03 0.100000000000D+01
0.119724701511D-03 0.000000000000D+00 0.000000000000D+00 0.110859736549D-05 0.000000000000D+00  6 -3 3 25 23 1 -1 4 0.47159686D-01 0.91996829D-01 0.14386800D+06 0.14386800D+06 0.14386800D+06 0.11493338D+01  1  2 12  8  6  5       21 0.256961751202D-03 0.100000000000D+01
0.110053158336D-03 0.000000000000D+00 0.000000000000D+00 0.110859736549D-05 0.000000000000D+00  6 -3 3 25 23 1 -1 4 0.47159686D-01 0.91996829D-01 0.14386800D+06 0.14386800D+06 0.14386800D+06 0.11493338D+01  1  2 12  8  6  5       21 0.236203990776D-03 0.100000000000D+01
-.203210943233D-03 0.000000000000D+00 0.000000000000D+00 0.110830842616D-05 0.000000000000D+00  6 -3 3 25 23 1 -1 4 0.47159686D-01 0.91996829D-01 0.14443025D+06 0.14443025D+06 0.14443025D+06 0.11491840D+01  1  2  5  8  6  5       21 -.435941828653D-03 0.100000000000D+01
  </mgrwgt>
  </event>
  <event>
  5     66 0.47607883E-03 0.70731928E+02 0.75467711E-02 0.11599280E+00
       -1 -1    0    0    0  501 0.00000000E+00 0.00000000E+00 0.40914124E+03 0.40914136E+03 0.32000000E+00 0.0000E+00 0.9000E+01
        1 -1    0    0  502    0 0.00000000E+00 0.00000000E+00 -.25906887E+03 0.25906906E+03 0.32000000E+00 0.0000E+00 0.9000E+01
       25  1    1    2    0    0 0.59237642E+02 0.93518042E+02 0.20046040E+03 0.26089096E+03 0.12500000E+03 0.0000E+00 0.9000E+01
       23  1    1    2    0    0 0.29170033E+02 -.27990160E+02 -.19888130E+03 0.22249351E+03 0.91188000E+02 0.0000E+00 0.9000E+01
       21  1    1    2  502  501 -.88407675E+02 -.65527882E+02 0.14849327E+03 0.18482595E+03 0.75000000E+00 0.0000E+00 0.9000E+01
#aMCatNLO 1  0  0  5  1 0.29970878D+02 0.00000000D+00  -5  6  0 0.00000000D+00 0.00000000D+00 0.00000000D+00 0.00000000D+00 0.00000000D+00
  <mgrwgt>
 0.5886401646D-02    1    2    0
 0.325570059964868D+03 0.000000000000000D+00 0.000000000000000D+00 0.325570059964868D+03
 0.325570059964868D+03 -.000000000000000D+00 -.000000000000000D+00 -.325570059964868D+03
 0.221529031003881D+03 0.592379919620147D+02 0.935183012583953D+02 0.145586054330662D+03
 0.274164345411172D+03 0.291704660885864D+02 -.279898387880912D+02 -.255375194142907D+03
 0.155446743514683D+03 -.884084580506012D+02 -.655284624703041D+02 0.109789139812245D+03
 0.000000000000000D+00 0.000000000000000D+00 0.000000000000000D+00 -.000000000000000D+00
 0.325570059964868D+03 0.000000000000000D+00 0.000000000000000D+00 0.325570059964868D+03
 0.325570059964868D+03 -.000000000000000D+00 -.000000000000000D+00 -.325570059964868D+03
 0.222667998257134D+03 0.549418576251874D+02 0.903340009791500D+02 0.150921164836584D+03
 0.268023722117726D+03 0.239265931662391D+02 -.318766041221772D+02 -.248863144163484D+03
 0.141184657029582D+03 -.639064223002410D+02 -.669306508341151D+02 0.106627222360266D+03
 0.192637425252944D+02 -.149620284911855D+02 0.847325397714230D+01 -.868524303336585D+01
0.978349987491D-04 0.000000000000D+00 0.000000000000D+00 0.407983533758D-06 0.000000000000D+00  6 -1 1 25 23 21 21 4 0.62944830D-01 0.39856773D-01 0.35488111D+05 0.35488111D+05 0.35488111D+05 0.12073146D+01  1  2 14  3  6  5       21 0.588640164618D-02 0.100000000000D+01
  </mgrwgt>
  </event>
  <event>
  5     66 0.47607883E-03 0.68696569E+02 0.75467711E-02 0.11105942E+00
       -1 -1    0    0    0  501 0.00000000E+00 0.00000000E+00 0.24458543E+02 0.24460636E+02 0.32000000E+00 0.0000E+00 0.9000E+01
        1 -1    0    0  502    0 0.00000000E+00 0.00000000E+00 -.26765305E+04 0.26765305E+04 0.32000000E+00 0.0000E+00 0.9000E+01
       25  1    1    2    0    0 0.15394394E+03 -.13695202E+03 -.15127709E+04 0.15318470E+04 0.12500000E+03 0.0000E+00 0.9000E+01
       23  1    1    2    0    0 -.15099939E+03 0.68321362E+02 -.92339816E+03 0.94257522E+03 0.91188000E+02 0.0000E+00 0.9000E+01
       21  1    1    2  502  501 -.29445501E+01 0.68630658E+02 -.21590290E+03 0.22656889E+03 0.75000000E+00 0.0000E+00 0.9000E+01
#aMCatNLO 1  0  0  2  5 0.97657402D+01 0.00000000D+00  -5  6  0 0.00000000D+00 0.00000000D+00 0.00000000D+00 0.00000000D+00 0.00000000D+00
  <mgrwgt>
 0.5500618245D-01   11    4    0
 0.255864979160869D+03 0.000000000000000D+00 0.000000000000000D+00 0.255864979160869D+03
 0.255864979160869D+03 0.000000000000000D+00 0.000000000000000D+00 -.255864979160869D+03
 0.245302418457984D+03 0.153944005454122D+03 -.136953582673309D+03 -.457518948134626D+02
 0.189491918970569D+03 -.150999336463183D+03 0.683201540101448D+02 0.111127384049718D+02
 0.769356208931843D+02 -.294466899093910D+01 0.686334286631644D+02 0.346391564084909D+02
 0.000000000000000D+00 -.000000000000000D+00 0.000000000000000D+00 -.000000000000000D+00
 0.257341960571588D+03 0.000000000000000D+00 0.000000000000000D+00 0.257341960571588D+03
 0.272579997054787D+03 0.000000000000000D+00 0.000000000000000D+00 -.272579997054787D+03
 0.249279177960709D+03 0.157454598643223D+03 -.140106823716213D+03 -.457518948134626D+02
 0.186511367742667D+03 -.148330424827624D+03 0.659229176299071D+02 0.111127384049718D+02
 0.760325877372784D+02 -.185888424832920D+01 0.676581686914918D+02 0.346391564084909D+02
 0.180988241857217D+02 -.726528956726948D+01 0.652573739481436D+01 -.152380364831993D+02
 0.255864979160869D+03 0.000000000000000D+00 0.000000000000000D+00 0.255864979160869D+03
 0.255864979160869D+03 0.000000000000000D+00 0.000000000000000D+00 -.255864979160869D+03
 0.245302418457984D+03 0.153944005454122D+03 -.136953582673309D+03 -.457518948134626D+02
 0.189491918970569D+03 -.150999336463183D+03 0.683201540101448D+02 0.111127384049718D+02
 0.000000000000000D+00 -.000000000000000D+00 0.000000000000000D+00 -.000000000000000D+00
 0.769356208931843D+02 -.294466899093910D+01 0.686334286631644D+02 0.346391564084909D+02
 0.257341960571588D+03 0.000000000000000D+00 0.000000000000000D+00 0.257341960571588D+03
 0.272579997054787D+03 0.000000000000000D+00 0.000000000000000D+00 -.272579997054787D+03
 0.249279177960709D+03 0.157454598643223D+03 -.140106823716213D+03 -.457518948134626D+02
 0.186511367742667D+03 -.148330424827624D+03 0.659229176299071D+02 0.111127384049718D+02
 0.180988241857217D+02 -.726528956726948D+01 0.652573739481436D+01 -.152380364831993D+02
 0.760325877372784D+02 -.185888424832920D+01 0.676581686914918D+02 0.346391564084909D+02
0.353278005716D-03 0.000000000000D+00 0.000000000000D+00 0.228117499084D-05 0.000000000000D+00  6 -1 1 25 23 21 21 2 0.37630152D-02 0.41177408D+00 0.62215416D+05 0.62215416D+05 0.62215416D+05 0.11829934D+01  1  2  2  2  6  2        1 0.161496068702D-01 0.100000000000D+01
0.210001887205D-04 0.186429925490D-04 -.135668056219D-05 0.228117499084D-05 0.000000000000D+00  6 -1 1 25 23 21 21 4 0.37630152D-02 0.41177408D+00 0.62215416D+05 0.62215416D+05 0.62215416D+05 0.11829934D+01  1  2  3  2  6  2        1 0.134348604519D-02 0.100000000000D+01
-.310522722452D-06 0.000000000000D+00 0.000000000000D+00 0.228117499084D-05 0.000000000000D+00  6 -1 1 25 23 21 21 4 0.37630152D-02 0.41177408D+00 0.62215416D+05 0.62215416D+05 0.62215416D+05 0.11829934D+01  1  2 15  2  6  2        1 -.198656759652D-04 0.100000000000D+01
0.384783652224D-02 0.000000000000D+00 0.000000000000D+00 0.227488394427D-05 0.000000000000D+00  6 -1 1 25 23 21 21 4 0.37630152D-02 0.44414790D+00 0.64687332D+05 0.64687332D+05 0.64687332D+05 0.11813610D+01  1  2 12  2  6  2        1 0.175754660614D+00 0.100000000000D+01
-.454077003980D-02 0.000000000000D+00 0.000000000000D+00 0.228117499084D-05 0.000000000000D+00  6 -1 1 25 23 21 21 4 0.37630152D-02 0.41177408D+00 0.62215416D+05 0.62215416D+05 0.62215416D+05 0.11829934D+01  1  2  4  2  6  2        1 -.290495540973D+00 0.100000000000D+01
-.961467052788D-02 0.000000000000D+00 -.896609162422D-03 0.228117499084D-05 0.000000000000D+00  6 -1 1 25 23 21 21 4 0.37630152D-02 0.43939448D+00 0.62215416D+05 0.62215416D+05 0.62215416D+05 0.11829934D+01  1  2  5  2  6  2        1 -.464325812974D+00 0.100000000000D+01
0.965441348605D-02 0.000000000000D+00 0.894722888076D-03 0.228117499084D-05 0.000000000000D+00  6 -1 1 25 23 21 21 4 0.37630152D-02 0.41177408D+00 0.62215416D+05 0.62215416D+05 0.62215416D+05 0.11829934D+01  1  2  6  2  6  2        1 0.617640630074D+00 0.100000000000D+01
0.210361729641D-08 0.000000000000D+00 0.000000000000D+00 0.228117499084D-05 0.112856053625D-06  6 -1 1 25 23 21 21 4 0.37847372D-02 0.43867425D+00 0.64687332D+05 0.64687332D+05 0.64687332D+05 0.11813610D+01  1  2 11  2  6  2        1 0.100790652103D-06 0.100000000000D+01
0.610982948649D-04 0.000000000000D+00 0.000000000000D+00 0.227488394427D-05 0.000000000000D+00  6 -1 21 25 23 -1 21 4 0.37630152D-02 0.44414790D+00 0.64687332D+05 0.64687332D+05 0.64687332D+05 0.11813610D+01  3  4 12  5  5  2        1 0.119780599853D-02 0.100000000000D+01
-.105146278776D-03 0.000000000000D+00 -.992702719411D-05 0.228117499084D-05 0.000000000000D+00  6 -1 21 25 23 -1 21 4 0.37630152D-02 0.43939448D+00 0.62215416D+05 0.62215416D+05 0.62215416D+05 0.11829934D+01  3  4  5  5  5  2        1 -.223888872011D-02 0.100000000000D+01
0.188882724790D-10 0.000000000000D+00 0.000000000000D+00 0.228117499084D-05 0.198825407095D-08  6 -1 21 25 23 -1 21 4 0.37847372D-02 0.43867425D+00 0.64687332D+05 0.64687332D+05 0.64687332D+05 0.11813610D+01  3  4 11  5  5  2        1 0.399025565960D-09 0.100000000000D+01
  </mgrwgt>
  </event>
  <event>
  6     66 0.47607883E-03 0.22196559E+02 0.75467711E-02 0.11843515E+00
       21 -1    0    0  503  501 0.00000000E+00 0.00000000E+00 0.18852662E+04 0.18852663E+04 0.75000000E+00 0.0000E+00 0.9000E+01
        1 -1    0    0  502    0 0.00000000E+00 0.00000000E+00 -.14671455E+02 0.14674945E+02 0.32000000E+00 0.0000E+00 0.9000E+01
       25  1    1    2    0    0 -.47513192E+02 0.10104456E+03 0.83977887E+03 0.85634167E+03 0.12500000E+03 0.0000E+00 0.9000E+01
       23  1    1    2    0    0 0.31122929E+02 -.82946476E+02 0.76748883E+03 0.77794801E+03 0.91188000E+02 0.0000E+00 0.9000E+01
        1  1    1    2  503    0 0.51275925E+01 0.51275639E+01 0.10327359E+03 0.10352836E+03 0.32000000E+00 0.0000E+00 0.9000E+01
       21  1    1    2  502  501 0.11262670E+02 -.23225643E+02 0.16005344E+03 0.16212324E+03 0.75000000E+00 0.0000E+00 0.9000E+01
#aMCatNLO 2  0  0  1  1 0.72514907D+01 0.00000000D+00  -5  6  0 0.00000000D+00 0.00000000D+00 0.00000000D+00 0.00000000D+00 0.00000000D+00
  <mgrwgt>
 0.1623316329D-01    1    2    0
 0.160952467025317D+03 0.000000000000000D+00 0.000000000000000D+00 0.160952467025317D+03
 0.160952467025317D+03 0.000000000000000D+00 0.000000000000000D+00 -.160952467025317D+03
 0.169180427801192D+03 -.448284557491779D+02 0.103736925157187D+03 -.150358593060159D+02
 0.126900639286538D+03 0.331484810619695D+02 -.809151979064874D+02 0.119343981151266D+02
 0.000000000000000D+00 0.000000000000000D+00 0.000000000000000D+00 0.000000000000000D+00
 0.258238669629039D+02 0.116799746872084D+02 -.228217272506999D+02 0.310146119088927D+01
 0.170333189920480D+03 0.000000000000000D+00 0.000000000000000D+00 0.170333189920480D+03
 0.162400814469619D+03 0.000000000000000D+00 0.000000000000000D+00 -.162400814469619D+03
 0.168285010167796D+03 -.475158420134695D+02 0.101049553882517D+03 -.150358593060159D+02
 0.127693697738739D+03 0.311210339598131D+02 -.829426337000109D+02 0.119343981151266D+02
 0.107474042286880D+02 0.512759254740066D+01 0.512756394687073D+01 0.793237545086041D+01
 0.260078922548767D+02 0.112672155062557D+02 -.232344841293770D+02 0.310146119088927D+01
0.346691735183D-04 0.000000000000D+00 0.000000000000D+00 0.211692196412D-04 0.346036316452D-07  6 21 1 25 23 1 21 4 0.29003701D+00 0.22573940D-02 0.26866574D+05 0.26866574D+05 0.26866574D+05 0.12199590D+01  1  2  1  4  5  1       -1 0.162331632855D-01 0.100000000000D+01
  </mgrwgt>
  </event>
  <event>
  5     66 -.47607883E-03 0.22148046E+02 0.75467711E-02 0.11729875E+00
       -3 -1    0    0    0  501 0.00000000E+00 0.00000000E+00 0.77358028E+02 0.77359644E+02 0.50000000E+00 0.0000E+00 0.9000E+01
        3 -1    0    0  502    0 0.00000000E+00 0.00000000E+00 -.51129561E+03 0.51129586E+03 0.50000000E+00 0.0000E+00 0.9000E+01
       25  1    1    2    0    0 -.77038915E+02 0.58560082E+02 -.39550063E+03 0.42592256E+03 0.12500000E+03 0.0000E+00 0.9000E+01
       23  1    1    2    0    0 0.55679431E+02 -.64411077E+02 -.53702937E+02 0.13582431E+03 0.91188000E+02 0.0000E+00 0.9000E+01
       21  1    1    2  502  501 0.21359484E+02 0.58509953E+01 0.15265985E+02 0.26908633E+02 0.75000000E+00 0.0000E+00 0.9000E+01
#aMCatNLO 1  0  0  2  2 0.43219933D+02 0.00000000D+00  -5  6  0 0.00000000D+00 0.00000000D+00 0.00000000D+00 0.00000000D+00 0.00000000D+00
  <mgrwgt>
 -.1090657271D-01    7    4    0
 0.198880285679761D+03 0.000000000000000D+00 0.000000000000000D+00 0.198880285679761D+03
 0.198880285679761D+03 0.000000000000000D+00 0.000000000000000D+00 -.198880285679761D+03
 0.198862689959791D+03 -.770398570931167D+02 0.585598237834932D+02 -.120652297597528D+03
 0.142421399160826D+03 0.556787566663198D+02 -.644112618435268D+02 0.686998471522664D+02
 0.564764822389057D+02 0.213611004267968D+02 0.585143806003358D+01 0.519524504452612D+02
 0.000000000000000D+00 0.000000000000000D+00 0.000000000000000D+00 -.000000000000000D+00
 0.207916454285303D+03 0.000000000000000D+00 0.000000000000000D+00 0.207916454285303D+03
 0.259422431278039D+03 0.000000000000000D+00 0.000000000000000D+00 -.259422431278039D+03
 0.194544951521835D+03 -.791845707351606D+02 0.373572617379676D+02 -.120652297597528D+03
 0.149614097145547D+03 0.540866866431487D+02 -.801504089190950D+02 0.686998471522664D+02
 0.559427318329466D+02 0.207482322548932D+02 -.207354678436896D+00 0.519524504452612D+02
 0.672371050630143D+02 0.434965183711869D+01 0.430005018595643D+02 -.515059769927364D+02
 0.198880285679761D+03 0.000000000000000D+00 0.000000000000000D+00 0.198880285679761D+03
 0.198880285679761D+03 0.000000000000000D+00 0.000000000000000D+00 -.198880285679761D+03
 0.198862689959791D+03 -.770398570931167D+02 0.585598237834932D+02 -.120652297597528D+03
 0.142421399160826D+03 0.556787566663198D+02 -.644112618435268D+02 0.686998471522664D+02
 0.000000000000000D+00 0.000000000000000D+00 0.000000000000000D+00 -.000000000000000D+00
 0.564764822389057D+02 0.213611004267968D+02 0.585143806003358D+01 0.519524504452612D+02
 0.207916454285303D+03 0.000000000000000D+00 0.000000000000000D+00 0.207916454285303D+03
 0.259422431278039D+03 0.000000000000000D+00 0.000000000000000D+00 -.259422431278039D+03
 0.194544951521835D+03 -.791845707351606D+02 0.373572617379676D+02 -.120652297597528D+03
 0.149614097145547D+03 0.540866866431487D+02 -.801504089190950D+02 0.686998471522664D+02
 0.672371050630143D+02 0.434965183711869D+01 0.430005018595643D+02 -.515059769927364D+02
 0.559427318329466D+02 0.207482322548932D+02 -.207354678436896D+00 0.519524504452612D+02
0.232016330026D-03 0.000000000000D+00 0.000000000000D+00 0.204040558502D-04 0.000000000000D+00  6 -3 3 25 23 21 21 2 0.11901378D-01 0.78661007D-01 0.23253946D+05 0.23253946D+05 0.23253946D+05 0.12266832D+01  1  2  2  2  6  2        3 0.706102014260D-02 0.100000000000D+01
0.343806599840D-04 0.122438381159D-04 -.891003798601D-06 0.204040558502D-04 0.000000000000D+00  6 -3 3 25 23 21 21 4 0.11901378D-01 0.78661007D-01 0.23253946D+05 0.23253946D+05 0.23253946D+05 0.12266832D+01  1  2  3  2  6  2        3 0.157444659267D-02 0.100000000000D+01
0.566079939526D-05 0.000000000000D+00 0.000000000000D+00 0.204040558502D-04 0.000000000000D+00  6 -3 3 25 23 21 21 4 0.11901378D-01 0.78661007D-01 0.23253946D+05 0.23253946D+05 0.23253946D+05 0.12266832D+01  1  2 15  2  6  2        3 0.259233718137D-03 0.100000000000D+01
-.635070189590D-03 0.000000000000D+00 0.000000000000D+00 0.204040558502D-04 0.000000000000D+00  6 -3 3 25 23 21 21 4 0.11901378D-01 0.78661007D-01 0.23253946D+05 0.23253946D+05 0.23253946D+05 0.12266832D+01  1  2  4  2  6  2        3 -.290827487480D-01 0.100000000000D+01
-.112017024918D-02 0.000000000000D+00 -.237854968092D-03 0.204040558502D-04 0.000000000000D+00  6 -3 3 25 23 21 21 4 0.11901378D-01 0.10540530D+00 0.23253946D+05 0.23253946D+05 0.23253946D+05 0.12266832D+01  1  2  5  2  6  2        3 -.267069571075D-01 0.100000000000D+01
0.115001373481D-02 0.000000000000D+00 0.228019778812D-03 0.204040558502D-04 0.000000000000D+00  6 -3 3 25 23 21 21 4 0.11901378D-01 0.78661007D-01 0.23253946D+05 0.23253946D+05 0.23253946D+05 0.12266832D+01  1  2  6  2  6  2        3 0.526643527825D-01 0.100000000000D+01
-.374008853364D-04 0.000000000000D+00 -.903122107706D-05 0.204040558502D-04 0.000000000000D+00  6 -3 21 25 23 -3 21 4 0.11901378D-01 0.10540530D+00 0.23253946D+05 0.23253946D+05 0.23253946D+05 0.12266832D+01  3  4  5  5  5  2        3 -.166759200871D-01 0.100000000000D+01
  </mgrwgt>
  </event>
  <event>
  6     66 0.47607883E-03 0.25448173E+02 0.75467711E-02 0.12197835E+00
       21 -1    0    0  503  501 0.00000000E+00 0.00000000E+00 0.60185619E+03 0.60185666E+03 0.75000000E+00 0.0000E+00 0.9000E+01
        1 -1    0    0  502    0 0.00000000E+00 0.00000000E+00 -.51020974E+02 0.51021978E+02 0.32000000E+00 0.0000E+00 0.9000E+01
       25  1    1    2    0    0 -.24482782E+02 -.18048578E+02 0.16207925E+03 0.20692955E+03 0.12500000E+03 0.0000E+00 0.9000E+01
       23  1    1    2    0    0 0.48894443E+02 0.79908193E+01 0.70926073E+02 0.12569916E+03 0.91188000E+02 0.0000E+00 0.9000E+01
        1  1    1    2  503    0 -.23254281E+02 0.18469812E+02 0.27351425E+03 0.27512187E+03 0.32000000E+00 0.0000E+00 0.9000E+01
       21  1    1    2  502  501 -.11573808E+01 -.84120529E+01 0.44315642E+02 0.45128049E+02 0.75000000E+00 0.0000E+00 0.9000E+01
#aMCatNLO 2  0  0  1  5 0.16586676D+02 0.00000000D+00  -5  6  0 0.00000000D+00 0.00000000D+00 0.00000000D+00 0.00000000D+00 0.00000000D+00
  <mgrwgt>
 0.1164791577D-01    1    2    0
 0.127388539741984D+03 0.000000000000000D+00 0.000000000000000D+00 0.127388539741984D+03
 0.127388539741984D+03 0.000000000000000D+00 0.000000000000000D+00 -.127388539741984D+03
 0.131317507300286D+03 -.363449696781254D+02 -.862288213809002D+01 0.149658546795524D+02
 0.105290618719845D+03 0.391746518961998D+02 0.157140944500249D+02 -.314527730229803D+02
 0.000000000000000D+00 -.000000000000000D+00 0.000000000000000D+00 0.000000000000000D+00
 0.181689534638372D+02 -.282968221807434D+01 -.709121231193484D+01 0.164869183434279D+02
 0.235662428656538D+03 0.000000000000000D+00 0.000000000000000D+00 0.235662428656538D+03
 0.130303590920121D+03 0.000000000000000D+00 0.000000000000000D+00 -.130303590920121D+03
 0.129514338661387D+03 -.244816689676005D+02 -.180453594358171D+02 0.149658546795524D+02
 0.108439865045083D+03 0.488956619613660D+02 0.799314065436309D+01 -.314527730229803D+02
 0.109464059035116D+03 -.232542808430777D+02 0.184698119575166D+02 0.105358837736416D+03
 0.185477568350734D+02 -.115971215068768D+01 -.841759317606269D+01 0.164869183434279D+02
0.527625059639D-05 0.000000000000D+00 0.000000000000D+00 0.300780558029D-03 0.272464710396D-06  6 21 1 25 23 1 21 4 0.92593209D-01 0.78494799D-02 0.18308640D+05 0.18308640D+05 0.18308640D+05 0.12380732D+01  1  2  1  4  5  1       -1 0.116479157743D-01 0.100000000000D+01
  </mgrwgt>
  </event>
  <event>
  5     66 0.47607883E-03 0.27173103E+02 0.75467711E-02 0.11397917E+00
       -1 -1    0    0    0  501 0.00000000E+00 0.00000000E+00 0.89897892E+02 0.89898461E+02 0.32000000E+00 0.0000E+00 0.9000E+01
        1 -1    0    0  502    0 -.00000000E+00 -.00000000E+00 -.73914745E+03 0.73914752E+03 0.32000000E+00 0.0000E+00 0.9000E+01
       25  1    1    2    0    0 -.13374784E+03 0.12042331E+03 -.12121284E+03 0.25041527E+03 0.12500000E+03 0.0000E+00 0.9000E+01
       23  1    1    2    0    0 0.11121533E+03 -.10524541E+03 -.52088318E+03 0.55052700E+03 0.91188000E+02 0.0000E+00 0.9000E+01
       21  1    1    2  502  501 0.22532509E+02 -.15177898E+02 -.71535452E+01 0.28103705E+02 0.75000000E+00 0.0000E+00 0.9000E+01
#aMCatNLO 1  0  0  5  1 0.64186543D+01 0.00000000D+00  -5  6  0 0.00000000D+00 0.00000000D+00 0.00000000D+00 0.00000000D+00 0.00000000D+00
  <mgrwgt>
 0.1425806449D+00   20    2    0
 0.257775216185902D+03 0.000000000000000D+00 0.000000000000000D+00 0.257775216185902D+03
 0.257775216185902D+03 -.000000000000000D+00 -.000000000000000D+00 -.257775216185902D+03
 0.250041137326181D+03 -.133750184718187D+03 0.120424889773657D+03 0.120433817369641D+03
 0.229325547409359D+03 0.111213174040495D+03 -.105243958781795D+03 -.144327039775561D+03
 0.361837476362645D+02 0.225370106776919D+02 -.151809309918621D+02 0.238932224059208D+02
 0.000000000000000D+00 0.000000000000000D+00 0.000000000000000D+00 0.000000000000000D+00
 0.257775216185902D+03 0.000000000000000D+00 0.000000000000000D+00 0.257775216185902D+03
 0.257775216185902D+03 -.000000000000000D+00 -.000000000000000D+00 -.257775216185902D+03
 0.249795909093316D+03 -.133039787978516D+03 0.119946366510921D+03 0.121186963718114D+03
 0.229410634059327D+03 0.111865155901421D+03 -.105683133780654D+03 -.143635823543270D+03
 0.174170910901092D+02 0.611475888225902D+01 -.517043066134159D+01 0.154671080887557D+02
 0.189267981290529D+02 0.150598731948354D+02 -.909280206892581D+01 0.698175173640082D+01
0.601835916045D-03 0.000000000000D+00 0.000000000000D+00 0.102225860153D-04 0.000000000000D+00  6 -1 1 25 23 21 21 2 0.13830494D-01 0.11371504D+00 0.45052685D+05 0.45052685D+05 0.45052685D+05 0.11967892D+01  1  2  2  3  6  5       21 0.822270187863D-01 0.100000000000D+01
0.143881742659D-03 0.317597538396D-04 -.231120838465D-05 0.102225860153D-04 0.000000000000D+00  6 -1 1 25 23 21 21 4 0.13830494D-01 0.11371504D+00 0.45052685D+05 0.45052685D+05 0.45052685D+05 0.11967892D+01  1  2  3  3  6  5       21 0.281564227561D-01 0.100000000000D+01
0.543192614230D-05 0.000000000000D+00 0.000000000000D+00 0.102225860153D-04 0.000000000000D+00  6 -1 1 25 23 21 21 4 0.13830494D-01 0.11371504D+00 0.45052685D+05 0.45052685D+05 0.45052685D+05 0.11967892D+01  1  2 15  3  6  5       21 0.106298134854D-02 0.100000000000D+01
0.353132514134D-03 0.000000000000D+00 0.000000000000D+00 0.102282128235D-04 0.000000000000D+00  6 -1 1 25 23 21 21 4 0.13830494D-01 0.11371504D+00 0.44713147D+05 0.44713147D+05 0.44713147D+05 0.11971186D+01  1  2 12  3  6  5       21 0.691816481742D-01 0.100000000000D+01
0.360821336678D-03 0.000000000000D+00 0.000000000000D+00 0.102282128235D-04 0.000000000000D+00  6 -1 1 25 23 21 21 4 0.13830494D-01 0.11371504D+00 0.44713147D+05 0.44713147D+05 0.44713147D+05 0.11971186D+01  1  2 12  3  6  5       21 0.706879535831D-01 0.100000000000D+01
-.239904983608D-02 0.000000000000D+00 0.000000000000D+00 0.102225860153D-04 0.000000000000D+00  6 -1 1 25 23 21 21 4 0.13830494D-01 0.11371504D+00 0.45052685D+05 0.45052685D+05 0.45052685D+05 0.11967892D+01  1  2  4  3  6  5       21 -.469473472791D+00 0.100000000000D+01
-.947436038764D-03 0.000000000000D+00 0.000000000000D+00 0.102225860153D-04 0.000000000000D+00  6 -1 1 25 23 21 21 4 0.13830494D-01 0.11371504D+00 0.45052685D+05 0.45052685D+05 0.45052685D+05 0.11967892D+01  1  2  5  3  6  5       21 -.185405105253D+00 0.100000000000D+01
0.266814887022D-02 0.000000000000D+00 -.000000000000D+00 0.102225860153D-04 0.000000000000D+00  6 -1 1 25 23 21 21 4 0.13830494D-01 0.11371504D+00 0.45052685D+05 0.45052685D+05 0.45052685D+05 0.11967892D+01  1  2  6  3  6  5       21 0.522133845320D+00 0.100000000000D+01
0.161398394090D-04 0.000000000000D+00 0.000000000000D+00 0.102282128235D-04 0.000000000000D+00  6 -1 1 25 23 1 -1 4 0.13830494D-01 0.11371504D+00 0.44713147D+05 0.44713147D+05 0.44713147D+05 0.11971186D+01  1  2 12  6  6  5       21 0.316193113603D-02 0.100000000000D+01
0.164903518823D-04 0.000000000000D+00 0.000000000000D+00 0.102282128235D-04 0.000000000000D+00  6 -1 1 25 23 1 -1 4 0.13830494D-01 0.11371504D+00 0.44713147D+05 0.44713147D+05 0.44713147D+05 0.11971186D+01  1  2 12  6  6  5       21 0.323059949603D-02 0.100000000000D+01
-.199391666332D-05 0.000000000000D+00 0.000000000000D+00 0.102225860153D-04 0.000000000000D+00  6 -1 1 25 23 1 -1 4 0.13830494D-01 0.11371504D+00 0.45052685D+05 0.45052685D+05 0.45052685D+05 0.11967892D+01  1  2  5  6  6  5       21 -.390192386296D-03 0.100000000000D+01
0.161398394090D-04 0.000000000000D+00 0.000000000000D+00 0.102282128235D-04 0.000000000000D+00  6 -1 1 25 23 2 -2 4 0.13830494D-01 0.11371504D+00 0.44713147D+05 0.44713147D+05 0.44713147D+05 0.11971186D+01  1  2 12  7  6  5       21 0.316193113603D-02 0.100000000000D+01
0.161398394090D-04 0.000000000000D+00 0.000000000000D+00 0.102282128235D-04 0.000000000000D+00  6 -1 1 25 23 4 -4 4 0.13830494D-01 0.11371504D+00 0.44713147D+05 0.44713147D+05 0.44713147D+05 0.11971186D+01  1  2 12  7  6  5       21 0.316193113603D-02 0.100000000000D+01
0.164903518823D-04 0.000000000000D+00 0.000000000000D+00 0.102282128235D-04 0.000000000000D+00  6 -1 1 25 23 2 -2 4 0.13830494D-01 0.11371504D+00 0.44713147D+05 0.44713147D+05 0.44713147D+05 0.11971186D+01  1  2 12  7  6  5       21 0.323059949603D-02 0.100000000000D+01
0.164903518823D-04 0.000000000000D+00 0.000000000000D+00 0.102282128235D-04 0.000000000000D+00  6 -1 1 25 23 4 -4 4 0.13830494D-01 0.11371504D+00 0.44713147D+05 0.44713147D+05 0.44713147D+05 0.11971186D+01  1  2 12  7  6  5       21 0.323059949603D-02 0.100000000000D+01
-.199391666332D-05 0.000000000000D+00 0.000000000000D+00 0.102225860153D-04 0.000000000000D+00  6 -1 1 25 23 2 -2 4 0.13830494D-01 0.11371504D+00 0.45052685D+05 0.45052685D+05 0.45052685D+05 0.11967892D+01  1  2  5  7  6  5       21 -.390192386296D-03 0.100000000000D+01
-.199391666332D-05 0.000000000000D+00 0.000000000000D+00 0.102225860153D-04 0.000000000000D+00  6 -1 1 25 23 4 -4 4 0.13830494D-01 0.11371504D+00 0.45052685D+05 0.45052685D+05 0.45052685D+05 0.11967892D+01  1  2  5  7  6  5       21 -.390192386296D-03 0.100000000000D+01
0.161398394090D-04 0.000000000000D+00 0.000000000000D+00 0.102282128235D-04 0.000000000000D+00  6 -1 1 25 23 3 -3 4 0.13830494D-01 0.11371504D+00 0.44713147D+05 0.44713147D+05 0.44713147D+05 0.11971186D+01  1  2 12  8  6  5       21 0.316193113603D-02 0.100000000000D+01
0.164903518823D-04 0.000000000000D+00 0.000000000000D+00 0.102282128235D-04 0.000000000000D+00  6 -1 1 25 23 3 -3 4 0.13830494D-01 0.11371504D+00 0.44713147D+05 0.44713147D+05 0.44713147D+05 0.11971186D+01  1  2 12  8  6  5       21 0.323059949603D-02 0.100000000000D+01
-.199391666332D-05 0.000000000000D+00 0.000000000000D+00 0.102225860153D-04 0.000000000000D+00  6 -1 1 25 23 3 -3 4 0.13830494D-01 0.11371504D+00 0.45052685D+05 0.45052685D+05 0.45052685D+05 0.11967892D+01  1  2  5  8  6  5       21 -.390192386296D-03 0.100000000000D+01
  </mgrwgt>
  </event>
  <event>
  5     66 0.47607883E-03 0.23852088E+02 0.75467711E-02 0.11248570E+00
       -1 -1    0    0    0  501 0.00000000E+00 0.00000000E+00 0.31655707E+03 0.31655723E+03 0.32000000E+00 0.0000E+00 0.9000E+01
        1 -1    0    0  502    0 0.00000000E+00 0.00000000E+00 -.14142153E+03 0.14142189E+03 0.32000000E+00 0.0000E+00 0.9000E+01
       25  1    1    2    0    0 -.60343584E+02 -.12859674E+03 0.32314779E+02 0.19195759E+03 0.12500000E+03 0.0000E+00 0.9000E+01
       23  1    1    2    0    0 0.40718744E+02 0.14214664E+03 0.16035134E+03 0.23641380E+03 0.91188000E+02 0.0000E+00 0.9000E+01
       21  1    1    2  502  501 0.19624840E+02 -.13549900E+02 -.17530581E+02 0.29607734E+02 0.75000000E+00 0.0000E+00 0.9000E+01
#aMCatNLO 1  0  0  1  1 0.73956878D+02 0.00000000D+00  -5  6  0 0.00000000D+00 0.00000000D+00 0.00000000D+00 0.00000000D+00 0.00000000D+00
  <mgrwgt>
 0.1789661653D+00    7    4    0
 0.211584746503478D+03 0.000000000000000D+00 0.000000000000000D+00 0.211584746503478D+03
 0.211584746503478D+03 0.000000000000000D+00 0.000000000000000D+00 -.211584746503478D+03
 0.194373050929569D+03 -.603452259749810D+02 -.128595606004504D+03 -.444691662394490D+02
 0.189498547244006D+03 0.407171434186820D+02 0.142147745352212D+03 0.757005996455371D+02
 0.392978948333813D+02 0.196280825562991D+02 -.135521393477078D+02 -.312314334060881D+02
 0.000000000000000D+00 0.000000000000000D+00 0.000000000000000D+00 0.000000000000000D+00
 0.260626269895199D+03 0.000000000000000D+00 0.000000000000000D+00 0.260626269895199D+03
 0.244625321139269D+03 0.000000000000000D+00 0.000000000000000D+00 -.244625321139269D+03
 0.214048376682889D+03 -.941775393215861D+02 -.139085556050510D+03 -.444691662394490D+02
 0.178216719877193D+03 0.102567970742203D+02 0.132703297724173D+03 0.757005996455371D+02
 0.373184687333535D+02 0.132814301908243D+02 -.155199641781039D+02 -.312314334060881D+02
 0.756680257410316D+02 0.706393120565416D+02 0.219022225044411D+02 0.160009487559307D+02
 0.211584746503478D+03 0.000000000000000D+00 0.000000000000000D+00 0.211584746503478D+03
 0.211584746503478D+03 0.000000000000000D+00 0.000000000000000D+00 -.211584746503478D+03
 0.194373050929569D+03 -.603452259749810D+02 -.128595606004504D+03 -.444691662394490D+02
 0.189498547244006D+03 0.407171434186820D+02 0.142147745352212D+03 0.757005996455371D+02
 0.000000000000000D+00 0.000000000000000D+00 0.000000000000000D+00 0.000000000000000D+00
 0.392978948333813D+02 0.196280825562991D+02 -.135521393477078D+02 -.312314334060881D+02
 0.260626269895199D+03 0.000000000000000D+00 0.000000000000000D+00 0.260626269895199D+03
 0.244625321139269D+03 0.000000000000000D+00 0.000000000000000D+00 -.244625321139269D+03
 0.214048376682889D+03 -.941775393215861D+02 -.139085556050510D+03 -.444691662394490D+02
 0.178216719877193D+03 0.102567970742203D+02 0.132703297724173D+03 0.757005996455371D+02
 0.756680257410316D+02 0.706393120565416D+02 0.219022225044411D+02 0.160009487559307D+02
 0.373184687333535D+02 0.132814301908243D+02 -.155199641781039D+02 -.312314334060881D+02
0.552639473587D-03 0.000000000000D+00 0.000000000000D+00 0.187812688287D-04 0.000000000000D+00  6 -1 1 25 23 21 21 2 0.48701127D-01 0.21757199D-01 0.37401872D+05 0.37401872D+05 0.37401872D+05 0.12049734D+01  1  2  2  1  6  1       -1 0.789234983224D-01 0.100000000000D+01
0.127949837122D-03 0.291635862455D-04 -.212228109189D-05 0.187812688287D-04 0.000000000000D+00  6 -1 1 25 23 21 21 4 0.48701127D-01 0.21757199D-01 0.37401872D+05 0.37401872D+05 0.37401872D+05 0.12049734D+01  1  2  3  1  6  1       -1 0.265313354044D-01 0.100000000000D+01
0.109779844534D-04 0.000000000000D+00 0.000000000000D+00 0.187812688287D-04 0.000000000000D+00  6 -1 1 25 23 21 21 4 0.48701127D-01 0.21757199D-01 0.37401872D+05 0.37401872D+05 0.37401872D+05 0.12049734D+01  1  2 15  1  6  1       -1 0.227636544250D-02 0.100000000000D+01
-.831468264812D-04 0.000000000000D+00 0.000000000000D+00 0.187812688287D-04 0.000000000000D+00  6 -1 1 25 23 21 21 4 0.48701127D-01 0.21757199D-01 0.37401872D+05 0.37401872D+05 0.37401872D+05 0.12049734D+01  1  2  4  1  6  1       -1 -.172411031605D-01 0.100000000000D+01
-.103765937655D-02 0.000000000000D+00 -.419132604921D-03 0.187812688287D-04 0.000000000000D+00  6 -1 1 25 23 21 21 4 0.68045386D-01 0.21757199D-01 0.37401872D+05 0.37401872D+05 0.37401872D+05 0.12049734D+01  1  2  5  1  6  1       -1 -.113991969369D+00 0.100000000000D+01
0.113610339436D-02 0.000000000000D+00 0.396733270147D-03 0.187812688287D-04 0.000000000000D+00  6 -1 1 25 23 21 21 4 0.48701127D-01 0.21757199D-01 0.37401872D+05 0.37401872D+05 0.37401872D+05 0.12049734D+01  1  2  6  1  6  1       -1 0.235579355847D+00 0.100000000000D+01
-.322958174850D-04 0.000000000000D+00 -.175233109003D-04 0.187812688287D-04 0.000000000000D+00  6 21 1 25 23 1 21 4 0.68045386D-01 0.21757199D-01 0.37401872D+05 0.37401872D+05 0.37401872D+05 0.12049734D+01  3  4  5  4  5  1       -1 -.331113172210D-01 0.100000000000D+01
  </mgrwgt>
  </event>
  <event>
  5     66 -.47607883E-03 0.23336741E+02 0.75467711E-02 0.12397624E+00
       -1 -1    0    0    0  501 0.00000000E+00 0.00000000E+00 0.84048529E+01 0.84109424E+01 0.32000000E+00 0.0000E+00 0.9000E+01
        1 -1    0    0  502    0 -.00000000E+00 -.00000000E+00 -.21574299E+04 0.21574299E+04 0.32000000E+00 0.0000E+00 0.9000E+01
       25  1    1    2    0    0 -.14579519E+02 0.14355445E+02 -.68965975E+03 0.70119485E+03 0.12500000E+03 0.0000E+00 0.9000E+01
       23  1    1    2    0    0 0.22337386E+02 0.76432889E+01 -.13185045E+04 0.13218649E+04 0.91188000E+02 0.0000E+00 0.9000E+01
       21  1    1    2  502  501 -.77578665E+01 -.21998733E+02 -.14086075E+03 0.14278110E+03 0.75000000E+00 0.0000E+00 0.9000E+01
#aMCatNLO 1  0  0  5  1 0.45065184D+00 0.00000000D+00  -5  6  0 0.00000000D+00 0.00000000D+00 0.00000000D+00 0.00000000D+00 0.00000000D+00
  <mgrwgt>
 -.2111396641D+00   15    2    0
 0.134682964094492D+03 0.000000000000000D+00 0.000000000000000D+00 0.134682964094492D+03
 0.134682964094492D+03 -.000000000000000D+00 -.000000000000000D+00 -.134682964094492D+03
 0.135801581950960D+03 -.145776448508269D+02 0.143607597753216D+02 0.489727527270222D+02
 0.109331224571679D+03 0.223388947696832D+02 0.764756800620741D+01 -.555027369271324D+02
 0.242331216663446D+02 -.776124991885630D+01 -.220083277815290D+02 0.652998420011017D+01
 0.000000000000000D+00 0.000000000000000D+00 0.000000000000000D+00 0.000000000000000D+00
 0.134682964094492D+03 0.000000000000000D+00 0.000000000000000D+00 0.134682964094492D+03
 0.134682964094492D+03 -.000000000000000D+00 -.000000000000000D+00 -.134682964094492D+03
 0.135803611436651D+03 -.145958398090805D+02 0.143091649150344D+02 0.489880611877933D+02
 0.109319079053988D+03 0.223242472841289D+02 0.760603260061882D+01 -.554904131583785D+02
 0.232514179913005D+02 -.753133307028449D+01 -.212105109377700D+02 0.583281120467209D+01
 0.991819707044168D+00 -.197074404763859D+00 -.704686577883180D+00 0.669540765913057D+00
0.110328427435D-03 0.000000000000D+00 0.000000000000D+00 0.279290672186D-04 0.000000000000D+00  6 -1 1 25 23 21 21 2 0.12935245D-02 0.33191276D+00 0.14907918D+05 0.14907918D+05 0.14907918D+05 0.12481275D+01  1  2  2  3  6  5       21 0.589817120104D-01 0.100000000000D+01
0.177544888500D-04 0.582219107144D-05 -.423690211494D-06 0.279290672186D-04 0.000000000000D+00  6 -1 1 25 23 21 21 4 0.12935245D-02 0.33191276D+00 0.14907918D+05 0.14907918D+05 0.14907918D+05 0.12481275D+01  1  2  3  3  6  5       21 0.147861816347D-01 0.100000000000D+01
0.323040239680D-05 0.000000000000D+00 0.000000000000D+00 0.279290672186D-04 0.000000000000D+00  6 -1 1 25 23 21 21 4 0.12935245D-02 0.33191276D+00 0.14907918D+05 0.14907918D+05 0.14907918D+05 0.12481275D+01  1  2 15  3  6  5       21 0.269032338784D-02 0.100000000000D+01
-.124130994511D-01 0.000000000000D+00 0.000000000000D+00 0.279290672186D-04 0.000000000000D+00  6 -1 1 25 23 21 21 4 0.12935245D-02 0.33191276D+00 0.14907918D+05 0.14907918D+05 0.14907918D+05 0.12481275D+01  1  2  4  3  6  5       21 -.103377993410D+02 0.100000000000D+01
-.766542080069D-02 0.000000000000D+00 0.000000000000D+00 0.279290672186D-04 0.000000000000D+00  6 -1 1 25 23 21 21 4 0.12935245D-02 0.33191276D+00 0.14907918D+05 0.14907918D+05 0.14907918D+05 0.12481275D+01  1  2  5  3  6  5       21 -.638386749530D+01 0.100000000000D+01
0.829336404209D-02 0.000000000000D+00 -.000000000000D+00 0.279290672186D-04 0.000000000000D+00  6 -1 1 25 23 21 21 4 0.12935245D-02 0.33191276D+00 0.14907918D+05 0.14907918D+05 0.14907918D+05 0.12481275D+01  1  2  6  3  6  5       21 0.690682723253D+01 0.100000000000D+01
0.114364666017D-01 0.000000000000D+00 0.000000000000D+00 0.279290672186D-04 0.171153998593D-02  6 -1 1 25 23 21 21 4 0.12935245D-02 0.33191276D+00 0.14894774D+05 0.14894774D+05 0.14894774D+05 0.12481712D+01  1  2 11  3  6  5       21 0.952572578148D+01 0.100000000000D+01
-.229690010586D-04 0.000000000000D+00 0.000000000000D+00 0.279290672186D-04 0.000000000000D+00  6 -1 1 25 23 1 -1 4 0.12935245D-02 0.33191276D+00 0.14907918D+05 0.14907918D+05 0.14907918D+05 0.12481275D+01  1  2  5  6  6  5       21 -.191288988655D-01 0.100000000000D+01
0.227336139123D-04 0.000000000000D+00 0.000000000000D+00 0.279290672186D-04 0.678800418597D-05  6 -1 1 25 23 1 -1 4 0.12935245D-02 0.33191276D+00 0.14894774D+05 0.14894774D+05 0.14894774D+05 0.12481712D+01  1  2 11  6  6  5       21 0.189354089592D-01 0.100000000000D+01
-.229690010586D-04 0.000000000000D+00 0.000000000000D+00 0.279290672186D-04 0.000000000000D+00  6 -1 1 25 23 2 -2 4 0.12935245D-02 0.33191276D+00 0.14907918D+05 0.14907918D+05 0.14907918D+05 0.12481275D+01  1  2  5  7  6  5       21 -.191288988655D-01 0.100000000000D+01
-.229690010586D-04 0.000000000000D+00 0.000000000000D+00 0.279290672186D-04 0.000000000000D+00  6 -1 1 25 23 4 -4 4 0.12935245D-02 0.33191276D+00 0.14907918D+05 0.14907918D+05 0.14907918D+05 0.12481275D+01  1  2  5  7  6  5       21 -.191288988655D-01 0.100000000000D+01
0.236497366978D-04 0.000000000000D+00 0.000000000000D+00 0.279290672186D-04 0.695206877487D-05  6 -1 1 25 23 2 -2 4 0.12935245D-02 0.33191276D+00 0.14894774D+05 0.14894774D+05 0.14894774D+05 0.12481712D+01  1  2 11  7  6  5       21 0.196984710781D-01 0.100000000000D+01
0.236497366978D-04 0.000000000000D+00 0.000000000000D+00 0.279290672186D-04 0.695206877487D-05  6 -1 1 25 23 4 -4 4 0.12935245D-02 0.33191276D+00 0.14894774D+05 0.14894774D+05 0.14894774D+05 0.12481712D+01  1  2 11  7  6  5       21 0.196984710781D-01 0.100000000000D+01
-.229690010586D-04 0.000000000000D+00 0.000000000000D+00 0.279290672186D-04 0.000000000000D+00  6 -1 1 25 23 3 -3 4 0.12935245D-02 0.33191276D+00 0.14907918D+05 0.14907918D+05 0.14907918D+05 0.12481275D+01  1  2  5  8  6  5       21 -.191288988655D-01 0.100000000000D+01
0.236505944728D-04 0.000000000000D+00 0.000000000000D+00 0.279290672186D-04 0.695232092612D-05  6 -1 1 25 23 3 -3 4 0.12935245D-02 0.33191276D+00 0.14894774D+05 0.14894774D+05 0.14894774D+05 0.12481712D+01  1  2 11  8  6  5       21 0.196991855408D-01 0.100000000000D+01
  </mgrwgt>
  </event>
  <event>
  6     66 0.47607883E-03 0.23258463E+02 0.75467711E-02 0.12160674E+00
       21 -1    0    0  503  501 0.00000000E+00 0.00000000E+00 0.90219775E+03 0.90219806E+03 0.75000000E+00 0.0000E+00 0.9000E+01
        3 -1    0    0  502    0 0.00000000E+00 0.00000000E+00 -.24980281E+03 0.24980331E+03 0.50000000E+00 0.0000E+00 0.9000E+01
       25  1    1    2    0    0 -.35259060E+02 -.21096531E+02 -.46191832E+02 0.13945232E+03 0.12500000E+03 0.0000E+00 0.9000E+01
       23  1    1    2    0    0 0.37944419E+02 0.48561708E+01 -.14063788E+03 0.17192331E+03 0.91188000E+02 0.0000E+00 0.9000E+01
        3  1    1    2  503    0 -.34451194E+01 -.14423060E+02 0.42844314E+03 0.42869997E+03 0.50000000E+00 0.0000E+00 0.9000E+01
       21  1    1    2  502  501 0.75975990E+00 0.30663420E+02 0.41078151E+03 0.41192576E+03 0.75000000E+00 0.0000E+00 0.9000E+01
#aMCatNLO 2  0  0  1  5 0.14828807D+02 0.00000000D+00  -5  6  0 0.00000000D+00 0.00000000D+00 0.00000000D+00 0.00000000D+00 0.00000000D+00
  <mgrwgt>
 0.4153385375D+00    1    2    0
 0.343798854289989D+03 0.000000000000000D+00 0.000000000000000D+00 0.343798854289989D+03
 0.343798854289989D+03 0.000000000000000D+00 0.000000000000000D+00 -.343798854289989D+03
 0.162357495853589D+03 -.360707898481887D+02 -.244948760595599D+02 -.939885930653437D+02
 0.226364780981315D+03 0.368097822209242D+02 0.105962664510274D+00 -.203889164571050D+03
 0.000000000000000D+00 -.000000000000000D+00 -.000000000000000D+00 0.000000000000000D+00
 0.298875431745074D+03 -.738992372735512D+00 0.243889133950497D+02 0.297877757636394D+03
 0.655044784232311D+03 0.000000000000000D+00 0.000000000000000D+00 0.655044784232311D+03
 0.344055463901644D+03 0.000000000000000D+00 0.000000000000000D+00 -.344055463901644D+03
 0.161700714521110D+03 -.352590583309471D+02 -.210965460644510D+02 -.939885930653437D+02
 0.226604068989638D+03 0.379444212458852D+02 0.485615130477469D+01 -.203889164571050D+03
 0.311342658306103D+03 -.344511944885483D+01 -.144230604714724D+02 0.310989320330667D+03
 0.299452806317105D+03 0.759756533916694D+00 0.306634552311486D+02 0.297877757636394D+03
0.143072451676D-01 0.000000000000D+00 0.000000000000D+00 0.991393511762D-04 0.109297160040D-05  6 21 3 25 23 3 21 4 0.13879964D+00 0.38431241D-01 0.19039643D+05 0.19039643D+05 0.19039643D+05 0.12361858D+01  1  2  1  4  5  1       -3 0.415338537511D+00 0.100000000000D+01
  </mgrwgt>
  </event>
  <event>
  5     66 0.47607883E-03 0.24691480E+02 0.75467711E-02 0.10918195E+00
       -1 -1    0    0    0  501 0.00000000E+00 0.00000000E+00 0.27278300E+03 0.27278319E+03 0.32000000E+00 0.0000E+00 0.9000E+01
        1 -1    0    0  502    0 0.00000000E+00 0.00000000E+00 -.30717735E+03 0.30717752E+03 0.32000000E+00 0.0000E+00 0.9000E+01
       25  1    1    2    0    0 -.10402830E+03 0.23715421E+03 0.16478850E+02 0.28802875E+03 0.12500000E+03 0.0000E+00 0.9000E+01
       23  1    1    2    0    0 0.11641746E+03 -.21580810E+03 -.53734171E+02 0.26707447E+03 0.91188000E+02 0.0000E+00 0.9000E+01
       21  1    1    2  502  501 -.12389152E+02 -.21346103E+02 0.28609689E+01 0.24857491E+02 0.75000000E+00 0.0000E+00 0.9000E+01
#aMCatNLO 1  0  0  2  2 0.53934883D+00 0.00000000D+00  -5  6  0 0.00000000D+00 0.00000000D+00 0.00000000D+00 0.00000000D+00 0.00000000D+00
  <mgrwgt>
 0.3219498188D+00    6    4    0
 0.289469969035782D+03 0.000000000000000D+00 0.000000000000000D+00 0.289469969035782D+03
 0.289469969035782D+03 0.000000000000000D+00 0.000000000000000D+00 -.289469969035782D+03
 0.289518390047386D+03 -.104025529335342D+03 0.237158986310759D+03 0.336184864945755D+02
 0.264350747159874D+03 0.116419988009584D+03 -.215803739163732D+03 -.379631233539065D+02
 0.250708008643033D+02 -.123944586742424D+02 -.213552471470267D+02 0.434463685933095D+01
 0.000000000000000D+00 -.000000000000000D+00 0.000000000000000D+00 0.000000000000000D+00
 0.290300761564501D+03 0.000000000000000D+00 0.000000000000000D+00 0.290300761564501D+03
 0.289557643930814D+03 0.000000000000000D+00 0.000000000000000D+00 -.289557643930814D+03
 0.289312806936110D+03 -.103804171881075D+03 0.237005045353783D+03 0.336184864945755D+02
 0.264554691521965D+03 0.116622252783951D+03 -.215944402296273D+03 -.379631233539065D+02
 0.250726908460210D+02 -.123752827284211D+02 -.213685828779620D+02 0.434463685933095D+01
 0.918216191219417D+00 -.442798174455393D+00 0.307939820451365D+00 0.743117633687187D+00
 0.289469969035782D+03 0.000000000000000D+00 0.000000000000000D+00 0.289469969035782D+03
 0.289469969035782D+03 0.000000000000000D+00 0.000000000000000D+00 -.289469969035782D+03
 0.289518390047386D+03 -.104025529335342D+03 0.237158986310759D+03 0.336184864945755D+02
 0.264350747159874D+03 0.116419988009584D+03 -.215803739163732D+03 -.379631233539065D+02
 0.000000000000000D+00 -.000000000000000D+00 0.000000000000000D+00 0.000000000000000D+00
 0.250708008643033D+02 -.123944586742424D+02 -.213552471470267D+02 0.434463685933095D+01
 0.290300761564501D+03 0.000000000000000D+00 0.000000000000000D+00 0.290300761564501D+03
 0.289557643930814D+03 0.000000000000000D+00 0.000000000000000D+00 -.289557643930814D+03
 0.289312806936110D+03 -.103804171881075D+03 0.237005045353783D+03 0.336184864945755D+02
 0.264554691521965D+03 0.116622252783951D+03 -.215944402296273D+03 -.379631233539065D+02
 0.918216191219417D+00 -.442798174455393D+00 0.307939820451365D+00 0.743117633687187D+00
 0.250726908460210D+02 -.123752827284211D+02 -.213685828779620D+02 0.434463685933095D+01
0.309003133920D-02 0.000000000000D+00 0.000000000000D+00 0.155562018627D-04 0.000000000000D+00  6 -1 1 25 23 21 21 2 0.41966643D-01 0.47258082D-01 0.82329400D+05 0.82329400D+05 0.82329400D+05 0.11714096D+01  1  2  2  2  6  2        1 0.205075843004D+00 0.100000000000D+01
0.141590547015D-02 0.163065433740D-03 -.118665339665D-04 0.155562018627D-04 0.000000000000D+00  6 -1 1 25 23 21 21 4 0.41966643D-01 0.47258082D-01 0.82329400D+05 0.82329400D+05 0.82329400D+05 0.11714096D+01  1  2  3  2  6  2        1 0.128944685888D+00 0.100000000000D+01
0.576132425288D-04 0.000000000000D+00 0.000000000000D+00 0.155562018627D-04 0.000000000000D+00  6 -1 1 25 23 21 21 4 0.41966643D-01 0.47258082D-01 0.82329400D+05 0.82329400D+05 0.82329400D+05 0.11714096D+01  1  2 15  2  6  2        1 0.524676372645D-02 0.100000000000D+01
-.100885957247D-01 0.000000000000D+00 0.000000000000D+00 0.155562018627D-04 0.000000000000D+00  6 -1 1 25 23 21 21 4 0.41966643D-01 0.47258082D-01 0.82329400D+05 0.82329400D+05 0.82329400D+05 0.11714096D+01  1  2  4  2  6  2        1 -.918755407193D+00 0.100000000000D+01
0.995080694578D-02 0.000000000000D+00 0.000000000000D+00 0.155562018627D-04 0.181684674725D-03  6 -1 1 25 23 21 21 4 0.42087089D-01 0.47272395D-01 0.82484519D+05 0.82484519D+05 0.82484519D+05 0.11713330D+01  1  2 11  2  6  2        1 0.900955401782D+00 0.100000000000D+01
0.118363677140D-05 0.000000000000D+00 0.000000000000D+00 0.155541658470D-04 0.342739059971D-07  6 -1 21 25 23 -1 21 4 0.42087089D-01 0.47272395D-01 0.82484519D+05 0.82484519D+05 0.82484519D+05 0.11713330D+01  3  4 11  5  5  2        1 0.482531589283D-03 0.100000000000D+01
  </mgrwgt>
  </event>
  <event>
  5     66 0.47607883E-03 0.23472957E+02 0.75467711E-02 0.95788521E-01
       -1 -1    0    0    0  501 0.00000000E+00 0.00000000E+00 0.71878074E+03 0.71878081E+03 0.32000000E+00 0.0000E+00 0.9000E+01
        1 -1    0    0  502    0 0.00000000E+00 0.00000000E+00 -.24878342E+02 0.24880399E+02 0.32000000E+00 0.0000E+00 0.9000E+01
       25  1    1    2    0    0 0.30108627E+02 -.24355908E+02 0.35642356E+03 0.37968737E+03 0.12500000E+03 0.0000E+00 0.9000E+01
       23  1    1    2    0    0 -.47673563E+02 0.87946907E+01 0.20624561E+03 0.23065693E+03 0.91188000E+02 0.0000E+00 0.9000E+01
       21  1    1    2  502  501 0.17564936E+02 0.15561217E+02 0.13123322E+03 0.13331691E+03 0.75000000E+00 0.0000E+00 0.9000E+01
#aMCatNLO 1  0  0  2  2 0.12935449D+03 0.00000000D+00  -5  6  0 0.00000000D+00 0.00000000D+00 0.00000000D+00 0.00000000D+00 0.00000000D+00
  <mgrwgt>
 0.1830638737D+00    3    2    0
 0.133726827184463D+03 0.000000000000000D+00 0.000000000000000D+00 0.133726827184463D+03
 0.133726827184463D+03 0.000000000000000D+00 0.000000000000000D+00 -.133726827184463D+03
 0.130996601960668D+03 0.301059746035272D+02 -.243582579197721D+02 0.595107465314315D+01
 0.106248870382597D+03 -.476757146285703D+02 0.879278462405220D+01 -.249656621540087D+02
 0.302081820256606D+02 0.175697400250431D+02 0.155654732957199D+02 0.190145875008655D+02
 0.000000000000000D+00 0.000000000000000D+00 -.000000000000000D+00 0.000000000000000D+00
 0.800577627107634D+03 0.000000000000000D+00 0.000000000000000D+00 0.800577627107634D+03
 0.776342877034184D+03 0.000000000000000D+00 0.000000000000000D+00 -.776342877034184D+03
 0.321748864734545D+03 0.814631224212527D+01 0.296303145891662D+03 0.595107465314315D+01
 0.356595027754986D+03 -.701251845334312D+02 0.336606501248778D+03 -.249656621540087D+02
 0.132610877833196D+03 0.967247358392300D+01 0.130883664514068D+03 0.190145875008655D+02
 0.765965733819090D+03 0.523063987073830D+02 -.763793311654507D+03 0.242347500734498D+02
0.480941852168D-03 0.000000000000D+00 0.000000000000D+00 0.331039867547D-04 0.000000000000D+00  6 -1 1 25 23 21 21 2 0.11058182D+00 0.38276009D-02 0.16590523D+05 0.16590523D+05 0.16590523D+05 0.12428635D+01  1  2  2  2  6  2        1 0.139596136082D+00 0.100000000000D+01
0.725361407257D-04 0.253799988150D-04 -.184694334722D-05 0.331039867547D-04 0.000000000000D+00  6 -1 1 25 23 21 21 4 0.11058182D+00 0.38276009D-02 0.16590523D+05 0.16590523D+05 0.16590523D+05 0.12428635D+01  1  2  3  2  6  2        1 0.325223668070D-01 0.100000000000D+01
0.244119673533D-04 0.000000000000D+00 0.000000000000D+00 0.331039867547D-04 0.000000000000D+00  6 -1 1 25 23 21 21 4 0.11058182D+00 0.38276009D-02 0.16590523D+05 0.16590523D+05 0.16590523D+05 0.12428635D+01  1  2 15  2  6  2        1 0.109453708014D-01 0.100000000000D+01
  </mgrwgt>
  </event>
  <event>
  5     66 0.47607883E-03 0.48159235E+02 0.75467711E-02 0.12113885E+00
       -1 -1    0    0    0  501 0.00000000E+00 0.00000000E+00 0.10779676E+03 0.10779724E+03 0.32000000E+00 0.0000E+00 0.9000E+01
        1 -1    0    0  502    0 -.00000000E+00 -.00000000E+00 -.20212527E+03 0.20212553E+03 0.32000000E+00 0.0000E+00 0.9000E+01
       25  1    1    2    0    0 -.15081429E+02 -.53612010E+01 -.49826545E+02 0.13551338E+03 0.12500000E+03 0.0000E+00 0.9000E+01
       23  1    1    2    0    0 0.25782480E+02 -.45516332E+02 -.58838761E+02 0.12047292E+03 0.91188000E+02 0.0000E+00 0.9000E+01
       21  1    1    2  502  501 -.10701051E+02 0.50877533E+02 0.14336795E+02 0.53936463E+02 0.75000000E+00 0.0000E+00 0.9000E+01
#aMCatNLO 1  0  0  5  2 0.25327964D+01 0.00000000D+00  -5  6  0 0.00000000D+00 0.00000000D+00 0.00000000D+00 0.00000000D+00 0.00000000D+00
  <mgrwgt>
 0.7156120783D-01   25    2    0
 0.147609494015103D+03 0.000000000000000D+00 0.000000000000000D+00 0.147609494015103D+03
 0.147609494015103D+03 -.000000000000000D+00 -.000000000000000D+00 -.147609494015103D+03
 0.126342306928327D+03 -.150810852757751D+02 -.536283600470060D+01 -.900995987022610D+01
 0.107673893468078D+03 0.257827731078242D+02 -.455177256423098D+02 -.232766246220730D+02
 0.612027876338017D+02 -.107016878320491D+02 0.508805616470104D+02 0.322865844922991D+02
 0.000000000000000D+00 0.000000000000000D+00 0.000000000000000D+00 0.000000000000000D+00
 0.147609494015103D+03 0.000000000000000D+00 0.000000000000000D+00 0.147609494015103D+03
 0.147609494015103D+03 -.000000000000000D+00 -.000000000000000D+00 -.147609494015103D+03
 0.126320919230757D+03 -.151553460810965D+02 -.500976726055395D+01 -.878591784964926D+01
 0.107490853941771D+03 0.257195335629869D+02 -.452170568496744D+02 -.230858333245050D+02
 0.389804905043974D+01 -.162939409680708D+01 0.108183090443534D+01 0.337186938820784D+01
 0.575091658072389D+02 -.893479338508331D+01 0.491449932057930D+02 0.284998817859464D+02
0.978865271213D-04 0.000000000000D+00 0.000000000000D+00 0.755857334192D-05 0.000000000000D+00  6 -1 1 25 23 21 21 2 0.16584173D-01 0.31096252D-01 0.20042392D+05 0.20042392D+05 0.20042392D+05 0.12337248D+01  1  2  2  3  6  5       21 0.568594529882D-01 0.100000000000D+01
-.312331309526D-06 0.516561395342D-05 -.375910038260D-06 0.755857334192D-05 0.000000000000D+00  6 -1 1 25 23 21 21 4 0.16584173D-01 0.31096252D-01 0.20042392D+05 0.20042392D+05 0.20042392D+05 0.12337248D+01  1  2  3  3  6  5       21 -.276141630760D-03 0.100000000000D+01
0.345737658424D-05 0.000000000000D+00 0.000000000000D+00 0.755857334192D-05 0.000000000000D+00  6 -1 1 25 23 21 21 4 0.16584173D-01 0.31096252D-01 0.20042392D+05 0.20042392D+05 0.20042392D+05 0.12337248D+01  1  2 15  3  6  5       21 0.305677202062D-02 0.100000000000D+01
0.182971044968D-07 0.000000000000D+00 0.000000000000D+00 0.755956006920D-05 0.000000000000D+00  6 -1 1 25 23 21 21 4 0.16584173D-01 0.31096252D-01 0.20008660D+05 0.20008660D+05 0.20008660D+05 0.12338053D+01  1  2 12  3  6  5       21 0.161805462708D-04 0.100000000000D+01
0.199369238365D-07 0.000000000000D+00 0.000000000000D+00 0.755956006920D-05 0.000000000000D+00  6 -1 1 25 23 21 21 4 0.16584173D-01 0.31096252D-01 0.20008660D+05 0.20008660D+05 0.20008660D+05 0.12338053D+01  1  2 12  3  6  5       21 0.176306758641D-04 0.100000000000D+01
-.152660951635D-03 0.000000000000D+00 0.000000000000D+00 0.755857334192D-05 0.000000000000D+00  6 -1 1 25 23 21 21 4 0.16584173D-01 0.31096252D-01 0.20042392D+05 0.20042392D+05 0.20042392D+05 0.12337248D+01  1  2  4  3  6  5       21 -.134972200519D+00 0.100000000000D+01
-.583051362950D-05 0.000000000000D+00 0.000000000000D+00 0.755857334192D-05 0.000000000000D+00  6 -1 1 25 23 21 21 4 0.16584173D-01 0.31096252D-01 0.20042392D+05 0.20042392D+05 0.20042392D+05 0.12337248D+01  1  2  5  3  6  5       21 -.515493481669D-02 0.100000000000D+01
0.158774325210D-03 0.000000000000D+00 -.000000000000D+00 0.755857334192D-05 0.000000000000D+00  6 -1 1 25 23 21 21 4 0.16584173D-01 0.31096252D-01 0.20042392D+05 0.20042392D+05 0.20042392D+05 0.12337248D+01  1  2  6  3  6  5       21 0.140377220435D+00 0.100000000000D+01
0.840884787302D-05 0.000000000000D+00 0.000000000000D+00 0.755857334192D-05 0.184968452029D-04  6 -1 1 25 23 21 21 4 0.16584173D-01 0.31096252D-01 0.20008660D+05 0.20008660D+05 0.20008660D+05 0.12338053D+01  1  2 11  3  6  5       21 0.743613570758D-02 0.100000000000D+01
0.268564920175D-07 0.000000000000D+00 0.000000000000D+00 0.755956006920D-05 0.000000000000D+00  6 -1 1 25 23 1 -1 4 0.16584173D-01 0.31096252D-01 0.20008660D+05 0.20008660D+05 0.20008660D+05 0.12338053D+01  1  2 12  6  6  5       21 0.237498076178D-04 0.100000000000D+01
0.273614033685D-07 0.000000000000D+00 0.000000000000D+00 0.755956006920D-05 0.000000000000D+00  6 -1 1 25 23 1 -1 4 0.16584173D-01 0.31096252D-01 0.20008660D+05 0.20008660D+05 0.20008660D+05 0.12338053D+01  1  2 12  6  6  5       21 0.241963122262D-04 0.100000000000D+01
-.891506134049D-05 0.000000000000D+00 0.000000000000D+00 0.755857334192D-05 0.000000000000D+00  6 -1 1 25 23 1 -1 4 0.16584173D-01 0.31096252D-01 0.20042392D+05 0.20042392D+05 0.20042392D+05 0.12337248D+01  1  2  5  6  6  5       21 -.788207746646D-02 0.100000000000D+01
0.102058568226D-04 0.000000000000D+00 0.000000000000D+00 0.755857334192D-05 0.890015161298D-07  6 -1 1 25 23 1 -1 4 0.16584173D-01 0.31096252D-01 0.20008660D+05 0.20008660D+05 0.20008660D+05 0.12338053D+01  1  2 11  6  6  5       21 0.902527165328D-02 0.100000000000D+01
0.268564920175D-07 0.000000000000D+00 0.000000000000D+00 0.755956006920D-05 0.000000000000D+00  6 -1 1 25 23 2 -2 4 0.16584173D-01 0.31096252D-01 0.20008660D+05 0.20008660D+05 0.20008660D+05 0.12338053D+01  1  2 12  7  6  5       21 0.237498076178D-04 0.100000000000D+01
0.268564920175D-07 0.000000000000D+00 0.000000000000D+00 0.755956006920D-05 0.000000000000D+00  6 -1 1 25 23 4 -4 4 0.16584173D-01 0.31096252D-01 0.20008660D+05 0.20008660D+05 0.20008660D+05 0.12338053D+01  1  2 12  7  6  5       21 0.237498076178D-04 0.100000000000D+01
0.273614033685D-07 0.000000000000D+00 0.000000000000D+00 0.755956006920D-05 0.000000000000D+00  6 -1 1 25 23 2 -2 4 0.16584173D-01 0.31096252D-01 0.20008660D+05 0.20008660D+05 0.20008660D+05 0.12338053D+01  1  2 12  7  6  5       21 0.241963122262D-04 0.100000000000D+01
0.273614033685D-07 0.000000000000D+00 0.000000000000D+00 0.755956006920D-05 0.000000000000D+00  6 -1 1 25 23 4 -4 4 0.16584173D-01 0.31096252D-01 0.20008660D+05 0.20008660D+05 0.20008660D+05 0.12338053D+01  1  2 12  7  6  5       21 0.241963122262D-04 0.100000000000D+01
-.891506134049D-05 0.000000000000D+00 0.000000000000D+00 0.755857334192D-05 0.000000000000D+00  6 -1 1 25 23 2 -2 4 0.16584173D-01 0.31096252D-01 0.20042392D+05 0.20042392D+05 0.20042392D+05 0.12337248D+01  1  2  5  7  6  5       21 -.788207746646D-02 0.100000000000D+01
-.891506134049D-05 0.000000000000D+00 0.000000000000D+00 0.755857334192D-05 0.000000000000D+00  6 -1 1 25 23 4 -4 4 0.16584173D-01 0.31096252D-01 0.20042392D+05 0.20042392D+05 0.20042392D+05 0.12337248D+01  1  2  5  7  6  5       21 -.788207746646D-02 0.100000000000D+01
0.998587618394D-05 0.000000000000D+00 0.000000000000D+00 0.755857334192D-05 0.857953392794D-07  6 -1 1 25 23 2 -2 4 0.16584173D-01 0.31096252D-01 0.20008660D+05 0.20008660D+05 0.20008660D+05 0.12338053D+01  1  2 11  7  6  5       21 0.883073776386D-02 0.100000000000D+01
0.998587618394D-05 0.000000000000D+00 0.000000000000D+00 0.755857334192D-05 0.857953392794D-07  6 -1 1 25 23 4 -4 4 0.16584173D-01 0.31096252D-01 0.20008660D+05 0.20008660D+05 0.20008660D+05 0.12338053D+01  1  2 11  7  6  5       21 0.883073776386D-02 0.100000000000D+01
0.268564920175D-07 0.000000000000D+00 0.000000000000D+00 0.755956006920D-05 0.000000000000D+00  6 -1 1 25 23 3 -3 4 0.16584173D-01 0.31096252D-01 0.20008660D+05 0.20008660D+05 0.20008660D+05 0.12338053D+01  1  2 12  8  6  5       21 0.237498076178D-04 0.100000000000D+01
0.273614033685D-07 0.000000000000D+00 0.000000000000D+00 0.755956006920D-05 0.000000000000D+00  6 -1 1 25 23 3 -3 4 0.16584173D-01 0.31096252D-01 0.20008660D+05 0.20008660D+05 0.20008660D+05 0.12338053D+01  1  2 12  8  6  5       21 0.241963122262D-04 0.100000000000D+01
-.891506134049D-05 0.000000000000D+00 0.000000000000D+00 0.755857334192D-05 0.000000000000D+00  6 -1 1 25 23 3 -3 4 0.16584173D-01 0.31096252D-01 0.20042392D+05 0.20042392D+05 0.20042392D+05 0.12337248D+01  1  2  5  8  6  5       21 -.788207746646D-02 0.100000000000D+01
0.100086426006D-04 0.000000000000D+00 0.000000000000D+00 0.755857334192D-05 0.859909407875D-07  6 -1 1 25 23 3 -3 4 0.16584173D-01 0.31096252D-01 0.20008660D+05 0.20008660D+05 0.20008660D+05 0.12338053D+01  1  2 11  8  6  5       21 0.885087062467D-02 0.100000000000D+01
  </mgrwgt>
  </event>
  <event>
  6     66 0.47607883E-03 0.29853451E+02 0.75467711E-02 0.11287929E+00
       -3 -1    0    0    0  503 0.00000000E+00 0.00000000E+00 0.43474141E+03 0.43474170E+03 0.50000000E+00 0.0000E+00 0.9000E+01
        3 -1    0    0  502    0 0.00000000E+00 0.00000000E+00 -.26292796E+03 0.26292844E+03 0.50000000E+00 0.0000E+00 0.9000E+01
       25  1    1    2    0    0 0.17679843E+03 -.48950799E+01 -.15393174E+03 0.26570966E+03 0.12500000E+03 0.0000E+00 0.9000E+01
       23  1    1    2    0    0 -.16865114E+03 0.43507826E+02 0.14134865E+03 0.24213804E+03 0.91188000E+02 0.0000E+00 0.9000E+01
       21  1    1    2  502  501 0.24238493E+01 -.68381293E+01 0.10853769E+02 0.13076768E+02 0.75000000E+00 0.0000E+00 0.9000E+01
       21  1    1    2  501  503 -.10571137E+02 -.31774617E+02 0.17354277E+03 0.17674566E+03 0.75000000E+00 0.0000E+00 0.9000E+01
#aMCatNLO 2  0  0  1  5 0.13931496D+03 0.00000000D+00  -5  6  0 0.00000000D+00 0.00000000D+00 0.00000000D+00 0.00000000D+00 0.00000000D+00
  <mgrwgt>
 0.2426341854D-01    1    2    0
 0.259922073752402D+03 0.000000000000000D+00 0.000000000000000D+00 0.259922073752402D+03
 0.259922073752402D+03 0.000000000000000D+00 0.000000000000000D+00 -.259922073752402D+03
 0.262457134770291D+03 0.171437329143639D+03 -.209984048515608D+02 -.153058997649979D+03
 0.243878823914615D+03 -.173594021041858D+03 0.286608047169209D+02 0.142145360604817D+03
 0.135081888198985D+02 0.215669189821902D+01 -.766239986536005D+01 0.109136370451613D+02
 0.000000000000000D+00 -.000000000000000D+00 -.000000000000000D+00 0.000000000000000D+00
 0.436186099317726D+03 0.000000000000000D+00 0.000000000000000D+00 0.436186099317726D+03
 0.262056152304463D+03 0.000000000000000D+00 0.000000000000000D+00 -.262056152304463D+03
 0.265203835207398D+03 0.176796821644786D+03 -.488889592835085D+01 -.153058997649979D+03
 0.242606072660283D+03 -.168652757041936D+03 0.435132065966953D+02 0.142145360604817D+03
 0.131116916978802D+02 0.242707204405868D+01 -.684969392890606D+01 0.109136370451613D+02
 0.177320652056627D+03 -.105711366469081D+02 -.317746167394384D+02 0.174129947013263D+03
0.367490848296D-02 0.000000000000D+00 0.000000000000D+00 0.100922281357D-03 0.834782343748D-06  6 -3 3 25 23 21 21 4 0.66883151D-01 0.40450393D-01 0.51514027D+05 0.51514027D+05 0.51514027D+05 0.11910008D+01  1  2  1  1  6  1       -3 0.242634185358D-01 0.100000000000D+01
  </mgrwgt>
  </event>
  <event>
  6     66 0.47607883E-03 0.74904187E+02 0.75467711E-02 0.11851860E+00
       -1 -1    0    0    0  501 0.00000000E+00 0.00000000E+00 0.14350920E+03 0.14350956E+03 0.32000000E+00 0.0000E+00 0.9000E+01
        1 -1    0    0  502    0 -.00000000E+00 -.00000000E+00 -.19461253E+03 0.19461279E+03 0.32000000E+00 0.0000E+00 0.9000E+01
       25  1    1    2    0    0 0.47018622E+01 -.73974885E+02 0.34037397E+01 0.14536498E+03 0.12500000E+03 0.0000E+00 0.9000E+01
       23  1    1    2    0    0 -.20807852E+02 -.86432681E+01 -.47624443E+02 0.10531387E+03 0.91188000E+02 0.0000E+00 0.9000E+01
        2  1    1    2  502    0 -.70895758E+00 0.52832172E+02 -.18590302E+01 0.52870591E+02 0.32000000E+00 0.0000E+00 0.9000E+01
       -2  1    1    2    0  501 0.16814947E+02 0.29785982E+02 -.50235905E+01 0.34572909E+02 0.32000000E+00 0.0000E+00 0.9000E+01
#aMCatNLO 2  0  0  5  1 0.11059223D+02 0.00000000D+00  -5  6  0 0.00000000D+00 0.00000000D+00 0.00000000D+00 0.00000000D+00 0.00000000D+00
  <mgrwgt>
 0.1303468756D-02    3    2    0
 0.167119098938160D+03 0.000000000000000D+00 0.000000000000000D+00 0.167119098938160D+03
 0.167119098938160D+03 -.000000000000000D+00 -.000000000000000D+00 -.167119098938160D+03
 0.148205732957663D+03 0.444827574406152D+01 -.752756957343905D+02 0.255679830281210D+02
 0.993937735139753D+02 -.209781637143756D+02 -.951690951600495D+01 -.321436766687391D+02
 0.866386914046824D+02 0.165298879703141D+02 0.847926052503955D+02 0.657569364061804D+01
 0.000000000000000D+00 0.000000000000000D+00 0.000000000000000D+00 0.000000000000000D+00
 0.167119098938160D+03 0.000000000000000D+00 0.000000000000000D+00 0.167119098938160D+03
 0.167119098938160D+03 -.000000000000000D+00 -.000000000000000D+00 -.167119098938160D+03
 0.147574211267728D+03 0.470204560991594D+01 -.739739441376173D+02 0.256689342805479D+02
 0.992560824302504D+02 -.208077284016400D+02 -.864263533946673D+01 -.320758764268920D+02
 0.530059616471510D+02 -.767401084458974D+00 0.526374797877445D+02 0.619183230632156D+01
 0.344019425311906D+02 0.168730838761831D+02 0.299790996893395D+02 0.215109840022533D+00
-.153931387277D-05 0.000000000000D+00 0.000000000000D+00 0.259754652142D-05 0.000000000000D+00  6 -1 1 25 23 2 -2 4 0.22078387D-01 0.29940436D-01 0.26617813D+05 0.26617813D+05 0.26617813D+05 0.12203887D+01  1  2 13  7  6  5       21 -.868951385912D-03 0.100000000000D+01
-.154403605385D-05 0.000000000000D+00 0.000000000000D+00 0.259754652142D-05 0.000000000000D+00  6 -1 1 25 23 2 -2 4 0.22078387D-01 0.29940436D-01 0.26617813D+05 0.26617813D+05 0.26617813D+05 0.12203887D+01  1  2 13  7  6  5       21 -.871617083833D-03 0.100000000000D+01
0.539239456458D-05 0.000000000000D+00 0.000000000000D+00 0.259739489430D-05 0.694107216266D-08  6 -1 1 25 23 2 -2 4 0.22078387D-01 0.29940436D-01 0.26617813D+05 0.26617813D+05 0.26617813D+05 0.12203887D+01  1  2  1  7  6  5       21 0.304403722539D-02 0.100000000000D+01
  </mgrwgt>
  </event>
  <event>
  5     66 0.47607883E-03 0.28755651E+02 0.75467711E-02 0.10019659E+00
       -1 -1    0    0    0  501 0.00000000E+00 0.00000000E+00 0.27713059E+03 0.27713078E+03 0.32000000E+00 0.0000E+00 0.9000E+01
        1 -1    0    0  502    0 0.00000000E+00 0.00000000E+00 -.18020083E+03 0.18020112E+03 0.32000000E+00 0.0000E+00 0.9000E+01
       25  1    1    2    0    0 0.22885411E+02 -.98706996E+02 -.46091925E+02 0.16738064E+03 0.12500000E+03 0.0000E+00 0.9000E+01
       23  1    1    2    0    0 -.50638725E+02 0.91182464E+02 -.55185459E+01 0.13865146E+03 0.91188000E+02 0.0000E+00 0.9000E+01
       21  1    1    2  502  501 0.27753314E+02 0.75245324E+01 0.14854023E+03 0.15129979E+03 0.75000000E+00 0.0000E+00 0.9000E+01
#aMCatNLO 1  0  0  2  1 0.18482043D+02 0.00000000D+00  -5  6  0 0.00000000D+00 0.00000000D+00 0.00000000D+00 0.00000000D+00 0.00000000D+00
  <mgrwgt>
 0.2596035262D+00    3    2    0
 0.223470961419453D+03 0.000000000000000D+00 0.000000000000000D+00 0.223470961419453D+03
 0.223470961419453D+03 0.000000000000000D+00 0.000000000000000D+00 -.223470961419453D+03
 0.181268231889134D+03 0.228852000231199D+02 -.987070533917818D+02 -.834647058511948D+02
 0.143071698234707D+03 -.506388910720829D+02 0.911824188355285D+02 -.357173444989255D+02
 0.122601992715066D+03 0.277536910489629D+02 0.752463455625328D+01 0.119182050350120D+03
 0.000000000000000D+00 -.000000000000000D+00 0.000000000000000D+00 0.000000000000000D+00
 0.236234977518686D+04 0.000000000000000D+00 0.000000000000000D+00 0.236234977518686D+04
 0.359977134071618D+03 0.000000000000000D+00 0.000000000000000D+00 -.359977134071618D+03
 0.309096052659925D+03 0.236164871548039D+03 -.131054057906725D+03 -.834647058511948D+02
 0.142199216150392D+03 0.734372067041208D+02 0.723644505487833D+02 -.357173444989255D+02
 0.210147094546013D+03 0.172480006295438D+03 -.144252434571411D+02 0.119182050350120D+03
 0.206088454590215D+04 -.482082084547598D+03 0.731148508150826D+02 0.200237264111525D+04
0.149406505326D-02 0.000000000000D+00 0.000000000000D+00 0.216915665481D-04 0.000000000000D+00  6 -1 1 25 23 21 21 2 0.42635512D-01 0.27723241D-01 0.26929895D+05 0.26929895D+05 0.26929895D+05 0.12198503D+01  1  2  2  2  6  2        1 0.204050132507D+00 0.100000000000D+01
0.245762022636D-03 0.788439789765D-04 -.573760320088D-05 0.216915665481D-04 0.000000000000D+00  6 -1 1 25 23 21 21 4 0.42635512D-01 0.27723241D-01 0.26929895D+05 0.26929895D+05 0.26929895D+05 0.12198503D+01  1  2  3  2  6  2        1 0.499453706960D-01 0.100000000000D+01
0.275949311019D-04 0.000000000000D+00 0.000000000000D+00 0.216915665481D-04 0.000000000000D+00  6 -1 1 25 23 21 21 4 0.42635512D-01 0.27723241D-01 0.26929895D+05 0.26929895D+05 0.26929895D+05 0.12198503D+01  1  2 15  2  6  2        1 0.560802295013D-02 0.100000000000D+01
  </mgrwgt>
  </event>
  <event>
  6     66 -.47607883E-03 0.64569296E+02 0.75467711E-02 0.11876068E+00
       -1 -1    0    0    0  503 0.00000000E+00 0.00000000E+00 0.17082582E+03 0.17082612E+03 0.32000000E+00 0.0000E+00 0.9000E+01
        1 -1    0    0  502    0 0.00000000E+00 0.00000000E+00 -.33597630E+03 0.33597645E+03 0.32000000E+00 0.0000E+00 0.9000E+01
       25  1    1    2    0    0 -.20040798E+02 -.35123101E+02 -.16594342E+03 0.21165416E+03 0.12500000E+03 0.0000E+00 0.9000E+01
       23  1    1    2    0    0 0.24191839E+02 -.19866366E+02 -.11067190E+03 0.14677684E+03 0.91188000E+02 0.0000E+00 0.9000E+01
       21  1    1    2  502  501 -.10370566E+02 0.73702455E+02 0.68777129E+02 0.10134326E+03 0.75000000E+00 0.0000E+00 0.9000E+01
       21  1    1    2  501  503 0.62195243E+01 -.18712988E+02 0.42687713E+02 0.47028308E+02 0.75000000E+00 0.0000E+00 0.9000E+01
#aMCatNLO 2  0  0  1  5 0.19719493D+02 0.00000000D+00  -5  6  0 0.00000000D+00 0.00000000D+00 0.00000000D+00 0.00000000D+00 0.00000000D+00
  <mgrwgt>
 -.1323810434D-01    2    2    0
 0.204821138429025D+03 0.000000000000000D+00 0.000000000000000D+00 0.204821138429025D+03
 0.204821138429025D+03 0.000000000000000D+00 0.000000000000000D+00 -.204821138429025D+03
 0.154663087937502D+03 -.177051104949314D+02 -.421508117990827D+02 -.787750525065142D+02
 0.109863398851229D+03 0.258483102971121D+02 -.248504235323641D+02 -.496893989517948D+02
 0.145115790069318D+03 -.814319980218069D+01 0.670012353314467D+02 0.128464451458309D+03
 0.000000000000000D+00 0.000000000000000D+00 -.000000000000000D+00 0.000000000000000D+00
 0.278078344434055D+03 0.000000000000000D+00 0.000000000000000D+00 0.278078344434055D+03
 0.206389658579479D+03 0.000000000000000D+00 0.000000000000000D+00 -.206389658579479D+03
 0.153185494462750D+03 -.200407627276278D+02 -.351234201877880D+02 -.787750525065142D+02
 0.108462968691490D+03 0.241918645735951D+02 -.198665939112182D+02 -.496893989517948D+02
 0.148468170743161D+03 -.103706261174463D+02 0.737030023083753D+02 0.128464451458309D+03
 0.743513691161336D+02 0.621952427147905D+01 -.187129882093691D+02 0.716886858545756D+02
-.192684344900D-03 0.000000000000D+00 0.000000000000D+00 0.736727051875D-05 0.000000000000D+00  6 -1 1 25 23 21 21 4 0.28205857D-01 0.51295405D-01 0.25911092D+05 0.25911092D+05 0.25911092D+05 0.12216345D+01  1  2 13  1  6  1       -1 -.372758453447D-01 0.100000000000D+01
0.111504601585D-03 0.000000000000D+00 0.000000000000D+00 0.745252611879D-05 0.395121210306D-07  6 -1 1 25 23 21 21 4 0.26280690D-01 0.51688225D-01 0.25911092D+05 0.25911092D+05 0.25911092D+05 0.12216345D+01  1  2  1  1  6  1       -1 0.240377410006D-01 0.100000000000D+01
  </mgrwgt>
  </event>
  <event>
  5     66 -.47607883E-03 0.39186541E+02 0.75467711E-02 0.11962800E+00
       -1 -1    0    0    0  501 0.00000000E+00 0.00000000E+00 0.34249787E+02 0.34251282E+02 0.32000000E+00 0.0000E+00 0.9000E+01
        1 -1    0    0  502    0 -.00000000E+00 -.00000000E+00 -.93255883E+03 0.93255889E+03 0.32000000E+00 0.0000E+00 0.9000E+01
       25  1    1    2    0    0 -.19290782E+02 -.83572953E+02 -.68342488E+03 0.70003653E+03 0.12500000E+03 0.0000E+00 0.9000E+01
       23  1    1    2    0    0 0.48970097E+02 0.57993417E+02 -.15476189E+03 0.19500718E+03 0.91188000E+02 0.0000E+00 0.9000E+01
       21  1    1    2  502  501 -.29679315E+02 0.25579535E+02 -.60122272E+02 0.71766458E+02 0.75000000E+00 0.0000E+00 0.9000E+01
#aMCatNLO 1  0  0  5  1 0.78594646D+01 0.00000000D+00  -5  6  0 0.00000000D+00 0.00000000D+00 0.00000000D+00 0.00000000D+00 0.00000000D+00
  <mgrwgt>
 -.1895418617D+00   25    2    0
 0.178719586968060D+03 0.000000000000000D+00 0.000000000000000D+00 0.178719586968060D+03
 0.178719586968060D+03 -.000000000000000D+00 -.000000000000000D+00 -.178719586968060D+03
 0.175907302055882D+03 -.192885613900526D+02 -.835748664294079D+02 -.892276415545556D+02
 0.138515100310648D+03 0.489718454543560D+02 0.579919103364188D+02 0.714834131697430D+02
 0.430167715695905D+02 -.296832840643034D+02 0.255829560929891D+02 0.177442283848126D+02
 0.000000000000000D+00 0.000000000000000D+00 0.000000000000000D+00 0.000000000000000D+00
 0.178719586968060D+03 0.000000000000000D+00 0.000000000000000D+00 0.178719586968060D+03
 0.178719586968060D+03 -.000000000000000D+00 -.000000000000000D+00 -.178719586968060D+03
 0.175306182179973D+03 -.202936607191681D+02 -.827086074282088D+02 -.886268080346994D+02
 0.138770224891518D+03 0.481783130108604D+02 0.586758274399418D+02 0.719577751331175D+02
 0.223362302732813D+02 -.180570027061751D+02 0.130395809017676D+02 0.167963269689787D+01
 0.210265365913483D+02 -.982764958551724D+01 0.109931990864993D+02 0.149894002046841D+02
0.937802869591D-04 0.000000000000D+00 0.000000000000D+00 0.702494541428D-05 0.000000000000D+00  6 -1 1 25 23 21 21 2 0.52693172D-02 0.14347071D+00 0.23936532D+05 0.23936532D+05 0.23936532D+05 0.12253269D+01  1  2  2  3  6  5       21 0.407137484929D-01 0.100000000000D+01
0.699091916896D-05 0.494892170678D-05 -.360140994840D-06 0.702494541428D-05 0.000000000000D+00  6 -1 1 25 23 21 21 4 0.52693172D-02 0.14347071D+00 0.23936532D+05 0.23936532D+05 0.23936532D+05 0.12253269D+01  1  2  3  3  6  5       21 0.455688143604D-02 0.100000000000D+01
0.169437654993D-05 0.000000000000D+00 0.000000000000D+00 0.702494541428D-05 0.000000000000D+00  6 -1 1 25 23 21 21 4 0.52693172D-02 0.14347071D+00 0.23936532D+05 0.23936532D+05 0.23936532D+05 0.12253269D+01  1  2 15  3  6  5       21 0.110444318686D-02 0.100000000000D+01
0.775803167396D-04 0.000000000000D+00 0.000000000000D+00 0.703366589939D-05 0.000000000000D+00  6 -1 1 25 23 21 21 4 0.52693172D-02 0.14347071D+00 0.23551182D+05 0.23551182D+05 0.23551182D+05 0.12260872D+01  1  2 12  3  6  5       21 0.506843728962D-01 0.100000000000D+01
0.788863906667D-04 0.000000000000D+00 0.000000000000D+00 0.703366589939D-05 0.000000000000D+00  6 -1 1 25 23 21 21 4 0.52693172D-02 0.14347071D+00 0.23551182D+05 0.23551182D+05 0.23551182D+05 0.12260872D+01  1  2 12  3  6  5       21 0.515376503863D-01 0.100000000000D+01
-.724610098306D-03 0.000000000000D+00 0.000000000000D+00 0.702494541428D-05 0.000000000000D+00  6 -1 1 25 23 21 21 4 0.52693172D-02 0.14347071D+00 0.23936532D+05 0.23936532D+05 0.23936532D+05 0.12253269D+01  1  2  4  3  6  5       21 -.472321625459D+00 0.100000000000D+01
-.160779537689D-03 0.000000000000D+00 0.000000000000D+00 0.702494541428D-05 0.000000000000D+00  6 -1 1 25 23 21 21 4 0.52693172D-02 0.14347071D+00 0.23936532D+05 0.23936532D+05 0.23936532D+05 0.12253269D+01  1  2  5  3  6  5       21 -.104800709732D+00 0.100000000000D+01
0.345079557386D-03 0.000000000000D+00 -.000000000000D+00 0.702494541428D-05 0.000000000000D+00  6 -1 1 25 23 21 21 4 0.52693172D-02 0.14347071D+00 0.23936532D+05 0.23936532D+05 0.23936532D+05 0.12253269D+01  1  2  6  3  6  5       21 0.224932743607D+00 0.100000000000D+01
0.192921593576D-05 0.000000000000D+00 0.000000000000D+00 0.702494541428D-05 0.109396971207D-05  6 -1 1 25 23 21 21 4 0.52693172D-02 0.14347071D+00 0.23551182D+05 0.23551182D+05 0.23551182D+05 0.12260872D+01  1  2 11  3  6  5       21 0.126038541726D-02 0.100000000000D+01
0.270487335563D-05 0.000000000000D+00 0.000000000000D+00 0.703366589939D-05 0.000000000000D+00  6 -1 1 25 23 1 -1 4 0.52693172D-02 0.14347071D+00 0.23551182D+05 0.23551182D+05 0.23551182D+05 0.12260872D+01  1  2 12  6  6  5       21 0.176713392720D-02 0.100000000000D+01
0.275034845374D-05 0.000000000000D+00 0.000000000000D+00 0.703366589939D-05 0.000000000000D+00  6 -1 1 25 23 1 -1 4 0.52693172D-02 0.14347071D+00 0.23551182D+05 0.23551182D+05 0.23551182D+05 0.12260872D+01  1  2 12  6  6  5       21 0.179684348405D-02 0.100000000000D+01
-.568455111071D-06 0.000000000000D+00 0.000000000000D+00 0.702494541428D-05 0.000000000000D+00  6 -1 1 25 23 1 -1 4 0.52693172D-02 0.14347071D+00 0.23936532D+05 0.23936532D+05 0.23936532D+05 0.12253269D+01  1  2  5  6  6  5       21 -.370535330227D-03 0.100000000000D+01
0.620470718882D-08 0.000000000000D+00 0.000000000000D+00 0.702494541428D-05 0.370385963798D-08  6 -1 1 25 23 1 -1 4 0.52693172D-02 0.14347071D+00 0.23551182D+05 0.23551182D+05 0.23551182D+05 0.12260872D+01  1  2 11  6  6  5       21 0.405362733857D-05 0.100000000000D+01
0.270487335563D-05 0.000000000000D+00 0.000000000000D+00 0.703366589939D-05 0.000000000000D+00  6 -1 1 25 23 2 -2 4 0.52693172D-02 0.14347071D+00 0.23551182D+05 0.23551182D+05 0.23551182D+05 0.12260872D+01  1  2 12  7  6  5       21 0.176713392720D-02 0.100000000000D+01
0.270487335563D-05 0.000000000000D+00 0.000000000000D+00 0.703366589939D-05 0.000000000000D+00  6 -1 1 25 23 4 -4 4 0.52693172D-02 0.14347071D+00 0.23551182D+05 0.23551182D+05 0.23551182D+05 0.12260872D+01  1  2 12  7  6  5       21 0.176713392720D-02 0.100000000000D+01
0.275034845374D-05 0.000000000000D+00 0.000000000000D+00 0.703366589939D-05 0.000000000000D+00  6 -1 1 25 23 2 -2 4 0.52693172D-02 0.14347071D+00 0.23551182D+05 0.23551182D+05 0.23551182D+05 0.12260872D+01  1  2 12  7  6  5       21 0.179684348405D-02 0.100000000000D+01
0.275034845374D-05 0.000000000000D+00 0.000000000000D+00 0.703366589939D-05 0.000000000000D+00  6 -1 1 25 23 4 -4 4 0.52693172D-02 0.14347071D+00 0.23551182D+05 0.23551182D+05 0.23551182D+05 0.12260872D+01  1  2 12  7  6  5       21 0.179684348405D-02 0.100000000000D+01
-.568455111071D-06 0.000000000000D+00 0.000000000000D+00 0.702494541428D-05 0.000000000000D+00  6 -1 1 25 23 2 -2 4 0.52693172D-02 0.14347071D+00 0.23936532D+05 0.23936532D+05 0.23936532D+05 0.12253269D+01  1  2  5  7  6  5       21 -.370535330227D-03 0.100000000000D+01
-.568455111071D-06 0.000000000000D+00 0.000000000000D+00 0.702494541428D-05 0.000000000000D+00  6 -1 1 25 23 4 -4 4 0.52693172D-02 0.14347071D+00 0.23936532D+05 0.23936532D+05 0.23936532D+05 0.12253269D+01  1  2  5  7  6  5       21 -.370535330227D-03 0.100000000000D+01
0.633852207224D-08 0.000000000000D+00 0.000000000000D+00 0.702494541428D-05 0.362532205317D-08  6 -1 1 25 23 2 -2 4 0.52693172D-02 0.14347071D+00 0.23551182D+05 0.23551182D+05 0.23551182D+05 0.12260872D+01  1  2 11  7  6  5       21 0.414105058888D-05 0.100000000000D+01
0.633852207224D-08 0.000000000000D+00 0.000000000000D+00 0.702494541428D-05 0.362532205317D-08  6 -1 1 25 23 4 -4 4 0.52693172D-02 0.14347071D+00 0.23551182D+05 0.23551182D+05 0.23551182D+05 0.12260872D+01  1  2 11  7  6  5       21 0.414105058888D-05 0.100000000000D+01
0.270487335563D-05 0.000000000000D+00 0.000000000000D+00 0.703366589939D-05 0.000000000000D+00  6 -1 1 25 23 3 -3 4 0.52693172D-02 0.14347071D+00 0.23551182D+05 0.23551182D+05 0.23551182D+05 0.12260872D+01  1  2 12  8  6  5       21 0.176713392720D-02 0.100000000000D+01
0.275034845374D-05 0.000000000000D+00 0.000000000000D+00 0.703366589939D-05 0.000000000000D+00  6 -1 1 25 23 3 -3 4 0.52693172D-02 0.14347071D+00 0.23551182D+05 0.23551182D+05 0.23551182D+05 0.12260872D+01  1  2 12  8  6  5       21 0.179684348405D-02 0.100000000000D+01
-.568455111071D-06 0.000000000000D+00 0.000000000000D+00 0.702494541428D-05 0.000000000000D+00  6 -1 1 25 23 3 -3 4 0.52693172D-02 0.14347071D+00 0.23936532D+05 0.23936532D+05 0.23936532D+05 0.12253269D+01  1  2  5  8  6  5       21 -.370535330227D-03 0.100000000000D+01
0.634301261447D-08 0.000000000000D+00 0.000000000000D+00 0.702494541428D-05 0.362789042188D-08  6 -1 1 25 23 3 -3 4 0.52693172D-02 0.14347071D+00 0.23551182D+05 0.23551182D+05 0.23551182D+05 0.12260872D+01  1  2 11  8  6  5       21 0.414398432680D-05 0.100000000000D+01
  </mgrwgt>
  </event>
  <event>
  5     66 -.47607883E-03 0.24447874E+02 0.75467711E-02 0.11499968E+00
       -1 -1    0    0    0  501 0.00000000E+00 0.00000000E+00 0.16482343E+03 0.16482374E+03 0.32000000E+00 0.0000E+00 0.9000E+01
        1 -1    0    0  502    0 0.00000000E+00 0.00000000E+00 -.49821070E+03 0.49821080E+03 0.32000000E+00 0.0000E+00 0.9000E+01
       25  1    1    2    0    0 -.66331808E+02 0.11856090E+03 -.42276867E+03 0.46131871E+03 0.12500000E+03 0.0000E+00 0.9000E+01
       23  1    1    2    0    0 0.41898591E+02 -.11921926E+03 0.82439942E+02 0.17629611E+03 0.91188000E+02 0.0000E+00 0.9000E+01
       21  1    1    2  502  501 0.24433217E+02 0.65836147E+00 0.69414638E+01 0.25419716E+02 0.75000000E+00 0.0000E+00 0.9000E+01
#aMCatNLO 1  0  0  2  5 0.14636125D+03 0.00000000D+00  -5  6  0 0.00000000D+00 0.00000000D+00 0.00000000D+00 0.00000000D+00 0.00000000D+00
  <mgrwgt>
 -.3041362622D+00    7    4    0
 0.286560518901003D+03 0.000000000000000D+00 0.000000000000000D+00 0.286560518901003D+03
 0.286560518901003D+03 0.000000000000000D+00 0.000000000000000D+00 -.286560518901003D+03
 0.287768523301872D+03 -.663348938083197D+02 0.118560816763325D+03 -.220745866541578D+03
 0.251907460717197D+03 0.418958897478715D+02 -.119219334161056D+03 0.197923223006839D+03
 0.334450537829364D+02 0.244390040604482D+02 0.658517397730412D+00 0.228226435347396D+02
 0.000000000000000D+00 -.000000000000000D+00 -.000000000000000D+00 -.000000000000000D+00
 0.289885129750411D+03 0.000000000000000D+00 0.000000000000000D+00 0.289885129750411D+03
 0.387866018004808D+03 0.000000000000000D+00 0.000000000000000D+00 -.387866018004808D+03
 0.294913422363584D+03 -.649458859217958D+02 0.135654786118449D+03 -.220745866541578D+03
 0.245543153689088D+03 0.430817216270065D+02 -.104625771375036D+03 0.197923223006839D+03
 0.336583408819352D+02 0.245989663607999D+02 0.262711000740208D+01 0.228226435347396D+02
 0.103636230820613D+03 -.273480206601064D+01 -.336561247508154D+02 -.979808882543968D+02
 0.286560518901003D+03 0.000000000000000D+00 0.000000000000000D+00 0.286560518901003D+03
 0.286560518901003D+03 0.000000000000000D+00 0.000000000000000D+00 -.286560518901003D+03
 0.287768523301872D+03 -.663348938083197D+02 0.118560816763325D+03 -.220745866541578D+03
 0.251907460717197D+03 0.418958897478715D+02 -.119219334161056D+03 0.197923223006839D+03
 0.000000000000000D+00 -.000000000000000D+00 -.000000000000000D+00 -.000000000000000D+00
 0.334450537829364D+02 0.244390040604482D+02 0.658517397730412D+00 0.228226435347396D+02
 0.289885129750411D+03 0.000000000000000D+00 0.000000000000000D+00 0.289885129750411D+03
 0.387866018004808D+03 0.000000000000000D+00 0.000000000000000D+00 -.387866018004808D+03
 0.294913422363584D+03 -.649458859217958D+02 0.135654786118449D+03 -.220745866541578D+03
 0.245543153689088D+03 0.430817216270065D+02 -.104625771375036D+03 0.197923223006839D+03
 0.103636230820613D+03 -.273480206601064D+01 -.336561247508154D+02 -.979808882543968D+02
 0.336583408819352D+02 0.245989663607999D+02 0.262711000740208D+01 0.228226435347396D+02
0.378162829687D-03 0.000000000000D+00 0.000000000000D+00 0.757637244161D-05 0.000000000000D+00  6 -1 1 25 23 21 21 2 0.25357482D-01 0.76647831D-01 0.33286805D+05 0.33286805D+05 0.33286805D+05 0.12101880D+01  1  2  2  2  6  2        1 0.344026218255D-01 0.100000000000D+01
0.777869915440D-04 0.199562007882D-04 -.145224483856D-05 0.757637244161D-05 0.000000000000D+00  6 -1 1 25 23 21 21 4 0.25357482D-01 0.76647831D-01 0.33286805D+05 0.33286805D+05 0.33286805D+05 0.12101880D+01  1  2  3  2  6  2        1 0.103639515891D-01 0.100000000000D+01
0.255961012355D-05 0.000000000000D+00 0.000000000000D+00 0.757637244161D-05 0.000000000000D+00  6 -1 1 25 23 21 21 4 0.25357482D-01 0.76647831D-01 0.33286805D+05 0.33286805D+05 0.33286805D+05 0.12101880D+01  1  2 15  2  6  2        1 0.341029713078D-03 0.100000000000D+01
-.405961669737D-02 0.000000000000D+00 0.000000000000D+00 0.757637244161D-05 0.000000000000D+00  6 -1 1 25 23 21 21 4 0.25357482D-01 0.76647831D-01 0.33286805D+05 0.33286805D+05 0.33286805D+05 0.12101880D+01  1  2  4  2  6  2        1 -.540883123086D+00 0.100000000000D+01
-.542987696664D-02 0.000000000000D+00 -.373718554342D-03 0.757637244161D-05 0.000000000000D+00  6 -1 1 25 23 21 21 4 0.25357482D-01 0.10427555D+00 0.33286805D+05 0.33286805D+05 0.33286805D+05 0.12101880D+01  1  2  5  2  6  2        1 -.474967384472D+00 0.100000000000D+01
0.530846363124D-02 0.000000000000D+00 0.356686596847D-03 0.757637244161D-05 0.000000000000D+00  6 -1 1 25 23 21 21 4 0.25357482D-01 0.76647831D-01 0.33286805D+05 0.33286805D+05 0.33286805D+05 0.12101880D+01  1  2  6  2  6  2        1 0.707273272749D+00 0.100000000000D+01
-.205108266276D-03 0.000000000000D+00 -.147169343476D-04 0.757637244161D-05 0.000000000000D+00  6 -1 21 25 23 -1 21 4 0.25357482D-01 0.10427555D+00 0.33286805D+05 0.33286805D+05 0.33286805D+05 0.12101880D+01  3  4  5  5  5  2        1 -.406666305567D-01 0.100000000000D+01
  </mgrwgt>
  </event>
  <event>
  5     66 0.47607883E-03 0.46154796E+02 0.75467711E-02 0.11142715E+00
       -1 -1    0    0    0  501 0.00000000E+00 0.00000000E+00 0.26684159E+02 0.26686077E+02 0.32000000E+00 0.0000E+00 0.9000E+01
        1 -1    0    0  502    0 0.00000000E+00 0.00000000E+00 -.74626435E+03 0.74626442E+03 0.32000000E+00 0.0000E+00 0.9000E+01
       25  1    1    2    0    0 0.25398800E+02 0.26899673E+02 -.46210080E+03 0.48013627E+03 0.12500000E+03 0.0000E+00 0.9000E+01
       23  1    1    2    0    0 0.16801979E+02 -.82193892E+01 -.17939666E+03 0.20210957E+03 0.91188000E+02 0.0000E+00 0.9000E+01
       21  1    1    2  502  501 -.42200780E+02 -.18680284E+02 -.78082732E+02 0.90704655E+02 0.75000000E+00 0.0000E+00 0.9000E+01
#aMCatNLO 1  0  0  1  2 0.17570972D+03 0.00000000D+00  -5  6  0 0.00000000D+00 0.00000000D+00 0.00000000D+00 0.00000000D+00 0.00000000D+00
  <mgrwgt>
 0.1053770150D+00    5    4    0
 0.141117696664259D+03 0.000000000000000D+00 0.000000000000000D+00 0.141117696664259D+03
 0.141117696664259D+03 0.000000000000000D+00 0.000000000000000D+00 -.141117696664259D+03
 0.136776798691298D+03 0.254011643449389D+02 0.269007193791984D+02 -.414007826863556D+02
 0.961269388606020D+02 0.168036408307495D+02 -.821865383143057D+01 0.239839199202338D+02
 0.493316557766190D+02 -.422048051756884D+02 -.186820655477678D+02 0.174168627661218D+02
 0.000000000000000D+00 -.000000000000000D+00 0.000000000000000D+00 0.000000000000000D+00
 0.306055949891349D+03 0.000000000000000D+00 0.000000000000000D+00 0.306055949891349D+03
 0.221431726665261D+03 0.000000000000000D+00 0.000000000000000D+00 -.221431726665261D+03
 0.163408075866151D+03 0.933392805475229D+02 -.255137836885445D+02 -.414007826863556D+02
 0.124641818779454D+03 0.667682285954132D+02 -.467665145177689D+02 0.239839199202338D+02
 0.444117178221646D+02 -.209887188616608D+02 -.350503530916283D+02 0.174168627661218D+02
 0.195026064088840D+03 -.139118790281275D+03 0.107330651297942D+03 0.846242232260877D+02
 0.141117696664259D+03 0.000000000000000D+00 0.000000000000000D+00 0.141117696664259D+03
 0.141117696664259D+03 0.000000000000000D+00 0.000000000000000D+00 -.141117696664259D+03
 0.136776798691298D+03 0.254011643449389D+02 0.269007193791984D+02 -.414007826863556D+02
 0.961269388606020D+02 0.168036408307495D+02 -.821865383143057D+01 0.239839199202338D+02
 0.000000000000000D+00 -.000000000000000D+00 0.000000000000000D+00 0.000000000000000D+00
 0.493316557766190D+02 -.422048051756884D+02 -.186820655477678D+02 0.174168627661218D+02
 0.306055949891349D+03 0.000000000000000D+00 0.000000000000000D+00 0.306055949891349D+03
 0.221431726665261D+03 0.000000000000000D+00 0.000000000000000D+00 -.221431726665261D+03
 0.163408075866151D+03 0.933392805475229D+02 -.255137836885445D+02 -.414007826863556D+02
 0.124641818779454D+03 0.667682285954132D+02 -.467665145177689D+02 0.239839199202338D+02
 0.195026064088840D+03 -.139118790281275D+03 0.107330651297942D+03 0.846242232260877D+02
 0.444117178221646D+02 -.209887188616608D+02 -.350503530916283D+02 0.174168627661218D+02
0.908663366866D-04 0.000000000000D+00 0.000000000000D+00 0.878002927053D-05 0.000000000000D+00  6 -1 1 25 23 21 21 2 0.41054080D-02 0.11481005D+00 0.18171332D+05 0.18171332D+05 0.18171332D+05 0.12384371D+01  1  2  2  1  6  1       -1 0.817425047726D-01 0.100000000000D+01
0.122966753936D-05 0.479514832621D-05 -.348950658532D-06 0.878002927053D-05 0.000000000000D+00  6 -1 1 25 23 21 21 4 0.41054080D-02 0.11481005D+00 0.18171332D+05 0.18171332D+05 0.18171332D+05 0.12384371D+01  1  2  3  1  6  1       -1 0.169660423758D-02 0.100000000000D+01
0.312748594773D-05 0.000000000000D+00 0.000000000000D+00 0.878002927053D-05 0.000000000000D+00  6 -1 1 25 23 21 21 4 0.41054080D-02 0.11481005D+00 0.18171332D+05 0.18171332D+05 0.18171332D+05 0.12384371D+01  1  2 15  1  6  1       -1 0.431507358052D-02 0.100000000000D+01
0.190568220869D-04 0.000000000000D+00 -.509862148845D-04 0.878002927053D-05 0.000000000000D+00  6 -1 1 25 23 21 21 4 0.14078702D-01 0.11481005D+00 0.18171332D+05 0.18171332D+05 0.18171332D+05 0.12384371D+01  1  2  5  1  6  1       -1 0.410062009840D-02 0.100000000000D+01
0.450720166518D-05 0.000000000000D+00 -.732571251969D-05 0.878002927053D-05 0.000000000000D+00  6 21 1 25 23 1 21 4 0.14078702D-01 0.11481005D+00 0.18171332D+05 0.18171332D+05 0.18171332D+05 0.12384371D+01  3  4  5  4  5  1       -1 0.135222123446D-01 0.100000000000D+01
  </mgrwgt>
  </event>
  <event>
  6     66 0.47607883E-03 0.23667268E+02 0.75467711E-02 0.11976603E+00
       -1 -1    0    0    0  501 0.00000000E+00 0.00000000E+00 0.54737831E+03 0.54737840E+03 0.32000000E+00 0.0000E+00 0.9000E+01
        1 -1    0    0  503    0 0.00000000E+00 0.00000000E+00 -.16897627E+03 0.16897657E+03 0.32000000E+00 0.0000E+00 0.9000E+01
       25  1    1    2    0    0 -.21793672E+02 -.37582180E+02 0.13584786E+03 0.18964974E+03 0.12500000E+03 0.0000E+00 0.9000E+01
       23  1    1    2    0    0 0.23882710E+02 0.46509151E+02 0.23766951E+03 0.25987599E+03 0.91188000E+02 0.0000E+00 0.9000E+01
       21  1    1    2  502  501 0.68598737E+01 0.28179724E+02 0.13145908E+03 0.13462246E+03 0.75000000E+00 0.0000E+00 0.9000E+01
       21  1    1    2  503  502 -.89489120E+01 -.37106695E+02 -.12657441E+03 0.13220678E+03 0.75000000E+00 0.0000E+00 0.9000E+01
#aMCatNLO 2  0  0  2  5 0.17922714D+02 0.00000000D+00  -5  6  0 0.00000000D+00 0.00000000D+00 0.00000000D+00 0.00000000D+00 0.00000000D+00
  <mgrwgt>
 0.6236262657D-01    1    2    0
 0.145577224242268D+03 0.000000000000000D+00 0.000000000000000D+00 0.145577224242268D+03
 0.145577224242268D+03 0.000000000000000D+00 0.000000000000000D+00 -.145577224242268D+03
 0.150345516022980D+03 -.262931381351528D+02 -.562392064050108D+02 -.558980924375464D+02
 0.102518594808363D+03 0.206569503604419D+02 0.331335446620773D+02 0.258895646431863D+02
 0.382903376531932D+02 0.563618777471085D+01 0.231056617429335D+02 0.300085277943601D+02
 0.000000000000000D+00 -.000000000000000D+00 -.000000000000000D+00 -.000000000000000D+00
 0.147581939028702D+03 0.000000000000000D+00 0.000000000000000D+00 0.147581939028702D+03
 0.626727922866544D+03 0.000000000000000D+00 0.000000000000000D+00 -.626727922866544D+03
 0.143656384011019D+03 -.217941715355804D+02 -.375842256278173D+02 -.558980924375464D+02
 0.108253529032921D+03 0.238822925952140D+02 0.465074375456700D+02 0.258895646431863D+02
 0.417359667589932D+02 0.686079098508468D+01 0.281834832478508D+02 0.300085277943601D+02
 0.480663982092312D+03 -.894891204471830D+01 -.371066951657035D+02 -.479145983837842D+03
0.101842288497D-02 0.000000000000D+00 0.000000000000D+00 0.284983402248D-04 0.120413266272D-06  6 -1 1 25 23 21 21 4 0.84211912D-01 0.25996328D-01 0.23198979D+05 0.23198979D+05 0.23198979D+05 0.12267943D+01  1  2  1  2  6  2        1 0.623626265713D-01 0.100000000000D+01
  </mgrwgt>
  </event>
  <event>
  5     66 -.47607883E-03 0.26578155E+02 0.75467711E-02 0.11480124E+00
       -1 -1    0    0    0  501 0.00000000E+00 0.00000000E+00 0.19486665E+03 0.19486691E+03 0.32000000E+00 0.0000E+00 0.9000E+01
        1 -1    0    0  502    0 -.00000000E+00 -.00000000E+00 -.40390461E+03 0.40390474E+03 0.32000000E+00 0.0000E+00 0.9000E+01
       25  1    1    2    0    0 -.73104789E+02 0.12223616E+03 -.25508651E+03 0.31777369E+03 0.12500000E+03 0.0000E+00 0.9000E+01
       23  1    1    2    0    0 0.70290890E+02 -.14866458E+03 -.38873099E+02 0.19201129E+03 0.91188000E+02 0.0000E+00 0.9000E+01
       21  1    1    2  502  501 0.28138988E+01 0.26428414E+02 0.84921646E+02 0.88986671E+02 0.75000000E+00 0.0000E+00 0.9000E+01
#aMCatNLO 1  0  0  5  2 0.36638261D+01 0.00000000D+00  -5  6  0 0.00000000D+00 0.00000000D+00 0.00000000D+00 0.00000000D+00 0.00000000D+00
  <mgrwgt>
 -.4175365450D+00   25    2    0
 0.280548845458386D+03 0.000000000000000D+00 0.000000000000000D+00 0.280548845458386D+03
 0.280548845458386D+03 -.000000000000000D+00 -.000000000000000D+00 -.280548845458386D+03
 0.244077627094631D+03 -.731048104850525D+02 0.122235961699587D+03 -.153827645107982D+03
 0.190421320473988D+03 0.702908734780156D+02 -.148664735289281D+03 0.300502501507564D+02
 0.126598743348154D+03 0.281393700703696D+01 0.264287735896938D+02 0.123777394957225D+03
 0.000000000000000D+00 0.000000000000000D+00 0.000000000000000D+00 0.000000000000000D+00
 0.280548845458386D+03 0.000000000000000D+00 0.000000000000000D+00 0.280548845458386D+03
 0.280548845458386D+03 -.000000000000000D+00 -.000000000000000D+00 -.280548845458386D+03
 0.244029542885248D+03 -.731027478638709D+02 0.122255334040927D+03 -.153736916041905D+03
 0.190421299126372D+03 0.702924828255162D+02 -.148649620139007D+03 0.301210409469658D+02
 0.586952435661889D+02 0.969469912702298D+00 0.157991343072718D+02 0.565206077508318D+02
 0.679516053389632D+02 0.184079512565238D+01 0.105951517908081D+02 0.670952673441080D+02
0.458955352437D-04 0.000000000000D+00 0.000000000000D+00 0.157679112916D-04 0.000000000000D+00  6 -1 1 25 23 21 21 2 0.29979514D-01 0.62139201D-01 0.40827284D+05 0.40827284D+05 0.40827284D+05 0.12010985D+01  1  2  2  3  6  5       21 0.407531239922D-02 0.100000000000D+01
0.971690742486D-05 0.242197393478D-05 -.176250939908D-06 0.157679112916D-04 0.000000000000D+00  6 -1 1 25 23 21 21 4 0.29979514D-01 0.62139201D-01 0.40827284D+05 0.40827284D+05 0.40827284D+05 0.12010985D+01  1  2  3  3  6  5       21 0.124473174771D-02 0.100000000000D+01
0.781415028719D-06 0.000000000000D+00 0.000000000000D+00 0.157679112916D-04 0.000000000000D+00  6 -1 1 25 23 21 21 4 0.29979514D-01 0.62139201D-01 0.40827284D+05 0.40827284D+05 0.40827284D+05 0.12010985D+01  1  2 15  3  6  5       21 0.100098935994D-03 0.100000000000D+01
0.702300870672D-04 0.000000000000D+00 0.000000000000D+00 0.157678831588D-04 0.000000000000D+00  6 -1 1 25 23 21 21 4 0.29979514D-01 0.62139201D-01 0.40828279D+05 0.40828279D+05 0.40828279D+05 0.12010974D+01  1  2 12  3  6  5       21 0.899641204017D-02 0.100000000000D+01
0.727653668247D-04 0.000000000000D+00 0.000000000000D+00 0.157678831588D-04 0.000000000000D+00  6 -1 1 25 23 21 21 4 0.29979514D-01 0.62139201D-01 0.40828279D+05 0.40828279D+05 0.40828279D+05 0.12010974D+01  1  2 12  3  6  5       21 0.932117913485D-02 0.100000000000D+01
-.835069531665D-02 0.000000000000D+00 0.000000000000D+00 0.157679112916D-04 0.000000000000D+00  6 -1 1 25 23 21 21 4 0.29979514D-01 0.62139201D-01 0.40827284D+05 0.40827284D+05 0.40827284D+05 0.12010985D+01  1  2  4  3  6  5       21 -.106972055218D+01 0.100000000000D+01
-.248005990980D-02 0.000000000000D+00 0.000000000000D+00 0.157679112916D-04 0.000000000000D+00  6 -1 1 25 23 21 21 4 0.29979514D-01 0.62139201D-01 0.40827284D+05 0.40827284D+05 0.40827284D+05 0.12010985D+01  1  2  5  3  6  5       21 -.317694629676D+00 0.100000000000D+01
0.465142115517D-02 0.000000000000D+00 -.000000000000D+00 0.157679112916D-04 0.000000000000D+00  6 -1 1 25 23 21 21 4 0.29979514D-01 0.62139201D-01 0.40827284D+05 0.40827284D+05 0.40827284D+05 0.12010985D+01  1  2  6  3  6  5       21 0.595845090484D+00 0.100000000000D+01
0.273334244446D-02 0.000000000000D+00 0.000000000000D+00 0.157679112916D-04 0.762041223027D-05  6 -1 1 25 23 21 21 4 0.29979514D-01 0.62139201D-01 0.40828279D+05 0.40828279D+05 0.40828279D+05 0.12010974D+01  1  2 11  3  6  5       21 0.350138749703D+00 0.100000000000D+01
0.647628209427D-06 0.000000000000D+00 0.000000000000D+00 0.157678831588D-04 0.000000000000D+00  6 -1 1 25 23 1 -1 4 0.29979514D-01 0.62139201D-01 0.40828279D+05 0.40828279D+05 0.40828279D+05 0.12010974D+01  1  2 12  6  6  5       21 0.829606008500D-04 0.100000000000D+01
0.672509361349D-06 0.000000000000D+00 0.000000000000D+00 0.157678831588D-04 0.000000000000D+00  6 -1 1 25 23 1 -1 4 0.29979514D-01 0.62139201D-01 0.40828279D+05 0.40828279D+05 0.40828279D+05 0.12010974D+01  1  2 12  6  6  5       21 0.861478544057D-04 0.100000000000D+01
-.229442180955D-04 0.000000000000D+00 0.000000000000D+00 0.157679112916D-04 0.000000000000D+00  6 -1 1 25 23 1 -1 4 0.29979514D-01 0.62139201D-01 0.40827284D+05 0.40827284D+05 0.40827284D+05 0.12010985D+01  1  2  5  6  6  5       21 -.293914467238D-02 0.100000000000D+01
0.238884294374D-04 0.000000000000D+00 0.000000000000D+00 0.157679112916D-04 0.562154932915D-07  6 -1 1 25 23 1 -1 4 0.29979514D-01 0.62139201D-01 0.40828279D+05 0.40828279D+05 0.40828279D+05 0.12010974D+01  1  2 11  6  6  5       21 0.306008668344D-02 0.100000000000D+01
0.647628209427D-06 0.000000000000D+00 0.000000000000D+00 0.157678831588D-04 0.000000000000D+00  6 -1 1 25 23 2 -2 4 0.29979514D-01 0.62139201D-01 0.40828279D+05 0.40828279D+05 0.40828279D+05 0.12010974D+01  1  2 12  7  6  5       21 0.829606008500D-04 0.100000000000D+01
0.647628209427D-06 0.000000000000D+00 0.000000000000D+00 0.157678831588D-04 0.000000000000D+00  6 -1 1 25 23 4 -4 4 0.29979514D-01 0.62139201D-01 0.40828279D+05 0.40828279D+05 0.40828279D+05 0.12010974D+01  1  2 12  7  6  5       21 0.829606008500D-04 0.100000000000D+01
0.672509361349D-06 0.000000000000D+00 0.000000000000D+00 0.157678831588D-04 0.000000000000D+00  6 -1 1 25 23 2 -2 4 0.29979514D-01 0.62139201D-01 0.40828279D+05 0.40828279D+05 0.40828279D+05 0.12010974D+01  1  2 12  7  6  5       21 0.861478544057D-04 0.100000000000D+01
0.672509361349D-06 0.000000000000D+00 0.000000000000D+00 0.157678831588D-04 0.000000000000D+00  6 -1 1 25 23 4 -4 4 0.29979514D-01 0.62139201D-01 0.40828279D+05 0.40828279D+05 0.40828279D+05 0.12010974D+01  1  2 12  7  6  5       21 0.861478544057D-04 0.100000000000D+01
-.229442180955D-04 0.000000000000D+00 0.000000000000D+00 0.157679112916D-04 0.000000000000D+00  6 -1 1 25 23 2 -2 4 0.29979514D-01 0.62139201D-01 0.40827284D+05 0.40827284D+05 0.40827284D+05 0.12010985D+01  1  2  5  7  6  5       21 -.293914467238D-02 0.100000000000D+01
-.229442180955D-04 0.000000000000D+00 0.000000000000D+00 0.157679112916D-04 0.000000000000D+00  6 -1 1 25 23 4 -4 4 0.29979514D-01 0.62139201D-01 0.40827284D+05 0.40827284D+05 0.40827284D+05 0.12010985D+01  1  2  5  7  6  5       21 -.293914467238D-02 0.100000000000D+01
0.212784340888D-04 0.000000000000D+00 0.000000000000D+00 0.157679112916D-04 0.482551078236D-07  6 -1 1 25 23 2 -2 4 0.29979514D-01 0.62139201D-01 0.40828279D+05 0.40828279D+05 0.40828279D+05 0.12010974D+01  1  2 11  7  6  5       21 0.272574858764D-02 0.100000000000D+01
0.212784340888D-04 0.000000000000D+00 0.000000000000D+00 0.157679112916D-04 0.482551078236D-07  6 -1 1 25 23 4 -4 4 0.29979514D-01 0.62139201D-01 0.40828279D+05 0.40828279D+05 0.40828279D+05 0.12010974D+01  1  2 11  7  6  5       21 0.272574858764D-02 0.100000000000D+01
0.647628209427D-06 0.000000000000D+00 0.000000000000D+00 0.157678831588D-04 0.000000000000D+00  6 -1 1 25 23 3 -3 4 0.29979514D-01 0.62139201D-01 0.40828279D+05 0.40828279D+05 0.40828279D+05 0.12010974D+01  1  2 12  8  6  5       21 0.829606008500D-04 0.100000000000D+01
0.672509361349D-06 0.000000000000D+00 0.000000000000D+00 0.157678831588D-04 0.000000000000D+00  6 -1 1 25 23 3 -3 4 0.29979514D-01 0.62139201D-01 0.40828279D+05 0.40828279D+05 0.40828279D+05 0.12010974D+01  1  2 12  8  6  5       21 0.861478544057D-04 0.100000000000D+01
-.229442180955D-04 0.000000000000D+00 0.000000000000D+00 0.157679112916D-04 0.000000000000D+00  6 -1 1 25 23 3 -3 4 0.29979514D-01 0.62139201D-01 0.40827284D+05 0.40827284D+05 0.40827284D+05 0.12010985D+01  1  2  5  8  6  5       21 -.293914467238D-02 0.100000000000D+01
0.212774567933D-04 0.000000000000D+00 0.000000000000D+00 0.157679112916D-04 0.482528915185D-07  6 -1 1 25 23 3 -3 4 0.29979514D-01 0.62139201D-01 0.40828279D+05 0.40828279D+05 0.40828279D+05 0.12010974D+01  1  2 11  8  6  5       21 0.272562339694D-02 0.100000000000D+01
  </mgrwgt>
  </event>
  <event>
  6     66 -.47607883E-03 0.14644759E+02 0.75467711E-02 0.11721040E+00
       -1 -1    0    0    0  501 0.00000000E+00 0.00000000E+00 0.44332497E+02 0.44333652E+02 0.32000000E+00 0.0000E+00 0.9000E+01
        1 -1    0    0  502    0 -.00000000E+00 -.00000000E+00 -.74023564E+03 0.74023571E+03 0.32000000E+00 0.0000E+00 0.9000E+01
       25  1    1    2    0    0 0.12526402E+03 0.37054607E+02 -.45148409E+03 0.48634042E+03 0.12500000E+03 0.0000E+00 0.9000E+01
       23  1    1    2    0    0 -.10765990E+03 -.38092365E+02 -.20324790E+03 0.25033306E+03 0.91188000E+02 0.0000E+00 0.9000E+01
       21  1    1    2  503  501 -.16729156E+02 0.68921968E+01 -.26898621E+02 0.32426306E+02 0.75000000E+00 0.0000E+00 0.9000E+01
       21  1    1    2  502  503 -.87496984E+00 -.58544392E+01 -.14272529E+02 0.15469571E+02 0.75000000E+00 0.0000E+00 0.9000E+01
#aMCatNLO 2  0  0  5  2 0.63881793D+01 0.00000000D+00  -5  6  0 0.00000000D+00 0.00000000D+00 0.00000000D+00 0.00000000D+00 0.00000000D+00
  <mgrwgt>
 -.2159933036D+00    3    2    0
 0.181154560028326D+03 0.000000000000000D+00 0.000000000000000D+00 0.181154560028326D+03
 0.181154560028326D+03 -.000000000000000D+00 -.000000000000000D+00 -.181154560028326D+03
 0.188423960252090D+03 0.128746928650831D+03 0.368492912134148D+02 -.441015520943206D+02
 0.149644753593954D+03 -.104856542204131D+03 -.382576219068521D+02 0.402462527102938D+02
 0.242404062106064D+02 -.238903864466997D+02 0.140833069343729D+01 0.385529938402681D+01
 0.000000000000000D+00 0.000000000000000D+00 0.000000000000000D+00 -.000000000000000D+00
 0.181154560028326D+03 0.000000000000000D+00 0.000000000000000D+00 0.181154560028326D+03
 0.181154560028326D+03 -.000000000000000D+00 -.000000000000000D+00 -.181154560028326D+03
 0.185873503255969D+03 0.125126182184960D+03 0.370627330676274D+02 -.435172559109695D+02
 0.151784460936751D+03 -.107772401566344D+03 -.380857329235276D+02 0.407167980833512D+02
 0.182417311512864D+02 -.162599014806155D+02 0.721591368628806D+01 0.403818633900549D+01
 0.640942471264482D+01 -.109387913800003D+01 -.619291383038788D+01 -.123772851138725D+01
-.644337546217D-04 0.000000000000D+00 0.000000000000D+00 0.207636640952D-04 0.000000000000D+00  6 -1 1 25 23 21 21 4 0.68204784D-02 0.11388250D+00 0.30801432D+05 0.30801432D+05 0.30801432D+05 0.12136985D+01  1  2 13  3  6  5       21 -.393947868935D-01 0.100000000000D+01
-.667257919166D-04 0.000000000000D+00 0.000000000000D+00 0.207636640952D-04 0.000000000000D+00  6 -1 1 25 23 21 21 4 0.68204784D-02 0.11388250D+00 0.30801432D+05 0.30801432D+05 0.30801432D+05 0.12136985D+01  1  2 13  3  6  5       21 -.407961381157D-01 0.100000000000D+01
-.222159706694D-03 0.000000000000D+00 0.000000000000D+00 0.207614816184D-04 0.000000000000D+00  6 -1 1 25 23 21 21 4 0.68204784D-02 0.11388250D+00 0.30844703D+05 0.30844703D+05 0.30844703D+05 0.12136348D+01  1  2  8  3  6  5       21 -.135802378574D+00 0.100000000000D+01
  </mgrwgt>
  </event>
  <event>
  5     66 -.47607883E-03 0.61405115E+02 0.75467711E-02 0.11379998E+00
       -1 -1    0    0    0  501 0.00000000E+00 0.00000000E+00 0.12864331E+03 0.12864371E+03 0.32000000E+00 0.0000E+00 0.9000E+01
        1 -1    0    0  502    0 0.00000000E+00 0.00000000E+00 -.25430608E+03 0.25430628E+03 0.32000000E+00 0.0000E+00 0.9000E+01
       25  1    1    2    0    0 -.30092168E+02 -.68779935E+02 -.33683733E+02 0.14965230E+03 0.12500000E+03 0.0000E+00 0.9000E+01
       23  1    1    2    0    0 -.17584866E+02 0.10747232E+03 -.96511137E+02 0.17172413E+03 0.91188000E+02 0.0000E+00 0.9000E+01
       21  1    1    2  502  501 0.47677034E+02 -.38692382E+02 0.45320958E+01 0.61573553E+02 0.75000000E+00 0.0000E+00 0.9000E+01
#aMCatNLO 1  0  0  2  2 0.19423841D+02 0.00000000D+00  -5  6  0 0.00000000D+00 0.00000000D+00 0.00000000D+00 0.00000000D+00 0.00000000D+00
  <mgrwgt>
 -.1861224836D-01    5    4    0
 0.180872579501028D+03 0.000000000000000D+00 0.000000000000000D+00 0.180872579501028D+03
 0.180872579501028D+03 0.000000000000000D+00 0.000000000000000D+00 -.180872579501028D+03
 0.146723323283162D+03 -.300933888232523D+02 -.687789440281668D+02 0.163272288756615D+02
 0.148265376888728D+03 -.175860994833157D+02 0.107473317474179D+03 -.425157121075723D+02
 0.667564588301660D+02 0.476794883065680D+02 -.386943734460118D+02 0.261884832319108D+02
 0.000000000000000D+00 -.000000000000000D+00 -.000000000000000D+00 -.000000000000000D+00
 0.191769508116020D+03 0.000000000000000D+00 0.000000000000000D+00 0.191769508116020D+03
 0.360550389279410D+03 0.000000000000000D+00 0.000000000000000D+00 -.360550389279410D+03
 0.140340255296444D+03 -.273711751858423D+01 -.616142600507575D+02 0.163272288756615D+02
 0.153203913630118D+03 0.111429916200069D+02 0.114997546796995D+03 -.425157121075723D+02
 0.752908533090519D+02 0.612161578771443D+02 -.351490818198375D+02 0.261884832319108D+02
 0.183484875159815D+03 -.696220319785670D+02 -.182342049264001D+02 -.168780881163390D+03
 0.180872579501028D+03 0.000000000000000D+00 0.000000000000000D+00 0.180872579501028D+03
 0.180872579501028D+03 0.000000000000000D+00 0.000000000000000D+00 -.180872579501028D+03
 0.146723323283162D+03 -.300933888232523D+02 -.687789440281668D+02 0.163272288756615D+02
 0.148265376888728D+03 -.175860994833157D+02 0.107473317474179D+03 -.425157121075723D+02
 0.000000000000000D+00 -.000000000000000D+00 -.000000000000000D+00 -.000000000000000D+00
 0.667564588301660D+02 0.476794883065680D+02 -.386943734460118D+02 0.261884832319108D+02
 0.191769508116020D+03 0.000000000000000D+00 0.000000000000000D+00 0.191769508116020D+03
 0.360550389279410D+03 0.000000000000000D+00 0.000000000000000D+00 -.360550389279410D+03
 0.140340255296444D+03 -.273711751858423D+01 -.616142600507575D+02 0.163272288756615D+02
 0.153203913630118D+03 0.111429916200069D+02 0.114997546796995D+03 -.425157121075723D+02
 0.183484875159815D+03 -.696220319785670D+02 -.182342049264001D+02 -.168780881163390D+03
 0.752908533090519D+02 0.612161578771443D+02 -.351490818198375D+02 0.261884832319108D+02
0.306376189612D-04 0.000000000000D+00 0.000000000000D+00 0.379517557923D-05 0.000000000000D+00  6 -1 1 25 23 21 21 2 0.19791324D-01 0.39124059D-01 0.30494943D+05 0.30494943D+05 0.30494943D+05 0.12141532D+01  1  2  2  2  6  2        1 0.985326634370D-02 0.100000000000D+01
0.243249470690D-06 0.161679157142D-05 -.117656523881D-06 0.379517557923D-05 0.000000000000D+00  6 -1 1 25 23 21 21 4 0.19791324D-01 0.39124059D-01 0.30494943D+05 0.30494943D+05 0.30494943D+05 0.12141532D+01  1  2  3  2  6  2        1 0.115325176055D-03 0.100000000000D+01
0.109296575153D-05 0.000000000000D+00 0.000000000000D+00 0.379517557923D-05 0.000000000000D+00  6 -1 1 25 23 21 21 4 0.19791324D-01 0.39124059D-01 0.30494943D+05 0.30494943D+05 0.30494943D+05 0.12141532D+01  1  2 15  2  6  2        1 0.518177767707D-03 0.100000000000D+01
-.128087033663D-03 0.000000000000D+00 -.197068881943D-04 0.379517557923D-05 0.000000000000D+00  6 -1 1 25 23 21 21 4 0.19791324D-01 0.80596200D-01 0.30494943D+05 0.30494943D+05 0.30494943D+05 0.12141532D+01  1  2  5  2  6  2        1 -.242629605034D-01 0.100000000000D+01
-.880231212965D-05 0.000000000000D+00 -.154005377507D-05 0.379517557923D-05 0.000000000000D+00  6 -1 21 25 23 -1 21 4 0.19791324D-01 0.80596200D-01 0.30494943D+05 0.30494943D+05 0.30494943D+05 0.12141532D+01  3  4  5  5  5  2        1 -.483605714752D-02 0.100000000000D+01
  </mgrwgt>
  </event>
  <event>
  5     66 0.47607883E-03 0.20436156E+02 0.75467711E-02 0.11644040E+00
       -1 -1    0    0    0  501 0.00000000E+00 0.00000000E+00 0.50766501E+02 0.50767509E+02 0.32000000E+00 0.0000E+00 0.9000E+01
        1 -1    0    0  502    0 -.00000000E+00 -.00000000E+00 -.92496329E+03 0.92496334E+03 0.32000000E+00 0.0000E+00 0.9000E+01
       25  1    1    2    0    0 -.75982064E+02 -.10034830E+03 -.68512311E+03 0.70771585E+03 0.12500000E+03 0.0000E+00 0.9000E+01
       23  1    1    2    0    0 0.95676044E+02 0.10577544E+03 -.17260517E+03 0.24176465E+03 0.91188000E+02 0.0000E+00 0.9000E+01
       21  1    1    2  502  501 -.19693980E+02 -.54271383E+01 -.16468510E+02 0.26250353E+02 0.75000000E+00 0.0000E+00 0.9000E+01
#aMCatNLO 1  0  0  5  2 0.83163221D+01 0.00000000D+00  -5  6  0 0.00000000D+00 0.00000000D+00 0.00000000D+00 0.00000000D+00 0.00000000D+00
  <mgrwgt>
 0.3388469171D+00   14    2    0
 0.216697181019725D+03 0.000000000000000D+00 0.000000000000000D+00 0.216697181019725D+03
 0.216697181019725D+03 -.000000000000000D+00 -.000000000000000D+00 -.216697181019725D+03
 0.211372572647919D+03 -.759780281330721D+02 -.100347187193520D+03 -.114939748264725D+03
 0.196141713346363D+03 0.956797890524896D+02 0.105776469620513D+03 0.990607733259662D+02
 0.258800760451678D+02 -.197017609194175D+02 -.542928242699244D+01 0.158789749387589D+02
 0.000000000000000D+00 0.000000000000000D+00 0.000000000000000D+00 -.000000000000000D+00
 0.216697181019725D+03 0.000000000000000D+00 0.000000000000000D+00 0.216697181019725D+03
 0.216697181019725D+03 -.000000000000000D+00 -.000000000000000D+00 -.216697181019725D+03
 0.211690374404991D+03 -.804931560380375D+02 -.101591436613170D+03 -.111300702844294D+03
 0.195258346385933D+03 0.915025824594447D+02 0.104625342346037D+03 0.102427465220984D+03
 0.844996583233191D+01 0.575439935489558D+01 0.263218857775249D+01 0.560003517159520D+01
 0.179956754161934D+02 -.167638257763028D+02 -.566609431062032D+01 0.327320245171483D+01
0.950232070461D-03 0.000000000000D+00 0.000000000000D+00 0.205354252014D-04 0.000000000000D+00  6 -1 1 25 23 21 21 2 0.78103127D-02 0.14230213D+00 0.33693263D+05 0.33693263D+05 0.33693263D+05 0.12096418D+01  1  2  2  3  6  5       21 0.226225680392D+00 0.100000000000D+01
0.282385288623D-03 0.501451240177D-04 -.364914135242D-05 0.205354252014D-04 0.000000000000D+00  6 -1 1 25 23 21 21 4 0.78103127D-02 0.14230213D+00 0.33693263D+05 0.33693263D+05 0.33693263D+05 0.12096418D+01  1  2  3  3  6  5       21 0.983711740451D-01 0.100000000000D+01
0.827845505749D-05 0.000000000000D+00 0.000000000000D+00 0.205354252014D-04 0.000000000000D+00  6 -1 1 25 23 21 21 4 0.78103127D-02 0.14230213D+00 0.33693263D+05 0.33693263D+05 0.33693263D+05 0.12096418D+01  1  2 15  3  6  5       21 0.288386603727D-02 0.100000000000D+01
0.122641110709D-03 0.000000000000D+00 0.000000000000D+00 0.205088375072D-04 0.000000000000D+00  6 -1 1 25 23 21 21 4 0.78103127D-02 0.14230213D+00 0.34285847D+05 0.34285847D+05 0.34285847D+05 0.12088585D+01  1  2 12  3  6  5       21 0.426155501552D-01 0.100000000000D+01
0.159818922375D-03 0.000000000000D+00 0.000000000000D+00 0.205088375072D-04 0.000000000000D+00  6 -1 1 25 23 21 21 4 0.78103127D-02 0.14230213D+00 0.34285847D+05 0.34285847D+05 0.34285847D+05 0.12088585D+01  1  2 12  3  6  5       21 0.555341619366D-01 0.100000000000D+01
-.332547599141D-03 0.000000000000D+00 0.000000000000D+00 0.205354252014D-04 0.000000000000D+00  6 -1 1 25 23 21 21 4 0.78103127D-02 0.14230213D+00 0.33693263D+05 0.33693263D+05 0.33693263D+05 0.12096418D+01  1  2  4  3  6  5       21 -.115845616154D+00 0.100000000000D+01
0.964639755968D-05 0.000000000000D+00 0.000000000000D+00 0.205088375072D-04 0.000000000000D+00  6 -1 1 25 23 1 -1 4 0.78103127D-02 0.14230213D+00 0.34285847D+05 0.34285847D+05 0.34285847D+05 0.12088585D+01  1  2 12  6  6  5       21 0.335194729275D-02 0.100000000000D+01
0.112626854576D-04 0.000000000000D+00 0.000000000000D+00 0.205088375072D-04 0.000000000000D+00  6 -1 1 25 23 1 -1 4 0.78103127D-02 0.14230213D+00 0.34285847D+05 0.34285847D+05 0.34285847D+05 0.12088585D+01  1  2 12  6  6  5       21 0.391357787144D-02 0.100000000000D+01
0.964639755968D-05 0.000000000000D+00 0.000000000000D+00 0.205088375072D-04 0.000000000000D+00  6 -1 1 25 23 2 -2 4 0.78103127D-02 0.14230213D+00 0.34285847D+05 0.34285847D+05 0.34285847D+05 0.12088585D+01  1  2 12  7  6  5       21 0.335194729275D-02 0.100000000000D+01
0.964639755968D-05 0.000000000000D+00 0.000000000000D+00 0.205088375072D-04 0.000000000000D+00  6 -1 1 25 23 4 -4 4 0.78103127D-02 0.14230213D+00 0.34285847D+05 0.34285847D+05 0.34285847D+05 0.12088585D+01  1  2 12  7  6  5       21 0.335194729275D-02 0.100000000000D+01
0.112626854576D-04 0.000000000000D+00 0.000000000000D+00 0.205088375072D-04 0.000000000000D+00  6 -1 1 25 23 2 -2 4 0.78103127D-02 0.14230213D+00 0.34285847D+05 0.34285847D+05 0.34285847D+05 0.12088585D+01  1  2 12  7  6  5       21 0.391357787144D-02 0.100000000000D+01
0.112626854576D-04 0.000000000000D+00 0.000000000000D+00 0.205088375072D-04 0.000000000000D+00  6 -1 1 25 23 4 -4 4 0.78103127D-02 0.14230213D+00 0.34285847D+05 0.34285847D+05 0.34285847D+05 0.12088585D+01  1  2 12  7  6  5       21 0.391357787144D-02 0.100000000000D+01
0.964639755968D-05 0.000000000000D+00 0.000000000000D+00 0.205088375072D-04 0.000000000000D+00  6 -1 1 25 23 3 -3 4 0.78103127D-02 0.14230213D+00 0.34285847D+05 0.34285847D+05 0.34285847D+05 0.12088585D+01  1  2 12  8  6  5       21 0.335194729275D-02 0.100000000000D+01
0.112626854576D-04 0.000000000000D+00 0.000000000000D+00 0.205088375072D-04 0.000000000000D+00  6 -1 1 25 23 3 -3 4 0.78103127D-02 0.14230213D+00 0.34285847D+05 0.34285847D+05 0.34285847D+05 0.12088585D+01  1  2 12  8  6  5       21 0.391357787144D-02 0.100000000000D+01
  </mgrwgt>
  </event>
  <event>
  5     66 0.47607883E-03 0.32538322E+02 0.75467711E-02 0.11919099E+00
       -1 -1    0    0    0  501 0.00000000E+00 0.00000000E+00 0.91048506E+02 0.91049068E+02 0.32000000E+00 0.0000E+00 0.9000E+01
        1 -1    0    0  502    0 0.00000000E+00 0.00000000E+00 -.26240885E+03 0.26240904E+03 0.32000000E+00 0.0000E+00 0.9000E+01
       25  1    1    2    0    0 -.56737901E+02 0.68669043E+02 -.56327993E+02 0.16350067E+03 0.12500000E+03 0.0000E+00 0.9000E+01
       23  1    1    2    0    0 0.24213967E+02 -.69392910E+02 -.78289053E+02 0.14087626E+03 0.91188000E+02 0.0000E+00 0.9000E+01
       21  1    1    2  502  501 0.32523934E+02 0.72386708E+00 -.36743293E+02 0.49081182E+02 0.75000000E+00 0.0000E+00 0.9000E+01
#aMCatNLO 1  0  0  2  2 0.11030373D+02 0.00000000D+00  -5  6  0 0.00000000D+00 0.00000000D+00 0.00000000D+00 0.00000000D+00 0.00000000D+00
  <mgrwgt>
 0.2713152167D-01    4    2    0
 0.154570589945610D+03 0.000000000000000D+00 0.000000000000000D+00 0.154570589945610D+03
 0.154570589945610D+03 0.000000000000000D+00 0.000000000000000D+00 -.154570589945610D+03
 0.155717640695101D+03 -.567415077127398D+02 0.686689630223308D+02 0.262289619232540D+02
 0.117674444788522D+03 0.242112415166261D+02 -.693929710205223D+02 -.114216885553534D+02
 0.357490944075958D+02 0.325302661961136D+02 0.724007998191478D+00 -.148072733679007D+02
 0.000000000000000D+00 0.000000000000000D+00 -.000000000000000D+00 0.000000000000000D+00
 0.181760188269295D+03 0.000000000000000D+00 0.000000000000000D+00 0.181760188269295D+03
 0.155791723438337D+03 0.000000000000000D+00 0.000000000000000D+00 -.155791723438337D+03
 0.158812682856669D+03 -.586655929856597D+02 0.739382038746033D+02 0.262289619232540D+02
 0.115127234000079D+03 0.227871172013296D+02 -.654929078962474D+02 -.114216885553534D+02
 0.353979861340314D+02 0.320950361415499D+02 0.191591566253520D+01 -.148072733679007D+02
 0.282140087168522D+02 0.378343964278020D+01 -.103612116408912D+02 0.259684648309582D+02
0.529847215794D-04 0.000000000000D+00 0.000000000000D+00 0.143597276214D-04 0.000000000000D+00  6 -1 1 25 23 21 21 2 0.14007521D-01 0.40370650D-01 0.22974966D+05 0.22974966D+05 0.22974966D+05 0.12272504D+01  1  2  2  2  6  2        1 0.288218179045D-01 0.100000000000D+01
0.659165871629D-05 0.279608057572D-05 -.203475282063D-06 0.143597276214D-04 0.000000000000D+00  6 -1 1 25 23 21 21 4 0.14007521D-01 0.40370650D-01 0.22974966D+05 0.22974966D+05 0.22974966D+05 0.12272504D+01  1  2  3  2  6  2        1 0.540047289564D-02 0.100000000000D+01
0.165197961922D-05 0.000000000000D+00 0.000000000000D+00 0.143597276214D-04 0.000000000000D+00  6 -1 1 25 23 21 21 4 0.14007521D-01 0.40370650D-01 0.22974966D+05 0.22974966D+05 0.22974966D+05 0.12272504D+01  1  2 15  2  6  2        1 0.135344858430D-02 0.100000000000D+01
-.103067643064D-04 0.000000000000D+00 0.000000000000D+00 0.143597276214D-04 0.000000000000D+00  6 -1 1 25 23 21 21 4 0.14007521D-01 0.40370650D-01 0.22974966D+05 0.22974966D+05 0.22974966D+05 0.12272504D+01  1  2  4  2  6  2        1 -.844421771120D-02 0.100000000000D+01
  </mgrwgt>
  </event>
  <event>
  5     66 0.47607883E-03 0.21483940E+02 0.75467711E-02 0.12003019E+00
       -1 -1    0    0    0  501 0.00000000E+00 0.00000000E+00 0.29802135E+02 0.29803853E+02 0.32000000E+00 0.0000E+00 0.9000E+01
        1 -1    0    0  502    0 -.00000000E+00 -.00000000E+00 -.84299281E+03 0.84299287E+03 0.32000000E+00 0.0000E+00 0.9000E+01
       25  1    1    2    0    0 -.13026373E+02 0.65379898E+02 -.31121167E+03 0.34193848E+03 0.12500000E+03 0.0000E+00 0.9000E+01
       23  1    1    2    0    0 -.84012235E+01 -.63858355E+02 -.49619465E+03 0.50859891E+03 0.91188000E+02 0.0000E+00 0.9000E+01
       21  1    1    2  502  501 0.21427596E+02 -.15215425E+01 -.57843577E+01 0.22259341E+02 0.75000000E+00 0.0000E+00 0.9000E+01
#aMCatNLO 1  0  0  5  2 0.21220076D+02 0.00000000D+00  -5  6  0 0.00000000D+00 0.00000000D+00 0.00000000D+00 0.00000000D+00 0.00000000D+00
  <mgrwgt>
 0.2795054499D+00    9    2    0
 0.158504770341994D+03 0.000000000000000D+00 0.000000000000000D+00 0.158504770341994D+03
 0.158504770341994D+03 -.000000000000000D+00 -.000000000000000D+00 -.158504770341994D+03
 0.143113338734267D+03 -.130276342279322D+02 0.653799875312100D+02 0.203018644589854D+02
 0.127450239818294D+03 -.840234680087897D+01 -.638582756478627D+02 -.614803503996190D+02
 0.464459621314285D+02 0.214299810288111D+02 -.152171188334732D+01 0.411784859406336D+02
 0.000000000000000D+00 0.000000000000000D+00 0.000000000000000D+00 0.000000000000000D+00
 0.158504770341994D+03 0.000000000000000D+00 0.000000000000000D+00 0.158504770341994D+03
 0.158504770341994D+03 -.000000000000000D+00 -.000000000000000D+00 -.158504770341994D+03
 0.145099107346309D+03 -.563426833266464D+01 0.648549953380000D+02 0.345084852284077D+02
 0.121961752053458D+03 -.200430903515450D+01 -.643125910336354D+02 -.491862887376268D+02
 0.285725395535847D+02 0.238181027556979D+02 -.131685492758769D+02 0.869927052280697D+01
 0.213761417306370D+02 -.161795253878788D+02 0.126261449715124D+02 0.597853298641214D+01
0.280305981135D-03 0.000000000000D+00 0.000000000000D+00 0.328259903201D-04 0.000000000000D+00  6 -1 1 25 23 21 21 2 0.45850807D-02 0.12969134D+00 0.18877529D+05 0.18877529D+05 0.18877529D+05 0.12365973D+01  1  2  2  3  6  5       21 0.178070671814D+00 0.100000000000D+01
0.420435453745D-04 0.147921530160D-04 -.107644877382D-05 0.328259903201D-04 0.000000000000D+00  6 -1 1 25 23 21 21 4 0.45850807D-02 0.12969134D+00 0.18877529D+05 0.18877529D+05 0.18877529D+05 0.12365973D+01  1  2  3  3  6  5       21 0.408428392922D-01 0.100000000000D+01
0.562884006041D-05 0.000000000000D+00 0.000000000000D+00 0.328259903201D-04 0.000000000000D+00  6 -1 1 25 23 21 21 4 0.45850807D-02 0.12969134D+00 0.18877529D+05 0.18877529D+05 0.18877529D+05 0.12365973D+01  1  2 15  3  6  5       21 0.546808809631D-02 0.100000000000D+01
0.149892170071D-03 0.000000000000D+00 0.000000000000D+00 0.323788658580D-04 0.000000000000D+00  6 -1 1 25 23 21 21 4 0.45850807D-02 0.12969134D+00 0.22541814D+05 0.22541814D+05 0.22541814D+05 0.12281465D+01  1  2 12  3  6  5       21 0.142140803963D+00 0.100000000000D+01
-.104375621913D-03 0.000000000000D+00 0.000000000000D+00 0.328259903201D-04 0.000000000000D+00  6 -1 1 25 23 21 21 4 0.45850807D-02 0.12969134D+00 0.18877529D+05 0.18877529D+05 0.18877529D+05 0.12365973D+01  1  2  4  3  6  5       21 -.101394797081D+00 0.100000000000D+01
0.379047772516D-05 0.000000000000D+00 0.000000000000D+00 0.323788658580D-04 0.000000000000D+00  6 -1 1 25 23 1 -1 4 0.45850807D-02 0.12969134D+00 0.22541814D+05 0.22541814D+05 0.22541814D+05 0.12281465D+01  1  2 12  6  6  5       21 0.359446094484D-02 0.100000000000D+01
0.379047772516D-05 0.000000000000D+00 0.000000000000D+00 0.323788658580D-04 0.000000000000D+00  6 -1 1 25 23 2 -2 4 0.45850807D-02 0.12969134D+00 0.22541814D+05 0.22541814D+05 0.22541814D+05 0.12281465D+01  1  2 12  7  6  5       21 0.359446094484D-02 0.100000000000D+01
0.379047772516D-05 0.000000000000D+00 0.000000000000D+00 0.323788658580D-04 0.000000000000D+00  6 -1 1 25 23 4 -4 4 0.45850807D-02 0.12969134D+00 0.22541814D+05 0.22541814D+05 0.22541814D+05 0.12281465D+01  1  2 12  7  6  5       21 0.359446094484D-02 0.100000000000D+01
0.379047772516D-05 0.000000000000D+00 0.000000000000D+00 0.323788658580D-04 0.000000000000D+00  6 -1 1 25 23 3 -3 4 0.45850807D-02 0.12969134D+00 0.22541814D+05 0.22541814D+05 0.22541814D+05 0.12281465D+01  1  2 12  8  6  5       21 0.359446094484D-02 0.100000000000D+01
  </mgrwgt>
  </event>
  <event>
  5     66 0.47607883E-03 0.25402809E+02 0.75467711E-02 0.11460195E+00
       -1 -1    0    0    0  501 0.00000000E+00 0.00000000E+00 0.18731585E+02 0.18734318E+02 0.32000000E+00 0.0000E+00 0.9000E+01
        1 -1    0    0  502    0 0.00000000E+00 0.00000000E+00 -.18633070E+04 0.18633070E+04 0.32000000E+00 0.0000E+00 0.9000E+01
       25  1    1    2    0    0 -.80360322E+02 0.84828754E+02 -.56426735E+03 0.58964086E+03 0.12500000E+03 0.0000E+00 0.9000E+01
       23  1    1    2    0    0 0.97724122E+02 -.66301001E+02 -.11500941E+04 0.11597316E+04 0.91188000E+02 0.0000E+00 0.9000E+01
       21  1    1    2  502  501 -.17363800E+02 -.18527753E+02 -.13021397E+03 0.13266884E+03 0.75000000E+00 0.0000E+00 0.9000E+01
#aMCatNLO 1  0  0  2  2 0.58002373D+02 0.00000000D+00  -5  6  0 0.00000000D+00 0.00000000D+00 0.00000000D+00 0.00000000D+00 0.00000000D+00
  <mgrwgt>
 0.4553801203D+00    7    4    0
 0.186829574220550D+03 0.000000000000000D+00 0.000000000000000D+00 0.186829574220550D+03
 0.186829574220550D+03 0.000000000000000D+00 0.000000000000000D+00 -.186829574220550D+03
 0.184378987074388D+03 -.803565900300269D+02 0.848327356083348D+02 0.686792274456388D+02
 0.163860034960440D+03 0.977274379165300D+02 -.662974624348447D+02 -.677410810823657D+02
 0.254201264062721D+02 -.173708478865031D+02 -.185352731734901D+02 -.938146363273098D+00
 0.000000000000000D+00 -.000000000000000D+00 -.000000000000000D+00 -.000000000000000D+00
 0.202535135660472D+03 0.000000000000000D+00 0.000000000000000D+00 0.202535135660472D+03
 0.251516212950295D+03 0.000000000000000D+00 0.000000000000000D+00 -.251516212950295D+03
 0.181115875597131D+03 -.549884558238061D+02 0.971462497315199D+02 0.686792274456388D+02
 0.174975874114811D+03 0.121245237188672D+03 -.548820878893751D+02 -.677410810823657D+02
 0.220423991097122D+02 -.140765862154771D+02 -.169362617017794D+02 -.938146363273098D+00
 0.759171997891134D+02 -.521801951493886D+02 -.253279001403654D+02 -.489810772898224D+02
 0.186829574220550D+03 0.000000000000000D+00 0.000000000000000D+00 0.186829574220550D+03
 0.186829574220550D+03 0.000000000000000D+00 0.000000000000000D+00 -.186829574220550D+03
 0.184378987074388D+03 -.803565900300269D+02 0.848327356083348D+02 0.686792274456388D+02
 0.163860034960440D+03 0.977274379165300D+02 -.662974624348447D+02 -.677410810823657D+02
 0.000000000000000D+00 -.000000000000000D+00 -.000000000000000D+00 -.000000000000000D+00
 0.254201264062721D+02 -.173708478865031D+02 -.185352731734901D+02 -.938146363273098D+00
 0.202535135660472D+03 0.000000000000000D+00 0.000000000000000D+00 0.202535135660472D+03
 0.251516212950295D+03 0.000000000000000D+00 0.000000000000000D+00 -.251516212950295D+03
 0.181115875597131D+03 -.549884558238061D+02 0.971462497315199D+02 0.686792274456388D+02
 0.174975874114811D+03 0.121245237188672D+03 -.548820878893751D+02 -.677410810823657D+02
 0.759171997891134D+02 -.521801951493886D+02 -.253279001403654D+02 -.489810772898224D+02
 0.220423991097122D+02 -.140765862154771D+02 -.169362617017794D+02 -.938146363273098D+00
0.474897429831D-03 0.000000000000D+00 0.000000000000D+00 0.166672501909D-04 0.000000000000D+00  6 -1 1 25 23 21 21 2 0.28819946D-02 0.28666282D+00 0.29879766D+05 0.29879766D+05 0.29879766D+05 0.12150815D+01  1  2  2  2  6  2        1 0.116613521534D+00 0.100000000000D+01
0.120140680820D-03 0.250610258850D-04 -.182373117391D-05 0.166672501909D-04 0.000000000000D+00  6 -1 1 25 23 21 21 4 0.28819946D-02 0.28666282D+00 0.29879766D+05 0.29879766D+05 0.29879766D+05 0.12150815D+01  1  2  3  2  6  2        1 0.435562004698D-01 0.100000000000D+01
0.581277880526D-05 0.000000000000D+00 0.000000000000D+00 0.166672501909D-04 0.000000000000D+00  6 -1 1 25 23 21 21 4 0.28819946D-02 0.28666282D+00 0.29879766D+05 0.29879766D+05 0.29879766D+05 0.12150815D+01  1  2 15  2  6  2        1 0.210738408673D-02 0.100000000000D+01
-.889533453846D-04 0.000000000000D+00 0.000000000000D+00 0.166672501909D-04 0.000000000000D+00  6 -1 1 25 23 21 21 4 0.28819946D-02 0.28666282D+00 0.29879766D+05 0.29879766D+05 0.29879766D+05 0.12150815D+01  1  2  4  2  6  2        1 -.322494405525D-01 0.100000000000D+01
-.129439342131D-02 0.000000000000D+00 -.348690671813D-03 0.166672501909D-04 0.000000000000D+00  6 -1 1 25 23 21 21 4 0.28819946D-02 0.39642403D+00 0.29879766D+05 0.29879766D+05 0.29879766D+05 0.12150815D+01  1  2  5  2  6  2        1 -.162086080692D+00 0.100000000000D+01
0.135325159476D-02 0.000000000000D+00 0.331137914342D-03 0.166672501909D-04 0.000000000000D+00  6 -1 1 25 23 21 21 4 0.28819946D-02 0.28666282D+00 0.29879766D+05 0.29879766D+05 0.29879766D+05 0.12150815D+01  1  2  6  2  6  2        1 0.490612316704D+00 0.100000000000D+01
-.441095529441D-04 0.000000000000D+00 -.142536183284D-04 0.166672501909D-04 0.000000000000D+00  6 -1 21 25 23 -1 21 4 0.28819946D-02 0.39642403D+00 0.29879766D+05 0.29879766D+05 0.29879766D+05 0.12150815D+01  3  4  5  5  5  2        1 -.317378125959D-02 0.100000000000D+01
  </mgrwgt>
  </event>
  <event>
  5     66 0.47607883E-03 0.23822219E+02 0.75467711E-02 0.11189558E+00
       -3 -1    0    0    0  501 0.00000000E+00 0.00000000E+00 0.56970502E+02 0.56972696E+02 0.50000000E+00 0.0000E+00 0.9000E+01
        3 -1    0    0  502    0 0.00000000E+00 0.00000000E+00 -.90901831E+03 0.90901845E+03 0.50000000E+00 0.0000E+00 0.9000E+01
       25  1    1    2    0    0 0.13171480E+03 -.93340231E+01 -.16759406E+03 0.24728259E+03 0.12500000E+03 0.0000E+00 0.9000E+01
       23  1    1    2    0    0 -.14488547E+03 -.10514667E+02 -.42707801E+03 0.46023172E+03 0.91188000E+02 0.0000E+00 0.9000E+01
       21  1    1    2  502  501 0.13170669E+02 0.19848690E+02 -.25737574E+03 0.25847683E+03 0.75000000E+00 0.0000E+00 0.9000E+01
#aMCatNLO 1  0  0  1  5 0.22694346D+02 0.00000000D+00  -5  6  0 0.00000000D+00 0.00000000D+00 0.00000000D+00 0.00000000D+00 0.00000000D+00
  <mgrwgt>
 0.1575328092D-01    4    2    0
 0.227570550463086D+03 0.000000000000000D+00 0.000000000000000D+00 0.227570550463086D+03
 0.227570550463086D+03 0.000000000000000D+00 0.000000000000000D+00 -.227570550463086D+03
 0.211088320348679D+03 0.131714416870168D+03 -.933460385748647D+01 0.107226193381104D+03
 0.177283132492801D+03 -.144885795040091D+03 -.105151547887023D+02 -.448508153530178D+02
 0.667696480846926D+02 0.131713781699228D+02 0.198497586461887D+02 -.623753780280860D+02
 0.000000000000000D+00 -.000000000000000D+00 0.000000000000000D+00 -.000000000000000D+00
 0.250811167402032D+03 0.000000000000000D+00 0.000000000000000D+00 0.250811167402032D+03
 0.337157915079401D+03 0.000000000000000D+00 0.000000000000000D+00 -.337157915079401D+03
 0.240690885137871D+03 0.174489435978141D+03 -.190547205038595D+02 0.107226193381104D+03
 0.153417327297791D+03 -.113574662710918D+03 -.176302388942487D+02 -.448508153530178D+02
 0.696961942264098D+02 0.260921344631576D+02 0.169136697571906D+02 -.623753780280860D+02
 0.124164675819361D+03 -.870069077303803D+02 0.197712896409176D+02 -.863467476773686D+02
0.937891693603D-03 0.000000000000D+00 0.000000000000D+00 0.187895273637D-04 0.000000000000D+00  6 -3 3 25 23 21 21 2 0.87648719D-02 0.13984915D+00 0.35563265D+05 0.35563265D+05 0.35563265D+05 0.12072200D+01  1  2  2  1  6  1       -3 0.124860053449D-01 0.100000000000D+01
0.180987838494D-03 0.494939044397D-04 -.360175105599D-05 0.187895273637D-04 0.000000000000D+00  6 -3 3 25 23 21 21 4 0.87648719D-02 0.13984915D+00 0.35563265D+05 0.35563265D+05 0.35563265D+05 0.12072200D+01  1  2  3  1  6  1       -3 0.351150322362D-02 0.100000000000D+01
0.158879214428D-04 0.000000000000D+00 0.000000000000D+00 0.187895273637D-04 0.000000000000D+00  6 -3 3 25 23 21 21 4 0.87648719D-02 0.13984915D+00 0.35563265D+05 0.35563265D+05 0.35563265D+05 0.12072200D+01  1  2 15  1  6  1       -3 0.308255448695D-03 0.100000000000D+01
-.284757594950D-04 0.000000000000D+00 0.000000000000D+00 0.187895273637D-04 0.000000000000D+00  6 -3 3 25 23 21 21 4 0.87648719D-02 0.13984915D+00 0.35563265D+05 0.35563265D+05 0.35563265D+05 0.12072200D+01  1  2  4  1  6  1       -3 -.552483095516D-03 0.100000000000D+01
  </mgrwgt>
  </event>
  <event>
  6     66 0.47607883E-03 0.19105346E+02 0.75467711E-02 0.12188880E+00
       21 -1    0    0  503  501 0.00000000E+00 0.00000000E+00 0.75719047E+02 0.75722762E+02 0.75000000E+00 0.0000E+00 0.9000E+01
        1 -1    0    0  502    0 0.00000000E+00 0.00000000E+00 -.86021780E+03 0.86021786E+03 0.32000000E+00 0.0000E+00 0.9000E+01
       25  1    1    2    0    0 -.49540944E+02 0.35357874E+02 -.45703386E+03 0.47771271E+03 0.12500000E+03 0.0000E+00 0.9000E+01
       23  1    1    2    0    0 0.44662397E+02 -.17681094E+02 -.37434121E+03 0.38827045E+03 0.91188000E+02 0.0000E+00 0.9000E+01
        1  1    1    2  503    0 -.18788810E+00 -.22669242E+02 0.54786944E+02 0.59292845E+02 0.32000000E+00 0.0000E+00 0.9000E+01
       21  1    1    2  502  501 0.50664357E+01 0.49924619E+01 -.79106196E+01 0.10664607E+02 0.75000000E+00 0.0000E+00 0.9000E+01
#aMCatNLO 2  0  0  1  2 0.13668099D+03 0.00000000D+00  -5  6  0 0.00000000D+00 0.00000000D+00 0.00000000D+00 0.00000000D+00 0.00000000D+00
  <mgrwgt>
 0.1439704772D+01    1    2    0
 0.126092141624015D+03 0.000000000000000D+00 0.000000000000000D+00 0.126092141624015D+03
 0.126092141624015D+03 0.000000000000000D+00 0.000000000000000D+00 -.126092141624015D+03
 0.136455661621066D+03 -.496506591356849D+02 0.229948770609049D+02 0.109328166036652D+01
 0.105436838779799D+03 0.445790955154075D+02 -.270559485351416D+02 -.907499420215827D+01
 0.000000000000000D+00 -.000000000000000D+00 -.000000000000000D+00 0.000000000000000D+00
 0.102917828471638D+02 0.507156362027733D+01 0.406107147423672D+01 0.798171254179175D+01
 0.513157217126395D+03 0.000000000000000D+00 0.000000000000000D+00 0.513157217126395D+03
 0.126932971715121D+03 0.000000000000000D+00 0.000000000000000D+00 -.126932971715121D+03
 0.139035958481530D+03 -.495482391021657D+02 0.353521496936683D+02 0.109328166036652D+01
 0.103463113339984D+03 0.446567586402978D+02 -.176856683779666D+02 -.907499420215827D+01
 0.386888999012594D+03 -.187888100093055D+00 -.226692415294672D+02 0.386224245411274D+03
 0.107021180074071D+02 0.507936856196093D+01 0.500276021376543D+01 0.798171254179175D+01
0.425455245912D-03 0.000000000000D+00 0.000000000000D+00 0.412145055165D-03 0.233085767734D-05  6 21 1 25 23 1 21 4 0.11649368D-01 0.13234142D+00 0.18481774D+05 0.18481774D+05 0.18481774D+05 0.12376186D+01  1  2  1  4  5  1       -1 0.143970477233D+01 0.100000000000D+01
  </mgrwgt>
  </event>
  <event>
  5     66 0.47607883E-03 0.35635060E+02 0.75467711E-02 0.11634811E+00
       -1 -1    0    0    0  501 0.00000000E+00 0.00000000E+00 0.10226005E+02 0.10231010E+02 0.32000000E+00 0.0000E+00 0.9000E+01
        1 -1    0    0  502    0 -.00000000E+00 -.00000000E+00 -.36153177E+04 0.36153177E+04 0.32000000E+00 0.0000E+00 0.9000E+01
       25  1    1    2    0    0 0.11545167E+03 0.11488465E+02 -.17408620E+04 0.17491959E+04 0.12500000E+03 0.0000E+00 0.9000E+01
       23  1    1    2    0    0 -.13425180E+03 0.18779547E+02 -.17217282E+04 0.17294621E+04 0.91188000E+02 0.0000E+00 0.9000E+01
       21  1    1    2  502  501 0.18800129E+02 -.30268012E+02 -.14250159E+03 0.14689065E+03 0.75000000E+00 0.0000E+00 0.9000E+01
#aMCatNLO 1  0  0  5  2 0.39941820D+01 0.00000000D+00  -5  6  0 0.00000000D+00 0.00000000D+00 0.00000000D+00 0.00000000D+00 0.00000000D+00
  <mgrwgt>
 0.5114935868D-01   25    2    0
 0.192300169622925D+03 0.000000000000000D+00 0.000000000000000D+00 0.192300169622925D+03
 0.192300169622925D+03 -.000000000000000D+00 -.000000000000000D+00 -.192300169622925D+03
 0.171159384378613D+03 0.115450687203194D+03 0.114900461001894D+02 -.144793827835174D+02
 0.164487205977781D+03 -.134252742108482D+03 0.187810662928754D+02 -.190856587948384D+02
 0.489537488894546D+02 0.188020549052882D+02 -.302711123930647D+02 0.335650415783558D+02
 0.000000000000000D+00 0.000000000000000D+00 0.000000000000000D+00 0.000000000000000D+00
 0.192300169622925D+03 0.000000000000000D+00 0.000000000000000D+00 0.192300169622925D+03
 0.192300169622925D+03 -.000000000000000D+00 -.000000000000000D+00 -.192300169622925D+03
 0.171229064675838D+03 0.115617134068799D+03 0.112220683817122D+02 -.141822452635622D+02
 0.164294677585459D+03 -.134092909864907D+03 0.185237380469102D+02 -.188003295620387D+02
 0.382434293816856D+02 0.118521108911225D+02 -.223159054185458D+02 0.287069281471743D+02
 0.108331676028669D+02 0.662366490498493D+01 -.742990101007653D+01 0.427564667842662D+01
0.321608943750D-03 0.000000000000D+00 0.000000000000D+00 0.101709238274D-04 0.000000000000D+00  6 -1 1 25 23 21 21 2 0.15736176D-02 0.55620311D+00 0.34143110D+05 0.34143110D+05 0.34143110D+05 0.12090458D+01  1  2  2  3  6  5       21 0.120127795321D-01 0.100000000000D+01
0.417925387772D-04 0.169717702347D-04 -.123506302558D-05 0.101709238274D-04 0.000000000000D+00  6 -1 1 25 23 21 21 4 0.15736176D-02 0.55620311D+00 0.34143110D+05 0.34143110D+05 0.34143110D+05 0.12090458D+01  1  2  3  3  6  5       21 0.228191582748D-02 0.100000000000D+01
0.954075172058D-05 0.000000000000D+00 0.000000000000D+00 0.101709238274D-04 0.000000000000D+00  6 -1 1 25 23 21 21 4 0.15736176D-02 0.55620311D+00 0.34143110D+05 0.34143110D+05 0.34143110D+05 0.12090458D+01  1  2 15  3  6  5       21 0.520934908343D-03 0.100000000000D+01
0.118236013309D-03 0.000000000000D+00 0.000000000000D+00 0.101728847472D-04 0.000000000000D+00  6 -1 1 25 23 21 21 4 0.15736176D-02 0.55620311D+00 0.34054626D+05 0.34054626D+05 0.34054626D+05 0.12091623D+01  1  2 12  3  6  5       21 0.645885338950D-02 0.100000000000D+01
0.121922170705D-03 0.000000000000D+00 0.000000000000D+00 0.101728847472D-04 0.000000000000D+00  6 -1 1 25 23 21 21 4 0.15736176D-02 0.55620311D+00 0.34054626D+05 0.34054626D+05 0.34054626D+05 0.12091623D+01  1  2 12  3  6  5       21 0.666021632051D-02 0.100000000000D+01
-.419103520837D-02 0.000000000000D+00 0.000000000000D+00 0.101709238274D-04 0.000000000000D+00  6 -1 1 25 23 21 21 4 0.15736176D-02 0.55620311D+00 0.34143110D+05 0.34143110D+05 0.34143110D+05 0.12090458D+01  1  2  4  3  6  5       21 -.228834855583D+00 0.100000000000D+01
-.373440250291D-02 0.000000000000D+00 0.000000000000D+00 0.101709238274D-04 0.000000000000D+00  6 -1 1 25 23 21 21 4 0.15736176D-02 0.55620311D+00 0.34143110D+05 0.34143110D+05 0.34143110D+05 0.12090458D+01  1  2  5  3  6  5       21 -.203902237742D+00 0.100000000000D+01
0.511089448788D-02 0.000000000000D+00 -.000000000000D+00 0.101709238274D-04 0.000000000000D+00  6 -1 1 25 23 21 21 4 0.15736176D-02 0.55620311D+00 0.34143110D+05 0.34143110D+05 0.34143110D+05 0.12090458D+01  1  2  6  3  6  5       21 0.279060123308D+00 0.100000000000D+01
0.326549502703D-02 0.000000000000D+00 0.000000000000D+00 0.101709238274D-04 0.379442928844D-05  6 -1 1 25 23 21 21 4 0.15736176D-02 0.55620311D+00 0.34054626D+05 0.34054626D+05 0.34054626D+05 0.12091623D+01  1  2 11  3  6  5       21 0.178383497831D+00 0.100000000000D+01
0.278225772304D-05 0.000000000000D+00 0.000000000000D+00 0.101728847472D-04 0.000000000000D+00  6 -1 1 25 23 1 -1 4 0.15736176D-02 0.55620311D+00 0.34054626D+05 0.34054626D+05 0.34054626D+05 0.12091623D+01  1  2 12  6  6  5       21 0.151985797067D-03 0.100000000000D+01
0.283743258288D-05 0.000000000000D+00 0.000000000000D+00 0.101728847472D-04 0.000000000000D+00  6 -1 1 25 23 1 -1 4 0.15736176D-02 0.55620311D+00 0.34054626D+05 0.34054626D+05 0.34054626D+05 0.12091623D+01  1  2 12  6  6  5       21 0.154999822325D-03 0.100000000000D+01
-.362886087070D-04 0.000000000000D+00 0.000000000000D+00 0.101709238274D-04 0.000000000000D+00  6 -1 1 25 23 1 -1 4 0.15736176D-02 0.55620311D+00 0.34143110D+05 0.34143110D+05 0.34143110D+05 0.12090458D+01  1  2  5  6  6  5       21 -.198139555502D-02 0.100000000000D+01
0.241518594610D-04 0.000000000000D+00 0.000000000000D+00 0.101709238274D-04 0.518897051397D-07  6 -1 1 25 23 1 -1 4 0.15736176D-02 0.55620311D+00 0.34054626D+05 0.34054626D+05 0.34054626D+05 0.12091623D+01  1  2 11  6  6  5       21 0.131933845684D-02 0.100000000000D+01
0.278225772304D-05 0.000000000000D+00 0.000000000000D+00 0.101728847472D-04 0.000000000000D+00  6 -1 1 25 23 2 -2 4 0.15736176D-02 0.55620311D+00 0.34054626D+05 0.34054626D+05 0.34054626D+05 0.12091623D+01  1  2 12  7  6  5       21 0.151985797067D-03 0.100000000000D+01
0.278225772304D-05 0.000000000000D+00 0.000000000000D+00 0.101728847472D-04 0.000000000000D+00  6 -1 1 25 23 4 -4 4 0.15736176D-02 0.55620311D+00 0.34054626D+05 0.34054626D+05 0.34054626D+05 0.12091623D+01  1  2 12  7  6  5       21 0.151985797067D-03 0.100000000000D+01
0.283743258288D-05 0.000000000000D+00 0.000000000000D+00 0.101728847472D-04 0.000000000000D+00  6 -1 1 25 23 2 -2 4 0.15736176D-02 0.55620311D+00 0.34054626D+05 0.34054626D+05 0.34054626D+05 0.12091623D+01  1  2 12  7  6  5       21 0.154999822325D-03 0.100000000000D+01
0.283743258288D-05 0.000000000000D+00 0.000000000000D+00 0.101728847472D-04 0.000000000000D+00  6 -1 1 25 23 4 -4 4 0.15736176D-02 0.55620311D+00 0.34054626D+05 0.34054626D+05 0.34054626D+05 0.12091623D+01  1  2 12  7  6  5       21 0.154999822325D-03 0.100000000000D+01
-.362886087070D-04 0.000000000000D+00 0.000000000000D+00 0.101709238274D-04 0.000000000000D+00  6 -1 1 25 23 2 -2 4 0.15736176D-02 0.55620311D+00 0.34143110D+05 0.34143110D+05 0.34143110D+05 0.12090458D+01  1  2  5  7  6  5       21 -.198139555502D-02 0.100000000000D+01
-.362886087070D-04 0.000000000000D+00 0.000000000000D+00 0.101709238274D-04 0.000000000000D+00  6 -1 1 25 23 4 -4 4 0.15736176D-02 0.55620311D+00 0.34143110D+05 0.34143110D+05 0.34143110D+05 0.12090458D+01  1  2  5  7  6  5       21 -.198139555502D-02 0.100000000000D+01
0.237188078664D-04 0.000000000000D+00 0.000000000000D+00 0.101709238274D-04 0.505812183693D-07  6 -1 1 25 23 2 -2 4 0.15736176D-02 0.55620311D+00 0.34054626D+05 0.34054626D+05 0.34054626D+05 0.12091623D+01  1  2 11  7  6  5       21 0.129568224008D-02 0.100000000000D+01
0.237188078664D-04 0.000000000000D+00 0.000000000000D+00 0.101709238274D-04 0.505812183693D-07  6 -1 1 25 23 4 -4 4 0.15736176D-02 0.55620311D+00 0.34054626D+05 0.34054626D+05 0.34054626D+05 0.12091623D+01  1  2 11  7  6  5       21 0.129568224008D-02 0.100000000000D+01
0.278225772304D-05 0.000000000000D+00 0.000000000000D+00 0.101728847472D-04 0.000000000000D+00  6 -1 1 25 23 3 -3 4 0.15736176D-02 0.55620311D+00 0.34054626D+05 0.34054626D+05 0.34054626D+05 0.12091623D+01  1  2 12  8  6  5       21 0.151985797067D-03 0.100000000000D+01
0.283743258288D-05 0.000000000000D+00 0.000000000000D+00 0.101728847472D-04 0.000000000000D+00  6 -1 1 25 23 3 -3 4 0.15736176D-02 0.55620311D+00 0.34054626D+05 0.34054626D+05 0.34054626D+05 0.12091623D+01  1  2 12  8  6  5       21 0.154999822325D-03 0.100000000000D+01
-.362886087070D-04 0.000000000000D+00 0.000000000000D+00 0.101709238274D-04 0.000000000000D+00  6 -1 1 25 23 3 -3 4 0.15736176D-02 0.55620311D+00 0.34143110D+05 0.34143110D+05 0.34143110D+05 0.12090458D+01  1  2  5  8  6  5       21 -.198139555502D-02 0.100000000000D+01
0.237075579592D-04 0.000000000000D+00 0.000000000000D+00 0.101709238274D-04 0.505572275340D-07  6 -1 1 25 23 3 -3 4 0.15736176D-02 0.55620311D+00 0.34054626D+05 0.34054626D+05 0.34054626D+05 0.12091623D+01  1  2 11  8  6  5       21 0.129506769380D-02 0.100000000000D+01
  </mgrwgt>
  </event>
  <event>
  5     66 0.47607883E-03 0.68465559E+02 0.75467711E-02 0.10963227E+00
       -1 -1    0    0    0  501 0.00000000E+00 0.00000000E+00 0.25283245E+03 0.25283265E+03 0.32000000E+00 0.0000E+00 0.9000E+01
        1 -1    0    0  502    0 0.00000000E+00 0.00000000E+00 -.12099846E+03 0.12099888E+03 0.32000000E+00 0.0000E+00 0.9000E+01
       25  1    1    2    0    0 -.20098488E+02 -.13859750E+01 0.47105540E+02 0.13509183E+03 0.12500000E+03 0.0000E+00 0.9000E+01
       23  1    1    2    0    0 -.15563291E+01 0.66335049E+02 -.19088247E+02 0.11437820E+03 0.91188000E+02 0.0000E+00 0.9000E+01
       21  1    1    2  502  501 0.21654817E+02 -.64949074E+02 0.10381670E+03 0.12436150E+03 0.75000000E+00 0.0000E+00 0.9000E+01
#aMCatNLO 1  0  0  1  5 0.71221327D+02 0.00000000D+00  -5  6  0 0.00000000D+00 0.00000000D+00 0.00000000D+00 0.00000000D+00 0.00000000D+00
  <mgrwgt>
 0.2409933611D-01    5    4    0
 0.174906983611091D+03 0.000000000000000D+00 0.000000000000000D+00 0.174906983611091D+03
 0.174906983611091D+03 0.000000000000000D+00 0.000000000000000D+00 -.174906983611091D+03
 0.126614400352348D+03 -.200987384764272D+02 -.138522306557562D+01 -.572926958216030D+00
 0.129425728308962D+03 -.155658531869158D+01 0.663358179019292D+02 -.635051502614781D+02
 0.937738385608731D+02 0.216553237951188D+02 -.649505948363535D+02 0.640780772196942D+02
 0.000000000000000D+00 -.000000000000000D+00 0.000000000000000D+00 0.000000000000000D+00
 0.363938480394931D+03 0.000000000000000D+00 0.000000000000000D+00 0.363938480394931D+03
 0.255684310559679D+03 0.000000000000000D+00 0.000000000000000D+00 -.255684310559679D+03
 0.137676419705639D+03 0.250149565164801D+02 -.519973100087158D+02 -.572926958216030D+00
 0.119895412987816D+03 0.410018278765853D+02 0.185904468091805D+02 -.635051502614781D+02
 0.141528439817029D+03 0.618207567660701D+02 -.110011332733222D+03 0.640780772196942D+02
 0.220522518444126D+03 -.127837541159135D+03 0.143418195932757D+03 0.108254169835252D+03
 0.174906983611091D+03 0.000000000000000D+00 0.000000000000000D+00 0.174906983611091D+03
 0.174906983611091D+03 0.000000000000000D+00 0.000000000000000D+00 -.174906983611091D+03
 0.126614400352348D+03 -.200987384764272D+02 -.138522306557562D+01 -.572926958216030D+00
 0.129425728308962D+03 -.155658531869158D+01 0.663358179019292D+02 -.635051502614781D+02
 0.000000000000000D+00 -.000000000000000D+00 0.000000000000000D+00 0.000000000000000D+00
 0.937738385608731D+02 0.216553237951188D+02 -.649505948363535D+02 0.640780772196942D+02
 0.363938480394931D+03 0.000000000000000D+00 0.000000000000000D+00 0.363938480394931D+03
 0.255684310559679D+03 0.000000000000000D+00 0.000000000000000D+00 -.255684310559679D+03
 0.137676419705639D+03 0.250149565164801D+02 -.519973100087158D+02 -.572926958216030D+00
 0.119895412987816D+03 0.410018278765853D+02 0.185904468091805D+02 -.635051502614781D+02
 0.220522518444126D+03 -.127837541159135D+03 0.143418195932757D+03 0.108254169835252D+03
 0.141528439817029D+03 0.618207567660701D+02 -.110011332733222D+03 0.640780772196942D+02
0.867921740578D-04 0.000000000000D+00 0.000000000000D+00 0.423254782173D-05 0.000000000000D+00  6 -1 1 25 23 21 21 2 0.38897347D-01 0.18615195D-01 0.23693411D+05 0.23693411D+05 0.23693411D+05 0.12258049D+01  1  2  2  1  6  1       -1 0.232825760792D-01 0.100000000000D+01
-.328577890448D-05 0.458014885752D-05 -.333304801286D-06 0.423254782173D-05 0.000000000000D+00  6 -1 1 25 23 21 21 4 0.38897347D-01 0.18615195D-01 0.23693411D+05 0.23693411D+05 0.23693411D+05 0.12258049D+01  1  2  3  1  6  1       -1 -.132443771034D-02 0.100000000000D+01
0.302816459118D-05 0.000000000000D+00 0.000000000000D+00 0.423254782173D-05 0.000000000000D+00  6 -1 1 25 23 21 21 4 0.38897347D-01 0.18615195D-01 0.23693411D+05 0.23693411D+05 0.23693411D+05 0.12258049D+01  1  2 15  1  6  1       -1 0.122059806647D-02 0.100000000000D+01
-.160091675827D-05 0.000000000000D+00 -.440630102165D-04 0.423254782173D-05 0.000000000000D+00  6 -1 1 25 23 21 21 4 0.11023227D+00 0.18615195D-01 0.23693411D+05 0.23693411D+05 0.23693411D+05 0.12258049D+01  1  2  5  1  6  1       -1 -.830003012447D-04 0.100000000000D+01
0.223114267722D-05 0.000000000000D+00 -.516618760143D-05 0.423254782173D-05 0.000000000000D+00  6 21 1 25 23 1 21 4 0.11023227D+00 0.18615195D-01 0.23693411D+05 0.23693411D+05 0.23693411D+05 0.12258049D+01  3  4  5  4  5  1       -1 0.100359997995D-02 0.100000000000D+01
  </mgrwgt>
  </event>
  <event>
  5     66 0.47607883E-03 0.40158161E+02 0.75467711E-02 0.12002988E+00
       -1 -1    0    0    0  501 0.00000000E+00 0.00000000E+00 0.16661974E+02 0.16665047E+02 0.32000000E+00 0.0000E+00 0.9000E+01
        1 -1    0    0  502    0 0.00000000E+00 0.00000000E+00 -.14009269E+04 0.14009270E+04 0.32000000E+00 0.0000E+00 0.9000E+01
       25  1    1    2    0    0 0.84820357E+02 0.17483011E+02 -.64872793E+03 0.66631304E+03 0.12500000E+03 0.0000E+00 0.9000E+01
       23  1    1    2    0    0 -.47739561E+02 -.32887695E+02 -.44246485E+03 0.45546796E+03 0.91188000E+02 0.0000E+00 0.9000E+01
       21  1    1    2  502  501 -.37080796E+02 0.15404684E+02 -.29307218E+03 0.29581101E+03 0.75000000E+00 0.0000E+00 0.9000E+01
#aMCatNLO 1  0  0  1  5 0.71221327D+02 0.00000000D+00  -5  6  0 0.00000000D+00 0.00000000D+00 0.00000000D+00 0.00000000D+00 0.00000000D+00
  <mgrwgt>
 0.1985112598D-02    1    2    0
 0.152788781082490D+03 0.000000000000000D+00 0.000000000000000D+00 0.152788781082490D+03
 0.152788781082490D+03 0.000000000000000D+00 0.000000000000000D+00 -.152788781082490D+03
 0.152331679212755D+03 0.848229630303873D+02 0.174819282570855D+02 0.890997300429977D+01
 0.108578014138808D+03 -.477377035062989D+02 -.328884669457255D+02 0.106486720407687D+02
 0.446678688134159D+02 -.370852595240885D+02 0.154065386886400D+02 -.195586450450685D+02
 0.000000000000000D+00 0.000000000000000D+00 -.000000000000000D+00 -.000000000000000D+00
 0.260174192891342D+03 0.000000000000000D+00 0.000000000000000D+00 0.260174192891342D+03
 0.289435578333395D+03 0.000000000000000D+00 0.000000000000000D+00 -.289435578333395D+03
 0.158644440181593D+03 0.355294428112874D+02 0.905611918821367D+02 0.890997300429977D+01
 0.127199420024905D+03 -.851113119389717D+02 0.225191357397987D+02 0.106486720407687D+02
 0.731311245059376D+02 -.557578414261530D+02 0.430892549831155D+02 -.195586450450685D+02
 0.190634786512301D+03 0.105339710553837D+03 -.156169582605051D+03 -.292613854420529D+02
0.222486346054D-05 0.000000000000D+00 0.000000000000D+00 0.102316232770D-04 0.000000000000D+00  6 -1 1 25 23 21 21 4 0.25636198D-02 0.21552746D+00 0.22542563D+05 0.22542563D+05 0.22542563D+05 0.12281449D+01  1  2 14  1  6  1       -1 0.198511259752D-02 0.100000000000D+01
  </mgrwgt>
  </event>
  <event>
  5     66 0.47607883E-03 0.29532279E+02 0.75467711E-02 0.12175318E+00
       -1 -1    0    0    0  501 0.00000000E+00 0.00000000E+00 0.31030977E+02 0.31032627E+02 0.32000000E+00 0.0000E+00 0.9000E+01
        1 -1    0    0  502    0 -.00000000E+00 -.00000000E+00 -.94267853E+03 0.94267859E+03 0.32000000E+00 0.0000E+00 0.9000E+01
       25  1    1    2    0    0 -.10579855E+02 -.31000087E+02 -.56132260E+03 0.57600434E+03 0.12500000E+03 0.0000E+00 0.9000E+01
       23  1    1    2    0    0 -.10944161E+02 0.10780352E+02 -.35583651E+03 0.36765591E+03 0.91188000E+02 0.0000E+00 0.9000E+01
       21  1    1    2  502  501 0.21524016E+02 0.20219735E+02 0.55115563E+01 0.30050968E+02 0.75000000E+00 0.0000E+00 0.9000E+01
#aMCatNLO 1  0  0  5  2 0.20691459D+02 0.00000000D+00  -5  6  0 0.00000000D+00 0.00000000D+00 0.00000000D+00 0.00000000D+00 0.00000000D+00
  <mgrwgt>
 0.1163026790D+00   15    2    0
 0.171035277038129D+03 0.000000000000000D+00 0.000000000000000D+00 0.171035277038129D+03
 0.171035277038129D+03 -.000000000000000D+00 -.000000000000000D+00 -.171035277038129D+03
 0.143636162315411D+03 -.105801079746353D+02 -.310003243397018D+02 -.627167308680657D+02
 0.982057102558602D+02 -.109443340409719D+02 0.107801890329917D+02 -.330623541156791D+02
 0.100228681504988D+03 0.215244420156072D+02 0.202201353067101D+02 0.957790849837447D+02
 0.000000000000000D+00 0.000000000000000D+00 0.000000000000000D+00 0.000000000000000D+00
 0.171035277038129D+03 0.000000000000000D+00 0.000000000000000D+00 0.171035277038129D+03
 0.171035277038129D+03 -.000000000000000D+00 -.000000000000000D+00 -.171035277038129D+03
 0.141626412396892D+03 -.965155873829689D+01 -.301280419741895D+02 -.585848887439184D+02
 0.972875287520135D+02 -.103079901463226D+02 0.113779726894542D+02 -.302307622016912D+02
 0.692775471970092D+02 0.129981627206071D+02 0.336021180025791D+02 0.591719864231648D+02
 0.338790657303438D+02 0.696138616401246D+01 -.148520487178439D+02 0.296436645224447D+02
0.903202932458D-04 0.000000000000D+00 0.000000000000D+00 0.317434214354D-04 0.000000000000D+00  6 -1 1 25 23 21 21 2 0.47741276D-02 0.14502760D+00 0.15778599D+05 0.15778599D+05 0.15778599D+05 0.12453249D+01  1  2  2  3  6  5       21 0.457893800814D-01 0.100000000000D+01
0.874876218313D-05 0.476633282218D-05 -.346853707943D-06 0.317434214354D-04 0.000000000000D+00  6 -1 1 25 23 21 21 4 0.47741276D-02 0.14502760D+00 0.15778599D+05 0.15778599D+05 0.15778599D+05 0.12453249D+01  1  2  3  3  6  5       21 0.687846226471D-02 0.100000000000D+01
0.238398198280D-05 0.000000000000D+00 0.000000000000D+00 0.317434214354D-04 0.000000000000D+00  6 -1 1 25 23 21 21 4 0.47741276D-02 0.14502760D+00 0.15778599D+05 0.15778599D+05 0.15778599D+05 0.12453249D+01  1  2 15  3  6  5       21 0.187433716510D-02 0.100000000000D+01
0.926601831953D-04 0.000000000000D+00 0.000000000000D+00 0.313168872943D-04 0.000000000000D+00  6 -1 1 25 23 21 21 4 0.47741276D-02 0.14502760D+00 0.18747605D+05 0.18747605D+05 0.18747605D+05 0.12369299D+01  1  2 12  3  6  5       21 0.710944146733D-01 0.100000000000D+01
-.656797427818D-04 0.000000000000D+00 0.000000000000D+00 0.317434214354D-04 0.000000000000D+00  6 -1 1 25 23 21 21 4 0.47741276D-02 0.14502760D+00 0.15778599D+05 0.15778599D+05 0.15778599D+05 0.12453249D+01  1  2  4  3  6  5       21 -.516388059046D-01 0.100000000000D+01
-.157407286392D-03 0.000000000000D+00 0.000000000000D+00 0.317434214354D-04 0.000000000000D+00  6 -1 1 25 23 21 21 4 0.47741276D-02 0.14502760D+00 0.15778599D+05 0.15778599D+05 0.15778599D+05 0.12453249D+01  1  2  5  3  6  5       21 -.123756944922D+00 0.100000000000D+01
0.218490897694D-03 0.000000000000D+00 -.000000000000D+00 0.317434214354D-04 0.000000000000D+00  6 -1 1 25 23 21 21 4 0.47741276D-02 0.14502760D+00 0.15778599D+05 0.15778599D+05 0.15778599D+05 0.12453249D+01  1  2  6  3  6  5       21 0.171782174839D+00 0.100000000000D+01
0.189765213895D-05 0.000000000000D+00 0.000000000000D+00 0.313168872943D-04 0.000000000000D+00  6 -1 1 25 23 1 -1 4 0.47741276D-02 0.14502760D+00 0.18747605D+05 0.18747605D+05 0.18747605D+05 0.12369299D+01  1  2 12  6  6  5       21 0.145599181245D-02 0.100000000000D+01
-.367082014174D-05 0.000000000000D+00 0.000000000000D+00 0.317434214354D-04 0.000000000000D+00  6 -1 1 25 23 1 -1 4 0.47741276D-02 0.14502760D+00 0.15778599D+05 0.15778599D+05 0.15778599D+05 0.12453249D+01  1  2  5  6  6  5       21 -.288607660112D-02 0.100000000000D+01
0.189765213895D-05 0.000000000000D+00 0.000000000000D+00 0.313168872943D-04 0.000000000000D+00  6 -1 1 25 23 2 -2 4 0.47741276D-02 0.14502760D+00 0.18747605D+05 0.18747605D+05 0.18747605D+05 0.12369299D+01  1  2 12  7  6  5       21 0.145599181245D-02 0.100000000000D+01
0.189765213895D-05 0.000000000000D+00 0.000000000000D+00 0.313168872943D-04 0.000000000000D+00  6 -1 1 25 23 4 -4 4 0.47741276D-02 0.14502760D+00 0.18747605D+05 0.18747605D+05 0.18747605D+05 0.12369299D+01  1  2 12  7  6  5       21 0.145599181245D-02 0.100000000000D+01
-.367082014174D-05 0.000000000000D+00 0.000000000000D+00 0.317434214354D-04 0.000000000000D+00  6 -1 1 25 23 2 -2 4 0.47741276D-02 0.14502760D+00 0.15778599D+05 0.15778599D+05 0.15778599D+05 0.12453249D+01  1  2  5  7  6  5       21 -.288607660112D-02 0.100000000000D+01
-.367082014174D-05 0.000000000000D+00 0.000000000000D+00 0.317434214354D-04 0.000000000000D+00  6 -1 1 25 23 4 -4 4 0.47741276D-02 0.14502760D+00 0.15778599D+05 0.15778599D+05 0.15778599D+05 0.12453249D+01  1  2  5  7  6  5       21 -.288607660112D-02 0.100000000000D+01
0.189765213895D-05 0.000000000000D+00 0.000000000000D+00 0.313168872943D-04 0.000000000000D+00  6 -1 1 25 23 3 -3 4 0.47741276D-02 0.14502760D+00 0.18747605D+05 0.18747605D+05 0.18747605D+05 0.12369299D+01  1  2 12  8  6  5       21 0.145599181245D-02 0.100000000000D+01
-.367082014174D-05 0.000000000000D+00 0.000000000000D+00 0.317434214354D-04 0.000000000000D+00  6 -1 1 25 23 3 -3 4 0.47741276D-02 0.14502760D+00 0.15778599D+05 0.15778599D+05 0.15778599D+05 0.12453249D+01  1  2  5  8  6  5       21 -.288607660112D-02 0.100000000000D+01
  </mgrwgt>
  </event>
  <event>
  5     66 0.47607883E-03 0.43875994E+02 0.75467711E-02 0.11743577E+00
       -1 -1    0    0    0  501 0.00000000E+00 0.00000000E+00 0.14977398E+02 0.14980816E+02 0.32000000E+00 0.0000E+00 0.9000E+01
        1 -1    0    0  502    0 0.00000000E+00 0.00000000E+00 -.16251033E+04 0.16251034E+04 0.32000000E+00 0.0000E+00 0.9000E+01
       25  1    1    2    0    0 -.14135986E+02 0.31926519E+02 -.53856527E+03 0.55398256E+03 0.12500000E+03 0.0000E+00 0.9000E+01
       23  1    1    2    0    0 0.47254507E+02 -.31515226E+01 -.97052136E+03 0.97594563E+03 0.91188000E+02 0.0000E+00 0.9000E+01
       21  1    1    2  502  501 -.33118521E+02 -.28774996E+02 -.10103930E+03 0.11015598E+03 0.75000000E+00 0.0000E+00 0.9000E+01
#aMCatNLO 1  0  0  2  5 0.60132257D+02 0.00000000D+00  -5  6  0 0.00000000D+00 0.00000000D+00 0.00000000D+00 0.00000000D+00 0.00000000D+00
  <mgrwgt>
 0.1214446892D+00    7    4    0
 0.156021304363914D+03 0.000000000000000D+00 0.000000000000000D+00 0.156021304363914D+03
 0.156021304363914D+03 0.000000000000000D+00 0.000000000000000D+00 -.156021304363914D+03
 0.132738527650407D+03 -.141347922279999D+02 0.319275556988035D+02 0.278452071022813D+02
 0.121687595906859D+03 0.472556017278196D+02 -.315057180513078D+01 -.651889688232100D+02
 0.576164851705616D+02 -.331208094998196D+02 -.287769838936727D+02 0.373437617209287D+02
 0.000000000000000D+00 0.000000000000000D+00 0.000000000000000D+00 -.000000000000000D+00
 0.179993059888140D+03 0.000000000000000D+00 0.000000000000000D+00 0.179993059888140D+03
 0.205157667812758D+03 0.000000000000000D+00 0.000000000000000D+00 -.205157667812758D+03
 0.130153358205305D+03 -.220607392616673D+02 0.727082366574319D+01 0.278452071022813D+02
 0.121792276432905D+03 0.399149089344778D+02 -.259866435544896D+02 -.651889688232100D+02
 0.662134620369535D+02 -.368541677948233D+02 -.403910427149460D+02 0.373437617209287D+02
 0.669916310257335D+02 0.189999981220129D+02 0.591068626036925D+02 -.251646079246180D+02
 0.156021304363914D+03 0.000000000000000D+00 0.000000000000000D+00 0.156021304363914D+03
 0.156021304363914D+03 0.000000000000000D+00 0.000000000000000D+00 -.156021304363914D+03
 0.132738527650407D+03 -.141347922279999D+02 0.319275556988035D+02 0.278452071022813D+02
 0.121687595906859D+03 0.472556017278196D+02 -.315057180513078D+01 -.651889688232100D+02
 0.000000000000000D+00 0.000000000000000D+00 0.000000000000000D+00 -.000000000000000D+00
 0.576164851705616D+02 -.331208094998196D+02 -.287769838936727D+02 0.373437617209287D+02
 0.179993059888140D+03 0.000000000000000D+00 0.000000000000000D+00 0.179993059888140D+03
 0.205157667812758D+03 0.000000000000000D+00 0.000000000000000D+00 -.205157667812758D+03
 0.130153358205305D+03 -.220607392616673D+02 0.727082366574319D+01 0.278452071022813D+02
 0.121792276432905D+03 0.399149089344778D+02 -.259866435544896D+02 -.651889688232100D+02
 0.669916310257335D+02 0.189999981220129D+02 0.591068626036925D+02 -.251646079246180D+02
 0.662134620369535D+02 -.368541677948233D+02 -.403910427149460D+02 0.373437617209287D+02
0.954321149876D-04 0.000000000000D+00 0.000000000000D+00 0.834884406754D-05 0.000000000000D+00  6 -1 1 25 23 21 21 2 0.23044804D-02 0.25001616D+00 0.19101243D+05 0.19101243D+05 0.19101243D+05 0.12360305D+01  1  2  2  2  6  2        1 0.476559907630D-01 0.100000000000D+01
0.146074782503D-05 0.503609106668D-05 -.366484449405D-06 0.834884406754D-05 0.000000000000D+00  6 -1 1 25 23 21 21 4 0.23044804D-02 0.25001616D+00 0.19101243D+05 0.19101243D+05 0.19101243D+05 0.12360305D+01  1  2  3  2  6  2        1 0.111443964110D-02 0.100000000000D+01
0.315761600712D-05 0.000000000000D+00 0.000000000000D+00 0.834884406754D-05 0.000000000000D+00  6 -1 1 25 23 21 21 4 0.23044804D-02 0.25001616D+00 0.19101243D+05 0.19101243D+05 0.19101243D+05 0.12360305D+01  1  2 15  2  6  2        1 0.240902118038D-02 0.100000000000D+01
-.390457509603D-04 0.000000000000D+00 0.000000000000D+00 0.834884406754D-05 0.000000000000D+00  6 -1 1 25 23 21 21 4 0.23044804D-02 0.25001616D+00 0.19101243D+05 0.19101243D+05 0.19101243D+05 0.12360305D+01  1  2  4  2  6  2        1 -.297889423081D-01 0.100000000000D+01
-.189498933733D-03 0.000000000000D+00 -.716474610273D-04 0.834884406754D-05 0.000000000000D+00  6 -1 1 25 23 21 21 4 0.23044804D-02 0.35007841D+00 0.19101243D+05 0.19101243D+05 0.19101243D+05 0.12360305D+01  1  2  5  2  6  2        1 -.556248588178D-01 0.100000000000D+01
0.205727000348D-03 0.000000000000D+00 0.677711218016D-04 0.834884406754D-05 0.000000000000D+00  6 -1 1 25 23 21 21 4 0.23044804D-02 0.25001616D+00 0.19101243D+05 0.19101243D+05 0.19101243D+05 0.12360305D+01  1  2  6  2  6  2        1 0.156954075511D+00 0.100000000000D+01
-.604601251392D-05 0.000000000000D+00 -.300938990146D-05 0.834884406754D-05 0.000000000000D+00  6 -1 21 25 23 -1 21 4 0.23044804D-02 0.35007841D+00 0.19101243D+05 0.19101243D+05 0.19101243D+05 0.12360305D+01  3  4  5  5  5  2        1 -.127503676989D-02 0.100000000000D+01
  </mgrwgt>
  </event>
  <event>
  5     66 0.47607883E-03 0.31774035E+02 0.75467711E-02 0.11934263E+00
       -1 -1    0    0    0  501 0.00000000E+00 0.00000000E+00 0.47109040E+02 0.47110127E+02 0.32000000E+00 0.0000E+00 0.9000E+01
        1 -1    0    0  502    0 0.00000000E+00 0.00000000E+00 -.42601650E+03 0.42601662E+03 0.32000000E+00 0.0000E+00 0.9000E+01
       25  1    1    2    0    0 0.57656865E+02 0.43206156E+02 -.18683653E+03 0.23605926E+03 0.12500000E+03 0.0000E+00 0.9000E+01
       23  1    1    2    0    0 -.26040617E+02 -.46294162E+02 -.16185560E+03 0.19321944E+03 0.91188000E+02 0.0000E+00 0.9000E+01
       21  1    1    2  502  501 -.31616248E+02 0.30880059E+01 -.30215331E+02 0.43848051E+02 0.75000000E+00 0.0000E+00 0.9000E+01
#aMCatNLO 1  0  0  2  2 0.28738662D+02 0.00000000D+00  -5  6  0 0.00000000D+00 0.00000000D+00 0.00000000D+00 0.00000000D+00 0.00000000D+00
  <mgrwgt>
 0.7559835850D-01    7    4    0
 0.141666911427620D+03 0.000000000000000D+00 0.000000000000000D+00 0.141666911427620D+03
 0.141666911427620D+03 0.000000000000000D+00 0.000000000000000D+00 -.141666911427620D+03
 0.144326676557460D+03 0.576610732132390D+02 0.432057452091160D+02 0.369510256205407D+01
 0.106195707266181D+03 -.260375199528794D+02 -.462944646690728D+02 -.118805300164499D+02
 0.328114390315983D+02 -.316235532603595D+02 0.308871945995673D+01 0.818542745439587D+01
 0.000000000000000D+00 -.000000000000000D+00 0.000000000000000D+00 -.000000000000000D+00
 0.150528773497948D+03 0.000000000000000D+00 0.000000000000000D+00 0.150528773497948D+03
 0.167775240359310D+03 0.000000000000000D+00 0.000000000000000D+00 -.167775240359310D+03
 0.142624731059887D+03 0.619825190858318D+02 0.293483807855835D+02 0.369510256205407D+01
 0.110437077842845D+03 -.227750621630710D+02 -.567560249529789D+02 -.118805300164499D+02
 0.317257713655886D+02 -.306516323911945D+02 -.278905987908917D-01 0.818542745439587D+01
 0.335164335889367D+02 -.855582453156626D+01 0.274355347661863D+02 -.172464668613615D+02
 0.141666911427620D+03 0.000000000000000D+00 0.000000000000000D+00 0.141666911427620D+03
 0.141666911427620D+03 0.000000000000000D+00 0.000000000000000D+00 -.141666911427620D+03
 0.144326676557460D+03 0.576610732132390D+02 0.432057452091160D+02 0.369510256205407D+01
 0.106195707266181D+03 -.260375199528794D+02 -.462944646690728D+02 -.118805300164499D+02
 0.000000000000000D+00 -.000000000000000D+00 0.000000000000000D+00 -.000000000000000D+00
 0.328114390315983D+02 -.316235532603595D+02 0.308871945995673D+01 0.818542745439587D+01
 0.150528773497948D+03 0.000000000000000D+00 0.000000000000000D+00 0.150528773497948D+03
 0.167775240359310D+03 0.000000000000000D+00 0.000000000000000D+00 -.167775240359310D+03
 0.142624731059887D+03 0.619825190858318D+02 0.293483807855835D+02 0.369510256205407D+01
 0.110437077842845D+03 -.227750621630710D+02 -.567560249529789D+02 -.118805300164499D+02
 0.335164335889367D+02 -.855582453156626D+01 0.274355347661863D+02 -.172464668613615D+02
 0.317257713655886D+02 -.306516323911945D+02 -.278905987908917D-01 0.818542745439587D+01
0.503167716341D-04 0.000000000000D+00 0.000000000000D+00 0.168215734293D-04 0.000000000000D+00  6 -1 1 25 23 21 21 2 0.72476374D-02 0.65541093D-01 0.19822170D+05 0.19822170D+05 0.19822170D+05 0.12342533D+01  1  2  2  2  6  2        1 0.412749219219D-01 0.100000000000D+01
0.597667967375D-05 0.265528898908D-05 -.193229651785D-06 0.168215734293D-04 0.000000000000D+00  6 -1 1 25 23 21 21 4 0.72476374D-02 0.65541093D-01 0.19822170D+05 0.19822170D+05 0.19822170D+05 0.12342533D+01  1  2  3  2  6  2        1 0.746864923205D-02 0.100000000000D+01
0.814126439685D-06 0.000000000000D+00 0.000000000000D+00 0.168215734293D-04 0.000000000000D+00  6 -1 1 25 23 21 21 4 0.72476374D-02 0.65541093D-01 0.19822170D+05 0.19822170D+05 0.19822170D+05 0.12342533D+01  1  2 15  2  6  2        1 0.101735832276D-02 0.100000000000D+01
-.406734626609D-04 0.000000000000D+00 0.000000000000D+00 0.168215734293D-04 0.000000000000D+00  6 -1 1 25 23 21 21 4 0.72476374D-02 0.65541093D-01 0.19822170D+05 0.19822170D+05 0.19822170D+05 0.12342533D+01  1  2  4  2  6  2        1 -.508268540811D-01 0.100000000000D+01
-.284010212567D-03 0.000000000000D+00 -.670818075778D-04 0.168215734293D-04 0.000000000000D+00  6 -1 1 25 23 21 21 4 0.72476374D-02 0.81330403D-01 0.19822170D+05 0.19822170D+05 0.19822170D+05 0.12342533D+01  1  2  5  2  6  2        1 -.268404972654D+00 0.100000000000D+01
0.293166579852D-03 0.000000000000D+00 0.655489718432D-04 0.168215734293D-04 0.000000000000D+00  6 -1 1 25 23 21 21 4 0.72476374D-02 0.65541093D-01 0.19822170D+05 0.19822170D+05 0.19822170D+05 0.12342533D+01  1  2  6  2  6  2        1 0.366350293306D+00 0.100000000000D+01
-.773331240685D-05 0.000000000000D+00 -.203441090899D-05 0.168215734293D-04 0.000000000000D+00  6 -1 21 25 23 -1 21 4 0.72476374D-02 0.81330403D-01 0.19822170D+05 0.19822170D+05 0.19822170D+05 0.12342533D+01  3  4  5  5  5  2        1 -.212810375491D-01 0.100000000000D+01
  </mgrwgt>
  </event>
  <event>
  6     66 -.47607883E-03 0.21064380E+02 0.75467711E-02 0.12254847E+00
       -1 -1    0    0    0  501 0.00000000E+00 0.00000000E+00 0.15705150E+02 0.15708410E+02 0.32000000E+00 0.0000E+00 0.9000E+01
        1 -1    0    0  503    0 0.00000000E+00 0.00000000E+00 -.13576778E+04 0.13576778E+04 0.32000000E+00 0.0000E+00 0.9000E+01
       25  1    1    2    0    0 -.36279237E+02 0.15874595E+02 -.73706087E+03 0.74863336E+03 0.12500000E+03 0.0000E+00 0.9000E+01
       23  1    1    2    0    0 0.42539223E+02 0.36525104E+01 -.46233787E+03 0.47317490E+03 0.91188000E+02 0.0000E+00 0.9000E+01
       21  1    1    2  502  501 -.17612990E+01 -.24263727E+02 -.29200145E+02 0.38013703E+02 0.75000000E+00 0.0000E+00 0.9000E+01
       21  1    1    2  503  502 -.44986874E+01 0.47366215E+01 -.11337374E+03 0.11356426E+03 0.75000000E+00 0.0000E+00 0.9000E+01
#aMCatNLO 2  0  0  2  5 0.65325165D+01 0.00000000D+00  -5  6  0 0.00000000D+00 0.00000000D+00 0.00000000D+00 0.00000000D+00 0.00000000D+00
  <mgrwgt>
 -.8015933108D-01    3    2    0
 0.139331873531993D+03 0.000000000000000D+00 0.000000000000000D+00 0.139331873531993D+03
 0.139331873531993D+03 0.000000000000000D+00 0.000000000000000D+00 -.139331873531993D+03
 0.135759369471450D+03 -.384632047750644D+02 0.181760324529871D+02 -.315566177209349D+02
 0.100172066872748D+03 0.409176100886849D+02 0.536133630729079D+01 -.402453664274000D+01
 0.427323107197878D+02 -.245440531362048D+01 -.235373687602779D+02 0.355811543636749D+02
 0.000000000000000D+00 -.000000000000000D+00 0.000000000000000D+00 -.000000000000000D+00
 0.140210251844075D+03 0.000000000000000D+00 0.000000000000000D+00 0.140210251844075D+03
 0.152069178814175D+03 0.000000000000000D+00 0.000000000000000D+00 -.152069178814175D+03
 0.134866775979961D+03 -.362790397584754D+02 0.158763476734036D+02 -.315566177209349D+02
 0.100769022511353D+03 0.425393621078623D+02 0.365381036193637D+01 -.402453664274000D+01
 0.431045066300695D+02 -.176163494851708D+01 -.242667795201218D+02 0.355811543636749D+02
 0.135391255368661D+02 -.449868740086988D+01 0.473662148478188D+01 -.118589269701005D+02
-.413011889087D-03 0.000000000000D+00 0.000000000000D+00 0.344574842913D-04 0.000000000000D+00  6 -1 1 25 23 21 21 4 0.24011156D-02 0.21101798D+00 0.17249503D+05 0.17249503D+05 0.17249503D+05 0.12409631D+01  1  2 13  2  6  2        1 -.440038278178D+00 0.100000000000D+01
-.509886484526D-05 0.000000000000D+00 0.000000000000D+00 0.346015290477D-04 0.000000000000D+00  6 -1 1 25 23 21 21 4 0.24011156D-02 0.19136441D+00 0.16358030D+05 0.16358030D+05 0.16358030D+05 0.12435543D+01  1  2  8  2  6  2        1 -.665833591301D-02 0.100000000000D+01
0.339844415218D-03 0.000000000000D+00 0.000000000000D+00 0.346015290477D-04 0.297174179601D-05  6 -1 1 25 23 21 21 4 0.24162527D-02 0.20885838D+00 0.17249503D+05 0.17249503D+05 0.17249503D+05 0.12409631D+01  1  2  1  2  6  2        1 0.366537283008D+00 0.100000000000D+01
  </mgrwgt>
  </event>
  <event>
  5     66 -.47607883E-03 0.23084721E+02 0.75467711E-02 0.12221619E+00
       -1 -1    0    0    0  501 0.00000000E+00 0.00000000E+00 0.84371750E+02 0.84372356E+02 0.32000000E+00 0.0000E+00 0.9000E+01
        1 -1    0    0  502    0 0.00000000E+00 0.00000000E+00 -.38424409E+03 0.38424422E+03 0.32000000E+00 0.0000E+00 0.9000E+01
       25  1    1    2    0    0 -.25900763E+01 -.36357289E+02 -.68863742E+02 0.14729486E+03 0.12500000E+03 0.0000E+00 0.9000E+01
       23  1    1    2    0    0 -.20471383E+02 0.35339723E+02 -.26330016E+03 0.28162066E+03 0.91188000E+02 0.0000E+00 0.9000E+01
       21  1    1    2  502  501 0.23061460E+02 0.10175654E+01 0.32291560E+02 0.39701055E+02 0.75000000E+00 0.0000E+00 0.9000E+01
#aMCatNLO 1  0  0  1  5 0.12570376D+02 0.00000000D+00  -5  6  0 0.00000000D+00 0.00000000D+00 0.00000000D+00 0.00000000D+00 0.00000000D+00
  <mgrwgt>
 -.1103212273D+00    7    4    0
 0.180054212365530D+03 0.000000000000000D+00 0.000000000000000D+00 0.180054212365530D+03
 0.180054212365530D+03 0.000000000000000D+00 0.000000000000000D+00 -.180054212365530D+03
 0.134332801118640D+03 -.259046844323689D+01 -.363573059110865D+02 0.330414472520850D+02
 0.147222513147217D+03 -.204718131434063D+02 0.353397042122943D+02 -.108125978405707D+03
 0.785531104652025D+02 0.230622815866432D+02 0.101760169879219D+01 0.750845311536225D+02
 0.000000000000000D+00 -.000000000000000D+00 0.000000000000000D+00 0.000000000000000D+00
 0.246174697558991D+03 0.000000000000000D+00 0.000000000000000D+00 0.246174697558991D+03
 0.180762319194859D+03 0.000000000000000D+00 0.000000000000000D+00 -.180762319194859D+03
 0.134805171842363D+03 0.176507964634184D+01 -.381127486909403D+02 0.330414472520850D+02
 0.146188231849351D+03 -.157234508228769D+02 0.334259431470345D+02 -.108125978405707D+03
 0.793343525345621D+02 0.256174261850485D+02 -.122136182478858D-01 0.750845311536225D+02
 0.666092605275735D+02 -.116590550085134D+02 0.469901916215368D+01 0.654123783641318D+02
 0.180054212365530D+03 0.000000000000000D+00 0.000000000000000D+00 0.180054212365530D+03
 0.180054212365530D+03 0.000000000000000D+00 0.000000000000000D+00 -.180054212365530D+03
 0.134332801118640D+03 -.259046844323689D+01 -.363573059110865D+02 0.330414472520850D+02
 0.147222513147217D+03 -.204718131434063D+02 0.353397042122943D+02 -.108125978405707D+03
 0.000000000000000D+00 -.000000000000000D+00 0.000000000000000D+00 0.000000000000000D+00
 0.785531104652025D+02 0.230622815866432D+02 0.101760169879219D+01 0.750845311536225D+02
 0.246174697558991D+03 0.000000000000000D+00 0.000000000000000D+00 0.246174697558991D+03
 0.180762319194859D+03 0.000000000000000D+00 0.000000000000000D+00 -.180762319194859D+03
 0.134805171842363D+03 0.176507964634184D+01 -.381127486909403D+02 0.330414472520850D+02
 0.146188231849351D+03 -.157234508228769D+02 0.334259431470345D+02 -.108125978405707D+03
 0.666092605275735D+02 -.116590550085134D+02 0.469901916215368D+01 0.654123783641318D+02
 0.793343525345621D+02 0.256174261850485D+02 -.122136182478858D-01 0.750845311536225D+02
0.181724142803D-04 0.000000000000D+00 0.000000000000D+00 0.264602979055D-04 0.000000000000D+00  6 -1 1 25 23 21 21 2 0.12980326D-01 0.59114532D-01 0.16028414D+05 0.16028414D+05 0.16028414D+05 0.12445527D+01  1  2  2  1  6  1       -1 0.706870627739D-02 0.100000000000D+01
0.210468981976D-05 0.958984648187D-06 -.697868557429D-07 0.264602979055D-04 0.000000000000D+00  6 -1 1 25 23 21 21 4 0.12980326D-01 0.59114532D-01 0.16028414D+05 0.16028414D+05 0.16028414D+05 0.12445527D+01  1  2  3  1  6  1       -1 0.126806636906D-02 0.100000000000D+01
0.600018560213D-06 0.000000000000D+00 0.000000000000D+00 0.264602979055D-04 0.000000000000D+00  6 -1 1 25 23 21 21 4 0.12980326D-01 0.59114532D-01 0.16028414D+05 0.16028414D+05 0.16028414D+05 0.12445527D+01  1  2 15  1  6  1       -1 0.361508546235D-03 0.100000000000D+01
-.217324240431D-03 0.000000000000D+00 0.000000000000D+00 0.264602979055D-04 0.000000000000D+00  6 -1 1 25 23 21 21 4 0.12980326D-01 0.59114532D-01 0.16028414D+05 0.16028414D+05 0.16028414D+05 0.12445527D+01  1  2  4  1  6  1       -1 -.130936900005D+00 0.100000000000D+01
-.625984845627D-03 0.000000000000D+00 -.149560384945D-04 0.264602979055D-04 0.000000000000D+00  6 -1 1 25 23 21 21 4 0.17784893D-01 0.59114532D-01 0.16028414D+05 0.16028414D+05 0.16028414D+05 0.12445527D+01  1  2  5  1  6  1       -1 -.230317153064D+00 0.100000000000D+01
0.601341748728D-03 0.000000000000D+00 0.142438905993D-04 0.264602979055D-04 0.000000000000D+00  6 -1 1 25 23 21 21 4 0.12980326D-01 0.59114532D-01 0.16028414D+05 0.16028414D+05 0.16028414D+05 0.12445527D+01  1  2  6  1  6  1       -1 0.362305761501D+00 0.100000000000D+01
-.246984490206D-04 0.000000000000D+00 -.598728163550D-06 0.264602979055D-04 0.000000000000D+00  6 21 1 25 23 1 21 4 0.17784893D-01 0.59114532D-01 0.16028414D+05 0.16028414D+05 0.16028414D+05 0.12445527D+01  3  4  5  4  5  1       -1 -.120071216973D+00 0.100000000000D+01
  </mgrwgt>
  </event>
  <event>
  5     66 0.47607883E-03 0.23059541E+02 0.75467711E-02 0.12206213E+00
       -1 -1    0    0    0  501 0.00000000E+00 0.00000000E+00 0.51446095E+02 0.51447090E+02 0.32000000E+00 0.0000E+00 0.9000E+01
        1 -1    0    0  502    0 0.00000000E+00 0.00000000E+00 -.50171738E+03 0.50171748E+03 0.32000000E+00 0.0000E+00 0.9000E+01
       25  1    1    2    0    0 -.10610189E+02 0.62222410E+02 -.25896009E+03 0.29439689E+03 0.12500000E+03 0.0000E+00 0.9000E+01
       23  1    1    2    0    0 -.62375120E+01 -.46479178E+02 -.20690570E+03 0.23092086E+03 0.91188000E+02 0.0000E+00 0.9000E+01
       21  1    1    2  502  501 0.16847701E+02 -.15743232E+02 0.15594506E+02 0.27846822E+02 0.75000000E+00 0.0000E+00 0.9000E+01
#aMCatNLO 1  0  0  1  5 0.34880729D+01 0.00000000D+00  -5  6  0 0.00000000D+00 0.00000000D+00 0.00000000D+00 0.00000000D+00 0.00000000D+00
  <mgrwgt>
 0.2777078994D+00   11    4    0
 0.160660211110631D+03 0.000000000000000D+00 0.000000000000000D+00 0.160660211110631D+03
 0.160660211110631D+03 0.000000000000000D+00 0.000000000000000D+00 -.160660211110631D+03
 0.143930577916962D+03 -.106106246475224D+02 0.622228171315086D+02 -.332678062444584D+02
 0.107598600374730D+03 -.623783777311100D+01 -.464788737753166D+02 -.326038514764031D+02
 0.697912439295705D+02 0.168484624206334D+02 -.157439433561920D+02 0.658716577208615D+02
 0.000000000000000D+00 0.000000000000000D+00 0.000000000000000D+00 0.000000000000000D+00
 0.262420153756596D+03 0.000000000000000D+00 0.000000000000000D+00 0.262420153756596D+03
 0.160699570323393D+03 0.000000000000000D+00 0.000000000000000D+00 -.160699570323393D+03
 0.143292105017484D+03 -.108694788653910D+02 0.606855407590452D+02 -.332678062444584D+02
 0.108113727855219D+03 -.643224458471135D+01 -.476334116483321D+02 -.326038514764031D+02
 0.699335210645972D+02 0.167225380180412D+02 -.164917797654862D+02 0.658716577208615D+02
 0.101780370142689D+03 0.579185432061160D+00 0.343965065477304D+01 0.101720583433203D+03
 0.160660211110631D+03 0.000000000000000D+00 0.000000000000000D+00 0.160660211110631D+03
 0.160660211110631D+03 0.000000000000000D+00 0.000000000000000D+00 -.160660211110631D+03
 0.143930577916962D+03 -.106106246475224D+02 0.622228171315086D+02 -.332678062444584D+02
 0.107598600374730D+03 -.623783777311100D+01 -.464788737753166D+02 -.326038514764031D+02
 0.000000000000000D+00 0.000000000000000D+00 0.000000000000000D+00 0.000000000000000D+00
 0.697912439295705D+02 0.168484624206334D+02 -.157439433561920D+02 0.658716577208615D+02
 0.262420153756596D+03 0.000000000000000D+00 0.000000000000000D+00 0.262420153756596D+03
 0.160699570323393D+03 0.000000000000000D+00 0.000000000000000D+00 -.160699570323393D+03
 0.143292105017484D+03 -.108694788653910D+02 0.606855407590452D+02 -.332678062444584D+02
 0.108113727855219D+03 -.643224458471135D+01 -.476334116483321D+02 -.326038514764031D+02
 0.101780370142689D+03 0.579185432061160D+00 0.343965065477304D+01 0.101720583433203D+03
 0.699335210645972D+02 0.167225380180412D+02 -.164917797654862D+02 0.658716577208615D+02
0.575945532986D-05 0.000000000000D+00 0.000000000000D+00 0.379375921643D-04 0.000000000000D+00  6 -1 1 25 23 21 21 2 0.79148682D-02 0.77187374D-01 0.17640170D+05 0.17640170D+05 0.17640170D+05 0.12398746D+01  1  2  2  1  6  1       -1 0.337356825120D-02 0.100000000000D+01
0.809173277372D-06 0.303934807894D-06 -.221178249661D-07 0.379375921643D-04 0.000000000000D+00  6 -1 1 25 23 21 21 4 0.79148682D-02 0.77187374D-01 0.17640170D+05 0.17640170D+05 0.17640170D+05 0.12398746D+01  1  2  3  1  6  1       -1 0.728626764821D-03 0.100000000000D+01
0.144856133635D-06 0.000000000000D+00 0.000000000000D+00 0.379375921643D-04 0.000000000000D+00  6 -1 1 25 23 21 21 4 0.79148682D-02 0.77187374D-01 0.17640170D+05 0.17640170D+05 0.17640170D+05 0.12398746D+01  1  2 15  1  6  1       -1 0.130436902659D-03 0.100000000000D+01
0.153524309963D-03 0.000000000000D+00 0.000000000000D+00 0.378534138334D-04 0.000000000000D+00  6 -1 1 25 23 21 21 4 0.13025131D-01 0.77187374D-01 0.18148381D+05 0.18148381D+05 0.18148381D+05 0.12384982D+01  1  2 12  1  6  1       -1 0.643359902159D-01 0.100000000000D+01
-.282418914788D-02 0.000000000000D+00 0.000000000000D+00 0.379375921643D-04 0.000000000000D+00  6 -1 1 25 23 21 21 4 0.79148682D-02 0.77187374D-01 0.17640170D+05 0.17640170D+05 0.17640170D+05 0.12398746D+01  1  2  4  1  6  1       -1 -.254306445802D+01 0.100000000000D+01
-.370127979017D-02 0.000000000000D+00 -.354897129969D-05 0.379375921643D-04 0.000000000000D+00  6 -1 1 25 23 21 21 4 0.12929252D-01 0.77187374D-01 0.17640170D+05 0.17640170D+05 0.17640170D+05 0.12398746D+01  1  2  5  1  6  1       -1 -.157536433481D+01 0.100000000000D+01
0.329821232153D-02 0.000000000000D+00 0.316067129326D-05 0.379375921643D-04 0.000000000000D+00  6 -1 1 25 23 21 21 4 0.79148682D-02 0.77187374D-01 0.17640170D+05 0.17640170D+05 0.17640170D+05 0.12398746D+01  1  2  6  1  6  1       -1 0.296990254218D+01 0.100000000000D+01
0.316043756681D-02 0.000000000000D+00 0.000000000000D+00 0.379375921643D-04 0.128412052648D-04  6 -1 1 25 23 21 21 4 0.12928036D-01 0.77206283D-01 0.18148381D+05 0.18148381D+05 0.18148381D+05 0.12384982D+01  1  2 11  1  6  1       -1 0.133944338007D+01 0.100000000000D+01
0.863055665449D-05 0.000000000000D+00 0.000000000000D+00 0.378534138334D-04 0.000000000000D+00  6 21 1 25 23 1 21 4 0.13025131D-01 0.77187374D-01 0.18148381D+05 0.18148381D+05 0.18148381D+05 0.12384982D+01  3  4 12  4  5  1       -1 0.513582469884D-01 0.100000000000D+01
-.205478812550D-03 0.000000000000D+00 -.197173570373D-06 0.379375921643D-04 0.000000000000D+00  6 21 1 25 23 1 21 4 0.12929252D-01 0.77187374D-01 0.17640170D+05 0.17640170D+05 0.17640170D+05 0.12398746D+01  3  4  5  4  5  1       -1 -.124465317450D+01 0.100000000000D+01
0.200954555190D-03 0.000000000000D+00 0.000000000000D+00 0.379375921643D-04 0.163298387445D-05  6 21 1 25 23 1 21 4 0.12928036D-01 0.77206283D-01 0.18148381D+05 0.18148381D+05 0.18148381D+05 0.12384982D+01  3  4 11  4  5  1       -1 0.121151707533D+01 0.100000000000D+01
  </mgrwgt>
  </event>
  <event>
  6     66 0.47607883E-03 0.39525897E+02 0.75467711E-02 0.12160236E+00
       21 -1    0    0  503  501 0.00000000E+00 0.00000000E+00 0.27381962E+02 0.27392232E+02 0.75000000E+00 0.0000E+00 0.9000E+01
        1 -1    0    0  502    0 0.00000000E+00 0.00000000E+00 -.97762270E+03 0.97762275E+03 0.32000000E+00 0.0000E+00 0.9000E+01
       25  1    1    2    0    0 -.11145346E+02 -.38904185E+02 -.56456165E+03 0.57964869E+03 0.12500000E+03 0.0000E+00 0.9000E+01
       23  1    1    2    0    0 0.28050090E+02 -.18756020E+00 -.34638704E+03 0.35928550E+03 0.91188000E+02 0.0000E+00 0.9000E+01
        1  1    1    2  503    0 -.10876066E+02 0.41357012E+02 -.23024498E+02 0.48568726E+02 0.32000000E+00 0.0000E+00 0.9000E+01
       21  1    1    2  502  501 -.60286779E+01 -.22652662E+01 -.16267558E+02 0.17512063E+02 0.75000000E+00 0.0000E+00 0.9000E+01
#aMCatNLO 2  0  0  1  1 0.61893671D+02 0.00000000D+00  -5  6  0 0.00000000D+00 0.00000000D+00 0.00000000D+00 0.00000000D+00 0.00000000D+00
  <mgrwgt>
 0.1867910721D-01    1    2    0
 0.231964667751382D+03 0.000000000000000D+00 0.000000000000000D+00 0.231964667751382D+03
 0.115359001912059D+03 0.000000000000000D+00 0.000000000000000D+00 -.115359001912059D+03
 0.127618223176701D+03 -.171890123185922D+02 -.158442739607691D+02 -.107195020847786D+02
 0.960027834298902D+02 0.235842036509783D+02 0.168532953792007D+02 0.781248073898365D+01
 0.116605665839323D+03 -.000000000000000D+00 0.000000000000000D+00 0.116605665839323D+03
 0.709699721752716D+01 -.639519133238613D+01 -.100902141843169D+01 0.290702134579499D+01
 0.219853099267186D+03 0.000000000000000D+00 0.000000000000000D+00 0.219853099267186D+03
 0.121782739410872D+03 0.000000000000000D+00 0.000000000000000D+00 -.121782739410872D+03
 0.131821661911948D+03 -.111256391072631D+02 -.389006809546722D+02 -.107195020847786D+02
 0.957286479740998D+02 0.280651616368620D+02 -.185865405439326D+00 0.781248073898365D+01
 0.106988255017223D+03 -.108760657046489D+02 0.413570117884678D+02 0.980703598563141D+02
 0.709727377478860D+01 -.606345682495006D+01 -.227046542835623D+01 0.290702134579499D+01
0.119108031412D-05 0.000000000000D+00 0.000000000000D+00 0.455754135832D-03 0.221323024959D-06  6 21 1 25 23 1 21 4 0.42133955D-02 0.15040400D+00 0.19048447D+05 0.19048447D+05 0.19048447D+05 0.12361636D+01  1  2  1  4  5  1       -1 0.186791072051D-01 0.100000000000D+01
  </mgrwgt>
  </event>
  <event>
  6     66 0.47607883E-03 0.29712790E+02 0.75467711E-02 0.11885584E+00
       -1 -1    0    0    0  501 0.00000000E+00 0.00000000E+00 0.52432288E+02 0.52433264E+02 0.32000000E+00 0.0000E+00 0.9000E+01
        1 -1    0    0  502    0 -.00000000E+00 -.00000000E+00 -.14765505E+04 0.14765505E+04 0.32000000E+00 0.0000E+00 0.9000E+01
       25  1    1    2    0    0 -.35652092E+02 -.66015586E+02 -.66073369E+03 0.67662629E+03 0.12500000E+03 0.0000E+00 0.9000E+01
       23  1    1    2    0    0 0.17088105E+02 0.80378222E+02 -.78506036E+03 0.79459907E+03 0.91188000E+02 0.0000E+00 0.9000E+01
        1  1    1    2  502    0 -.14554650E+02 0.24210114E+01 -.12704639E-01 0.14758106E+02 0.32000000E+00 0.0000E+00 0.9000E+01
       -1  1    1    2    0  501 0.33118636E+02 -.16783648E+02 0.21688529E+02 0.43000344E+02 0.32000000E+00 0.0000E+00 0.9000E+01
#aMCatNLO 2  0  0  5  2 0.18401151D+02 0.00000000D+00  -5  6  0 0.00000000D+00 0.00000000D+00 0.00000000D+00 0.00000000D+00 0.00000000D+00
  <mgrwgt>
 0.2156008756D-01    2    2    0
 0.278243947359530D+03 0.000000000000000D+00 0.000000000000000D+00 0.278243947359530D+03
 0.278243947359530D+03 -.000000000000000D+00 -.000000000000000D+00 -.278243947359530D+03
 0.168994122809478D+03 -.358003728096859D+02 -.659008629353751D+02 -.854951642796558D+02
 0.175408246890893D+03 0.169343773250819D+02 0.804971589627184D+02 -.125244704466412D+03
 0.212085525018689D+03 0.188659954846041D+02 -.145962960273433D+02 0.210739868746068D+03
 0.000000000000000D+00 0.000000000000000D+00 0.000000000000000D+00 0.000000000000000D+00
 0.278243947359530D+03 0.000000000000000D+00 0.000000000000000D+00 0.278243947359530D+03
 0.278243947359530D+03 -.000000000000000D+00 -.000000000000000D+00 -.278243947359530D+03
 0.168181723593783D+03 -.356531863288920D+02 -.660147385825226D+02 -.838510390242976D+02
 0.174155648550350D+03 0.170869715281705D+02 0.803790994538971D+02 -.123540173032779D+03
 0.401975957656661D+02 -.144625915855842D+02 0.240860448047543D+01 0.374283151427516D+02
 0.173952926809260D+03 0.330288063863057D+02 -.167729653518500D+02 0.169962896914325D+03
-.981019173340D-04 0.000000000000D+00 0.000000000000D+00 0.568013268999D-04 0.000000000000D+00  6 -1 1 25 23 1 -1 4 0.80665836D-02 0.22716169D+00 0.25639240D+05 0.25639240D+05 0.25639240D+05 0.12221238D+01  1  2 13  6  6  5       21 -.140141062658D-01 0.100000000000D+01
0.249027412501D-03 0.000000000000D+00 0.000000000000D+00 0.575966427201D-04 0.682234581936D-07  6 -1 1 25 23 1 -1 4 0.80665836D-02 0.22716169D+00 0.25639240D+05 0.25639240D+05 0.25639240D+05 0.12221238D+01  1  2  1  6  6  5       21 0.355741938256D-01 0.100000000000D+01
  </mgrwgt>
  </event>
  <event>
  5     66 0.47607883E-03 0.47131061E+02 0.75467711E-02 0.11803280E+00
       -1 -1    0    0    0  501 0.00000000E+00 0.00000000E+00 0.74637574E+02 0.74638260E+02 0.32000000E+00 0.0000E+00 0.9000E+01
        1 -1    0    0  502    0 0.00000000E+00 0.00000000E+00 -.86924084E+03 0.86924090E+03 0.32000000E+00 0.0000E+00 0.9000E+01
       25  1    1    2    0    0 -.27537536E+02 0.10629748E+02 -.29389871E+03 0.32073783E+03 0.12500000E+03 0.0000E+00 0.9000E+01
       23  1    1    2    0    0 -.36767286E+02 -.54722757E+01 -.53913002E+03 0.54804946E+03 0.91188000E+02 0.0000E+00 0.9000E+01
       21  1    1    2  502  501 0.64304822E+02 -.51574721E+01 0.38425463E+02 0.75091866E+02 0.75000000E+00 0.0000E+00 0.9000E+01
#aMCatNLO 1  0  0  2  5 0.35900728D+02 0.00000000D+00  -5  6  0 0.00000000D+00 0.00000000D+00 0.00000000D+00 0.00000000D+00 0.00000000D+00
  <mgrwgt>
 0.1387945617D+00    9    4    0
 0.254712346547768D+03 0.000000000000000D+00 0.000000000000000D+00 0.254712346547768D+03
 0.254712346547768D+03 0.000000000000000D+00 0.000000000000000D+00 -.254712346547768D+03
 0.135849236825539D+03 -.275376578791550D+02 0.106297575391020D+02 -.442572118334632D+02
 0.174507043739062D+03 -.367674425235047D+02 -.547226313619201D+01 -.144068270195057D+03
 0.199068412530935D+03 0.643051004026597D+02 -.515749440290995D+01 0.188325482028520D+03
 0.000000000000000D+00 -.000000000000000D+00 -.000000000000000D+00 -.000000000000000D+00
 0.270158463801330D+03 0.000000000000000D+00 0.000000000000000D+00 0.270158463801330D+03
 0.277094244092086D+03 0.000000000000000D+00 0.000000000000000D+00 -.277094244092086D+03
 0.134627096065709D+03 -.186128373643268D+02 0.139397446555806D+02 -.442572118334632D+02
 0.172376330817449D+03 -.253214434432836D+02 -.122723552719846D+01 -.144068270195057D+03
 0.203684716932093D+03 0.775946158061688D+02 -.228753853251282D+00 0.188325482028520D+03
 0.365645640781643D+02 -.336603349985585D+02 -.124837552751308D+02 -.693578029075630D+01
 0.254712346547768D+03 0.000000000000000D+00 0.000000000000000D+00 0.254712346547768D+03
 0.254712346547768D+03 0.000000000000000D+00 0.000000000000000D+00 -.254712346547768D+03
 0.135849236825539D+03 -.275376578791550D+02 0.106297575391020D+02 -.442572118334632D+02
 0.174507043739062D+03 -.367674425235047D+02 -.547226313619201D+01 -.144068270195057D+03
 0.000000000000000D+00 -.000000000000000D+00 -.000000000000000D+00 -.000000000000000D+00
 0.199068412530935D+03 0.643051004026597D+02 -.515749440290995D+01 0.188325482028520D+03
 0.270158463801330D+03 0.000000000000000D+00 0.000000000000000D+00 0.270158463801330D+03
 0.277094244092086D+03 0.000000000000000D+00 0.000000000000000D+00 -.277094244092086D+03
 0.134627096065709D+03 -.186128373643268D+02 0.139397446555806D+02 -.442572118334632D+02
 0.172376330817449D+03 -.253214434432836D+02 -.122723552719846D+01 -.144068270195057D+03
 0.365645640781643D+02 -.336603349985585D+02 -.124837552751308D+02 -.693578029075630D+01
 0.203684716932093D+03 0.775946158061688D+02 -.228753853251282D+00 0.188325482028520D+03
0.222435862725D-03 0.000000000000D+00 0.000000000000D+00 0.858524213562D-05 0.000000000000D+00  6 -1 1 25 23 21 21 2 0.11482761D-01 0.13372942D+00 0.21231860D+05 0.21231860D+05 0.21231860D+05 0.12309785D+01  1  2  2  2  6  2        1 0.335693443365D-01 0.100000000000D+01
0.157594684778D-05 0.117382629665D-04 -.854212281571D-06 0.858524213562D-05 0.000000000000D+00  6 -1 1 25 23 21 21 4 0.11482761D-01 0.13372942D+00 0.21231860D+05 0.21231860D+05 0.21231860D+05 0.12309785D+01  1  2  3  2  6  2        1 0.360396481042D-03 0.100000000000D+01
0.925727668117D-05 0.000000000000D+00 0.000000000000D+00 0.858524213562D-05 0.000000000000D+00  6 -1 1 25 23 21 21 4 0.11482761D-01 0.13372942D+00 0.21231860D+05 0.21231860D+05 0.21231860D+05 0.12309785D+01  1  2 15  2  6  2        1 0.211700663930D-02 0.100000000000D+01
0.578973609423D-03 0.000000000000D+00 0.000000000000D+00 0.840357706979D-05 0.000000000000D+00  6 -1 1 25 23 21 21 4 0.11482761D-01 0.15048547D+00 0.28104286D+05 0.28104286D+05 0.28104286D+05 0.12178850D+01  1  2 12  2  6  2        1 0.104690464274D+00 0.100000000000D+01
-.321226040504D-03 0.000000000000D+00 0.000000000000D+00 0.858524213562D-05 0.000000000000D+00  6 -1 1 25 23 21 21 4 0.11482761D-01 0.13372942D+00 0.21231860D+05 0.21231860D+05 0.21231860D+05 0.12309785D+01  1  2  4  2  6  2        1 -.734597964264D-01 0.100000000000D+01
-.156954610044D-02 0.000000000000D+00 -.443675793315D-03 0.858524213562D-05 0.000000000000D+00  6 -1 1 25 23 21 21 4 0.11482761D-01 0.15170297D+00 0.21231860D+05 0.21231860D+05 0.21231860D+05 0.12309785D+01  1  2  5  2  6  2        1 -.292572095007D+00 0.100000000000D+01
0.161613338087D-02 0.000000000000D+00 0.440171192375D-03 0.858524213562D-05 0.000000000000D+00  6 -1 1 25 23 21 21 4 0.11482761D-01 0.13372942D+00 0.21231860D+05 0.21231860D+05 0.21231860D+05 0.12309785D+01  1  2  6  2  6  2        1 0.369586565804D+00 0.100000000000D+01
0.108346735392D-04 0.000000000000D+00 0.000000000000D+00 0.840357706979D-05 0.000000000000D+00  6 -1 21 25 23 -1 21 4 0.11482761D-01 0.15048547D+00 0.28104286D+05 0.28104286D+05 0.28104286D+05 0.12178850D+01  3  4 12  5  5  2        1 0.314547694688D-02 0.100000000000D+01
-.287963825689D-04 0.000000000000D+00 -.877547713799D-05 0.858524213562D-05 0.000000000000D+00  6 -1 21 25 23 -1 21 4 0.11482761D-01 0.15170297D+00 0.21231860D+05 0.21231860D+05 0.21231860D+05 0.12309785D+01  3  4  5  5  5  2        1 -.864280137868D-02 0.100000000000D+01
  </mgrwgt>
  </event>
  <event>
  6     66 0.47607883E-03 0.61830443E+02 0.75467711E-02 0.10674501E+00
       -1 -1    0    0    0  503 0.00000000E+00 0.00000000E+00 0.43663483E+03 0.43663495E+03 0.32000000E+00 0.0000E+00 0.9000E+01
        1 -1    0    0  502    0 0.00000000E+00 0.00000000E+00 -.43744200E+03 0.43744211E+03 0.32000000E+00 0.0000E+00 0.9000E+01
       25  1    1    2    0    0 0.74420952E+02 0.25578757E+03 0.18453438E+03 0.34733801E+03 0.12500000E+03 0.0000E+00 0.9000E+01
       23  1    1    2    0    0 -.38654659E+02 -.21727627E+03 -.18473138E+03 0.30190080E+03 0.91188000E+02 0.0000E+00 0.9000E+01
       21  1    1    2  502  501 -.22802827E+02 0.49724532E+02 -.85633923E+02 0.10161806E+03 0.75000000E+00 0.0000E+00 0.9000E+01
       21  1    1    2  501  503 -.12963466E+02 -.88235828E+02 0.85023765E+02 0.12322019E+03 0.75000000E+00 0.0000E+00 0.9000E+01
#aMCatNLO 2  0  0  1  5 0.20772216D+02 0.00000000D+00  -5  6  0 0.00000000D+00 0.00000000D+00 0.00000000D+00 0.00000000D+00 0.00000000D+00
  <mgrwgt>
 0.4949124707D-01    1    2    0
 0.370292275607602D+03 0.000000000000000D+00 0.000000000000000D+00 0.370292275607602D+03
 0.370292275607602D+03 0.000000000000000D+00 0.000000000000000D+00 -.370292275607602D+03
 0.341764999775664D+03 0.682067643290113D+02 0.213487227755773D+03 0.225719640165806D+03
 0.311242227075310D+03 -.438333143433109D+02 -.252527943574827D+03 -.151210948143143D+03
 0.875773243642305D+02 -.243734499857004D+02 0.390407158190535D+02 -.745086920226635D+02
 0.000000000000000D+00 -.000000000000000D+00 -.000000000000000D+00 0.000000000000000D+00
 0.489756022824237D+03 0.000000000000000D+00 0.000000000000000D+00 0.489756022824237D+03
 0.389993198243286D+03 0.000000000000000D+00 0.000000000000000D+00 -.389993198243286D+03
 0.370863675323234D+03 0.744213729645822D+02 0.255786960112791D+03 0.225719640165806D+03
 0.282636520401805D+03 -.386542861600273D+02 -.217276889346176D+03 -.151210948143143D+03
 0.924348485291430D+02 -.228036209242810D+02 0.497257569919170D+02 -.745086920226635D+02
 0.133814176813341D+03 -.129634658802738D+02 -.882358277585319D+02 0.997628245809519D+02
0.218750639992D-02 0.000000000000D+00 0.000000000000D+00 0.311846944218D-05 0.969579976042D-09  6 -1 1 25 23 21 21 4 0.67174432D-01 0.67298611D-01 0.11456081D+06 0.11456081D+06 0.11456081D+06 0.11581871D+01  1  2  1  1  6  1       -1 0.494912470662D-01 0.100000000000D+01
  </mgrwgt>
  </event>
  <event>
  5     66 -.47607883E-03 0.32500128E+02 0.75467711E-02 0.11825732E+00
       -3 -1    0    0    0  501 0.00000000E+00 0.00000000E+00 0.12790141E+03 0.12790239E+03 0.50000000E+00 0.0000E+00 0.9000E+01
        3 -1    0    0  502    0 0.00000000E+00 0.00000000E+00 -.26313585E+03 0.26313633E+03 0.50000000E+00 0.0000E+00 0.9000E+01
       25  1    1    2    0    0 -.57750730E+02 -.75857328E+02 0.32683588E+02 0.16056992E+03 0.12500000E+03 0.0000E+00 0.9000E+01
       23  1    1    2    0    0 0.34321118E+02 0.53344546E+02 -.16350654E+03 0.19766947E+03 0.91188000E+02 0.0000E+00 0.9000E+01
       21  1    1    2  502  501 0.23429611E+02 0.22512782E+02 -.44114876E+01 0.32799326E+02 0.75000000E+00 0.0000E+00 0.9000E+01
#aMCatNLO 1  0  0  1  5 0.29606035D+02 0.00000000D+00  -5  6  0 0.00000000D+00 0.00000000D+00 0.00000000D+00 0.00000000D+00 0.00000000D+00
  <mgrwgt>
 -.2861044427D-02    7    4    0
 0.183454981885984D+03 0.000000000000000D+00 0.000000000000000D+00 0.183454981885984D+03
 0.183454981885984D+03 0.000000000000000D+00 0.000000000000000D+00 -.183454981885984D+03
 0.183177362531128D+03 -.577536921223972D+02 -.758601748267208D+02 0.940143130876950D+02
 0.150403062439853D+03 0.343186858566759D+02 0.533422086329760D+02 -.101403483305620D+03
 0.333295388009870D+02 0.234350062657213D+02 0.225179661937447D+02 0.738917021792493D+01
 0.000000000000000D+00 0.000000000000000D+00 0.000000000000000D+00 0.000000000000000D+00
 0.225794535753132D+03 0.000000000000000D+00 0.000000000000000D+00 0.225794535753132D+03
 0.189300691851619D+03 0.000000000000000D+00 0.000000000000000D+00 -.189300691851619D+03
 0.191463251822035D+03 -.665733985142210D+02 -.881048712795364D+02 0.940143130876950D+02
 0.145780902912456D+03 0.273459885241038D+02 0.436617772782711D+02 -.101403483305620D+03
 0.308583293823140D+02 0.219239096851458D+02 0.204200597422115D+02 0.738917021792493D+01
 0.469927434879457D+02 0.173035003049714D+02 0.240230342590538D+02 0.364938439015137D+02
 0.183454981885984D+03 0.000000000000000D+00 0.000000000000000D+00 0.183454981885984D+03
 0.183454981885984D+03 0.000000000000000D+00 0.000000000000000D+00 -.183454981885984D+03
 0.183177362531128D+03 -.577536921223972D+02 -.758601748267208D+02 0.940143130876950D+02
 0.150403062439853D+03 0.343186858566759D+02 0.533422086329760D+02 -.101403483305620D+03
 0.000000000000000D+00 0.000000000000000D+00 0.000000000000000D+00 0.000000000000000D+00
 0.333295388009870D+02 0.234350062657213D+02 0.225179661937447D+02 0.738917021792493D+01
 0.225794535753132D+03 0.000000000000000D+00 0.000000000000000D+00 0.225794535753132D+03
 0.189300691851619D+03 0.000000000000000D+00 0.000000000000000D+00 -.189300691851619D+03
 0.191463251822035D+03 -.665733985142210D+02 -.881048712795364D+02 0.940143130876950D+02
 0.145780902912456D+03 0.273459885241038D+02 0.436617772782711D+02 -.101403483305620D+03
 0.469927434879457D+02 0.173035003049714D+02 0.240230342590538D+02 0.364938439015137D+02
 0.308583293823140D+02 0.219239096851458D+02 0.204200597422115D+02 0.738917021792493D+01
0.859905641356D-04 0.000000000000D+00 0.000000000000D+00 0.873477065866D-05 0.000000000000D+00  6 -3 3 25 23 21 21 2 0.19677252D-01 0.40482550D-01 0.22618567D+05 0.22618567D+05 0.22618567D+05 0.12279863D+01  1  2  2  1  6  1       -3 0.428827141275D-02 0.100000000000D+01
0.106192377772D-04 0.453784673973D-05 -.330226408116D-06 0.873477065866D-05 0.000000000000D+00  6 -3 3 25 23 21 21 4 0.19677252D-01 0.40482550D-01 0.22618567D+05 0.22618567D+05 0.22618567D+05 0.12279863D+01  1  2  3  1  6  1       -3 0.798567946358D-03 0.100000000000D+01
0.196437962400D-05 0.000000000000D+00 0.000000000000D+00 0.873477065866D-05 0.000000000000D+00  6 -3 3 25 23 21 21 4 0.19677252D-01 0.40482550D-01 0.22618567D+05 0.22618567D+05 0.22618567D+05 0.12279863D+01  1  2 15  1  6  1       -3 0.147721581823D-03 0.100000000000D+01
-.843458685769D-04 0.000000000000D+00 0.000000000000D+00 0.873477065866D-05 0.000000000000D+00  6 -3 3 25 23 21 21 4 0.19677252D-01 0.40482550D-01 0.22618567D+05 0.22618567D+05 0.22618567D+05 0.12279863D+01  1  2  4  1  6  1       -3 -.634281936865D-02 0.100000000000D+01
-.499201369453D-03 0.000000000000D+00 -.889388746193D-04 0.873477065866D-05 0.000000000000D+00  6 -3 3 25 23 21 21 4 0.24874877D-01 0.40482550D-01 0.22618567D+05 0.22618567D+05 0.22618567D+05 0.12279863D+01  1  2  5  1  6  1       -3 -.247044851699D-01 0.100000000000D+01
0.508406440876D-03 0.000000000000D+00 0.865503838556D-04 0.873477065866D-05 0.000000000000D+00  6 -3 3 25 23 21 21 4 0.19677252D-01 0.40482550D-01 0.22618567D+05 0.22618567D+05 0.22618567D+05 0.12279863D+01  1  2  6  1  6  1       -3 0.382322249416D-01 0.100000000000D+01
-.147662043876D-04 0.000000000000D+00 -.286951842935D-05 0.873477065866D-05 0.000000000000D+00  6 21 3 25 23 3 21 4 0.24874877D-01 0.40482550D-01 0.22618567D+05 0.22618567D+05 0.22618567D+05 0.12279863D+01  3  4  5  4  5  1       -3 -.152805257705D-01 0.100000000000D+01
  </mgrwgt>
  </event>
  <event>
  6     66 0.47607883E-03 0.18905946E+03 0.75467711E-02 0.10726523E+00
       21 -1    0    0  503  501 0.00000000E+00 0.00000000E+00 0.75670781E+03 0.75670818E+03 0.75000000E+00 0.0000E+00 0.9000E+01
        1 -1    0    0  502    0 0.00000000E+00 0.00000000E+00 -.90048335E+03 0.90048340E+03 0.32000000E+00 0.0000E+00 0.9000E+01
       25  1    1    2    0    0 0.22990820E+02 -.33384072E+02 -.43926062E+03 0.45849533E+03 0.12500000E+03 0.0000E+00 0.9000E+01
       23  1    1    2    0    0 -.25848361E+03 0.26007637E+02 -.37295913E+03 0.46357733E+03 0.91188000E+02 0.0000E+00 0.9000E+01
        1  1    1    2  503    0 0.22241243E+03 0.25750681E+02 0.67536756E+03 0.71151376E+03 0.32000000E+00 0.0000E+00 0.9000E+01
       21  1    1    2  502  501 0.13080362E+02 -.18374246E+02 -.69233479E+01 0.23605169E+02 0.75000000E+00 0.0000E+00 0.9000E+01
#aMCatNLO 2  0  0  1  2 0.22389816D+03 0.00000000D+00  -5  6  0 0.00000000D+00 0.00000000D+00 0.00000000D+00 0.00000000D+00 0.00000000D+00
  <mgrwgt>
 0.1285836088D-01    1    2    0
 0.208074953643573D+03 0.000000000000000D+00 0.000000000000000D+00 0.208074953643573D+03
 0.208074953643573D+03 0.000000000000000D+00 0.000000000000000D+00 -.208074953643573D+03
 0.187492794386356D+03 0.108980947522199D+03 -.234270258584569D+02 -.842785588592705D+02
 0.182790283889469D+03 -.142362968207871D+03 0.394531326422870D+02 0.572125174078824D+02
 0.000000000000000D+00 0.000000000000000D+00 0.000000000000000D+00 0.000000000000000D+00
 0.458668290113201D+02 0.333820206856729D+02 -.160261067838301D+02 0.270660414513880D+02
 0.282601054783846D+04 0.000000000000000D+00 0.000000000000000D+00 0.282601054783846D+04
 0.241118377191741D+03 0.000000000000000D+00 0.000000000000000D+00 -.241118377191741D+03
 0.156111480453033D+03 0.229888531340005D+02 -.333831016747312D+02 -.842785588592705D+02
 0.281212058259723D+03 -.258486474590582D+03 0.260084730858087D+02 0.572125174078824D+02
 0.259457085442468D+04 0.222412425905389D+03 0.257506808102519D+02 0.258489217064672D+04
 0.352345318927640D+02 0.130851955511916D+02 -.183760522213294D+02 0.270660414513880D+02
0.635655152481D-03 0.000000000000D+00 0.000000000000D+00 0.767746647772D-05 0.903676439311D-08  6 21 1 25 23 1 21 4 0.11641661D+00 0.13853593D+00 0.10666595D+06 0.10666595D+06 0.10666595D+06 0.11610059D+01  1  2  1  4  5  1       -1 0.128583608814D-01 0.100000000000D+01
  </mgrwgt>
  </event>
  <event>
  5     66 -.47607883E-03 0.48629253E+02 0.75467711E-02 0.11993701E+00
       -1 -1    0    0    0  501 0.00000000E+00 0.00000000E+00 0.49906820E+02 0.49907846E+02 0.32000000E+00 0.0000E+00 0.9000E+01
        1 -1    0    0  502    0 0.00000000E+00 0.00000000E+00 -.75953253E+03 0.75953260E+03 0.32000000E+00 0.0000E+00 0.9000E+01
       25  1    1    2    0    0 -.19890703E+02 -.66005885E+02 -.22336967E+03 0.26508758E+03 0.12500000E+03 0.0000E+00 0.9000E+01
       23  1    1    2    0    0 0.30978270E+02 0.18658526E+02 -.48591453E+03 0.49571764E+03 0.91188000E+02 0.0000E+00 0.9000E+01
       21  1    1    2  502  501 -.11087567E+02 0.47347358E+02 -.34151549E+00 0.48635230E+02 0.75000000E+00 0.0000E+00 0.9000E+01
#aMCatNLO 1  0  0  1  5 0.14144662D+02 0.00000000D+00  -5  6  0 0.00000000D+00 0.00000000D+00 0.00000000D+00 0.00000000D+00 0.00000000D+00
  <mgrwgt>
 -.1742550039D+00    9    4    0
 0.194695393743697D+03 0.000000000000000D+00 0.000000000000000D+00 0.194695393743697D+03
 0.194695393743697D+03 0.000000000000000D+00 0.000000000000000D+00 -.194695393743697D+03
 0.143978200825106D+03 -.198905891407162D+02 -.660063725247144D+02 0.187682061635717D+02
 0.144935907686427D+03 0.309783848734535D+02 0.186580353155434D+02 -.106692939699329D+03
 0.100476678975861D+03 -.110877957327373D+02 0.473483372091710D+02 0.879247335357573D+02
 0.000000000000000D+00 0.000000000000000D+00 0.000000000000000D+00 0.000000000000000D+00
 0.277871851774854D+03 0.000000000000000D+00 0.000000000000000D+00 0.277871851774854D+03
 0.195426079256168D+03 0.000000000000000D+00 0.000000000000000D+00 -.195426079256168D+03
 0.146571852005537D+03 -.210748835293236D+02 -.711471118314737D+02 0.187682061635717D+02
 0.144118421148038D+03 0.298001871195509D+02 0.135437600450639D+02 -.106692939699329D+03
 0.989573328359815D+02 -.119006972579141D+02 0.438197256889265D+02 0.879247335357573D+02
 0.836503250414658D+02 0.317539366768680D+01 0.137836260974832D+02 0.824457725186857D+02
 0.194695393743697D+03 0.000000000000000D+00 0.000000000000000D+00 0.194695393743697D+03
 0.194695393743697D+03 0.000000000000000D+00 0.000000000000000D+00 -.194695393743697D+03
 0.143978200825106D+03 -.198905891407162D+02 -.660063725247144D+02 0.187682061635717D+02
 0.144935907686427D+03 0.309783848734535D+02 0.186580353155434D+02 -.106692939699329D+03
 0.000000000000000D+00 0.000000000000000D+00 0.000000000000000D+00 0.000000000000000D+00
 0.100476678975861D+03 -.110877957327373D+02 0.473483372091710D+02 0.879247335357573D+02
 0.277871851774854D+03 0.000000000000000D+00 0.000000000000000D+00 0.277871851774854D+03
 0.195426079256168D+03 0.000000000000000D+00 0.000000000000000D+00 -.195426079256168D+03
 0.146571852005537D+03 -.210748835293236D+02 -.711471118314737D+02 0.187682061635717D+02
 0.144118421148038D+03 0.298001871195509D+02 0.135437600450639D+02 -.106692939699329D+03
 0.836503250414658D+02 0.317539366768680D+01 0.137836260974832D+02 0.824457725186857D+02
 0.989573328359815D+02 -.119006972579141D+02 0.438197256889265D+02 0.879247335357573D+02
0.106948570268D-04 0.000000000000D+00 0.000000000000D+00 0.669865033687D-05 0.000000000000D+00  6 -1 1 25 23 21 21 2 0.76780565D-02 0.11685124D+00 0.20949091D+05 0.20949091D+05 0.20949091D+05 0.12316155D+01  1  2  2  1  6  1       -1 0.366331293595D-02 0.100000000000D+01
0.258192105229D-07 0.564383110856D-06 -.410710670035D-07 0.669865033687D-05 0.000000000000D+00  6 -1 1 25 23 21 21 4 0.76780565D-02 0.11685124D+00 0.20949091D+05 0.20949091D+05 0.20949091D+05 0.12316155D+01  1  2  3  1  6  1       -1 0.134150492379D-04 0.100000000000D+01
0.442013427277D-06 0.000000000000D+00 0.000000000000D+00 0.669865033687D-05 0.000000000000D+00  6 -1 1 25 23 21 21 4 0.76780565D-02 0.11685124D+00 0.20949091D+05 0.20949091D+05 0.20949091D+05 0.12316155D+01  1  2 15  1  6  1       -1 0.229659690232D-03 0.100000000000D+01
0.336228407450D-03 0.000000000000D+00 0.000000000000D+00 0.665579793518D-05 0.000000000000D+00  6 -1 1 25 23 21 21 4 0.11453728D-01 0.11685124D+00 0.22771126D+05 0.22771126D+05 0.22771126D+05 0.12276697D+01  1  2 12  1  6  1       -1 0.937985078072D-01 0.100000000000D+01
-.647415309510D-03 0.000000000000D+00 0.000000000000D+00 0.669865033687D-05 0.000000000000D+00  6 -1 1 25 23 21 21 4 0.76780565D-02 0.11685124D+00 0.20949091D+05 0.20949091D+05 0.20949091D+05 0.12316155D+01  1  2  4  1  6  1       -1 -.336381635168D+00 0.100000000000D+01
-.400335845540D-03 0.000000000000D+00 -.805729795490D-05 0.669865033687D-05 0.000000000000D+00  6 -1 1 25 23 21 21 4 0.10982248D-01 0.11685124D+00 0.20949091D+05 0.20949091D+05 0.20949091D+05 0.12316155D+01  1  2  5  1  6  1       -1 -.120645090151D+00 0.100000000000D+01
0.379163359924D-03 0.000000000000D+00 0.756740109426D-05 0.669865033687D-05 0.000000000000D+00  6 -1 1 25 23 21 21 4 0.76780565D-02 0.11685124D+00 0.20949091D+05 0.20949091D+05 0.20949091D+05 0.12316155D+01  1  2  6  1  6  1       -1 0.197004286327D+00 0.100000000000D+01
0.160028944382D-04 0.000000000000D+00 0.000000000000D+00 0.665579793518D-05 0.000000000000D+00  6 21 1 25 23 1 21 4 0.11453728D-01 0.11685124D+00 0.22771126D+05 0.22771126D+05 0.22771126D+05 0.12276697D+01  3  4 12  4  5  1       -1 0.650673221229D-01 0.100000000000D+01
-.173400897482D-04 0.000000000000D+00 -.353729795202D-06 0.669865033687D-05 0.000000000000D+00  6 21 1 25 23 1 21 4 0.10982248D-01 0.11685124D+00 0.20949091D+05 0.20949091D+05 0.20949091D+05 0.12316155D+01  3  4  5  4  5  1       -1 -.770047825384D-01 0.100000000000D+01
  </mgrwgt>
  </event>
  <event>
  5     66 0.47607883E-03 0.82132310E+02 0.75467711E-02 0.11710801E+00
       -1 -1    0    0    0  501 0.00000000E+00 0.00000000E+00 0.77801975E+02 0.77802633E+02 0.32000000E+00 0.0000E+00 0.9000E+01
        1 -1    0    0  502    0 -.00000000E+00 -.00000000E+00 -.65375546E+03 0.65375554E+03 0.32000000E+00 0.0000E+00 0.9000E+01
       25  1    1    2    0    0 -.32237840E+02 0.55901096E+02 -.29970643E+02 0.14383133E+03 0.12500000E+03 0.0000E+00 0.9000E+01
       23  1    1    2    0    0 -.48592631E+02 0.19823982E+02 -.30130466E+03 0.31914570E+03 0.91188000E+02 0.0000E+00 0.9000E+01
       21  1    1    2  502  501 0.80830471E+02 -.75725077E+02 -.24467819E+03 0.26858114E+03 0.75000000E+00 0.0000E+00 0.9000E+01
#aMCatNLO 1  0  0  5  2 0.17712571D+02 0.00000000D+00  -5  6  0 0.00000000D+00 0.00000000D+00 0.00000000D+00 0.00000000D+00 0.00000000D+00
  <mgrwgt>
 0.1378134556D-01   20    2    0
 0.225529899697094D+03 0.000000000000000D+00 0.000000000000000D+00 0.225529899697094D+03
 0.225529899697094D+03 -.000000000000000D+00 -.000000000000000D+00 -.225529899697094D+03
 0.195006398975315D+03 -.322384873567518D+02 0.559017025149672D+02 0.135048788332944D+03
 0.132878615145986D+03 -.485930725521561D+02 0.198243952674169D+02 -.811614543446402D+02
 0.123174785272886D+03 0.808315599089079D+02 -.757260977823840D+02 -.538873339883043D+02
 0.000000000000000D+00 0.000000000000000D+00 0.000000000000000D+00 0.000000000000000D+00
 0.225529899697094D+03 0.000000000000000D+00 0.000000000000000D+00 0.225529899697094D+03
 0.225529899697094D+03 -.000000000000000D+00 -.000000000000000D+00 -.225529899697094D+03
 0.193611290138039D+03 -.306699077864539D+02 0.544321971626804D+02 0.134003075850257D+03
 0.132783252794971D+03 -.475207801930252D+02 0.188198307615436D+02 -.818763109743367D+02
 0.777152071569417D+02 0.381585152329698D+02 -.494340340437270D+02 -.462585928971603D+02
 0.469500493042345D+02 0.400321727465093D+02 -.238179938804971D+02 -.586817197875957D+01
0.442529332540D-04 0.000000000000D+00 0.000000000000D+00 0.853666597617D-06 0.000000000000D+00  6 -1 1 25 23 21 21 2 0.11969591D-01 0.10057782D+00 0.31799494D+05 0.31799494D+05 0.31799494D+05 0.12122521D+01  1  2  2  3  6  5       21 0.927858583118D-02 0.100000000000D+01
-.397212677357D-05 0.233529144632D-05 -.169942915760D-06 0.853666597617D-06 0.000000000000D+00  6 -1 1 25 23 21 21 4 0.11969591D-01 0.10057782D+00 0.31799494D+05 0.31799494D+05 0.31799494D+05 0.12122521D+01  1  2  3  3  6  5       21 -.122390787320D-02 0.100000000000D+01
0.160958571510D-05 0.000000000000D+00 0.000000000000D+00 0.853666597617D-06 0.000000000000D+00  6 -1 1 25 23 21 21 4 0.11969591D-01 0.10057782D+00 0.31799494D+05 0.31799494D+05 0.31799494D+05 0.12122521D+01  1  2 15  3  6  5       21 0.495952103649D-03 0.100000000000D+01
0.802684726985D-04 0.000000000000D+00 0.000000000000D+00 0.854867585740D-06 0.000000000000D+00  6 -1 1 25 23 21 21 4 0.11969591D-01 0.10057782D+00 0.31207011D+05 0.31207011D+05 0.31207011D+05 0.12131045D+01  1  2 12  3  6  5       21 0.247995069941D-01 0.100000000000D+01
0.775955158197D-04 0.000000000000D+00 0.000000000000D+00 0.854867585740D-06 0.000000000000D+00  6 -1 1 25 23 21 21 4 0.11969591D-01 0.10057782D+00 0.31207011D+05 0.31207011D+05 0.31207011D+05 0.12131045D+01  1  2 12  3  6  5       21 0.239736782399D-01 0.100000000000D+01
-.209991774178D-03 0.000000000000D+00 0.000000000000D+00 0.853666597617D-06 0.000000000000D+00  6 -1 1 25 23 21 21 4 0.11969591D-01 0.10057782D+00 0.31799494D+05 0.31799494D+05 0.31799494D+05 0.12122521D+01  1  2  4  3  6  5       21 -.647035203999D-01 0.100000000000D+01
-.155925638279D-03 0.000000000000D+00 0.000000000000D+00 0.853666597617D-06 0.000000000000D+00  6 -1 1 25 23 21 21 4 0.11969591D-01 0.10057782D+00 0.31799494D+05 0.31799494D+05 0.31799494D+05 0.12122521D+01  1  2  5  3  6  5       21 -.480444424870D-01 0.100000000000D+01
0.219863055572D-03 0.000000000000D+00 -.000000000000D+00 0.853666597617D-06 0.000000000000D+00  6 -1 1 25 23 21 21 4 0.11969591D-01 0.10057782D+00 0.31799494D+05 0.31799494D+05 0.31799494D+05 0.12122521D+01  1  2  6  3  6  5       21 0.677450998119D-01 0.100000000000D+01
0.192547829347D-05 0.000000000000D+00 0.000000000000D+00 0.854867585740D-06 0.000000000000D+00  6 -1 1 25 23 1 -1 4 0.11969591D-01 0.10057782D+00 0.31207011D+05 0.31207011D+05 0.31207011D+05 0.12131045D+01  1  2 12  6  6  5       21 0.594890008499D-03 0.100000000000D+01
0.186642861846D-05 0.000000000000D+00 0.000000000000D+00 0.854867585740D-06 0.000000000000D+00  6 -1 1 25 23 1 -1 4 0.11969591D-01 0.10057782D+00 0.31207011D+05 0.31207011D+05 0.31207011D+05 0.12131045D+01  1  2 12  6  6  5       21 0.576646197709D-03 0.100000000000D+01
-.261725047444D-05 0.000000000000D+00 0.000000000000D+00 0.853666597617D-06 0.000000000000D+00  6 -1 1 25 23 1 -1 4 0.11969591D-01 0.10057782D+00 0.31799494D+05 0.31799494D+05 0.31799494D+05 0.12122521D+01  1  2  5  6  6  5       21 -.806437871806D-03 0.100000000000D+01
0.192547829347D-05 0.000000000000D+00 0.000000000000D+00 0.854867585740D-06 0.000000000000D+00  6 -1 1 25 23 2 -2 4 0.11969591D-01 0.10057782D+00 0.31207011D+05 0.31207011D+05 0.31207011D+05 0.12131045D+01  1  2 12  7  6  5       21 0.594890008499D-03 0.100000000000D+01
0.192547829347D-05 0.000000000000D+00 0.000000000000D+00 0.854867585740D-06 0.000000000000D+00  6 -1 1 25 23 4 -4 4 0.11969591D-01 0.10057782D+00 0.31207011D+05 0.31207011D+05 0.31207011D+05 0.12131045D+01  1  2 12  7  6  5       21 0.594890008499D-03 0.100000000000D+01
0.186642861846D-05 0.000000000000D+00 0.000000000000D+00 0.854867585740D-06 0.000000000000D+00  6 -1 1 25 23 2 -2 4 0.11969591D-01 0.10057782D+00 0.31207011D+05 0.31207011D+05 0.31207011D+05 0.12131045D+01  1  2 12  7  6  5       21 0.576646197709D-03 0.100000000000D+01
0.186642861846D-05 0.000000000000D+00 0.000000000000D+00 0.854867585740D-06 0.000000000000D+00  6 -1 1 25 23 4 -4 4 0.11969591D-01 0.10057782D+00 0.31207011D+05 0.31207011D+05 0.31207011D+05 0.12131045D+01  1  2 12  7  6  5       21 0.576646197709D-03 0.100000000000D+01
-.261725047444D-05 0.000000000000D+00 0.000000000000D+00 0.853666597617D-06 0.000000000000D+00  6 -1 1 25 23 2 -2 4 0.11969591D-01 0.10057782D+00 0.31799494D+05 0.31799494D+05 0.31799494D+05 0.12122521D+01  1  2  5  7  6  5       21 -.806437871806D-03 0.100000000000D+01
-.261725047444D-05 0.000000000000D+00 0.000000000000D+00 0.853666597617D-06 0.000000000000D+00  6 -1 1 25 23 4 -4 4 0.11969591D-01 0.10057782D+00 0.31799494D+05 0.31799494D+05 0.31799494D+05 0.12122521D+01  1  2  5  7  6  5       21 -.806437871806D-03 0.100000000000D+01
0.192547829347D-05 0.000000000000D+00 0.000000000000D+00 0.854867585740D-06 0.000000000000D+00  6 -1 1 25 23 3 -3 4 0.11969591D-01 0.10057782D+00 0.31207011D+05 0.31207011D+05 0.31207011D+05 0.12131045D+01  1  2 12  8  6  5       21 0.594890008499D-03 0.100000000000D+01
0.186642861846D-05 0.000000000000D+00 0.000000000000D+00 0.854867585740D-06 0.000000000000D+00  6 -1 1 25 23 3 -3 4 0.11969591D-01 0.10057782D+00 0.31207011D+05 0.31207011D+05 0.31207011D+05 0.12131045D+01  1  2 12  8  6  5       21 0.576646197709D-03 0.100000000000D+01
-.261725047444D-05 0.000000000000D+00 0.000000000000D+00 0.853666597617D-06 0.000000000000D+00  6 -1 1 25 23 3 -3 4 0.11969591D-01 0.10057782D+00 0.31799494D+05 0.31799494D+05 0.31799494D+05 0.12122521D+01  1  2  5  8  6  5       21 -.806437871806D-03 0.100000000000D+01
  </mgrwgt>
  </event>
  <event>
  5     66 0.47607883E-03 0.22713092E+02 0.75467711E-02 0.12218821E+00
       -1 -1    0    0    0  501 0.00000000E+00 0.00000000E+00 0.34514308E+02 0.34515791E+02 0.32000000E+00 0.0000E+00 0.9000E+01
        1 -1    0    0  502    0 -.00000000E+00 -.00000000E+00 -.83549218E+03 0.83549224E+03 0.32000000E+00 0.0000E+00 0.9000E+01
       25  1    1    2    0    0 0.26805706E+02 0.40700894E+02 -.40788884E+03 0.42938725E+03 0.12500000E+03 0.0000E+00 0.9000E+01
       23  1    1    2    0    0 -.14411760E+02 -.59733552E+02 -.40157943E+03 0.41636173E+03 0.91188000E+02 0.0000E+00 0.9000E+01
       21  1    1    2  502  501 -.12393946E+02 0.19032658E+02 0.84904032E+01 0.24259048E+02 0.75000000E+00 0.0000E+00 0.9000E+01
#aMCatNLO 1  0  0  5  2 0.58025004D+01 0.00000000D+00  -5  6  0 0.00000000D+00 0.00000000D+00 0.00000000D+00 0.00000000D+00 0.00000000D+00
  <mgrwgt>
 0.5247404426D+00   25    2    0
 0.169814917775290D+03 0.000000000000000D+00 0.000000000000000D+00 0.169814917775290D+03
 0.169814917775290D+03 -.000000000000000D+00 -.000000000000000D+00 -.169814917775290D+03
 0.137975254740553D+03 0.268059157619011D+02 0.407005720138906D+02 -.322036836189354D+02
 0.119488918562685D+03 -.144115786647509D+02 -.597338311817665D+02 -.467603050462453D+02
 0.821656622473409D+02 -.123943370971502D+02 0.190332591678759D+02 0.789639886651806D+02
 0.000000000000000D+00 0.000000000000000D+00 0.000000000000000D+00 0.000000000000000D+00
 0.169814917775290D+03 0.000000000000000D+00 0.000000000000000D+00 0.169814917775290D+03
 0.169814917775290D+03 -.000000000000000D+00 -.000000000000000D+00 -.169814917775290D+03
 0.137889754598599D+03 0.267356886230992D+02 0.408084157269474D+02 -.317562684043197D+02
 0.119298555163232D+03 -.144723669506653D+02 -.596404821634921D+02 -.463730245097953D+02
 0.627790372274807D+02 -.119197527024615D+02 0.194727392084383D+02 0.584802482761635D+02
 0.196624885612677D+02 -.343568969972310D+00 -.640672771893595D+00 0.196490446379515D+02
0.617317989720D-04 0.000000000000D+00 0.000000000000D+00 0.403648725557D-04 0.000000000000D+00  6 -1 1 25 23 21 21 2 0.53100124D-02 0.12853738D+00 0.17800489D+05 0.17800489D+05 0.17800489D+05 0.12394356D+01  1  2  2  3  6  5       21 0.321164762765D-01 0.100000000000D+01
0.958501000407D-05 0.325767653136D-05 -.237066362408D-06 0.403648725557D-04 0.000000000000D+00  6 -1 1 25 23 21 21 4 0.53100124D-02 0.12853738D+00 0.17800489D+05 0.17800489D+05 0.17800489D+05 0.12394356D+01  1  2  3  3  6  5       21 0.766054188741D-02 0.100000000000D+01
0.166897140046D-05 0.000000000000D+00 0.000000000000D+00 0.403648725557D-04 0.000000000000D+00  6 -1 1 25 23 21 21 4 0.53100124D-02 0.12853738D+00 0.17800489D+05 0.17800489D+05 0.17800489D+05 0.12394356D+01  1  2 15  3  6  5       21 0.133387709733D-02 0.100000000000D+01
0.239353654356D-03 0.000000000000D+00 0.000000000000D+00 0.403454721712D-04 0.000000000000D+00  6 -1 1 25 23 21 21 4 0.53100124D-02 0.12853738D+00 0.17910225D+05 0.17910225D+05 0.17910225D+05 0.12391378D+01  1  2 12  3  6  5       21 0.191131967437D+00 0.100000000000D+01
0.353253637995D-03 0.000000000000D+00 0.000000000000D+00 0.403454721712D-04 0.000000000000D+00  6 -1 1 25 23 21 21 4 0.53100124D-02 0.12853738D+00 0.17910225D+05 0.17910225D+05 0.17910225D+05 0.12391378D+01  1  2 12  3  6  5       21 0.282084946711D+00 0.100000000000D+01
-.243392721084D-03 0.000000000000D+00 0.000000000000D+00 0.403648725557D-04 0.000000000000D+00  6 -1 1 25 23 21 21 4 0.53100124D-02 0.12853738D+00 0.17800489D+05 0.17800489D+05 0.17800489D+05 0.12394356D+01  1  2  4  3  6  5       21 -.194524589350D+00 0.100000000000D+01
-.991976893013D-03 0.000000000000D+00 0.000000000000D+00 0.403648725557D-04 0.000000000000D+00  6 -1 1 25 23 21 21 4 0.53100124D-02 0.12853738D+00 0.17800489D+05 0.17800489D+05 0.17800489D+05 0.12394356D+01  1  2  5  3  6  5       21 -.792808827225D+00 0.100000000000D+01
0.119523123821D-02 0.000000000000D+00 -.000000000000D+00 0.403648725557D-04 0.000000000000D+00  6 -1 1 25 23 21 21 4 0.53100124D-02 0.12853738D+00 0.17800489D+05 0.17800489D+05 0.17800489D+05 0.12394356D+01  1  2  6  3  6  5       21 0.955253981116D+00 0.100000000000D+01
0.373762761745D-04 0.000000000000D+00 0.000000000000D+00 0.403648725557D-04 0.265996907724D-03  6 -1 1 25 23 21 21 4 0.53100124D-02 0.12853738D+00 0.17910225D+05 0.17910225D+05 0.17910225D+05 0.12391378D+01  1  2 11  3  6  5       21 0.298462173887D-01 0.100000000000D+01
0.392254903561D-05 0.000000000000D+00 0.000000000000D+00 0.403454721712D-04 0.000000000000D+00  6 -1 1 25 23 1 -1 4 0.53100124D-02 0.12853738D+00 0.17910225D+05 0.17910225D+05 0.17910225D+05 0.12391378D+01  1  2 12  6  6  5       21 0.313228772946D-02 0.100000000000D+01
0.526689895692D-05 0.000000000000D+00 0.000000000000D+00 0.403454721712D-04 0.000000000000D+00  6 -1 1 25 23 1 -1 4 0.53100124D-02 0.12853738D+00 0.17910225D+05 0.17910225D+05 0.17910225D+05 0.12391378D+01  1  2 12  6  6  5       21 0.420579649237D-02 0.100000000000D+01
-.812765009798D-05 0.000000000000D+00 0.000000000000D+00 0.403648725557D-04 0.000000000000D+00  6 -1 1 25 23 1 -1 4 0.53100124D-02 0.12853738D+00 0.17800489D+05 0.17800489D+05 0.17800489D+05 0.12394356D+01  1  2  5  6  6  5       21 -.649578915362D-02 0.100000000000D+01
0.247847273699D-06 0.000000000000D+00 0.000000000000D+00 0.403648725557D-04 0.322859194057D-05  6 -1 1 25 23 1 -1 4 0.53100124D-02 0.12853738D+00 0.17910225D+05 0.17910225D+05 0.17910225D+05 0.12391378D+01  1  2 11  6  6  5       21 0.197914409009D-03 0.100000000000D+01
0.392254903561D-05 0.000000000000D+00 0.000000000000D+00 0.403454721712D-04 0.000000000000D+00  6 -1 1 25 23 2 -2 4 0.53100124D-02 0.12853738D+00 0.17910225D+05 0.17910225D+05 0.17910225D+05 0.12391378D+01  1  2 12  7  6  5       21 0.313228772946D-02 0.100000000000D+01
0.392254903561D-05 0.000000000000D+00 0.000000000000D+00 0.403454721712D-04 0.000000000000D+00  6 -1 1 25 23 4 -4 4 0.53100124D-02 0.12853738D+00 0.17910225D+05 0.17910225D+05 0.17910225D+05 0.12391378D+01  1  2 12  7  6  5       21 0.313228772946D-02 0.100000000000D+01
0.526689895692D-05 0.000000000000D+00 0.000000000000D+00 0.403454721712D-04 0.000000000000D+00  6 -1 1 25 23 2 -2 4 0.53100124D-02 0.12853738D+00 0.17910225D+05 0.17910225D+05 0.17910225D+05 0.12391378D+01  1  2 12  7  6  5       21 0.420579649237D-02 0.100000000000D+01
0.526689895692D-05 0.000000000000D+00 0.000000000000D+00 0.403454721712D-04 0.000000000000D+00  6 -1 1 25 23 4 -4 4 0.53100124D-02 0.12853738D+00 0.17910225D+05 0.17910225D+05 0.17910225D+05 0.12391378D+01  1  2 12  7  6  5       21 0.420579649237D-02 0.100000000000D+01
-.812765009798D-05 0.000000000000D+00 0.000000000000D+00 0.403648725557D-04 0.000000000000D+00  6 -1 1 25 23 2 -2 4 0.53100124D-02 0.12853738D+00 0.17800489D+05 0.17800489D+05 0.17800489D+05 0.12394356D+01  1  2  5  7  6  5       21 -.649578915362D-02 0.100000000000D+01
-.812765009798D-05 0.000000000000D+00 0.000000000000D+00 0.403648725557D-04 0.000000000000D+00  6 -1 1 25 23 4 -4 4 0.53100124D-02 0.12853738D+00 0.17800489D+05 0.17800489D+05 0.17800489D+05 0.12394356D+01  1  2  5  7  6  5       21 -.649578915362D-02 0.100000000000D+01
0.378645608893D-05 0.000000000000D+00 0.000000000000D+00 0.403648725557D-04 0.186902555425D-06  6 -1 1 25 23 2 -2 4 0.53100124D-02 0.12853738D+00 0.17910225D+05 0.17910225D+05 0.17910225D+05 0.12391378D+01  1  2 11  7  6  5       21 0.302361292054D-02 0.100000000000D+01
0.378645608893D-05 0.000000000000D+00 0.000000000000D+00 0.403648725557D-04 0.186902555425D-06  6 -1 1 25 23 4 -4 4 0.53100124D-02 0.12853738D+00 0.17910225D+05 0.17910225D+05 0.17910225D+05 0.12391378D+01  1  2 11  7  6  5       21 0.302361292054D-02 0.100000000000D+01
0.392254903561D-05 0.000000000000D+00 0.000000000000D+00 0.403454721712D-04 0.000000000000D+00  6 -1 1 25 23 3 -3 4 0.53100124D-02 0.12853738D+00 0.17910225D+05 0.17910225D+05 0.17910225D+05 0.12391378D+01  1  2 12  8  6  5       21 0.313228772946D-02 0.100000000000D+01
0.526689895692D-05 0.000000000000D+00 0.000000000000D+00 0.403454721712D-04 0.000000000000D+00  6 -1 1 25 23 3 -3 4 0.53100124D-02 0.12853738D+00 0.17910225D+05 0.17910225D+05 0.17910225D+05 0.12391378D+01  1  2 12  8  6  5       21 0.420579649237D-02 0.100000000000D+01
-.812765009798D-05 0.000000000000D+00 0.000000000000D+00 0.403648725557D-04 0.000000000000D+00  6 -1 1 25 23 3 -3 4 0.53100124D-02 0.12853738D+00 0.17800489D+05 0.17800489D+05 0.17800489D+05 0.12394356D+01  1  2  5  8  6  5       21 -.649578915362D-02 0.100000000000D+01
0.379637158648D-05 0.000000000000D+00 0.000000000000D+00 0.403648725557D-04 0.187391992458D-06  6 -1 1 25 23 3 -3 4 0.53100124D-02 0.12853738D+00 0.17910225D+05 0.17910225D+05 0.17910225D+05 0.12391378D+01  1  2 11  8  6  5       21 0.303153077982D-02 0.100000000000D+01
  </mgrwgt>
  </event>
  <event>
  5     66 -.47607883E-03 0.23045025E+02 0.75467711E-02 0.12165581E+00
       -1 -1    0    0    0  501 0.00000000E+00 0.00000000E+00 0.54429440E+03 0.54429449E+03 0.32000000E+00 0.0000E+00 0.9000E+01
        1 -1    0    0  502    0 0.00000000E+00 0.00000000E+00 -.20480787E+03 0.20480812E+03 0.32000000E+00 0.0000E+00 0.9000E+01
       25  1    1    2    0    0 -.43351198E+02 0.36949034E+02 -.13282784E+03 0.19108321E+03 0.12500000E+03 0.0000E+00 0.9000E+01
       23  1    1    2    0    0 0.37107236E+02 -.59131993E+02 0.34943217E+02 0.12004091E+03 0.91188000E+02 0.0000E+00 0.9000E+01
       21  1    1    2  502  501 0.62439613E+01 0.22182959E+02 0.43737115E+03 0.43797849E+03 0.75000000E+00 0.0000E+00 0.9000E+01
#aMCatNLO 1  0  0  1  2 0.10478707D+02 0.00000000D+00  -5  6  0 0.00000000D+00 0.00000000D+00 0.00000000D+00 0.00000000D+00 0.00000000D+00
  <mgrwgt>
 -.6923797366D+00    7    4    0
 0.333880074010634D+03 0.000000000000000D+00 0.000000000000000D+00 0.333880074010634D+03
 0.333880074010634D+03 0.000000000000000D+00 0.000000000000000D+00 -.333880074010634D+03
 0.281889311421389D+03 -.433512079545186D+02 0.369489971321007D+02 -.246154480506532D+03
 0.116898608275299D+03 0.371072321231236D+02 -.591320077510211D+02 -.218287025770114D+02
 0.268972228324581D+03 0.624397583139498D+01 0.221830106189204D+02 0.267983183083544D+03
 0.000000000000000D+00 0.000000000000000D+00 0.000000000000000D+00 0.000000000000000D+00
 0.355673736252137D+03 0.000000000000000D+00 0.000000000000000D+00 0.355673736252137D+03
 0.335183138879905D+03 0.000000000000000D+00 0.000000000000000D+00 -.335183138879905D+03
 0.281517442721055D+03 -.443745399467020D+02 0.326487746673574D+02 -.246154480506532D+03
 0.117680904241687D+03 0.366811585659566D+02 -.609224443797575D+02 -.218287025770114D+02
 0.268644013617052D+03 0.526748789288305D+01 0.180796351730099D+02 0.267983183083544D+03
 0.230145145522478D+02 0.242589348786233D+01 0.101940345393902D+02 0.204905973722314D+02
 0.333880074010634D+03 0.000000000000000D+00 0.000000000000000D+00 0.333880074010634D+03
 0.333880074010634D+03 0.000000000000000D+00 0.000000000000000D+00 -.333880074010634D+03
 0.281889311421389D+03 -.433512079545186D+02 0.369489971321007D+02 -.246154480506532D+03
 0.116898608275299D+03 0.371072321231236D+02 -.591320077510211D+02 -.218287025770114D+02
 0.000000000000000D+00 0.000000000000000D+00 0.000000000000000D+00 0.000000000000000D+00
 0.268972228324581D+03 0.624397583139498D+01 0.221830106189204D+02 0.267983183083544D+03
 0.355673736252137D+03 0.000000000000000D+00 0.000000000000000D+00 0.355673736252137D+03
 0.335183138879905D+03 0.000000000000000D+00 0.000000000000000D+00 -.335183138879905D+03
 0.281517442721055D+03 -.443745399467020D+02 0.326487746673574D+02 -.246154480506532D+03
 0.117680904241687D+03 0.366811585659566D+02 -.609224443797575D+02 -.218287025770114D+02
 0.230145145522478D+02 0.242589348786233D+01 0.101940345393902D+02 0.204905973722314D+02
 0.268644013617052D+03 0.526748789288305D+01 0.180796351730099D+02 0.267983183083544D+03
0.187403137112D-02 0.000000000000D+00 0.000000000000D+00 0.569333941141D-04 0.000000000000D+00  6 -1 1 25 23 21 21 2 0.83737626D-01 0.31508929D-01 0.18941190D+05 0.18941190D+05 0.18941190D+05 0.12364352D+01  1  2  2  1  6  1       -1 0.617364007788D-01 0.100000000000D+01
0.568541840418D-03 0.988953524505D-04 -.719677390890D-05 0.569333941141D-04 0.000000000000D+00  6 -1 1 25 23 21 21 4 0.83737626D-01 0.31508929D-01 0.18941190D+05 0.18941190D+05 0.18941190D+05 0.12364352D+01  1  2  3  1  6  1       -1 0.286331815963D-01 0.100000000000D+01
0.859605037984D-04 0.000000000000D+00 0.000000000000D+00 0.569333941141D-04 0.000000000000D+00  6 -1 1 25 23 21 21 4 0.83737626D-01 0.31508929D-01 0.18941190D+05 0.18941190D+05 0.18941190D+05 0.12364352D+01  1  2 15  1  6  1       -1 0.432918483811D-02 0.100000000000D+01
-.186920086267D-01 0.000000000000D+00 0.000000000000D+00 0.569333941141D-04 0.000000000000D+00  6 -1 1 25 23 21 21 4 0.83737626D-01 0.31508929D-01 0.18941190D+05 0.18941190D+05 0.18941190D+05 0.12364352D+01  1  2  4  1  6  1       -1 -.941376059524D+00 0.100000000000D+01
-.678412993695D-01 0.000000000000D+00 -.584219499319D-02 0.569333941141D-04 0.000000000000D+00  6 -1 1 25 23 21 21 4 0.89385783D-01 0.31508929D-01 0.18941190D+05 0.18941190D+05 0.18941190D+05 0.12364352D+01  1  2  5  1  6  1       -1 -.297972050708D+01 0.100000000000D+01
0.680899585116D-01 0.000000000000D+00 0.582977143490D-02 0.569333941141D-04 0.000000000000D+00  6 -1 1 25 23 21 21 4 0.83737626D-01 0.31508929D-01 0.18941190D+05 0.18941190D+05 0.18941190D+05 0.12364352D+01  1  2  6  1  6  1       -1 0.342917971616D+01 0.100000000000D+01
-.746210932213D-03 0.000000000000D+00 -.650002020626D-04 0.569333941141D-04 0.000000000000D+00  6 21 1 25 23 1 21 4 0.89385783D-01 0.31508929D-01 0.18941190D+05 0.18941190D+05 0.18941190D+05 0.12364352D+01  3  4  5  4  5  1       -1 -.295161653395D+00 0.100000000000D+01
  </mgrwgt>
  </event>
  <event>
  5     66 0.47607883E-03 0.26960323E+02 0.75467711E-02 0.12106860E+00
       -1 -1    0    0    0  501 0.00000000E+00 0.00000000E+00 0.46299571E+02 0.46300677E+02 0.32000000E+00 0.0000E+00 0.9000E+01
        1 -1    0    0  502    0 -.00000000E+00 -.00000000E+00 -.46279527E+03 0.46279539E+03 0.32000000E+00 0.0000E+00 0.9000E+01
       25  1    1    2    0    0 0.45772185E+01 0.64437160E+02 -.27708725E+03 0.31076590E+03 0.12500000E+03 0.0000E+00 0.9000E+01
       23  1    1    2    0    0 0.13228418E+02 -.44197568E+02 -.13746866E+03 0.17129302E+03 0.91188000E+02 0.0000E+00 0.9000E+01
       21  1    1    2  502  501 -.17805637E+02 -.20239592E+02 -.19397945E+01 0.27037143E+02 0.75000000E+00 0.0000E+00 0.9000E+01
#aMCatNLO 1  0  0  5  2 0.17349459D+02 0.00000000D+00  -5  6  0 0.00000000D+00 0.00000000D+00 0.00000000D+00 0.00000000D+00 0.00000000D+00
  <mgrwgt>
 0.1712286642D+00    9    2    0
 0.146381462176755D+03 0.000000000000000D+00 0.000000000000000D+00 0.146381462176755D+03
 0.146381462176755D+03 -.000000000000000D+00 -.000000000000000D+00 -.146381462176755D+03
 0.146208556721873D+03 0.457849573341688D+01 0.644386119152838D+02 -.397321624121285D+02
 0.102299085848592D+03 0.132293120777953D+02 -.441965521932593D+02 0.463699230475251D+01
 0.442552817830452D+02 -.178078078112122D+02 -.202420597220245D+02 0.350951701073759D+02
 0.000000000000000D+00 0.000000000000000D+00 0.000000000000000D+00 0.000000000000000D+00
 0.146381462176755D+03 0.000000000000000D+00 0.000000000000000D+00 0.146381462176755D+03
 0.146381462176755D+03 -.000000000000000D+00 -.000000000000000D+00 -.146381462176755D+03
 0.141876740472080D+03 0.203420840935132D+00 0.594654828136666D+02 -.311098772206024D+02
 0.103994584843476D+03 0.100963848929861D+02 -.477577372561244D+02 0.108112847078676D+02
 0.294489122834617D+02 -.166453842765021D+01 -.256533581705921D+02 0.143656869335655D+02
 0.174426867544925D+02 -.863526730627102D+01 0.139456126130499D+02 0.593290557916936D+01
0.169099656057D-03 0.000000000000D+00 0.000000000000D+00 0.243308602572D-04 0.000000000000D+00  6 -1 1 25 23 21 21 2 0.71231045D-02 0.71199367D-01 0.18206197D+05 0.18206197D+05 0.18206197D+05 0.12383444D+01  1  2  2  3  6  5       21 0.128626327090D+00 0.100000000000D+01
0.182527608995D-04 0.892363401311D-05 -.649387204220D-06 0.243308602572D-04 0.000000000000D+00  6 -1 1 25 23 21 21 4 0.71231045D-02 0.71199367D-01 0.18206197D+05 0.18206197D+05 0.18206197D+05 0.12383444D+01  1  2  3  3  6  5       21 0.212911248539D-01 0.100000000000D+01
0.384559150983D-05 0.000000000000D+00 0.000000000000D+00 0.243308602572D-04 0.000000000000D+00  6 -1 1 25 23 21 21 4 0.71231045D-02 0.71199367D-01 0.18206197D+05 0.18206197D+05 0.18206197D+05 0.12383444D+01  1  2 15  3  6  5       21 0.448573064774D-02 0.100000000000D+01
0.812215495430D-04 0.000000000000D+00 0.000000000000D+00 0.241388146297D-04 0.000000000000D+00  6 -1 1 25 23 21 21 4 0.71231045D-02 0.71199367D-01 0.20159031D+05 0.20159031D+05 0.20159031D+05 0.12334475D+01  1  2 12  3  6  5       21 0.934975899225D-01 0.100000000000D+01
-.725232172095D-04 0.000000000000D+00 0.000000000000D+00 0.243308602572D-04 0.000000000000D+00  6 -1 1 25 23 21 21 4 0.71231045D-02 0.71199367D-01 0.18206197D+05 0.18206197D+05 0.18206197D+05 0.12383444D+01  1  2  4  3  6  5       21 -.845954691958D-01 0.100000000000D+01
0.172075998665D-05 0.000000000000D+00 0.000000000000D+00 0.241388146297D-04 0.000000000000D+00  6 -1 1 25 23 1 -1 4 0.71231045D-02 0.71199367D-01 0.20159031D+05 0.20159031D+05 0.20159031D+05 0.12334475D+01  1  2 12  6  6  5       21 0.198084021410D-02 0.100000000000D+01
0.172075998665D-05 0.000000000000D+00 0.000000000000D+00 0.241388146297D-04 0.000000000000D+00  6 -1 1 25 23 2 -2 4 0.71231045D-02 0.71199367D-01 0.20159031D+05 0.20159031D+05 0.20159031D+05 0.12334475D+01  1  2 12  7  6  5       21 0.198084021410D-02 0.100000000000D+01
0.172075998665D-05 0.000000000000D+00 0.000000000000D+00 0.241388146297D-04 0.000000000000D+00  6 -1 1 25 23 4 -4 4 0.71231045D-02 0.71199367D-01 0.20159031D+05 0.20159031D+05 0.20159031D+05 0.12334475D+01  1  2 12  7  6  5       21 0.198084021410D-02 0.100000000000D+01
0.172075998665D-05 0.000000000000D+00 0.000000000000D+00 0.241388146297D-04 0.000000000000D+00  6 -1 1 25 23 3 -3 4 0.71231045D-02 0.71199367D-01 0.20159031D+05 0.20159031D+05 0.20159031D+05 0.12334475D+01  1  2 12  8  6  5       21 0.198084021410D-02 0.100000000000D+01
  </mgrwgt>
  </event>
  <event>
  5     66 0.47607883E-03 0.24309408E+02 0.75467711E-02 0.12126153E+00
       -1 -1    0    0    0  501 0.00000000E+00 0.00000000E+00 0.41271590E+03 0.41271602E+03 0.32000000E+00 0.0000E+00 0.9000E+01
        1 -1    0    0  502    0 0.00000000E+00 0.00000000E+00 -.71496210E+02 0.71496926E+02 0.32000000E+00 0.0000E+00 0.9000E+01
       25  1    1    2    0    0 0.55523003E+02 0.57039669E+02 0.27774646E+03 0.31480855E+03 0.12500000E+03 0.0000E+00 0.9000E+01
       23  1    1    2    0    0 -.48197954E+02 -.33867272E+02 0.80211625E+01 0.10885598E+03 0.91188000E+02 0.0000E+00 0.9000E+01
       21  1    1    2  502  501 -.73250492E+01 -.23172397E+02 0.55452067E+02 0.60548415E+02 0.75000000E+00 0.0000E+00 0.9000E+01
#aMCatNLO 1  0  0  5  1 0.90794300D+01 0.00000000D+00  -5  6  0 0.00000000D+00 0.00000000D+00 0.00000000D+00 0.00000000D+00 0.00000000D+00
  <mgrwgt>
 0.1155094594D+00   20    2    0
 0.171778421546240D+03 0.000000000000000D+00 0.000000000000000D+00 0.171778421546240D+03
 0.171778421546240D+03 -.000000000000000D+00 -.000000000000000D+00 -.171778421546240D+03
 0.167838051572467D+03 0.555241026166102D+02 0.570431473813034D+02 0.787893706098558D+02
 0.145456817106418D+03 -.481970010865481D+02 -.338642578539798D+02 -.968126821495627D+02
 0.302619744135944D+02 -.732710153006207D+01 -.231788895273237D+02 0.180233115397069D+02
 0.000000000000000D+00 0.000000000000000D+00 0.000000000000000D+00 0.000000000000000D+00
 0.171778421546240D+03 0.000000000000000D+00 0.000000000000000D+00 0.171778421546240D+03
 0.171778421546240D+03 -.000000000000000D+00 -.000000000000000D+00 -.171778421546240D+03
 0.167661077414059D+03 0.546739123148888D+02 0.543536163300482D+02 0.808806811523797D+02
 0.145068910234442D+03 -.489332240285626D+02 -.361932593248096D+02 -.950017101857972D+02
 0.200116260578159D+02 -.105956240756438D+02 -.163324929484760D+02 0.463115558078898D+01
 0.108152293861621D+02 0.485493578931752D+01 -.182786405676270D+01 0.948987345262855D+01
0.223140505950D-03 0.000000000000D+00 0.000000000000D+00 0.171651638488D-04 0.000000000000D+00  6 -1 1 25 23 21 21 2 0.63494818D-01 0.10999482D-01 0.19749159D+05 0.19749159D+05 0.19749159D+05 0.12344300D+01  1  2  2  3  6  5       21 0.489244896224D-01 0.100000000000D+01
0.351675482750D-04 0.117754480111D-04 -.856918297092D-06 0.171651638488D-04 0.000000000000D+00  6 -1 1 25 23 21 21 4 0.63494818D-01 0.10999482D-01 0.19749159D+05 0.19749159D+05 0.19749159D+05 0.12344300D+01  1  2  3  3  6  5       21 0.117495947136D-01 0.100000000000D+01
0.631197384719D-05 0.000000000000D+00 0.000000000000D+00 0.171651638488D-04 0.000000000000D+00  6 -1 1 25 23 21 21 4 0.63494818D-01 0.10999482D-01 0.19749159D+05 0.19749159D+05 0.19749159D+05 0.12344300D+01  1  2 15  3  6  5       21 0.210885143222D-02 0.100000000000D+01
0.827448119245D-04 0.000000000000D+00 0.000000000000D+00 0.171643188910D-04 0.000000000000D+00  6 -1 1 25 23 21 21 4 0.63494818D-01 0.10999482D-01 0.19761694D+05 0.19761694D+05 0.19761694D+05 0.12343996D+01  1  2 12  3  6  5       21 0.276428822082D-01 0.100000000000D+01
0.928518332850D-04 0.000000000000D+00 0.000000000000D+00 0.171643188910D-04 0.000000000000D+00  6 -1 1 25 23 21 21 4 0.63494818D-01 0.10999482D-01 0.19761694D+05 0.19761694D+05 0.19761694D+05 0.12343996D+01  1  2 12  3  6  5       21 0.310193742740D-01 0.100000000000D+01
-.182780252572D-03 0.000000000000D+00 0.000000000000D+00 0.171651638488D-04 0.000000000000D+00  6 -1 1 25 23 21 21 4 0.63494818D-01 0.10999482D-01 0.19749159D+05 0.19749159D+05 0.19749159D+05 0.12344300D+01  1  2  4  3  6  5       21 -.610674896236D-01 0.100000000000D+01
-.177953382456D-03 0.000000000000D+00 0.000000000000D+00 0.171651638488D-04 0.000000000000D+00  6 -1 1 25 23 21 21 4 0.63494818D-01 0.10999482D-01 0.19749159D+05 0.19749159D+05 0.19749159D+05 0.12344300D+01  1  2  5  3  6  5       21 -.594548162820D-01 0.100000000000D+01
0.333544807210D-03 0.000000000000D+00 -.000000000000D+00 0.171651638488D-04 0.000000000000D+00  6 -1 1 25 23 21 21 4 0.63494818D-01 0.10999482D-01 0.19749159D+05 0.19749159D+05 0.19749159D+05 0.12344300D+01  1  2  6  3  6  5       21 0.111438428204D+00 0.100000000000D+01
0.240833761727D-05 0.000000000000D+00 0.000000000000D+00 0.171643188910D-04 0.000000000000D+00  6 -1 1 25 23 1 -1 4 0.63494818D-01 0.10999482D-01 0.19761694D+05 0.19761694D+05 0.19761694D+05 0.12343996D+01  1  2 12  6  6  5       21 0.804562745671D-03 0.100000000000D+01
0.265203345054D-05 0.000000000000D+00 0.000000000000D+00 0.171643188910D-04 0.000000000000D+00  6 -1 1 25 23 1 -1 4 0.63494818D-01 0.10999482D-01 0.19761694D+05 0.19761694D+05 0.19761694D+05 0.12343996D+01  1  2 12  6  6  5       21 0.885975163647D-03 0.100000000000D+01
-.270425832809D-05 0.000000000000D+00 0.000000000000D+00 0.171651638488D-04 0.000000000000D+00  6 -1 1 25 23 1 -1 4 0.63494818D-01 0.10999482D-01 0.19749159D+05 0.19749159D+05 0.19749159D+05 0.12344300D+01  1  2  5  6  6  5       21 -.903501691603D-03 0.100000000000D+01
0.240833761727D-05 0.000000000000D+00 0.000000000000D+00 0.171643188910D-04 0.000000000000D+00  6 -1 1 25 23 2 -2 4 0.63494818D-01 0.10999482D-01 0.19761694D+05 0.19761694D+05 0.19761694D+05 0.12343996D+01  1  2 12  7  6  5       21 0.804562745671D-03 0.100000000000D+01
0.240833761727D-05 0.000000000000D+00 0.000000000000D+00 0.171643188910D-04 0.000000000000D+00  6 -1 1 25 23 4 -4 4 0.63494818D-01 0.10999482D-01 0.19761694D+05 0.19761694D+05 0.19761694D+05 0.12343996D+01  1  2 12  7  6  5       21 0.804562745671D-03 0.100000000000D+01
0.265203345054D-05 0.000000000000D+00 0.000000000000D+00 0.171643188910D-04 0.000000000000D+00  6 -1 1 25 23 2 -2 4 0.63494818D-01 0.10999482D-01 0.19761694D+05 0.19761694D+05 0.19761694D+05 0.12343996D+01  1  2 12  7  6  5       21 0.885975163647D-03 0.100000000000D+01
0.265203345054D-05 0.000000000000D+00 0.000000000000D+00 0.171643188910D-04 0.000000000000D+00  6 -1 1 25 23 4 -4 4 0.63494818D-01 0.10999482D-01 0.19761694D+05 0.19761694D+05 0.19761694D+05 0.12343996D+01  1  2 12  7  6  5       21 0.885975163647D-03 0.100000000000D+01
-.270425832809D-05 0.000000000000D+00 0.000000000000D+00 0.171651638488D-04 0.000000000000D+00  6 -1 1 25 23 2 -2 4 0.63494818D-01 0.10999482D-01 0.19749159D+05 0.19749159D+05 0.19749159D+05 0.12344300D+01  1  2  5  7  6  5       21 -.903501691603D-03 0.100000000000D+01
-.270425832809D-05 0.000000000000D+00 0.000000000000D+00 0.171651638488D-04 0.000000000000D+00  6 -1 1 25 23 4 -4 4 0.63494818D-01 0.10999482D-01 0.19749159D+05 0.19749159D+05 0.19749159D+05 0.12344300D+01  1  2  5  7  6  5       21 -.903501691603D-03 0.100000000000D+01
0.240833761727D-05 0.000000000000D+00 0.000000000000D+00 0.171643188910D-04 0.000000000000D+00  6 -1 1 25 23 3 -3 4 0.63494818D-01 0.10999482D-01 0.19761694D+05 0.19761694D+05 0.19761694D+05 0.12343996D+01  1  2 12  8  6  5       21 0.804562745671D-03 0.100000000000D+01
0.265203345054D-05 0.000000000000D+00 0.000000000000D+00 0.171643188910D-04 0.000000000000D+00  6 -1 1 25 23 3 -3 4 0.63494818D-01 0.10999482D-01 0.19761694D+05 0.19761694D+05 0.19761694D+05 0.12343996D+01  1  2 12  8  6  5       21 0.885975163647D-03 0.100000000000D+01
-.270425832809D-05 0.000000000000D+00 0.000000000000D+00 0.171651638488D-04 0.000000000000D+00  6 -1 1 25 23 3 -3 4 0.63494818D-01 0.10999482D-01 0.19749159D+05 0.19749159D+05 0.19749159D+05 0.12344300D+01  1  2  5  8  6  5       21 -.903501691603D-03 0.100000000000D+01
  </mgrwgt>
  </event>
  <event>
  5     66 0.47607883E-03 0.44517849E+02 0.75467711E-02 0.11837196E+00
       -1 -1    0    0    0  501 0.00000000E+00 0.00000000E+00 0.60050027E+03 0.60050036E+03 0.32000000E+00 0.0000E+00 0.9000E+01
        1 -1    0    0  502    0 0.00000000E+00 0.00000000E+00 -.67251867E+02 0.67252628E+02 0.32000000E+00 0.0000E+00 0.9000E+01
       25  1    1    2    0    0 -.80454050E+02 -.51459142E+01 0.11819349E+03 0.18998430E+03 0.12500000E+03 0.0000E+00 0.9000E+01
       23  1    1    2    0    0 0.39393438E+02 -.12053399E+02 0.53468850E+02 0.11345174E+03 0.91188000E+02 0.0000E+00 0.9000E+01
       21  1    1    2  502  501 0.41060612E+02 0.17199314E+02 0.36158607E+03 0.36431695E+03 0.75000000E+00 0.0000E+00 0.9000E+01
#aMCatNLO 1  0  0  5  2 0.43769754D+02 0.00000000D+00  -5  6  0 0.00000000D+00 0.00000000D+00 0.00000000D+00 0.00000000D+00 0.00000000D+00
  <mgrwgt>
 0.5904472170D-01   15    2    0
 0.200960312125202D+03 0.000000000000000D+00 0.000000000000000D+00 0.200960312125202D+03
 0.200960312125202D+03 -.000000000000000D+00 -.000000000000000D+00 -.200960312125202D+03
 0.158828061270628D+03 -.804543400020692D+02 -.514603547967682D+01 -.556953367945611D+02
 0.117549731492206D+03 0.393932238416565D+02 -.120534891801813D+02 -.616893454644645D+02
 0.125542831487570D+03 0.410611161604127D+02 0.171995246598581D+02 0.117384682259026D+03
 0.000000000000000D+00 0.000000000000000D+00 0.000000000000000D+00 0.000000000000000D+00
 0.200960312125202D+03 0.000000000000000D+00 0.000000000000000D+00 0.200960312125202D+03
 0.200960312125202D+03 -.000000000000000D+00 -.000000000000000D+00 -.200960312125202D+03
 0.152762598559100D+03 -.761963444824554D+02 -.336246246000891D+01 -.435226659597605D+02
 0.114072783763435D+03 0.425584266520974D+02 -.107276610273627D+02 -.526407281609927D+02
 0.659434945746318D+02 0.489816753801363D+02 0.314255109111823D+02 0.310125332348166D+02
 0.691417473532356D+02 -.153437575497782D+02 -.173353874238107D+02 0.651508608859367D+02
0.302629041350D-03 0.000000000000D+00 0.000000000000D+00 0.125600818647D-04 0.000000000000D+00  6 -1 1 25 23 21 21 2 0.92384723D-01 0.10346506D-01 0.21509496D+05 0.21509496D+05 0.21509496D+05 0.12303622D+01  1  2  2  3  6  5       21 0.334474556055D-01 0.100000000000D+01
0.137184774823D-04 0.159701732678D-04 -.116217520284D-05 0.125600818647D-04 0.000000000000D+00  6 -1 1 25 23 21 21 4 0.92384723D-01 0.10346506D-01 0.21509496D+05 0.21509496D+05 0.21509496D+05 0.12303622D+01  1  2  3  3  6  5       21 0.229522032077D-02 0.100000000000D+01
0.101846057667D-04 0.000000000000D+00 0.000000000000D+00 0.125600818647D-04 0.000000000000D+00  6 -1 1 25 23 21 21 4 0.92384723D-01 0.10346506D-01 0.21509496D+05 0.21509496D+05 0.21509496D+05 0.12303622D+01  1  2 15  3  6  5       21 0.170397291864D-02 0.100000000000D+01
0.816437363596D-04 0.000000000000D+00 0.000000000000D+00 0.123419901331D-04 0.000000000000D+00  6 -1 1 25 23 21 21 4 0.92384723D-01 0.10346506D-01 0.27056719D+05 0.27056719D+05 0.27056719D+05 0.12196335D+01  1  2 12  3  6  5       21 0.132133920675D-01 0.100000000000D+01
-.597278563333D-04 0.000000000000D+00 0.000000000000D+00 0.125600818647D-04 0.000000000000D+00  6 -1 1 25 23 21 21 4 0.92384723D-01 0.10346506D-01 0.21509496D+05 0.21509496D+05 0.21509496D+05 0.12303622D+01  1  2  4  3  6  5       21 -.999298863521D-02 0.100000000000D+01
-.121610802289D-03 0.000000000000D+00 0.000000000000D+00 0.125600818647D-04 0.000000000000D+00  6 -1 1 25 23 21 21 4 0.92384723D-01 0.10346506D-01 0.21509496D+05 0.21509496D+05 0.21509496D+05 0.12303622D+01  1  2  5  3  6  5       21 -.203465424643D-01 0.100000000000D+01
0.227937707718D-03 0.000000000000D+00 -.000000000000D+00 0.125600818647D-04 0.000000000000D+00  6 -1 1 25 23 21 21 4 0.92384723D-01 0.10346506D-01 0.21509496D+05 0.21509496D+05 0.21509496D+05 0.12303622D+01  1  2  6  3  6  5       21 0.381359563627D-01 0.100000000000D+01
0.317554398047D-05 0.000000000000D+00 0.000000000000D+00 0.123419901331D-04 0.000000000000D+00  6 -1 1 25 23 1 -1 4 0.92384723D-01 0.10346506D-01 0.27056719D+05 0.27056719D+05 0.27056719D+05 0.12196335D+01  1  2 12  6  6  5       21 0.513936641222D-03 0.100000000000D+01
-.219278979702D-05 0.000000000000D+00 0.000000000000D+00 0.125600818647D-04 0.000000000000D+00  6 -1 1 25 23 1 -1 4 0.92384723D-01 0.10346506D-01 0.21509496D+05 0.21509496D+05 0.21509496D+05 0.12303622D+01  1  2  5  6  6  5       21 -.366872760320D-03 0.100000000000D+01
0.317554398047D-05 0.000000000000D+00 0.000000000000D+00 0.123419901331D-04 0.000000000000D+00  6 -1 1 25 23 2 -2 4 0.92384723D-01 0.10346506D-01 0.27056719D+05 0.27056719D+05 0.27056719D+05 0.12196335D+01  1  2 12  7  6  5       21 0.513936641222D-03 0.100000000000D+01
0.317554398047D-05 0.000000000000D+00 0.000000000000D+00 0.123419901331D-04 0.000000000000D+00  6 -1 1 25 23 4 -4 4 0.92384723D-01 0.10346506D-01 0.27056719D+05 0.27056719D+05 0.27056719D+05 0.12196335D+01  1  2 12  7  6  5       21 0.513936641222D-03 0.100000000000D+01
-.219278979702D-05 0.000000000000D+00 0.000000000000D+00 0.125600818647D-04 0.000000000000D+00  6 -1 1 25 23 2 -2 4 0.92384723D-01 0.10346506D-01 0.21509496D+05 0.21509496D+05 0.21509496D+05 0.12303622D+01  1  2  5  7  6  5       21 -.366872760320D-03 0.100000000000D+01
-.219278979702D-05 0.000000000000D+00 0.000000000000D+00 0.125600818647D-04 0.000000000000D+00  6 -1 1 25 23 4 -4 4 0.92384723D-01 0.10346506D-01 0.21509496D+05 0.21509496D+05 0.21509496D+05 0.12303622D+01  1  2  5  7  6  5       21 -.366872760320D-03 0.100000000000D+01
0.317554398047D-05 0.000000000000D+00 0.000000000000D+00 0.123419901331D-04 0.000000000000D+00  6 -1 1 25 23 3 -3 4 0.92384723D-01 0.10346506D-01 0.27056719D+05 0.27056719D+05 0.27056719D+05 0.12196335D+01  1  2 12  8  6  5       21 0.513936641222D-03 0.100000000000D+01
-.219278979702D-05 0.000000000000D+00 0.000000000000D+00 0.125600818647D-04 0.000000000000D+00  6 -1 1 25 23 3 -3 4 0.92384723D-01 0.10346506D-01 0.21509496D+05 0.21509496D+05 0.21509496D+05 0.12303622D+01  1  2  5  8  6  5       21 -.366872760320D-03 0.100000000000D+01
  </mgrwgt>
  </event>
  <event>
  5     66 0.47607883E-03 0.67190980E+02 0.75467711E-02 0.11782317E+00
       -1 -1    0    0    0  501 0.00000000E+00 0.00000000E+00 0.17311546E+02 0.17314504E+02 0.32000000E+00 0.0000E+00 0.9000E+01
        1 -1    0    0  502    0 -.00000000E+00 -.00000000E+00 -.20307892E+04 0.20307892E+04 0.32000000E+00 0.0000E+00 0.9000E+01
       25  1    1    2    0    0 0.92984896E+02 0.60602189E+02 -.59971414E+03 0.62257600E+03 0.12500000E+03 0.0000E+00 0.9000E+01
       23  1    1    2    0    0 -.27796278E+02 -.32125291E+02 -.57333339E+03 0.58209200E+03 0.91188000E+02 0.0000E+00 0.9000E+01
       21  1    1    2  502  501 -.65188618E+02 -.28476899E+02 -.84043014E+03 0.84343576E+03 0.75000000E+00 0.0000E+00 0.9000E+01
#aMCatNLO 1  0  0  5  2 0.21305786D+02 0.00000000D+00  -5  6  0 0.00000000D+00 0.00000000D+00 0.00000000D+00 0.00000000D+00 0.00000000D+00
  <mgrwgt>
 0.2502276960D-01   20    2    0
 0.187507749559605D+03 0.000000000000000D+00 0.000000000000000D+00 0.187507749559605D+03
 0.187507749559605D+03 -.000000000000000D+00 -.000000000000000D+00 -.187507749559605D+03
 0.180231408467740D+03 0.929858933543196D+02 0.606026249976791D+02 0.673743725666890D+02
 0.100771104068118D+03 -.277957205712778D+02 -.321250469962513D+02 -.591128958176652D+01
 0.940129865833530D+02 -.651901727830418D+02 -.284775780014278D+02 -.614630829849224D+02
 0.000000000000000D+00 0.000000000000000D+00 -.000000000000000D+00 0.000000000000000D+00
 0.187507749559605D+03 0.000000000000000D+00 0.000000000000000D+00 0.187507749559605D+03
 0.187507749559605D+03 -.000000000000000D+00 -.000000000000000D+00 -.187507749559605D+03
 0.176754486320186D+03 0.895262470698277D+02 0.590913182666499D+02 0.641125231558907D+02
 0.101729439668326D+03 -.297582077842853D+02 -.329823369879687D+02 -.776157635476479D+01
 0.567535919979208D+02 -.350115965956304D+02 0.271732979418726D+01 -.445844639676302D+02
 0.397779811327778D+02 -.247564426899120D+02 -.288263110728685D+02 -.117664828334957D+02
0.675973730441D-04 0.000000000000D+00 0.000000000000D+00 0.331188265167D-05 0.000000000000D+00  6 -1 1 25 23 21 21 2 0.26635443D-02 0.31242934D+00 0.28713496D+05 0.28713496D+05 0.28713496D+05 0.12169013D+01  1  2  2  3  6  5       21 0.145962485053D-01 0.100000000000D+01
-.195819625638D-05 0.356721137913D-05 -.259591711286D-06 0.331188265167D-05 0.000000000000D+00  6 -1 1 25 23 21 21 4 0.26635443D-02 0.31242934D+00 0.28713496D+05 0.28713496D+05 0.28713496D+05 0.12169013D+01  1  2  3  3  6  5       21 -.626149957288D-03 0.100000000000D+01
0.204648811319D-05 0.000000000000D+00 0.000000000000D+00 0.331188265167D-05 0.000000000000D+00  6 -1 1 25 23 21 21 4 0.26635443D-02 0.31242934D+00 0.28713496D+05 0.28713496D+05 0.28713496D+05 0.12169013D+01  1  2 15  3  6  5       21 0.654382031673D-03 0.100000000000D+01
0.500960663241D-04 0.000000000000D+00 0.000000000000D+00 0.331134785994D-05 0.000000000000D+00  6 -1 1 25 23 21 21 4 0.26635443D-02 0.31242934D+00 0.28775151D+05 0.28775151D+05 0.28775151D+05 0.12168030D+01  1  2 12  3  6  5       21 0.160132755687D-01 0.100000000000D+01
0.423599018684D-04 0.000000000000D+00 0.000000000000D+00 0.331134785994D-05 0.000000000000D+00  6 -1 1 25 23 21 21 4 0.26635443D-02 0.31242934D+00 0.28775151D+05 0.28775151D+05 0.28775151D+05 0.12168030D+01  1  2 12  3  6  5       21 0.135404001043D-01 0.100000000000D+01
-.107233377026D-03 0.000000000000D+00 0.000000000000D+00 0.331188265167D-05 0.000000000000D+00  6 -1 1 25 23 21 21 4 0.26635443D-02 0.31242934D+00 0.28713496D+05 0.28713496D+05 0.28713496D+05 0.12169013D+01  1  2  4  3  6  5       21 -.342887870540D-01 0.100000000000D+01
-.845237043757D-04 0.000000000000D+00 0.000000000000D+00 0.331188265167D-05 0.000000000000D+00  6 -1 1 25 23 21 21 4 0.26635443D-02 0.31242934D+00 0.28713496D+05 0.28713496D+05 0.28713496D+05 0.12169013D+01  1  2  5  3  6  5       21 -.270271755000D-01 0.100000000000D+01
0.133243185497D-03 0.000000000000D+00 -.000000000000D+00 0.331188265167D-05 0.000000000000D+00  6 -1 1 25 23 21 21 4 0.26635443D-02 0.31242934D+00 0.28713496D+05 0.28713496D+05 0.28713496D+05 0.12169013D+01  1  2  6  3  6  5       21 0.426056451879D-01 0.100000000000D+01
0.134226211614D-05 0.000000000000D+00 0.000000000000D+00 0.331134785994D-05 0.000000000000D+00  6 -1 1 25 23 1 -1 4 0.26635443D-02 0.31242934D+00 0.28775151D+05 0.28775151D+05 0.28775151D+05 0.12168030D+01  1  2 12  6  6  5       21 0.429055906548D-03 0.100000000000D+01
0.114279528837D-05 0.000000000000D+00 0.000000000000D+00 0.331134785994D-05 0.000000000000D+00  6 -1 1 25 23 1 -1 4 0.26635443D-02 0.31242934D+00 0.28775151D+05 0.28775151D+05 0.28775151D+05 0.12168030D+01  1  2 12  6  6  5       21 0.365296064423D-03 0.100000000000D+01
-.283219744458D-05 0.000000000000D+00 0.000000000000D+00 0.331188265167D-05 0.000000000000D+00  6 -1 1 25 23 1 -1 4 0.26635443D-02 0.31242934D+00 0.28713496D+05 0.28713496D+05 0.28713496D+05 0.12169013D+01  1  2  5  6  6  5       21 -.905619292843D-03 0.100000000000D+01
0.134226211614D-05 0.000000000000D+00 0.000000000000D+00 0.331134785994D-05 0.000000000000D+00  6 -1 1 25 23 2 -2 4 0.26635443D-02 0.31242934D+00 0.28775151D+05 0.28775151D+05 0.28775151D+05 0.12168030D+01  1  2 12  7  6  5       21 0.429055906548D-03 0.100000000000D+01
0.134226211614D-05 0.000000000000D+00 0.000000000000D+00 0.331134785994D-05 0.000000000000D+00  6 -1 1 25 23 4 -4 4 0.26635443D-02 0.31242934D+00 0.28775151D+05 0.28775151D+05 0.28775151D+05 0.12168030D+01  1  2 12  7  6  5       21 0.429055906548D-03 0.100000000000D+01
0.114279528837D-05 0.000000000000D+00 0.000000000000D+00 0.331134785994D-05 0.000000000000D+00  6 -1 1 25 23 2 -2 4 0.26635443D-02 0.31242934D+00 0.28775151D+05 0.28775151D+05 0.28775151D+05 0.12168030D+01  1  2 12  7  6  5       21 0.365296064423D-03 0.100000000000D+01
0.114279528837D-05 0.000000000000D+00 0.000000000000D+00 0.331134785994D-05 0.000000000000D+00  6 -1 1 25 23 4 -4 4 0.26635443D-02 0.31242934D+00 0.28775151D+05 0.28775151D+05 0.28775151D+05 0.12168030D+01  1  2 12  7  6  5       21 0.365296064423D-03 0.100000000000D+01
-.283219744458D-05 0.000000000000D+00 0.000000000000D+00 0.331188265167D-05 0.000000000000D+00  6 -1 1 25 23 2 -2 4 0.26635443D-02 0.31242934D+00 0.28713496D+05 0.28713496D+05 0.28713496D+05 0.12169013D+01  1  2  5  7  6  5       21 -.905619292843D-03 0.100000000000D+01
-.283219744458D-05 0.000000000000D+00 0.000000000000D+00 0.331188265167D-05 0.000000000000D+00  6 -1 1 25 23 4 -4 4 0.26635443D-02 0.31242934D+00 0.28713496D+05 0.28713496D+05 0.28713496D+05 0.12169013D+01  1  2  5  7  6  5       21 -.905619292843D-03 0.100000000000D+01
0.134226211614D-05 0.000000000000D+00 0.000000000000D+00 0.331134785994D-05 0.000000000000D+00  6 -1 1 25 23 3 -3 4 0.26635443D-02 0.31242934D+00 0.28775151D+05 0.28775151D+05 0.28775151D+05 0.12168030D+01  1  2 12  8  6  5       21 0.429055906548D-03 0.100000000000D+01
0.114279528837D-05 0.000000000000D+00 0.000000000000D+00 0.331134785994D-05 0.000000000000D+00  6 -1 1 25 23 3 -3 4 0.26635443D-02 0.31242934D+00 0.28775151D+05 0.28775151D+05 0.28775151D+05 0.12168030D+01  1  2 12  8  6  5       21 0.365296064423D-03 0.100000000000D+01
-.283219744458D-05 0.000000000000D+00 0.000000000000D+00 0.331188265167D-05 0.000000000000D+00  6 -1 1 25 23 3 -3 4 0.26635443D-02 0.31242934D+00 0.28713496D+05 0.28713496D+05 0.28713496D+05 0.12169013D+01  1  2  5  8  6  5       21 -.905619292843D-03 0.100000000000D+01
  </mgrwgt>
  </event>
  <event>
  5     66 0.47607883E-03 0.25221867E+02 0.75467711E-02 0.12083033E+00
       -1 -1    0    0    0  501 0.00000000E+00 0.00000000E+00 0.82764059E+02 0.82764678E+02 0.32000000E+00 0.0000E+00 0.9000E+01
        1 -1    0    0  502    0 -.00000000E+00 -.00000000E+00 -.31512119E+03 0.31512135E+03 0.32000000E+00 0.0000E+00 0.9000E+01
       25  1    1    2    0    0 0.51746104E+02 -.26635570E+02 -.13809779E+03 0.19514895E+03 0.12500000E+03 0.0000E+00 0.9000E+01
       23  1    1    2    0    0 -.60670733E+02 0.30467701E+01 -.12284422E+03 0.16460915E+03 0.91188000E+02 0.0000E+00 0.9000E+01
       21  1    1    2  502  501 0.89246290E+01 0.23588800E+02 0.28584882E+02 0.38127922E+02 0.75000000E+00 0.0000E+00 0.9000E+01
#aMCatNLO 1  0  0  5  2 0.18013909D+02 0.00000000D+00  -5  6  0 0.00000000D+00 0.00000000D+00 0.00000000D+00 0.00000000D+00 0.00000000D+00
  <mgrwgt>
 0.1367018870D+00   15    2    0
 0.161495709432951D+03 0.000000000000000D+00 0.000000000000000D+00 0.161495709432951D+03
 0.161495709432951D+03 -.000000000000000D+00 -.000000000000000D+00 -.161495709432951D+03
 0.141053778148312D+03 0.517458638166617D+02 -.266362056353121D+02 -.297329187456281D+02
 0.114405854350303D+03 -.606709281090374D+02 0.304625480342958D+01 -.329121099245155D+02
 0.675317863672863D+02 0.892506429237563D+01 0.235899508318825D+02 0.626450286701436D+02
 0.000000000000000D+00 0.000000000000000D+00 0.000000000000000D+00 0.000000000000000D+00
 0.161495709432951D+03 0.000000000000000D+00 0.000000000000000D+00 0.161495709432951D+03
 0.161495709432951D+03 -.000000000000000D+00 -.000000000000000D+00 -.161495709432951D+03
 0.139747848625920D+03 0.526568260804157D+02 -.242284297014162D+02 -.233388743711765D+02
 0.112702426909896D+03 -.599341550483158D+02 0.499362904156539D+01 -.277406996130264D+02
 0.511415680677797D+02 0.208715609072703D+02 0.625855481672906D+01 0.462673580543719D+02
 0.193995752623053D+02 -.135942319393702D+02 0.129762458431218D+02 0.481221592983106D+01
0.164371856152D-03 0.000000000000D+00 0.000000000000D+00 0.303829811169D-04 0.000000000000D+00  6 -1 1 25 23 21 21 2 0.12732992D-01 0.48480243D-01 0.18588036D+05 0.18588036D+05 0.18588036D+05 0.12373420D+01  1  2  2  3  6  5       21 0.836233119975D-01 0.100000000000D+01
0.202155409052D-04 0.867414115773D-05 -.631231207728D-06 0.303829811169D-04 0.000000000000D+00  6 -1 1 25 23 21 21 4 0.12732992D-01 0.48480243D-01 0.18588036D+05 0.18588036D+05 0.18588036D+05 0.12373420D+01  1  2  3  3  6  5       21 0.157458016379D-01 0.100000000000D+01
0.605818133313D-05 0.000000000000D+00 0.000000000000D+00 0.303829811169D-04 0.000000000000D+00  6 -1 1 25 23 21 21 4 0.12732992D-01 0.48480243D-01 0.18588036D+05 0.18588036D+05 0.18588036D+05 0.12373420D+01  1  2 15  3  6  5       21 0.471869251511D-02 0.100000000000D+01
0.124482033449D-03 0.000000000000D+00 0.000000000000D+00 0.301326057996D-04 0.000000000000D+00  6 -1 1 25 23 21 21 4 0.12732992D-01 0.48480243D-01 0.20678896D+05 0.20678896D+05 0.20678896D+05 0.12322332D+01  1  2 12  3  6  5       21 0.955971237009D-01 0.100000000000D+01
-.136649562089D-03 0.000000000000D+00 0.000000000000D+00 0.303829811169D-04 0.000000000000D+00  6 -1 1 25 23 21 21 4 0.12732992D-01 0.48480243D-01 0.18588036D+05 0.18588036D+05 0.18588036D+05 0.12373420D+01  1  2  4  3  6  5       21 -.106435781692D+00 0.100000000000D+01
-.148773404764D-03 0.000000000000D+00 0.000000000000D+00 0.303829811169D-04 0.000000000000D+00  6 -1 1 25 23 21 21 4 0.12732992D-01 0.48480243D-01 0.18588036D+05 0.18588036D+05 0.18588036D+05 0.12373420D+01  1  2  5  3  6  5       21 -.115878992870D+00 0.100000000000D+01
0.214254484922D-03 0.000000000000D+00 -.000000000000D+00 0.303829811169D-04 0.000000000000D+00  6 -1 1 25 23 21 21 4 0.12732992D-01 0.48480243D-01 0.18588036D+05 0.18588036D+05 0.18588036D+05 0.12373420D+01  1  2  6  3  6  5       21 0.166881936795D+00 0.100000000000D+01
0.196792984686D-05 0.000000000000D+00 0.000000000000D+00 0.301326057996D-04 0.000000000000D+00  6 -1 1 25 23 1 -1 4 0.12732992D-01 0.48480243D-01 0.20678896D+05 0.20678896D+05 0.20678896D+05 0.12322332D+01  1  2 12  6  6  5       21 0.151128984475D-02 0.100000000000D+01
-.436366550835D-05 0.000000000000D+00 0.000000000000D+00 0.303829811169D-04 0.000000000000D+00  6 -1 1 25 23 1 -1 4 0.12732992D-01 0.48480243D-01 0.18588036D+05 0.18588036D+05 0.18588036D+05 0.12373420D+01  1  2  5  6  6  5       21 -.339884111095D-02 0.100000000000D+01
0.196792984686D-05 0.000000000000D+00 0.000000000000D+00 0.301326057996D-04 0.000000000000D+00  6 -1 1 25 23 2 -2 4 0.12732992D-01 0.48480243D-01 0.20678896D+05 0.20678896D+05 0.20678896D+05 0.12322332D+01  1  2 12  7  6  5       21 0.151128984475D-02 0.100000000000D+01
0.196792984686D-05 0.000000000000D+00 0.000000000000D+00 0.301326057996D-04 0.000000000000D+00  6 -1 1 25 23 4 -4 4 0.12732992D-01 0.48480243D-01 0.20678896D+05 0.20678896D+05 0.20678896D+05 0.12322332D+01  1  2 12  7  6  5       21 0.151128984475D-02 0.100000000000D+01
-.436366550835D-05 0.000000000000D+00 0.000000000000D+00 0.303829811169D-04 0.000000000000D+00  6 -1 1 25 23 2 -2 4 0.12732992D-01 0.48480243D-01 0.18588036D+05 0.18588036D+05 0.18588036D+05 0.12373420D+01  1  2  5  7  6  5       21 -.339884111095D-02 0.100000000000D+01
-.436366550835D-05 0.000000000000D+00 0.000000000000D+00 0.303829811169D-04 0.000000000000D+00  6 -1 1 25 23 4 -4 4 0.12732992D-01 0.48480243D-01 0.18588036D+05 0.18588036D+05 0.18588036D+05 0.12373420D+01  1  2  5  7  6  5       21 -.339884111095D-02 0.100000000000D+01
0.196792984686D-05 0.000000000000D+00 0.000000000000D+00 0.301326057996D-04 0.000000000000D+00  6 -1 1 25 23 3 -3 4 0.12732992D-01 0.48480243D-01 0.20678896D+05 0.20678896D+05 0.20678896D+05 0.12322332D+01  1  2 12  8  6  5       21 0.151128984475D-02 0.100000000000D+01
-.436366550835D-05 0.000000000000D+00 0.000000000000D+00 0.303829811169D-04 0.000000000000D+00  6 -1 1 25 23 3 -3 4 0.12732992D-01 0.48480243D-01 0.18588036D+05 0.18588036D+05 0.18588036D+05 0.12373420D+01  1  2  5  8  6  5       21 -.339884111095D-02 0.100000000000D+01
  </mgrwgt>
  </event>
  <event>
  5     66 0.47607883E-03 0.32299420E+02 0.75467711E-02 0.10768493E+00
       -1 -1    0    0    0  501 0.00000000E+00 0.00000000E+00 0.80742352E+03 0.80742358E+03 0.32000000E+00 0.0000E+00 0.9000E+01
        1 -1    0    0  502    0 0.00000000E+00 0.00000000E+00 -.50838417E+02 0.50839424E+02 0.32000000E+00 0.0000E+00 0.9000E+01
       25  1    1    2    0    0 0.41701546E+02 0.11565949E+03 0.31997444E+03 0.36486269E+03 0.12500000E+03 0.0000E+00 0.9000E+01
       23  1    1    2    0    0 -.43085678E+02 -.14792558E+03 0.42107094E+03 0.45755256E+03 0.91188000E+02 0.0000E+00 0.9000E+01
       21  1    1    2  502  501 0.13841321E+01 0.32266096E+02 0.15539715E+02 0.35847762E+02 0.75000000E+00 0.0000E+00 0.9000E+01
#aMCatNLO 1  0  0  1  5 0.32807753D+02 0.00000000D+00  -5  6  0 0.00000000D+00 0.00000000D+00 0.00000000D+00 0.00000000D+00 0.00000000D+00
  <mgrwgt>
 0.1555254223D+00    5    4    0
 0.202604524010675D+03 0.000000000000000D+00 0.000000000000000D+00 0.202604524010675D+03
 0.202604524010675D+03 0.000000000000000D+00 0.000000000000000D+00 -.202604524010675D+03
 0.175365654297978D+03 0.417014693813815D+02 0.115657700733078D+03 -.352085499978199D+01
 0.182930794846164D+03 -.430857579490319D+02 -.147927443426535D+03 0.375434854841145D+02
 0.469125988772085D+02 0.138428856765043D+01 0.322697426934567D+02 -.340226304843326D+02
 0.000000000000000D+00 0.000000000000000D+00 -.000000000000000D+00 0.000000000000000D+00
 0.518641243997538D+03 0.000000000000000D+00 0.000000000000000D+00 0.518641243997538D+03
 0.259058322219392D+03 0.000000000000000D+00 0.000000000000000D+00 -.259058322219392D+03
 0.207867290949138D+03 -.335585384155487D+02 0.162619921061401D+03 -.352085499978199D+01
 0.183217734061356D+03 -.114990695878222D+03 -.103058785601832D+03 0.375434854841145D+02
 0.600067108551401D+02 -.196127269131304D+02 0.453718735078233D+02 -.340226304843326D+02
 0.326607830351296D+03 0.168161961206901D+03 -.104933008967392D+03 0.259582921778146D+03
 0.202604524010675D+03 0.000000000000000D+00 0.000000000000000D+00 0.202604524010675D+03
 0.202604524010675D+03 0.000000000000000D+00 0.000000000000000D+00 -.202604524010675D+03
 0.175365654297978D+03 0.417014693813815D+02 0.115657700733078D+03 -.352085499978199D+01
 0.182930794846164D+03 -.430857579490319D+02 -.147927443426535D+03 0.375434854841145D+02
 0.000000000000000D+00 0.000000000000000D+00 -.000000000000000D+00 0.000000000000000D+00
 0.469125988772085D+02 0.138428856765043D+01 0.322697426934567D+02 -.340226304843326D+02
 0.518641243997538D+03 0.000000000000000D+00 0.000000000000000D+00 0.518641243997538D+03
 0.259058322219392D+03 0.000000000000000D+00 0.000000000000000D+00 -.259058322219392D+03
 0.207867290949138D+03 -.335585384155487D+02 0.162619921061401D+03 -.352085499978199D+01
 0.183217734061356D+03 -.114990695878222D+03 -.103058785601832D+03 0.375434854841145D+02
 0.326607830351296D+03 0.168161961206901D+03 -.104933008967392D+03 0.259582921778146D+03
 0.600067108551401D+02 -.196127269131304D+02 0.453718735078233D+02 -.340226304843326D+02
0.164173610123D-02 0.000000000000D+00 0.000000000000D+00 0.115734256764D-04 0.000000000000D+00  6 -1 1 25 23 21 21 2 0.12421909D+00 0.78213773D-02 0.37377743D+05 0.37377743D+05 0.37377743D+05 0.12050021D+01  1  2  2  1  6  1       -1 0.129890089772D+00 0.100000000000D+01
0.266617309558D-03 0.866367942733D-04 -.630469890776D-05 0.115734256764D-04 0.000000000000D+00  6 -1 1 25 23 21 21 4 0.12421909D+00 0.78213773D-02 0.37377743D+05 0.37377743D+05 0.37377743D+05 0.12050021D+01  1  2  3  1  6  1       -1 0.306292688925D-01 0.100000000000D+01
0.147187012208D-04 0.000000000000D+00 0.000000000000D+00 0.115734256764D-04 0.000000000000D+00  6 -1 1 25 23 21 21 4 0.12421909D+00 0.78213773D-02 0.37377743D+05 0.37377743D+05 0.37377743D+05 0.12050021D+01  1  2 15  1  6  1       -1 0.169089943256D-02 0.100000000000D+01
-.104521727152D-02 0.000000000000D+00 -.757791008151D-03 0.115734256764D-04 0.000000000000D+00  6 -1 1 25 23 21 21 4 0.34857185D+00 0.78213773D-02 0.37377743D+05 0.37377743D+05 0.37377743D+05 0.12050021D+01  1  2  5  1  6  1       -1 -.386708177896D-02 0.100000000000D+01
-.790004446244D-04 0.000000000000D+00 -.878424456887D-04 0.115734256764D-04 0.000000000000D+00  6 21 1 25 23 1 21 4 0.34857185D+00 0.78213773D-02 0.37377743D+05 0.37377743D+05 0.37377743D+05 0.12050021D+01  3  4  5  4  5  1       -1 -.281775405594D-02 0.100000000000D+01
  </mgrwgt>
  </event>
  <event>
  5     66 0.47607883E-03 0.34369175E+02 0.75467711E-02 0.11795411E+00
       -1 -1    0    0    0  501 0.00000000E+00 0.00000000E+00 0.33639943E+02 0.33641465E+02 0.32000000E+00 0.0000E+00 0.9000E+01
        1 -1    0    0  502    0 -.00000000E+00 -.00000000E+00 -.10057534E+04 0.10057534E+04 0.32000000E+00 0.0000E+00 0.9000E+01
       25  1    1    2    0    0 0.52697169E+02 -.75165838E+02 -.43909179E+03 0.46567531E+03 0.12500000E+03 0.0000E+00 0.9000E+01
       23  1    1    2    0    0 -.85914293E+02 0.65729476E+02 -.51632090E+03 0.53535424E+03 0.91188000E+02 0.0000E+00 0.9000E+01
       21  1    1    2  502  501 0.33217125E+02 0.94363620E+01 -.16700730E+02 0.38365339E+02 0.75000000E+00 0.0000E+00 0.9000E+01
#aMCatNLO 1  0  0  5  2 0.76974475D+01 0.00000000D+00  -5  6  0 0.00000000D+00 0.00000000D+00 0.00000000D+00 0.00000000D+00 0.00000000D+00
  <mgrwgt>
 0.1116853447D+00   20    2    0
 0.183941033552365D+03 0.000000000000000D+00 0.000000000000000D+00 0.183941033552365D+03
 0.183941033552365D+03 -.000000000000000D+00 -.000000000000000D+00 -.183941033552365D+03
 0.155412516978018D+03 0.526962129502035D+02 -.751661092316093D+02 -.100605962612200D+02
 0.148205881843576D+03 -.859152048701325D+02 0.657292168162929D+02 -.441359229865173D+02
 0.642636682831359D+02 0.332189919199290D+02 0.943689241531635D+01 0.541965192477373D+02
 0.000000000000000D+00 0.000000000000000D+00 0.000000000000000D+00 0.000000000000000D+00
 0.183941033552365D+03 0.000000000000000D+00 0.000000000000000D+00 0.183941033552365D+03
 0.183941033552365D+03 -.000000000000000D+00 -.000000000000000D+00 -.183941033552365D+03
 0.155559174790392D+03 0.540079676024685D+02 -.747934643434515D+02 -.792047905263182D+01
 0.147050760986832D+03 -.846697401378205D+02 0.660830299817926D+02 -.421039572513793D+02
 0.816867722678708D+01 -.244706158847097D+01 0.694698470132862D+01 0.353250347164248D+01
 0.571034541007181D+02 0.331088341238230D+02 0.176344966033026D+01 0.464919328323686D+02
0.208415613048D-03 0.000000000000D+00 0.000000000000D+00 0.123083439100D-04 0.000000000000D+00  6 -1 1 25 23 21 21 2 0.51754969D-02 0.15473141D+00 0.27407036D+05 0.27407036D+05 0.27407036D+05 0.12190405D+01  1  2  2  3  6  5       21 0.812229743410D-01 0.100000000000D+01
0.197546448770D-04 0.109983940644D-04 -.800370831197D-06 0.123083439100D-04 0.000000000000D+00  6 -1 1 25 23 21 21 4 0.51754969D-02 0.15473141D+00 0.27407036D+05 0.27407036D+05 0.27407036D+05 0.12190405D+01  1  2  3  3  6  5       21 0.114407406722D-01 0.100000000000D+01
0.553519542682D-05 0.000000000000D+00 0.000000000000D+00 0.123083439100D-04 0.000000000000D+00  6 -1 1 25 23 21 21 4 0.51754969D-02 0.15473141D+00 0.27407036D+05 0.27407036D+05 0.27407036D+05 0.12190405D+01  1  2 15  3  6  5       21 0.320566306520D-02 0.100000000000D+01
0.934464167441D-05 0.000000000000D+00 0.000000000000D+00 0.122768312402D-04 0.000000000000D+00  6 -1 1 25 23 21 21 4 0.51754969D-02 0.15473141D+00 0.28353974D+05 0.28353974D+05 0.28353974D+05 0.12174790D+01  1  2 12  3  6  5       21 0.538594997270D-02 0.100000000000D+01
-.942068613892D-04 0.000000000000D+00 0.000000000000D+00 0.123083439100D-04 0.000000000000D+00  6 -1 1 25 23 21 21 4 0.51754969D-02 0.15473141D+00 0.27407036D+05 0.27407036D+05 0.27407036D+05 0.12190405D+01  1  2  4  3  6  5       21 -.545591316578D-01 0.100000000000D+01
-.976663861934D-05 0.000000000000D+00 0.000000000000D+00 0.123083439100D-04 0.000000000000D+00  6 -1 1 25 23 21 21 4 0.51754969D-02 0.15473141D+00 0.27407036D+05 0.27407036D+05 0.27407036D+05 0.12190405D+01  1  2  5  3  6  5       21 -.565626870940D-02 0.100000000000D+01
0.135678142503D-03 0.000000000000D+00 -.000000000000D+00 0.123083439100D-04 0.000000000000D+00  6 -1 1 25 23 21 21 4 0.51754969D-02 0.15473141D+00 0.27407036D+05 0.27407036D+05 0.27407036D+05 0.12190405D+01  1  2  6  3  6  5       21 0.785768842178D-01 0.100000000000D+01
0.631219472838D-07 0.000000000000D+00 0.000000000000D+00 0.123083439100D-04 0.712192104502D-06  6 -1 1 25 23 21 21 4 0.51754969D-02 0.15473141D+00 0.28353974D+05 0.28353974D+05 0.28353974D+05 0.12174790D+01  1  2 11  3  6  5       21 0.363814538958D-04 0.100000000000D+01
0.379551695603D-05 0.000000000000D+00 0.000000000000D+00 0.122768312402D-04 0.000000000000D+00  6 -1 1 25 23 1 -1 4 0.51754969D-02 0.15473141D+00 0.28353974D+05 0.28353974D+05 0.28353974D+05 0.12174790D+01  1  2 12  6  6  5       21 0.218761351778D-02 0.100000000000D+01
-.728133629375D-05 0.000000000000D+00 0.000000000000D+00 0.123083439100D-04 0.000000000000D+00  6 -1 1 25 23 1 -1 4 0.51754969D-02 0.15473141D+00 0.27407036D+05 0.27407036D+05 0.27407036D+05 0.12190405D+01  1  2  5  6  6  5       21 -.421692623698D-02 0.100000000000D+01
0.635108126015D-07 0.000000000000D+00 0.000000000000D+00 0.123083439100D-04 0.199556493175D-07  6 -1 1 25 23 1 -1 4 0.51754969D-02 0.15473141D+00 0.28353974D+05 0.28353974D+05 0.28353974D+05 0.12174790D+01  1  2 11  6  6  5       21 0.366055833188D-04 0.100000000000D+01
0.379551695603D-05 0.000000000000D+00 0.000000000000D+00 0.122768312402D-04 0.000000000000D+00  6 -1 1 25 23 2 -2 4 0.51754969D-02 0.15473141D+00 0.28353974D+05 0.28353974D+05 0.28353974D+05 0.12174790D+01  1  2 12  7  6  5       21 0.218761351778D-02 0.100000000000D+01
0.379551695603D-05 0.000000000000D+00 0.000000000000D+00 0.122768312402D-04 0.000000000000D+00  6 -1 1 25 23 4 -4 4 0.51754969D-02 0.15473141D+00 0.28353974D+05 0.28353974D+05 0.28353974D+05 0.12174790D+01  1  2 12  7  6  5       21 0.218761351778D-02 0.100000000000D+01
-.728133629375D-05 0.000000000000D+00 0.000000000000D+00 0.123083439100D-04 0.000000000000D+00  6 -1 1 25 23 2 -2 4 0.51754969D-02 0.15473141D+00 0.27407036D+05 0.27407036D+05 0.27407036D+05 0.12190405D+01  1  2  5  7  6  5       21 -.421692623698D-02 0.100000000000D+01
-.728133629375D-05 0.000000000000D+00 0.000000000000D+00 0.123083439100D-04 0.000000000000D+00  6 -1 1 25 23 4 -4 4 0.51754969D-02 0.15473141D+00 0.27407036D+05 0.27407036D+05 0.27407036D+05 0.12190405D+01  1  2  5  7  6  5       21 -.421692623698D-02 0.100000000000D+01
0.651757277460D-07 0.000000000000D+00 0.000000000000D+00 0.123083439100D-04 0.177393336443D-07  6 -1 1 25 23 2 -2 4 0.51754969D-02 0.15473141D+00 0.28353974D+05 0.28353974D+05 0.28353974D+05 0.12174790D+01  1  2 11  7  6  5       21 0.375651866926D-04 0.100000000000D+01
0.651757277460D-07 0.000000000000D+00 0.000000000000D+00 0.123083439100D-04 0.177393336443D-07  6 -1 1 25 23 4 -4 4 0.51754969D-02 0.15473141D+00 0.28353974D+05 0.28353974D+05 0.28353974D+05 0.12174790D+01  1  2 11  7  6  5       21 0.375651866926D-04 0.100000000000D+01
0.379551695603D-05 0.000000000000D+00 0.000000000000D+00 0.122768312402D-04 0.000000000000D+00  6 -1 1 25 23 3 -3 4 0.51754969D-02 0.15473141D+00 0.28353974D+05 0.28353974D+05 0.28353974D+05 0.12174790D+01  1  2 12  8  6  5       21 0.218761351778D-02 0.100000000000D+01
-.728133629375D-05 0.000000000000D+00 0.000000000000D+00 0.123083439100D-04 0.000000000000D+00  6 -1 1 25 23 3 -3 4 0.51754969D-02 0.15473141D+00 0.27407036D+05 0.27407036D+05 0.27407036D+05 0.12190405D+01  1  2  5  8  6  5       21 -.421692623698D-02 0.100000000000D+01
0.653511165719D-07 0.000000000000D+00 0.000000000000D+00 0.123083439100D-04 0.177870704476D-07  6 -1 1 25 23 3 -3 4 0.51754969D-02 0.15473141D+00 0.28353974D+05 0.28353974D+05 0.28353974D+05 0.12174790D+01  1  2 11  8  6  5       21 0.376662751532D-04 0.100000000000D+01
  </mgrwgt>
  </event>
  <event>
  5     66 0.47607883E-03 0.28464791E+02 0.75467711E-02 0.10053583E+00
       -1 -1    0    0    0  501 0.00000000E+00 0.00000000E+00 0.23009621E+03 0.23009643E+03 0.32000000E+00 0.0000E+00 0.9000E+01
        1 -1    0    0  502    0 0.00000000E+00 0.00000000E+00 -.25006273E+03 0.25006294E+03 0.32000000E+00 0.0000E+00 0.9000E+01
       25  1    1    2    0    0 -.78810235E+02 -.48168013E+02 -.19802858E+03 0.25173703E+03 0.12500000E+03 0.0000E+00 0.9000E+01
       23  1    1    2    0    0 0.50360643E+02 0.47364156E+02 0.14693781E+03 0.18624052E+03 0.91188000E+02 0.0000E+00 0.9000E+01
       21  1    1    2  502  501 0.28449591E+02 0.80385634E+00 0.31124248E+02 0.42181829E+02 0.75000000E+00 0.0000E+00 0.9000E+01
#aMCatNLO 1  0  0  1  2 0.50368284D+03 0.00000000D+00  -5  6  0 0.00000000D+00 0.00000000D+00 0.00000000D+00 0.00000000D+00 0.00000000D+00
  <mgrwgt>
 0.8770485821D-01    5    4    0
 0.239872028655146D+03 0.000000000000000D+00 0.000000000000000D+00 0.239872028655146D+03
 0.239872028655146D+03 0.000000000000000D+00 0.000000000000000D+00 -.239872028655146D+03
 0.243715800393226D+03 -.788123822406225D+02 -.481680733564226D+02 -.187725428421402D+03
 0.192515133378460D+03 0.503589473119587D+02 0.473641084140809D+02 0.154814220585503D+03
 0.435131235386058D+02 0.284534349286638D+02 0.803964942341744D+00 0.329112078358991D+02
 0.000000000000000D+00 0.000000000000000D+00 -.000000000000000D+00 0.000000000000000D+00
 0.609227346484841D+03 0.000000000000000D+00 0.000000000000000D+00 0.609227346484841D+03
 0.590401038363227D+03 0.000000000000000D+00 0.000000000000000D+00 -.590401038363227D+03
 0.435082052084304D+03 -.369647707906933D+03 -.423217155729848D+02 -.187725428421402D+03
 0.227271160142447D+03 -.129501202423044D+03 0.509796485274576D+02 0.154814220585503D+03
 0.332406122689909D+02 -.443219909070323D+01 0.146503038194039D+01 0.329112078358991D+02
 0.504034560352327D+03 0.503581109420680D+03 -.101229633364132D+02 0.188263081216140D+02
 0.239872028655146D+03 0.000000000000000D+00 0.000000000000000D+00 0.239872028655146D+03
 0.239872028655146D+03 0.000000000000000D+00 0.000000000000000D+00 -.239872028655146D+03
 0.243715800393226D+03 -.788123822406225D+02 -.481680733564226D+02 -.187725428421402D+03
 0.192515133378460D+03 0.503589473119587D+02 0.473641084140809D+02 0.154814220585503D+03
 0.000000000000000D+00 0.000000000000000D+00 -.000000000000000D+00 0.000000000000000D+00
 0.435131235386058D+02 0.284534349286638D+02 0.803964942341744D+00 0.329112078358991D+02
 0.609227346484841D+03 0.000000000000000D+00 0.000000000000000D+00 0.609227346484841D+03
 0.590401038363227D+03 0.000000000000000D+00 0.000000000000000D+00 -.590401038363227D+03
 0.435082052084304D+03 -.369647707906933D+03 -.423217155729848D+02 -.187725428421402D+03
 0.227271160142447D+03 -.129501202423044D+03 0.509796485274576D+02 0.154814220585503D+03
 0.504034560352327D+03 0.503581109420680D+03 -.101229633364132D+02 0.188263081216140D+02
 0.332406122689909D+02 -.443219909070323D+01 0.146503038194039D+01 0.329112078358991D+02
0.505974376428D-03 0.000000000000D+00 0.000000000000D+00 0.629099749383D-05 0.000000000000D+00  6 -1 1 25 23 21 21 2 0.35399450D-01 0.38471223D-01 0.22248761D+05 0.22248761D+05 0.22248761D+05 0.12287638D+01  1  2  2  1  6  1       -1 0.644652735624D-01 0.100000000000D+01
0.456167979455D-04 0.267010014127D-04 -.194307483159D-05 0.629099749383D-05 0.000000000000D+00  6 -1 1 25 23 21 21 4 0.35399450D-01 0.38471223D-01 0.22248761D+05 0.22248761D+05 0.22248761D+05 0.12287638D+01  1  2  3  1  6  1       -1 0.877523802922D-02 0.100000000000D+01
0.103304179884D-04 0.000000000000D+00 0.000000000000D+00 0.629099749383D-05 0.000000000000D+00  6 -1 1 25 23 21 21 4 0.35399450D-01 0.38471223D-01 0.22248761D+05 0.22248761D+05 0.22248761D+05 0.12287638D+01  1  2 15  1  6  1       -1 0.198724769980D-02 0.100000000000D+01
0.888496890102D-03 0.000000000000D+00 -.354336089820D-03 0.629099749383D-05 0.000000000000D+00  6 -1 1 25 23 21 21 4 0.18774134D+00 0.38471223D-01 0.22248761D+05 0.22248761D+05 0.22248761D+05 0.12287638D+01  1  2  5  1  6  1       -1 0.477584046311D-02 0.100000000000D+01
0.167105068668D-03 0.000000000000D+00 -.722588930531D-04 0.629099749383D-05 0.000000000000D+00  6 21 1 25 23 1 21 4 0.18774134D+00 0.38471223D-01 0.22248761D+05 0.22248761D+05 0.22248761D+05 0.12287638D+01  3  4  5  4  5  1       -1 0.770125845557D-02 0.100000000000D+01
  </mgrwgt>
  </event>
  <event>
  5     66 0.47607883E-03 0.85208981E+02 0.75467711E-02 0.10895565E+00
       -1 -1    0    0    0  501 0.00000000E+00 0.00000000E+00 0.22677273E+02 0.22679530E+02 0.32000000E+00 0.0000E+00 0.9000E+01
        1 -1    0    0  502    0 0.00000000E+00 0.00000000E+00 -.25406812E+04 0.25406812E+04 0.32000000E+00 0.0000E+00 0.9000E+01
       25  1    1    2    0    0 0.26078718E+02 0.70665802E+02 -.10039218E+04 0.10144741E+04 0.12500000E+03 0.0000E+00 0.9000E+01
       23  1    1    2    0    0 -.10076666E+03 -.11167961E+03 -.13718599E+04 0.13830912E+04 0.91188000E+02 0.0000E+00 0.9000E+01
       21  1    1    2  502  501 0.74687938E+02 0.41013813E+02 -.14222220E+03 0.16579547E+03 0.75000000E+00 0.0000E+00 0.9000E+01
#aMCatNLO 1  0  0  1  5 0.16446276D+01 0.00000000D+00  -5  6  0 0.00000000D+00 0.00000000D+00 0.00000000D+00 0.00000000D+00 0.00000000D+00
  <mgrwgt>
 0.2928336882D-01    3    2    0
 0.240038828307420D+03 0.000000000000000D+00 0.000000000000000D+00 0.240038828307420D+03
 0.240038828307420D+03 0.000000000000000D+00 0.000000000000000D+00 -.240038828307420D+03
 0.151192399023455D+03 0.260783768394330D+02 0.706656145989412D+02 -.395022872406388D+02
 0.189580175618946D+03 -.100767083423071D+03 -.111679849710417D+03 -.707035905083805D+02
 0.139305081972439D+03 0.746887065836378D+02 0.410142351114761D+02 0.110205877749019D+03
 0.000000000000000D+00 -.000000000000000D+00 -.000000000000000D+00 -.000000000000000D+00
 0.271554576562899D+03 0.000000000000000D+00 0.000000000000000D+00 0.271554576562899D+03
 0.504297106348517D+03 0.000000000000000D+00 0.000000000000000D+00 -.504297106348517D+03
 0.180717203656717D+03 0.414752846427966D+02 0.117273516891328D+03 -.395022872406388D+02
 0.156433850986407D+03 -.847158874851008D+02 -.630913550914247D+02 -.707035905083805D+02
 0.164395389237646D+03 0.887770249609931D+02 0.836609129237809D+02 0.110205877749019D+03
 0.274305239030646D+03 -.455364221186889D+02 -.137843074723684D+03 -.232742529785618D+03
0.449984360166D-03 0.000000000000D+00 0.000000000000D+00 0.227319709124D-05 0.000000000000D+00  6 -1 1 25 23 21 21 2 0.34889864D-02 0.39087420D+00 0.41422860D+05 0.41422860D+05 0.41422860D+05 0.12004618D+01  1  2  2  1  6  1       -1 0.295060174729D-01 0.100000000000D+01
-.110272902988D-04 0.237463270795D-04 -.172805842664D-05 0.227319709124D-05 0.000000000000D+00  6 -1 1 25 23 21 21 4 0.34889864D-02 0.39087420D+00 0.41422860D+05 0.41422860D+05 0.41422860D+05 0.12004618D+01  1  2  3  1  6  1       -1 -.104202624061D-02 0.100000000000D+01
0.867110077715D-05 0.000000000000D+00 0.000000000000D+00 0.227319709124D-05 0.000000000000D+00  6 -1 1 25 23 21 21 4 0.34889864D-02 0.39087420D+00 0.41422860D+05 0.41422860D+05 0.41422860D+05 0.12004618D+01  1  2 15  1  6  1       -1 0.819377589597D-03 0.100000000000D+01
  </mgrwgt>
  </event>
</LesHouchesEvents>
