<event>
 5    0  0.1911311E+001  0.2492362E+03  0.7546771E-02  0.1113788E+00
         21   -1    0    0  502  501  0.00000000000E+00  0.00000000000E+00  0.41456255338E+03  0.41456255338E+03  0.00000000000E+00 0.  1.
         21   -1    0    0  504  502 -0.00000000000E+00 -0.00000000000E+00 -0.15522653369E+04  0.15522653369E+04  0.00000000000E+00 0.  1.
         25    1    1    2    0    0  0.34407365218E+03  0.10039364982E+03 -0.59049767076E+03  0.70198152556E+03  0.12500000000E+03 0.  0.
         21    1    1    2  503  501 -0.16362266256E+03 -0.42090186675E+02  0.32820191390E+03  0.36913473936E+03  0.00000000000E+00 0.  1.
         21    1    1    2  504  503 -0.18045098961E+03 -0.58303463144E+02 -0.87540702665E+03  0.89571162534E+03  0.00000000000E+00 0.  1.
<mgrwt>
<rscale>  4 0.24923617E+03</rscale>
<asrwt>0</asrwt>
<pdfrwt beam="1">  1       21 0.63778855E-01 0.24923617E+03</pdfrwt>
<pdfrwt beam="2">  1       21 0.23881005E+00 0.24923617E+03</pdfrwt>
<totfact> 0.16366548E+02</totfact>
</mgrwt>
</event>
<event>
 5    0  0.1911311E+001  0.3296041E+03  0.7546771E-02  0.1071312E+00
         21   -1    0    0  503  501  0.00000000000E+00  0.00000000000E+00  0.39226457068E+03  0.39226457068E+03  0.00000000000E+00 0. -1.
         21   -1    0    0  504  502 -0.00000000000E+00 -0.00000000000E+00 -0.41984061140E+03  0.41984061140E+03  0.00000000000E+00 0. -1.
         25    1    1    2    0    0  0.11963847453E+03  0.30531938938E+03 -0.18443868934E+02  0.35142349156E+03  0.12500000000E+03 0.  0.
         21    1    1    2  503  502 -0.85616531784E+02 -0.27976568642E+03 -0.13907786009E+03  0.32394703422E+03  0.00000000000E+00 0. -1.
         21    1    1    2  504  501 -0.34021942746E+02 -0.25553702958E+02  0.12994568831E+03  0.13673465630E+03  0.00000000000E+00 0.  1.
<mgrwt>
<rscale>  4 0.32960407E+03</rscale>
<asrwt>0</asrwt>
<pdfrwt beam="1">  1       21 0.60348395E-01 0.32960407E+03</pdfrwt>
<pdfrwt beam="2">  1       21 0.64590863E-01 0.32960407E+03</pdfrwt>
<totfact> 0.52123521E+03</totfact>
</mgrwt>
</event>
<event>
 5    0  0.1911311E+001  0.2658073E+03  0.7546771E-02  0.1103703E+00
         21   -1    0    0  504  501  0.00000000000E+00  0.00000000000E+00  0.54729881499E+03  0.54729881499E+03  0.00000000000E+00 0. -1.
         21   -1    0    0  503  502 -0.00000000000E+00 -0.00000000000E+00 -0.24000850646E+03  0.24000850646E+03  0.00000000000E+00 0.  1.
         25    1    1    2    0    0  0.75196855305E+02 -0.22601176646E+03  0.35367882251E+03  0.44435300732E+03  0.12500000000E+03 0.  0.
         21    1    1    2  503  501  0.45117398102E+01  0.23612863124E+03 -0.88537439713E+02  0.25222205399E+03  0.00000000000E+00 0.  1.
         21    1    1    2  504  502 -0.79708595115E+02 -0.10116864781E+02  0.42148925735E+02  0.90732260133E+02  0.00000000000E+00 0. -1.
<mgrwt>
<rscale>  4 0.26580727E+03</rscale>
<asrwt>0</asrwt>
<pdfrwt beam="1">  1       21 0.84199817E-01 0.26580727E+03</pdfrwt>
<pdfrwt beam="2">  1       21 0.36924386E-01 0.26580727E+03</pdfrwt>
<totfact> 0.82721923E+03</totfact>
</mgrwt>
</event>
