<event>
 5    0  0.1911311E+001  0.2506082E+03  0.7546771E-02  0.1112921E+00
         21   -1    0    0  503  501  0.00000000000E+00  0.00000000000E+00  0.65215017031E+03  0.65215017031E+03  0.00000000000E+00 0. -1.
         21   -1    0    0  504  502 -0.00000000000E+00 -0.00000000000E+00 -0.26358371108E+03  0.26358371108E+03  0.00000000000E+00 0. -1.
         25    1    1    2    0    0  0.24339088180E+03 -0.23366958204E+03  0.13939157078E+03  0.38586993265E+03  0.12500000000E+03 0.  0.
         21    1    1    2  503  502 -0.13822024480E+03  0.12317277636E+03 -0.51962800287E+02  0.19229274953E+03  0.00000000000E+00 0. -1.
         21    1    1    2  504  501 -0.10517063701E+03  0.11049680568E+03  0.30113768874E+03  0.33757119921E+03  0.00000000000E+00 0. -1.
<mgrwt>
<rscale>  4 0.25060821E+03</rscale>
<asrwt>0</asrwt>
<pdfrwt beam="1">  1       21 0.10033080E+00 0.25060821E+03</pdfrwt>
<pdfrwt beam="2">  1       21 0.40551340E-01 0.25060821E+03</pdfrwt>
<totfact> 0.45768263E+03</totfact>
</mgrwt>
</event>
<event>
 5    0  0.1911311E+001  0.1994024E+03  0.7546771E-02  0.1150244E+00
         21   -1    0    0  504  501  0.00000000000E+00  0.00000000000E+00  0.11789046834E+04  0.11789046834E+04  0.00000000000E+00 0.  1.
         21   -1    0    0  503  502 -0.00000000000E+00 -0.00000000000E+00 -0.22969514068E+03  0.22969514068E+03  0.00000000000E+00 0.  1.
         25    1    1    2    0    0  0.17266452489E+03 -0.19789568722E+03  0.30534293370E+03  0.42170493041E+03  0.12500000000E+03 0.  0.
         21    1    1    2  503  501 -0.10609872195E+03  0.10034275617E+03 -0.13515113637E+03  0.19897597136E+03  0.00000000000E+00 0.  1.
         21    1    1    2  504  502 -0.66565802939E+02  0.97552931056E+02  0.77901774539E+03  0.78791892230E+03  0.00000000000E+00 0.  1.
<mgrwt>
<rscale>  4 0.19940236E+03</rscale>
<asrwt>0</asrwt>
<pdfrwt beam="1">  1       21 0.18136995E+00 0.19940236E+03</pdfrwt>
<pdfrwt beam="2">  1       21 0.35337714E-01 0.19940236E+03</pdfrwt>
<totfact> 0.13654097E+03</totfact>
</mgrwt>
</event>
<event>
 5    0  0.1911311E+001  0.3739017E+03  0.7546771E-02  0.1053211E+00
         21   -1    0    0  504  501  0.00000000000E+00  0.00000000000E+00  0.83402074042E+03  0.83402074042E+03  0.00000000000E+00 0.  1.
         21   -1    0    0  503  502 -0.00000000000E+00 -0.00000000000E+00 -0.10076130826E+04  0.10076130826E+04  0.00000000000E+00 0.  1.
         25    1    1    2    0    0  0.34840780785E+03 -0.15874096363E+03 -0.32903015432E+03  0.52006974201E+03  0.12500000000E+03 0.  0.
         21    1    1    2  503  501 -0.37026822659E+02  0.13068760424E+00 -0.54105601649E+03  0.54232150580E+03  0.00000000000E+00 0.  1.
         21    1    1    2  504  502 -0.31138098519E+03  0.15861027603E+03  0.69649382866E+03  0.77924257517E+03  0.00000000000E+00 0.  1.
<mgrwt>
<rscale>  4 0.37390169E+03</rscale>
<asrwt>0</asrwt>
<pdfrwt beam="1">  1       21 0.12831088E+00 0.37390169E+03</pdfrwt>
<pdfrwt beam="2">  1       21 0.15501740E+00 0.37390169E+03</pdfrwt>
<totfact> 0.10280225E+02</totfact>
</mgrwt>
</event>
<event>
 5    0  0.1911311E+001  0.2308084E+03  0.7546771E-02  0.1126072E+00
         21   -1    0    0  504  501  0.00000000000E+00  0.00000000000E+00  0.37203670242E+03  0.37203670242E+03  0.00000000000E+00 0.  1.
         21   -1    0    0  503  502 -0.00000000000E+00 -0.00000000000E+00 -0.39525491703E+03  0.39525491703E+03  0.00000000000E+00 0. -1.
         25    1    1    2    0    0 -0.85531066629E+02 -0.25982200911E+03 -0.71160133438E+02  0.30904984123E+03  0.12500000000E+03 0.  0.
         21    1    1    2  503  501  0.14843078274E+02  0.94242380678E+02 -0.15808060656E+03  0.18463862396E+03  0.00000000000E+00 0. -1.
         21    1    1    2  504  502  0.70687988355E+02  0.16557962843E+03  0.20602252540E+03  0.27360315426E+03  0.00000000000E+00 0.  1.
<mgrwt>
<rscale>  4 0.23080841E+03</rscale>
<asrwt>0</asrwt>
<pdfrwt beam="1">  1       21 0.57236416E-01 0.23080841E+03</pdfrwt>
<pdfrwt beam="2">  1       21 0.60808448E-01 0.23080841E+03</pdfrwt>
<totfact> 0.70278209E+03</totfact>
</mgrwt>
</event>
