<event>
 5    0  0.1911311E+001  0.3182357E+03  0.7546771E-02  0.1076464E+00
         21   -1    0    0  502  501  0.00000000000E+00  0.00000000000E+00  0.61148739127E+03  0.61148739127E+03  0.00000000000E+00 0. -1.
         21   -1    0    0  504  502 -0.00000000000E+00 -0.00000000000E+00 -0.31819173476E+03  0.31819173476E+03  0.00000000000E+00 0.  1.
         25    1    1    2    0    0 -0.19480022937E+03 -0.22058210799E+03 -0.10723584743E+03  0.33723600446E+03  0.12500000000E+03 0.  0.
         21    1    1    2  503  501  0.24448432134E+03  0.16330232562E+03  0.42137373339E+03  0.51380546526E+03  0.00000000000E+00 0. -1.
         21    1    1    2  504  503 -0.49684091967E+02  0.57279782369E+02 -0.20842229442E+02  0.78637656317E+02  0.00000000000E+00 0.  1.
<mgrwt>
<rscale>  4 0.31823568E+03</rscale>
<asrwt>0</asrwt>
<pdfrwt beam="1">  1       21 0.94074983E-01 0.31823568E+03</pdfrwt>
<pdfrwt beam="2">  1       21 0.48952574E-01 0.31823568E+03</pdfrwt>
<totfact> 0.34768621E+03</totfact>
</mgrwt>
</event>
<event>
 5    0  0.2263898E+001  0.2617291E+03  0.7546771E-02  0.1106109E+00
         21   -1    0    0  503  501  0.00000000000E+00  0.00000000000E+00  0.23663872273E+03  0.23663872273E+03  0.00000000000E+00 0. -1.
         21   -1    0    0  504  502 -0.00000000000E+00 -0.00000000000E+00 -0.41844943765E+03  0.41844943765E+03  0.00000000000E+00 0. -1.
         25    1    1    2    0    0 -0.17421994345E+03  0.13784028451E+03  0.77266519196E+02  0.26635999647E+03  0.12500000000E+03 0.  0.
         21    1    1    2  503  502  0.18963904252E+03 -0.16932751390E+03 -0.23490350453E+03  0.34614221044E+03  0.00000000000E+00 0. -1.
         21    1    1    2  504  501 -0.15419099066E+02  0.31487229394E+02 -0.24173729579E+02  0.42585953467E+02  0.00000000000E+00 0.  1.
<mgrwt>
<rscale>  4 0.26172906E+03</rscale>
<asrwt>0</asrwt>
<pdfrwt beam="1">  1       21 0.36405958E-01 0.26172906E+03</pdfrwt>
<pdfrwt beam="2">  1       21 0.64376836E-01 0.26172906E+03</pdfrwt>
<totfact> 0.15579497E+04</totfact>
</mgrwt>
</event>
<event>
 5    0  0.1911311E+001  0.3061977E+03  0.7546771E-02  0.1082183E+00
         21   -1    0    0  503  501  0.00000000000E+00  0.00000000000E+00  0.24800865169E+03  0.24800865169E+03  0.00000000000E+00 0.  1.
         21   -1    0    0  504  502 -0.00000000000E+00 -0.00000000000E+00 -0.42295581363E+03  0.42295581363E+03  0.00000000000E+00 0.  1.
         25    1    1    2    0    0 -0.14608075287E+01  0.27694651000E+03 -0.12495262282E+03  0.32854171928E+03  0.12500000000E+03 0.  0.
         21    1    1    2  503  502  0.49323109375E+02 -0.28018037798E+03 -0.65642641150E+02  0.29196364442E+03  0.00000000000E+00 0.  1.
         21    1    1    2  504  501 -0.47862301847E+02  0.32338679820E+01  0.15648102032E+02  0.50459101631E+02  0.00000000000E+00 0.  1.
<mgrwt>
<rscale>  4 0.30619774E+03</rscale>
<asrwt>0</asrwt>
<pdfrwt beam="1">  1       21 0.38155178E-01 0.30619774E+03</pdfrwt>
<pdfrwt beam="2">  1       21 0.65070125E-01 0.30619774E+03</pdfrwt>
<totfact> 0.13567728E+04</totfact>
</mgrwt>
</event>
