<LesHouchesEvents version="3.0">
  <!--
  <scalesfunctionalform>
    muR  H_T/2 := sum_i mT(i)/2, i=final state
    muF1 H_T/2 := sum_i mT(i)/2, i=final state
    muF2 H_T/2 := sum_i mT(i)/2, i=final state
    QES  H_T/2 := sum_i mT(i)/2, i=final state
  </scalesfunctionalform>
HERWIG6   
  -->
  <header>
      304
  </header>
  <init>
   2212   2212 0.65000000D+04 0.65000000D+04 -1 -1   244800   244800 -4   1
 0.30946674D-03 0.11042226D-04 0.18881543D-05     66
  </init>
  <event>
  6     66 0.18881543E-05 0.39369637E+02 0.75467711E-02 0.93514870E-01
        2 -1    0    0  502    0 0.00000000E+00 0.00000000E+00 0.21421582E+04 0.21421582E+04 0.32000000E+00 0.0000E+00 0.9000E+01
       21 -1    0    0  503  501 0.00000000E+00 0.00000000E+00 -.14041735E+04 0.14041737E+04 0.75000000E+00 0.0000E+00 0.9000E+01
       25  1    1    2    0    0 0.38798266E+03 -.28776000E+03 0.57667039E+03 0.76256810E+03 0.12500000E+03 0.0000E+00 0.9000E+01
        1  1    1    2  502    0 0.19323929E+02 -.76061523E+01 0.14061598E+04 0.14063131E+04 0.32000000E+00 0.0000E+00 0.9000E+01
        2  1    1    2  503    0 0.10381625E+01 -.49741356E+02 -.62828201E+02 0.80142159E+02 0.32000000E+00 0.0000E+00 0.9000E+01
       -1  1    1    2    0  501 -.40834476E+03 0.34510751E+03 -.11820172E+04 0.12973086E+04 0.32000000E+00 0.0000E+00 0.9000E+01
#aMCatNLO 2  0  0  2  1 0.49752189D+02 0.00000000D+00  -5  6  0 0.00000000D+00 0.00000000D+00 0.00000000D+00 0.00000000D+00 0.00000000D+00
  <mgrwgt>
 0.8611098721D-02    1    2    0
 0.168602306419842D+04 0.000000000000000D+00 0.000000000000000D+00 0.168602306419842D+04
 0.168602306419842D+04 0.000000000000000D+00 0.000000000000000D+00 -.168602306419842D+04
 0.651365822119786D+03 0.388220120931964D+03 -.297364048436946D+03 0.411718586690650D+03
 0.111165013996526D+04 0.196643678144240D+02 -.240008587845732D+02 0.111121703780172D+04
 0.000000000000000D+00 0.000000000000000D+00 -.000000000000000D+00 -.000000000000000D+00
 0.160903016631180D+04 -.407884488746388D+03 0.321364907221519D+03 -.152293562449237D+04
 0.169304832456493D+04 0.000000000000000D+00 0.000000000000000D+00 0.169304832456493D+04
 0.177665412570432D+04 0.000000000000000D+00 0.000000000000000D+00 -.177665412570432D+04
 0.646930749550599D+03 0.388020276476890D+03 -.287788924613773D+03 0.411718586690650D+03
 0.111141103767017D+04 0.193221760076109D+02 -.760546307389801D+01 0.111121703780172D+04
 0.972893124164118D+02 0.103816247861889D+01 -.497413564849846D+02 -.836058011393938D+02
 0.161407135063207D+04 -.408380614963120D+03 0.345135744172655D+03 -.152293562449237D+04
0.132624471850D-01 0.000000000000D+00 0.000000000000D+00 0.179567157880D-02 0.500633166720D-07  6 2 21 25 1 2 -1 2 0.32956277D+00 0.21602668D+00 0.30482187D+06 0.30482187D+06 0.30482187D+06 0.10840399D+01  1  2  1  6  5  2       -2 0.861109872064D-02 0.100000000000D+01
  </mgrwgt>
  </event>
  <event>
  5     66 0.18881543E-05 0.67356556E+02 0.75467711E-02 0.95063932E-01
        2 -1    0    0  502    0 0.00000000E+00 0.00000000E+00 0.62021429E+03 0.62021438E+03 0.32000000E+00 0.0000E+00 0.9000E+01
       -2 -1    0    0    0  501 0.00000000E+00 0.00000000E+00 -.26635996E+04 0.26635996E+04 0.32000000E+00 0.0000E+00 0.9000E+01
       25  1    1    2    0    0 -.16581252E+03 -.42543550E+03 -.40234914E+03 0.62128817E+03 0.12500000E+03 0.0000E+00 0.9000E+01
        1  1    1    2  502    0 0.20311402E+03 0.36935814E+03 0.42313052E+03 0.59726065E+03 0.32000000E+00 0.0000E+00 0.9000E+01
       -1  1    1    2    0  501 -.37301504E+02 0.56077360E+02 -.20641667E+04 0.20652652E+04 0.32000000E+00 0.0000E+00 0.9000E+01
#aMCatNLO 1  0  0  2  1 0.49752189D+02 0.00000000D+00  -5  6  0 0.00000000D+00 0.00000000D+00 0.00000000D+00 0.00000000D+00 0.00000000D+00
  <mgrwgt>
 0.1881172628D-01    7    4    0
 0.128530256956439D+04 0.000000000000000D+00 0.000000000000000D+00 0.128530256956439D+04
 0.128530256956439D+04 0.000000000000000D+00 0.000000000000000D+00 -.128530256956439D+04
 0.473822833603253D+03 -.165803341829637D+03 -.425429947346879D+03 -.200421900592726D+02
 0.109928529597389D+04 0.203108056713415D+03 0.369347294605431D+03 0.101526245631864D+04
 0.997497009551629D+03 -.373047148837780D+02 0.560826527414482D+02 -.995220266259367D+03
 0.000000000000000D+00 -.000000000000000D+00 -.000000000000000D+00 -.000000000000000D+00
 0.130664407124256D+04 0.000000000000000D+00 0.000000000000000D+00 0.130664407124256D+04
 0.139109318035863D+04 0.000000000000000D+00 0.000000000000000D+00 -.139109318035863D+04
 0.460431246752386D+03 -.151987381884826D+03 -.415776477631167D+03 -.200421900592726D+02
 0.111364551941779D+04 0.235833376462034D+03 0.392213087817935D+03 0.101526245631864D+04
 0.998202168652720D+03 -.779186555539351D+01 0.767038327646962D+02 -.995220266259367D+03
 0.125458316778290D+03 -.760541290218151D+02 -.531404429514643D+02 -.844491091160653D+02
 0.128530256956439D+04 0.000000000000000D+00 0.000000000000000D+00 0.128530256956439D+04
 0.128530256956439D+04 0.000000000000000D+00 0.000000000000000D+00 -.128530256956439D+04
 0.473822833603253D+03 -.165803341829637D+03 -.425429947346879D+03 -.200421900592726D+02
 0.109928529597389D+04 0.203108056713415D+03 0.369347294605431D+03 0.101526245631864D+04
 0.000000000000000D+00 -.000000000000000D+00 -.000000000000000D+00 -.000000000000000D+00
 0.997497009551629D+03 -.373047148837780D+02 0.560826527414482D+02 -.995220266259367D+03
 0.130664407124256D+04 0.000000000000000D+00 0.000000000000000D+00 0.130664407124256D+04
 0.139109318035863D+04 0.000000000000000D+00 0.000000000000000D+00 -.139109318035863D+04
 0.460431246752386D+03 -.151987381884826D+03 -.415776477631167D+03 -.200421900592726D+02
 0.111364551941779D+04 0.235833376462034D+03 0.392213087817935D+03 0.101526245631864D+04
 0.125458316778290D+03 -.760541290218151D+02 -.531404429514643D+02 -.844491091160653D+02
 0.998202168652720D+03 -.779186555539351D+01 0.767038327646962D+02 -.995220266259367D+03
0.107075756312D+00 0.000000000000D+00 0.000000000000D+00 0.465594059868D-03 0.000000000000D+00  6 2 -2 25 1 -1 21 0 0.95417591D-01 0.40978456D+00 0.23148842D+06 0.23148842D+06 0.23148842D+06 0.10929815D+01  1  2  2  2  6  2       -2 0.322427362954D-02 0.100000000000D+01
0.380098754615D-01 0.000000000000D+00 -.411199097933D-03 0.465594059868D-03 0.000000000000D+00  6 2 -2 25 1 -1 21 2 0.95417591D-01 0.40978456D+00 0.23148842D+06 0.23148842D+06 0.23148842D+06 0.10929815D+01  1  2  3  2  6  2       -2 0.136729689148D-02 0.100000000000D+01
-.720078638711D-01 0.000000000000D+00 0.000000000000D+00 0.465594059868D-03 0.000000000000D+00  6 2 -2 25 1 -1 21 2 0.95417591D-01 0.40978456D+00 0.23148842D+06 0.23148842D+06 0.23148842D+06 0.10929815D+01  1  2 15  2  6  2       -2 -.259027758544D-02 0.100000000000D+01
-.335072748551D-02 0.000000000000D+00 0.000000000000D+00 0.465594059868D-03 0.000000000000D+00  6 2 -2 25 1 -1 21 2 0.95417591D-01 0.40978456D+00 0.23148842D+06 0.23148842D+06 0.23148842D+06 0.10929815D+01  1  2  4  2  6  2       -2 -.120532867301D-03 0.100000000000D+01
-.106210646750D+01 0.000000000000D+00 -.204428019107D+00 0.465594059868D-03 0.000000000000D+00  6 2 -2 25 1 -1 21 2 0.95417591D-01 0.44569004D+00 0.23148842D+06 0.23148842D+06 0.23148842D+06 0.10929815D+01  1  2  5  2  6  2       -2 -.196124408654D-01 0.100000000000D+01
0.107619744764D+01 0.000000000000D+00 0.203709044762D+00 0.465594059868D-03 0.000000000000D+00  6 2 -2 25 1 -1 21 2 0.95417591D-01 0.40978456D+00 0.23148842D+06 0.23148842D+06 0.23148842D+06 0.10929815D+01  1  2  6  2  6  2       -2 0.387131345977D-01 0.100000000000D+01
-.143261528537D-01 0.000000000000D+00 -.285091059432D-02 0.465594059868D-03 0.000000000000D+00  6 2 21 25 1 2 -1 2 0.95417591D-01 0.44569004D+00 0.23148842D+06 0.23148842D+06 0.23148842D+06 0.10929815D+01  3  4  5  6  5  2       -2 -.216972751663D-02 0.100000000000D+01
  </mgrwgt>
  </event>
  <event>
  6     66 0.18881543E-05 0.10581949E+03 0.75467711E-02 0.94164336E-01
        2 -1    0    0  502    0 0.00000000E+00 0.00000000E+00 0.21485728E+04 0.21485728E+04 0.32000000E+00 0.0000E+00 0.9000E+01
       -2 -1    0    0    0  501 0.00000000E+00 0.00000000E+00 -.44185964E+03 0.44185976E+03 0.32000000E+00 0.0000E+00 0.9000E+01
       25  1    1    2    0    0 -.33521687E+03 0.36561724E+03 0.44614783E+03 0.67876300E+03 0.12500000E+03 0.0000E+00 0.9000E+01
        1  1    1    2  503    0 0.34885484E+02 -.14858175E+03 0.55198420E+03 0.57269555E+03 0.32000000E+00 0.0000E+00 0.9000E+01
       -1  1    1    2    0  501 0.95284712E+01 -.31266455E+02 -.28515836E+03 0.28702574E+03 0.32000000E+00 0.0000E+00 0.9000E+01
       21  1    1    2  502  503 0.29080292E+03 -.18576903E+03 0.99373948E+03 0.10519483E+04 0.75000000E+00 0.0000E+00 0.9000E+01
#aMCatNLO 2  0  0  4  1 0.26726429D+02 0.00000000D+00  -5  6  0 0.00000000D+00 0.00000000D+00 0.00000000D+00 0.00000000D+00 0.00000000D+00
  <mgrwgt>
 0.3005934810D-02    1    2    0
 0.974355062337782D+03 0.000000000000000D+00 0.000000000000000D+00 0.974355062337782D+03
 0.974355062337782D+03 -.000000000000000D+00 -.000000000000000D+00 -.974355062337782D+03
 0.514577491449894D+03 -.337378951898356D+03 0.367847871637878D+03 -.532736842312292D+01
 0.797406192033296D+03 0.330601647637929D+03 -.339394707309081D+03 0.641381647946612D+03
 0.636726441192373D+03 0.677730426042713D+01 -.284531643287971D+02 -.636054279523489D+03
 0.000000000000000D+00 0.000000000000000D+00 0.000000000000000D+00 0.000000000000000D+00
 0.974355062337782D+03 0.000000000000000D+00 0.000000000000000D+00 0.974355062337782D+03
 0.974355062337782D+03 -.000000000000000D+00 -.000000000000000D+00 -.974355062337782D+03
 0.511456308072781D+03 -.335151529295335D+03 0.365561205954851D+03 -.100607120634764D+01
 0.277375401222386D+03 0.347638691145690D+02 -.148345167475112D+03 0.231780710789845D+03
 0.631559786054208D+03 0.953063403473225D+01 -.312797248119411D+02 -.630712699405539D+03
 0.528318629326190D+03 0.290857026146034D+03 -.185936313667798D+03 0.399938059822042D+03
0.174129044380D-02 0.000000000000D+00 0.000000000000D+00 0.149717234083D-03 0.171760649718D-07  6 2 -2 25 1 -1 21 2 0.33054967D+00 0.67978417D-01 0.27129989D+06 0.27129989D+06 0.27129989D+06 0.10877977D+01  1  2  1  3  6  4        1 0.300593481046D-02 0.100000000000D+01
  </mgrwgt>
  </event>
  <event>
  6     66 0.18881543E-05 0.12393820E+03 0.75467711E-02 0.92291069E-01
        2 -1    0    0  502    0 0.00000000E+00 0.00000000E+00 0.21593927E+04 0.21593927E+04 0.32000000E+00 0.0000E+00 0.9000E+01
       -2 -1    0    0    0  501 0.00000000E+00 0.00000000E+00 -.66750034E+03 0.66750042E+03 0.32000000E+00 0.0000E+00 0.9000E+01
       25  1    1    2    0    0 0.55671167E+03 0.26849089E+02 0.12901351E+04 0.14109296E+04 0.12500000E+03 0.0000E+00 0.9000E+01
        1  1    1    2  502    0 0.28788458E+02 0.56020103E+01 0.64056230E+03 0.64123344E+03 0.32000000E+00 0.0000E+00 0.9000E+01
       -1  1    1    2    0  503 -.49071546E+03 0.69069686E+02 -.30512505E+03 0.58195677E+03 0.32000000E+00 0.0000E+00 0.9000E+01
       21  1    1    2  503  501 -.94784669E+02 -.10152079E+03 -.13368008E+03 0.19277326E+03 0.75000000E+00 0.0000E+00 0.9000E+01
#aMCatNLO 2  0  0  5  5 0.11027134D+03 0.00000000D+00  -5  6  0 0.00000000D+00 0.00000000D+00 0.00000000D+00 0.00000000D+00 0.00000000D+00
  <mgrwgt>
 0.2796955681D-02    1    2    0
 0.120058131012630D+04 0.000000000000000D+00 0.000000000000000D+00 0.120058131012630D+04
 0.120058131012630D+04 -.000000000000000D+00 -.000000000000000D+00 -.120058131012630D+04
 0.869288926867710D+03 0.561788201013589D+03 0.271324811740229D+02 0.650919414399411D+03
 0.360413610278152D+03 0.308409976713639D+02 0.571347501837843D+01 0.359046180232545D+03
 0.117146008310674D+04 -.592629198684953D+03 -.328459561924014D+02 -.100996559463196D+04
 0.000000000000000D+00 0.000000000000000D+00 0.000000000000000D+00 -.000000000000000D+00
 0.120058131012630D+04 0.000000000000000D+00 0.000000000000000D+00 0.120058131012630D+04
 0.120058131012630D+04 -.000000000000000D+00 -.000000000000000D+00 -.120058131012630D+04
 0.859689813095023D+03 0.556797763685803D+03 0.268558905399247D+02 0.642414652881729D+03
 0.356724830182101D+03 0.287710853238355D+02 0.559875193277971D+01 0.355518611460121D+03
 0.874591885743723D+03 -.490710960460118D+03 0.691015017685009D+02 -.720651581796924D+03
 0.310156091231752D+03 -.948578885495205D+02 -.101556144241205D+03 -.277281682544926D+03
0.440504205477D-02 0.000000000000D+00 0.000000000000D+00 0.768919343599D-04 0.301530778394D-07  6 2 -2 25 1 -1 21 2 0.33221426D+00 0.10269237D+00 0.38137893D+06 0.38137893D+06 0.38137893D+06 0.10769233D+01  1  2  1  4  6  5       -1 0.279695568109D-02 0.100000000000D+01
  </mgrwgt>
  </event>
  <event>
  6     66 -.18881543E-05 0.15736279E+03 0.75467711E-02 0.93067064E-01
        2 -1    0    0  502    0 0.00000000E+00 0.00000000E+00 0.23089700E+04 0.23089701E+04 0.32000000E+00 0.0000E+00 0.9000E+01
       -2 -1    0    0    0  501 0.00000000E+00 0.00000000E+00 -.56455542E+03 0.56455551E+03 0.32000000E+00 0.0000E+00 0.9000E+01
       25  1    1    2    0    0 0.46168927E+03 0.28521383E+03 0.81443863E+03 0.98663022E+03 0.12500000E+03 0.0000E+00 0.9000E+01
        1  1    1    2  502    0 -.29655263E+03 -.30623701E+03 0.13599760E+04 0.14252226E+04 0.32000000E+00 0.0000E+00 0.9000E+01
       -1  1    1    2    0  503 -.63187886E+02 0.13818797E+02 -.19377333E+03 0.20428380E+03 0.32000000E+00 0.0000E+00 0.9000E+01
       21  1    1    2  503  501 -.10194875E+03 0.72043762E+01 -.23622671E+03 0.25738895E+03 0.75000000E+00 0.0000E+00 0.9000E+01
#aMCatNLO 2  0  0  5  2 0.11410366D+02 0.00000000D+00  -5  6  0 0.00000000D+00 0.00000000D+00 0.00000000D+00 0.00000000D+00 0.00000000D+00
  <mgrwgt>
 -.8367614641D-03    3    2    0
 0.114172751217258D+04 0.000000000000000D+00 0.000000000000000D+00 0.114172751217258D+04
 0.114172751217258D+04 -.000000000000000D+00 -.000000000000000D+00 -.114172751217258D+04
 0.619473948146490D+03 0.461692704767854D+03 0.285183300986437D+03 0.271354571796426D+03
 0.754583951022383D+03 -.296508140494697D+03 -.306211299636778D+03 0.622667248003043D+03
 0.909397125176293D+03 -.165184564273157D+03 0.210279986503407D+02 -.894021819799469D+03
 0.000000000000000D+00 -.000000000000000D+00 0.000000000000000D+00 0.000000000000000D+00
 0.114172751217258D+04 0.000000000000000D+00 0.000000000000000D+00 0.114172751217258D+04
 0.114172751217258D+04 -.000000000000000D+00 -.000000000000000D+00 -.114172751217258D+04
 0.619430292335544D+03 0.461678425284782D+03 0.285185118764945D+03 0.271277287520511D+03
 0.754512208165503D+03 -.296525534182083D+03 -.306209085419993D+03 0.622573108843503D+03
 0.405330232130247D+03 -.632454682426559D+02 0.138184931094592D+02 -.400127051164640D+03
 0.504182291713872D+03 -.101907422860043D+03 0.720547354558845D+01 -.493723345199374D+03
-.146597114172D-08 0.000000000000D+00 0.000000000000D+00 0.993767391074D-05 0.000000000000D+00  6 2 -2 25 1 -1 21 2 0.35522617D+00 0.86854689D-01 0.33063681D+06 0.33063681D+06 0.33063681D+06 0.10814413D+01  1  2 13  4  6  5       -1 -.116336142819D-08 0.100000000000D+01
-.555647176216D-02 0.000000000000D+00 0.000000000000D+00 0.993767391074D-05 0.000000000000D+00  6 2 -2 25 1 -1 21 2 0.35522617D+00 0.86854689D-01 0.33063681D+06 0.33063681D+06 0.33063681D+06 0.10814413D+01  1  2 13  4  6  5       -1 -.440948988760D-02 0.100000000000D+01
0.450205614919D-02 0.000000000000D+00 0.000000000000D+00 0.993767391074D-05 0.102030118987D-06  6 2 -2 25 1 -1 21 2 0.35522617D+00 0.86854689D-01 0.33063681D+06 0.33063681D+06 0.33063681D+06 0.10814413D+01  1  2  1  4  6  5       -1 0.357272958686D-02 0.100000000000D+01
  </mgrwgt>
  </event>
  <event>
  5     66 0.18881543E-05 0.34936639E+02 0.75467711E-02 0.90784675E-01
        2 -1    0    0  502    0 0.00000000E+00 0.00000000E+00 0.10145565E+04 0.10145565E+04 0.32000000E+00 0.0000E+00 0.9000E+01
       -2 -1    0    0    0  501 -.00000000E+00 -.00000000E+00 -.10875597E+04 0.10875598E+04 0.32000000E+00 0.0000E+00 0.9000E+01
       25  1    1    2    0    0 0.51329044E+03 0.39327742E+03 -.11065415E+03 0.66783497E+03 0.12500000E+03 0.0000E+00 0.9000E+01
        1  1    1    2  502    0 -.68250399E+01 -.34270362E+02 0.59738200E+03 0.59840321E+03 0.32000000E+00 0.0000E+00 0.9000E+01
       -1  1    1    2    0  501 -.50646540E+03 -.35900706E+03 -.55973111E+03 0.83587815E+03 0.32000000E+00 0.0000E+00 0.9000E+01
#aMCatNLO 1  0  0  5  1 0.21305293D+03 0.00000000D+00  -5  6  0 0.00000000D+00 0.00000000D+00 0.00000000D+00 0.00000000D+00 0.00000000D+00
  <mgrwgt>
 0.4193294538D-02    4    2    0
 0.105042414940134D+04 0.000000000000000D+00 0.000000000000000D+00 0.105042414940134D+04
 0.105042414940134D+04 -.000000000000000D+00 -.000000000000000D+00 -.105042414940134D+04
 0.664464383835844D+03 0.513361253930002D+03 0.393325184103695D+03 -.874267687814157D+02
 0.619403699055151D+03 -.682372581003453D+01 -.342637635488337D+02 0.618417636938617D+03
 0.816980215911683D+03 -.506537528119967D+03 -.359061420554861D+03 -.530990868157201D+03
 0.000000000000000D+00 0.000000000000000D+00 0.000000000000000D+00 0.000000000000000D+00
 0.105042414940134D+04 0.000000000000000D+00 0.000000000000000D+00 0.105042414940134D+04
 0.105042414940134D+04 -.000000000000000D+00 -.000000000000000D+00 -.105042414940134D+04
 0.595217926668558D+03 0.441518553311946D+03 0.342399160446259D+03 -.162737709934239D+03
 0.558978218375474D+03 -.740296701991399D+02 -.819030015568180D+02 0.547967293626554D+03
 0.687059786893248D+03 -.494249835824994D+03 -.522379410223042D+02 -.474383229120205D+03
 0.259592366865397D+03 0.126760952712187D+03 -.208258217867137D+03 0.891536454278900D+02
0.645515106164D-02 0.000000000000D+00 0.000000000000D+00 0.343833381635D-04 0.000000000000D+00  6 2 -2 25 1 -1 21 0 0.15608562D+00 0.16731689D+00 0.43198750D+06 0.43198750D+06 0.43198750D+06 0.10730273D+01  1  2  2  4  6  5       -1 0.423577667145D-02 0.100000000000D+01
0.392900141141D-02 0.000000000000D+00 -.247894797570D-04 0.343833381635D-04 0.000000000000D+00  6 2 -2 25 1 -1 21 2 0.15608562D+00 0.16731689D+00 0.43198750D+06 0.43198750D+06 0.43198750D+06 0.10730273D+01  1  2  3  4  6  5       -1 0.296845430745D-02 0.100000000000D+01
-.393027343469D-02 0.000000000000D+00 0.000000000000D+00 0.343833381635D-04 0.000000000000D+00  6 2 -2 25 1 -1 21 2 0.15608562D+00 0.16731689D+00 0.43198750D+06 0.43198750D+06 0.43198750D+06 0.10730273D+01  1  2 15  4  6  5       -1 -.296941535139D-02 0.100000000000D+01
-.549566883049D-04 0.000000000000D+00 0.000000000000D+00 0.343833381635D-04 0.000000000000D+00  6 2 -2 25 1 -1 21 2 0.15608562D+00 0.16731689D+00 0.43198750D+06 0.43198750D+06 0.43198750D+06 0.10730273D+01  1  2  4  4  6  5       -1 -.415210892132D-04 0.100000000000D+01
  </mgrwgt>
  </event>
  <event>
  5     66 0.18881543E-05 0.16153219E+02 0.75467711E-02 0.91628878E-01
        2 -1    0    0  502    0 0.00000000E+00 0.00000000E+00 0.23598042E+04 0.23598042E+04 0.32000000E+00 0.0000E+00 0.9000E+01
       -2 -1    0    0    0  501 0.00000000E+00 0.00000000E+00 -.30500304E+03 0.30500320E+03 0.32000000E+00 0.0000E+00 0.9000E+01
       25  1    1    2    0    0 0.12169059E+03 -.61075909E+03 0.91319399E+03 0.11123774E+04 0.12500000E+03 0.0000E+00 0.9000E+01
        1  1    1    2  502    0 -.13385426E+03 0.62138496E+03 0.12715032E+04 0.14215332E+04 0.32000000E+00 0.0000E+00 0.9000E+01
       -1  1    1    2    0  501 0.12163661E+02 -.10625867E+02 -.12989607E+03 0.13089673E+03 0.32000000E+00 0.0000E+00 0.9000E+01
#aMCatNLO 1  0  0  1  1 0.24311642D+02 0.00000000D+00  -5  6  0 0.00000000D+00 0.00000000D+00 0.00000000D+00 0.00000000D+00 0.00000000D+00
  <mgrwgt>
 0.2901855899D-01    7    2    0
 0.848379448811269D+03 0.000000000000000D+00 0.000000000000000D+00 0.848379448811269D+03
 0.848379448811269D+03 0.000000000000000D+00 0.000000000000000D+00 -.848379448811269D+03
 0.641103331989878D+03 0.121681743023822D+03 -.610723934634372D+03 0.871682933635767D+02
 0.692709895575362D+03 -.133846939549679D+03 0.621350998783094D+03 0.275417741825876D+03
 0.362945670057298D+03 0.121651965258566D+02 -.106270641487221D+02 -.362586035189453D+03
 0.000000000000000D+00 0.000000000000000D+00 0.000000000000000D+00 0.000000000000000D+00
 0.864723386432929D+03 0.000000000000000D+00 0.000000000000000D+00 0.864723386432929D+03
 0.857555864000255D+03 0.000000000000000D+00 0.000000000000000D+00 -.857555864000255D+03
 0.649685421832677D+03 0.120700769248665D+03 -.619918672308526D+03 0.871682933635767D+02
 0.684131797675584D+03 -.134893311846945D+03 0.611543276062557D+03 0.275417741825876D+03
 0.363115841226793D+03 0.116134042208711D+02 -.157990530677350D+02 -.362586035189453D+03
 0.253461896981297D+02 0.257913837740986D+01 0.241744493137042D+02 0.716752243267470D+01
0.220590807682D-02 0.000000000000D+00 0.000000000000D+00 0.992054537647D-05 0.000000000000D+00  6 2 -2 25 1 -1 21 0 0.36304681D+00 0.46923559D-01 0.41403218D+06 0.41403218D+06 0.41403218D+06 0.10743498D+01  1  2  2  1  6  1        2 0.509624963601D-02 0.100000000000D+01
0.180260884653D-02 0.000000000000D+00 -.847126784393D-05 0.992054537647D-05 0.000000000000D+00  6 2 -2 25 1 -1 21 2 0.36304681D+00 0.46923559D-01 0.41403218D+06 0.41403218D+06 0.41403218D+06 0.10743498D+01  1  2  3  1  6  1        2 0.480680171988D-02 0.100000000000D+01
-.162718315371D-02 0.000000000000D+00 0.000000000000D+00 0.992054537647D-05 0.000000000000D+00  6 2 -2 25 1 -1 21 2 0.36304681D+00 0.46923559D-01 0.41403218D+06 0.41403218D+06 0.41403218D+06 0.10743498D+01  1  2 15  1  6  1        2 -.433901497647D-02 0.100000000000D+01
-.541333556621D-03 0.000000000000D+00 0.000000000000D+00 0.992054537647D-05 0.000000000000D+00  6 2 -2 25 1 -1 21 2 0.36304681D+00 0.46923559D-01 0.41403218D+06 0.41403218D+06 0.41403218D+06 0.10743498D+01  1  2  4  1  6  1        2 -.144350954230D-02 0.100000000000D+01
-.126766210801D+00 0.000000000000D+00 -.165846249302D-01 0.992054537647D-05 0.000000000000D+00  6 2 -2 25 1 -1 21 2 0.37167227D+00 0.46923559D-01 0.41403218D+06 0.41403218D+06 0.41403218D+06 0.10743498D+01  1  2  5  1  6  1        2 -.313925038687D+00 0.100000000000D+01
0.127125153597D+00 0.000000000000D+00 0.165800540768D-01 0.992054537647D-05 0.000000000000D+00  6 2 -2 25 1 -1 21 2 0.36304681D+00 0.46923559D-01 0.41403218D+06 0.41403218D+06 0.41403218D+06 0.10743498D+01  1  2  6  1  6  1        2 0.338989464147D+00 0.100000000000D+01
-.535628357686D-03 0.000000000000D+00 -.705109670063D-04 0.992054537647D-05 0.000000000000D+00  6 21 -2 25 1 -1 -2 2 0.37167227D+00 0.46923559D-01 0.41403218D+06 0.41403218D+06 0.41403218D+06 0.10743498D+01  1  2  5  5  6  1        2 -.166393305795D-03 0.100000000000D+01
  </mgrwgt>
  </event>
  <event>
  5     66 0.18881543E-05 0.14667217E+03 0.75467711E-02 0.91599067E-01
        2 -1    0    0  502    0 0.00000000E+00 0.00000000E+00 0.23781118E+04 0.23781118E+04 0.32000000E+00 0.0000E+00 0.9000E+01
       -2 -1    0    0    0  501 0.00000000E+00 0.00000000E+00 -.89603474E+03 0.89603479E+03 0.32000000E+00 0.0000E+00 0.9000E+01
       25  1    1    2    0    0 -.38745083E+03 0.34066788E+03 -.12518836E+03 0.54540799E+03 0.12500000E+03 0.0000E+00 0.9000E+01
        1  1    1    2  502    0 0.13096196E+03 0.66050466E+02 0.20618340E+04 0.20670446E+04 0.32000000E+00 0.0000E+00 0.9000E+01
       -1  1    1    2    0  501 0.25648887E+03 -.40671834E+03 -.45456857E+03 0.66169406E+03 0.32000000E+00 0.0000E+00 0.9000E+01
#aMCatNLO 1  0  0  1  5 0.20586328D+03 0.00000000D+00  -5  6  0 0.00000000D+00 0.00000000D+00 0.00000000D+00 0.00000000D+00 0.00000000D+00
  <mgrwgt>
 0.2404093075D-02    7    2    0
 0.145975028586571D+04 0.000000000000000D+00 0.000000000000000D+00 0.145975028586571D+04
 0.145975028586571D+04 0.000000000000000D+00 0.000000000000000D+00 -.145975028586571D+04
 0.675224915268607D+03 -.387472363885661D+03 0.340699241545630D+03 -.417244389098988D+03
 0.127142497319131D+04 0.130958997166798D+03 0.660489711595595D+02 0.126293655300825D+04
 0.972850683271505D+03 0.256513366718863D+03 -.406748212705189D+03 -.845692163909257D+03
 0.000000000000000D+00 0.000000000000000D+00 0.000000000000000D+00 0.000000000000000D+00
 0.190099459773966D+04 0.000000000000000D+00 0.000000000000000D+00 0.190099459773966D+04
 0.148758514102460D+04 0.000000000000000D+00 0.000000000000000D+00 -.148758514102460D+04
 0.676026185094373D+03 -.418022844465006D+03 0.304221012101481D+03 -.417244389098988D+03
 0.126508229230090D+04 0.736110209594367D+02 -.242630630183905D+01 0.126293655300825D+04
 0.985641132256184D+03 0.212233760834352D+03 -.459619447216758D+03 -.845692163909257D+03
 0.461830129112795D+03 0.132178062671217D+03 0.157824741417116D+03 0.413409456715066D+03
0.261960253933D-02 0.000000000000D+00 0.000000000000D+00 0.354187839274D-04 0.000000000000D+00  6 2 -2 25 1 -1 21 0 0.36586336D+00 0.13785150D+00 0.33549107D+06 0.33549107D+06 0.33549107D+06 0.10809774D+01  1  2  2  1  6  1        2 0.513397553720D-03 0.100000000000D+01
0.515449208584D-03 0.000000000000D+00 -.100599635082D-04 0.354187839274D-04 0.000000000000D+00  6 2 -2 25 1 -1 21 2 0.36586336D+00 0.13785150D+00 0.33549107D+06 0.33549107D+06 0.33549107D+06 0.10809774D+01  1  2  3  1  6  1        2 0.118042252017D-03 0.100000000000D+01
-.170377995066D-02 0.000000000000D+00 0.000000000000D+00 0.354187839274D-04 0.000000000000D+00  6 2 -2 25 1 -1 21 2 0.36586336D+00 0.13785150D+00 0.33549107D+06 0.33549107D+06 0.33549107D+06 0.10809774D+01  1  2 15  1  6  1        2 -.390180097220D-03 0.100000000000D+01
-.355783969682D-03 0.000000000000D+00 0.000000000000D+00 0.354187839274D-04 0.000000000000D+00  6 2 -2 25 1 -1 21 2 0.36586336D+00 0.13785150D+00 0.33549107D+06 0.33549107D+06 0.33549107D+06 0.10809774D+01  1  2  4  1  6  1        2 -.814775545548D-04 0.100000000000D+01
-.152452205827D-01 0.000000000000D+00 -.200113319666D-02 0.354187839274D-04 0.000000000000D+00  6 2 -2 25 1 -1 21 2 0.47861657D+00 0.13785150D+00 0.33549107D+06 0.33549107D+06 0.33549107D+06 0.10809774D+01  1  2  5  1  6  1        2 -.125654274513D-02 0.100000000000D+01
0.152975827559D-01 0.000000000000D+00 0.193103429990D-02 0.354187839274D-04 0.000000000000D+00  6 2 -2 25 1 -1 21 2 0.36586336D+00 0.13785150D+00 0.33549107D+06 0.33549107D+06 0.33549107D+06 0.10809774D+01  1  2  6  1  6  1        2 0.350327653791D-02 0.100000000000D+01
-.506221573150D-03 0.000000000000D+00 -.713951594644D-04 0.354187839274D-04 0.000000000000D+00  6 21 -2 25 1 -1 -2 2 0.47861657D+00 0.13785150D+00 0.33549107D+06 0.33549107D+06 0.33549107D+06 0.10809774D+01  1  2  5  5  6  1        2 -.242287223362D-05 0.100000000000D+01
  </mgrwgt>
  </event>
  <event>
  6     66 -.18881543E-05 0.53621279E+02 0.75467711E-02 0.90241915E-01
        2 -1    0    0  502    0 0.00000000E+00 0.00000000E+00 0.23562069E+04 0.23562069E+04 0.32000000E+00 0.0000E+00 0.9000E+01
       -2 -1    0    0    0  501 0.00000000E+00 0.00000000E+00 -.72515082E+03 0.72515089E+03 0.32000000E+00 0.0000E+00 0.9000E+01
       25  1    1    2    0    0 -.36169268E+03 0.60878859E+03 0.10103051E+04 0.12400752E+04 0.12500000E+03 0.0000E+00 0.9000E+01
        1  1    1    2  502    0 0.41959420E+03 -.57338531E+03 0.11254591E+04 0.13309727E+04 0.32000000E+00 0.0000E+00 0.9000E+01
       -1  1    1    2    0  503 -.27927981E+02 -.28872381E+02 -.36875676E+03 0.37093832E+03 0.32000000E+00 0.0000E+00 0.9000E+01
       21  1    1    2  503  501 -.29973539E+02 -.65309051E+01 -.13595143E+03 0.13937152E+03 0.75000000E+00 0.0000E+00 0.9000E+01
#aMCatNLO 2  0  0  5  2 0.14612448D+02 0.00000000D+00  -5  6  0 0.00000000D+00 0.00000000D+00 0.00000000D+00 0.00000000D+00 0.00000000D+00
  <mgrwgt>
 -.1029831006D-02    3    2    0
 0.130713637092039D+04 0.000000000000000D+00 0.000000000000000D+00 0.130713637092039D+04
 0.130713637092039D+04 -.000000000000000D+00 -.000000000000000D+00 -.130713637092039D+04
 0.831401383275804D+03 -.361640866499910D+03 0.608750910262465D+03 0.417422415599276D+03
 0.866634418101150D+03 0.419571123292514D+03 -.573329357577745D+03 0.496295007909678D+03
 0.916236940463816D+03 -.579302567926033D+02 -.354215526847202D+02 -.913717423508954D+03
 0.000000000000000D+00 -.000000000000000D+00 0.000000000000000D+00 0.000000000000000D+00
 0.130713637092039D+04 0.000000000000000D+00 0.000000000000000D+00 0.130713637092039D+04
 0.130713637092039D+04 -.000000000000000D+00 -.000000000000000D+00 -.130713637092039D+04
 0.831307484216941D+03 -.361652706873049D+03 0.608743670446449D+03 0.417235660769645D+03
 0.866521969923192D+03 0.419558781253121D+03 -.573336904138434D+03 0.496100340441249D+03
 0.667250441868028D+03 -.279159700291380D+02 -.288738333364284D+02 -.666040653818422D+03
 0.249192845832609D+03 -.299901043509331D+02 -.653293297158686D+01 -.247295347392472D+03
-.948796063846D-09 0.000000000000D+00 0.000000000000D+00 0.132232632803D-04 0.000000000000D+00  6 2 -2 25 1 -1 21 2 0.36249337D+00 0.11156167D+00 0.56274547D+06 0.56274547D+06 0.56274547D+06 0.10649006D+01  1  2 13  4  6  5       -1 -.360759808853D-09 0.100000000000D+01
-.472260908551D-02 0.000000000000D+00 0.000000000000D+00 0.132232632803D-04 0.000000000000D+00  6 2 -2 25 1 -1 21 2 0.36249337D+00 0.11156167D+00 0.56274547D+06 0.56274547D+06 0.56274547D+06 0.10649006D+01  1  2 13  4  6  5       -1 -.179567308076D-02 0.100000000000D+01
0.201416086435D-02 0.000000000000D+00 0.000000000000D+00 0.132232632803D-04 0.672158043948D-07  6 2 -2 25 1 -1 21 2 0.36249337D+00 0.11156167D+00 0.56274547D+06 0.56274547D+06 0.56274547D+06 0.10649006D+01  1  2  1  4  6  5       -1 0.765842435599D-03 0.100000000000D+01
  </mgrwgt>
  </event>
  <event>
  6     66 0.18881543E-05 0.50015698E+02 0.75467711E-02 0.91512892E-01
        2 -1    0    0  502    0 0.00000000E+00 0.00000000E+00 0.30833704E+04 0.30833705E+04 0.32000000E+00 0.0000E+00 0.9000E+01
       -2 -1    0    0    0  501 0.00000000E+00 0.00000000E+00 -.95154731E+03 0.95154737E+03 0.32000000E+00 0.0000E+00 0.9000E+01
       25  1    1    2    0    0 -.48397942E+03 0.41878867E+03 0.27090871E+03 0.70614202E+03 0.12500000E+03 0.0000E+00 0.9000E+01
        1  1    1    2  503    0 -.13812202E+02 -.61125187E+02 0.19169052E+04 0.19179292E+04 0.32000000E+00 0.0000E+00 0.9000E+01
       -1  1    1    2    0  501 0.47988588E+03 -.33980674E+03 -.61522797E+03 0.85103738E+03 0.32000000E+00 0.0000E+00 0.9000E+01
       21  1    1    2  502  503 0.17905740E+02 -.17856745E+02 0.55923722E+03 0.55980917E+03 0.75000000E+00 0.0000E+00 0.9000E+01
#aMCatNLO 2  0  0  4  5 0.16987339D+02 0.00000000D+00  -5  6  0 0.00000000D+00 0.00000000D+00 0.00000000D+00 0.00000000D+00 0.00000000D+00
  <mgrwgt>
 0.4946975086D-02    2    2    0
 0.171288440856932D+04 0.000000000000000D+00 0.000000000000000D+00 0.171288440856932D+04
 0.171288440856932D+04 -.000000000000000D+00 -.000000000000000D+00 -.171288440856932D+04
 0.663278218752572D+03 -.484123879405234D+03 0.418892901859897D+03 -.120273860969896D+03
 0.137699453507675D+04 0.409401189601176D+01 -.789910746935863D+02 0.137472091670149D+04
 0.138549606330931D+04 0.480029867509222D+03 -.339901827166312D+03 -.125444705573160D+04
 0.000000000000000D+00 0.000000000000000D+00 0.000000000000000D+00 0.000000000000000D+00
 0.171288440856932D+04 0.000000000000000D+00 0.000000000000000D+00 0.171288440856932D+04
 0.171288440856932D+04 -.000000000000000D+00 -.000000000000000D+00 -.171288440856932D+04
 0.663252767907169D+03 -.484123534432924D+03 0.418886245862269D+03 -.120158023336391D+03
 0.106596003387379D+04 -.138183863657038D+02 -.611176159941946D+02 0.106411676193435D+04
 0.138528065916595D+04 0.480030588066265D+03 -.339915729806716D+03 -.125420510117363D+04
 0.311275356191732D+03 0.179113327323631D+02 -.178529000613600D+02 0.310246362575678D+03
-.289384500396D-09 0.000000000000D+00 0.000000000000D+00 0.254040165845D-03 0.000000000000D+00  6 2 -2 25 1 -1 21 2 0.47436469D+00 0.14639190D+00 0.44117567D+06 0.44117567D+06 0.44117567D+06 0.10723735D+01  1  2 13  3  6  4        1 -.202225667716D-10 0.100000000000D+01
0.707911085510D-01 0.000000000000D+00 0.000000000000D+00 0.254040165845D-03 0.157534653071D-05  6 2 -2 25 1 -1 21 2 0.47436469D+00 0.14639190D+00 0.44117567D+06 0.44117567D+06 0.44117567D+06 0.10723735D+01  1  2  1  3  6  4        1 0.494697510594D-02 0.100000000000D+01
  </mgrwgt>
  </event>
  <event>
  5     66 0.18881543E-05 0.50031604E+02 0.75467711E-02 0.88356157E-01
        2 -1    0    0  502    0 0.00000000E+00 0.00000000E+00 0.12506218E+04 0.12506219E+04 0.32000000E+00 0.0000E+00 0.9000E+01
       -2 -1    0    0    0  501 0.00000000E+00 0.00000000E+00 -.83831230E+03 0.83831236E+03 0.32000000E+00 0.0000E+00 0.9000E+01
       25  1    1    2    0    0 -.53777569E+03 -.55847389E+03 -.13298794E+03 0.79649643E+03 0.12500000E+03 0.0000E+00 0.9000E+01
        1  1    1    2  502    0 0.54570203E+03 0.50907717E+03 0.76404463E+03 0.10680424E+04 0.32000000E+00 0.0000E+00 0.9000E+01
       -1  1    1    2    0  501 -.79263340E+01 0.49396720E+02 -.21874717E+03 0.22439539E+03 0.32000000E+00 0.0000E+00 0.9000E+01
#aMCatNLO 1  0  0  1  4 0.25852932D+02 0.00000000D+00  -5  6  0 0.00000000D+00 0.00000000D+00 0.00000000D+00 0.00000000D+00 0.00000000D+00
  <mgrwgt>
 0.1733937220D-03    7    2    0
 0.102391980109666D+04 0.000000000000000D+00 0.000000000000000D+00 0.102391980109666D+04
 0.102391980109666D+04 0.000000000000000D+00 0.000000000000000D+00 -.102391980109666D+04
 0.839241524824006D+03 -.537770723296607D+03 -.558472270661530D+03 -.295994440920975D+03
 0.935634734188987D+03 0.545697051996271D+03 0.509072526538810D+03 0.564333452833400D+03
 0.272963343180328D+03 -.792632869966383D+01 0.493997441227197D+02 -.268339011912425D+03
 0.000000000000000D+00 -.000000000000000D+00 -.000000000000000D+00 0.000000000000000D+00
 0.174782383767655D+04 0.000000000000000D+00 0.000000000000000D+00 0.174782383767655D+04
 0.104207502162590D+04 0.000000000000000D+00 0.000000000000000D+00 -.104207502162590D+04
 0.774031378030439D+03 -.467252542212999D+03 -.526841462790343D+03 -.295994440920975D+03
 0.100776358806441D+04 0.630645429027686D+03 0.547175973785472D+03 0.564333452833400D+03
 0.275466223108545D+03 0.160462151884378D+02 0.601525871237199D+02 -.268339011912425D+03
 0.732637670099056D+03 -.179439102003125D+03 -.804870981188496D+02 0.705748816050649D+03
0.928524543064D-04 0.000000000000D+00 0.000000000000D+00 0.285999919045D-05 0.000000000000D+00  6 2 -2 25 1 -1 21 0 0.19240336D+00 0.12897113D+00 0.62538597D+06 0.62538597D+06 0.62538597D+06 0.10617094D+01  1  2  2  1  6  1        2 0.883573039203D-04 0.100000000000D+01
0.314461668989D-04 0.000000000000D+00 -.356577873149D-06 0.285999919045D-05 0.000000000000D+00  6 2 -2 25 1 -1 21 2 0.19240336D+00 0.12897113D+00 0.62538597D+06 0.62538597D+06 0.62538597D+06 0.10617094D+01  1  2  3  1  6  1        2 0.337309139307D-04 0.100000000000D+01
-.616061916062D-04 0.000000000000D+00 0.000000000000D+00 0.285999919045D-05 0.000000000000D+00  6 2 -2 25 1 -1 21 2 0.19240336D+00 0.12897113D+00 0.62538597D+06 0.62538597D+06 0.62538597D+06 0.10617094D+01  1  2 15  1  6  1        2 -.660822399547D-04 0.100000000000D+01
-.431681831640D-03 0.000000000000D+00 0.000000000000D+00 0.285999919045D-05 0.000000000000D+00  6 2 -2 25 1 -1 21 2 0.19240336D+00 0.12897113D+00 0.62538597D+06 0.62538597D+06 0.62538597D+06 0.10617094D+01  1  2  4  1  6  1        2 -.463046028959D-03 0.100000000000D+01
-.923567784757D-03 0.000000000000D+00 -.565988032281D-04 0.285999919045D-05 0.000000000000D+00  6 2 -2 25 1 -1 21 2 0.32996234D+00 0.12897113D+00 0.62538597D+06 0.62538597D+06 0.62538597D+06 0.10617094D+01  1  2  5  1  6  1        2 -.314171911792D-03 0.100000000000D+01
0.836738800474D-03 0.000000000000D+00 0.492579405383D-04 0.285999919045D-05 0.000000000000D+00  6 2 -2 25 1 -1 21 2 0.19240336D+00 0.12897113D+00 0.62538597D+06 0.62538597D+06 0.62538597D+06 0.10617094D+01  1  2  6  1  6  1        2 0.897532743881D-03 0.100000000000D+01
-.525928284065D-04 0.000000000000D+00 -.339280863568D-05 0.285999919045D-05 0.000000000000D+00  6 21 -2 25 1 -1 -2 2 0.32996234D+00 0.12897113D+00 0.62538597D+06 0.62538597D+06 0.62538597D+06 0.10617094D+01  1  2  5  5  6  1        2 -.292705900399D-05 0.100000000000D+01
  </mgrwgt>
  </event>
  <event>
  5     66 -.18881543E-05 0.98014404E+02 0.75467711E-02 0.95077224E-01
        2 -1    0    0  502    0 0.00000000E+00 0.00000000E+00 0.10571883E+04 0.10571883E+04 0.32000000E+00 0.0000E+00 0.9000E+01
       -2 -1    0    0    0  501 -.00000000E+00 -.00000000E+00 -.12925013E+04 0.12925013E+04 0.32000000E+00 0.0000E+00 0.9000E+01
       25  1    1    2    0    0 0.19827501E+03 0.41040643E+03 0.77538653E+02 0.47894015E+03 0.12500000E+03 0.0000E+00 0.9000E+01
        1  1    1    2  502    0 0.30272360E+02 -.93232501E+02 0.74061996E+03 0.74707880E+03 0.32000000E+00 0.0000E+00 0.9000E+01
       -1  1    1    2    0  501 -.22854737E+03 -.31717393E+03 -.10534716E+04 0.11236707E+04 0.32000000E+00 0.0000E+00 0.9000E+01
#aMCatNLO 1  0  0  5  2 0.37864896D+02 0.00000000D+00  -5  6  0 0.00000000D+00 0.00000000D+00 0.00000000D+00 0.00000000D+00 0.00000000D+00
  <mgrwgt>
 -.8852042657D-02    8    2    0
 0.116893851886064D+04 0.000000000000000D+00 0.000000000000000D+00 0.116893851886064D+04
 0.116893851886064D+04 -.000000000000000D+00 -.000000000000000D+00 -.116893851886064D+04
 0.489224531180896D+03 0.198304838810448D+03 0.410437802058129D+03 0.126220614224547D+03
 0.825317455072609D+03 0.302693798948579D+02 -.932233239235160D+02 0.819476709958837D+03
 0.102333505146778D+04 -.228574218705306D+03 -.317214478134613D+03 -.945697324183385D+03
 0.000000000000000D+00 0.000000000000000D+00 0.000000000000000D+00 -.000000000000000D+00
 0.116893851886064D+04 0.000000000000000D+00 0.000000000000000D+00 0.116893851886064D+04
 0.116893851886064D+04 -.000000000000000D+00 -.000000000000000D+00 -.116893851886064D+04
 0.488872419169925D+03 0.198171225433444D+03 0.410252373894365D+03 0.125667805540244D+03
 0.824418832025755D+03 0.300440169219881D+02 -.935360818462366D+02 0.818544298763821D+03
 0.441239925540142D+03 -.121880874480502D+03 -.162074906755709D+03 -.391879380583702D+03
 0.583345860985466D+03 -.106334367874930D+03 -.154641385292420D+03 -.552332723720363D+03
0.395551044147D-03 0.000000000000D+00 0.000000000000D+00 0.155405016928D-03 0.000000000000D+00  6 2 -2 25 1 -1 21 0 0.16264435D+00 0.19884635D+00 0.23119916D+06 0.23119916D+06 0.23119916D+06 0.10930227D+01  1  2  2  4  6  5       -1 0.151364856803D-03 0.100000000000D+01
0.902903534975D-04 0.000000000000D+00 -.151902016051D-05 0.155405016928D-03 0.000000000000D+00  6 2 -2 25 1 -1 21 2 0.16264435D+00 0.19884635D+00 0.23119916D+06 0.23119916D+06 0.23119916D+06 0.10930227D+01  1  2  3  4  6  5       -1 0.412783385288D-04 0.100000000000D+01
-.282566593908D-03 0.000000000000D+00 0.000000000000D+00 0.155405016928D-03 0.000000000000D+00  6 2 -2 25 1 -1 21 2 0.16264435D+00 0.19884635D+00 0.23119916D+06 0.23119916D+06 0.23119916D+06 0.10930227D+01  1  2 15  4  6  5       -1 -.129181901149D-03 0.100000000000D+01
0.115476147525D-09 0.000000000000D+00 0.000000000000D+00 0.155405016928D-03 0.000000000000D+00  6 2 -2 25 1 -1 21 2 0.16264435D+00 0.19884635D+00 0.23095156D+06 0.23095156D+06 0.23095156D+06 0.10930579D+01  1  2 12  4  6  5       -1 0.527996761305D-10 0.100000000000D+01
0.962777849457D-02 0.000000000000D+00 0.000000000000D+00 0.155405016928D-03 0.000000000000D+00  6 2 -2 25 1 -1 21 2 0.16264435D+00 0.19884635D+00 0.23095156D+06 0.23095156D+06 0.23095156D+06 0.10930579D+01  1  2 12  4  6  5       -1 0.440215228223D-02 0.100000000000D+01
-.359011830396D-01 0.000000000000D+00 0.000000000000D+00 0.155405016928D-03 0.000000000000D+00  6 2 -2 25 1 -1 21 2 0.16264435D+00 0.19884635D+00 0.23119916D+06 0.23119916D+06 0.23119916D+06 0.10930227D+01  1  2  4  4  6  5       -1 -.164130621898D-01 0.100000000000D+01
-.984177967869D-02 0.000000000000D+00 0.000000000000D+00 0.155405016928D-03 0.000000000000D+00  6 2 -2 25 1 -1 21 2 0.16264435D+00 0.19884635D+00 0.23119916D+06 0.23119916D+06 0.23119916D+06 0.10930227D+01  1  2  5  4  6  5       -1 -.449939885676D-02 0.100000000000D+01
0.166125292581D-01 0.000000000000D+00 -.000000000000D+00 0.155405016928D-03 0.000000000000D+00  6 2 -2 25 1 -1 21 2 0.16264435D+00 0.19884635D+00 0.23119916D+06 0.23119916D+06 0.23119916D+06 0.10930227D+01  1  2  6  4  6  5       -1 0.759480476010D-02 0.100000000000D+01
  </mgrwgt>
  </event>
  <event>
  5     66 -.18881543E-05 0.22795887E+03 0.75467711E-02 0.94166568E-01
        2 -1    0    0  502    0 0.00000000E+00 0.00000000E+00 0.34078143E+04 0.34078143E+04 0.32000000E+00 0.0000E+00 0.9000E+01
       -2 -1    0    0    0  501 0.00000000E+00 0.00000000E+00 -.16935646E+03 0.16935676E+03 0.32000000E+00 0.0000E+00 0.9000E+01
       25  1    1    2    0    0 -.37988808E+03 0.30763290E+03 0.83114456E+03 0.97230614E+03 0.12500000E+03 0.0000E+00 0.9000E+01
        1  1    1    2  502    0 0.15412734E+03 -.25770729E+03 0.23467039E+04 0.23658376E+04 0.32000000E+00 0.0000E+00 0.9000E+01
       -1  1    1    2    0  501 0.22576074E+03 -.49925605E+02 0.60609411E+02 0.23902736E+03 0.32000000E+00 0.0000E+00 0.9000E+01
#aMCatNLO 1  0  0  1  4 0.74960258D+01 0.00000000D+00  -5  6  0 0.00000000D+00 0.00000000D+00 0.00000000D+00 0.00000000D+00 0.00000000D+00
  <mgrwgt>
 -.2887217848D-02   13    2    0
 0.759694632431519D+03 0.000000000000000D+00 0.000000000000000D+00 0.759694632431519D+03
 0.759694632431519D+03 0.000000000000000D+00 0.000000000000000D+00 -.759694632431519D+03
 0.517619489252977D+03 -.379914604106302D+03 0.307623767675261D+03 -.115487864308515D+03
 0.568132357587825D+03 0.154111296214055D+03 -.257680467170777D+03 0.482311995451258D+03
 0.433637418022235D+03 0.225803307892247D+03 -.499433005044835D+02 -.366824131142744D+03
 0.000000000000000D+00 0.000000000000000D+00 -.000000000000000D+00 0.000000000000000D+00
 0.812307797333532D+03 0.000000000000000D+00 0.000000000000000D+00 0.812307797333532D+03
 0.759970922687774D+03 0.000000000000000D+00 0.000000000000000D+00 -.759970922687774D+03
 0.520036169577940D+03 -.381956947115686D+03 0.309166721069423D+03 -.115487864308515D+03
 0.566766289494928D+03 0.151877556824207D+03 -.255992917255114D+03 0.482311995451258D+03
 0.432605296792596D+03 0.224098344653261D+03 -.486552314561267D+02 -.366824131142744D+03
 0.528709641558427D+02 0.598104563821710D+01 -.451857235818263D+01 0.523368746457585D+02
0.175170717633D-04 0.000000000000D+00 0.000000000000D+00 0.111329349155D-05 0.000000000000D+00  6 2 -2 25 1 -1 21 0 0.52427915D+00 0.26054865D-01 0.26836611D+06 0.26836611D+06 0.26836611D+06 0.10881505D+01  1  2  2  1  6  1        2 0.272559701036D-04 0.100000000000D+01
0.114225397533D-05 0.000000000000D+00 -.672701679221D-07 0.111329349155D-05 0.000000000000D+00  6 2 -2 25 1 -1 21 2 0.52427915D+00 0.26054865D-01 0.26836611D+06 0.26836611D+06 0.26836611D+06 0.10881505D+01  1  2  3  1  6  1        2 0.210446032250D-05 0.100000000000D+01
-.111677089565D-04 0.000000000000D+00 0.000000000000D+00 0.111329349155D-05 0.000000000000D+00  6 2 -2 25 1 -1 21 2 0.52427915D+00 0.26054865D-01 0.26836611D+06 0.26836611D+06 0.26836611D+06 0.10881505D+01  1  2 15  1  6  1        2 -.205751093013D-04 0.100000000000D+01
0.462881960959D-07 0.000000000000D+00 0.000000000000D+00 0.111329349155D-05 0.000000000000D+00  6 2 -2 25 1 -1 21 2 0.56068014D+00 0.26054865D-01 0.27119204D+06 0.27119204D+06 0.27119204D+06 0.10878106D+01  1  2 12  1  6  1        2 0.577032052787D-07 0.100000000000D+01
0.238971298116D-02 0.000000000000D+00 0.000000000000D+00 0.111329349155D-05 0.000000000000D+00  6 2 -2 25 1 -1 21 2 0.56232060D+00 0.26054865D-01 0.27119204D+06 0.27119204D+06 0.27119204D+06 0.10878106D+01  1  2 12  1  6  1        2 0.292550227707D-02 0.100000000000D+01
-.410592540623D-02 0.000000000000D+00 0.000000000000D+00 0.111329349155D-05 0.000000000000D+00  6 2 -2 25 1 -1 21 2 0.52427915D+00 0.26054865D-01 0.26836611D+06 0.26836611D+06 0.26836611D+06 0.10881505D+01  1  2  4  1  6  1        2 -.756465487639D-02 0.100000000000D+01
-.270011361133D-02 0.000000000000D+00 -.352730602606D-04 0.111329349155D-05 0.000000000000D+00  6 2 -2 25 1 -1 21 2 0.56063183D+00 0.26054865D-01 0.26836611D+06 0.26836611D+06 0.26836611D+06 0.10881505D+01  1  2  5  1  6  1        2 -.337256503867D-02 0.100000000000D+01
0.271861259776D-02 0.000000000000D+00 0.354327253141D-04 0.111329349155D-05 0.000000000000D+00  6 2 -2 25 1 -1 21 2 0.52427915D+00 0.26054865D-01 0.26836611D+06 0.26836611D+06 0.26836611D+06 0.10881505D+01  1  2  6  1  6  1        2 0.500870425299D-02 0.100000000000D+01
0.858477255737D-04 0.000000000000D+00 0.000000000000D+00 0.111329349155D-05 0.216491692843D-06  6 2 -2 25 1 -1 21 2 0.56058845D+00 0.26064340D-01 0.27119204D+06 0.27119204D+06 0.27119204D+06 0.10878106D+01  1  2 11  1  6  1        2 0.107059162916D-03 0.100000000000D+01
0.679918008351D-09 0.000000000000D+00 0.000000000000D+00 0.111329349155D-05 0.000000000000D+00  6 21 -2 25 1 -1 -2 2 0.56068014D+00 0.26054865D-01 0.27119204D+06 0.27119204D+06 0.27119204D+06 0.10878106D+01  1  2 12  5  6  1        2 0.246312932174D-10 0.100000000000D+01
0.364790371906D-04 0.000000000000D+00 0.000000000000D+00 0.111329349155D-05 0.000000000000D+00  6 21 -2 25 1 -1 -2 2 0.56232060D+00 0.26054865D-01 0.27119204D+06 0.27119204D+06 0.27119204D+06 0.10878106D+01  1  2 12  5  6  1        2 0.127968189841D-05 0.100000000000D+01
-.387809303737D-04 0.000000000000D+00 -.402064505890D-06 0.111329349155D-05 0.000000000000D+00  6 21 -2 25 1 -1 -2 2 0.56063183D+00 0.26054865D-01 0.26836611D+06 0.26836611D+06 0.26836611D+06 0.10881505D+01  1  2  5  5  6  1        2 -.140886953594D-05 0.100000000000D+01
0.620724747965D-06 0.000000000000D+00 0.000000000000D+00 0.111329349155D-05 0.146718319149D-08  6 21 -2 25 1 -1 -2 2 0.56058845D+00 0.26064340D-01 0.27119204D+06 0.27119204D+06 0.27119204D+06 0.10878106D+01  1  2 11  5  6  1        2 0.225132072842D-07 0.100000000000D+01
  </mgrwgt>
  </event>
  <event>
  5     66 0.18881543E-05 0.22616133E+03 0.75467711E-02 0.95101045E-01
        2 -1    0    0  502    0 0.00000000E+00 0.00000000E+00 0.18478456E+04 0.18478456E+04 0.32000000E+00 0.0000E+00 0.9000E+01
       -2 -1    0    0    0  501 0.00000000E+00 0.00000000E+00 -.68766853E+03 0.68766861E+03 0.32000000E+00 0.0000E+00 0.9000E+01
       25  1    1    2    0    0 -.34866948E+03 -.29065915E+03 0.13034072E+03 0.48853541E+03 0.12500000E+03 0.0000E+00 0.9000E+01
        1  1    1    2  502    0 0.10210404E+03 0.20181206E+03 0.14955655E+04 0.15125706E+04 0.32000000E+00 0.0000E+00 0.9000E+01
       -1  1    1    2    0  501 0.24656544E+03 0.88847091E+02 -.46572923E+03 0.53440821E+03 0.32000000E+00 0.0000E+00 0.9000E+01
#aMCatNLO 1  0  0  5  2 0.95327433D+01 0.00000000D+00  -5  6  0 0.00000000D+00 0.00000000D+00 0.00000000D+00 0.00000000D+00 0.00000000D+00
  <mgrwgt>
 0.1922734840D-01    9    2    0
 0.112725568199035D+04 0.000000000000000D+00 0.000000000000000D+00 0.112725568199035D+04
 0.112725568199035D+04 -.000000000000000D+00 -.000000000000000D+00 -.112725568199035D+04
 0.482357590954996D+03 -.348692736645235D+03 -.290662858558124D+03 -.104748859743602D+03
 0.931435992489927D+03 0.102099650825667D+03 0.201803392407293D+03 0.903561874040666D+03
 0.840717780535769D+03 0.246593085819567D+03 0.888594661508302D+02 -.798813014297064D+03
 0.000000000000000D+00 0.000000000000000D+00 0.000000000000000D+00 0.000000000000000D+00
 0.112725568199035D+04 0.000000000000000D+00 0.000000000000000D+00 0.112725568199035D+04
 0.112725568199035D+04 -.000000000000000D+00 -.000000000000000D+00 -.112725568199035D+04
 0.482354256321655D+03 -.348678630574495D+03 -.290657775455687D+03 -.104794554913236D+03
 0.931355512151652D+03 0.102126888667528D+03 0.201813207524691D+03 0.903473639845100D+03
 0.502528765668240D+03 0.138270857749791D+03 0.529110138136215D+02 -.480225733211368D+03
 0.338272829839145D+03 0.108280884157176D+03 0.359335541173741D+02 -.318453351720495D+03
0.146985543577D-03 0.000000000000D+00 0.000000000000D+00 0.392393862542D-04 0.000000000000D+00  6 2 -2 25 1 -1 21 0 0.28428394D+00 0.10579517D+00 0.22997909D+06 0.22997909D+06 0.22997909D+06 0.10931968D+01  1  2  2  4  6  5       -1 0.114873668159D-03 0.100000000000D+01
0.161223265579D-04 0.000000000000D+00 -.564463189519D-06 0.392393862542D-04 0.000000000000D+00  6 2 -2 25 1 -1 21 2 0.28428394D+00 0.10579517D+00 0.22997909D+06 0.22997909D+06 0.22997909D+06 0.10931968D+01  1  2  3  4  6  5       -1 0.150581045475D-04 0.100000000000D+01
-.965581979630D-04 0.000000000000D+00 0.000000000000D+00 0.392393862542D-04 0.000000000000D+00  6 2 -2 25 1 -1 21 2 0.28428394D+00 0.10579517D+00 0.22997909D+06 0.22997909D+06 0.22997909D+06 0.10931968D+01  1  2 15  4  6  5       -1 -.901844677701D-04 0.100000000000D+01
0.334973812308D-08 0.000000000000D+00 0.000000000000D+00 0.392393862542D-04 0.000000000000D+00  6 2 -2 25 1 -1 21 2 0.28428394D+00 0.10579517D+00 0.22999296D+06 0.22999296D+06 0.22999296D+06 0.10931948D+01  1  2 12  4  6  5       -1 0.312860071928D-08 0.100000000000D+01
0.603623712393D-01 0.000000000000D+00 0.000000000000D+00 0.392393862542D-04 0.000000000000D+00  6 2 -2 25 1 -1 21 2 0.28428394D+00 0.10579517D+00 0.22999296D+06 0.22999296D+06 0.22999296D+06 0.10931948D+01  1  2 12  4  6  5       -1 0.563774692641D-01 0.100000000000D+01
-.685465549228D-01 0.000000000000D+00 0.000000000000D+00 0.392393862542D-04 0.000000000000D+00  6 2 -2 25 1 -1 21 2 0.28428394D+00 0.10579517D+00 0.22997909D+06 0.22997909D+06 0.22997909D+06 0.10931968D+01  1  2  4  4  6  5       -1 -.640218511074D-01 0.100000000000D+01
-.606518384516D-01 0.000000000000D+00 0.000000000000D+00 0.392393862542D-04 0.000000000000D+00  6 2 -2 25 1 -1 21 2 0.28428394D+00 0.10579517D+00 0.22997909D+06 0.22997909D+06 0.22997909D+06 0.10931968D+01  1  2  5  4  6  5       -1 -.566482586195D-01 0.100000000000D+01
0.893797860099D-01 0.000000000000D+00 -.000000000000D+00 0.392393862542D-04 0.000000000000D+00  6 2 -2 25 1 -1 21 2 0.28428394D+00 0.10579517D+00 0.22997909D+06 0.22997909D+06 0.22997909D+06 0.10931968D+01  1  2  6  4  6  5       -1 0.834798971062D-01 0.100000000000D+01
0.365450270467D-06 0.000000000000D+00 0.000000000000D+00 0.392393862542D-04 0.939752282275D-06  6 2 -2 25 1 -1 21 2 0.28428394D+00 0.10579517D+00 0.22999296D+06 0.22999296D+06 0.22999296D+06 0.10931948D+01  1  2 11  4  6  5       -1 0.341324586291D-06 0.100000000000D+01
  </mgrwgt>
  </event>
  <event>
  5     66 0.18881543E-05 0.38241834E+02 0.75467711E-02 0.94641305E-01
        2 -1    0    0  502    0 0.00000000E+00 0.00000000E+00 0.39009007E+04 0.39009007E+04 0.32000000E+00 0.0000E+00 0.9000E+01
       -2 -1    0    0    0  501 0.00000000E+00 0.00000000E+00 -.19209451E+03 0.19209478E+03 0.32000000E+00 0.0000E+00 0.9000E+01
       25  1    1    2    0    0 -.16802387E+02 0.46775461E+03 0.14015221E+04 0.14828911E+04 0.12500000E+03 0.0000E+00 0.9000E+01
        1  1    1    2  502    0 0.37969704E+02 0.46464663E+01 0.20888777E+04 0.20892280E+04 0.32000000E+00 0.0000E+00 0.9000E+01
       -1  1    1    2    0  501 -.21167317E+02 -.47240108E+03 0.21840635E+03 0.52087644E+03 0.32000000E+00 0.0000E+00 0.9000E+01
#aMCatNLO 1  0  0  1  4 0.22900903D+01 0.00000000D+00  -5  6  0 0.00000000D+00 0.00000000D+00 0.00000000D+00 0.00000000D+00 0.00000000D+00
  <mgrwgt>
 0.7408760712D-01   13    2    0
 0.865645530406813D+03 0.000000000000000D+00 0.000000000000000D+00 0.865645530406813D+03
 0.865645530406813D+03 0.000000000000000D+00 0.000000000000000D+00 -.865645530406813D+03
 0.503482767215469D+03 -.167912681830998D+02 0.467836828808885D+03 0.136808814795670D+03
 0.464234050632733D+03 0.379586717276044D+02 0.464511621165750D+01 0.462656261065309D+03
 0.763574242965424D+03 -.211674035445046D+02 -.472481945020542D+03 -.599465075860979D+03
 0.000000000000000D+00 -.000000000000000D+00 0.000000000000000D+00 0.000000000000000D+00
 0.111722393063826D+04 0.000000000000000D+00 0.000000000000000D+00 0.111722393063826D+04
 0.865651499344269D+03 0.000000000000000D+00 0.000000000000000D+00 -.865651499344269D+03
 0.503033140111792D+03 -.163169860835799D+02 0.467369708271816D+03 0.136808814795670D+03
 0.464265918360792D+03 0.383961918020440D+02 0.421420260062790D+01 0.462656261065309D+03
 0.763993516965424D+03 -.204475957013649D+02 -.473190883912848D+03 -.599465075860979D+03
 0.251582854544522D+03 -.163161001709928D+01 0.160697304040467D+01 0.251572431293991D+03
0.814789191906D-04 0.000000000000D+00 0.000000000000D+00 0.665397951733D-04 0.000000000000D+00  6 2 -2 25 1 -1 21 0 0.60013859D+00 0.29553023D-01 0.24787300D+06 0.24787300D+06 0.24787300D+06 0.10907384D+01  1  2  2  1  6  1        2 0.441183017642D-04 0.100000000000D+01
0.360023637303D-04 0.000000000000D+00 -.312900503584D-06 0.665397951733D-04 0.000000000000D+00  6 2 -2 25 1 -1 21 2 0.60013859D+00 0.29553023D-01 0.24787300D+06 0.24787300D+06 0.24787300D+06 0.10907384D+01  1  2  3  1  6  1        2 0.231924020819D-04 0.100000000000D+01
-.517788760568D-04 0.000000000000D+00 0.000000000000D+00 0.665397951733D-04 0.000000000000D+00  6 2 -2 25 1 -1 21 2 0.60013859D+00 0.29553023D-01 0.24787300D+06 0.24787300D+06 0.24787300D+06 0.10907384D+01  1  2 15  1  6  1        2 -.333554908187D-04 0.100000000000D+01
0.275196505682D-09 0.000000000000D+00 0.000000000000D+00 0.665397951733D-04 0.000000000000D+00  6 2 -2 25 1 -1 21 2 0.77455564D+00 0.29553023D-01 0.24931113D+06 0.24931113D+06 0.24931113D+06 0.10905493D+01  1  2 12  1  6  1        2 0.128171542627D-10 0.100000000000D+01
0.222467886670D-02 0.000000000000D+00 0.000000000000D+00 0.665397951733D-04 0.000000000000D+00  6 2 -2 25 1 -1 21 2 0.77710336D+00 0.29553023D-01 0.24931113D+06 0.24931113D+06 0.24931113D+06 0.10905493D+01  1  2 12  1  6  1        2 0.984784648634D-04 0.100000000000D+01
-.709270796683D+00 0.000000000000D+00 0.000000000000D+00 0.665397951733D-04 0.000000000000D+00  6 2 -2 25 1 -1 21 2 0.60013859D+00 0.29553023D-01 0.24787300D+06 0.24787300D+06 0.24787300D+06 0.10907384D+01  1  2  4  1  6  1        2 -.456905930534D+00 0.100000000000D+01
-.765281227313D+00 0.000000000000D+00 -.409182387285D-04 0.665397951733D-04 0.000000000000D+00  6 2 -2 25 1 -1 21 2 0.77455451D+00 0.29553023D-01 0.24787300D+06 0.24787300D+06 0.24787300D+06 0.10907384D+01  1  2  5  1  6  1        2 -.356795553282D-01 0.100000000000D+01
0.834304563033D+00 0.000000000000D+00 0.446084765710D-04 0.665397951733D-04 0.000000000000D+00  6 2 -2 25 1 -1 21 2 0.60013859D+00 0.29553023D-01 0.24787300D+06 0.24787300D+06 0.24787300D+06 0.10907384D+01  1  2  6  1  6  1        2 0.537451569279D+00 0.100000000000D+01
0.624565544457D+00 0.000000000000D+00 0.000000000000D+00 0.665397951733D-04 0.682951079364D-04  6 2 -2 25 1 -1 21 2 0.77455399D+00 0.29553227D-01 0.24931113D+06 0.24931113D+06 0.24931113D+06 0.10905493D+01  1  2 11  1  6  1        2 0.290894606152D-01 0.100000000000D+01
0.945403540167D-11 0.000000000000D+00 0.000000000000D+00 0.665397951733D-04 0.000000000000D+00  6 21 -2 25 1 -1 -2 2 0.77455564D+00 0.29553023D-01 0.24931113D+06 0.24931113D+06 0.24931113D+06 0.10905493D+01  1  2 12  5  6  1        2 0.283847757375D-14 0.100000000000D+01
0.764260894629D-04 0.000000000000D+00 0.000000000000D+00 0.665397951733D-04 0.000000000000D+00  6 21 -2 25 1 -1 -2 2 0.77710336D+00 0.29553023D-01 0.24931113D+06 0.24931113D+06 0.24931113D+06 0.10905493D+01  1  2 12  5  6  1        2 0.214095036943D-07 0.100000000000D+01
-.262891095073D-01 0.000000000000D+00 -.140567026378D-05 0.665397951733D-04 0.000000000000D+00  6 21 -2 25 1 -1 -2 2 0.77455451D+00 0.29553023D-01 0.24787300D+06 0.24787300D+06 0.24787300D+06 0.10907384D+01  1  2  5  5  6  1        2 -.790232284421D-05 0.100000000000D+01
0.250135676761D-01 0.000000000000D+00 0.000000000000D+00 0.665397951733D-04 0.272583278802D-05  6 21 -2 25 1 -1 -2 2 0.77455399D+00 0.29553227D-01 0.24931113D+06 0.24931113D+06 0.24931113D+06 0.10905493D+01  1  2 11  5  6  1        2 0.751031326156D-05 0.100000000000D+01
  </mgrwgt>
  </event>
  <event>
  5     66 0.18881543E-05 0.11112124E+03 0.75467711E-02 0.93416765E-01
        2 -1    0    0  502    0 0.00000000E+00 0.00000000E+00 0.11858698E+04 0.11858698E+04 0.32000000E+00 0.0000E+00 0.9000E+01
       -2 -1    0    0    0  501 0.00000000E+00 0.00000000E+00 -.57569418E+03 0.57569427E+03 0.32000000E+00 0.0000E+00 0.9000E+01
       25  1    1    2    0    0 -.47829259E+03 -.68840470E+02 0.17246202E+03 0.52808234E+03 0.12500000E+03 0.0000E+00 0.9000E+01
        1  1    1    2  502    0 0.38576051E+03 0.73446651E+01 0.78184268E+03 0.87186192E+03 0.32000000E+00 0.0000E+00 0.9000E+01
       -1  1    1    2    0  501 0.92532074E+02 0.61495805E+02 -.34412914E+03 0.36161980E+03 0.32000000E+00 0.0000E+00 0.9000E+01
#aMCatNLO 1  0  0  5  2 0.57441182D+02 0.00000000D+00  -5  6  0 0.00000000D+00 0.00000000D+00 0.00000000D+00 0.00000000D+00 0.00000000D+00
  <mgrwgt>
 0.3807503110D-03    4    2    0
 0.826255667548364D+03 0.000000000000000D+00 0.000000000000000D+00 0.826255667548364D+03
 0.826255667548364D+03 -.000000000000000D+00 -.000000000000000D+00 -.826255667548364D+03
 0.499235605899938D+03 -.478277248616869D+03 -.688489190543000D+02 -.110403803743208D+02
 0.640657682572830D+03 0.385729507611904D+03 0.734407477975014D+01 0.511469527697102D+03
 0.512618046623960D+03 0.925477410049650D+02 0.615048442745499D+02 -.500429147322781D+03
 0.000000000000000D+00 0.000000000000000D+00 -.000000000000000D+00 0.000000000000000D+00
 0.826255667548364D+03 0.000000000000000D+00 0.000000000000000D+00 0.826255667548364D+03
 0.826255667548364D+03 -.000000000000000D+00 -.000000000000000D+00 -.826255667548364D+03
 0.493484476072759D+03 -.469697645724625D+03 -.631471360167581D+02 -.574324728566571D+02
 0.602453802224615D+03 0.396473123142634D+03 0.144840048632705D+02 0.453376069112103D+03
 0.471649114110612D+03 0.130716068367733D+03 0.879511750886493D+02 -.444556843510853D+03
 0.849239426887413D+02 -.574915457857419D+02 -.392880439351617D+02 0.486132472554073D+02
0.516549095222D-03 0.000000000000D+00 0.000000000000D+00 0.116803221445D-04 0.000000000000D+00  6 2 -2 25 1 -1 21 0 0.18244151D+00 0.88568345D-01 0.24802102D+06 0.24802102D+06 0.24802102D+06 0.10907189D+01  1  2  2  4  6  5       -1 0.142492405881D-02 0.100000000000D+01
0.900840373006D-04 0.000000000000D+00 -.198368453615D-05 0.116803221445D-04 0.000000000000D+00  6 2 -2 25 1 -1 21 2 0.18244151D+00 0.88568345D-01 0.24802102D+06 0.24802102D+06 0.24802102D+06 0.10907189D+01  1  2  3  4  6  5       -1 0.295633469892D-03 0.100000000000D+01
-.346743223007D-03 0.000000000000D+00 0.000000000000D+00 0.116803221445D-04 0.000000000000D+00  6 2 -2 25 1 -1 21 2 0.18244151D+00 0.88568345D-01 0.24802102D+06 0.24802102D+06 0.24802102D+06 0.10907189D+01  1  2 15  4  6  5       -1 -.113792526679D-02 0.100000000000D+01
-.615165163872D-04 0.000000000000D+00 0.000000000000D+00 0.116803221445D-04 0.000000000000D+00  6 2 -2 25 1 -1 21 2 0.18244151D+00 0.88568345D-01 0.24802102D+06 0.24802102D+06 0.24802102D+06 0.10907189D+01  1  2  4  4  6  5       -1 -.201881950900D-03 0.100000000000D+01
  </mgrwgt>
  </event>
  <event>
  6     66 0.18881543E-05 0.13772366E+03 0.75467711E-02 0.93399989E-01
        2 -1    0    0  502    0 0.00000000E+00 0.00000000E+00 0.27169046E+04 0.27169046E+04 0.32000000E+00 0.0000E+00 0.9000E+01
       -2 -1    0    0    0  501 0.00000000E+00 0.00000000E+00 -.12323593E+04 0.12323594E+04 0.32000000E+00 0.0000E+00 0.9000E+01
       25  1    1    2    0    0 -.53462067E+03 0.32567400E+02 0.19729985E+03 0.58432194E+03 0.12500000E+03 0.0000E+00 0.9000E+01
        1  1    1    2  503    0 0.14149705E+03 0.33053203E+02 0.14798676E+04 0.14869842E+04 0.32000000E+00 0.0000E+00 0.9000E+01
       -1  1    1    2    0  501 -.45098093E+01 0.14234839E+02 -.98642988E+03 0.98654294E+03 0.32000000E+00 0.0000E+00 0.9000E+01
       21  1    1    2  502  503 0.39763343E+03 -.79855443E+02 0.79380765E+03 0.89141482E+03 0.75000000E+00 0.0000E+00 0.9000E+01
#aMCatNLO 2  0  0  4  1 0.21451782D+03 0.00000000D+00  -5  6  0 0.00000000D+00 0.00000000D+00 0.00000000D+00 0.00000000D+00 0.00000000D+00
  <mgrwgt>
 0.4938099190D-02    1    2    0
 0.182980949997113D+04 0.000000000000000D+00 0.000000000000000D+00 0.182980949997113D+04
 0.182980949997113D+04 -.000000000000000D+00 -.000000000000000D+00 -.182980949997113D+04
 0.553960952324973D+03 -.537695952761327D+03 0.328305946952032D+02 -.324492085703080D+02
 0.161764710290779D+04 0.550541806138110D+03 -.477928635167502D+02 0.152032947463273D+04
 0.148801094470949D+04 -.128458533767824D+02 0.149622688215470D+02 -.148788026606242D+04
 0.000000000000000D+00 0.000000000000000D+00 -.000000000000000D+00 0.000000000000000D+00
 0.182980949997113D+04 0.000000000000000D+00 0.000000000000000D+00 0.182980949997113D+04
 0.182980949997113D+04 -.000000000000000D+00 -.000000000000000D+00 -.182980949997113D+04
 0.550479932846026D+03 -.534578890976072D+03 0.325600006970454D+02 -.238413955876451D+02
 0.100405164727384D+04 0.141376352153997D+03 0.330668222958045D+02 0.993498375795448D+03
 0.146494163436034D+04 -.451173992492189D+01 0.142387794474486D+02 -.146486548646797D+04
 0.640145785462049D+03 0.397714278746997D+03 -.798656024402984D+02 0.495208506260169D+03
0.834338457805D-01 0.000000000000D+00 0.000000000000D+00 0.247554352138D-02 0.324783378213D-07  6 2 -2 25 1 -1 21 2 0.41798532D+00 0.18959375D+00 0.31122216D+06 0.31122216D+06 0.31122216D+06 0.10833738D+01  1  2  1  3  6  4        1 0.493809918972D-02 0.100000000000D+01
  </mgrwgt>
  </event>
  <event>
  5     66 0.18881543E-05 0.18764554E+02 0.75467711E-02 0.93292160E-01
        2 -1    0    0  502    0 0.00000000E+00 0.00000000E+00 0.12896228E+04 0.12896228E+04 0.32000000E+00 0.0000E+00 0.9000E+01
       -2 -1    0    0    0  501 0.00000000E+00 0.00000000E+00 -.44030164E+03 0.44030176E+03 0.32000000E+00 0.0000E+00 0.9000E+01
       25  1    1    2    0    0 -.55270565E+03 -.32180296E+02 0.63493552E+03 0.85163797E+03 0.12500000E+03 0.0000E+00 0.9000E+01
        1  1    1    2  502    0 0.53864733E+03 0.44603977E+02 0.41210601E+03 0.67967781E+03 0.32000000E+00 0.0000E+00 0.9000E+01
       -1  1    1    2    0  501 0.14058324E+02 -.12423680E+02 -.19772041E+03 0.19860878E+03 0.32000000E+00 0.0000E+00 0.9000E+01
#aMCatNLO 1  0  0  4  5 0.18704359D+03 0.00000000D+00  -5  6  0 0.00000000D+00 0.00000000D+00 0.00000000D+00 0.00000000D+00 0.00000000D+00
  <mgrwgt>
 0.6121618127D-02    4    2    0
 0.753540413463658D+03 0.000000000000000D+00 0.000000000000000D+00 0.753540413463658D+03
 0.753540413463658D+03 -.000000000000000D+00 -.000000000000000D+00 -.753540413463658D+03
 0.619726746274589D+03 -.552643137994225D+03 -.321728142918248D+02 0.248971307777680D+03
 0.547867816900879D+03 0.538582246613053D+03 0.445985871862401D+02 0.899959690761966D+02
 0.339486263751848D+03 0.140608913811727D+02 -.124257728944153D+02 -.338967276853876D+03
 0.000000000000000D+00 -.000000000000000D+00 0.000000000000000D+00 0.000000000000000D+00
 0.753540413463658D+03 0.000000000000000D+00 0.000000000000000D+00 0.753540413463658D+03
 0.753540413463658D+03 -.000000000000000D+00 -.000000000000000D+00 -.753540413463658D+03
 0.455576581994599D+03 -.331654766336922D+03 -.138733452274752D+02 0.285898003350990D+03
 0.416406868958296D+03 0.384861187291109D+03 -.344075224728546D+02 -.155218134990116D+03
 0.351772973136636D+03 0.156123367277104D+03 -.661950828275412D+00 -.315228933698270D+03
 0.283324402837784D+03 -.209329788231290D+03 0.489428185286053D+02 0.184549065337396D+03
0.139217692078D-02 0.000000000000D+00 0.000000000000D+00 0.483194186099D-05 0.000000000000D+00  6 2 -2 25 1 -1 21 0 0.19840351D+00 0.67738726D-01 0.31736677D+06 0.31736677D+06 0.31736677D+06 0.10827483D+01  1  2  2  3  6  4        1 0.601979530736D-02 0.100000000000D+01
0.970449386596D-03 0.000000000000D+00 -.534632594438D-05 0.483194186099D-05 0.000000000000D+00  6 2 -2 25 1 -1 21 2 0.19840351D+00 0.67738726D-01 0.31736677D+06 0.31736677D+06 0.31736677D+06 0.10827483D+01  1  2  3  3  6  4        1 0.491943468258D-02 0.100000000000D+01
-.906106798854D-03 0.000000000000D+00 0.000000000000D+00 0.483194186099D-05 0.000000000000D+00  6 2 -2 25 1 -1 21 2 0.19840351D+00 0.67738726D-01 0.31736677D+06 0.31736677D+06 0.31736677D+06 0.10827483D+01  1  2 15  3  6  4        1 -.459326707191D-02 0.100000000000D+01
-.442561552667D-04 0.000000000000D+00 0.000000000000D+00 0.483194186099D-05 0.000000000000D+00  6 2 -2 25 1 -1 21 2 0.19840351D+00 0.67738726D-01 0.31736677D+06 0.31736677D+06 0.31736677D+06 0.10827483D+01  1  2  4  3  6  4        1 -.224344791335D-03 0.100000000000D+01
  </mgrwgt>
  </event>
  <event>
  5     66 0.18881543E-05 0.20143305E+03 0.75467711E-02 0.94445846E-01
        2 -1    0    0  502    0 0.00000000E+00 0.00000000E+00 0.22517469E+04 0.22517470E+04 0.32000000E+00 0.0000E+00 0.9000E+01
       -2 -1    0    0    0  501 0.00000000E+00 0.00000000E+00 -.43762572E+03 0.43762584E+03 0.32000000E+00 0.0000E+00 0.9000E+01
       25  1    1    2    0    0 -.81303597E+02 0.47795832E+03 0.28116355E+03 0.57422327E+03 0.12500000E+03 0.0000E+00 0.9000E+01
        1  1    1    2  502    0 -.33046646E+02 -.31216100E+03 0.17737028E+04 0.18012657E+04 0.32000000E+00 0.0000E+00 0.9000E+01
       -1  1    1    2    0  501 0.11435024E+03 -.16579731E+03 -.24074511E+03 0.31388380E+03 0.32000000E+00 0.0000E+00 0.9000E+01
#aMCatNLO 1  0  0  1  4 0.22399490D+02 0.00000000D+00  -5  6  0 0.00000000D+00 0.00000000D+00 0.00000000D+00 0.00000000D+00 0.00000000D+00
  <mgrwgt>
 0.6275902336D-02    3    2    0
 0.992684524599680D+03 0.000000000000000D+00 0.000000000000000D+00 0.992684524599680D+03
 0.992684524599680D+03 0.000000000000000D+00 0.000000000000000D+00 -.992684524599680D+03
 0.520916796086732D+03 -.813178991549636D+02 0.477966800554104D+03 -.143751331438572D+03
 0.819236822645041D+03 -.330451085905287D+02 -.312146485187234D+03 0.756717625115893D+03
 0.645215430467589D+03 0.114363007745492D+03 -.165820315366870D+03 -.612966293677321D+03
 0.000000000000000D+00 0.000000000000000D+00 0.000000000000000D+00 -.000000000000000D+00
 0.129642694007289D+04 0.000000000000000D+00 0.000000000000000D+00 0.129642694007289D+04
 0.300919901133921D+04 0.000000000000000D+00 0.000000000000000D+00 -.300919901133921D+04
 0.468837229757615D+03 -.283549512537454D+03 0.321120813178162D+03 -.143751331438572D+03
 0.105712861297873D+04 -.416433707608978D+03 -.609493484283736D+03 0.756717625115893D+03
 0.743915139432073D+03 -.169471267250351D+03 -.385955369269931D+03 -.612966293677321D+03
 0.203574496924369D+04 0.869454487396782D+03 0.674328040375505D+03 -.171277207126632D+04
0.131479084965D-01 0.000000000000D+00 0.000000000000D+00 0.115805186996D-04 0.000000000000D+00  6 2 -2 25 1 -1 21 0 0.34642262D+00 0.67327045D-01 0.25807070D+06 0.25807070D+06 0.25807070D+06 0.10894226D+01  1  2  2  1  6  1        2 0.172102350028D-01 0.100000000000D+01
0.130977907130D-02 0.000000000000D+00 -.504914305505D-04 0.115805186996D-04 0.000000000000D+00  6 2 -2 25 1 -1 21 2 0.34642262D+00 0.67327045D-01 0.25807070D+06 0.25807070D+06 0.25807070D+06 0.10894226D+01  1  2  3  1  6  1        2 0.203479610495D-02 0.100000000000D+01
-.834810593397D-02 0.000000000000D+00 0.000000000000D+00 0.115805186996D-04 0.000000000000D+00  6 2 -2 25 1 -1 21 2 0.34642262D+00 0.67327045D-01 0.25807070D+06 0.25807070D+06 0.25807070D+06 0.10894226D+01  1  2 15  1  6  1        2 -.129691287717D-01 0.100000000000D+01
  </mgrwgt>
  </event>
  <event>
  5     66 0.18881543E-05 0.25494308E+03 0.75467711E-02 0.92023973E-01
        2 -1    0    0  502    0 0.00000000E+00 0.00000000E+00 0.26340257E+04 0.26340257E+04 0.32000000E+00 0.0000E+00 0.9000E+01
       -2 -1    0    0    0  501 0.00000000E+00 0.00000000E+00 -.74650903E+03 0.74650909E+03 0.32000000E+00 0.0000E+00 0.9000E+01
       25  1    1    2    0    0 -.13053601E+02 0.53927067E+03 0.65348923E+03 0.85653747E+03 0.12500000E+03 0.0000E+00 0.9000E+01
        1  1    1    2  502    0 -.21231149E+03 -.14117890E+03 0.17877005E+04 0.18057909E+04 0.32000000E+00 0.0000E+00 0.9000E+01
       -1  1    1    2    0  501 0.22536509E+03 -.39809177E+03 -.55367307E+03 0.71820642E+03 0.32000000E+00 0.0000E+00 0.9000E+01
#aMCatNLO 1  0  0  2  5 0.77972692D+01 0.00000000D+00  -5  6  0 0.00000000D+00 0.00000000D+00 0.00000000D+00 0.00000000D+00 0.00000000D+00
  <mgrwgt>
 0.7440110428D-03    4    2    0
 0.140225678354967D+04 0.000000000000000D+00 0.000000000000000D+00 0.140225678354967D+04
 0.140225678354967D+04 0.000000000000000D+00 0.000000000000000D+00 -.140225678354967D+04
 0.592707924275355D+03 -.130919620952688D+02 0.539301815325458D+03 0.211328739204968D+03
 0.973423404637579D+03 -.212292422623859D+03 -.141166220816393D+03 0.939445128835700D+03
 0.123838223818641D+04 0.225384384719127D+03 -.398135594509065D+03 -.115077386804067D+04
 0.000000000000000D+00 0.000000000000000D+00 0.000000000000000D+00 0.000000000000000D+00
 0.217012742290646D+04 0.000000000000000D+00 0.000000000000000D+00 0.217012742290646D+04
 0.157167373134546D+04 0.000000000000000D+00 0.000000000000000D+00 -.157167373134546D+04
 0.487579528400559D+03 -.259065443527257D+02 0.420449534975424D+03 0.211328739204968D+03
 0.103410389211077D+04 -.236106106300873D+03 -.362032617526325D+03 0.939445128835700D+03
 0.135236366515781D+04 0.194652447210885D+03 -.683167192031788D+03 -.115077386804067D+04
 0.867754068582783D+03 0.673602034427133D+02 0.624750274582689D+03 0.598453691560996D+03
0.999911078188D-02 0.000000000000D+00 0.000000000000D+00 0.685615832878D-05 0.000000000000D+00  6 2 -2 25 1 -1 21 0 0.40523473D+00 0.11484755D+00 0.40081604D+06 0.40081604D+06 0.40081604D+06 0.10753638D+01  1  2  2  2  6  2       -2 0.220505878475D-02 0.100000000000D+01
0.936909390906D-03 0.000000000000D+00 -.383992182288D-04 0.685615832878D-05 0.000000000000D+00  6 2 -2 25 1 -1 21 2 0.40523473D+00 0.11484755D+00 0.40081604D+06 0.40081604D+06 0.40081604D+06 0.10753638D+01  1  2  3  2  6  2       -2 0.238928098794D-03 0.100000000000D+01
-.662464031773D-02 0.000000000000D+00 0.000000000000D+00 0.685615832878D-05 0.000000000000D+00  6 2 -2 25 1 -1 21 2 0.40523473D+00 0.11484755D+00 0.40081604D+06 0.40081604D+06 0.40081604D+06 0.10753638D+01  1  2 15  2  6  2       -2 -.168939785605D-02 0.100000000000D+01
-.414794797549D-04 0.000000000000D+00 0.000000000000D+00 0.685615832878D-05 0.000000000000D+00  6 2 -2 25 1 -1 21 2 0.40523473D+00 0.11484755D+00 0.40081604D+06 0.40081604D+06 0.40081604D+06 0.10753638D+01  1  2  4  2  6  2       -2 -.105779847368D-04 0.100000000000D+01
  </mgrwgt>
  </event>
  <event>
  5     66 0.18881543E-05 0.27086852E+02 0.75467711E-02 0.93859070E-01
        2 -1    0    0  502    0 0.00000000E+00 0.00000000E+00 0.12594147E+04 0.12594148E+04 0.32000000E+00 0.0000E+00 0.9000E+01
       -2 -1    0    0    0  501 0.00000000E+00 0.00000000E+00 -.90625401E+03 0.90625407E+03 0.32000000E+00 0.0000E+00 0.9000E+01
       25  1    1    2    0    0 0.40903184E+03 -.29074420E+03 -.55883925E+03 0.76142336E+03 0.12500000E+03 0.0000E+00 0.9000E+01
        1  1    1    2  502    0 -.42303459E+03 0.26754557E+03 0.11030388E+04 0.12112942E+04 0.32000000E+00 0.0000E+00 0.9000E+01
       -1  1    1    2    0  501 0.14002747E+02 0.23198628E+02 -.19103884E+03 0.19295128E+03 0.32000000E+00 0.0000E+00 0.9000E+01
#aMCatNLO 1  0  0  2  1 0.24231858D+02 0.00000000D+00  -5  6  0 0.00000000D+00 0.00000000D+00 0.00000000D+00 0.00000000D+00 0.00000000D+00
  <mgrwgt>
 0.4212988016D-02    9    4    0
 0.106833971178496D+04 0.000000000000000D+00 0.000000000000000D+00 0.106833971178496D+04
 0.106833971178496D+04 0.000000000000000D+00 0.000000000000000D+00 -.106833971178496D+04
 0.864227965936613D+03 0.409041638913200D+03 -.290738280160560D+03 -.692402460416930D+03
 0.104542542007209D+04 -.423039703841230D+03 0.267548806061305D+03 0.917806817517717D+03
 0.227026037561221D+03 0.139980649280306D+02 0.231894740992541D+02 -.225404357100787D+03
 0.000000000000000D+00 0.000000000000000D+00 -.000000000000000D+00 -.000000000000000D+00
 0.107562532292873D+04 0.000000000000000D+00 0.000000000000000D+00 0.107562532292873D+04
 0.108874893478844D+04 0.000000000000000D+00 0.000000000000000D+00 -.108874893478844D+04
 0.859285882595941D+03 0.399338024409422D+03 -.289577628794158D+03 -.692402460416930D+03
 0.105061669881860D+04 -.434840702552505D+03 0.268960325992751D+03 0.917806817517717D+03
 0.226914243219015D+03 0.114423201649825D+02 0.234951672665013D+02 -.225404357100787D+03
 0.275574330836180D+02 0.240603579781004D+02 -.287786446509384D+01 -.131236118597090D+02
 0.106833971178496D+04 0.000000000000000D+00 0.000000000000000D+00 0.106833971178496D+04
 0.106833971178496D+04 0.000000000000000D+00 0.000000000000000D+00 -.106833971178496D+04
 0.864227965936613D+03 0.409041638913200D+03 -.290738280160560D+03 -.692402460416930D+03
 0.104542542007209D+04 -.423039703841230D+03 0.267548806061305D+03 0.917806817517717D+03
 0.000000000000000D+00 0.000000000000000D+00 -.000000000000000D+00 -.000000000000000D+00
 0.227026037561221D+03 0.139980649280306D+02 0.231894740992541D+02 -.225404357100787D+03
 0.107562532292873D+04 0.000000000000000D+00 0.000000000000000D+00 0.107562532292873D+04
 0.108874893478844D+04 0.000000000000000D+00 0.000000000000000D+00 -.108874893478844D+04
 0.859285882595941D+03 0.399338024409422D+03 -.289577628794158D+03 -.692402460416930D+03
 0.105061669881860D+04 -.434840702552505D+03 0.268960325992751D+03 0.917806817517717D+03
 0.275574330836180D+02 0.240603579781004D+02 -.287786446509384D+01 -.131236118597090D+02
 0.226914243219015D+03 0.114423201649825D+02 0.234951672665013D+02 -.225404357100787D+03
0.171294755580D-02 0.000000000000D+00 0.000000000000D+00 0.662352620702D-04 0.000000000000D+00  6 2 -2 25 1 -1 21 0 0.19375612D+00 0.13942370D+00 0.27290457D+06 0.27290457D+06 0.27290457D+06 0.10876066D+01  1  2  2  2  6  2       -2 0.137333416687D-02 0.100000000000D+01
0.557924786547D-03 0.000000000000D+00 -.657816964371D-05 0.662352620702D-04 0.000000000000D+00  6 2 -2 25 1 -1 21 2 0.19375612D+00 0.13942370D+00 0.27290457D+06 0.27290457D+06 0.27290457D+06 0.10876066D+01  1  2  3  2  6  2       -2 0.529116681020D-03 0.100000000000D+01
-.119257111983D-02 0.000000000000D+00 0.000000000000D+00 0.662352620702D-04 0.000000000000D+00  6 2 -2 25 1 -1 21 2 0.19375612D+00 0.13942370D+00 0.27290457D+06 0.27290457D+06 0.27290457D+06 0.10876066D+01  1  2 15  2  6  2       -2 -.113099343858D-02 0.100000000000D+01
0.444013129459D-09 0.000000000000D+00 0.000000000000D+00 0.662352620702D-04 0.000000000000D+00  6 2 -2 25 1 -1 21 2 0.19375612D+00 0.14255638D+00 0.28651180D+06 0.28651180D+06 0.28651180D+06 0.10860331D+01  1  2 12  2  6  2       -2 0.394236782813D-09 0.100000000000D+01
-.993785337735D-05 0.000000000000D+00 0.000000000000D+00 0.662352620702D-04 0.000000000000D+00  6 2 -2 25 1 -1 21 2 0.19375612D+00 0.13942370D+00 0.27290457D+06 0.27290457D+06 0.27290457D+06 0.10876066D+01  1  2  4  2  6  2       -2 -.942471838908D-05 0.100000000000D+01
-.121580211795D+00 0.000000000000D+00 -.166725716577D-01 0.662352620702D-04 0.000000000000D+00  6 2 -2 25 1 -1 21 2 0.19375612D+00 0.14270097D+00 0.27290457D+06 0.27290457D+06 0.27290457D+06 0.10876066D+01  1  2  5  2  6  2       -2 -.108282095197D+00 0.100000000000D+01
0.121939164287D+00 0.000000000000D+00 0.166680726707D-01 0.662352620702D-04 0.000000000000D+00  6 2 -2 25 1 -1 21 2 0.19375612D+00 0.13942370D+00 0.27290457D+06 0.27290457D+06 0.27290457D+06 0.10876066D+01  1  2  6  2  6  2       -2 0.115642910030D+00 0.100000000000D+01
0.172410725137D-10 0.000000000000D+00 0.000000000000D+00 0.662352620702D-04 0.000000000000D+00  6 2 21 25 1 2 -1 2 0.19375612D+00 0.14255638D+00 0.28651180D+06 0.28651180D+06 0.28651180D+06 0.10860331D+01  3  4 12  6  5  2       -2 0.131996661581D-09 0.100000000000D+01
-.508381719866D-03 0.000000000000D+00 -.701650385126D-04 0.662352620702D-04 0.000000000000D+00  6 2 21 25 1 2 -1 2 0.19375612D+00 0.14270097D+00 0.27290457D+06 0.27290457D+06 0.27290457D+06 0.10876066D+01  3  4  5  6  5  2       -2 -.390986003450D-02 0.100000000000D+01
  </mgrwgt>
  </event>
  <event>
  6     66 0.18881543E-05 0.11224548E+03 0.75467711E-02 0.92976085E-01
        2 -1    0    0  503    0 0.00000000E+00 0.00000000E+00 0.83087665E+03 0.83087671E+03 0.32000000E+00 0.0000E+00 0.9000E+01
       -2 -1    0    0    0  501 0.00000000E+00 0.00000000E+00 -.92467797E+03 0.92467802E+03 0.32000000E+00 0.0000E+00 0.9000E+01
       25  1    1    2    0    0 -.56711583E+03 -.55016662E+02 -.51214885E+03 0.77625294E+03 0.12500000E+03 0.0000E+00 0.9000E+01
        1  1    1    2  502    0 0.39739667E+03 0.42157659E+02 0.56596071E+03 0.69282972E+03 0.32000000E+00 0.0000E+00 0.9000E+01
       -1  1    1    2    0  501 0.12672060E+03 -.11470013E+02 -.18498539E+03 0.22452031E+03 0.32000000E+00 0.0000E+00 0.9000E+01
       21  1    1    2  503  502 0.42998555E+02 0.24329016E+02 0.37372208E+02 0.61951765E+02 0.75000000E+00 0.0000E+00 0.9000E+01
#aMCatNLO 2  0  0  1  2 0.49404218D+02 0.00000000D+00  -5  6  0 0.00000000D+00 0.00000000D+00 0.00000000D+00 0.00000000D+00 0.00000000D+00
  <mgrwgt>
 0.1226618772D-03    3    2    0
 0.843896282119795D+03 0.000000000000000D+00 0.000000000000000D+00 0.843896282119795D+03
 0.843896282119795D+03 0.000000000000000D+00 0.000000000000000D+00 -.843896282119795D+03
 0.723863788586016D+03 -.548496187361429D+03 -.444759659023713D+02 -.453351525124960D+03
 0.749919705587351D+03 0.416350197783088D+03 0.528848782271874D+02 0.621478291888863D+03
 0.214009070066222D+03 0.132145989578341D+03 -.840891232481614D+01 -.168126766763903D+03
 0.000000000000000D+00 0.000000000000000D+00 0.000000000000000D+00 0.000000000000000D+00
 0.897925133701881D+03 0.000000000000000D+00 0.000000000000000D+00 0.897925133701881D+03
 0.855627662296897D+03 0.000000000000000D+00 0.000000000000000D+00 -.855627662296897D+03
 0.738788543624763D+03 -.567123616002664D+03 -.550155526204467D+02 -.453351525124960D+03
 0.738871566290996D+03 0.397389879894906D+03 0.421569394207327D+02 0.621478291888863D+03
 0.210855367257947D+03 0.126735180861760D+03 -.114704023877596D+02 -.168126766763903D+03
 0.650373188250726D+02 0.429985552459988D+02 0.243290155874736D+02 0.422974714049836D+02
-.379222873245D-07 0.000000000000D+00 0.000000000000D+00 0.531658695761D-06 0.000000000000D+00  6 2 -2 25 1 -1 21 2 0.12862753D+00 0.14030733D+00 0.33617567D+06 0.33617567D+06 0.33617567D+06 0.10809126D+01  1  2 13  1  6  1        2 -.628779171426D-07 0.100000000000D+01
-.112279862786D-04 0.000000000000D+00 0.000000000000D+00 0.531658695761D-06 0.000000000000D+00  6 2 -2 25 1 -1 21 2 0.12013542D+00 0.14030733D+00 0.31160038D+06 0.31160038D+06 0.31160038D+06 0.10833349D+01  1  2  8  1  6  1        2 -.205001603262D-04 0.100000000000D+01
0.889430579211D-04 0.000000000000D+00 0.000000000000D+00 0.531658695761D-06 0.250721074717D-08  6 2 -2 25 1 -1 21 2 0.12782687D+00 0.14225780D+00 0.33617567D+06 0.33617567D+06 0.33617567D+06 0.10809126D+01  1  2  1  1  6  1        2 0.143224915485D-03 0.100000000000D+01
  </mgrwgt>
  </event>
  <event>
  5     66 0.18881543E-05 0.50698548E+02 0.75467711E-02 0.82887743E-01
        2 -1    0    0  502    0 0.00000000E+00 0.00000000E+00 0.11356654E+04 0.11356654E+04 0.32000000E+00 0.0000E+00 0.9000E+01
       -2 -1    0    0    0  501 0.00000000E+00 0.00000000E+00 -.91747334E+03 0.91747340E+03 0.32000000E+00 0.0000E+00 0.9000E+01
       25  1    1    2    0    0 0.90615647E+03 0.29068816E+03 0.27101343E+03 0.99734269E+03 0.12500000E+03 0.0000E+00 0.9000E+01
        1  1    1    2  502    0 -.20187382E+02 -.46646912E+02 0.11123838E+03 0.12230104E+03 0.32000000E+00 0.0000E+00 0.9000E+01
       -1  1    1    2    0  501 -.88596909E+03 -.24404125E+03 -.16405977E+03 0.93349509E+03 0.32000000E+00 0.0000E+00 0.9000E+01
#aMCatNLO 1  0  0  2  2 0.12944675D+03 0.00000000D+00  -5  6  0 0.00000000D+00 0.00000000D+00 0.00000000D+00 0.00000000D+00 0.00000000D+00
  <mgrwgt>
 0.5153746156D-04    3    2    0
 0.102075599789171D+04 0.000000000000000D+00 0.000000000000000D+00 0.102075599789171D+04
 0.102075599789171D+04 0.000000000000000D+00 0.000000000000000D+00 -.102075599789171D+04
 0.974183418427946D+03 0.906264687617331D+03 0.290655353394130D+03 0.166168932900083D+03
 0.110825680590301D+03 -.201360492154749D+02 -.465282961410432D+02 0.985494224158963D+02
 0.956502896765178D+03 -.886128638401856D+03 -.244127057253087D+03 -.264718355315980D+03
 0.000000000000000D+00 0.000000000000000D+00 -.000000000000000D+00 0.000000000000000D+00
 0.266071299801606D+04 0.000000000000000D+00 0.000000000000000D+00 0.266071299801606D+04
 0.133528894572521D+04 0.000000000000000D+00 0.000000000000000D+00 -.133528894572521D+04
 0.664650635911406D+03 0.513903138613929D+03 0.366642765753037D+03 0.166168932900083D+03
 0.130504465321429D+03 -.779141199239910D+02 -.353386010871275D+02 0.985494224158963D+02
 0.150452519217977D+04 -.147533581930132D+04 -.130017177899318D+03 -.264718355315980D+03
 0.169632165032867D+04 0.103934680061138D+04 -.201286986766591D+03 0.132542405229085D+04
0.104969025663D-03 0.000000000000D+00 0.000000000000D+00 0.657469354232D-07 0.000000000000D+00  6 2 -2 25 1 -1 21 0 0.17471776D+00 0.14114975D+00 0.93098127D+06 0.93098127D+06 0.93098127D+06 0.10499377D+01  1  2  2  2  6  2       -2 0.896994044695D-04 0.100000000000D+01
0.304042654791D-04 0.000000000000D+00 -.403108697525D-06 0.657469354232D-07 0.000000000000D+00  6 2 -2 25 1 -1 21 2 0.17471776D+00 0.14114975D+00 0.93098127D+06 0.93098127D+06 0.93098127D+06 0.10499377D+01  1  2  3  2  6  2       -2 0.286411199835D-04 0.100000000000D+01
-.709154551264D-04 0.000000000000D+00 0.000000000000D+00 0.657469354232D-07 0.000000000000D+00  6 2 -2 25 1 -1 21 2 0.17471776D+00 0.14114975D+00 0.93098127D+06 0.93098127D+06 0.93098127D+06 0.10499377D+01  1  2 15  2  6  2       -2 -.668030628912D-04 0.100000000000D+01
  </mgrwgt>
  </event>
  <event>
  6     66 0.18881543E-05 0.15288467E+03 0.75467711E-02 0.94221788E-01
        2 -1    0    0  502    0 0.00000000E+00 0.00000000E+00 0.90031006E+03 0.90031012E+03 0.32000000E+00 0.0000E+00 0.9000E+01
       -2 -1    0    0    0  501 0.00000000E+00 0.00000000E+00 -.70213698E+03 0.70213705E+03 0.32000000E+00 0.0000E+00 0.9000E+01
       25  1    1    2    0    0 -.39232048E+03 -.24294675E+03 0.15110962E+02 0.47832188E+03 0.12500000E+03 0.0000E+00 0.9000E+01
        1  1    1    2  503    0 0.20878258E+03 0.13495477E+03 0.17330454E+03 0.30304706E+03 0.32000000E+00 0.0000E+00 0.9000E+01
       -1  1    1    2    0  501 0.10443281E+03 0.17656053E+03 -.37222602E+03 0.42500841E+03 0.32000000E+00 0.0000E+00 0.9000E+01
       21  1    1    2  502  503 0.79105086E+02 -.68568558E+02 0.38198361E+03 0.39606982E+03 0.75000000E+00 0.0000E+00 0.9000E+01
#aMCatNLO 2  0  0  4  5 0.15134580D+03 0.00000000D+00  -5  6  0 0.00000000D+00 0.00000000D+00 0.00000000D+00 0.00000000D+00 0.00000000D+00
  <mgrwgt>
 0.9561986916D-04    2    2    0
 0.795073008895575D+03 0.000000000000000D+00 0.000000000000000D+00 0.795073008895575D+03
 0.795073008895575D+03 -.000000000000000D+00 -.000000000000000D+00 -.795073008895575D+03
 0.494275883353551D+03 -.404961645801189D+03 -.245959587177427D+03 -.647579784307254D+02
 0.605807287695952D+03 0.312986841851170D+03 0.721740269469894D+02 0.513646392460622D+03
 0.490062846741648D+03 0.919748039500190D+02 0.173785560230438D+03 -.448888414029897D+03
 0.000000000000000D+00 0.000000000000000D+00 0.000000000000000D+00 0.000000000000000D+00
 0.795073008895575D+03 0.000000000000000D+00 0.000000000000000D+00 0.795073008895575D+03
 0.795073008895575D+03 -.000000000000000D+00 -.000000000000000D+00 -.795073008895575D+03
 0.480129629676832D+03 -.392297763421697D+03 -.243039325792939D+03 -.439751319049756D+02
 0.283282326170480D+03 0.208444792519160D+03 0.134813724592159D+03 0.136473090584891D+03
 0.474957429544527D+03 0.104516710896652D+03 0.176677694368024D+03 -.428305742823616D+03
 0.351776632399312D+03 0.793362600058845D+02 -.684520931672441D+02 0.335807784143700D+03
-.689768058921D-09 0.000000000000D+00 0.000000000000D+00 0.275114558273D-05 0.000000000000D+00  6 2 -2 25 1 -1 21 2 0.13850925D+00 0.10802108D+00 0.26853939D+06 0.26853939D+06 0.26853939D+06 0.10881295D+01  1  2 13  3  6  4        1 -.208485915653D-08 0.100000000000D+01
0.316361752353D-04 0.000000000000D+00 0.000000000000D+00 0.275114558273D-05 0.342731947270D-09  6 2 -2 25 1 -1 21 2 0.13850925D+00 0.10802108D+00 0.26853939D+06 0.26853939D+06 0.26853939D+06 0.10881295D+01  1  2  1  3  6  4        1 0.956219540232D-04 0.100000000000D+01
  </mgrwgt>
  </event>
  <event>
  6     66 0.18881543E-05 0.15167542E+03 0.75467711E-02 0.94276178E-01
        2 -1    0    0  502    0 0.00000000E+00 0.00000000E+00 0.17832122E+04 0.17832122E+04 0.32000000E+00 0.0000E+00 0.9000E+01
       -2 -1    0    0    0  503 0.00000000E+00 0.00000000E+00 -.63886460E+03 0.63886468E+03 0.32000000E+00 0.0000E+00 0.9000E+01
       25  1    1    2    0    0 -.78635315E+02 -.48443478E+03 0.46485251E+03 0.68743976E+03 0.12500000E+03 0.0000E+00 0.9000E+01
        1  1    1    2  502    0 -.95898776E+01 0.33751040E+03 0.11637451E+04 0.12117376E+04 0.32000000E+00 0.0000E+00 0.9000E+01
       -1  1    1    2    0  501 0.10221876E+03 0.12767347E+03 -.46280750E+03 0.49085647E+03 0.32000000E+00 0.0000E+00 0.9000E+01
       21  1    1    2  501  503 -.13993565E+02 0.19250917E+02 -.21442500E+02 0.32043111E+02 0.75000000E+00 0.0000E+00 0.9000E+01
#aMCatNLO 2  0  0  2  1 0.23799531D+02 0.00000000D+00  -5  6  0 0.00000000D+00 0.00000000D+00 0.00000000D+00 0.00000000D+00 0.00000000D+00
  <mgrwgt>
 0.3368627978D-03    3    2    0
 0.104314771769406D+04 0.000000000000000D+00 0.000000000000000D+00 0.104314771769406D+04
 0.104314771769406D+04 0.000000000000000D+00 0.000000000000000D+00 -.104314771769406D+04
 0.523849080728666D+03 -.821760978507460D+02 -.479567050061197D+03 0.148510581501434D+03
 0.740968741737764D+03 -.145478402365861D+02 0.344296856083521D+03 0.655959382483320D+03
 0.821477612921686D+03 0.967239380873321D+02 0.135270193977676D+03 -.804469963984754D+03
 0.000000000000000D+00 -.000000000000000D+00 0.000000000000000D+00 -.000000000000000D+00
 0.104632273913545D+04 0.000000000000000D+00 0.000000000000000D+00 0.104632273913545D+04
 0.108878931930756D+04 0.000000000000000D+00 0.000000000000000D+00 -.108878931930756D+04
 0.527757097664993D+03 -.786494544177344D+02 -.484418646046656D+03 0.148510581501434D+03
 0.737742436784776D+03 -.958886683551390D+01 0.337474806760522D+03 0.655959382483320D+03
 0.820931643756312D+03 0.102231885775723D+03 0.127692921877249D+03 -.804469963984754D+03
 0.486808802369282D+02 -.139935645224747D+02 0.192509174088846D+02 -.424665801721046D+02
-.125245293074D-08 0.000000000000D+00 0.000000000000D+00 0.208790928235D-04 0.000000000000D+00  6 2 -2 25 1 -1 21 2 0.27350712D+00 0.98426368D-01 0.26595501D+06 0.26595501D+06 0.26595501D+06 0.10884436D+01  1  2 13  2  6  2       -2 -.149434673030D-08 0.100000000000D+01
-.729350294650D-03 0.000000000000D+00 0.000000000000D+00 0.208790928235D-04 0.000000000000D+00  6 2 -2 25 1 -1 21 2 0.27350712D+00 0.94166466D-01 0.25667119D+06 0.25667119D+06 0.25667119D+06 0.10895997D+01  1  2  8  2  6  2       -2 -.971128809478D-03 0.100000000000D+01
0.109995476567D-02 0.000000000000D+00 0.000000000000D+00 0.208790928235D-04 0.354885020498D-07  6 2 -2 25 1 -1 21 2 0.27433959D+00 0.98286600D-01 0.26595501D+06 0.26595501D+06 0.26595501D+06 0.10884436D+01  1  2  1  2  6  2       -2 0.130799310165D-02 0.100000000000D+01
  </mgrwgt>
  </event>
  <event>
  5     66 -.18881543E-05 0.18632357E+03 0.75467711E-02 0.93403706E-01
        2 -1    0    0  502    0 0.00000000E+00 0.00000000E+00 0.10857045E+04 0.10857046E+04 0.32000000E+00 0.0000E+00 0.9000E+01
       -2 -1    0    0    0  501 0.00000000E+00 0.00000000E+00 -.10036419E+04 0.10036420E+04 0.32000000E+00 0.0000E+00 0.9000E+01
       25  1    1    2    0    0 0.29887220E+03 0.45414429E+03 -.16244538E+03 0.58102076E+03 0.12500000E+03 0.0000E+00 0.9000E+01
        1  1    1    2  502    0 -.14052760E+03 -.14169981E+03 0.81489216E+03 0.83897329E+03 0.32000000E+00 0.0000E+00 0.9000E+01
       -1  1    1    2    0  501 -.15834460E+03 -.31244448E+03 -.57038419E+03 0.66935251E+03 0.32000000E+00 0.0000E+00 0.9000E+01
#aMCatNLO 1  0  0  2  5 0.11077427D+02 0.00000000D+00  -5  6  0 0.00000000D+00 0.00000000D+00 0.00000000D+00 0.00000000D+00 0.00000000D+00
  <mgrwgt>
 -.7651761982D-03   11    4    0
 0.104386718174912D+04 0.000000000000000D+00 0.000000000000000D+00 0.104386718174912D+04
 0.104386718174912D+04 0.000000000000000D+00 0.000000000000000D+00 -.104386718174912D+04
 0.587862611939976D+03 0.298887076161927D+03 0.454178213823119D+03 -.185327052285161D+03
 0.807533503690025D+03 -.140517744088541D+03 -.141689876189141D+03 0.782489042839362D+03
 0.692338247868247D+03 -.158369332073386D+03 -.312488337633978D+03 -.597161990554201D+03
 0.000000000000000D+00 -.000000000000000D+00 -.000000000000000D+00 -.000000000000000D+00
 0.104403950824348D+04 0.000000000000000D+00 0.000000000000000D+00 0.104403950824348D+04
 0.123849494859354D+04 0.000000000000000D+00 0.000000000000000D+00 -.123849494859354D+04
 0.589784341777055D+03 0.301979369178039D+03 0.454623925995456D+03 -.185327052285161D+03
 0.806699662702430D+03 -.136279052746406D+03 -.141078926218965D+03 0.782489042839362D+03
 0.691279746983236D+03 -.154736195462332D+03 -.311964670179804D+03 -.597161990554201D+03
 0.194770705374293D+03 -.109641209693002D+02 -.158032959668621D+01 -.194455440350060D+03
 0.104386718174912D+04 0.000000000000000D+00 0.000000000000000D+00 0.104386718174912D+04
 0.104386718174912D+04 0.000000000000000D+00 0.000000000000000D+00 -.104386718174912D+04
 0.587862611939976D+03 0.298887076161927D+03 0.454178213823119D+03 -.185327052285161D+03
 0.807533503690025D+03 -.140517744088541D+03 -.141689876189141D+03 0.782489042839362D+03
 0.000000000000000D+00 -.000000000000000D+00 -.000000000000000D+00 -.000000000000000D+00
 0.692338247868247D+03 -.158369332073386D+03 -.312488337633978D+03 -.597161990554201D+03
 0.104403950824348D+04 0.000000000000000D+00 0.000000000000000D+00 0.104403950824348D+04
 0.123849494859354D+04 0.000000000000000D+00 0.000000000000000D+00 -.123849494859354D+04
 0.589784341777055D+03 0.301979369178039D+03 0.454623925995456D+03 -.185327052285161D+03
 0.806699662702430D+03 -.136279052746406D+03 -.141078926218965D+03 0.782489042839362D+03
 0.194770705374293D+03 -.109641209693002D+02 -.158032959668621D+01 -.194455440350060D+03
 0.691279746983236D+03 -.154736195462332D+03 -.311964670179804D+03 -.597161990554201D+03
0.833994294925D-05 0.000000000000D+00 0.000000000000D+00 0.772211004382D-05 0.000000000000D+00  6 2 -2 25 1 -1 21 0 0.16703147D+00 0.15440646D+00 0.30678659D+06 0.30678659D+06 0.30678659D+06 0.10838338D+01  1  2  2  2  6  2       -2 0.634382303831D-05 0.100000000000D+01
0.991049183001D-06 0.000000000000D+00 -.320275768825D-07 0.772211004382D-05 0.000000000000D+00  6 2 -2 25 1 -1 21 2 0.16703147D+00 0.15440646D+00 0.30678659D+06 0.30678659D+06 0.30678659D+06 0.10838338D+01  1  2  3  2  6  2       -2 0.885540837149D-06 0.100000000000D+01
-.541515413240D-05 0.000000000000D+00 0.000000000000D+00 0.772211004382D-05 0.000000000000D+00  6 2 -2 25 1 -1 21 2 0.16703147D+00 0.15440646D+00 0.30678659D+06 0.30678659D+06 0.30678659D+06 0.10838338D+01  1  2 15  2  6  2       -2 -.483864999432D-05 0.100000000000D+01
0.319571768878D-08 0.000000000000D+00 0.000000000000D+00 0.772211004382D-05 0.000000000000D+00  6 2 -2 25 1 -1 21 2 0.16703147D+00 0.18320661D+00 0.31101274D+06 0.31101274D+06 0.31101274D+06 0.10833954D+01  1  2 12  2  6  2       -2 0.173912648567D-08 0.100000000000D+01
0.609024169366D-02 0.000000000000D+00 0.000000000000D+00 0.772211004382D-05 0.000000000000D+00  6 2 -2 25 1 -1 21 2 0.16703147D+00 0.18349569D+00 0.31101274D+06 0.31101274D+06 0.31101274D+06 0.10833954D+01  1  2 12  2  6  2       -2 0.329871630720D-02 0.100000000000D+01
-.686158256136D-02 0.000000000000D+00 0.000000000000D+00 0.772211004382D-05 0.000000000000D+00  6 2 -2 25 1 -1 21 2 0.16703147D+00 0.15440646D+00 0.30678659D+06 0.30678659D+06 0.30678659D+06 0.10838338D+01  1  2  4  2  6  2       -2 -.613108982861D-02 0.100000000000D+01
-.617529446826D-02 0.000000000000D+00 -.118202756995D-04 0.772211004382D-05 0.000000000000D+00  6 2 -2 25 1 -1 21 2 0.16703147D+00 0.18320667D+00 0.30678659D+06 0.30678659D+06 0.30678659D+06 0.10838338D+01  1  2  5  2  6  2       -2 -.336618621760D-02 0.100000000000D+01
0.608822913966D-02 0.000000000000D+00 0.116494860855D-04 0.772211004382D-05 0.000000000000D+00  6 2 -2 25 1 -1 21 2 0.16703147D+00 0.15440646D+00 0.30678659D+06 0.30678659D+06 0.30678659D+06 0.10838338D+01  1  2  6  2  6  2       -2 0.544006858748D-02 0.100000000000D+01
0.809616135014D-10 0.000000000000D+00 0.000000000000D+00 0.772211004382D-05 0.000000000000D+00  6 2 21 25 1 2 -1 2 0.16703147D+00 0.18320661D+00 0.31101274D+06 0.31101274D+06 0.31101274D+06 0.10833954D+01  3  4 12  6  5  2       -2 0.356366807595D-09 0.100000000000D+01
0.155414406909D-03 0.000000000000D+00 0.000000000000D+00 0.772211004382D-05 0.000000000000D+00  6 2 21 25 1 2 -1 2 0.16703147D+00 0.18349569D+00 0.31101274D+06 0.31101274D+06 0.31101274D+06 0.10833954D+01  3  4 12  6  5  2       -2 0.680562987440D-03 0.100000000000D+01
-.156344054355D-03 0.000000000000D+00 -.299460173322D-06 0.772211004382D-05 0.000000000000D+00  6 2 21 25 1 2 -1 2 0.16703147D+00 0.18320667D+00 0.30678659D+06 0.30678659D+06 0.30678659D+06 0.10838338D+01  3  4  5  6  5  2       -2 -.689640843440D-03 0.100000000000D+01
  </mgrwgt>
  </event>
  <event>
  5     66 -.18881543E-05 0.27323999E+02 0.75467711E-02 0.94441291E-01
        2 -1    0    0  502    0 0.00000000E+00 0.00000000E+00 0.10394965E+04 0.10394965E+04 0.32000000E+00 0.0000E+00 0.9000E+01
       -2 -1    0    0    0  501 0.00000000E+00 0.00000000E+00 -.47054612E+03 0.47054623E+03 0.32000000E+00 0.0000E+00 0.9000E+01
       25  1    1    2    0    0 0.11727437E+03 -.48007434E+03 -.21100430E+02 0.51019102E+03 0.12500000E+03 0.0000E+00 0.9000E+01
        1  1    1    2  502    0 -.13547124E+03 0.45969047E+03 0.72118761E+03 0.86589807E+03 0.32000000E+00 0.0000E+00 0.9000E+01
       -1  1    1    2    0  501 0.18196878E+02 0.20383865E+02 -.13113680E+03 0.13395369E+03 0.32000000E+00 0.0000E+00 0.9000E+01
#aMCatNLO 1  0  0  5  2 0.27059013D+01 0.00000000D+00  -5  6  0 0.00000000D+00 0.00000000D+00 0.00000000D+00 0.00000000D+00 0.00000000D+00
  <mgrwgt>
 -.5294524997D-01    9    2    0
 0.699379127950712D+03 0.000000000000000D+00 0.000000000000000D+00 0.699379127950712D+03
 0.699379127950712D+03 -.000000000000000D+00 -.000000000000000D+00 -.699379127950712D+03
 0.559369293847309D+03 0.117275372574421D+03 -.480075818347137D+03 -.230310013948796D+03
 0.641444912339550D+03 -.135471745828549D+03 0.459692174912156D+03 0.426359104480004D+03
 0.197944049714564D+03 0.181963732541281D+02 0.203836434349814D+02 -.196049090531208D+03
 0.000000000000000D+00 0.000000000000000D+00 0.000000000000000D+00 -.000000000000000D+00
 0.699379127950712D+03 0.000000000000000D+00 0.000000000000000D+00 0.699379127950712D+03
 0.699379127950712D+03 -.000000000000000D+00 -.000000000000000D+00 -.699379127950712D+03
 0.559381387753140D+03 0.117278654875119D+03 -.480072141501969D+03 -.230345377702756D+03
 0.641420185883876D+03 -.135467982032847D+03 0.459696391129777D+03 0.426318553062746D+03
 0.580364777191071D+02 0.601567655092504D+01 0.856596511358662D+01 -.570847494813447D+02
 0.139920204545300D+03 0.121736506068024D+02 0.118097852586051D+02 -.138888425878645D+03
0.249704933834D-04 0.000000000000D+00 0.000000000000D+00 0.131495378307D-04 0.000000000000D+00  6 2 -2 25 1 -1 21 0 0.15992255D+00 0.72391723D-01 0.25822586D+06 0.25822586D+06 0.25822586D+06 0.10894030D+01  1  2  2  4  6  5       -1 0.132215747245D-03 0.100000000000D+01
0.996780221225D-05 0.000000000000D+00 -.958932694740D-07 0.131495378307D-04 0.000000000000D+00  6 2 -2 25 1 -1 21 2 0.15992255D+00 0.72391723D-01 0.25822586D+06 0.25822586D+06 0.25822586D+06 0.10894030D+01  1  2  3  4  6  5       -1 0.626372360021D-04 0.100000000000D+01
-.166614884313D-04 0.000000000000D+00 0.000000000000D+00 0.131495378307D-04 0.000000000000D+00  6 2 -2 25 1 -1 21 2 0.15992255D+00 0.72391723D-01 0.25822586D+06 0.25822586D+06 0.25822586D+06 0.10894030D+01  1  2 15  4  6  5       -1 -.104700069363D-03 0.100000000000D+01
0.638436246811D-10 0.000000000000D+00 0.000000000000D+00 0.131495378307D-04 0.000000000000D+00  6 2 -2 25 1 -1 21 2 0.15992255D+00 0.72391723D-01 0.25827889D+06 0.25827889D+06 0.25827889D+06 0.10893963D+01  1  2 12  4  6  5       -1 0.401182392885D-09 0.100000000000D+01
0.197373979237D-04 0.000000000000D+00 0.000000000000D+00 0.131495378307D-04 0.000000000000D+00  6 2 -2 25 1 -1 21 2 0.15992255D+00 0.72391723D-01 0.25827889D+06 0.25827889D+06 0.25827889D+06 0.10893963D+01  1  2 12  4  6  5       -1 0.124026425002D-03 0.100000000000D+01
-.153810035950D-01 0.000000000000D+00 0.000000000000D+00 0.131495378307D-04 0.000000000000D+00  6 2 -2 25 1 -1 21 2 0.15992255D+00 0.72391723D-01 0.25822586D+06 0.25822586D+06 0.25822586D+06 0.10894030D+01  1  2  4  4  6  5       -1 -.966535582885D-01 0.100000000000D+01
-.239736969773D-02 0.000000000000D+00 0.000000000000D+00 0.131495378307D-04 0.000000000000D+00  6 2 -2 25 1 -1 21 2 0.15992255D+00 0.72391723D-01 0.25822586D+06 0.25822586D+06 0.25822586D+06 0.10894030D+01  1  2  5  4  6  5       -1 -.150649670151D-01 0.100000000000D+01
0.619141972544D-02 0.000000000000D+00 -.000000000000D+00 0.131495378307D-04 0.000000000000D+00  6 2 -2 25 1 -1 21 2 0.15992255D+00 0.72391723D-01 0.25822586D+06 0.25822586D+06 0.25822586D+06 0.10894030D+01  1  2  6  4  6  5       -1 0.389066125383D-01 0.100000000000D+01
0.312746963618D-02 0.000000000000D+00 0.000000000000D+00 0.131495378307D-04 0.238832263226D-05  6 2 -2 25 1 -1 21 2 0.15992255D+00 0.72391723D-01 0.25827889D+06 0.25827889D+06 0.25827889D+06 0.10893963D+01  1  2 11  4  6  5       -1 0.196524830566D-01 0.100000000000D+01
  </mgrwgt>
  </event>
  <event>
  5     66 0.18881543E-05 0.12463473E+03 0.75467711E-02 0.94300904E-01
        2 -1    0    0  502    0 0.00000000E+00 0.00000000E+00 0.31978141E+04 0.31978141E+04 0.32000000E+00 0.0000E+00 0.9000E+01
       -2 -1    0    0    0  501 0.00000000E+00 0.00000000E+00 -.13001888E+03 0.13001927E+03 0.32000000E+00 0.0000E+00 0.9000E+01
       25  1    1    2    0    0 -.35967041E+02 -.49736534E+03 0.89285495E+03 0.10302819E+04 0.12500000E+03 0.0000E+00 0.9000E+01
        1  1    1    2  502    0 -.77629403E+01 0.21847390E+03 0.18671566E+04 0.18799109E+04 0.32000000E+00 0.0000E+00 0.9000E+01
       -1  1    1    2    0  501 0.43729981E+02 0.27889144E+03 0.30778370E+03 0.41764058E+03 0.32000000E+00 0.0000E+00 0.9000E+01
#aMCatNLO 1  0  0  1  4 0.16651498D+02 0.00000000D+00  -5  6  0 0.00000000D+00 0.00000000D+00 0.00000000D+00 0.00000000D+00 0.00000000D+00
  <mgrwgt>
 0.1475252466D-02   11    2    0
 0.644807632297822D+03 0.000000000000000D+00 0.000000000000000D+00 0.644807632297822D+03
 0.644807632297822D+03 0.000000000000000D+00 0.000000000000000D+00 -.644807632297822D+03
 0.534661443225996D+03 -.359772171535906D+02 -.497399977079442D+03 -.146754085189336D+03
 0.409310868380379D+03 -.776114007388109D+01 0.218423234663745D+03 0.346072885730853D+03
 0.345642952989268D+03 0.437383572274717D+02 0.278976742415697D+03 -.199318800541518D+03
 0.000000000000000D+00 -.000000000000000D+00 0.000000000000000D+00 0.000000000000000D+00
 0.684014111057588D+03 0.000000000000000D+00 0.000000000000000D+00 0.684014111057588D+03
 0.646631834857809D+03 0.000000000000000D+00 0.000000000000000D+00 -.646631834857809D+03
 0.540203186092123D+03 -.328004404013262D+02 -.503569113284166D+03 -.146754085189336D+03
 0.406791744027224D+03 -.534913791487113D+01 0.213739251178153D+03 0.346072885730853D+03
 0.342727831980259D+03 0.457728462663533D+02 0.275025869890918D+03 -.199318800541518D+03
 0.409231838157915D+02 -.762326795015594D+01 0.148039922150942D+02 0.373822761997797D+02
0.369071591071D-04 0.000000000000D+00 0.000000000000D+00 0.288092455897D-06 0.000000000000D+00  6 2 -2 25 1 -1 21 0 0.49197143D+00 0.20002936D-01 0.25759290D+06 0.25759290D+06 0.25759290D+06 0.10894829D+01  1  2  2  1  6  1        2 0.125174480410D-03 0.100000000000D+01
0.203997264118D-05 0.000000000000D+00 -.141733208850D-06 0.288092455897D-06 0.000000000000D+00  6 2 -2 25 1 -1 21 2 0.49197143D+00 0.20002936D-01 0.25759290D+06 0.25759290D+06 0.25759290D+06 0.10894829D+01  1  2  3  1  6  1        2 0.821240542114D-05 0.100000000000D+01
-.245039402571D-04 0.000000000000D+00 0.000000000000D+00 0.288092455897D-06 0.000000000000D+00  6 2 -2 25 1 -1 21 2 0.49197143D+00 0.20002936D-01 0.25759290D+06 0.25759290D+06 0.25759290D+06 0.10894829D+01  1  2 15  1  6  1        2 -.986465640490D-04 0.100000000000D+01
0.216270184868D-06 0.000000000000D+00 0.000000000000D+00 0.288092455897D-06 0.000000000000D+00  6 2 -2 25 1 -1 21 2 0.52255695D+00 0.20002936D-01 0.26478936D+06 0.26478936D+06 0.26478936D+06 0.10885863D+01  1  2 12  1  6  1        2 0.637228073415D-06 0.100000000000D+01
0.465905281472D-03 0.000000000000D+00 0.000000000000D+00 0.288092455897D-06 0.000000000000D+00  6 2 -2 25 1 -1 21 2 0.53606483D+00 0.20002936D-01 0.26478936D+06 0.26478936D+06 0.26478936D+06 0.10885863D+01  1  2 12  1  6  1        2 0.119199168361D-02 0.100000000000D+01
-.300582645915D-03 0.000000000000D+00 0.000000000000D+00 0.288092455897D-06 0.000000000000D+00  6 2 -2 25 1 -1 21 2 0.49197143D+00 0.20002936D-01 0.25759290D+06 0.25759290D+06 0.25759290D+06 0.10894829D+01  1  2  4  1  6  1        2 -.121006845924D-02 0.100000000000D+01
-.136572155139D-02 0.000000000000D+00 -.887660689866D-04 0.288092455897D-06 0.000000000000D+00  6 2 -2 25 1 -1 21 2 0.52223381D+00 0.20002936D-01 0.25759290D+06 0.25759290D+06 0.25759290D+06 0.10894829D+01  1  2  5  1  6  1        2 -.405143458133D-02 0.100000000000D+01
0.136873889283D-02 0.000000000000D+00 0.886081461981D-04 0.288092455897D-06 0.000000000000D+00  6 2 -2 25 1 -1 21 2 0.49197143D+00 0.20002936D-01 0.25759290D+06 0.25759290D+06 0.25759290D+06 0.10894829D+01  1  2  6  1  6  1        2 0.551019090975D-02 0.100000000000D+01
0.323610411860D-08 0.000000000000D+00 0.000000000000D+00 0.288092455897D-06 0.000000000000D+00  6 21 -2 25 1 -1 -2 2 0.52255695D+00 0.20002936D-01 0.26478936D+06 0.26478936D+06 0.26478936D+06 0.10885863D+01  1  2 12  5  6  1        2 0.389036487159D-09 0.100000000000D+01
0.957204567754D-05 0.000000000000D+00 0.000000000000D+00 0.288092455897D-06 0.000000000000D+00  6 21 -2 25 1 -1 -2 2 0.53606483D+00 0.20002936D-01 0.26478936D+06 0.26478936D+06 0.26478936D+06 0.10885863D+01  1  2 12  5  6  1        2 0.887416164349D-06 0.100000000000D+01
-.139246268989D-04 0.000000000000D+00 -.910391146158D-06 0.288092455897D-06 0.000000000000D+00  6 21 -2 25 1 -1 -2 2 0.52223381D+00 0.20002936D-01 0.25759290D+06 0.25759290D+06 0.25759290D+06 0.10894829D+01  1  2  5  5  6  1        2 -.169244220778D-05 0.100000000000D+01
  </mgrwgt>
  </event>
  <event>
  5     66 0.18881543E-05 0.40852216E+02 0.75467711E-02 0.91256611E-01
        2 -1    0    0  502    0 0.00000000E+00 0.00000000E+00 0.19459133E+04 0.19459133E+04 0.32000000E+00 0.0000E+00 0.9000E+01
       -2 -1    0    0    0  501 0.00000000E+00 0.00000000E+00 -.36055919E+03 0.36055933E+03 0.32000000E+00 0.0000E+00 0.9000E+01
       25  1    1    2    0    0 -.17726613E+03 -.44115560E+03 0.48253331E+03 0.68884318E+03 0.12500000E+03 0.0000E+00 0.9000E+01
        1  1    1    2  502    0 0.83661460E+01 -.39997123E+02 0.11069224E+04 0.11076765E+04 0.32000000E+00 0.0000E+00 0.9000E+01
       -1  1    1    2    0  501 0.16889998E+03 0.48115272E+03 -.41016329E+01 0.50995301E+03 0.32000000E+00 0.0000E+00 0.9000E+01
#aMCatNLO 1  0  0  4  1 0.13810308D+02 0.00000000D+00  -5  6  0 0.00000000D+00 0.00000000D+00 0.00000000D+00 0.00000000D+00 0.00000000D+00
  <mgrwgt>
 0.2968241021D-01    6    2    0
 0.837625877373697D+03 0.000000000000000D+00 0.000000000000000D+00 0.837625877373697D+03
 0.837625877373697D+03 -.000000000000000D+00 -.000000000000000D+00 -.837625877373697D+03
 0.491846499267554D+03 -.177294640975019D+03 -.441245002966423D+03 0.125473694632982D+02
 0.477394229218158D+03 0.836399445418611D+01 -.399868369288249D+02 0.475643087366984D+03
 0.706011026261681D+03 0.168930646520833D+03 0.481231839895248D+03 -.488190456830283D+03
 0.000000000000000D+00 0.000000000000000D+00 0.000000000000000D+00 0.000000000000000D+00
 0.837625877373697D+03 0.000000000000000D+00 0.000000000000000D+00 0.837625877373697D+03
 0.837625877373697D+03 -.000000000000000D+00 -.000000000000000D+00 -.837625877373697D+03
 0.498133651781568D+03 -.176503621851122D+03 -.445026731049594D+03 0.575309930558187D+02
 0.250739809387079D+03 -.145621666435902D+03 0.857978624811099D+02 0.185212065129602D+03
 0.661082134286637D+03 0.170022988456172D+03 0.476009538627816D+03 -.426071227384274D+03
 0.265296159292110D+03 0.152102299830852D+03 -.116780670059332D+03 0.183328169198853D+03
0.116152387103D-01 0.000000000000D+00 0.000000000000D+00 0.328986555758D-04 0.000000000000D+00  6 2 -2 25 1 -1 21 0 0.29937129D+00 0.55470657D-01 0.27173277D+06 0.27173277D+06 0.27173277D+06 0.10877461D+01  1  2  2  3  6  4        1 0.334762034956D-01 0.100000000000D+01
0.520805057947D-02 0.000000000000D+00 -.446055750103D-04 0.328986555758D-04 0.000000000000D+00  6 2 -2 25 1 -1 21 2 0.29937129D+00 0.55470657D-01 0.27173277D+06 0.27173277D+06 0.27173277D+06 0.10877461D+01  1  2  3  3  6  4        1 0.177598087355D-01 0.100000000000D+01
-.798461291339D-02 0.000000000000D+00 0.000000000000D+00 0.328986555758D-04 0.000000000000D+00  6 2 -2 25 1 -1 21 2 0.29937129D+00 0.55470657D-01 0.27173277D+06 0.27173277D+06 0.27173277D+06 0.10877461D+01  1  2 15  3  6  4        1 -.272280762264D-01 0.100000000000D+01
-.713652738257D-03 0.000000000000D+00 0.000000000000D+00 0.328986555758D-04 0.000000000000D+00  6 2 -2 25 1 -1 21 2 0.29937129D+00 0.55470657D-01 0.27173277D+06 0.27173277D+06 0.27173277D+06 0.10877461D+01  1  2  4  3  6  4        1 -.243360465526D-02 0.100000000000D+01
-.354718182659D-02 0.000000000000D+00 0.000000000000D+00 0.328986555758D-04 0.000000000000D+00  6 2 -2 25 1 -1 21 2 0.29937129D+00 0.55470657D-01 0.27173277D+06 0.27173277D+06 0.27173277D+06 0.10877461D+01  1  2  5  3  6  4        1 -.120961326756D-01 0.100000000000D+01
0.592486986581D-02 0.000000000000D+00 -.000000000000D+00 0.328986555758D-04 0.000000000000D+00  6 2 -2 25 1 -1 21 2 0.29937129D+00 0.55470657D-01 0.27173277D+06 0.27173277D+06 0.27173277D+06 0.10877461D+01  1  2  6  3  6  4        1 0.202042115364D-01 0.100000000000D+01
  </mgrwgt>
  </event>
  <event>
  5     66 -.18881543E-05 0.66271931E+02 0.75467711E-02 0.93749182E-01
        2 -1    0    0  502    0 0.00000000E+00 0.00000000E+00 0.20295129E+04 0.20295129E+04 0.32000000E+00 0.0000E+00 0.9000E+01
       -2 -1    0    0    0  501 0.00000000E+00 0.00000000E+00 -.78230679E+03 0.78230686E+03 0.32000000E+00 0.0000E+00 0.9000E+01
       25  1    1    2    0    0 -.46261318E+03 -.15497557E+03 -.27408926E+03 0.57339193E+03 0.12500000E+03 0.0000E+00 0.9000E+01
        1  1    1    2  502    0 0.45864293E+03 0.22113429E+03 0.18419323E+04 0.19110124E+04 0.32000000E+00 0.0000E+00 0.9000E+01
       -1  1    1    2    0  501 0.39702555E+01 -.66158722E+02 -.32063693E+03 0.32741546E+03 0.32000000E+00 0.0000E+00 0.9000E+01
#aMCatNLO 1  0  0  2  5 0.21547911D+01 0.00000000D+00  -5  6  0 0.00000000D+00 0.00000000D+00 0.00000000D+00 0.00000000D+00 0.00000000D+00
  <mgrwgt>
 -.2217122815D-01   13    4    0
 0.126004041682448D+04 0.000000000000000D+00 0.000000000000000D+00 0.126004041682448D+04
 0.126004041682448D+04 0.000000000000000D+00 0.000000000000000D+00 -.126004041682448D+04
 0.775465183593197D+03 -.462614563643382D+03 -.154982461286765D+03 -.589651976307865D+03
 0.122066275929200D+04 0.458645265725933D+03 0.221135416810171D+03 0.110939678185118D+04
 0.523952890763754D+03 0.396929791744856D+01 -.661529555234057D+02 -.519744805543312D+03
 0.000000000000000D+00 -.000000000000000D+00 -.000000000000000D+00 -.000000000000000D+00
 0.126004448592427D+04 0.000000000000000D+00 0.000000000000000D+00 0.126004448592427D+04
 0.158172169524898D+04 0.000000000000000D+00 0.000000000000000D+00 -.158172169524898D+04
 0.775233157277832D+03 -.462439419460386D+03 -.154343053968510D+03 -.589651976307865D+03
 0.122094917304966D+04 0.458921034465612D+03 0.222142179051885D+03 0.110939678185118D+04
 0.523899424546599D+03 0.408764797485721D+01 -.657208892593226D+02 -.519744805543312D+03
 0.321684426299152D+03 -.569262980083233D+00 -.207823582405235D+01 -.321677209324711D+03
 0.126004041682448D+04 0.000000000000000D+00 0.000000000000000D+00 0.126004041682448D+04
 0.126004041682448D+04 0.000000000000000D+00 0.000000000000000D+00 -.126004041682448D+04
 0.775465183593197D+03 -.462614563643382D+03 -.154982461286765D+03 -.589651976307865D+03
 0.122066275929200D+04 0.458645265725933D+03 0.221135416810171D+03 0.110939678185118D+04
 0.000000000000000D+00 -.000000000000000D+00 -.000000000000000D+00 -.000000000000000D+00
 0.523952890763754D+03 0.396929791744856D+01 -.661529555234057D+02 -.519744805543312D+03
 0.126004448592427D+04 0.000000000000000D+00 0.000000000000000D+00 0.126004448592427D+04
 0.158172169524898D+04 0.000000000000000D+00 0.000000000000000D+00 -.158172169524898D+04
 0.775233157277832D+03 -.462439419460386D+03 -.154343053968510D+03 -.589651976307865D+03
 0.122094917304966D+04 0.458921034465612D+03 0.222142179051885D+03 0.110939678185118D+04
 0.321684426299152D+03 -.569262980083233D+00 -.207823582405235D+01 -.321677209324711D+03
 0.523899424546599D+03 0.408764797485721D+01 -.657208892593226D+02 -.519744805543312D+03
0.245979856617D-04 0.000000000000D+00 0.000000000000D+00 0.808771519687D-04 0.000000000000D+00  6 2 -2 25 1 -1 21 0 0.31223276D+00 0.12035490D+00 0.29110755D+06 0.29110755D+06 0.29110755D+06 0.10855200D+01  1  2  2  2  6  2       -2 0.108972477938D-04 0.100000000000D+01
0.556871966469D-05 0.000000000000D+00 -.944627417391D-07 0.808771519687D-04 0.000000000000D+00  6 2 -2 25 1 -1 21 2 0.31223276D+00 0.12035490D+00 0.29110755D+06 0.29110755D+06 0.29110755D+06 0.10855200D+01  1  2  3  2  6  2       -2 0.290702187370D-05 0.100000000000D+01
-.169146478425D-04 0.000000000000D+00 0.000000000000D+00 0.808771519687D-04 0.000000000000D+00  6 2 -2 25 1 -1 21 2 0.31223276D+00 0.12035490D+00 0.29110755D+06 0.29110755D+06 0.29110755D+06 0.10855200D+01  1  2 15  2  6  2       -2 -.882990242367D-05 0.100000000000D+01
0.487647774011D-10 0.000000000000D+00 0.000000000000D+00 0.808771519687D-04 0.000000000000D+00  6 2 -2 25 1 -1 21 2 0.31223276D+00 0.15108099D+00 0.29221990D+06 0.29221990D+06 0.29221990D+06 0.10853971D+01  1  2 12  2  6  2       -2 0.138888066625D-10 0.100000000000D+01
0.199009842713D-02 0.000000000000D+00 0.000000000000D+00 0.808771519687D-04 0.000000000000D+00  6 2 -2 25 1 -1 21 2 0.31223276D+00 0.15121022D+00 0.29221990D+06 0.29221990D+06 0.29221990D+06 0.10853971D+01  1  2 12  2  6  2       -2 0.565466407722D-03 0.100000000000D+01
-.109933017311D+01 0.000000000000D+00 0.000000000000D+00 0.808771519687D-04 0.000000000000D+00  6 2 -2 25 1 -1 21 2 0.31223276D+00 0.12035490D+00 0.29110755D+06 0.29110755D+06 0.29110755D+06 0.10855200D+01  1  2  4  2  6  2       -2 -.573880003320D+00 0.100000000000D+01
-.100650255085D+01 0.000000000000D+00 -.283449905679D-04 0.808771519687D-04 0.000000000000D+00  6 2 -2 25 1 -1 21 2 0.31223276D+00 0.15108101D+00 0.29110755D+06 0.29110755D+06 0.29110755D+06 0.10855200D+01  1  2  5  2  6  2       -2 -.286815659887D+00 0.100000000000D+01
0.981041465690D+00 0.000000000000D+00 0.276277622905D-04 0.808771519687D-04 0.000000000000D+00  6 2 -2 25 1 -1 21 2 0.31223276D+00 0.12035490D+00 0.29110755D+06 0.29110755D+06 0.29110755D+06 0.10855200D+01  1  2  6  2  6  2       -2 0.512130107365D+00 0.100000000000D+01
0.114032883091D+01 0.000000000000D+00 0.000000000000D+00 0.808771519687D-04 0.127584116875D-03  6 2 -2 25 1 -1 21 2 0.31223377D+00 0.15108083D+00 0.29221990D+06 0.29221990D+06 0.29221990D+06 0.10853971D+01  1  2 11  2  6  2       -2 0.324777900160D+00 0.100000000000D+01
0.153798759219D-11 0.000000000000D+00 0.000000000000D+00 0.808771519687D-04 0.000000000000D+00  6 2 21 25 1 2 -1 2 0.31223276D+00 0.15108099D+00 0.29221990D+06 0.29221990D+06 0.29221990D+06 0.10853971D+01  3  4 12  6  5  2       -2 0.372647533475D-11 0.100000000000D+01
0.627655215772D-04 0.000000000000D+00 0.000000000000D+00 0.808771519687D-04 0.000000000000D+00  6 2 21 25 1 2 -1 2 0.31223276D+00 0.15121022D+00 0.29221990D+06 0.29221990D+06 0.29221990D+06 0.10853971D+01  3  4 12  6  5  2       -2 0.151689888036D-03 0.100000000000D+01
-.317433699420D-01 0.000000000000D+00 -.893963980613D-06 0.808771519687D-04 0.000000000000D+00  6 2 21 25 1 2 -1 2 0.31223276D+00 0.15108101D+00 0.29110755D+06 0.29110755D+06 0.29110755D+06 0.10855200D+01  3  4  5  6  5  2       -2 -.769637675524D-01 0.100000000000D+01
0.321336752882D-01 0.000000000000D+00 0.000000000000D+00 0.808771519687D-04 0.359218368457D-05  6 2 21 25 1 2 -1 2 0.31223377D+00 0.15108083D+00 0.29221990D+06 0.29221990D+06 0.29221990D+06 0.10853971D+01  3  4 11  6  5  2       -2 0.778580644024D-01 0.100000000000D+01
  </mgrwgt>
  </event>
  <event>
  5     66 0.18881543E-05 0.27608925E+02 0.75467711E-02 0.93994054E-01
        2 -1    0    0  502    0 0.00000000E+00 0.00000000E+00 0.97726617E+03 0.97726622E+03 0.32000000E+00 0.0000E+00 0.9000E+01
       -2 -1    0    0    0  501 0.00000000E+00 0.00000000E+00 -.61746909E+03 0.61746918E+03 0.32000000E+00 0.0000E+00 0.9000E+01
       25  1    1    2    0    0 -.28482811E+03 0.37471584E+03 0.31536028E+03 0.58018628E+03 0.12500000E+03 0.0000E+00 0.9000E+01
        1  1    1    2  502    0 -.26723358E+02 -.69948315E+01 0.40919243E+03 0.41012390E+03 0.32000000E+00 0.0000E+00 0.9000E+01
       -1  1    1    2    0  501 0.31155147E+03 -.36772101E+03 -.36475564E+03 0.60442521E+03 0.32000000E+00 0.0000E+00 0.9000E+01
#aMCatNLO 1  0  0  1  4 0.19477017D+03 0.00000000D+00  -5  6  0 0.00000000D+00 0.00000000D+00 0.00000000D+00 0.00000000D+00 0.00000000D+00
  <mgrwgt>
 0.9019026803D-02    7    2    0
 0.776808704812998D+03 0.000000000000000D+00 0.000000000000000D+00 0.776808704812998D+03
 0.776808704812998D+03 0.000000000000000D+00 0.000000000000000D+00 -.776808704812998D+03
 0.522646345104387D+03 -.284899750489343D+03 0.374785772211711D+03 0.189478123195674D+03
 0.326040776664974D+03 -.267091218728206D+02 -.699110520734669D+01 0.324869720511257D+03
 0.704930287856636D+03 0.311608872362164D+03 -.367794667004364D+03 -.514347843706931D+03
 0.000000000000000D+00 0.000000000000000D+00 -.000000000000000D+00 0.000000000000000D+00
 0.824101950543771D+03 0.000000000000000D+00 0.000000000000000D+00 0.824101950543771D+03
 0.794354024388801D+03 0.000000000000000D+00 0.000000000000000D+00 -.794354024388801D+03
 0.537178458086895D+03 -.303123647424218D+03 0.380985289788329D+03 0.189478123195674D+03
 0.327092987808458D+03 -.379398860261130D+02 -.317055464036316D+01 0.324869720511257D+03
 0.690371354748967D+03 0.287616384876176D+03 -.359632754741158D+03 -.514347843706931D+03
 0.638131742882523D+02 0.534471485741552D+02 -.181819804068079D+02 0.297479261549693D+02
0.100628280113D-02 0.000000000000D+00 0.000000000000D+00 0.382512829461D-04 0.000000000000D+00  6 2 -2 25 1 -1 21 0 0.15034865D+00 0.94995256D-01 0.24837781D+06 0.24837781D+06 0.24837781D+06 0.10906719D+01  1  2  2  1  6  1        2 0.314307075591D-02 0.100000000000D+01
0.489674258354D-03 0.000000000000D+00 -.386439091669D-05 0.382512829461D-04 0.000000000000D+00  6 2 -2 25 1 -1 21 2 0.15034865D+00 0.94995256D-01 0.24837781D+06 0.24837781D+06 0.24837781D+06 0.10906719D+01  1  2  3  1  6  1        2 0.181940590213D-02 0.100000000000D+01
-.653747799451D-03 0.000000000000D+00 0.000000000000D+00 0.382512829461D-04 0.000000000000D+00  6 2 -2 25 1 -1 21 2 0.15034865D+00 0.94995256D-01 0.24837781D+06 0.24837781D+06 0.24837781D+06 0.10906719D+01  1  2 15  1  6  1        2 -.242902824588D-02 0.100000000000D+01
-.149847688150D-03 0.000000000000D+00 0.000000000000D+00 0.382512829461D-04 0.000000000000D+00  6 2 -2 25 1 -1 21 2 0.15034865D+00 0.94995256D-01 0.24837781D+06 0.24837781D+06 0.24837781D+06 0.10906719D+01  1  2  4  1  6  1        2 -.556765571375D-03 0.100000000000D+01
-.183254509685D-01 0.000000000000D+00 -.334397618574D-02 0.382512829461D-04 0.000000000000D+00  6 2 -2 25 1 -1 21 2 0.16170064D+00 0.94995256D-01 0.24837781D+06 0.24837781D+06 0.24837781D+06 0.10906719D+01  1  2  5  1  6  1        2 -.613263369881D-01 0.100000000000D+01
0.185285903048D-01 0.000000000000D+00 0.333513692429D-02 0.382512829461D-04 0.000000000000D+00  6 2 -2 25 1 -1 21 2 0.15034865D+00 0.94995256D-01 0.24837781D+06 0.24837781D+06 0.24837781D+06 0.10906719D+01  1  2  6  1  6  1        2 0.688437792748D-01 0.100000000000D+01
-.218913722879D-03 0.000000000000D+00 -.410517478884D-04 0.382512829461D-04 0.000000000000D+00  6 21 -2 25 1 -1 -2 2 0.16170064D+00 0.94995256D-01 0.24837781D+06 0.24837781D+06 0.24837781D+06 0.10906719D+01  1  2  5  5  6  1        2 -.475098324562D-03 0.100000000000D+01
  </mgrwgt>
  </event>
  <event>
  5     66 0.18881543E-05 0.56979816E+02 0.75467711E-02 0.95084022E-01
        2 -1    0    0  502    0 0.00000000E+00 0.00000000E+00 0.75289124E+03 0.75289131E+03 0.32000000E+00 0.0000E+00 0.9000E+01
       -2 -1    0    0    0  501 0.00000000E+00 0.00000000E+00 -.50947079E+03 0.50947089E+03 0.32000000E+00 0.0000E+00 0.9000E+01
       25  1    1    2    0    0 -.45748099E+03 -.59830519E+02 0.16967289E+03 0.50723017E+03 0.12500000E+03 0.0000E+00 0.9000E+01
        1  1    1    2  502    0 0.41429217E+03 0.22680775E+02 0.30628617E+03 0.51571673E+03 0.32000000E+00 0.0000E+00 0.9000E+01
       -1  1    1    2    0  501 0.43188823E+02 0.37149744E+02 -.23253862E+03 0.23941531E+03 0.32000000E+00 0.0000E+00 0.9000E+01
#aMCatNLO 1  0  0  5  2 0.18732940D+02 0.00000000D+00  -5  6  0 0.00000000D+00 0.00000000D+00 0.00000000D+00 0.00000000D+00 0.00000000D+00
  <mgrwgt>
 0.7817488844D-02    8    2    0
 0.619335288363451D+03 0.000000000000000D+00 0.000000000000000D+00 0.619335288363451D+03
 0.619335288363451D+03 -.000000000000000D+00 -.000000000000000D+00 -.619335288363451D+03
 0.483567790349895D+03 -.457443591071058D+03 -.598349247815014D+02 0.733345118500562D+02
 0.465337482977688D+03 0.414245458915258D+03 0.226782181348481D+02 0.210773269781360D+03
 0.289765303399320D+03 0.431981321558002D+02 0.371567066466534D+02 -.284107781631416D+03
 0.000000000000000D+00 0.000000000000000D+00 0.000000000000000D+00 -.000000000000000D+00
 0.619335288363451D+03 0.000000000000000D+00 0.000000000000000D+00 0.619335288363451D+03
 0.619335288363451D+03 -.000000000000000D+00 -.000000000000000D+00 -.619335288363451D+03
 0.483277746295356D+03 -.457301678194383D+03 -.597128589683554D+02 0.724011716669298D+02
 0.465058778352313D+03 0.414382021794114D+03 0.227956821680187D+02 0.209875115749494D+03
 0.153989291043894D+03 0.374861745011924D+02 0.800998094854845D+01 -.149141974918770D+03
 0.136344761035340D+03 0.543348189907752D+01 0.289071958517883D+02 -.133134312497653D+03
0.106810620595D-03 0.000000000000D+00 0.000000000000D+00 0.396612163050D-05 0.000000000000D+00  6 2 -2 25 1 -1 21 0 0.11582943D+00 0.78380134D-01 0.22553966D+06 0.22553966D+06 0.22553966D+06 0.10938392D+01  1  2  2  4  6  5       -1 0.735559713296D-03 0.100000000000D+01
0.277512378268D-04 0.000000000000D+00 -.410180906965D-06 0.396612163050D-05 0.000000000000D+00  6 2 -2 25 1 -1 21 2 0.11582943D+00 0.78380134D-01 0.22553966D+06 0.22553966D+06 0.22553966D+06 0.10938392D+01  1  2  3  4  6  5       -1 0.228661376010D-03 0.100000000000D+01
-.704856560590D-04 0.000000000000D+00 0.000000000000D+00 0.396612163050D-05 0.000000000000D+00  6 2 -2 25 1 -1 21 2 0.11582943D+00 0.78380134D-01 0.22553966D+06 0.22553966D+06 0.22553966D+06 0.10938392D+01  1  2 15  4  6  5       -1 -.580779394562D-03 0.100000000000D+01
0.200778447888D-07 0.000000000000D+00 0.000000000000D+00 0.396612163050D-05 0.000000000000D+00  6 2 -2 25 1 -1 21 2 0.11582943D+00 0.78380134D-01 0.23067754D+06 0.23067754D+06 0.23067754D+06 0.10930970D+01  1  2 12  4  6  5       -1 0.165087279092D-06 0.100000000000D+01
0.904590273695D-03 0.000000000000D+00 0.000000000000D+00 0.396612163050D-05 0.000000000000D+00  6 2 -2 25 1 -1 21 2 0.11582943D+00 0.78380134D-01 0.23067754D+06 0.23067754D+06 0.23067754D+06 0.10930970D+01  1  2 12  4  6  5       -1 0.743786738808D-02 0.100000000000D+01
-.720064807142D-03 0.000000000000D+00 0.000000000000D+00 0.396612163050D-05 0.000000000000D+00  6 2 -2 25 1 -1 21 2 0.11582943D+00 0.78380134D-01 0.22553966D+06 0.22553966D+06 0.22553966D+06 0.10938392D+01  1  2  4  4  6  5       -1 -.593310506165D-02 0.100000000000D+01
-.117786530210D-02 0.000000000000D+00 0.000000000000D+00 0.396612163050D-05 0.000000000000D+00  6 2 -2 25 1 -1 21 2 0.11582943D+00 0.78380134D-01 0.22553966D+06 0.22553966D+06 0.22553966D+06 0.10938392D+01  1  2  5  4  6  5       -1 -.970523557950D-02 0.100000000000D+01
0.189744643450D-02 0.000000000000D+00 -.000000000000D+00 0.396612163050D-05 0.000000000000D+00  6 2 -2 25 1 -1 21 2 0.11582943D+00 0.78380134D-01 0.22553966D+06 0.22553966D+06 0.22553966D+06 0.10938392D+01  1  2  6  4  6  5       -1 0.156343553151D-01 0.100000000000D+01
  </mgrwgt>
  </event>
  <event>
  5     66 -.18881543E-05 0.17026360E+02 0.75467711E-02 0.94215483E-01
        2 -1    0    0  502    0 0.00000000E+00 0.00000000E+00 0.29593829E+04 0.29593829E+04 0.32000000E+00 0.0000E+00 0.9000E+01
       -2 -1    0    0    0  501 0.00000000E+00 0.00000000E+00 -.39535339E+03 0.39535352E+03 0.32000000E+00 0.0000E+00 0.9000E+01
       25  1    1    2    0    0 -.19461230E+02 -.47611058E+03 0.13234950E+03 0.51009941E+03 0.12500000E+03 0.0000E+00 0.9000E+01
        1  1    1    2  502    0 0.74520449E-01 -.17027211E+02 0.23431848E+04 0.23432467E+04 0.32000000E+00 0.0000E+00 0.9000E+01
       -1  1    1    2    0  501 0.19386710E+02 0.49313779E+03 0.88495161E+02 0.50139029E+03 0.32000000E+00 0.0000E+00 0.9000E+01
#aMCatNLO 1  0  0  2  4 0.38713170D+03 0.00000000D+00  -5  6  0 0.00000000D+00 0.00000000D+00 0.00000000D+00 0.00000000D+00 0.00000000D+00
  <mgrwgt>
 -.8703733468D-01    7    4    0
 0.108166644709898D+04 0.000000000000000D+00 0.000000000000000D+00 0.108166644709898D+04
 0.108166644709898D+04 0.000000000000000D+00 0.000000000000000D+00 -.108166644709898D+04
 0.634188238072777D+03 -.194635041690706D+02 -.476167973177085D+03 -.399318112080758D+03
 0.856488431247340D+03 0.745160099189838D-01 -.170261965418022D+02 0.856319178775772D+03
 0.672656224877849D+03 0.193889881591516D+02 0.493194169718887D+03 -.457001066695015D+03
 0.000000000000000D+00 0.000000000000000D+00 0.000000000000000D+00 -.000000000000000D+00
 0.108221955132025D+04 0.000000000000000D+00 0.000000000000000D+00 0.108221955132025D+04
 0.141440531604449D+04 0.000000000000000D+00 0.000000000000000D+00 -.141440531604449D+04
 0.639027439890057D+03 -.234895658866816D+02 -.482415126826632D+03 -.399318112080758D+03
 0.856713416385756D+03 -.534283510559048D+01 -.254321841212011D+02 0.856319178775772D+03
 0.667739468379486D+03 0.151504951210289D+02 0.486617390943773D+03 -.457001066695015D+03
 0.333144542709441D+03 0.136819058712431D+02 0.212299200040606D+02 -.332185764724249D+03
 0.108166644709898D+04 0.000000000000000D+00 0.000000000000000D+00 0.108166644709898D+04
 0.108166644709898D+04 0.000000000000000D+00 0.000000000000000D+00 -.108166644709898D+04
 0.634188238072777D+03 -.194635041690706D+02 -.476167973177085D+03 -.399318112080758D+03
 0.856488431247340D+03 0.745160099189838D-01 -.170261965418022D+02 0.856319178775772D+03
 0.000000000000000D+00 0.000000000000000D+00 0.000000000000000D+00 -.000000000000000D+00
 0.672656224877849D+03 0.193889881591516D+02 0.493194169718887D+03 -.457001066695015D+03
 0.108221955132025D+04 0.000000000000000D+00 0.000000000000000D+00 0.108221955132025D+04
 0.141440531604449D+04 0.000000000000000D+00 0.000000000000000D+00 -.141440531604449D+04
 0.639027439890057D+03 -.234895658866816D+02 -.482415126826632D+03 -.399318112080758D+03
 0.856713416385756D+03 -.534283510559048D+01 -.254321841212011D+02 0.856319178775772D+03
 0.333144542709441D+03 0.136819058712431D+02 0.212299200040606D+02 -.332185764724249D+03
 0.667739468379486D+03 0.151504951210289D+02 0.486617390943773D+03 -.457001066695015D+03
0.442766639207D-03 0.000000000000D+00 0.000000000000D+00 0.108810537162D-03 0.000000000000D+00  6 2 -2 25 1 -1 21 0 0.45528968D+00 0.60823610D-01 0.25164659D+06 0.25164659D+06 0.25164659D+06 0.10902447D+01  1  2  2  2  6  2       -2 0.275508113592D-03 0.100000000000D+01
0.412103990602D-03 0.000000000000D+00 -.170034047769D-05 0.108810537162D-03 0.000000000000D+00  6 2 -2 25 1 -1 21 2 0.45528968D+00 0.60823610D-01 0.25164659D+06 0.25164659D+06 0.25164659D+06 0.10902447D+01  1  2  3  2  6  2       -2 0.304799522264D-03 0.100000000000D+01
-.320797696667D-03 0.000000000000D+00 0.000000000000D+00 0.108810537162D-03 0.000000000000D+00  6 2 -2 25 1 -1 21 2 0.45528968D+00 0.60823610D-01 0.25164659D+06 0.25164659D+06 0.25164659D+06 0.10902447D+01  1  2 15  2  6  2       -2 -.237267745319D-03 0.100000000000D+01
-.145211229343D+00 0.000000000000D+00 0.000000000000D+00 0.108810537162D-03 0.000000000000D+00  6 2 -2 25 1 -1 21 2 0.45528968D+00 0.60823610D-01 0.25164659D+06 0.25164659D+06 0.25164659D+06 0.10902447D+01  1  2  4  2  6  2       -2 -.107400836537D+00 0.100000000000D+01
-.126599791557D+00 0.000000000000D+00 -.475333351211D-03 0.108810537162D-03 0.000000000000D+00  6 2 -2 25 1 -1 21 2 0.45528968D+00 0.79550363D-01 0.25164659D+06 0.25164659D+06 0.25164659D+06 0.10902447D+01  1  2  5  2  6  2       -2 -.524472586348D-01 0.100000000000D+01
0.122311508474D+00 0.000000000000D+00 0.458709991086D-03 0.108810537162D-03 0.000000000000D+00  6 2 -2 25 1 -1 21 2 0.45528968D+00 0.60823610D-01 0.25164659D+06 0.25164659D+06 0.25164659D+06 0.10902447D+01  1  2  6  2  6  2       -2 0.904637911796D-01 0.100000000000D+01
-.450501181312D-02 0.000000000000D+00 -.169481462042D-04 0.108810537162D-03 0.000000000000D+00  6 2 21 25 1 2 -1 2 0.45528968D+00 0.79550363D-01 0.25164659D+06 0.25164659D+06 0.25164659D+06 0.10902447D+01  3  4  5  6  5  2       -2 -.179960705744D-01 0.100000000000D+01
  </mgrwgt>
  </event>
  <event>
  5     66 0.18881543E-05 0.13550280E+02 0.75467711E-02 0.91349318E-01
        2 -1    0    0  502    0 0.00000000E+00 0.00000000E+00 0.20393090E+04 0.20393090E+04 0.32000000E+00 0.0000E+00 0.9000E+01
       -2 -1    0    0    0  501 0.00000000E+00 0.00000000E+00 -.36191416E+03 0.36191430E+03 0.32000000E+00 0.0000E+00 0.9000E+01
       25  1    1    2    0    0 0.22705123E+03 -.51491848E+03 0.12654914E+04 0.13906066E+04 0.12500000E+03 0.0000E+00 0.9000E+01
        1  1    1    2  502    0 -.53095247E+01 -.12486330E+02 0.43770151E+03 0.43791187E+03 0.32000000E+00 0.0000E+00 0.9000E+01
       -1  1    1    2    0  501 -.22174171E+03 0.52740481E+03 -.25798029E+02 0.57270486E+03 0.32000000E+00 0.0000E+00 0.9000E+01
#aMCatNLO 1  0  0  1  2 0.17022257D+03 0.00000000D+00  -5  6  0 0.00000000D+00 0.00000000D+00 0.00000000D+00 0.00000000D+00 0.00000000D+00
  <mgrwgt>
 0.1142767918D-01    7    2    0
 0.859101275019458D+03 0.000000000000000D+00 0.000000000000000D+00 0.859101275019458D+03
 0.859101275019458D+03 0.000000000000000D+00 0.000000000000000D+00 -.859101275019458D+03
 0.708173089177096D+03 0.227086516444767D+03 -.515029321597407D+03 0.411169838605079D+03
 0.184438929069667D+03 -.530246298257266D+01 -.124697226945058D+02 0.183940502496340D+03
 0.825590531792153D+03 -.221784053462194D+03 0.527499044291912D+03 -.595110341101419D+03
 0.000000000000000D+00 0.000000000000000D+00 -.000000000000000D+00 0.000000000000000D+00
 0.157888951886318D+04 0.000000000000000D+00 0.000000000000000D+00 0.157888951886318D+04
 0.873430097311353D+03 0.000000000000000D+00 0.000000000000000D+00 -.873430097311353D+03
 0.656736297142031D+03 0.211092547457248D+03 -.449507357240468D+03 0.411169838605079D+03
 0.184266276304085D+03 -.962293998961244D+01 0.522983272423649D+01 0.183940502496340D+03
 0.885611374328891D+03 -.241835868250934D+03 0.609644651483285D+03 -.595110341101419D+03
 0.725705668399529D+03 0.403662607832980D+02 -.165367126967054D+03 0.705459421551831D+03
0.470021389534D-03 0.000000000000D+00 0.000000000000D+00 0.223142942527D-04 0.000000000000D+00  6 2 -2 25 1 -1 21 0 0.31373986D+00 0.55679114D-01 0.33777046D+06 0.33777046D+06 0.33777046D+06 0.10807621D+01  1  2  2  1  6  1        2 0.118034942154D-02 0.100000000000D+01
0.292407004141D-03 0.000000000000D+00 -.180500589529D-05 0.223142942527D-04 0.000000000000D+00  6 2 -2 25 1 -1 21 2 0.31373986D+00 0.55679114D-01 0.33777046D+06 0.33777046D+06 0.33777046D+06 0.10807621D+01  1  2  3  1  6  1        2 0.857710919233D-03 0.100000000000D+01
-.307124952732D-03 0.000000000000D+00 0.000000000000D+00 0.223142942527D-04 0.000000000000D+00  6 2 -2 25 1 -1 21 2 0.31373986D+00 0.55679114D-01 0.33777046D+06 0.33777046D+06 0.33777046D+06 0.10807621D+01  1  2 15  1  6  1        2 -.900882748347D-03 0.100000000000D+01
-.171136360532D-04 0.000000000000D+00 0.000000000000D+00 0.223142942527D-04 0.000000000000D+00  6 2 -2 25 1 -1 21 2 0.31373986D+00 0.55679114D-01 0.33777046D+06 0.33777046D+06 0.33777046D+06 0.10807621D+01  1  2  4  1  6  1        2 -.501990455176D-04 0.100000000000D+01
-.446244871639D-02 0.000000000000D+00 -.230384992942D-03 0.223142942527D-04 0.000000000000D+00  6 2 -2 25 1 -1 21 2 0.57807598D+00 0.55679114D-01 0.33777046D+06 0.33777046D+06 0.33777046D+06 0.10807621D+01  1  2  5  1  6  1        2 -.107079365268D-02 0.100000000000D+01
0.389093860961D-02 0.000000000000D+00 0.193173580572D-03 0.223142942527D-04 0.000000000000D+00  6 2 -2 25 1 -1 21 2 0.31373986D+00 0.55679114D-01 0.33777046D+06 0.33777046D+06 0.33777046D+06 0.10807621D+01  1  2  6  1  6  1        2 0.114132031185D-01 0.100000000000D+01
-.285040123642D-03 0.000000000000D+00 -.153697325374D-04 0.223142942527D-04 0.000000000000D+00  6 21 -2 25 1 -1 -2 2 0.57807598D+00 0.55679114D-01 0.33777046D+06 0.33777046D+06 0.33777046D+06 0.10807621D+01  1  2  5  5  6  1        2 -.170883559802D-05 0.100000000000D+01
  </mgrwgt>
  </event>
  <event>
  5     66 0.18881543E-05 0.77094562E+02 0.75467711E-02 0.94595855E-01
        2 -1    0    0  502    0 0.00000000E+00 0.00000000E+00 0.12426161E+04 0.12426161E+04 0.32000000E+00 0.0000E+00 0.9000E+01
       -2 -1    0    0    0  501 0.00000000E+00 0.00000000E+00 -.78616234E+03 0.78616240E+03 0.32000000E+00 0.0000E+00 0.9000E+01
       25  1    1    2    0    0 0.14268393E+03 0.44266543E+03 0.46706488E+02 0.48385729E+03 0.12500000E+03 0.0000E+00 0.9000E+01
        1  1    1    2  502    0 -.77012352E+02 -.37303909E+01 0.88864839E+03 0.89198704E+03 0.32000000E+00 0.0000E+00 0.9000E+01
       -1  1    1    2    0  501 -.65671582E+02 -.43893503E+03 -.47890111E+03 0.65293422E+03 0.32000000E+00 0.0000E+00 0.9000E+01
#aMCatNLO 1  0  0  1  2 0.77162790D+02 0.00000000D+00  -5  6  0 0.00000000D+00 0.00000000D+00 0.00000000D+00 0.00000000D+00 0.00000000D+00
  <mgrwgt>
 0.4771186276D-02    7    2    0
 0.988381550545130D+03 0.000000000000000D+00 0.000000000000000D+00 0.988381550545130D+03
 0.988381550545130D+03 0.000000000000000D+00 0.000000000000000D+00 -.988381550545130D+03
 0.485852626894332D+03 0.142689466252165D+03 0.442725794461599D+03 -.637288176505797D+02
 0.710186212487439D+03 -.770042768542953D+02 -.372999975915230D+01 0.705989295142071D+03
 0.780724261708489D+03 -.656851893978699D+02 -.438995794702447D+03 -.642260477491491D+03
 0.000000000000000D+00 -.000000000000000D+00 0.000000000000000D+00 0.000000000000000D+00
 0.122387775157474D+04 0.000000000000000D+00 0.000000000000000D+00 0.122387775157474D+04
 0.995475341372475D+03 0.000000000000000D+00 0.000000000000000D+00 -.995475341372475D+03
 0.470901795815732D+03 0.147392606317648D+03 0.424661699127942D+03 -.637288176505797D+02
 0.710110621932336D+03 -.700224905272280D+02 -.305460528758722D+02 0.705989295142071D+03
 0.797256131750602D+03 -.579282743161477D+02 -.468789007658123D+03 -.642260477491491D+03
 0.241084543448542D+03 -.194418414742726D+02 0.746733614060533D+02 0.228402410202262D+03
0.587106937693D-03 0.000000000000D+00 0.000000000000D+00 0.577983844380D-04 0.000000000000D+00  6 2 -2 25 1 -1 21 0 0.19117172D+00 0.12094806D+00 0.25131780D+06 0.25131780D+06 0.25131780D+06 0.10902874D+01  1  2  2  1  6  1        2 0.702226334040D-03 0.100000000000D+01
0.174214371354D-03 0.000000000000D+00 -.225464522955D-05 0.577983844380D-04 0.000000000000D+00  6 2 -2 25 1 -1 21 2 0.19117172D+00 0.12094806D+00 0.25131780D+06 0.25131780D+06 0.25131780D+06 0.10902874D+01  1  2  3  1  6  1        2 0.247699910449D-03 0.100000000000D+01
-.379984556074D-03 0.000000000000D+00 0.000000000000D+00 0.577983844380D-04 0.000000000000D+00  6 2 -2 25 1 -1 21 2 0.19117172D+00 0.12094806D+00 0.25131780D+06 0.25131780D+06 0.25131780D+06 0.10902874D+01  1  2 15  1  6  1        2 -.540266223619D-03 0.100000000000D+01
-.372183860572D-03 0.000000000000D+00 0.000000000000D+00 0.577983844380D-04 0.000000000000D+00  6 2 -2 25 1 -1 21 2 0.19117172D+00 0.12094806D+00 0.25131780D+06 0.25131780D+06 0.25131780D+06 0.10902874D+01  1  2  4  1  6  1        2 -.529175108908D-03 0.100000000000D+01
-.113192136776D-01 0.000000000000D+00 -.684345475525D-03 0.577983844380D-04 0.000000000000D+00  6 2 -2 25 1 -1 21 2 0.23732907D+00 0.12094806D+00 0.25131780D+06 0.25131780D+06 0.25131780D+06 0.10902874D+01  1  2  5  1  6  1        2 -.109527284984D-01 0.100000000000D+01
0.112194988034D-01 0.000000000000D+00 0.668646413152D-03 0.577983844380D-04 0.000000000000D+00  6 2 -2 25 1 -1 21 2 0.19117172D+00 0.12094806D+00 0.25131780D+06 0.25131780D+06 0.25131780D+06 0.10902874D+01  1  2  6  1  6  1        2 0.159520068711D-01 0.100000000000D+01
-.334794340609D-03 0.000000000000D+00 -.207858297026D-04 0.577983844380D-04 0.000000000000D+00  6 21 -2 25 1 -1 -2 2 0.23732907D+00 0.12094806D+00 0.25131780D+06 0.25131780D+06 0.25131780D+06 0.10902874D+01  1  2  5  5  6  1        2 -.108577008415D-03 0.100000000000D+01
  </mgrwgt>
  </event>
  <event>
  5     66 0.18881543E-05 0.18017616E+03 0.75467711E-02 0.95023293E-01
        2 -1    0    0  502    0 0.00000000E+00 0.00000000E+00 0.70904039E+03 0.70904046E+03 0.32000000E+00 0.0000E+00 0.9000E+01
       -2 -1    0    0    0  501 -.00000000E+00 -.00000000E+00 -.23607996E+04 0.23607996E+04 0.32000000E+00 0.0000E+00 0.9000E+01
       25  1    1    2    0    0 0.20012050E+03 -.41294068E+03 0.17698298E+02 0.47592694E+03 0.12500000E+03 0.0000E+00 0.9000E+01
        1  1    1    2  502    0 -.10414560E+02 0.17989727E+03 0.43356987E+03 0.46952574E+03 0.32000000E+00 0.0000E+00 0.9000E+01
       -1  1    1    2    0  501 -.18970594E+03 0.23304341E+03 -.21030273E+04 0.21243874E+04 0.32000000E+00 0.0000E+00 0.9000E+01
#aMCatNLO 1  0  0  4  5 0.14586565D+03 0.00000000D+00  -5  6  0 0.00000000D+00 0.00000000D+00 0.00000000D+00 0.00000000D+00 0.00000000D+00
  <mgrwgt>
 0.2026440537D-02    7    2    0
 0.129379379103439D+04 0.000000000000000D+00 0.000000000000000D+00 0.129379379103439D+04
 0.129379379103439D+04 -.000000000000000D+00 -.000000000000000D+00 -.129379379103439D+04
 0.576001509139383D+03 0.200140904764209D+03 -.412946694165158D+03 0.324917504220807D+03
 0.833693341418227D+03 -.104132699211935D+02 0.179874986530067D+03 0.813990872525881D+03
 0.117789273151117D+04 -.189727634843016D+03 0.233071707635091D+03 -.113890837674669D+04
 0.000000000000000D+00 0.000000000000000D+00 0.000000000000000D+00 0.000000000000000D+00
 0.129379379103439D+04 0.000000000000000D+00 0.000000000000000D+00 0.129379379103439D+04
 0.129379379103439D+04 -.000000000000000D+00 -.000000000000000D+00 -.129379379103439D+04
 0.582673062913476D+03 0.199934509458531D+03 -.409381497727376D+03 0.341051139114120D+03
 0.638445642580845D+03 -.439791378395060D+01 -.827690845959532D+01 0.638376839861197D+03
 0.114815089514139D+04 -.190141974207081D+03 0.240228853094124D+03 -.110652004310798D+04
 0.218317981433062D+03 -.539462146749940D+01 0.177429553092848D+03 0.127092064132666D+03
0.385291006061D-01 0.000000000000D+00 0.000000000000D+00 0.844243549803D-04 0.000000000000D+00  6 2 -2 25 1 -1 21 0 0.10908314D+00 0.36319994D+00 0.22863646D+06 0.22863646D+06 0.22863646D+06 0.10933897D+01  1  2  2  3  6  4        1 0.212697884266D-02 0.100000000000D+01
0.429113885911D-02 0.000000000000D+00 -.147961891273D-03 0.844243549803D-04 0.000000000000D+00  6 2 -2 25 1 -1 21 2 0.10908314D+00 0.36319994D+00 0.22863646D+06 0.22863646D+06 0.22863646D+06 0.10933897D+01  1  2  3  3  6  4        1 0.283202311319D-03 0.100000000000D+01
-.244540998730D-01 0.000000000000D+00 0.000000000000D+00 0.844243549803D-04 0.000000000000D+00  6 2 -2 25 1 -1 21 2 0.10908314D+00 0.36319994D+00 0.22863646D+06 0.22863646D+06 0.22863646D+06 0.10933897D+01  1  2 15  3  6  4        1 -.161389734349D-02 0.100000000000D+01
0.120849792242D-08 0.000000000000D+00 0.000000000000D+00 0.844243549803D-04 0.000000000000D+00  6 2 -2 25 1 -1 21 2 0.10908314D+00 0.36319994D+00 0.23313855D+06 0.23313855D+06 0.23313855D+06 0.10927479D+01  1  2 12  3  6  4        1 0.795311417011D-10 0.100000000000D+01
-.292762615717D-02 0.000000000000D+00 0.000000000000D+00 0.844243549803D-04 0.000000000000D+00  6 2 -2 25 1 -1 21 2 0.10908314D+00 0.36319994D+00 0.22863646D+06 0.22863646D+06 0.22863646D+06 0.10933897D+01  1  2  4  3  6  4        1 -.193214557163D-03 0.100000000000D+01
-.732000081048D-01 0.000000000000D+00 0.000000000000D+00 0.844243549803D-04 0.000000000000D+00  6 2 -2 25 1 -1 21 2 0.10908314D+00 0.36319994D+00 0.22863646D+06 0.22863646D+06 0.22863646D+06 0.10933897D+01  1  2  5  3  6  4        1 -.483098127664D-02 0.100000000000D+01
0.947672172676D-01 0.000000000000D+00 -.000000000000D+00 0.844243549803D-04 0.000000000000D+00  6 2 -2 25 1 -1 21 2 0.10908314D+00 0.36319994D+00 0.22863646D+06 0.22863646D+06 0.22863646D+06 0.10933897D+01  1  2  6  3  6  4        1 0.625435248044D-02 0.100000000000D+01
  </mgrwgt>
  </event>
  <event>
  5     66 0.18881543E-05 0.33852659E+02 0.75467711E-02 0.95287503E-01
        2 -1    0    0  502    0 0.00000000E+00 0.00000000E+00 0.40821894E+04 0.40821894E+04 0.32000000E+00 0.0000E+00 0.9000E+01
       -2 -1    0    0    0  501 0.00000000E+00 0.00000000E+00 -.12267115E+04 0.12267116E+04 0.32000000E+00 0.0000E+00 0.9000E+01
       25  1    1    2    0    0 -.37591288E+03 -.27058168E+03 -.51790019E+03 0.70595364E+03 0.12500000E+03 0.0000E+00 0.9000E+01
        1  1    1    2  502    0 0.30934971E+02 0.13748992E+02 0.39128619E+04 0.39130084E+04 0.32000000E+00 0.0000E+00 0.9000E+01
       -1  1    1    2    0  501 0.34497791E+03 0.25683269E+03 -.53948387E+03 0.68993893E+03 0.32000000E+00 0.0000E+00 0.9000E+01
#aMCatNLO 1  0  0  1  4 0.36971512D+02 0.00000000D+00  -5  6  0 0.00000000D+00 0.00000000D+00 0.00000000D+00 0.00000000D+00 0.00000000D+00
  <mgrwgt>
 0.5336444245D-01    7    2    0
 0.223778212377772D+04 0.000000000000000D+00 0.000000000000000D+00 0.223778212377772D+04
 0.223778212377772D+04 0.000000000000000D+00 0.000000000000000D+00 -.223778212377772D+04
 0.116782774396318D+04 -.375921773612486D+03 -.270588216412142D+03 -.106473540226343D+04
 0.214512915384305D+04 0.309349074462569D+02 0.137489634618696D+02 0.214486201984473D+04
 0.116260734974921D+04 0.344986866166229D+03 0.256839252950273D+03 -.108012661758130D+04
 0.000000000000000D+00 -.000000000000000D+00 -.000000000000000D+00 0.000000000000000D+00
 0.314922535666186D+04 0.000000000000000D+00 0.000000000000000D+00 0.314922535666186D+04
 0.227482164105168D+04 0.000000000000000D+00 0.000000000000000D+00 -.227482164105168D+04
 0.114804100578921D+04 -.366842981300294D+03 -.184764447909059D+03 -.106473540226343D+04
 0.215235882744630D+04 0.477821492644450D+02 0.173009549231420D+03 0.214486201984473D+04
 0.118761246920695D+04 0.354200323373844D+03 0.343936037556490D+03 -.108012661758130D+04
 0.936034695271090D+03 -.351394913379949D+02 -.332181138878851D+03 0.874403715610185D+03
0.153602622566D+01 0.000000000000D+00 0.000000000000D+00 0.292100889878D-02 0.000000000000D+00  6 2 -2 25 1 -1 21 0 0.62802914D+00 0.18872485D+00 0.22264171D+06 0.22264171D+06 0.22264171D+06 0.10942660D+01  1  2  2  1  6  1        2 0.900673051542D-02 0.100000000000D+01
0.975631367414D+00 0.000000000000D+00 -.589874515154D-02 0.292100889878D-02 0.000000000000D+00  6 2 -2 25 1 -1 21 2 0.62802914D+00 0.18872485D+00 0.22264171D+06 0.22264171D+06 0.22264171D+06 0.10942660D+01  1  2  3  1  6  1        2 0.685015036021D-02 0.100000000000D+01
-.101212718091D+01 0.000000000000D+00 0.000000000000D+00 0.292100889878D-02 0.000000000000D+00  6 2 -2 25 1 -1 21 2 0.62802914D+00 0.18872485D+00 0.22264171D+06 0.22264171D+06 0.22264171D+06 0.10942660D+01  1  2 15  1  6  1        2 -.710639653914D-02 0.100000000000D+01
-.107375609777D-01 0.000000000000D+00 0.000000000000D+00 0.292100889878D-02 0.000000000000D+00  6 2 -2 25 1 -1 21 2 0.62802914D+00 0.18872485D+00 0.22264171D+06 0.22264171D+06 0.22264171D+06 0.10942660D+01  1  2  4  1  6  1        2 -.753910848463D-04 0.100000000000D+01
-.536116870159D+01 0.000000000000D+00 -.571510130112D+00 0.292100889878D-02 0.000000000000D+00  6 2 -2 25 1 -1 21 2 0.88453550D+00 0.18872485D+00 0.22264171D+06 0.22264171D+06 0.22264171D+06 0.10942660D+01  1  2  5  1  6  1        2 -.207029178921D-03 0.100000000000D+01
0.639436149585D+01 0.000000000000D+00 0.663979807948D+00 0.292100889878D-02 0.000000000000D+00  6 2 -2 25 1 -1 21 2 0.62802914D+00 0.18872485D+00 0.22264171D+06 0.22264171D+06 0.22264171D+06 0.10942660D+01  1  2  6  1  6  1        2 0.448964016196D-01 0.100000000000D+01
-.212338082502D+00 0.000000000000D+00 -.243046016847D-01 0.292100889878D-02 0.000000000000D+00  6 21 -2 25 1 -1 -2 2 0.88453550D+00 0.18872485D+00 0.22264171D+06 0.22264171D+06 0.22264171D+06 0.10942660D+01  1  2  5  5  6  1        2 -.232433658395D-07 0.100000000000D+01
  </mgrwgt>
  </event>
  <event>
  5     66 0.18881543E-05 0.34360632E+02 0.75467711E-02 0.92586129E-01
        2 -1    0    0  502    0 0.00000000E+00 0.00000000E+00 0.26885483E+04 0.26885483E+04 0.32000000E+00 0.0000E+00 0.9000E+01
       -2 -1    0    0    0  501 0.00000000E+00 0.00000000E+00 -.67185367E+03 0.67185374E+03 0.32000000E+00 0.0000E+00 0.9000E+01
       25  1    1    2    0    0 -.46992260E+03 0.23239685E+03 0.15882752E+04 0.16772235E+04 0.12500000E+03 0.0000E+00 0.9000E+01
        1  1    1    2  502    0 0.21093801E+02 -.27142032E+02 0.95838192E+03 0.95899825E+03 0.32000000E+00 0.0000E+00 0.9000E+01
       -1  1    1    2    0  501 0.44882880E+03 -.20525482E+03 -.52996247E+03 0.72418033E+03 0.32000000E+00 0.0000E+00 0.9000E+01
#aMCatNLO 1  0  0  1  5 0.17495414D+03 0.00000000D+00  -5  6  0 0.00000000D+00 0.00000000D+00 0.00000000D+00 0.00000000D+00 0.00000000D+00
  <mgrwgt>
 0.9148832271D-02    7    2    0
 0.134399077000784D+04 0.000000000000000D+00 0.000000000000000D+00 0.134399077000784D+04
 0.134399077000784D+04 0.000000000000000D+00 0.000000000000000D+00 -.134399077000784D+04
 0.905352347169725D+03 -.469966782671283D+03 0.232410282175981D+03 0.727430104168238D+03
 0.479660223941806D+03 0.210850041953203D+02 -.271307133041167D+02 0.478427922915873D+03
 0.130296896890415D+04 0.448881778475963D+03 -.205279568871864D+03 -.120585802708411D+04
 0.000000000000000D+00 0.000000000000000D+00 -.000000000000000D+00 0.000000000000000D+00
 0.145404400670802D+04 0.000000000000000D+00 0.000000000000000D+00 0.145404400670802D+04
 0.141821114589657D+04 0.000000000000000D+00 0.000000000000000D+00 -.141821114589657D+04
 0.933846501682743D+03 -.495086601598708D+03 0.286668779556346D+03 0.727430104168238D+03
 0.478496127130755D+03 0.799848336690535D+01 0.113600940348412D+01 0.478427922915873D+03
 0.128132656230675D+04 0.413585412430783D+03 -.129039855913265D+03 -.120585802708411D+04
 0.178585961484336D+03 0.735027058010198D+02 -.158764933046565D+03 0.358328608114563D+02
0.111295669401D-01 0.000000000000D+00 0.000000000000D+00 0.318683135417D-03 0.000000000000D+00  6 2 -2 25 1 -1 21 0 0.41362282D+00 0.10336211D+00 0.28459151D+06 0.28459151D+06 0.28459151D+06 0.10862501D+01  1  2  2  1  6  1        2 0.304487195385D-02 0.100000000000D+01
0.415722517501D-02 0.000000000000D+00 -.427404675322D-04 0.318683135417D-03 0.000000000000D+00  6 2 -2 25 1 -1 21 2 0.41362282D+00 0.10336211D+00 0.28459151D+06 0.28459151D+06 0.28459151D+06 0.10862501D+01  1  2  3  1  6  1        2 0.134200459386D-02 0.100000000000D+01
-.741163708403D-02 0.000000000000D+00 0.000000000000D+00 0.318683135417D-03 0.000000000000D+00  6 2 -2 25 1 -1 21 2 0.41362282D+00 0.10336211D+00 0.28459151D+06 0.28459151D+06 0.28459151D+06 0.10862501D+01  1  2 15  1  6  1        2 -.239256970602D-02 0.100000000000D+01
-.183060719342D-03 0.000000000000D+00 0.000000000000D+00 0.318683135417D-03 0.000000000000D+00  6 2 -2 25 1 -1 21 2 0.41362282D+00 0.10336211D+00 0.28459151D+06 0.28459151D+06 0.28459151D+06 0.10862501D+01  1  2  4  1  6  1        2 -.590943035247D-04 0.100000000000D+01
-.644201405688D-01 0.000000000000D+00 -.192980911910D-01 0.318683135417D-03 0.000000000000D+00  6 2 -2 25 1 -1 21 2 0.45605973D+00 0.10336211D+00 0.28459151D+06 0.28459151D+06 0.28459151D+06 0.10862501D+01  1  2  5  1  6  1        2 -.141034592977D-01 0.100000000000D+01
0.660812175361D-01 0.000000000000D+00 0.192064105724D-01 0.318683135417D-03 0.000000000000D+00  6 2 -2 25 1 -1 21 2 0.41362282D+00 0.10336211D+00 0.28459151D+06 0.28459151D+06 0.28459151D+06 0.10862501D+01  1  2  6  1  6  1        2 0.213318484730D-01 0.100000000000D+01
-.964293629621D-03 0.000000000000D+00 -.307114228516D-03 0.318683135417D-03 0.000000000000D+00  6 21 -2 25 1 -1 -2 2 0.45605973D+00 0.10336211D+00 0.28459151D+06 0.28459151D+06 0.28459151D+06 0.10862501D+01  1  2  5  5  6  1        2 -.147694422699D-04 0.100000000000D+01
  </mgrwgt>
  </event>
  <event>
  5     66 0.18881543E-05 0.16261410E+02 0.75467711E-02 0.81135215E-01
        2 -1    0    0  502    0 0.00000000E+00 0.00000000E+00 0.15002431E+04 0.15002431E+04 0.32000000E+00 0.0000E+00 0.9000E+01
       -2 -1    0    0    0  501 0.00000000E+00 0.00000000E+00 -.46272691E+03 0.46272702E+03 0.32000000E+00 0.0000E+00 0.9000E+01
       25  1    1    2    0    0 0.11213883E+03 0.49418088E+03 0.26426780E+03 0.58502335E+03 0.12500000E+03 0.0000E+00 0.9000E+01
        1  1    1    2  502    0 -.11636705E+03 -.50988132E+03 0.10117302E+04 0.11389110E+04 0.32000000E+00 0.0000E+00 0.9000E+01
       -1  1    1    2    0  501 0.42282172E+01 0.15700443E+02 -.23848185E+03 0.23903572E+03 0.32000000E+00 0.0000E+00 0.9000E+01
#aMCatNLO 1  0  0  2  5 0.13928688D+03 0.00000000D+00  -5  6  0 0.00000000D+00 0.00000000D+00 0.00000000D+00 0.00000000D+00 0.00000000D+00
  <mgrwgt>
 0.3918849590D-01    5    4    0
 0.833188439692455D+03 0.000000000000000D+00 0.000000000000000D+00 0.833188439692455D+03
 0.833188439692455D+03 0.000000000000000D+00 0.000000000000000D+00 -.833188439692455D+03
 0.524586354297286D+03 0.112134414370471D+03 0.494161839096660D+03 -.528752589527084D+02
 0.711676385219778D+03 -.116363051937336D+03 -.509863815882326D+03 0.482681889734049D+03
 0.430114139867846D+03 0.422863756686424D+01 0.157019767856659D+02 -.429806630781340D+03
 0.000000000000000D+00 -.000000000000000D+00 -.000000000000000D+00 -.000000000000000D+00
 0.194112200470616D+04 0.000000000000000D+00 0.000000000000000D+00 0.194112200470616D+04
 0.252116657982391D+04 0.000000000000000D+00 0.000000000000000D+00 -.252116657982391D+04
 0.114840877784892D+04 0.783372038984291D+03 0.828703913692179D+03 -.528752589527084D+02
 0.697605067806907D+03 0.449067603995544D+03 -.228055499811666D+03 0.482681889734049D+03
 0.658573114961641D+03 0.441030773351693D+03 0.233402366833500D+03 -.429806630781340D+03
 0.195770162391259D+04 -.167347041633153D+04 -.834050780714013D+03 -.580044575117749D+03
 0.833188439692455D+03 0.000000000000000D+00 0.000000000000000D+00 0.833188439692455D+03
 0.833188439692455D+03 0.000000000000000D+00 0.000000000000000D+00 -.833188439692455D+03
 0.524586354297286D+03 0.112134414370471D+03 0.494161839096660D+03 -.528752589527084D+02
 0.711676385219778D+03 -.116363051937336D+03 -.509863815882326D+03 0.482681889734049D+03
 0.000000000000000D+00 -.000000000000000D+00 -.000000000000000D+00 -.000000000000000D+00
 0.430114139867846D+03 0.422863756686424D+01 0.157019767856659D+02 -.429806630781340D+03
 0.194112200470616D+04 0.000000000000000D+00 0.000000000000000D+00 0.194112200470616D+04
 0.252116657982391D+04 0.000000000000000D+00 0.000000000000000D+00 -.252116657982391D+04
 0.114840877784892D+04 0.783372038984291D+03 0.828703913692179D+03 -.528752589527084D+02
 0.697605067806907D+03 0.449067603995544D+03 -.228055499811666D+03 0.482681889734049D+03
 0.195770162391259D+04 -.167347041633153D+04 -.834050780714013D+03 -.580044575117749D+03
 0.658573114961641D+03 0.441030773351693D+03 0.233402366833500D+03 -.429806630781340D+03
0.113213710011D-01 0.000000000000D+00 0.000000000000D+00 0.487941556664D-04 0.000000000000D+00  6 2 -2 25 1 -1 21 0 0.23080664D+00 0.71188767D-01 0.28150977D+06 0.28150977D+06 0.28150977D+06 0.10866018D+01  1  2  2  2  6  2       -2 0.337350476795D-01 0.100000000000D+01
0.911361930984D-02 0.000000000000D+00 -.434770456298D-04 0.487941556664D-04 0.000000000000D+00  6 2 -2 25 1 -1 21 2 0.23080664D+00 0.71188767D-01 0.28150977D+06 0.28150977D+06 0.28150977D+06 0.10866018D+01  1  2  3  2  6  2       -2 0.320637306194D-01 0.100000000000D+01
-.771025051907D-02 0.000000000000D+00 0.000000000000D+00 0.487941556664D-04 0.000000000000D+00  6 2 -2 25 1 -1 21 2 0.23080664D+00 0.71188767D-01 0.28150977D+06 0.28150977D+06 0.28150977D+06 0.10866018D+01  1  2 15  2  6  2       -2 -.271263684872D-01 0.100000000000D+01
0.242468968371D-01 0.000000000000D+00 -.991422299342D-02 0.487941556664D-04 0.000000000000D+00  6 2 -2 25 1 -1 21 2 0.23080664D+00 0.41638572D+00 0.28150977D+06 0.28150977D+06 0.28150977D+06 0.10866018D+01  1  2  5  2  6  2       -2 0.209793023699D-03 0.100000000000D+01
0.466383227444D-02 0.000000000000D+00 -.214575002645D-02 0.487941556664D-04 0.000000000000D+00  6 2 21 25 1 2 -1 2 0.23080664D+00 0.41638572D+00 0.28150977D+06 0.28150977D+06 0.28150977D+06 0.10866018D+01  3  4  5  6  5  2       -2 0.306293062032D-03 0.100000000000D+01
  </mgrwgt>
  </event>
  <event>
  5     66 -.18881543E-05 0.24658851E+02 0.75467711E-02 0.93777785E-01
        2 -1    0    0  502    0 0.00000000E+00 0.00000000E+00 0.21167740E+04 0.21167740E+04 0.32000000E+00 0.0000E+00 0.9000E+01
       -2 -1    0    0    0  501 0.00000000E+00 0.00000000E+00 -.30597315E+03 0.30597332E+03 0.32000000E+00 0.0000E+00 0.9000E+01
       25  1    1    2    0    0 -.36191901E+03 -.36023045E+03 0.74044995E+03 0.90809827E+03 0.12500000E+03 0.0000E+00 0.9000E+01
        1  1    1    2  502    0 0.35567206E+03 0.38408129E+03 0.12385622E+04 0.13446402E+04 0.32000000E+00 0.0000E+00 0.9000E+01
       -1  1    1    2    0  501 0.62469482E+01 -.23850839E+02 -.16821124E+03 0.17000885E+03 0.32000000E+00 0.0000E+00 0.9000E+01
#aMCatNLO 1  0  0  2  1 0.59888560D+01 0.00000000D+00  -5  6  0 0.00000000D+00 0.00000000D+00 0.00000000D+00 0.00000000D+00 0.00000000D+00
  <mgrwgt>
 -.2613268517D-02   11    4    0
 0.804783352737261D+03 0.000000000000000D+00 0.000000000000000D+00 0.804783352737261D+03
 0.804783352737261D+03 0.000000000000000D+00 0.000000000000000D+00 -.804783352737261D+03
 0.533838566593393D+03 -.361892941127969D+03 -.360197820053235D+03 0.930034664576201D+02
 0.630515403176365D+03 0.355644929110938D+03 0.384051986793967D+03 0.351525858906478D+03
 0.445212735704763D+03 0.624801201703048D+01 -.238541667407311D+02 -.444529325364098D+03
 0.000000000000000D+00 0.000000000000000D+00 -.000000000000000D+00 -.000000000000000D+00
 0.804976889180369D+03 0.000000000000000D+00 0.000000000000000D+00 0.804976889180369D+03
 0.852492315477280D+03 0.000000000000000D+00 0.000000000000000D+00 -.852492315477280D+03
 0.533439068673139D+03 -.362963065619933D+03 -.358525324362885D+03 0.930034664576201D+02
 0.631010252697622D+03 0.354380038461135D+03 0.386028882170575D+03 0.351525858906478D+03
 0.445128525695927D+03 0.535529585907068D+01 -.224589422242330D+02 -.444529325364098D+03
 0.478913575909616D+02 0.322773129972741D+01 -.504461558345717D+01 -.475154262969118D+02
 0.804783352737261D+03 0.000000000000000D+00 0.000000000000000D+00 0.804783352737261D+03
 0.804783352737261D+03 0.000000000000000D+00 0.000000000000000D+00 -.804783352737261D+03
 0.533838566593393D+03 -.361892941127969D+03 -.360197820053235D+03 0.930034664576201D+02
 0.630515403176365D+03 0.355644929110938D+03 0.384051986793967D+03 0.351525858906478D+03
 0.000000000000000D+00 0.000000000000000D+00 -.000000000000000D+00 -.000000000000000D+00
 0.445212735704763D+03 0.624801201703048D+01 -.238541667407311D+02 -.444529325364098D+03
 0.804976889180369D+03 0.000000000000000D+00 0.000000000000000D+00 0.804976889180369D+03
 0.852492315477280D+03 0.000000000000000D+00 0.000000000000000D+00 -.852492315477280D+03
 0.533439068673139D+03 -.362963065619933D+03 -.358525324362885D+03 0.930034664576201D+02
 0.631010252697622D+03 0.354380038461135D+03 0.386028882170575D+03 0.351525858906478D+03
 0.478913575909616D+02 0.322773129972741D+01 -.504461558345717D+01 -.475154262969118D+02
 0.445128525695927D+03 0.535529585907068D+01 -.224589422242330D+02 -.444529325364098D+03
0.659243366665D-04 0.000000000000D+00 0.000000000000D+00 0.239094105434D-04 0.000000000000D+00  6 2 -2 25 1 -1 21 0 0.32565756D+00 0.47072807D-01 0.28824222D+06 0.28824222D+06 0.28824222D+06 0.10858388D+01  1  2  2  2  6  2       -2 0.211596421223D-03 0.100000000000D+01
0.424474457878D-04 0.000000000000D+00 -.253166811076D-06 0.239094105434D-04 0.000000000000D+00  6 2 -2 25 1 -1 21 2 0.32565756D+00 0.47072807D-01 0.28824222D+06 0.28824222D+06 0.28824222D+06 0.10858388D+01  1  2  3  2  6  2       -2 0.160636732523D-03 0.100000000000D+01
-.411326843040D-04 0.000000000000D+00 0.000000000000D+00 0.239094105434D-04 0.000000000000D+00  6 2 -2 25 1 -1 21 2 0.32565756D+00 0.47072807D-01 0.28824222D+06 0.28824222D+06 0.28824222D+06 0.10858388D+01  1  2 15  2  6  2       -2 -.155661191949D-03 0.100000000000D+01
0.967010291130D-08 0.000000000000D+00 0.000000000000D+00 0.239094105434D-04 0.000000000000D+00  6 2 -2 25 1 -1 21 2 0.32565756D+00 0.49868842D-01 0.29072196D+06 0.29072196D+06 0.29072196D+06 0.10855627D+01  1  2 12  2  6  2       -2 0.326365987371D-07 0.100000000000D+01
-.104500559789D-02 0.000000000000D+00 0.000000000000D+00 0.239094105434D-04 0.000000000000D+00  6 2 -2 25 1 -1 21 2 0.32565756D+00 0.47072807D-01 0.28824222D+06 0.28824222D+06 0.28824222D+06 0.10858388D+01  1  2  4  2  6  2       -2 -.395468517830D-02 0.100000000000D+01
-.259740220413D-01 0.000000000000D+00 -.291423223420D-03 0.239094105434D-04 0.000000000000D+00  6 2 -2 25 1 -1 21 2 0.32565756D+00 0.49869027D-01 0.28824222D+06 0.28824222D+06 0.28824222D+06 0.10858388D+01  1  2  5  2  6  2       -2 -.877488833822D-01 0.100000000000D+01
0.259481097297D-01 0.000000000000D+00 0.290938701751D-03 0.239094105434D-04 0.000000000000D+00  6 2 -2 25 1 -1 21 2 0.32565756D+00 0.47072807D-01 0.28824222D+06 0.28824222D+06 0.28824222D+06 0.10858388D+01  1  2  6  2  6  2       -2 0.981971820628D-01 0.100000000000D+01
0.368995464925D-03 0.000000000000D+00 0.000000000000D+00 0.239094105434D-04 0.235680227163D-05  6 2 -2 25 1 -1 21 2 0.32573587D+00 0.49863365D-01 0.29072196D+06 0.29072196D+06 0.29072196D+06 0.10855627D+01  1  2 11  2  6  2       -2 0.124482325445D-02 0.100000000000D+01
0.154574179607D-09 0.000000000000D+00 0.000000000000D+00 0.239094105434D-04 0.000000000000D+00  6 2 21 25 1 2 -1 2 0.32565756D+00 0.49868842D-01 0.29072196D+06 0.29072196D+06 0.29072196D+06 0.10855627D+01  3  4 12  6  5  2       -2 0.545141654795D-08 0.100000000000D+01
-.360453123018D-03 0.000000000000D+00 -.289742482625D-05 0.239094105434D-04 0.000000000000D+00  6 2 21 25 1 2 -1 2 0.32565756D+00 0.49869027D-01 0.28824222D+06 0.28824222D+06 0.28824222D+06 0.10858388D+01  3  4  5  6  5  2       -2 -.127278221568D-01 0.100000000000D+01
0.612576497471D-04 0.000000000000D+00 0.000000000000D+00 0.239094105434D-04 0.492525589161D-07  6 2 21 25 1 2 -1 2 0.32573587D+00 0.49863365D-01 0.29072196D+06 0.29072196D+06 0.29072196D+06 0.10855627D+01  3  4 11  6  5  2       -2 0.215950683300D-02 0.100000000000D+01
  </mgrwgt>
  </event>
  <event>
  5     66 0.18881543E-05 0.74333585E+02 0.75467711E-02 0.90641244E-01
        2 -1    0    0  502    0 0.00000000E+00 0.00000000E+00 0.66150824E+03 0.66150832E+03 0.32000000E+00 0.0000E+00 0.9000E+01
       -2 -1    0    0    0  501 0.00000000E+00 0.00000000E+00 -.11216339E+04 0.11216339E+04 0.32000000E+00 0.0000E+00 0.9000E+01
       25  1    1    2    0    0 0.55059181E+03 -.31019483E+03 -.47961530E+03 0.80313635E+03 0.12500000E+03 0.0000E+00 0.9000E+01
        1  1    1    2  502    0 0.66026062E+02 0.34233846E+02 0.25418755E+03 0.26484488E+03 0.32000000E+00 0.0000E+00 0.9000E+01
       -1  1    1    2    0  501 -.61661787E+03 0.27596098E+03 -.23469789E+03 0.71516100E+03 0.32000000E+00 0.0000E+00 0.9000E+01
#aMCatNLO 1  0  0  1  2 0.54397592D+02 0.00000000D+00  -5  6  0 0.00000000D+00 0.00000000D+00 0.00000000D+00 0.00000000D+00 0.00000000D+00
  <mgrwgt>
 0.8423054394D-03    9    2    0
 0.861376897938731D+03 0.000000000000000D+00 0.000000000000000D+00 0.861376897938731D+03
 0.861376897938731D+03 0.000000000000000D+00 0.000000000000000D+00 -.861376897938731D+03
 0.703281523114403D+03 0.550709660257590D+03 -.310240567974543D+03 -.281867984765771D+03
 0.341835794995493D+03 0.659907489793989D+02 0.342155367547067D+02 0.333655853888293D+03
 0.677636477767566D+03 -.616700409236989D+03 0.276025031219836D+03 -.517878691225216D+02
 0.000000000000000D+00 0.000000000000000D+00 -.000000000000000D+00 0.000000000000000D+00
 0.989082022099109D+03 0.000000000000000D+00 0.000000000000000D+00 0.989082022099109D+03
 0.867618577634932D+03 0.000000000000000D+00 0.000000000000000D+00 -.867618577634932D+03
 0.683674443509846D+03 0.531526217166021D+03 -.299693283771525D+03 -.281867984765771D+03
 0.340700752876662D+03 0.565503620175188D+02 0.394059733097154D+02 0.333655853888293D+03
 0.699237213400689D+03 -.635744401068318D+03 0.286495643468439D+03 -.517878691225216D+02
 0.133088189946845D+03 0.476678218847779D+02 -.262083330066293D+02 0.121463444464177D+03
0.227017538543D-03 0.000000000000D+00 0.000000000000D+00 0.367746611095D-06 0.000000000000D+00  6 2 -2 25 1 -1 21 0 0.10177051D+00 0.17255907D+00 0.48602770D+06 0.48602770D+06 0.48602770D+06 0.10693814D+01  1  2  2  1  6  1        2 0.237630291432D-03 0.100000000000D+01
0.551200523450D-04 0.000000000000D+00 -.871807123094D-06 0.367746611095D-06 0.000000000000D+00  6 2 -2 25 1 -1 21 2 0.10177051D+00 0.17255907D+00 0.48602770D+06 0.48602770D+06 0.48602770D+06 0.10693814D+01  1  2  3  1  6  1        2 0.659807545009D-04 0.100000000000D+01
-.141433284796D-03 0.000000000000D+00 0.000000000000D+00 0.367746611095D-06 0.000000000000D+00  6 2 -2 25 1 -1 21 2 0.10177051D+00 0.17255907D+00 0.48602770D+06 0.48602770D+06 0.48602770D+06 0.10693814D+01  1  2 15  1  6  1        2 -.169300906754D-03 0.100000000000D+01
0.203171292637D-06 0.000000000000D+00 0.000000000000D+00 0.367746611095D-06 0.000000000000D+00  6 2 -2 25 1 -1 21 2 0.11719343D+00 0.17255907D+00 0.52092706D+06 0.52092706D+06 0.52092706D+06 0.10672542D+01  1  2 12  1  6  1        2 0.202605659460D-06 0.100000000000D+01
-.203677875207D-03 0.000000000000D+00 0.000000000000D+00 0.367746611095D-06 0.000000000000D+00  6 2 -2 25 1 -1 21 2 0.10177051D+00 0.17255907D+00 0.48602770D+06 0.48602770D+06 0.48602770D+06 0.10693814D+01  1  2  4  1  6  1        2 -.243809998531D-03 0.100000000000D+01
-.550314003169D-02 0.000000000000D+00 -.427086448862D-03 0.367746611095D-06 0.000000000000D+00  6 2 -2 25 1 -1 21 2 0.11725582D+00 0.17255907D+00 0.48602770D+06 0.48602770D+06 0.48602770D+06 0.10693814D+01  1  2  5  1  6  1        2 -.552553341801D-02 0.100000000000D+01
0.551249376918D-02 0.000000000000D+00 0.422838026013D-03 0.367746611095D-06 0.000000000000D+00  6 2 -2 25 1 -1 21 2 0.10177051D+00 0.17255907D+00 0.48602770D+06 0.48602770D+06 0.48602770D+06 0.10693814D+01  1  2  6  1  6  1        2 0.659866024428D-02 0.100000000000D+01
0.440958413788D-08 0.000000000000D+00 0.000000000000D+00 0.367746611095D-06 0.000000000000D+00  6 21 -2 25 1 -1 -2 2 0.11719343D+00 0.17255907D+00 0.52092706D+06 0.52092706D+06 0.52092706D+06 0.10672542D+01  1  2 12  5  6  1        2 0.453465595986D-08 0.100000000000D+01
-.117134346449D-03 0.000000000000D+00 -.929798358053D-05 0.367746611095D-06 0.000000000000D+00  6 21 -2 25 1 -1 -2 2 0.11725582D+00 0.17255907D+00 0.48602770D+06 0.48602770D+06 0.48602770D+06 0.10693814D+01  1  2  5  5  6  1        2 -.121528667782D-03 0.100000000000D+01
  </mgrwgt>
  </event>
  <event>
  5     66 0.18881543E-05 0.11124318E+03 0.75467711E-02 0.92333065E-01
        2 -1    0    0  502    0 0.00000000E+00 0.00000000E+00 0.12958147E+04 0.12958147E+04 0.32000000E+00 0.0000E+00 0.9000E+01
       -2 -1    0    0    0  501 0.00000000E+00 0.00000000E+00 -.66224911E+03 0.66224918E+03 0.32000000E+00 0.0000E+00 0.9000E+01
       25  1    1    2    0    0 0.24009935E+02 0.60062353E+03 0.21474202E+03 0.65043389E+03 0.12500000E+03 0.0000E+00 0.9000E+01
        1  1    1    2  502    0 -.55170196E+02 -.96630061E+02 0.71407389E+03 0.72269132E+03 0.32000000E+00 0.0000E+00 0.9000E+01
       -1  1    1    2    0  501 0.31160261E+02 -.50399347E+03 -.29525035E+03 0.58493868E+03 0.32000000E+00 0.0000E+00 0.9000E+01
#aMCatNLO 1  0  0  5  2 0.43584811D+01 0.00000000D+00  -5  6  0 0.00000000D+00 0.00000000D+00 0.00000000D+00 0.00000000D+00 0.00000000D+00
  <mgrwgt>
 0.3533323186D-03    1    2    0
 0.926365055428484D+03 0.000000000000000D+00 0.000000000000000D+00 0.926365055428484D+03
 0.926365055428484D+03 -.000000000000000D+00 -.000000000000000D+00 -.926365055428484D+03
 0.614045014813920D+03 0.239969788067997D+02 0.600690280728588D+03 0.464885622309046D+01
 0.519464104696092D+03 -.551566608516392D+02 -.966063535229108D+02 0.507412959324470D+03
 0.719220991346956D+03 0.311596820448395D+02 -.504083927205678D+03 -.512061815547560D+03
 0.000000000000000D+00 0.000000000000000D+00 0.000000000000000D+00 0.000000000000000D+00
 0.926365055428484D+03 0.000000000000000D+00 0.000000000000000D+00 0.926365055428484D+03
 0.926365055428484D+03 -.000000000000000D+00 -.000000000000000D+00 -.926365055428484D+03
 0.561618122174549D+03 0.274826005481358D+02 0.544301839614273D+03 -.526320170095758D+02
 0.483657309799391D+03 -.521825931093080D+02 -.144719159846566D+03 0.458538695283262D+03
 0.561743595723824D+03 -.212653452933032D+03 -.390765733057475D+03 -.342981804415984D+03
 0.245711083159204D+03 0.237353445494204D+03 -.881694671023222D+01 -.629248738577026D+02
0.181884430976D-03 0.000000000000D+00 0.000000000000D+00 0.431296399651D-05 0.000000000000D+00  6 2 -2 25 1 -1 21 2 0.19935611D+00 0.10188449D+00 0.37841977D+06 0.37841977D+06 0.37841977D+06 0.10771683D+01  1  2 14  4  6  5       -1 0.353332318560D-03 0.100000000000D+01
  </mgrwgt>
  </event>
  <event>
  5     66 0.18881543E-05 0.44223376E+02 0.75467711E-02 0.89853109E-01
        2 -1    0    0  502    0 0.00000000E+00 0.00000000E+00 0.49083418E+03 0.49083428E+03 0.32000000E+00 0.0000E+00 0.9000E+01
       -2 -1    0    0    0  501 0.00000000E+00 0.00000000E+00 -.12536982E+04 0.12536983E+04 0.32000000E+00 0.0000E+00 0.9000E+01
       25  1    1    2    0    0 -.57711858E+03 0.16114095E+02 -.23922419E+03 0.63732153E+03 0.12500000E+03 0.0000E+00 0.9000E+01
        1  1    1    2  502    0 0.62133705E+03 -.15853465E+02 -.41366300E+02 0.62291439E+03 0.32000000E+00 0.0000E+00 0.9000E+01
       -1  1    1    2    0  501 -.44218467E+02 -.26063030E+00 -.48227357E+03 0.48429665E+03 0.32000000E+00 0.0000E+00 0.9000E+01
#aMCatNLO 1  0  0  1  1 0.27840453D+03 0.00000000D+00  -5  6  0 0.00000000D+00 0.00000000D+00 0.00000000D+00 0.00000000D+00 0.00000000D+00
  <mgrwgt>
 0.3601964184D-02    7    2    0
 0.784447623938036D+03 0.000000000000000D+00 0.000000000000000D+00 0.784447623938036D+03
 0.784447623938036D+03 0.000000000000000D+00 0.000000000000000D+00 -.784447623938036D+03
 0.592328449232199D+03 -.577094268643454D+03 0.161136236748188D+02 0.439380017839359D+02
 0.672513476017824D+03 0.621316876611927D+03 -.158529501640387D+02 0.256882070674216D+03
 0.304053322626049D+03 -.442226079684726D+02 -.260673510780157D+00 -.300820072458152D+03
 0.000000000000000D+00 -.000000000000000D+00 -.000000000000000D+00 0.000000000000000D+00
 0.101574668162342D+04 0.000000000000000D+00 0.000000000000000D+00 0.101574668162342D+04
 0.885165754882353D+03 0.000000000000000D+00 0.000000000000000D+00 -.885165754882353D+03
 0.527480575922029D+03 -.503912637527654D+03 0.821721589967877D+02 0.439380017839359D+02
 0.762977772946088D+03 0.715128936250549D+03 0.688279617093048D+02 0.256882070674216D+03
 0.302947242916353D+03 -.455397655296146D+01 0.355468324108795D+02 -.300820072458152D+03
 0.307506844721302D+03 -.206662322169933D+03 -.186546953116972D+03 0.130580926741066D+03
0.240356789462D-02 0.000000000000D+00 0.000000000000D+00 0.300418987049D-05 0.000000000000D+00  6 2 -2 25 1 -1 21 0 0.75512962D-01 0.19287666D+00 0.39465977D+06 0.39465977D+06 0.39465977D+06 0.10758487D+01  1  2  2  1  6  1        2 0.257940209585D-02 0.100000000000D+01
0.900980134808D-03 0.000000000000D+00 -.923033358930D-05 0.300418987049D-05 0.000000000000D+00  6 2 -2 25 1 -1 21 2 0.75512962D-01 0.19287666D+00 0.39465977D+06 0.39465977D+06 0.39465977D+06 0.10758487D+01  1  2  3  1  6  1        2 0.111912924102D-02 0.100000000000D+01
-.185518385631D-02 0.000000000000D+00 0.000000000000D+00 0.300418987049D-05 0.000000000000D+00  6 2 -2 25 1 -1 21 2 0.75512962D-01 0.19287666D+00 0.39465977D+06 0.39465977D+06 0.39465977D+06 0.10758487D+01  1  2 15  1  6  1        2 -.230436878778D-02 0.100000000000D+01
-.433201484544D-03 0.000000000000D+00 0.000000000000D+00 0.300418987049D-05 0.000000000000D+00  6 2 -2 25 1 -1 21 2 0.75512962D-01 0.19287666D+00 0.39465977D+06 0.39465977D+06 0.39465977D+06 0.10758487D+01  1  2  4  1  6  1        2 -.538090053128D-03 0.100000000000D+01
-.535142284290D-02 0.000000000000D+00 -.217721672655D-02 0.300418987049D-05 0.000000000000D+00  6 2 -2 25 1 -1 21 2 0.10741995D+00 0.19287666D+00 0.39465977D+06 0.39465977D+06 0.39465977D+06 0.10758487D+01  1  2  5  1  6  1        2 -.439078881463D-02 0.100000000000D+01
0.587843420539D-02 0.000000000000D+00 0.204865714324D-02 0.300418987049D-05 0.000000000000D+00  6 2 -2 25 1 -1 21 2 0.75512962D-01 0.19287666D+00 0.39465977D+06 0.39465977D+06 0.39465977D+06 0.10758487D+01  1  2  6  1  6  1        2 0.730174546199D-02 0.100000000000D+01
-.170138688450D-03 0.000000000000D+00 -.945259948869D-04 0.300418987049D-05 0.000000000000D+00  6 21 -2 25 1 -1 -2 2 0.10741995D+00 0.19287666D+00 0.39465977D+06 0.39465977D+06 0.39465977D+06 0.10758487D+01  1  2  5  5  6  1        2 -.165064959396D-03 0.100000000000D+01
  </mgrwgt>
  </event>
  <event>
  5     66 0.18881543E-05 0.24500872E+02 0.75467711E-02 0.93056256E-01
        2 -1    0    0  502    0 0.00000000E+00 0.00000000E+00 0.84342706E+03 0.84342712E+03 0.32000000E+00 0.0000E+00 0.9000E+01
       -2 -1    0    0    0  501 -.00000000E+00 -.00000000E+00 -.10246049E+04 0.10246050E+04 0.32000000E+00 0.0000E+00 0.9000E+01
       25  1    1    2    0    0 -.36791380E+02 0.50407310E+03 0.13169893E+03 0.53704087E+03 0.12500000E+03 0.0000E+00 0.9000E+01
        1  1    1    2  502    0 0.24072049E+02 0.46038777E+01 0.42992320E+03 0.43062131E+03 0.32000000E+00 0.0000E+00 0.9000E+01
       -1  1    1    2    0  501 0.12719330E+02 -.50867697E+03 -.74279998E+03 0.90036990E+03 0.32000000E+00 0.0000E+00 0.9000E+01
#aMCatNLO 1  0  0  4  1 0.93314617D+01 0.00000000D+00  -5  6  0 0.00000000D+00 0.00000000D+00 0.00000000D+00 0.00000000D+00 0.00000000D+00
  <mgrwgt>
 0.2099341986D-01    6    2    0
 0.929612617810512D+03 0.000000000000000D+00 0.000000000000000D+00 0.929612617810512D+03
 0.929612617810512D+03 -.000000000000000D+00 -.000000000000000D+00 -.929612617810512D+03
 0.552534105019428D+03 -.367882302311743D+02 0.504156611551933D+03 0.184774658312637D+03
 0.474411349193319D+03 0.240647033902072D+02 0.460247279044922D+01 0.473778255662267D+03
 0.832279781408277D+03 0.127235268409674D+02 -.508759084342382D+03 -.658552913974903D+03
 0.000000000000000D+00 0.000000000000000D+00 0.000000000000000D+00 0.000000000000000D+00
 0.929612617810512D+03 0.000000000000000D+00 0.000000000000000D+00 0.929612617810512D+03
 0.929612617810512D+03 -.000000000000000D+00 -.000000000000000D+00 -.929612617810512D+03
 0.555456606414650D+03 -.363599816303660D+02 0.504238515845571D+03 0.193205881078644D+03
 0.650517487626578D+02 -.486401544188258D+02 -.662868656556886D+01 0.426840240559412D+02
 0.822287984775532D+03 0.133630325006254D+02 -.508636776273582D+03 -.645962529169154D+03
 0.416428895668185D+03 0.716371035485667D+02 0.110269469935802D+02 0.410072624034569D+03
0.150399125072D-01 0.000000000000D+00 0.000000000000D+00 0.967135686093D-04 0.000000000000D+00  6 2 -2 25 1 -1 21 0 0.12975802D+00 0.15763153D+00 0.27780376D+06 0.27780376D+06 0.27780376D+06 0.10870304D+01  1  2  2  3  6  4        1 0.154589034437D-01 0.100000000000D+01
0.930111384779D-02 0.000000000000D+00 -.577572241275D-04 0.967135686093D-04 0.000000000000D+00  6 2 -2 25 1 -1 21 2 0.12975802D+00 0.15763153D+00 0.27780376D+06 0.27780376D+06 0.27780376D+06 0.10870304D+01  1  2  3  3  6  4        1 0.112967024624D-01 0.100000000000D+01
-.920786945443D-02 0.000000000000D+00 0.000000000000D+00 0.967135686093D-04 0.000000000000D+00  6 2 -2 25 1 -1 21 2 0.12975802D+00 0.15763153D+00 0.27780376D+06 0.27780376D+06 0.27780376D+06 0.10870304D+01  1  2 15  3  6  4        1 -.111834521372D-01 0.100000000000D+01
-.334542027028D-03 0.000000000000D+00 0.000000000000D+00 0.967135686093D-04 0.000000000000D+00  6 2 -2 25 1 -1 21 2 0.12975802D+00 0.15763153D+00 0.27780376D+06 0.27780376D+06 0.27780376D+06 0.10870304D+01  1  2  4  3  6  4        1 -.406319264805D-03 0.100000000000D+01
-.494364844007D-02 0.000000000000D+00 0.000000000000D+00 0.967135686093D-04 0.000000000000D+00  6 2 -2 25 1 -1 21 2 0.12975802D+00 0.15763153D+00 0.27780376D+06 0.27780376D+06 0.27780376D+06 0.10870304D+01  1  2  5  3  6  4        1 -.600432662369D-02 0.100000000000D+01
0.974177736556D-02 0.000000000000D+00 -.000000000000D+00 0.967135686093D-04 0.000000000000D+00  6 2 -2 25 1 -1 21 2 0.12975802D+00 0.15763153D+00 0.27780376D+06 0.27780376D+06 0.27780376D+06 0.10870304D+01  1  2  6  3  6  4        1 0.118319119790D-01 0.100000000000D+01
  </mgrwgt>
  </event>
  <event>
  5     66 -.18881543E-05 0.16776813E+02 0.75467711E-02 0.92926274E-01
        2 -1    0    0  502    0 0.00000000E+00 0.00000000E+00 0.28025440E+04 0.28025440E+04 0.32000000E+00 0.0000E+00 0.9000E+01
       -2 -1    0    0    0  501 0.00000000E+00 0.00000000E+00 -.43261819E+03 0.43261830E+03 0.32000000E+00 0.0000E+00 0.9000E+01
       25  1    1    2    0    0 -.31029934E+03 0.46171101E+03 0.35641531E+02 0.57127757E+03 0.12500000E+03 0.0000E+00 0.9000E+01
        1  1    1    2  502    0 0.30279118E+03 -.47671635E+03 0.24666421E+04 0.25304673E+04 0.32000000E+00 0.0000E+00 0.9000E+01
       -1  1    1    2    0  501 0.75081576E+01 0.15005332E+02 -.13235784E+03 0.13341751E+03 0.32000000E+00 0.0000E+00 0.9000E+01
#aMCatNLO 1  0  0  1  4 0.14596393D+02 0.00000000D+00  -5  6  0 0.00000000D+00 0.00000000D+00 0.00000000D+00 0.00000000D+00 0.00000000D+00
  <mgrwgt>
 -.1563098257D-01   11    2    0
 0.110110477563597D+04 0.000000000000000D+00 0.000000000000000D+00 0.110110477563597D+04
 0.110110477563597D+04 0.000000000000000D+00 0.000000000000000D+00 -.110110477563597D+04
 0.800925548822053D+03 -.310300750810400D+03 0.461716390038614D+03 -.562483914411887D+03
 0.106290063049925D+04 0.302793328395423D+03 -.476719725560537D+03 0.900451139072190D+03
 0.338383371950645D+03 0.750742241497784D+01 0.150033355219239D+02 -.337967224660303D+03
 0.000000000000000D+00 0.000000000000000D+00 -.000000000000000D+00 0.000000000000000D+00
 0.120576758023299D+04 0.000000000000000D+00 0.000000000000000D+00 0.120576758023299D+04
 0.110163798682602D+04 0.000000000000000D+00 0.000000000000000D+00 -.110163798682602D+04
 0.804077708872880D+03 -.315147651863317D+03 0.463907065541341D+03 -.562483914411887D+03
 0.105979379682734D+04 0.296383067353581D+03 -.473822451265657D+03 0.900451139072190D+03
 0.338386417976980D+03 0.546366568635061D+01 0.159270613727420D+02 -.337967224660303D+03
 0.105147643381808D+03 0.133009188233856D+02 -.601167564842600D+01 0.104129593406964D+03
0.243213144347D-03 0.000000000000D+00 0.000000000000D+00 0.111793885409D-03 0.000000000000D+00  6 2 -2 25 1 -1 21 0 0.43116063D+00 0.66556654D-01 0.33160276D+06 0.33160276D+06 0.33160276D+06 0.10813484D+01  1  2  2  1  6  1        2 0.153147476949D-03 0.100000000000D+01
0.153173060515D-03 0.000000000000D+00 -.934002513786D-06 0.111793885409D-03 0.000000000000D+00  6 2 -2 25 1 -1 21 2 0.43116063D+00 0.66556654D-01 0.33160276D+06 0.33160276D+06 0.33160276D+06 0.10813484D+01  1  2  3  1  6  1        2 0.112781133490D-03 0.100000000000D+01
-.161461336377D-03 0.000000000000D+00 0.000000000000D+00 0.111793885409D-03 0.000000000000D+00  6 2 -2 25 1 -1 21 2 0.43116063D+00 0.66556654D-01 0.33160276D+06 0.33160276D+06 0.33160276D+06 0.10813484D+01  1  2 15  1  6  1        2 -.118883780674D-03 0.100000000000D+01
0.174832684097D-08 0.000000000000D+00 0.000000000000D+00 0.111793885409D-03 0.000000000000D+00  6 2 -2 25 1 -1 21 2 0.47224228D+00 0.66556654D-01 0.33925218D+06 0.33925218D+06 0.33925218D+06 0.10806230D+01  1  2 12  1  6  1        2 0.873373358769D-09 0.100000000000D+01
0.391498466650D-01 0.000000000000D+00 0.000000000000D+00 0.111793885409D-03 0.000000000000D+00  6 2 -2 25 1 -1 21 2 0.47360799D+00 0.66556654D-01 0.33925218D+06 0.33925218D+06 0.33925218D+06 0.10806230D+01  1  2 12  1  6  1        2 0.193016281382D-01 0.100000000000D+01
-.608172321622D-01 0.000000000000D+00 0.000000000000D+00 0.111793885409D-03 0.000000000000D+00  6 2 -2 25 1 -1 21 2 0.43116063D+00 0.66556654D-01 0.33160276D+06 0.33160276D+06 0.33160276D+06 0.10813484D+01  1  2  4  1  6  1        2 -.447796522176D-01 0.100000000000D+01
-.416968386632D-01 0.000000000000D+00 -.437718739068D-03 0.111793885409D-03 0.000000000000D+00  6 2 -2 25 1 -1 21 2 0.47220129D+00 0.66556654D-01 0.33160276D+06 0.33160276D+06 0.33160276D+06 0.10813484D+01  1  2  5  1  6  1        2 -.209042109242D-01 0.100000000000D+01
0.415665016125D-01 0.000000000000D+00 0.435915576319D-03 0.111793885409D-03 0.000000000000D+00  6 2 -2 25 1 -1 21 2 0.43116063D+00 0.66556654D-01 0.33160276D+06 0.33160276D+06 0.33160276D+06 0.10813484D+01  1  2  6  1  6  1        2 0.306053633146D-01 0.100000000000D+01
0.267236985299D-10 0.000000000000D+00 0.000000000000D+00 0.111793885409D-03 0.000000000000D+00  6 21 -2 25 1 -1 -2 2 0.47224228D+00 0.66556654D-01 0.33925218D+06 0.33925218D+06 0.33925218D+06 0.10806230D+01  1  2 12  5  6  1        2 0.815210200117D-12 0.100000000000D+01
0.614960135409D-03 0.000000000000D+00 0.000000000000D+00 0.111793885409D-03 0.000000000000D+00  6 21 -2 25 1 -1 -2 2 0.47360799D+00 0.66556654D-01 0.33925218D+06 0.33925218D+06 0.33925218D+06 0.10806230D+01  1  2 12  5  6  1        2 0.183143143877D-04 0.100000000000D+01
-.635034293032D-03 0.000000000000D+00 -.654515601643D-05 0.111793885409D-03 0.000000000000D+00  6 21 -2 25 1 -1 -2 2 0.47220129D+00 0.66556654D-01 0.33160276D+06 0.33160276D+06 0.33160276D+06 0.10813484D+01  1  2  5  5  6  1        2 -.194709023518D-04 0.100000000000D+01
  </mgrwgt>
  </event>
  <event>
  5     66 0.18881543E-05 0.19175743E+03 0.75467711E-02 0.94151044E-01
        2 -1    0    0  502    0 0.00000000E+00 0.00000000E+00 0.23519553E+04 0.23519553E+04 0.32000000E+00 0.0000E+00 0.9000E+01
       -2 -1    0    0    0  501 0.00000000E+00 0.00000000E+00 -.93321990E+03 0.93321996E+03 0.32000000E+00 0.0000E+00 0.9000E+01
       25  1    1    2    0    0 -.36348038E+03 -.36363480E+03 0.17895071E+04 0.18660946E+04 0.12500000E+03 0.0000E+00 0.9000E+01
        1  1    1    2  502    0 0.22889531E+03 0.22707189E+03 0.46263516E+03 0.56390257E+03 0.32000000E+00 0.0000E+00 0.9000E+01
       -1  1    1    2    0  501 0.13458507E+03 0.13656290E+03 -.83340687E+03 0.85517815E+03 0.32000000E+00 0.0000E+00 0.9000E+01
#aMCatNLO 1  0  0  4  1 0.93314617D+01 0.00000000D+00  -5  6  0 0.00000000D+00 0.00000000D+00 0.00000000D+00 0.00000000D+00 0.00000000D+00
  <mgrwgt>
 0.3711376782D-04    1    2    0
 0.148151666609165D+04 0.000000000000000D+00 0.000000000000000D+00 0.148151666609165D+04
 0.148151666609165D+04 -.000000000000000D+00 -.000000000000000D+00 -.148151666609165D+04
 0.121227654875385D+04 -.363365885833336D+03 -.363521538916671D+03 0.109078263389860D+04
 0.403466035369353D+03 0.228765531386657D+03 0.226943147125932D+03 0.242792053656255D+03
 0.134729074806010D+04 0.134600354446680D+03 0.136578391790739D+03 -.133357468755485D+04
 0.000000000000000D+00 0.000000000000000D+00 0.000000000000000D+00 0.000000000000000D+00
 0.148151666609165D+04 0.000000000000000D+00 0.000000000000000D+00 0.148151666609165D+04
 0.148151666609165D+04 -.000000000000000D+00 -.000000000000000D+00 -.148151666609165D+04
 0.121272549243473D+04 -.362116284721870D+03 -.362281892335435D+03 0.109210885301152D+04
 0.396680226301479D+03 0.230229581052094D+03 0.218326648588631D+03 0.238081953249772D+03
 0.134611267959592D+04 0.135988262522491D+03 0.137955243560046D+03 -.133210168132891D+04
 0.751493385116738D+01 -.410155885271442D+01 0.600000018675804D+01 0.191087506761822D+01
0.169643322387D-03 0.000000000000D+00 0.000000000000D+00 0.369575289481D-05 0.000000000000D+00  6 2 -2 25 1 -1 21 2 0.36183928D+00 0.14357230D+00 0.27194306D+06 0.27194306D+06 0.27194306D+06 0.10877210D+01  1  2 14  3  6  4        1 0.371137678199D-04 0.100000000000D+01
  </mgrwgt>
  </event>
  <event>
  6     66 0.18881543E-05 0.16800271E+03 0.75467711E-02 0.92038692E-01
       21 -1    0    0  502  503 0.00000000E+00 0.00000000E+00 0.93648479E+03 0.93648509E+03 0.75000000E+00 0.0000E+00 0.9000E+01
       -2 -1    0    0    0  501 0.00000000E+00 0.00000000E+00 -.69200153E+03 0.69200160E+03 0.32000000E+00 0.0000E+00 0.9000E+01
       25  1    1    2    0    0 -.45361326E+03 -.27319688E+03 -.17145170E+02 0.54435327E+03 0.12500000E+03 0.0000E+00 0.9000E+01
        1  1    1    2  502    0 0.23190711E+03 0.30544995E+03 0.43427379E+03 0.57937415E+03 0.32000000E+00 0.0000E+00 0.9000E+01
       -1  1    1    2    0  501 0.12953010E+03 -.14289731E+03 -.26935881E+03 0.33128833E+03 0.32000000E+00 0.0000E+00 0.9000E+01
       -2  1    1    2    0  503 0.92176057E+02 0.11064424E+03 0.96713454E+02 0.17347094E+03 0.32000000E+00 0.0000E+00 0.9000E+01
#aMCatNLO 2  0  0  1  2 0.14400893D+03 0.00000000D+00  -5  6  0 0.00000000D+00 0.00000000D+00 0.00000000D+00 0.00000000D+00 0.00000000D+00
  <mgrwgt>
 0.9711494168D-03    2    2    0
 0.720155600429881D+03 0.000000000000000D+00 0.000000000000000D+00 0.720155600429881D+03
 0.720155600429881D+03 0.000000000000000D+00 0.000000000000000D+00 -.720155600429881D+03
 0.501636828150714D+03 -.420090444233597D+03 -.232912610139545D+03 -.727340502014876D+02
 0.579002233283850D+03 0.267546029166706D+03 0.348227619495848D+03 0.377359554596235D+03
 0.359672139425197D+03 0.152544415066891D+03 -.115315009356303D+03 -.304625504394747D+03
 0.000000000000000D+00 0.000000000000000D+00 0.000000000000000D+00 0.000000000000000D+00
 0.845749345527415D+03 0.000000000000000D+00 0.000000000000000D+00 0.845749345527415D+03
 0.766242337966440D+03 0.000000000000000D+00 0.000000000000000D+00 -.766242337966440D+03
 0.548914937698111D+03 -.453623095833843D+03 -.273163785475909D+03 -.727340502014876D+02
 0.538016194276116D+03 0.231891822510684D+03 0.305429819289080D+03 0.377359554596235D+03
 0.360561502916259D+03 0.129555215881739D+03 -.142910270783150D+03 -.304625504394747D+03
 0.164499048603370D+03 0.921760574414198D+02 0.110644236969979D+03 0.795070075609749D+02
-.431281890100D-09 0.000000000000D+00 0.000000000000D+00 0.253820675816D-06 0.000000000000D+00  6 21 -2 25 1 -1 -2 2 0.14749159D+00 0.10005849D+00 0.39971654D+06 0.39971654D+06 0.39971654D+06 0.10754498D+01  1  2 13  5  6  1        2 -.101764633870D-08 0.100000000000D+01
0.447012466563D-03 0.000000000000D+00 0.000000000000D+00 0.253820675816D-06 0.220209051147D-09  6 21 -2 25 1 -1 -2 2 0.14407458D+00 0.10646178D+00 0.39971654D+06 0.39971654D+06 0.39971654D+06 0.10754498D+01  1  2  1  5  6  1        2 0.971150434433D-03 0.100000000000D+01
  </mgrwgt>
  </event>
  <event>
  5     66 0.18881543E-05 0.29385752E+03 0.75467711E-02 0.91514480E-01
        2 -1    0    0  502    0 0.00000000E+00 0.00000000E+00 0.10713187E+04 0.10713187E+04 0.32000000E+00 0.0000E+00 0.9000E+01
       -2 -1    0    0    0  501 0.00000000E+00 0.00000000E+00 -.93414839E+03 0.93414845E+03 0.32000000E+00 0.0000E+00 0.9000E+01
       25  1    1    2    0    0 -.63272962E+03 0.13431030E+03 0.19029521E+03 0.68572830E+03 0.12500000E+03 0.0000E+00 0.9000E+01
        1  1    1    2  502    0 0.29283052E+03 0.25274115E+02 0.54170366E+03 0.61630468E+03 0.32000000E+00 0.0000E+00 0.9000E+01
       -1  1    1    2    0  501 0.33989910E+03 -.15958442E+03 -.59482856E+03 0.70343422E+03 0.32000000E+00 0.0000E+00 0.9000E+01
#aMCatNLO 1  0  0  2  5 0.31549388D+02 0.00000000D+00  -5  6  0 0.00000000D+00 0.00000000D+00 0.00000000D+00 0.00000000D+00 0.00000000D+00
  <mgrwgt>
 0.1422179403D-03    5    4    0
 0.100038529871892D+04 0.000000000000000D+00 0.000000000000000D+00 0.100038529871892D+04
 0.100038529871892D+04 0.000000000000000D+00 0.000000000000000D+00 -.100038529871892D+04
 0.674331884128088D+03 -.632729955634663D+03 0.134338235066637D+03 0.143890693908520D+03
 0.580490925814246D+03 0.292769069072559D+03 0.252688111971017D+02 0.500617093523336D+03
 0.745947787495501D+03 0.339960886562103D+03 -.159607046263739D+03 -.644507787431856D+03
 0.000000000000000D+00 -.000000000000000D+00 0.000000000000000D+00 -.000000000000000D+00
 0.151442910445708D+04 0.000000000000000D+00 0.000000000000000D+00 0.151442910445708D+04
 0.166158677804291D+04 0.000000000000000D+00 0.000000000000000D+00 -.166158677804291D+04
 0.439982779618814D+03 -.384335930714939D+03 0.976791018033239D+02 0.143890693908520D+03
 0.778342481109509D+03 0.595669237330451D+03 -.194345895277536D+02 0.500617093523336D+03
 0.996478601885673D+03 0.728368504325480D+03 -.216930029876873D+03 -.644507787431856D+03
 0.961212019885996D+03 -.939701810940992D+03 0.138685517601303D+03 -.147157673585832D+03
 0.100038529871892D+04 0.000000000000000D+00 0.000000000000000D+00 0.100038529871892D+04
 0.100038529871892D+04 0.000000000000000D+00 0.000000000000000D+00 -.100038529871892D+04
 0.674331884128088D+03 -.632729955634663D+03 0.134338235066637D+03 0.143890693908520D+03
 0.580490925814246D+03 0.292769069072559D+03 0.252688111971017D+02 0.500617093523336D+03
 0.000000000000000D+00 -.000000000000000D+00 0.000000000000000D+00 -.000000000000000D+00
 0.745947787495501D+03 0.339960886562103D+03 -.159607046263739D+03 -.644507787431856D+03
 0.151442910445708D+04 0.000000000000000D+00 0.000000000000000D+00 0.151442910445708D+04
 0.166158677804291D+04 0.000000000000000D+00 0.000000000000000D+00 -.166158677804291D+04
 0.439982779618814D+03 -.384335930714939D+03 0.976791018033239D+02 0.143890693908520D+03
 0.778342481109509D+03 0.595669237330451D+03 -.194345895277536D+02 0.500617093523336D+03
 0.961212019885996D+03 -.939701810940992D+03 0.138685517601303D+03 -.147157673585832D+03
 0.996478601885673D+03 0.728368504325480D+03 -.216930029876873D+03 -.644507787431856D+03
0.420524322249D-03 0.000000000000D+00 0.000000000000D+00 0.622037373179D-06 0.000000000000D+00  6 2 -2 25 1 -1 21 0 0.16481827D+00 0.14371515D+00 0.44104342D+06 0.44104342D+06 0.44104342D+06 0.10723828D+01  1  2  2  2  6  2       -2 0.389752754055D-03 0.100000000000D+01
0.299799643346D-04 0.000000000000D+00 -.161492412403D-05 0.622037373179D-06 0.000000000000D+00  6 2 -2 25 1 -1 21 2 0.16481827D+00 0.14371515D+00 0.44104342D+06 0.44104342D+06 0.44104342D+06 0.10723828D+01  1  2  3  2  6  2       -2 0.319542672744D-04 0.100000000000D+01
-.273016288272D-03 0.000000000000D+00 0.000000000000D+00 0.622037373179D-06 0.000000000000D+00  6 2 -2 25 1 -1 21 2 0.16481827D+00 0.14371515D+00 0.44104342D+06 0.44104342D+06 0.44104342D+06 0.10723828D+01  1  2 15  2  6  2       -2 -.290995524489D-03 0.100000000000D+01
0.232704302218D-04 0.000000000000D+00 -.229254776628D-03 0.622037373179D-06 0.000000000000D+00  6 2 -2 25 1 -1 21 2 0.16481827D+00 0.30522644D+00 0.44104342D+06 0.44104342D+06 0.44104342D+06 0.10723828D+01  1  2  5  2  6  2       -2 0.194122155583D-05 0.100000000000D+01
0.161694991977D-04 0.000000000000D+00 -.186814504009D-04 0.622037373179D-06 0.000000000000D+00  6 2 21 25 1 2 -1 2 0.16481827D+00 0.30522644D+00 0.44104342D+06 0.44104342D+06 0.44104342D+06 0.10723828D+01  3  4  5  6  5  2       -2 0.956522186974D-05 0.100000000000D+01
  </mgrwgt>
  </event>
  <event>
  5     66 0.18881543E-05 0.18744470E+03 0.75467711E-02 0.94440116E-01
        2 -1    0    0  502    0 0.00000000E+00 0.00000000E+00 0.10606667E+04 0.10606668E+04 0.32000000E+00 0.0000E+00 0.9000E+01
       -2 -1    0    0    0  501 0.00000000E+00 0.00000000E+00 -.68656855E+03 0.68656862E+03 0.32000000E+00 0.0000E+00 0.9000E+01
       25  1    1    2    0    0 -.41484040E+03 -.17784413E+03 0.17061156E+03 0.49845200E+03 0.12500000E+03 0.0000E+00 0.9000E+01
        1  1    1    2  502    0 0.36078654E+03 -.16062850E+01 0.66173063E+03 0.75369558E+03 0.32000000E+00 0.0000E+00 0.9000E+01
       -1  1    1    2    0  501 0.54053864E+02 0.17945042E+03 -.45824401E+03 0.49508782E+03 0.32000000E+00 0.0000E+00 0.9000E+01
#aMCatNLO 1  0  0  1  4 0.69109597D+02 0.00000000D+00  -5  6  0 0.00000000D+00 0.00000000D+00 0.00000000D+00 0.00000000D+00 0.00000000D+00
  <mgrwgt>
 0.5233811312D-03    1    2    0
 0.853358378664001D+03 0.000000000000000D+00 0.000000000000000D+00 0.853358378664001D+03
 0.853358378664001D+03 0.000000000000000D+00 0.000000000000000D+00 -.853358378664001D+03
 0.472892558706664D+03 -.414815206286113D+03 -.177871688366003D+03 0.655162513562261D+02
 0.626476453492912D+03 0.360748281957658D+03 -.160611468266392D+01 0.512182432577769D+03
 0.607347745128427D+03 0.540669243284548D+02 0.179477803048667D+03 -.577698683933995D+03
 0.000000000000000D+00 0.000000000000000D+00 -.000000000000000D+00 0.000000000000000D+00
 0.131186139052135D+04 0.000000000000000D+00 0.000000000000000D+00 0.131186139052135D+04
 0.931057625831228D+03 0.000000000000000D+00 0.000000000000000D+00 -.931057625831228D+03
 0.526233240503543D+03 -.492248077786113D+03 -.121226540555127D+03 0.655162513562261D+02
 0.581516367088950D+03 0.267128086259601D+03 0.668806884110280D+02 0.512182432577769D+03
 0.630734091462328D+03 -.418851888438786D+02 0.249670494190346D+03 -.577698683933995D+03
 0.504435317297755D+03 0.267005180370391D+03 -.195324642046247D+03 0.380803764690118D+03
0.205640930236D-03 0.000000000000D+00 0.000000000000D+00 0.372878738729D-05 0.000000000000D+00  6 2 -2 25 1 -1 21 2 0.16317951D+00 0.10562594D+00 0.25833265D+06 0.25833265D+06 0.25833265D+06 0.10893895D+01  1  2 14  1  6  1        2 0.523381131187D-03 0.100000000000D+01
  </mgrwgt>
  </event>
  <event>
  5     66 0.18881543E-05 0.43428382E+02 0.75467711E-02 0.81719004E-01
        2 -1    0    0  502    0 0.00000000E+00 0.00000000E+00 0.11259045E+04 0.11259046E+04 0.32000000E+00 0.0000E+00 0.9000E+01
       -2 -1    0    0    0  501 0.00000000E+00 0.00000000E+00 -.77531878E+03 0.77531885E+03 0.32000000E+00 0.0000E+00 0.9000E+01
       25  1    1    2    0    0 -.13915726E+03 0.46689439E+03 -.47507690E+03 0.69186572E+03 0.12500000E+03 0.0000E+00 0.9000E+01
        1  1    1    2  502    0 0.15693696E+01 -.43406136E+02 0.75767481E+03 0.75891882E+03 0.32000000E+00 0.0000E+00 0.9000E+01
       -1  1    1    2    0  501 0.13758790E+03 -.42348826E+03 0.67987832E+02 0.45043888E+03 0.32000000E+00 0.0000E+00 0.9000E+01
#aMCatNLO 1  0  0  2  5 0.19177409D+02 0.00000000D+00  -5  6  0 0.00000000D+00 0.00000000D+00 0.00000000D+00 0.00000000D+00 0.00000000D+00
  <mgrwgt>
 0.2892406900D-02    3    2    0
 0.934309920937296D+03 0.000000000000000D+00 0.000000000000000D+00 0.934309920937296D+03
 0.934309920937296D+03 0.000000000000000D+00 0.000000000000000D+00 -.934309920937296D+03
 0.793085639219839D+03 -.139177997652161D+03 0.466960576861281D+03 -.613137126394786D+03
 0.629918566389841D+03 0.156914860439669D+01 -.434000245012355D+02 0.628419745018075D+03
 0.445615636264912D+03 0.137608849047764D+03 -.423560552360045D+03 -.152826186232894D+02
 0.000000000000000D+00 -.000000000000000D+00 -.000000000000000D+00 0.000000000000000D+00
 0.214676161397055D+04 0.000000000000000D+00 0.000000000000000D+00 0.214676161397055D+04
 0.205322090359123D+04 0.000000000000000D+00 0.000000000000000D+00 -.205322090359123D+04
 0.128465576989246D+04 0.411966125030040D+03 0.104358144060828D+04 -.613137126394786D+03
 0.820415893843978D+03 0.386286568286977D+03 0.359101030497408D+03 0.628419745018075D+03
 0.409563017295070D+03 0.364454541531813D+03 -.186228874938053D+03 -.152826186232894D+02
 0.168534783653027D+04 -.116270723484883D+04 -.121645359616764D+04 0.935407103793263D+02
0.253353779958D-02 0.000000000000D+00 0.000000000000D+00 0.450008391157D-05 0.000000000000D+00  6 2 -2 25 1 -1 21 0 0.17321609D+00 0.11927982D+00 0.24592690D+06 0.24592690D+06 0.24592690D+06 0.10909962D+01  1  2  2  2  6  2       -2 0.367480517367D-02 0.100000000000D+01
0.110899895418D-02 0.000000000000D+00 -.972945224621D-05 0.450008391157D-05 0.000000000000D+00  6 2 -2 25 1 -1 21 2 0.17321609D+00 0.11927982D+00 0.24592690D+06 0.24592690D+06 0.24592690D+06 0.10909962D+01  1  2  3  2  6  2       -2 0.191462860619D-02 0.100000000000D+01
-.156218285861D-02 0.000000000000D+00 0.000000000000D+00 0.450008391157D-05 0.000000000000D+00  6 2 -2 25 1 -1 21 2 0.17321609D+00 0.11927982D+00 0.24592690D+06 0.24592690D+06 0.24592690D+06 0.10909962D+01  1  2 15  2  6  2       -2 -.269702687990D-02 0.100000000000D+01
  </mgrwgt>
  </event>
  <event>
  5     66 0.18881543E-05 0.38460912E+02 0.75467711E-02 0.93121254E-01
        2 -1    0    0  502    0 0.00000000E+00 0.00000000E+00 0.78950416E+03 0.78950423E+03 0.32000000E+00 0.0000E+00 0.9000E+01
       -2 -1    0    0    0  501 0.00000000E+00 0.00000000E+00 -.10471879E+04 0.10471879E+04 0.32000000E+00 0.0000E+00 0.9000E+01
       25  1    1    2    0    0 0.48606074E+03 -.24555792E+03 -.45553975E+03 0.72089888E+03 0.12500000E+03 0.0000E+00 0.9000E+01
        1  1    1    2  502    0 -.12905825E+02 0.36237700E+02 0.51005892E+03 0.51150751E+03 0.32000000E+00 0.0000E+00 0.9000E+01
       -1  1    1    2    0  501 -.47315491E+03 0.20932022E+03 -.31220286E+03 0.60428574E+03 0.32000000E+00 0.0000E+00 0.9000E+01
#aMCatNLO 1  0  0  1  2 0.23033860D+02 0.00000000D+00  -5  6  0 0.00000000D+00 0.00000000D+00 0.00000000D+00 0.00000000D+00 0.00000000D+00
  <mgrwgt>
 0.3776046667D-02    9    2    0
 0.909263040045586D+03 0.000000000000000D+00 0.000000000000000D+00 0.909263040045586D+03
 0.909263040045586D+03 0.000000000000000D+00 0.000000000000000D+00 -.909263040045586D+03
 0.663587682690734D+03 0.486134712532189D+03 -.245590681736228D+03 -.357885276219124D+03
 0.588794637414028D+03 -.129036899754868D+02 0.362317060902060D+02 0.587537133555256D+03
 0.566143759986409D+03 -.473231022556703D+03 0.209358975646022D+03 -.229651857336132D+03
 0.000000000000000D+00 0.000000000000000D+00 -.000000000000000D+00 0.000000000000000D+00
 0.131247004466847D+04 0.000000000000000D+00 0.000000000000000D+00 0.131247004466847D+04
 0.909664996375945D+03 0.000000000000000D+00 0.000000000000000D+00 -.909664996375945D+03
 0.659316370086081D+03 0.484390443856813D+03 -.237396509724232D+03 -.357885276219124D+03
 0.589324757506520D+03 -.144570579254151D+02 0.435290705153763D+02 0.587537133555256D+03
 0.570030822668439D+03 -.474729085647615D+03 0.216396530596730D+03 -.229651857336132D+03
 0.403463090783378D+03 0.479569971621781D+01 -.225290913878738D+02 0.402805048292527D+03
0.584154237355D-04 0.000000000000D+00 0.000000000000D+00 0.132582582221D-04 0.000000000000D+00  6 2 -2 25 1 -1 21 0 0.12146219D+00 0.16110583D+00 0.31066282D+06 0.31066282D+06 0.31066282D+06 0.10834315D+01  1  2  2  1  6  1        2 0.611461039087D-04 0.100000000000D+01
0.305482611084D-04 0.000000000000D+00 -.224330608279D-06 0.132582582221D-04 0.000000000000D+00  6 2 -2 25 1 -1 21 2 0.12146219D+00 0.16110583D+00 0.31066282D+06 0.31066282D+06 0.31066282D+06 0.10834315D+01  1  2  3  1  6  1        2 0.375344995104D-04 0.100000000000D+01
-.360820997829D-04 0.000000000000D+00 0.000000000000D+00 0.132582582221D-04 0.000000000000D+00  6 2 -2 25 1 -1 21 2 0.12146219D+00 0.16110583D+00 0.31066282D+06 0.31066282D+06 0.31066282D+06 0.10834315D+01  1  2 15  1  6  1        2 -.443339001140D-04 0.100000000000D+01
0.170220044909D-07 0.000000000000D+00 0.000000000000D+00 0.132582582221D-04 0.000000000000D+00  6 2 -2 25 1 -1 21 2 0.17534149D+00 0.16110583D+00 0.32738625D+06 0.32738625D+06 0.32738625D+06 0.10817561D+01  1  2 12  1  6  1        2 0.124351072608D-07 0.100000000000D+01
-.370095770137D-02 0.000000000000D+00 0.000000000000D+00 0.132582582221D-04 0.000000000000D+00  6 2 -2 25 1 -1 21 2 0.12146219D+00 0.16110583D+00 0.31066282D+06 0.31066282D+06 0.31066282D+06 0.10834315D+01  1  2  4  1  6  1        2 -.454734868663D-02 0.100000000000D+01
-.207786755172D-01 0.000000000000D+00 -.488491300474D-04 0.132582582221D-04 0.000000000000D+00  6 2 -2 25 1 -1 21 2 0.17535008D+00 0.16110583D+00 0.31066282D+06 0.31066282D+06 0.31066282D+06 0.10834315D+01  1  2  5  1  6  1        2 -.152727956817D-01 0.100000000000D+01
0.194722683137D-01 0.000000000000D+00 0.457315255910D-04 0.132582582221D-04 0.000000000000D+00  6 2 -2 25 1 -1 21 2 0.12146219D+00 0.16110583D+00 0.31066282D+06 0.31066282D+06 0.31066282D+06 0.10834315D+01  1  2  6  1  6  1        2 0.239254811557D-01 0.100000000000D+01
0.761172576724D-09 0.000000000000D+00 0.000000000000D+00 0.132582582221D-04 0.000000000000D+00  6 21 -2 25 1 -1 -2 2 0.17534149D+00 0.16110583D+00 0.32738625D+06 0.32738625D+06 0.32738625D+06 0.10817561D+01  1  2 12  5  6  1        2 0.312144638104D-09 0.100000000000D+01
-.927769160347D-03 0.000000000000D+00 -.218459657977D-05 0.132582582221D-04 0.000000000000D+00  6 21 -2 25 1 -1 -2 2 0.17535008D+00 0.16110583D+00 0.31066282D+06 0.31066282D+06 0.31066282D+06 0.10834315D+01  1  2  5  5  6  1        2 -.383649570936D-03 0.100000000000D+01
  </mgrwgt>
  </event>
  <event>
  5     66 0.18881543E-05 0.70544981E+02 0.75467711E-02 0.93459529E-01
        2 -1    0    0  502    0 0.00000000E+00 0.00000000E+00 0.17364653E+04 0.17364653E+04 0.32000000E+00 0.0000E+00 0.9000E+01
       -2 -1    0    0    0  501 0.00000000E+00 0.00000000E+00 -.39348151E+03 0.39348164E+03 0.32000000E+00 0.0000E+00 0.9000E+01
       25  1    1    2    0    0 0.38603741E+03 -.26906206E+03 0.48184235E+03 0.68499367E+03 0.12500000E+03 0.0000E+00 0.9000E+01
        1  1    1    2  502    0 -.45651424E+03 0.27196564E+03 0.10861377E+04 0.12091591E+04 0.32000000E+00 0.0000E+00 0.9000E+01
       -1  1    1    2    0  501 0.70476823E+02 -.29035801E+01 -.22499633E+03 0.23579411E+03 0.32000000E+00 0.0000E+00 0.9000E+01
#aMCatNLO 1  0  0  2  5 0.25453690D+02 0.00000000D+00  -5  6  0 0.00000000D+00 0.00000000D+00 0.00000000D+00 0.00000000D+00 0.00000000D+00
  <mgrwgt>
 0.1022678810D-01   11    4    0
 0.826599746651184D+03 0.000000000000000D+00 0.000000000000000D+00 0.826599746651184D+03
 0.826599746651184D+03 0.000000000000000D+00 0.000000000000000D+00 -.826599746651184D+03
 0.491081020145306D+03 0.386004004085304D+03 -.269047274212722D+03 0.644208150815569D+02
 0.675489034686412D+03 -.456489210147874D+03 0.271950733992116D+03 0.417068142251720D+03
 0.486629438470650D+03 0.704852060625697D+02 -.290345977939467D+01 -.481488957333277D+03
 0.000000000000000D+00 0.000000000000000D+00 0.000000000000000D+00 -.000000000000000D+00
 0.827300979978213D+03 0.000000000000000D+00 0.000000000000000D+00 0.827300979978213D+03
 0.109519146037818D+04 0.000000000000000D+00 0.000000000000000D+00 -.109519146037818D+04
 0.486249125371290D+03 0.378663781443038D+03 -.270697083715048D+03 0.644208150815569D+02
 0.681508208176847D+03 -.466680916536191D+03 0.269660016821285D+03 0.417068142251720D+03
 0.485638098585590D+03 0.631830060612920D+02 -.454472320383388D+01 -.481488957333277D+03
 0.269097008222663D+03 0.248341290318610D+02 0.558179009759600D+01 -.267890480399964D+03
 0.826599746651184D+03 0.000000000000000D+00 0.000000000000000D+00 0.826599746651184D+03
 0.826599746651184D+03 0.000000000000000D+00 0.000000000000000D+00 -.826599746651184D+03
 0.491081020145306D+03 0.386004004085304D+03 -.269047274212722D+03 0.644208150815569D+02
 0.675489034686412D+03 -.456489210147874D+03 0.271950733992116D+03 0.417068142251720D+03
 0.000000000000000D+00 0.000000000000000D+00 0.000000000000000D+00 -.000000000000000D+00
 0.486629438470650D+03 0.704852060625697D+02 -.290345977939467D+01 -.481488957333277D+03
 0.827300979978213D+03 0.000000000000000D+00 0.000000000000000D+00 0.827300979978213D+03
 0.109519146037818D+04 0.000000000000000D+00 0.000000000000000D+00 -.109519146037818D+04
 0.486249125371290D+03 0.378663781443038D+03 -.270697083715048D+03 0.644208150815569D+02
 0.681508208176847D+03 -.466680916536191D+03 0.269660016821285D+03 0.417068142251720D+03
 0.269097008222663D+03 0.248341290318610D+02 0.558179009759600D+01 -.267890480399964D+03
 0.485638098585590D+03 0.631830060612920D+02 -.454472320383388D+01 -.481488957333277D+03
0.527685268891D-04 0.000000000000D+00 0.000000000000D+00 0.861380300655D-05 0.000000000000D+00  6 2 -2 25 1 -1 21 0 0.26714852D+00 0.60535629D-01 0.29633795D+06 0.29633795D+06 0.29633795D+06 0.10849467D+01  1  2  2  2  6  2       -2 0.164480738961D-03 0.100000000000D+01
0.152402787576D-04 0.000000000000D+00 -.202645037526D-06 0.861380300655D-05 0.000000000000D+00  6 2 -2 25 1 -1 21 2 0.26714852D+00 0.60535629D-01 0.29633795D+06 0.29633795D+06 0.29633795D+06 0.10849467D+01  1  2  3  2  6  2       -2 0.559177656355D-04 0.100000000000D+01
-.395883647434D-04 0.000000000000D+00 0.000000000000D+00 0.861380300655D-05 0.000000000000D+00  6 2 -2 25 1 -1 21 2 0.26714852D+00 0.60535629D-01 0.29633795D+06 0.29633795D+06 0.29633795D+06 0.10849467D+01  1  2 15  2  6  2       -2 -.145252782894D-03 0.100000000000D+01
0.103400443572D-07 0.000000000000D+00 0.000000000000D+00 0.861380300655D-05 0.000000000000D+00  6 2 -2 25 1 -1 21 2 0.26714852D+00 0.80225564D-01 0.30788645D+06 0.30788645D+06 0.30788645D+06 0.10837191D+01  1  2 12  2  6  2       -2 0.205335223536D-07 0.100000000000D+01
0.606411003828D-02 0.000000000000D+00 0.000000000000D+00 0.861380300655D-05 0.000000000000D+00  6 2 -2 25 1 -1 21 2 0.26714852D+00 0.88705944D-01 0.30788645D+06 0.30788645D+06 0.30788645D+06 0.10837191D+01  1  2 12  2  6  2       -2 0.956841219636D-02 0.100000000000D+01
-.307920077282D-02 0.000000000000D+00 0.000000000000D+00 0.861380300655D-05 0.000000000000D+00  6 2 -2 25 1 -1 21 2 0.26714852D+00 0.60535629D-01 0.29633795D+06 0.29633795D+06 0.29633795D+06 0.10849467D+01  1  2  4  2  6  2       -2 -.112978266276D-01 0.100000000000D+01
-.924633304979D-02 0.000000000000D+00 -.545309320137D-04 0.861380300655D-05 0.000000000000D+00  6 2 -2 25 1 -1 21 2 0.26714852D+00 0.80233160D-01 0.29633795D+06 0.29633795D+06 0.29633795D+06 0.10849467D+01  1  2  5  2  6  2       -2 -.184402195208D-01 0.100000000000D+01
0.890798721994D-02 0.000000000000D+00 0.524365182344D-04 0.861380300655D-05 0.000000000000D+00  6 2 -2 25 1 -1 21 2 0.26714852D+00 0.60535629D-01 0.29633795D+06 0.29633795D+06 0.29633795D+06 0.10849467D+01  1  2  6  2  6  2       -2 0.326840965032D-01 0.100000000000D+01
0.381795158568D-09 0.000000000000D+00 0.000000000000D+00 0.861380300655D-05 0.000000000000D+00  6 2 21 25 1 2 -1 2 0.26714852D+00 0.80225564D-01 0.30788645D+06 0.30788645D+06 0.30788645D+06 0.10837191D+01  3  4 12  6  5  2       -2 0.725461303741D-08 0.100000000000D+01
0.279149024108D-03 0.000000000000D+00 0.000000000000D+00 0.861380300655D-05 0.000000000000D+00  6 2 21 25 1 2 -1 2 0.26714852D+00 0.88705944D-01 0.30788645D+06 0.30788645D+06 0.30788645D+06 0.10837191D+01  3  4 12  6  5  2       -2 0.414020561908D-02 0.100000000000D+01
-.340386594040D-03 0.000000000000D+00 -.201398851372D-05 0.861380300655D-05 0.000000000000D+00  6 2 21 25 1 2 -1 2 0.26714852D+00 0.80233160D-01 0.29633795D+06 0.29633795D+06 0.29633795D+06 0.10849467D+01  3  4  5  6  5  2       -2 -.650305357974D-02 0.100000000000D+01
  </mgrwgt>
  </event>
  <event>
  5     66 -.18881543E-05 0.14700478E+03 0.75467711E-02 0.93808827E-01
        2 -1    0    0  502    0 0.00000000E+00 0.00000000E+00 0.11106190E+04 0.11106190E+04 0.32000000E+00 0.0000E+00 0.9000E+01
       -2 -1    0    0    0  501 0.00000000E+00 0.00000000E+00 -.60104518E+03 0.60104526E+03 0.32000000E+00 0.0000E+00 0.9000E+01
       25  1    1    2    0    0 -.32724510E+03 -.39802992E+03 0.47771170E+03 0.71368806E+03 0.12500000E+03 0.0000E+00 0.9000E+01
        1  1    1    2  502    0 0.13927834E+03 0.47276229E+02 0.41822007E+03 0.44333015E+03 0.32000000E+00 0.0000E+00 0.9000E+01
       -1  1    1    2    0  501 0.18796676E+03 0.35075369E+03 -.38635799E+03 0.55464606E+03 0.32000000E+00 0.0000E+00 0.9000E+01
#aMCatNLO 1  0  0  4  1 0.30952166D+01 0.00000000D+00  -5  6  0 0.00000000D+00 0.00000000D+00 0.00000000D+00 0.00000000D+00 0.00000000D+00
  <mgrwgt>
 -.3753528700D-03    9    2    0
 0.817026485954705D+03 0.000000000000000D+00 0.000000000000000D+00 0.817026485954705D+03
 0.817026485954705D+03 -.000000000000000D+00 -.000000000000000D+00 -.817026485954705D+03
 0.598717236822999D+03 -.327218553381857D+03 -.398074969185696D+03 0.278031773183315D+03
 0.333787723571193D+03 0.139203988101658D+03 0.472509909484521D+02 0.299672884922579D+03
 0.701548011515218D+03 0.188014565280199D+03 0.350823978237244D+03 -.577704658105895D+03
 0.000000000000000D+00 0.000000000000000D+00 0.000000000000000D+00 0.000000000000000D+00
 0.817026485954705D+03 0.000000000000000D+00 0.000000000000000D+00 0.817026485954705D+03
 0.817026485954705D+03 -.000000000000000D+00 -.000000000000000D+00 -.817026485954705D+03
 0.598719365200448D+03 -.327209198867427D+03 -.398071793916922D+03 0.278051911215024D+03
 0.125268290779872D+03 0.542399736413211D+02 0.154485339807136D+02 0.111854873528810D+03
 0.701533378933329D+03 0.188025526315708D+03 0.350827698818793D+03 -.577681061618629D+03
 0.208531936995761D+03 0.849436989103981D+02 0.317955611174158D+02 0.187774276874795D+03
0.331479425041D-05 0.000000000000D+00 0.000000000000D+00 0.160673325938D-05 0.000000000000D+00  6 2 -2 25 1 -1 21 0 0.17086447D+00 0.92468499D-01 0.28905648D+06 0.28905648D+06 0.28905648D+06 0.10857479D+01  1  2  2  3  6  4        1 0.908889635985D-05 0.100000000000D+01
0.291518213857D-06 0.000000000000D+00 -.127296827269D-07 0.160673325938D-05 0.000000000000D+00  6 2 -2 25 1 -1 21 2 0.17086447D+00 0.92468499D-01 0.28905648D+06 0.28905648D+06 0.28905648D+06 0.10857479D+01  1  2  3  3  6  4        1 0.942276274778D-06 0.100000000000D+01
-.218624094794D-05 0.000000000000D+00 0.000000000000D+00 0.160673325938D-05 0.000000000000D+00  6 2 -2 25 1 -1 21 2 0.17086447D+00 0.92468499D-01 0.28905648D+06 0.28905648D+06 0.28905648D+06 0.10857479D+01  1  2 15  3  6  4        1 -.706660125603D-05 0.100000000000D+01
0.236672311034D-09 0.000000000000D+00 0.000000000000D+00 0.160673325938D-05 0.000000000000D+00  6 2 -2 25 1 -1 21 2 0.17086447D+00 0.92468499D-01 0.28910597D+06 0.28910597D+06 0.28910597D+06 0.10857424D+01  1  2 12  3  6  4        1 0.764983624276D-09 0.100000000000D+01
0.208787577555D-04 0.000000000000D+00 0.000000000000D+00 0.160673325938D-05 0.000000000000D+00  6 2 -2 25 1 -1 21 2 0.17086447D+00 0.92468499D-01 0.28910597D+06 0.28910597D+06 0.28910597D+06 0.10857424D+01  1  2 12  3  6  4        1 0.674853247868D-04 0.100000000000D+01
-.225388002026D-02 0.000000000000D+00 0.000000000000D+00 0.160673325938D-05 0.000000000000D+00  6 2 -2 25 1 -1 21 2 0.17086447D+00 0.92468499D-01 0.28905648D+06 0.28905648D+06 0.28905648D+06 0.10857479D+01  1  2  4  3  6  4        1 -.728523148242D-02 0.100000000000D+01
-.106737941668D-02 0.000000000000D+00 0.000000000000D+00 0.160673325938D-05 0.000000000000D+00  6 2 -2 25 1 -1 21 2 0.17086447D+00 0.92468499D-01 0.28905648D+06 0.28905648D+06 0.28905648D+06 0.10857479D+01  1  2  5  3  6  4        1 -.345009763616D-02 0.100000000000D+01
0.210742602567D-02 0.000000000000D+00 -.000000000000D+00 0.160673325938D-05 0.000000000000D+00  6 2 -2 25 1 -1 21 2 0.17086447D+00 0.92468499D-01 0.28905648D+06 0.28905648D+06 0.28905648D+06 0.10857479D+01  1  2  6  3  6  4        1 0.681184725497D-02 0.100000000000D+01
0.107593174789D-02 0.000000000000D+00 0.000000000000D+00 0.160673325938D-05 0.232033543188D-06  6 2 -2 25 1 -1 21 2 0.17086447D+00 0.92468499D-01 0.28910597D+06 0.28910597D+06 0.28910597D+06 0.10857424D+01  1  2 11  3  6  4        1 0.347767833247D-02 0.100000000000D+01
  </mgrwgt>
  </event>
  <event>
  5     66 0.18881543E-05 0.27435718E+03 0.75467711E-02 0.89424640E-01
        2 -1    0    0  502    0 0.00000000E+00 0.00000000E+00 0.27611290E+04 0.27611290E+04 0.32000000E+00 0.0000E+00 0.9000E+01
       -2 -1    0    0    0  501 0.00000000E+00 0.00000000E+00 -.61883892E+03 0.61883901E+03 0.32000000E+00 0.0000E+00 0.9000E+01
       25  1    1    2    0    0 0.43019451E+03 0.30234623E+03 0.65430645E+03 0.84865923E+03 0.12500000E+03 0.0000E+00 0.9000E+01
        1  1    1    2  502    0 -.13283522E+03 -.24008051E+03 0.19550051E+04 0.19741654E+04 0.32000000E+00 0.0000E+00 0.9000E+01
       -1  1    1    2    0  501 -.29735929E+03 -.62265719E+02 -.46702151E+03 0.55714340E+03 0.32000000E+00 0.0000E+00 0.9000E+01
#aMCatNLO 1  0  0  4  1 0.66860863D+02 0.00000000D+00  -5  6  0 0.00000000D+00 0.00000000D+00 0.00000000D+00 0.00000000D+00 0.00000000D+00
  <mgrwgt>
 0.1547983876D-02    4    2    0
 0.130717032672004D+04 0.000000000000000D+00 0.000000000000000D+00 0.130717032672004D+04
 0.130717032672004D+04 -.000000000000000D+00 -.000000000000000D+00 -.130717032672004D+04
 0.561070479863487D+03 0.430217411688097D+03 0.302336370729643D+03 0.150601397698251D+03
 0.950231910099100D+03 -.132824641448789D+03 -.240061400184607D+03 0.909763058018950D+03
 0.110303826347749D+04 -.297392770239308D+03 -.622749705450356D+02 -.106036445571720D+04
 0.000000000000000D+00 0.000000000000000D+00 0.000000000000000D+00 0.000000000000000D+00
 0.130717032672004D+04 0.000000000000000D+00 0.000000000000000D+00 0.130717032672004D+04
 0.130717032672004D+04 -.000000000000000D+00 -.000000000000000D+00 -.130717032672004D+04
 0.567475714378754D+03 0.419356973554545D+03 0.282707693727237D+03 0.224988388696563D+03
 0.544912061141050D+03 -.164911991877703D+02 -.471795885864545D+03 0.272150393730427D+03
 0.981020653569022D+03 -.317448478238445D+03 -.985227728462574D+02 -.922995801520121D+03
 0.520932224351249D+03 -.854172961283305D+02 0.287610964983565D+03 0.425857019093131D+03
0.169269948806D-01 0.000000000000D+00 0.000000000000D+00 0.196730854108D-04 0.000000000000D+00  6 2 -2 25 1 -1 21 0 0.42478908D+00 0.95205996D-01 0.31286174D+06 0.31286174D+06 0.31286174D+06 0.10832056D+01  1  2  2  3  6  4        1 0.506633088022D-02 0.100000000000D+01
0.172796928717D-02 0.000000000000D+00 -.650041173215D-04 0.196730854108D-04 0.000000000000D+00  6 2 -2 25 1 -1 21 2 0.42478908D+00 0.95205996D-01 0.31286174D+06 0.31286174D+06 0.31286174D+06 0.10832056D+01  1  2  3  3  6  4        1 0.606836242347D-03 0.100000000000D+01
-.115385735419D-01 0.000000000000D+00 0.000000000000D+00 0.196730854108D-04 0.000000000000D+00  6 2 -2 25 1 -1 21 2 0.42478908D+00 0.95205996D-01 0.31286174D+06 0.31286174D+06 0.31286174D+06 0.10832056D+01  1  2 15  3  6  4        1 -.405216959712D-02 0.100000000000D+01
-.207906739383D-03 0.000000000000D+00 0.000000000000D+00 0.196730854108D-04 0.000000000000D+00  6 2 -2 25 1 -1 21 2 0.42478908D+00 0.95205996D-01 0.31286174D+06 0.31286174D+06 0.31286174D+06 0.10832056D+01  1  2  4  3  6  4        1 -.730136498507D-04 0.100000000000D+01
  </mgrwgt>
  </event>
  <event>
  5     66 0.18881543E-05 0.17032614E+02 0.75467711E-02 0.95283640E-01
        2 -1    0    0  502    0 0.00000000E+00 0.00000000E+00 0.56625306E+03 0.56625315E+03 0.32000000E+00 0.0000E+00 0.9000E+01
       -2 -1    0    0    0  501 -.00000000E+00 -.00000000E+00 -.73479399E+03 0.73479406E+03 0.32000000E+00 0.0000E+00 0.9000E+01
       25  1    1    2    0    0 0.48445293E+03 0.51317402E+02 -.13163603E+03 0.51988572E+03 0.12500000E+03 0.0000E+00 0.9000E+01
        1  1    1    2  502    0 -.46886975E+03 -.44446565E+02 0.22271991E+03 0.52097851E+03 0.32000000E+00 0.0000E+00 0.9000E+01
       -1  1    1    2    0  501 -.15583173E+02 -.68708377E+01 -.25962482E+03 0.26018300E+03 0.32000000E+00 0.0000E+00 0.9000E+01
#aMCatNLO 1  0  0  4  1 0.12763087D+03 0.00000000D+00  -5  6  0 0.00000000D+00 0.00000000D+00 0.00000000D+00 0.00000000D+00 0.00000000D+00
  <mgrwgt>
 0.8290391854D-02    6    2    0
 0.645042211116042D+03 0.000000000000000D+00 0.000000000000000D+00 0.645042211116042D+03
 0.645042211116042D+03 -.000000000000000D+00 -.000000000000000D+00 -.645042211116042D+03
 0.507090469946153D+03 0.484441790492785D+03 0.513168729829645D+02 -.647956393718389D+02
 0.554487103768525D+03 -.468856800394057D+03 -.444453366686836D+02 0.292666808877025D+03
 0.228506848517407D+03 -.155849900987272D+02 -.687153631428078D+01 -.227871169505186D+03
 0.000000000000000D+00 -.000000000000000D+00 0.000000000000000D+00 0.000000000000000D+00
 0.645042211116042D+03 0.000000000000000D+00 0.000000000000000D+00 0.645042211116042D+03
 0.645042211116042D+03 -.000000000000000D+00 -.000000000000000D+00 -.645042211116042D+03
 0.482541042572832D+03 0.460771788209632D+03 0.490730722755010D+02 -.500205011451994D+02
 0.415683487658339D+03 -.271025534300628D+03 -.320981183664726D+02 0.313540479788801D+03
 0.222840455822795D+03 -.263803129932398D+02 -.789488024379296D+01 -.221132581732376D+03
 0.169019436178118D+03 -.163365940915764D+03 -.908007366523541D+01 -.423873969112260D+02
0.146799880355D-02 0.000000000000D+00 0.000000000000D+00 0.128209859998D-04 0.000000000000D+00  6 2 -2 25 1 -1 21 0 0.87115868D-01 0.11304524D+00 0.24548307D+06 0.24548307D+06 0.24548307D+06 0.10910553D+01  1  2  2  3  6  4        1 0.596246845963D-02 0.100000000000D+01
0.908432025118D-03 0.000000000000D+00 -.563750193858D-05 0.128209859998D-04 0.000000000000D+00  6 2 -2 25 1 -1 21 2 0.87115868D-01 0.11304524D+00 0.24548307D+06 0.24548307D+06 0.24548307D+06 0.10910553D+01  1  2  3  3  6  4        1 0.439224304814D-02 0.100000000000D+01
-.950161117809D-03 0.000000000000D+00 0.000000000000D+00 0.128209859998D-04 0.000000000000D+00  6 2 -2 25 1 -1 21 2 0.87115868D-01 0.11304524D+00 0.24548307D+06 0.24548307D+06 0.24548307D+06 0.10910553D+01  1  2 15  3  6  4        1 -.459400202648D-02 0.100000000000D+01
-.954448820884D-04 0.000000000000D+00 0.000000000000D+00 0.128209859998D-04 0.000000000000D+00  6 2 -2 25 1 -1 21 2 0.87115868D-01 0.11304524D+00 0.24548307D+06 0.24548307D+06 0.24548307D+06 0.10910553D+01  1  2  4  3  6  4        1 -.461473294910D-03 0.100000000000D+01
-.177584734147D-02 0.000000000000D+00 0.000000000000D+00 0.128209859998D-04 0.000000000000D+00  6 2 -2 25 1 -1 21 2 0.87115868D-01 0.11304524D+00 0.24548307D+06 0.24548307D+06 0.24548307D+06 0.10910553D+01  1  2  5  3  6  4        1 -.858617147400D-02 0.100000000000D+01
0.239449744147D-02 0.000000000000D+00 -.000000000000D+00 0.128209859998D-04 0.000000000000D+00  6 2 -2 25 1 -1 21 2 0.87115868D-01 0.11304524D+00 0.24548307D+06 0.24548307D+06 0.24548307D+06 0.10910553D+01  1  2  6  3  6  4        1 0.115773271420D-01 0.100000000000D+01
  </mgrwgt>
  </event>
  <event>
  6     66 -.18881543E-05 0.89969326E+02 0.75467711E-02 0.93770460E-01
        2 -1    0    0  502    0 0.00000000E+00 0.00000000E+00 0.78728302E+03 0.78728309E+03 0.32000000E+00 0.0000E+00 0.9000E+01
       -2 -1    0    0    0  501 0.00000000E+00 0.00000000E+00 -.67681963E+03 0.67681970E+03 0.32000000E+00 0.0000E+00 0.9000E+01
       25  1    1    2    0    0 -.20393568E+03 -.42659241E+03 -.18028894E+02 0.48940871E+03 0.12500000E+03 0.0000E+00 0.9000E+01
        1  1    1    2  502    0 0.12172511E+03 0.47755824E+03 0.43134201E+03 0.65493122E+03 0.32000000E+00 0.0000E+00 0.9000E+01
       -1  1    1    2    0  503 0.98994699E+01 -.98146203E+01 -.92672638E+02 0.93715775E+02 0.32000000E+00 0.0000E+00 0.9000E+01
       21  1    1    2  503  501 0.72311100E+02 -.41151214E+02 -.21017708E+03 0.22604708E+03 0.75000000E+00 0.0000E+00 0.9000E+01
#aMCatNLO 2  0  0  5  2 0.15521173D+02 0.00000000D+00  -5  6  0 0.00000000D+00 0.00000000D+00 0.00000000D+00 0.00000000D+00 0.00000000D+00
  <mgrwgt>
 -.2583652284D-02    3    2    0
 0.729964865132867D+03 0.000000000000000D+00 0.000000000000000D+00 0.729964865132867D+03
 0.729964865132867D+03 -.000000000000000D+00 -.000000000000000D+00 -.729964865132867D+03
 0.492129601572912D+03 -.204066064056175D+03 -.426541103153300D+03 -.546468074611815D+02
 0.624682082798973D+03 0.121555848735782D+03 0.477694369660980D+03 0.383744666936735D+03
 0.343118045893850D+03 0.825102153203930D+02 -.511532665076793D+02 -.329097859475553D+03
 0.000000000000000D+00 0.000000000000000D+00 0.000000000000000D+00 0.000000000000000D+00
 0.729964865132867D+03 0.000000000000000D+00 0.000000000000000D+00 0.729964865132867D+03
 0.729964865132867D+03 -.000000000000000D+00 -.000000000000000D+00 -.729964865132867D+03
 0.492207980849968D+03 -.203928061319354D+03 -.426626659720423D+03 -.551972411876384D+02
 0.624204376909950D+03 0.121730940851024D+03 0.477585819057887D+03 0.383046299587754D+03
 0.100560442872259D+03 0.985653208615730D+01 -.977263153079482D+01 -.995979272819605D+02
 0.242956929633558D+03 0.723405883821727D+02 -.411865278066684D+02 -.228251131118155D+03
-.179268554053D-07 0.000000000000D+00 0.000000000000D+00 0.194530345219D-05 0.000000000000D+00  6 2 -2 25 1 -1 21 2 0.12112048D+00 0.10412611D+00 0.29110472D+06 0.29110472D+06 0.29110472D+06 0.10855203D+01  1  2 13  4  6  5       -1 -.701545094127D-07 0.100000000000D+01
-.166981343245D-02 0.000000000000D+00 0.000000000000D+00 0.194530345219D-05 0.000000000000D+00  6 2 -2 25 1 -1 21 2 0.12112048D+00 0.10412611D+00 0.29110472D+06 0.29110472D+06 0.29110472D+06 0.10855203D+01  1  2 13  4  6  5       -1 -.653460629407D-02 0.100000000000D+01
0.100962061444D-02 0.000000000000D+00 0.000000000000D+00 0.194530345219D-05 0.476070682055D-08  6 2 -2 25 1 -1 21 2 0.12112048D+00 0.10412611D+00 0.29110472D+06 0.29110472D+06 0.29110472D+06 0.10855203D+01  1  2  1  4  6  5       -1 0.395102416447D-02 0.100000000000D+01
  </mgrwgt>
  </event>
  <event>
  5     66 0.18881543E-05 0.21215591E+03 0.75467711E-02 0.84705650E-01
        2 -1    0    0  502    0 0.00000000E+00 0.00000000E+00 0.28860207E+04 0.28860207E+04 0.32000000E+00 0.0000E+00 0.9000E+01
       -2 -1    0    0    0  501 0.00000000E+00 0.00000000E+00 -.47121371E+03 0.47121382E+03 0.32000000E+00 0.0000E+00 0.9000E+01
       25  1    1    2    0    0 0.58278788E+03 0.49516190E+03 0.89045356E+03 0.11804065E+04 0.12500000E+03 0.0000E+00 0.9000E+01
        1  1    1    2  502    0 -.51896462E+03 -.29286354E+03 0.17609608E+04 0.18590526E+04 0.32000000E+00 0.0000E+00 0.9000E+01
       -1  1    1    2    0  501 -.63823264E+02 -.20229837E+03 -.23660743E+03 0.31777541E+03 0.32000000E+00 0.0000E+00 0.9000E+01
#aMCatNLO 1  0  0  1  5 0.20009096D+03 0.00000000D+00  -5  6  0 0.00000000D+00 0.00000000D+00 0.00000000D+00 0.00000000D+00 0.00000000D+00
  <mgrwgt>
 0.6031465748D-03    7    2    0
 0.116616154109695D+04 0.000000000000000D+00 0.000000000000000D+00 0.116616154109695D+04
 0.116616154109695D+04 0.000000000000000D+00 0.000000000000000D+00 -.116616154109695D+04
 0.777163638769365D+03 0.582755183033489D+03 0.495163176253768D+03 0.597339681849896D+02
 0.852680017983261D+03 -.518920369965773D+03 -.292838566921481D+03 0.609942978011791D+03
 0.702479425441271D+03 -.638348130677151D+02 -.202324609332287D+03 -.669676946196780D+03
 0.000000000000000D+00 0.000000000000000D+00 -.000000000000000D+00 0.000000000000000D+00
 0.169839931058287D+04 0.000000000000000D+00 0.000000000000000D+00 0.169839931058287D+04
 0.159796281012444D+04 0.000000000000000D+00 0.000000000000000D+00 -.159796281012444D+04
 0.698229028578810D+03 0.349351534814183D+03 0.588459118816217D+03 0.597339681849896D+02
 0.103460763536673D+04 -.817484835738049D+03 -.173496588069008D+03 0.609942978011791D+03
 0.738925555013503D+03 -.291861689197111D+03 -.111177866338477D+03 -.669676946196780D+03
 0.824599901748264D+03 0.759994990120977D+03 -.303784664408732D+03 0.100436500458430D+03
0.118568245203D-02 0.000000000000D+00 0.000000000000D+00 0.606595999682D-06 0.000000000000D+00  6 2 -2 25 1 -1 21 0 0.44400319D+00 0.72494427D-01 0.62636683D+06 0.62636683D+06 0.62636683D+06 0.10616622D+01  1  2  2  1  6  1        2 0.524560339486D-03 0.100000000000D+01
0.150146674391D-03 0.000000000000D+00 -.455333281317D-05 0.606595999682D-06 0.000000000000D+00  6 2 -2 25 1 -1 21 2 0.44400319D+00 0.72494427D-01 0.62636683D+06 0.62636683D+06 0.62636683D+06 0.10616622D+01  1  2  3  1  6  1        2 0.748713243729D-04 0.100000000000D+01
-.782297594470D-03 0.000000000000D+00 0.000000000000D+00 0.606595999682D-06 0.000000000000D+00  6 2 -2 25 1 -1 21 2 0.44400319D+00 0.72494427D-01 0.62636683D+06 0.62636683D+06 0.62636683D+06 0.10616622D+01  1  2 15  1  6  1        2 -.390096265465D-03 0.100000000000D+01
-.316479546063D-04 0.000000000000D+00 0.000000000000D+00 0.606595999682D-06 0.000000000000D+00  6 2 -2 25 1 -1 21 2 0.44400319D+00 0.72494427D-01 0.62636683D+06 0.62636683D+06 0.62636683D+06 0.10616622D+01  1  2  4  1  6  1        2 -.157813969886D-04 0.100000000000D+01
-.648791899090D-03 0.000000000000D+00 -.556569674348D-03 0.606595999682D-06 0.000000000000D+00  6 2 -2 25 1 -1 21 2 0.68983749D+00 0.72494427D-01 0.62636683D+06 0.62636683D+06 0.62636683D+06 0.10616622D+01  1  2  5  1  6  1        2 -.188672354116D-04 0.100000000000D+01
0.859239315306D-03 0.000000000000D+00 0.506591545025D-03 0.606595999682D-06 0.000000000000D+00  6 2 -2 25 1 -1 21 2 0.44400319D+00 0.72494427D-01 0.62636683D+06 0.62636683D+06 0.62636683D+06 0.10616622D+01  1  2  6  1  6  1        2 0.428463605680D-03 0.100000000000D+01
-.116128727275D-04 0.000000000000D+00 -.284657679917D-04 0.606595999682D-06 0.000000000000D+00  6 21 -2 25 1 -1 -2 2 0.68983749D+00 0.72494427D-01 0.62636683D+06 0.62636683D+06 0.62636683D+06 0.10616622D+01  1  2  5  5  6  1        2 -.379692122183D-08 0.100000000000D+01
  </mgrwgt>
  </event>
  <event>
  5     66 0.18881543E-05 0.41170683E+02 0.75467711E-02 0.84126347E-01
        2 -1    0    0  502    0 0.00000000E+00 0.00000000E+00 0.29660370E+04 0.29660370E+04 0.32000000E+00 0.0000E+00 0.9000E+01
       -2 -1    0    0    0  501 0.00000000E+00 0.00000000E+00 -.60636295E+03 0.60636303E+03 0.32000000E+00 0.0000E+00 0.9000E+01
       25  1    1    2    0    0 0.25733718E+03 -.65957883E+03 0.36402515E+03 0.80585728E+03 0.12500000E+03 0.0000E+00 0.9000E+01
        1  1    1    2  502    0 -.27226111E+03 0.62121189E+03 0.23315131E+04 0.24281647E+04 0.32000000E+00 0.0000E+00 0.9000E+01
       -1  1    1    2    0  501 0.14923927E+02 0.38366940E+02 -.33586428E+03 0.33837799E+03 0.32000000E+00 0.0000E+00 0.9000E+01
#aMCatNLO 1  0  0  1  5 0.20009096D+03 0.00000000D+00  -5  6  0 0.00000000D+00 0.00000000D+00 0.00000000D+00 0.00000000D+00 0.00000000D+00
  <mgrwgt>
 0.8447246132D-02    3    2    0
 0.134107982412761D+04 0.000000000000000D+00 0.000000000000000D+00 0.134107982412761D+04
 0.134107982412761D+04 0.000000000000000D+00 0.000000000000000D+00 -.134107982412761D+04
 0.753040427665173D+03 0.257330594009094D+03 -.659569492297263D+03 -.224040031949212D+03
 0.118289025205316D+04 -.272255604558451D+03 0.621199332398288D+03 0.969132407680614D+03
 0.746228968536894D+03 0.149250105493571D+02 0.383701598989751D+02 -.745092375731402D+03
 0.000000000000000D+00 0.000000000000000D+00 0.000000000000000D+00 -.000000000000000D+00
 0.179655044875614D+04 0.000000000000000D+00 0.000000000000000D+00 0.179655044875614D+04
 0.223588852156407D+04 0.000000000000000D+00 0.000000000000000D+00 -.223588852156407D+04
 0.963470843155564D+03 0.678521173311310D+02 -.926203660038532D+03 -.224040031949212D+03
 0.113414955222091D+04 -.528023906217280D+03 0.261282103576008D+03 0.969132407680614D+03
 0.786679485796927D+03 -.154286321616884D+03 -.199744076163934D+03 -.745092375731402D+03
 0.114813908914681D+04 0.614458110503032D+03 0.864665632626459D+03 -.439338072807934D+03
0.414257722460D-01 0.000000000000D+00 0.000000000000D+00 0.952460346014D-04 0.000000000000D+00  6 2 -2 25 1 -1 21 0 0.45631339D+00 0.93286615D-01 0.51721497D+06 0.51721497D+06 0.51721497D+06 0.10674730D+01  1  2  2  1  6  1        2 0.931889621113D-02 0.100000000000D+01
0.234138632700D-01 0.000000000000D+00 -.159085873081D-03 0.952460346014D-04 0.000000000000D+00  6 2 -2 25 1 -1 21 2 0.45631339D+00 0.93286615D-01 0.51721497D+06 0.51721497D+06 0.51721497D+06 0.10674730D+01  1  2  3  1  6  1        2 0.600178865987D-02 0.100000000000D+01
-.268142988630D-01 0.000000000000D+00 0.000000000000D+00 0.952460346014D-04 0.000000000000D+00  6 2 -2 25 1 -1 21 2 0.45631339D+00 0.93286615D-01 0.51721497D+06 0.51721497D+06 0.51721497D+06 0.10674730D+01  1  2 15  1  6  1        2 -.687343873936D-02 0.100000000000D+01
  </mgrwgt>
  </event>
  <event>
  5     66 0.18881543E-05 0.15178030E+03 0.75467711E-02 0.89801746E-01
        2 -1    0    0  502    0 0.00000000E+00 0.00000000E+00 0.10872271E+04 0.10872271E+04 0.32000000E+00 0.0000E+00 0.9000E+01
       -2 -1    0    0    0  501 0.00000000E+00 0.00000000E+00 -.28574030E+04 0.28574030E+04 0.32000000E+00 0.0000E+00 0.9000E+01
       25  1    1    2    0    0 -.49367328E+03 -.24427721E+03 -.11534539E+03 0.57646701E+03 0.12500000E+03 0.0000E+00 0.9000E+01
        1  1    1    2  502    0 0.37279792E+03 0.33605306E+03 0.78058620E+03 0.92802202E+03 0.32000000E+00 0.0000E+00 0.9000E+01
       -1  1    1    2    0  501 0.12087535E+03 -.91775845E+02 -.24354167E+04 0.24401411E+04 0.32000000E+00 0.0000E+00 0.9000E+01
#aMCatNLO 1  0  0  1  4 0.71239220D+02 0.00000000D+00  -5  6  0 0.00000000D+00 0.00000000D+00 0.00000000D+00 0.00000000D+00 0.00000000D+00
  <mgrwgt>
 0.5304760842D-03    4    2    0
 0.176256799886726D+04 0.000000000000000D+00 0.000000000000000D+00 0.176256799886726D+04
 0.176256799886726D+04 0.000000000000000D+00 0.000000000000000D+00 -.176256799886726D+04
 0.587157970115779D+03 -.493669858282996D+03 -.244258582524050D+03 0.160490802716762D+03
 0.143038439818747D+04 0.372784703029204D+03 0.336041141161108D+03 0.133944296004447D+04
 0.150759362943128D+04 0.120885155253792D+03 -.917825586370583D+02 -.149993376276123D+04
 0.000000000000000D+00 0.000000000000000D+00 0.000000000000000D+00 -.000000000000000D+00
 0.188708257269474D+04 0.000000000000000D+00 0.000000000000000D+00 0.188708257269474D+04
 0.203546367590594D+04 0.000000000000000D+00 0.000000000000000D+00 -.203546367590594D+04
 0.634678699038612D+03 -.522440614363973D+03 -.297473625250489D+03 0.160490802716762D+03
 0.139047189088122D+04 0.306361612053835D+03 0.213183486175337D+03 0.133944296004447D+04
 0.151731062810392D+04 0.496573187033601D+02 -.223527179969734D+03 -.149993376276123D+04
 0.380085030576935D+03 0.166421683606778D+03 0.307817319044886D+03 -.148381103211204D+03
0.130276397179D+00 0.000000000000D+00 0.000000000000D+00 0.108526957828D-03 0.000000000000D+00  6 2 -2 25 1 -1 21 0 0.16726571D+00 0.43960046D+00 0.37116556D+06 0.37116556D+06 0.37116556D+06 0.10777778D+01  1  2  2  1  6  1        2 0.103191106917D-02 0.100000000000D+01
0.279630777217D-01 0.000000000000D+00 -.500295667729D-03 0.108526957828D-03 0.000000000000D+00  6 2 -2 25 1 -1 21 2 0.16726571D+00 0.43960046D+00 0.37116556D+06 0.37116556D+06 0.37116556D+06 0.10777778D+01  1  2  3  1  6  1        2 0.257288271084D-03 0.100000000000D+01
-.816880229389D-01 0.000000000000D+00 0.000000000000D+00 0.108526957828D-03 0.000000000000D+00  6 2 -2 25 1 -1 21 2 0.16726571D+00 0.43960046D+00 0.37116556D+06 0.37116556D+06 0.37116556D+06 0.10777778D+01  1  2 15  1  6  1        2 -.751611478514D-03 0.100000000000D+01
-.772935302768D-03 0.000000000000D+00 0.000000000000D+00 0.108526957828D-03 0.000000000000D+00  6 2 -2 25 1 -1 21 2 0.16726571D+00 0.43960046D+00 0.37116556D+06 0.37116556D+06 0.37116556D+06 0.10777778D+01  1  2  4  1  6  1        2 -.711177752636D-05 0.100000000000D+01
  </mgrwgt>
  </event>
  <event>
  5     66 0.18881543E-05 0.55017034E+02 0.75467711E-02 0.89690716E-01
        2 -1    0    0  502    0 0.00000000E+00 0.00000000E+00 0.12401341E+04 0.12401342E+04 0.32000000E+00 0.0000E+00 0.9000E+01
       -2 -1    0    0    0  501 0.00000000E+00 0.00000000E+00 -.63043031E+03 0.63043039E+03 0.32000000E+00 0.0000E+00 0.9000E+01
       25  1    1    2    0    0 0.50148473E+03 -.26308457E+03 0.29840932E+03 0.65220668E+03 0.12500000E+03 0.0000E+00 0.9000E+01
        1  1    1    2  502    0 -.50195819E+02 -.22568862E+02 0.60590180E+03 0.60839631E+03 0.32000000E+00 0.0000E+00 0.9000E+01
       -1  1    1    2    0  501 -.45128891E+03 0.28565343E+03 -.29460729E+03 0.60996158E+03 0.32000000E+00 0.0000E+00 0.9000E+01
#aMCatNLO 1  0  0  1  4 0.71239220D+02 0.00000000D+00  -5  6  0 0.00000000D+00 0.00000000D+00 0.00000000D+00 0.00000000D+00 0.00000000D+00
  <mgrwgt>
 0.3963390148D-02    7    2    0
 0.884204872408682D+03 0.000000000000000D+00 0.000000000000000D+00 0.884204872408682D+03
 0.884204872408682D+03 0.000000000000000D+00 0.000000000000000D+00 -.884204872408682D+03
 0.587098229322868D+03 0.501550964681846D+03 -.263138359845269D+03 0.909074489725605D+02
 0.434490516505409D+03 -.501784181431305D+02 -.225610375929934D+02 0.430993195849445D+03
 0.746820998989086D+03 -.451372546538716D+03 0.285699397438262D+03 -.521900644822006D+03
 0.000000000000000D+00 -.000000000000000D+00 0.000000000000000D+00 0.000000000000000D+00
 0.137220034756754D+04 0.000000000000000D+00 0.000000000000000D+00 0.137220034756754D+04
 0.966103273520721D+03 0.000000000000000D+00 0.000000000000000D+00 -.966103273520721D+03
 0.655476004867124D+03 0.507820016251497D+03 -.384549684400074D+03 0.909074489725605D+02
 0.446829578590560D+03 -.457319706203169D+02 -.108674395779694D+03 0.430993195849445D+03
 0.700287959224920D+03 -.444071573738599D+03 0.144303084399131D+03 -.521900644822006D+03
 0.535710078405660D+03 -.180164718925810D+02 0.348920995780638D+03 0.406097074046822D+03
0.911849285387D-03 0.000000000000D+00 0.000000000000D+00 0.164822421519D-04 0.000000000000D+00  6 2 -2 25 1 -1 21 0 0.19078988D+00 0.96989287D-01 0.34177273D+06 0.34177273D+06 0.34177273D+06 0.10803878D+01  1  2  2  1  6  1        2 0.186014813557D-02 0.100000000000D+01
0.319224516491D-03 0.000000000000D+00 -.350174135132D-05 0.164822421519D-04 0.000000000000D+00  6 2 -2 25 1 -1 21 2 0.19078988D+00 0.96989287D-01 0.34177273D+06 0.34177273D+06 0.34177273D+06 0.10803878D+01  1  2  3  1  6  1        2 0.760116369001D-03 0.100000000000D+01
-.599458245106D-03 0.000000000000D+00 0.000000000000D+00 0.164822421519D-04 0.000000000000D+00  6 2 -2 25 1 -1 21 2 0.19078988D+00 0.96989287D-01 0.34177273D+06 0.34177273D+06 0.34177273D+06 0.10803878D+01  1  2 15  1  6  1        2 -.142739044496D-02 0.100000000000D+01
-.319435307400D-04 0.000000000000D+00 0.000000000000D+00 0.164822421519D-04 0.000000000000D+00  6 2 -2 25 1 -1 21 2 0.19078988D+00 0.96989287D-01 0.34177273D+06 0.34177273D+06 0.34177273D+06 0.10803878D+01  1  2  4  1  6  1        2 -.760618290412D-04 0.100000000000D+01
-.174204814295D-02 0.000000000000D+00 -.597536637175D-03 0.164822421519D-04 0.000000000000D+00  6 2 -2 25 1 -1 21 2 0.30607131D+00 0.96989287D-01 0.34177273D+06 0.34177273D+06 0.34177273D+06 0.10803878D+01  1  2  5  1  6  1        2 -.159939792929D-02 0.100000000000D+01
0.187244973797D-02 0.000000000000D+00 0.536488648320D-03 0.164822421519D-04 0.000000000000D+00  6 2 -2 25 1 -1 21 2 0.19078988D+00 0.96989287D-01 0.34177273D+06 0.34177273D+06 0.34177273D+06 0.10803878D+01  1  2  6  1  6  1        2 0.445855384669D-02 0.100000000000D+01
-.687449704683D-04 0.000000000000D+00 -.322399781577D-04 0.164822421519D-04 0.000000000000D+00  6 21 -2 25 1 -1 -2 2 0.30607131D+00 0.96989287D-01 0.34177273D+06 0.34177273D+06 0.34177273D+06 0.10803878D+01  1  2  5  5  6  1        2 -.125779996285D-04 0.100000000000D+01
  </mgrwgt>
  </event>
  <event>
  5     66 -.18881543E-05 0.46351710E+02 0.75467711E-02 0.93831403E-01
        2 -1    0    0  502    0 0.00000000E+00 0.00000000E+00 0.13985171E+04 0.13985172E+04 0.32000000E+00 0.0000E+00 0.9000E+01
       -2 -1    0    0    0  501 0.00000000E+00 0.00000000E+00 -.87392180E+03 0.87392186E+03 0.32000000E+00 0.0000E+00 0.9000E+01
       25  1    1    2    0    0 0.48335813E+03 -.56753242E+02 0.14156627E+03 0.52203642E+03 0.12500000E+03 0.0000E+00 0.9000E+01
        1  1    1    2  502    0 -.51062542E+03 0.94230459E+02 0.10026102E+04 0.11290903E+04 0.32000000E+00 0.0000E+00 0.9000E+01
       -1  1    1    2    0  501 0.27267290E+02 -.37477217E+02 -.61958114E+03 0.62131227E+03 0.32000000E+00 0.0000E+00 0.9000E+01
#aMCatNLO 1  0  0  5  4 0.10070119D+02 0.00000000D+00  -5  6  0 0.00000000D+00 0.00000000D+00 0.00000000D+00 0.00000000D+00 0.00000000D+00
  <mgrwgt>
 -.2267057148D-01    5    2    0
 0.110552916049124D+04 0.000000000000000D+00 0.000000000000000D+00 0.110552916049124D+04
 0.110552916049124D+04 -.000000000000000D+00 -.000000000000000D+00 -.110552916049124D+04
 0.502921288752345D+03 0.483335082321425D+03 -.567455801041346D+02 0.217246407635763D+02
 0.922518676584281D+03 -.510604984025294D+03 0.942266879199696D+02 0.762525140712734D+03
 0.785618355645845D+03 0.272699017038686D+02 -.374811078158343D+02 -.784249781476311D+03
 0.000000000000000D+00 0.000000000000000D+00 0.000000000000000D+00 -.000000000000000D+00
 0.110552916049124D+04 0.000000000000000D+00 0.000000000000000D+00 0.110552916049124D+04
 0.110552916049124D+04 -.000000000000000D+00 -.000000000000000D+00 -.110552916049124D+04
 0.502920876529164D+03 0.483338422923114D+03 -.567501715930746D+02 0.216285690515149D+02
 0.922368778373680D+03 -.510598856787482D+03 0.942182663398874D+02 0.762348928676218D+03
 0.147739784345482D+03 0.142862037178585D+02 -.287205666549730D+01 -.147019384954133D+03
 0.638028881734146D+03 0.129742301465096D+02 -.345960380813149D+02 -.636958112773600D+03
0.537935207372D-03 0.000000000000D+00 0.000000000000D+00 0.138868792338D-03 0.000000000000D+00  6 2 -2 25 1 -1 21 0 0.21515649D+00 0.13444952D+00 0.28517203D+06 0.28517203D+06 0.28517203D+06 0.10861843D+01  1  2  2  4  6  5       -1 0.395769641900D-03 0.100000000000D+01
0.260259275870D-03 0.000000000000D+00 -.206581283790D-05 0.138868792338D-03 0.000000000000D+00  6 2 -2 25 1 -1 21 2 0.21515649D+00 0.13444952D+00 0.28517203D+06 0.28517203D+06 0.28517203D+06 0.10861843D+01  1  2  3  4  6  5       -1 0.225904980964D-03 0.100000000000D+01
-.385316085045D-03 0.000000000000D+00 0.000000000000D+00 0.138868792338D-03 0.000000000000D+00  6 2 -2 25 1 -1 21 2 0.21515649D+00 0.13444952D+00 0.28517203D+06 0.28517203D+06 0.28517203D+06 0.10861843D+01  1  2 15  4  6  5       -1 -.334454257455D-03 0.100000000000D+01
0.449533448063D-09 0.000000000000D+00 0.000000000000D+00 0.138868792338D-03 0.000000000000D+00  6 2 -2 25 1 -1 21 2 0.21515649D+00 0.13444952D+00 0.28793707D+06 0.28793707D+06 0.28793707D+06 0.10858730D+01  1  2 12  4  6  5       -1 0.389738099057D-09 0.100000000000D+01
-.264490776508D-01 0.000000000000D+00 0.000000000000D+00 0.138868792338D-03 0.000000000000D+00  6 2 -2 25 1 -1 21 2 0.21515649D+00 0.13444952D+00 0.28517203D+06 0.28517203D+06 0.28517203D+06 0.10861843D+01  1  2  5  4  6  5       -1 -.229577922371D-01 0.100000000000D+01
  </mgrwgt>
  </event>
  <event>
  6     66 0.18881543E-05 0.23531935E+02 0.75467711E-02 0.94209280E-01
        2 -1    0    0  502    0 0.00000000E+00 0.00000000E+00 0.18405144E+04 0.18405144E+04 0.32000000E+00 0.0000E+00 0.9000E+01
       21 -1    0    0  503  501 0.00000000E+00 0.00000000E+00 -.69668472E+03 0.69668513E+03 0.75000000E+00 0.0000E+00 0.9000E+01
       25  1    1    2    0    0 -.48817276E+03 -.12034387E+03 0.52278775E+03 0.73602128E+03 0.12500000E+03 0.0000E+00 0.9000E+01
        1  1    1    2  502    0 0.41135767E+03 0.14673277E+03 0.11675567E+04 0.12465690E+04 0.32000000E+00 0.0000E+00 0.9000E+01
        2  1    1    2  503    0 0.42821663E+02 -.62875784E+01 -.41611841E+03 0.41836331E+03 0.32000000E+00 0.0000E+00 0.9000E+01
       -1  1    1    2    0  501 0.33993429E+02 -.20101323E+02 -.13039640E+03 0.13624588E+03 0.32000000E+00 0.0000E+00 0.9000E+01
#aMCatNLO 2  0  0  2  5 0.43280809D+02 0.00000000D+00  -5  6  0 0.00000000D+00 0.00000000D+00 0.00000000D+00 0.00000000D+00 0.00000000D+00
  <mgrwgt>
 0.6435612205D-02    3    2    0
 0.716616306940717D+03 0.000000000000000D+00 0.000000000000000D+00 0.716616306940717D+03
 0.716616306940717D+03 0.000000000000000D+00 0.000000000000000D+00 -.716616306940717D+03
 0.505015188141065D+03 -.472862089875368D+03 -.122577987289372D+03 -.281322100792146D+02
 0.583709080533457D+03 0.428591525131464D+03 0.144190102165289D+03 0.369099999621056D+03
 0.000000000000000D+00 0.000000000000000D+00 -.000000000000000D+00 -.000000000000000D+00
 0.344508345206911D+03 0.442705647439049D+02 -.216121148759170D+02 -.340967789541842D+03
 0.717380457346906D+03 0.000000000000000D+00 0.000000000000000D+00 0.717380457346906D+03
 0.178741794444627D+04 0.000000000000000D+00 0.000000000000000D+00 -.178741794444627D+04
 0.518835675626621D+03 -.488153747840737D+03 -.120332686864516D+03 -.281322100792146D+02
 0.571802409220853D+03 0.411333458452344D+03 0.146724133761770D+03 0.369099999621056D+03
 0.107091243911875D+04 0.428216629690662D+02 -.628757838262110D+01 -.107003748709937D+04
 0.343247877826949D+03 0.339986264193268D+02 -.201038685146328D+02 -.340967789541842D+03
-.986618029158D-09 0.000000000000D+00 0.000000000000D+00 0.128131619363D-04 0.000000000000D+00  6 2 21 25 1 2 -1 2 0.28285446D+00 0.10716616D+00 0.26913769D+06 0.26913769D+06 0.26913769D+06 0.10880573D+01  1  2 13  6  5  2       -2 -.808081012111D-08 0.100000000000D+01
-.452158497747D-03 0.000000000000D+00 0.000000000000D+00 0.128131619363D-04 0.000000000000D+00  6 2 21 25 1 2 -1 2 0.28285446D+00 0.11905128D+00 0.26913769D+06 0.26913769D+06 0.26913769D+06 0.10880573D+01  1  2 13  6  5  2       -2 -.279239908794D-02 0.100000000000D+01
0.112990541499D-02 0.000000000000D+00 0.000000000000D+00 0.128131619363D-04 0.183116528134D-07  6 2 21 25 1 2 -1 2 0.28315608D+00 0.10718229D+00 0.26913769D+06 0.26913769D+06 0.26913769D+06 0.10880573D+01  1  2  1  6  5  2       -2 0.922801937392D-02 0.100000000000D+01
  </mgrwgt>
  </event>
  <event>
  5     66 -.18881543E-05 0.16756797E+03 0.75467711E-02 0.93917145E-01
        2 -1    0    0  502    0 0.00000000E+00 0.00000000E+00 0.12920216E+04 0.12920217E+04 0.32000000E+00 0.0000E+00 0.9000E+01
       -2 -1    0    0    0  501 0.00000000E+00 0.00000000E+00 -.74210073E+03 0.74210080E+03 0.32000000E+00 0.0000E+00 0.9000E+01
       25  1    1    2    0    0 0.46215652E+03 0.23472559E+03 0.17720528E+03 0.56188207E+03 0.12500000E+03 0.0000E+00 0.9000E+01
        1  1    1    2  502    0 -.30555298E+03 -.17517817E+03 0.87474626E+03 0.94299053E+03 0.32000000E+00 0.0000E+00 0.9000E+01
       -1  1    1    2    0  501 -.15660353E+03 -.59547416E+02 -.50203064E+03 0.52924987E+03 0.32000000E+00 0.0000E+00 0.9000E+01
#aMCatNLO 1  0  0  2  1 0.21647099D+02 0.00000000D+00  -5  6  0 0.00000000D+00 0.00000000D+00 0.00000000D+00 0.00000000D+00 0.00000000D+00
  <mgrwgt>
 -.1722282188D-03    9    4    0
 0.979188594868718D+03 0.000000000000000D+00 0.000000000000000D+00 0.979188594868718D+03
 0.979188594868718D+03 0.000000000000000D+00 0.000000000000000D+00 -.979188594868718D+03
 0.533854695805680D+03 0.462153404296227D+03 0.234719735838295D+03 0.263953166145768D+02
 0.733766675570838D+03 -.305526422241105D+03 -.175162942993768D+03 0.643727491173549D+03
 0.690755818360919D+03 -.156626982055122D+03 -.595567928445267D+02 -.670122807788126D+03
 0.000000000000000D+00 -.000000000000000D+00 -.000000000000000D+00 -.000000000000000D+00
 0.980972419655088D+03 0.000000000000000D+00 0.000000000000000D+00 0.980972419655088D+03
 0.104720011846899D+04 0.000000000000000D+00 0.000000000000000D+00 -.104720011846899D+04
 0.539510609598885D+03 0.466829458839063D+03 0.238369967677568D+03 0.263953166145768D+02
 0.729958000443483D+03 -.299149789433733D+03 -.170185202061195D+03 0.643727491173549D+03
 0.689028215119842D+03 -.150616031854474D+03 -.548645118615547D+02 -.670122807788126D+03
 0.696757129618679D+02 -.170636375508553D+02 -.133202537548185D+02 -.662276988139018D+02
 0.979188594868718D+03 0.000000000000000D+00 0.000000000000000D+00 0.979188594868718D+03
 0.979188594868718D+03 0.000000000000000D+00 0.000000000000000D+00 -.979188594868718D+03
 0.533854695805680D+03 0.462153404296227D+03 0.234719735838295D+03 0.263953166145768D+02
 0.733766675570838D+03 -.305526422241105D+03 -.175162942993768D+03 0.643727491173549D+03
 0.000000000000000D+00 -.000000000000000D+00 -.000000000000000D+00 -.000000000000000D+00
 0.690755818360919D+03 -.156626982055122D+03 -.595567928445267D+02 -.670122807788126D+03
 0.980972419655088D+03 0.000000000000000D+00 0.000000000000000D+00 0.980972419655088D+03
 0.104720011846899D+04 0.000000000000000D+00 0.000000000000000D+00 -.104720011846899D+04
 0.539510609598885D+03 0.466829458839063D+03 0.238369967677568D+03 0.263953166145768D+02
 0.729958000443483D+03 -.299149789433733D+03 -.170185202061195D+03 0.643727491173549D+03
 0.696757129618679D+02 -.170636375508553D+02 -.133202537548185D+02 -.662276988139018D+02
 0.689028215119842D+03 -.150616031854474D+03 -.548645118615547D+02 -.670122807788126D+03
0.108475436405D-03 0.000000000000D+00 0.000000000000D+00 0.122960104375D-04 0.000000000000D+00  6 2 -2 25 1 -1 21 0 0.19877257D+00 0.11416935D+00 0.27717406D+06 0.27717406D+06 0.27717406D+06 0.10871038D+01  1  2  2  2  6  2       -2 0.140008915543D-03 0.100000000000D+01
0.144395798249D-04 0.000000000000D+00 -.416574238032D-06 0.122960104375D-04 0.000000000000D+00  6 2 -2 25 1 -1 21 2 0.19877257D+00 0.11416935D+00 0.27717406D+06 0.27717406D+06 0.27717406D+06 0.10871038D+01  1  2  3  2  6  2       -2 0.220252513409D-04 0.100000000000D+01
-.735527384612D-04 0.000000000000D+00 0.000000000000D+00 0.122960104375D-04 0.000000000000D+00  6 2 -2 25 1 -1 21 2 0.19877257D+00 0.11416935D+00 0.27717406D+06 0.27717406D+06 0.27717406D+06 0.10871038D+01  1  2 15  2  6  2       -2 -.112192845711D-03 0.100000000000D+01
0.235691214884D-08 0.000000000000D+00 0.000000000000D+00 0.122960104375D-04 0.000000000000D+00  6 2 -2 25 1 -1 21 2 0.19877257D+00 0.12219915D+00 0.28354564D+06 0.28354564D+06 0.28354564D+06 0.10863690D+01  1  2 12  2  6  2       -2 0.301627570146D-08 0.100000000000D+01
-.673224385132D-03 0.000000000000D+00 0.000000000000D+00 0.122960104375D-04 0.000000000000D+00  6 2 -2 25 1 -1 21 2 0.19877257D+00 0.11416935D+00 0.27717406D+06 0.27717406D+06 0.27717406D+06 0.10871038D+01  1  2  4  2  6  2       -2 -.102689527474D-02 0.100000000000D+01
-.788233452751D-02 0.000000000000D+00 -.380602302966D-03 0.122960104375D-04 0.000000000000D+00  6 2 -2 25 1 -1 21 2 0.19877257D+00 0.12219941D+00 0.27717406D+06 0.27717406D+06 0.27717406D+06 0.10871038D+01  1  2  5  2  6  2       -2 -.101141978360D-01 0.100000000000D+01
0.789084681608D-02 0.000000000000D+00 0.379724781442D-03 0.122960104375D-04 0.000000000000D+00  6 2 -2 25 1 -1 21 2 0.19877257D+00 0.11416935D+00 0.27717406D+06 0.27717406D+06 0.27717406D+06 0.10871038D+01  1  2  6  2  6  2       -2 0.120362148016D-01 0.100000000000D+01
0.340150913548D-10 0.000000000000D+00 0.000000000000D+00 0.122960104375D-04 0.000000000000D+00  6 2 21 25 1 2 -1 2 0.19877257D+00 0.12219915D+00 0.28354564D+06 0.28354564D+06 0.28354564D+06 0.10863690D+01  3  4 12  6  5  2       -2 0.387235125749D-09 0.100000000000D+01
-.978013860426D-04 0.000000000000D+00 -.439281996824D-05 0.122960104375D-04 0.000000000000D+00  6 2 21 25 1 2 -1 2 0.19877257D+00 0.12219941D+00 0.27717406D+06 0.27717406D+06 0.27717406D+06 0.10871038D+01  3  4  5  6  5  2       -2 -.111719463431D-02 0.100000000000D+01
  </mgrwgt>
  </event>
  <event>
  5     66 0.18881543E-05 0.23195134E+02 0.75467711E-02 0.93175010E-01
        2 -1    0    0  502    0 0.00000000E+00 0.00000000E+00 0.14078683E+04 0.14078683E+04 0.32000000E+00 0.0000E+00 0.9000E+01
       -2 -1    0    0    0  501 0.00000000E+00 0.00000000E+00 -.11516911E+04 0.11516912E+04 0.32000000E+00 0.0000E+00 0.9000E+01
       25  1    1    2    0    0 -.44088407E+03 -.34662418E+03 -.62930413E+03 0.85215947E+03 0.12500000E+03 0.0000E+00 0.9000E+01
        1  1    1    2  502    0 0.86119287E+01 0.21538451E+02 0.11183066E+04 0.11185472E+04 0.32000000E+00 0.0000E+00 0.9000E+01
       -1  1    1    2    0  501 0.43227214E+03 0.32508573E+03 -.23282532E+03 0.58885284E+03 0.32000000E+00 0.0000E+00 0.9000E+01
#aMCatNLO 1  0  0  2  1 0.59127939D+02 0.00000000D+00  -5  6  0 0.00000000D+00 0.00000000D+00 0.00000000D+00 0.00000000D+00 0.00000000D+00
  <mgrwgt>
 0.2708485175D-01    3    2    0
 0.127335364574314D+04 0.000000000000000D+00 0.000000000000000D+00 0.127335364574314D+04
 0.127335364574314D+04 0.000000000000000D+00 0.000000000000000D+00 -.127335364574314D+04
 0.919778326451745D+03 -.440928960557857D+03 -.346658572855937D+03 -.718175922331866D+03
 0.101164723218781D+04 0.861148099082512D+01 0.215373314166657D+02 0.101138128722251D+04
 0.615281732846718D+03 0.432317479567032D+03 0.325121241439271D+03 -.293205364890644D+03
 0.000000000000000D+00 -.000000000000000D+00 -.000000000000000D+00 0.000000000000000D+00
 0.191467574308487D+04 0.000000000000000D+00 0.000000000000000D+00 0.191467574308487D+04
 0.172148122609859D+04 0.000000000000000D+00 0.000000000000000D+00 -.172148122609859D+04
 0.808983611964067D+03 -.142118934294383D+03 -.320710208013763D+03 -.718175922331866D+03
 0.107817674452514D+04 0.369829728275858D+03 0.529051639670300D+02 0.101138128722251D+04
 0.817622684831802D+03 0.679989641456439D+03 0.346628845110808D+03 -.293205364890644D+03
 0.931373927862451D+03 -.907700435437915D+03 -.788238010640748D+02 0.193194516986277D+03
0.649881369581D-01 0.000000000000D+00 0.000000000000D+00 0.428943980645D-04 0.000000000000D+00  6 2 -2 25 1 -1 21 0 0.21659512D+00 0.17718326D+00 0.32419708D+06 0.32419708D+06 0.32419708D+06 0.10820683D+01  1  2  2  2  6  2       -2 0.216571069202D-01 0.100000000000D+01
0.542181725666D-01 0.000000000000D+00 -.249571557689D-03 0.428943980645D-04 0.000000000000D+00  6 2 -2 25 1 -1 21 2 0.21659512D+00 0.17718326D+00 0.32419708D+06 0.32419708D+06 0.32419708D+06 0.10820683D+01  1  2  3  2  6  2       -2 0.211553659843D-01 0.100000000000D+01
-.403076400827D-01 0.000000000000D+00 0.000000000000D+00 0.428943980645D-04 0.000000000000D+00  6 2 -2 25 1 -1 21 2 0.21659512D+00 0.17718326D+00 0.32419708D+06 0.32419708D+06 0.32419708D+06 0.10820683D+01  1  2 15  2  6  2       -2 -.157276211563D-01 0.100000000000D+01
  </mgrwgt>
  </event>
  <event>
  5     66 -.18881543E-05 0.70709530E+02 0.75467711E-02 0.94577756E-01
        2 -1    0    0  502    0 0.00000000E+00 0.00000000E+00 0.24017606E+04 0.24017606E+04 0.32000000E+00 0.0000E+00 0.9000E+01
       -2 -1    0    0    0  501 0.00000000E+00 0.00000000E+00 -.59390729E+03 0.59390738E+03 0.32000000E+00 0.0000E+00 0.9000E+01
       25  1    1    2    0    0 -.34501230E+03 -.35268776E+03 -.96743084E+01 0.50905867E+03 0.12500000E+03 0.0000E+00 0.9000E+01
        1  1    1    2  502    0 0.65660750E+02 0.26246280E+02 0.20132399E+04 0.20144814E+04 0.32000000E+00 0.0000E+00 0.9000E+01
       -1  1    1    2    0  501 0.27935155E+03 0.32644148E+03 -.19571235E+03 0.47212790E+03 0.32000000E+00 0.0000E+00 0.9000E+01
#aMCatNLO 1  0  0  5  5 0.23838254D+03 0.00000000D+00  -5  6  0 0.00000000D+00 0.00000000D+00 0.00000000D+00 0.00000000D+00 0.00000000D+00
  <mgrwgt>
 -.4058089484D-02    6    2    0
 0.119432963626718D+04 0.000000000000000D+00 0.000000000000000D+00 0.119432963626718D+04
 0.119432963626718D+04 -.000000000000000D+00 -.000000000000000D+00 -.119432963626718D+04
 0.645754183299172D+03 -.345040553441703D+03 -.352720242784529D+03 -.397377543476035D+03
 0.100264939214107D+04 0.656583616689199D+02 0.262453254993599D+02 0.100015297129652D+04
 0.740255697094109D+03 0.279382191772783D+03 0.326474917285168D+03 -.602775427820480D+03
 0.000000000000000D+00 0.000000000000000D+00 0.000000000000000D+00 -.000000000000000D+00
 0.119432963626718D+04 0.000000000000000D+00 0.000000000000000D+00 0.119432963626718D+04
 0.119432963626718D+04 -.000000000000000D+00 -.000000000000000D+00 -.119432963626718D+04
 0.646094269740618D+03 -.342993746472469D+03 -.350328425569053D+03 -.401793590679034D+03
 0.996152027496764D+03 0.688252661662724D+02 0.299460441359438D+02 0.993320280203552D+03
 0.470269960632007D+03 0.206712458628321D+03 0.263976733813487D+03 -.329757606926403D+03
 0.276143014664963D+03 0.674560216778759D+02 0.564056476196223D+02 -.261769082598116D+03
0.142304168974D-02 0.000000000000D+00 0.000000000000D+00 0.111247301314D-03 0.000000000000D+00  6 2 -2 25 1 -1 21 0 0.36950163D+00 0.91370361D-01 0.25473008D+06 0.25473008D+06 0.25473008D+06 0.10898472D+01  1  2  2  4  6  5       -1 0.774897323479D-03 0.100000000000D+01
0.507225319637D-03 0.000000000000D+00 -.546485478407D-05 0.111247301314D-03 0.000000000000D+00  6 2 -2 25 1 -1 21 2 0.36950163D+00 0.91370361D-01 0.25473008D+06 0.25473008D+06 0.25473008D+06 0.10898472D+01  1  2  3  4  6  5       -1 0.328064114365D-03 0.100000000000D+01
-.881525717587D-03 0.000000000000D+00 0.000000000000D+00 0.111247301314D-03 0.000000000000D+00  6 2 -2 25 1 -1 21 2 0.36950163D+00 0.91370361D-01 0.25473008D+06 0.25473008D+06 0.25473008D+06 0.10898472D+01  1  2 15  4  6  5       -1 -.570154806225D-03 0.100000000000D+01
-.987797222656D-02 0.000000000000D+00 0.000000000000D+00 0.111247301314D-03 0.000000000000D+00  6 2 -2 25 1 -1 21 2 0.36950163D+00 0.91370361D-01 0.25473008D+06 0.25473008D+06 0.25473008D+06 0.10898472D+01  1  2  4  4  6  5       -1 -.638889283473D-02 0.100000000000D+01
-.638084124370D-02 0.000000000000D+00 0.000000000000D+00 0.111247301314D-03 0.000000000000D+00  6 2 -2 25 1 -1 21 2 0.36950163D+00 0.91370361D-01 0.25473008D+06 0.25473008D+06 0.25473008D+06 0.10898472D+01  1  2  5  4  6  5       -1 -.412701209990D-02 0.100000000000D+01
0.916075352519D-02 0.000000000000D+00 -.000000000000D+00 0.111247301314D-03 0.000000000000D+00  6 2 -2 25 1 -1 21 2 0.36950163D+00 0.91370361D-01 0.25473008D+06 0.25473008D+06 0.25473008D+06 0.10898472D+01  1  2  6  4  6  5       -1 0.592500881917D-02 0.100000000000D+01
  </mgrwgt>
  </event>
  <event>
  6     66 -.18881543E-05 0.61367976E+02 0.75467711E-02 0.90196369E-01
        2 -1    0    0  502    0 0.00000000E+00 0.00000000E+00 0.44968230E+04 0.44968230E+04 0.32000000E+00 0.0000E+00 0.9000E+01
       -2 -1    0    0    0  501 0.00000000E+00 0.00000000E+00 -.22329933E+03 0.22329956E+03 0.32000000E+00 0.0000E+00 0.9000E+01
       25  1    1    2    0    0 0.85339020E+02 0.67062896E+03 0.14974483E+04 0.16477264E+04 0.12500000E+03 0.0000E+00 0.9000E+01
        1  1    1    2  503    0 -.23404747E+01 0.12607881E+02 0.83089364E+03 0.83099264E+03 0.32000000E+00 0.0000E+00 0.9000E+01
       -1  1    1    2    0  501 -.13595761E+03 -.72556224E+03 0.77882040E+03 0.10730733E+04 0.32000000E+00 0.0000E+00 0.9000E+01
       21  1    1    2  502  503 0.52959070E+02 0.42325393E+02 0.11663613E+04 0.11683302E+04 0.75000000E+00 0.0000E+00 0.9000E+01
#aMCatNLO 2  0  0  4  1 0.25431295D+02 0.00000000D+00  -5  6  0 0.00000000D+00 0.00000000D+00 0.00000000D+00 0.00000000D+00 0.00000000D+00
  <mgrwgt>
 -.7830125553D-03    3    2    0
 0.100206693416744D+04 0.000000000000000D+00 0.000000000000000D+00 0.100206693416744D+04
 0.100206693416744D+04 -.000000000000000D+00 -.000000000000000D+00 -.100206693416744D+04
 0.687895170680050D+03 0.853264392430749D+02 0.670922730412636D+03 0.125241537313307D+02
 0.448686613907586D+03 0.508160549908396D+02 0.551475645114855D+02 0.442375578195129D+03
 0.867552083747251D+03 -.136142494233915D+03 -.726070294924121D+03 -.454899731926460D+03
 0.000000000000000D+00 0.000000000000000D+00 0.000000000000000D+00 0.000000000000000D+00
 0.100206693416744D+04 0.000000000000000D+00 0.000000000000000D+00 0.100206693416744D+04
 0.100206693416744D+04 -.000000000000000D+00 -.000000000000000D+00 -.100206693416744D+04
 0.688051593125241D+03 0.854425292930159D+02 0.671048715861908D+03 0.135347674630466D+02
 0.184723016431971D+03 -.236177496019728D+01 0.125495182644102D+02 0.184281101608643D+03
 0.866728876261329D+03 -.135996171157648D+03 -.725911499415706D+03 -.453625926719061D+03
 0.264630382516345D+03 0.529154168248291D+02 0.423132652893876D+02 0.255810057647371D+03
-.277423925406D-07 0.000000000000D+00 0.000000000000D+00 0.233976246173D-05 0.000000000000D+00  6 2 -2 25 1 -1 21 2 0.69181894D+00 0.34353762D-01 0.56774864D+06 0.56774864D+06 0.56774864D+06 0.10646319D+01  1  2 13  3  6  4        1 -.355123474254D-08 0.100000000000D+01
-.915068481119D-02 0.000000000000D+00 0.000000000000D+00 0.233976246173D-05 0.000000000000D+00  6 2 -2 25 1 -1 21 2 0.69181894D+00 0.34353762D-01 0.56774864D+06 0.56774864D+06 0.56774864D+06 0.10646319D+01  1  2 13  3  6  4        1 -.117135642760D-02 0.100000000000D+01
0.303378611896D-02 0.000000000000D+00 0.000000000000D+00 0.233976246173D-05 0.148253728361D-08  6 2 -2 25 1 -1 21 2 0.69181894D+00 0.34353762D-01 0.56774864D+06 0.56774864D+06 0.56774864D+06 0.10646319D+01  1  2  1  3  6  4        1 0.388347423580D-03 0.100000000000D+01
  </mgrwgt>
  </event>
  <event>
  5     66 0.18881543E-05 0.52337576E+02 0.75467711E-02 0.94821646E-01
        2 -1    0    0  502    0 0.00000000E+00 0.00000000E+00 0.18726872E+04 0.18726872E+04 0.32000000E+00 0.0000E+00 0.9000E+01
       -2 -1    0    0    0  501 -.00000000E+00 -.00000000E+00 -.21662557E+04 0.21662557E+04 0.32000000E+00 0.0000E+00 0.9000E+01
       25  1    1    2    0    0 -.34562475E+03 -.31559042E+03 -.13979172E+04 0.14794766E+04 0.12500000E+03 0.0000E+00 0.9000E+01
        1  1    1    2  502    0 0.29839233E+03 0.29302120E+03 0.18070527E+04 0.18548151E+04 0.32000000E+00 0.0000E+00 0.9000E+01
       -1  1    1    2    0  501 0.47232424E+02 0.22569220E+02 -.70270401E+03 0.70465119E+03 0.32000000E+00 0.0000E+00 0.9000E+01
#aMCatNLO 1  0  0  5  4 0.28289504D+02 0.00000000D+00  -5  6  0 0.00000000D+00 0.00000000D+00 0.00000000D+00 0.00000000D+00 0.00000000D+00
  <mgrwgt>
 0.1183172374D-01    7    2    0
 0.201412992587307D+04 0.000000000000000D+00 0.000000000000000D+00 0.201412992587307D+04
 0.201412992587307D+04 -.000000000000000D+00 -.000000000000000D+00 -.201412992587307D+04
 0.138166416576472D+04 -.345616850948628D+03 -.315586716026232D+03 -.129395706418971D+04
 0.199143364313014D+04 0.298393308709224D+03 0.293022164925233D+03 0.194702526926865D+04
 0.655162042851274D+03 0.472235422394036D+02 0.225645511009987D+02 -.653068205078940D+03
 0.000000000000000D+00 0.000000000000000D+00 0.000000000000000D+00 0.000000000000000D+00
 0.201412992587307D+04 0.000000000000000D+00 0.000000000000000D+00 0.201412992587307D+04
 0.201412992587307D+04 -.000000000000000D+00 -.000000000000000D+00 -.201412992587307D+04
 0.138384958004327D+04 -.345443326319508D+03 -.315503801759843D+03 -.129635678713938D+04
 0.198811268551199D+04 0.298643008896682D+03 0.293141477716537D+03 0.194357209219854D+04
 0.589903724987447D+03 0.261868226158088D+02 0.434233061089864D+02 -.587720232391160D+03
 0.663938612034268D+02 0.206134948070171D+02 -.210609820656799D+02 -.594950726679957D+02
0.161091240878D+00 0.000000000000D+00 0.000000000000D+00 0.137647203223D-02 0.000000000000D+00  6 2 -2 25 1 -1 21 0 0.28810573D+00 0.33327011D+00 0.22799538D+06 0.22799538D+06 0.22799538D+06 0.10934822D+01  1  2  2  4  6  5       -1 0.290687285557D-02 0.100000000000D+01
0.274018430226D-01 0.000000000000D+00 -.618632781269D-03 0.137647203223D-02 0.000000000000D+00  6 2 -2 25 1 -1 21 2 0.28810573D+00 0.33327011D+00 0.22799538D+06 0.22799538D+06 0.22799538D+06 0.10934822D+01  1  2  3  4  6  5       -1 0.591231136452D-03 0.100000000000D+01
-.111486436851D+00 0.000000000000D+00 0.000000000000D+00 0.137647203223D-02 0.000000000000D+00  6 2 -2 25 1 -1 21 2 0.28810573D+00 0.33327011D+00 0.22799538D+06 0.22799538D+06 0.22799538D+06 0.10934822D+01  1  2 15  4  6  5       -1 -.240546786230D-02 0.100000000000D+01
0.188424945722D-09 0.000000000000D+00 0.000000000000D+00 0.137647203223D-02 0.000000000000D+00  6 2 -2 25 1 -1 21 2 0.28810573D+00 0.33327011D+00 0.24152405D+06 0.24152405D+06 0.24152405D+06 0.10915878D+01  1  2 12  4  6  5       -1 0.402630845386D-11 0.100000000000D+01
-.196765878692D-01 0.000000000000D+00 0.000000000000D+00 0.137647203223D-02 0.000000000000D+00  6 2 -2 25 1 -1 21 2 0.28810573D+00 0.33327011D+00 0.22799538D+06 0.22799538D+06 0.22799538D+06 0.10934822D+01  1  2  4  4  6  5       -1 -.424548502005D-03 0.100000000000D+01
-.334563237455D+01 0.000000000000D+00 0.000000000000D+00 0.137647203223D-02 0.000000000000D+00  6 2 -2 25 1 -1 21 2 0.28810573D+00 0.33327011D+00 0.22799538D+06 0.22799538D+06 0.22799538D+06 0.10934822D+01  1  2  5  4  6  5       -1 -.721864594775D-01 0.100000000000D+01
0.386303442814D+01 0.000000000000D+00 -.000000000000D+00 0.137647203223D-02 0.000000000000D+00  6 2 -2 25 1 -1 21 2 0.28810573D+00 0.33327011D+00 0.22799538D+06 0.22799538D+06 0.22799538D+06 0.10934822D+01  1  2  6  4  6  5       -1 0.833500955838D-01 0.100000000000D+01
  </mgrwgt>
  </event>
  <event>
  5     66 0.18881543E-05 0.31326357E+02 0.75467711E-02 0.91209398E-01
        2 -1    0    0  502    0 0.00000000E+00 0.00000000E+00 0.23092292E+04 0.23092292E+04 0.32000000E+00 0.0000E+00 0.9000E+01
       -2 -1    0    0    0  501 0.00000000E+00 0.00000000E+00 -.10156270E+04 0.10156270E+04 0.32000000E+00 0.0000E+00 0.9000E+01
       25  1    1    2    0    0 0.40312971E+03 -.32310122E+03 -.67125591E+02 0.53576003E+03 0.12500000E+03 0.0000E+00 0.9000E+01
        1  1    1    2  502    0 -.39438328E+03 0.35318034E+03 0.20407761E+04 0.21083267E+04 0.32000000E+00 0.0000E+00 0.9000E+01
       -1  1    1    2    0  501 -.87464318E+01 -.30079119E+02 -.68004829E+03 0.68076944E+03 0.32000000E+00 0.0000E+00 0.9000E+01
#aMCatNLO 1  0  0  5  2 0.13524380D+02 0.00000000D+00  -5  6  0 0.00000000D+00 0.00000000D+00 0.00000000D+00 0.00000000D+00 0.00000000D+00
  <mgrwgt>
 0.3218795532D-01    4    2    0
 0.153144230710316D+04 0.000000000000000D+00 0.000000000000000D+00 0.153144230710316D+04
 0.153144230710316D+04 -.000000000000000D+00 -.000000000000000D+00 -.153144230710316D+04
 0.609911053309980D+03 0.403127679910288D+03 -.323097652906684D+03 -.299102780538781D+03
 0.142672780861811D+04 -.394380749112875D+03 0.353178076243708D+03 0.132487029971775D+04
 0.102624575227822D+04 -.874693079741331D+01 -.300804233370243D+02 -.102576751917897D+04
 0.000000000000000D+00 0.000000000000000D+00 -.000000000000000D+00 0.000000000000000D+00
 0.153144230710316D+04 0.000000000000000D+00 0.000000000000000D+00 0.153144230710316D+04
 0.153144230710316D+04 -.000000000000000D+00 -.000000000000000D+00 -.153144230710316D+04
 0.623384032915344D+03 0.402905042534800D+03 -.323863295925984D+03 -.325211845949357D+03
 0.137159153723224D+04 -.394885908406784D+03 0.351440849121949D+03 0.126562940623126D+04
 0.142261407762864D+03 0.260172133376267D+02 0.136589174410102D+03 -.300800628786380D+02
 0.925647636295865D+03 -.340363474656424D+02 -.164166727606067D+03 -.910337497403263D+03
0.254921250782D+00 0.000000000000D+00 0.000000000000D+00 0.104247360419D-02 0.000000000000D+00  6 2 -2 25 1 -1 21 0 0.35526603D+00 0.15625031D+00 0.29826188D+06 0.29826188D+06 0.29826188D+06 0.10847386D+01  1  2  2  4  6  5       -1 0.391543650063D-01 0.100000000000D+01
0.161231883128D+00 0.000000000000D+00 -.978964725311D-03 0.104247360419D-02 0.000000000000D+00  6 2 -2 25 1 -1 21 2 0.35526603D+00 0.15625031D+00 0.29826188D+06 0.29826188D+06 0.29826188D+06 0.10847386D+01  1  2  3  4  6  5       -1 0.291390421769D-01 0.100000000000D+01
-.159736790928D+00 0.000000000000D+00 0.000000000000D+00 0.104247360419D-02 0.000000000000D+00  6 2 -2 25 1 -1 21 2 0.35526603D+00 0.15625031D+00 0.29826188D+06 0.29826188D+06 0.29826188D+06 0.10847386D+01  1  2 15  4  6  5       -1 -.288688378362D-01 0.100000000000D+01
-.400415669348D-01 0.000000000000D+00 0.000000000000D+00 0.104247360419D-02 0.000000000000D+00  6 2 -2 25 1 -1 21 2 0.35526603D+00 0.15625031D+00 0.29826188D+06 0.29826188D+06 0.29826188D+06 0.10847386D+01  1  2  5  4  6  5       -1 -.723661403133D-02 0.100000000000D+01
  </mgrwgt>
  </event>
  <event>
  5     66 0.18881543E-05 0.48788141E+02 0.75467711E-02 0.88771757E-01
        2 -1    0    0  502    0 0.00000000E+00 0.00000000E+00 0.16414991E+04 0.16414991E+04 0.32000000E+00 0.0000E+00 0.9000E+01
       -2 -1    0    0    0  501 0.00000000E+00 0.00000000E+00 -.10906874E+04 0.10906874E+04 0.32000000E+00 0.0000E+00 0.9000E+01
       25  1    1    2    0    0 0.45398767E+02 -.54047431E+03 0.40069223E+03 0.68582271E+03 0.12500000E+03 0.0000E+00 0.9000E+01
        1  1    1    2  502    0 -.28549944E+02 0.58625549E+03 0.10190853E+04 0.11760296E+04 0.32000000E+00 0.0000E+00 0.9000E+01
       -1  1    1    2    0  501 -.16848823E+02 -.45781179E+02 -.86896588E+03 0.87033419E+03 0.32000000E+00 0.0000E+00 0.9000E+01
#aMCatNLO 1  0  0  2  5 0.10921869D+02 0.00000000D+00  -5  6  0 0.00000000D+00 0.00000000D+00 0.00000000D+00 0.00000000D+00 0.00000000D+00
  <mgrwgt>
 0.3218609197D-02    7    4    0
 0.133804423993212D+04 0.000000000000000D+00 0.000000000000000D+00 0.133804423993212D+04
 0.133804423993212D+04 0.000000000000000D+00 0.000000000000000D+00 -.133804423993212D+04
 0.617736428691772D+03 0.453984821519685D+02 -.540427456697938D+03 0.268049318592980D+03
 0.990855486088896D+03 -.285478881096251D+02 0.586213264689943D+03 0.798331773574434D+03
 0.106749656508357D+04 -.168505940423434D+02 -.457858079920046D+02 -.106638109216741D+04
 0.000000000000000D+00 -.000000000000000D+00 -.000000000000000D+00 -.000000000000000D+00
 0.146960211772677D+04 0.000000000000000D+00 0.000000000000000D+00 0.146960211772677D+04
 0.171368742444305D+04 0.000000000000000D+00 0.000000000000000D+00 -.171368742444305D+04
 0.589388493720282D+03 0.124644398483936D+03 -.494335041503514D+03 0.268049318592980D+03
 0.104360894612910D+04 0.105011609488816D+03 0.663896508211007D+03 0.798331773574434D+03
 0.107413994053591D+04 0.123744587273842D+03 0.359896546629317D+02 -.106638109216741D+04
 0.476152161784513D+03 -.353400595246593D+03 -.205551121370425D+03 -.244085306716278D+03
 0.133804423993212D+04 0.000000000000000D+00 0.000000000000000D+00 0.133804423993212D+04
 0.133804423993212D+04 0.000000000000000D+00 0.000000000000000D+00 -.133804423993212D+04
 0.617736428691772D+03 0.453984821519685D+02 -.540427456697938D+03 0.268049318592980D+03
 0.990855486088896D+03 -.285478881096251D+02 0.586213264689943D+03 0.798331773574434D+03
 0.000000000000000D+00 -.000000000000000D+00 -.000000000000000D+00 -.000000000000000D+00
 0.106749656508357D+04 -.168505940423434D+02 -.457858079920046D+02 -.106638109216741D+04
 0.146960211772677D+04 0.000000000000000D+00 0.000000000000000D+00 0.146960211772677D+04
 0.171368742444305D+04 0.000000000000000D+00 0.000000000000000D+00 -.171368742444305D+04
 0.589388493720282D+03 0.124644398483936D+03 -.494335041503514D+03 0.268049318592980D+03
 0.104360894612910D+04 0.105011609488816D+03 0.663896508211007D+03 0.798331773574434D+03
 0.476152161784513D+03 -.353400595246593D+03 -.205551121370425D+03 -.244085306716278D+03
 0.107413994053591D+04 0.123744587273842D+03 0.359896546629317D+02 -.106638109216741D+04
0.562341196262D-02 0.000000000000D+00 0.000000000000D+00 0.141206021893D-03 0.000000000000D+00  6 2 -2 25 1 -1 21 0 0.25253832D+00 0.16779806D+00 0.35536268D+06 0.35536268D+06 0.35536268D+06 0.10791519D+01  1  2  2  2  6  2       -2 0.162251372971D-02 0.100000000000D+01
0.303225435828D-02 0.000000000000D+00 -.215953826148D-04 0.141206021893D-03 0.000000000000D+00  6 2 -2 25 1 -1 21 2 0.25253832D+00 0.16779806D+00 0.35536268D+06 0.35536268D+06 0.35536268D+06 0.10791519D+01  1  2  3  2  6  2       -2 0.101887107715D-02 0.100000000000D+01
-.425582055004D-02 0.000000000000D+00 0.000000000000D+00 0.141206021893D-03 0.000000000000D+00  6 2 -2 25 1 -1 21 2 0.25253832D+00 0.16779806D+00 0.35536268D+06 0.35536268D+06 0.35536268D+06 0.10791519D+01  1  2 15  2  6  2       -2 -.143000288090D-02 0.100000000000D+01
-.133382907955D-03 0.000000000000D+00 0.000000000000D+00 0.141206021893D-03 0.000000000000D+00  6 2 -2 25 1 -1 21 2 0.25253832D+00 0.16779806D+00 0.35536268D+06 0.35536268D+06 0.35536268D+06 0.10791519D+01  1  2  4  2  6  2       -2 -.448181356324D-04 0.100000000000D+01
-.934172617072D-02 0.000000000000D+00 -.493146609170D-02 0.141206021893D-03 0.000000000000D+00  6 2 -2 25 1 -1 21 2 0.25253832D+00 0.22596717D+00 0.35536268D+06 0.35536268D+06 0.35536268D+06 0.10791519D+01  1  2  5  2  6  2       -2 -.124068630570D-02 0.100000000000D+01
0.105494040259D-01 0.000000000000D+00 0.472082622689D-02 0.141206021893D-03 0.000000000000D+00  6 2 -2 25 1 -1 21 2 0.25253832D+00 0.16779806D+00 0.35536268D+06 0.35536268D+06 0.35536268D+06 0.10791519D+01  1  2  6  2  6  2       -2 0.354471669365D-02 0.100000000000D+01
-.249824930010D-03 0.000000000000D+00 -.189536772609D-03 0.141206021893D-03 0.000000000000D+00  6 2 21 25 1 2 -1 2 0.25253832D+00 0.22596717D+00 0.35536268D+06 0.35536268D+06 0.35536268D+06 0.10791519D+01  3  4  5  6  5  2       -2 -.251984981588D-03 0.100000000000D+01
  </mgrwgt>
  </event>
  <event>
  5     66 -.18881543E-05 0.10434288E+02 0.75467711E-02 0.93445513E-01
        2 -1    0    0  502    0 0.00000000E+00 0.00000000E+00 0.12002731E+04 0.12002731E+04 0.32000000E+00 0.0000E+00 0.9000E+01
       -2 -1    0    0    0  501 0.00000000E+00 0.00000000E+00 -.68687802E+03 0.68687809E+03 0.32000000E+00 0.0000E+00 0.9000E+01
       25  1    1    2    0    0 0.40461637E+03 0.36877065E+03 -.11903239E+03 0.57402082E+03 0.12500000E+03 0.0000E+00 0.9000E+01
        1  1    1    2  502    0 -.10365473E+02 -.12125266E+01 0.75931403E+03 0.75938581E+03 0.32000000E+00 0.0000E+00 0.9000E+01
       -1  1    1    2    0  501 -.39425090E+03 -.36755812E+03 -.12688659E+03 0.55374457E+03 0.32000000E+00 0.0000E+00 0.9000E+01
#aMCatNLO 1  0  0  2  5 0.10921869D+02 0.00000000D+00  -5  6  0 0.00000000D+00 0.00000000D+00 0.00000000D+00 0.00000000D+00 0.00000000D+00
  <mgrwgt>
 -.7669787484D-03    1    2    0
 0.907987498106020D+03 0.000000000000000D+00 0.000000000000000D+00 0.907987498106020D+03
 0.907987498106020D+03 0.000000000000000D+00 0.000000000000000D+00 -.907987498106020D+03
 0.630219224582961D+03 0.404678434301438D+03 0.368828658887289D+03 -.285923164903948D+03
 0.574380950702017D+03 -.103636227390302D+02 -.121231024051900D+01 0.574286167478337D+03
 0.611374820927062D+03 -.394314811562407D+03 -.367616348646770D+03 -.288363002574389D+03
 0.000000000000000D+00 0.000000000000000D+00 -.000000000000000D+00 -.000000000000000D+00
 0.948496490771694D+03 0.000000000000000D+00 0.000000000000000D+00 0.948496490771694D+03
 0.108236838829878D+04 0.000000000000000D+00 0.000000000000000D+00 -.108236838829878D+04
 0.661935592066636D+03 0.400051023019095D+03 0.425136273208126D+03 -.285923164903948D+03
 0.576549799854785D+03 -.144852882482229D+02 0.489412502905469D+02 0.574286167478337D+03
 0.584446240622905D+03 -.398597236393069D+03 -.315506624438120D+03 -.288363002574389D+03
 0.207933246526149D+03 0.130315016221975D+02 -.158570899060553D+03 -.133871897527087D+03
-.372043428690D-03 0.000000000000D+00 0.000000000000D+00 0.275885802166D-04 0.000000000000D+00  6 2 -2 25 1 -1 21 2 0.18465740D+00 0.10567355D+00 0.30866805D+06 0.30866805D+06 0.30866805D+06 0.10836378D+01  1  2 14  2  6  2       -2 -.766978748386D-03 0.100000000000D+01
  </mgrwgt>
  </event>
  <event>
  5     66 0.18881543E-05 0.53431391E+02 0.75467711E-02 0.89280784E-01
        2 -1    0    0  502    0 0.00000000E+00 0.00000000E+00 0.31356574E+04 0.31356574E+04 0.32000000E+00 0.0000E+00 0.9000E+01
       -2 -1    0    0    0  501 0.00000000E+00 0.00000000E+00 -.61153799E+03 0.61153807E+03 0.32000000E+00 0.0000E+00 0.9000E+01
       25  1    1    2    0    0 -.29495164E+03 0.56593965E+03 -.75192641E+02 0.65464730E+03 0.12500000E+03 0.0000E+00 0.9000E+01
        1  1    1    2  502    0 0.24824476E+03 -.53998948E+03 0.28115546E+04 0.28736829E+04 0.32000000E+00 0.0000E+00 0.9000E+01
       -1  1    1    2    0  501 0.46706884E+02 -.25950171E+02 -.21224262E+03 0.21886520E+03 0.32000000E+00 0.0000E+00 0.9000E+01
#aMCatNLO 1  0  0  1  5 0.17666791D+03 0.00000000D+00  -5  6  0 0.00000000D+00 0.00000000D+00 0.00000000D+00 0.00000000D+00 0.00000000D+00
  <mgrwgt>
 0.2163108694D-02    4    2    0
 0.138476488192003D+04 0.000000000000000D+00 0.000000000000000D+00 0.138476488192003D+04
 0.138476488192003D+04 0.000000000000000D+00 0.000000000000000D+00 -.138476488192003D+04
 0.954277264409779D+03 -.294951508782421D+03 0.565939936004527D+03 -.698380765536664D+03
 0.132569596097544D+04 0.248244917923271D+03 -.539989831357456D+03 0.118501275254843D+04
 0.489556538454851D+03 0.467065908591499D+02 -.259501046470704D+02 -.486631987011765D+03
 0.000000000000000D+00 -.000000000000000D+00 -.000000000000000D+00 -.000000000000000D+00
 0.153643715980197D+04 0.000000000000000D+00 0.000000000000000D+00 0.153643715980197D+04
 0.156426755695801D+04 0.000000000000000D+00 0.000000000000000D+00 -.156426755695801D+04
 0.982808787243984D+03 -.218931122989843D+03 0.643911160020402D+03 -.698380765536664D+03
 0.131003928476615D+04 0.351683590695350D+03 -.433896711169635D+03 0.118501275254843D+04
 0.494242589816609D+03 0.853155051145331D+02 0.136495931317601D+02 -.486631987011765D+03
 0.313614054933236D+03 -.218067972820041D+03 -.223664041982527D+03 -.278303971560432D+02
0.218187507951D-01 0.000000000000D+00 0.000000000000D+00 0.709219129519D-04 0.000000000000D+00  6 2 -2 25 1 -1 21 0 0.48240883D+00 0.94082775D-01 0.42124306D+06 0.42124306D+06 0.42124306D+06 0.10738113D+01  1  2  2  1  6  1        2 0.380849190656D-02 0.100000000000D+01
0.665743125405D-02 0.000000000000D+00 -.837897480622D-04 0.709219129519D-04 0.000000000000D+00  6 2 -2 25 1 -1 21 2 0.48240883D+00 0.94082775D-01 0.42124306D+06 0.42124306D+06 0.42124306D+06 0.10738113D+01  1  2  3  1  6  1        2 0.133994139038D-02 0.100000000000D+01
-.145479472090D-01 0.000000000000D+00 0.000000000000D+00 0.709219129519D-04 0.000000000000D+00  6 2 -2 25 1 -1 21 2 0.48240883D+00 0.94082775D-01 0.42124306D+06 0.42124306D+06 0.42124306D+06 0.10738113D+01  1  2 15  1  6  1        2 -.292806577591D-02 0.100000000000D+01
-.284487597797D-03 0.000000000000D+00 0.000000000000D+00 0.709219129519D-04 0.000000000000D+00  6 2 -2 25 1 -1 21 2 0.48240883D+00 0.94082775D-01 0.42124306D+06 0.42124306D+06 0.42124306D+06 0.10738113D+01  1  2  4  1  6  1        2 -.572588274353D-04 0.100000000000D+01
  </mgrwgt>
  </event>
  <event>
  5     66 0.18881543E-05 0.19080309E+02 0.75467711E-02 0.93579653E-01
        2 -1    0    0  502    0 0.00000000E+00 0.00000000E+00 0.44322071E+04 0.44322071E+04 0.32000000E+00 0.0000E+00 0.9000E+01
       -2 -1    0    0    0  501 0.00000000E+00 0.00000000E+00 -.31045015E+03 0.31045031E+03 0.32000000E+00 0.0000E+00 0.9000E+01
       25  1    1    2    0    0 0.40545833E+03 0.22602927E+03 0.24526595E+04 0.24993297E+04 0.12500000E+03 0.0000E+00 0.9000E+01
        1  1    1    2  502    0 0.17122116E+02 0.84370399E+01 0.17527656E+04 0.17528695E+04 0.32000000E+00 0.0000E+00 0.9000E+01
       -1  1    1    2    0  501 -.42258045E+03 -.23446631E+03 -.83668138E+02 0.49045810E+03 0.32000000E+00 0.0000E+00 0.9000E+01
#aMCatNLO 1  0  0  5  1 0.83288759D+02 0.00000000D+00  -5  6  0 0.00000000D+00 0.00000000D+00 0.00000000D+00 0.00000000D+00 0.00000000D+00
  <mgrwgt>
 0.2238189610D-02    4    2    0
 0.117302163493917D+04 0.000000000000000D+00 0.000000000000000D+00 0.117302163493917D+04
 0.117302163493917D+04 -.000000000000000D+00 -.000000000000000D+00 -.117302163493917D+04
 0.743637934777163D+03 0.405520571309190D+03 0.226063416503252D+03 0.567292495987378D+03
 0.463908287006037D+03 0.171152462062156D+02 0.843365460275565D+01 0.463515739290715D+03
 0.113849704809514D+04 -.422635817515406D+03 -.234497071106008D+03 -.103080823527809D+04
 0.000000000000000D+00 0.000000000000000D+00 0.000000000000000D+00 0.000000000000000D+00
 0.117302163493917D+04 0.000000000000000D+00 0.000000000000000D+00 0.117302163493917D+04
 0.117302163493917D+04 -.000000000000000D+00 -.000000000000000D+00 -.117302163493917D+04
 0.715157835497517D+03 0.394437708692045D+03 0.219914153436839D+03 0.540261407795727D+03
 0.446780918543570D+03 0.101964961263993D+02 0.459482561052941D+01 0.446640916418312D+03
 0.110049357011271D+04 -.460276841810788D+03 -.280548845870555D+03 -.959439248640994D+03
 0.836109457245464D+02 0.556426369923435D+02 0.560398668231874D+02 -.274630755730445D+02
0.415202366690D-01 0.000000000000D+00 0.000000000000D+00 0.379364861982D-03 0.000000000000D+00  6 2 -2 25 1 -1 21 0 0.68187802D+00 0.47761575D-01 0.24168073D+06 0.24168073D+06 0.24168073D+06 0.10915666D+01  1  2  2  4  6  5       -1 0.317581468943D-02 0.100000000000D+01
0.245189190469D-01 0.000000000000D+00 -.159448641339D-03 0.379364861982D-03 0.000000000000D+00  6 2 -2 25 1 -1 21 2 0.68187802D+00 0.47761575D-01 0.24168073D+06 0.24168073D+06 0.24168073D+06 0.10915666D+01  1  2  3  4  6  5       -1 0.223458611418D-02 0.100000000000D+01
-.328157452732D-01 0.000000000000D+00 0.000000000000D+00 0.379364861982D-03 0.000000000000D+00  6 2 -2 25 1 -1 21 2 0.68187802D+00 0.47761575D-01 0.24168073D+06 0.24168073D+06 0.24168073D+06 0.10915666D+01  1  2 15  4  6  5       -1 -.299073578952D-02 0.100000000000D+01
-.199123261039D-02 0.000000000000D+00 0.000000000000D+00 0.379364861982D-03 0.000000000000D+00  6 2 -2 25 1 -1 21 2 0.68187802D+00 0.47761575D-01 0.24168073D+06 0.24168073D+06 0.24168073D+06 0.10915666D+01  1  2  4  4  6  5       -1 -.181475404065D-03 0.100000000000D+01
  </mgrwgt>
  </event>
  <event>
  6     66 0.18881543E-05 0.17432870E+02 0.75467711E-02 0.91594021E-01
        2 -1    0    0  503    0 0.00000000E+00 0.00000000E+00 0.11152696E+04 0.11152696E+04 0.32000000E+00 0.0000E+00 0.9000E+01
       -2 -1    0    0    0  501 0.00000000E+00 0.00000000E+00 -.97789405E+03 0.97789411E+03 0.32000000E+00 0.0000E+00 0.9000E+01
       25  1    1    2    0    0 -.20316563E+03 -.58443580E+03 0.27489159E+03 0.68849972E+03 0.12500000E+03 0.0000E+00 0.9000E+01
        1  1    1    2  502    0 0.21848813E+03 0.61211711E+03 0.25194665E+03 0.69706645E+03 0.32000000E+00 0.0000E+00 0.9000E+01
       -1  1    1    2    0  501 -.12655850E+02 -.37903122E+01 -.54754083E+03 0.54770028E+03 0.32000000E+00 0.0000E+00 0.9000E+01
       21  1    1    2  503  502 -.26666500E+01 -.23890995E+02 0.15807810E+03 0.15989728E+03 0.75000000E+00 0.0000E+00 0.9000E+01
#aMCatNLO 2  0  0  1  1 0.24039356D+02 0.00000000D+00  -5  6  0 0.00000000D+00 0.00000000D+00 0.00000000D+00 0.00000000D+00 0.00000000D+00
  <mgrwgt>
 0.9460145860D-02    1    2    0
 0.966503058560996D+03 0.000000000000000D+00 0.000000000000000D+00 0.966503058560996D+03
 0.966503058560996D+03 0.000000000000000D+00 0.000000000000000D+00 -.966503058560996D+03
 0.699024213825316D+03 -.204099300224313D+03 -.592961764846747D+03 0.282399845240534D+03
 0.691916732655795D+03 0.217504572837442D+03 0.603451070980039D+03 0.259398015907826D+03
 0.542065170640881D+03 -.134052726131290D+02 -.104893061332922D+02 -.541797861148360D+03
 0.000000000000000D+00 -.000000000000000D+00 -.000000000000000D+00 0.000000000000000D+00
 0.112727622405722D+04 0.000000000000000D+00 0.000000000000000D+00 0.112727622405722D+04
 0.967476825283935D+03 0.000000000000000D+00 0.000000000000000D+00 -.967476825283935D+03
 0.691467992575006D+03 -.203140220809990D+03 -.584369200808102D+03 0.282399845240534D+03
 0.699728647166205D+03 0.218464447642696D+03 0.612050761068315D+03 0.259398015907826D+03
 0.541958951380640D+03 -.126575767862304D+02 -.379056546791343D+01 -.541797861148360D+03
 0.161597458219304D+03 -.266665004647515D+01 -.238909947922995D+02 0.159799398773286D+03
0.106817221706D-01 0.000000000000D+00 0.000000000000D+00 0.139638019615D-04 0.127607810923D-06  6 2 -2 25 1 -1 21 2 0.17157979D+00 0.15044511D+00 0.43447603D+06 0.43447603D+06 0.43447603D+06 0.10728487D+01  1  2  1  1  6  1        2 0.946014585973D-02 0.100000000000D+01
  </mgrwgt>
  </event>
  <event>
  6     66 0.18881543E-05 0.25343383E+02 0.75467711E-02 0.94564279E-01
        2 -1    0    0  502    0 0.00000000E+00 0.00000000E+00 0.95896997E+03 0.95897002E+03 0.32000000E+00 0.0000E+00 0.9000E+01
       -2 -1    0    0    0  501 -.00000000E+00 -.00000000E+00 -.12179618E+04 0.12179618E+04 0.32000000E+00 0.0000E+00 0.9000E+01
       25  1    1    2    0    0 -.42146174E+03 -.22586810E+03 0.10173277E+03 0.50459980E+03 0.12500000E+03 0.0000E+00 0.9000E+01
        1  1    1    2  503    0 0.33486299E+03 0.14378980E+03 0.38084296E+03 0.52711497E+03 0.32000000E+00 0.0000E+00 0.9000E+01
       -1  1    1    2    0  501 -.16682811E+02 0.21795212E+02 -.92545543E+03 0.92586241E+03 0.32000000E+00 0.0000E+00 0.9000E+01
       21  1    1    2  502  503 0.10328156E+03 0.60283093E+02 0.18388792E+03 0.21935465E+03 0.75000000E+00 0.0000E+00 0.9000E+01
#aMCatNLO 2  0  0  4  2 0.31219517D+02 0.00000000D+00  -5  6  0 0.00000000D+00 0.00000000D+00 0.00000000D+00 0.00000000D+00 0.00000000D+00
  <mgrwgt>
 0.8980759009D-02    1    2    0
 0.108073532965141D+04 0.000000000000000D+00 0.000000000000000D+00 0.108073532965141D+04
 0.108073532965141D+04 -.000000000000000D+00 -.000000000000000D+00 -.108073532965141D+04
 0.520602239457518D+03 -.421693271881062D+03 -.225990023855149D+03 0.162803517457016D+03
 0.818150756992061D+03 0.438967911070806D+03 0.204456383926047D+03 0.659450848273546D+03
 0.822717662853242D+03 -.172746391897442D+02 0.215336399291020D+02 -.822254365730562D+03
 0.000000000000000D+00 0.000000000000000D+00 0.000000000000000D+00 0.000000000000000D+00
 0.108073532965141D+04 0.000000000000000D+00 0.000000000000000D+00 0.108073532965141D+04
 0.108073532965141D+04 -.000000000000000D+00 -.000000000000000D+00 -.108073532965141D+04
 0.520402117045944D+03 -.421323546478481D+03 -.225817818286243D+03 0.163358946963845D+03
 0.576165972571796D+03 0.334678488472988D+03 0.143701411883766D+03 0.446438620109922D+03
 0.821835806954927D+03 -.166905559533085D+02 0.218056861161278D+02 -.821376911647893D+03
 0.243066762730154D+03 0.103335613958802D+03 0.603107202863489D+02 0.211579344574125D+03
0.143905383055D-01 0.000000000000D+00 0.000000000000D+00 0.209257011946D-03 0.106871187399D-05  6 2 -2 25 1 -1 21 2 0.14753385D+00 0.18737874D+00 0.25272259D+06 0.25272259D+06 0.25272259D+06 0.10901054D+01  1  2  1  3  6  4        1 0.898075900863D-02 0.100000000000D+01
  </mgrwgt>
  </event>
  <event>
  5     66 0.18881543E-05 0.33417101E+02 0.75467711E-02 0.92985380E-01
        2 -1    0    0  502    0 0.00000000E+00 0.00000000E+00 0.22883064E+04 0.22883064E+04 0.32000000E+00 0.0000E+00 0.9000E+01
       -2 -1    0    0    0  501 0.00000000E+00 0.00000000E+00 -.48226374E+03 0.48226385E+03 0.32000000E+00 0.0000E+00 0.9000E+01
       25  1    1    2    0    0 -.53828323E+03 -.27882812E+02 -.79092470E+01 0.55336592E+03 0.12500000E+03 0.0000E+00 0.9000E+01
        1  1    1    2  502    0 0.55238707E+03 -.24152645E+01 0.19759933E+04 0.20517522E+04 0.32000000E+00 0.0000E+00 0.9000E+01
       -1  1    1    2    0  501 -.14103842E+02 0.30298077E+02 -.16204142E+03 0.16545216E+03 0.32000000E+00 0.0000E+00 0.9000E+01
#aMCatNLO 1  0  0  2  1 0.21757260D+02 0.00000000D+00  -5  6  0 0.00000000D+00 0.00000000D+00 0.00000000D+00 0.00000000D+00 0.00000000D+00
  <mgrwgt>
 0.9429883927D-02    9    4    0
 0.105050815722371D+04 0.000000000000000D+00 0.000000000000000D+00 0.105050815722371D+04
 0.105050815722371D+04 0.000000000000000D+00 0.000000000000000D+00 -.105050815722371D+04
 0.736543264505895D+03 -.538287891392898D+03 -.278802590882559D+02 -.486147938000318D+03
 0.100704041101195D+04 0.552390479078958D+03 -.241527944484799D+01 0.842015032205030D+03
 0.357432638929574D+03 -.141025876860602D+02 0.302955385331039D+02 -.355867094204712D+03
 0.000000000000000D+00 -.000000000000000D+00 0.000000000000000D+00 -.000000000000000D+00
 0.105526887070186D+04 0.000000000000000D+00 0.000000000000000D+00 0.105526887070186D+04
 0.107572069863687D+04 0.000000000000000D+00 0.000000000000000D+00 -.107572069863687D+04
 0.735305844024594D+03 -.536163139094958D+03 -.351987913229899D+02 -.486147938000318D+03
 0.100871332372393D+04 0.555300408741677D+03 -.124382896837705D+02 0.842015032205030D+03
 0.357109798292742D+03 -.130710786294159D+02 0.267425915430975D+02 -.355867094204712D+03
 0.298606032974715D+02 -.606619101730245D+01 0.208944894636629D+02 -.204518279350146D+02
 0.105050815722371D+04 0.000000000000000D+00 0.000000000000000D+00 0.105050815722371D+04
 0.105050815722371D+04 0.000000000000000D+00 0.000000000000000D+00 -.105050815722371D+04
 0.736543264505895D+03 -.538287891392898D+03 -.278802590882559D+02 -.486147938000318D+03
 0.100704041101195D+04 0.552390479078958D+03 -.241527944484799D+01 0.842015032205030D+03
 0.000000000000000D+00 -.000000000000000D+00 0.000000000000000D+00 -.000000000000000D+00
 0.357432638929574D+03 -.141025876860602D+02 0.302955385331039D+02 -.355867094204712D+03
 0.105526887070186D+04 0.000000000000000D+00 0.000000000000000D+00 0.105526887070186D+04
 0.107572069863687D+04 0.000000000000000D+00 0.000000000000000D+00 -.107572069863687D+04
 0.735305844024594D+03 -.536163139094958D+03 -.351987913229899D+02 -.486147938000318D+03
 0.100871332372393D+04 0.555300408741677D+03 -.124382896837705D+02 0.842015032205030D+03
 0.298606032974715D+02 -.606619101730245D+01 0.208944894636629D+02 -.204518279350146D+02
 0.357109798292742D+03 -.130710786294159D+02 0.267425915430975D+02 -.355867094204712D+03
0.428159377172D-02 0.000000000000D+00 0.000000000000D+00 0.615661693802D-04 0.000000000000D+00  6 2 -2 25 1 -1 21 0 0.35204715D+00 0.74194432D-01 0.32440239D+06 0.32440239D+06 0.32440239D+06 0.10820481D+01  1  2  2  2  6  2       -2 0.426382418951D-02 0.100000000000D+01
0.172705965617D-02 0.000000000000D+00 -.164424474529D-04 0.615661693802D-04 0.000000000000D+00  6 2 -2 25 1 -1 21 2 0.35204715D+00 0.74194432D-01 0.32440239D+06 0.32440239D+06 0.32440239D+06 0.10820481D+01  1  2  3  2  6  2       -2 0.201369767554D-02 0.100000000000D+01
-.276277736524D-02 0.000000000000D+00 0.000000000000D+00 0.615661693802D-04 0.000000000000D+00  6 2 -2 25 1 -1 21 2 0.35204715D+00 0.74194432D-01 0.32440239D+06 0.32440239D+06 0.32440239D+06 0.10820481D+01  1  2 15  2  6  2       -2 -.322131221033D-02 0.100000000000D+01
0.146397397689D-08 0.000000000000D+00 0.000000000000D+00 0.615661693802D-04 0.000000000000D+00  6 2 -2 25 1 -1 21 2 0.35204715D+00 0.76140786D-01 0.33560504D+06 0.33560504D+06 0.33560504D+06 0.10809666D+01  1  2 12  2  6  2       -2 0.160500274206D-08 0.100000000000D+01
-.681452645780D-04 0.000000000000D+00 0.000000000000D+00 0.615661693802D-04 0.000000000000D+00  6 2 -2 25 1 -1 21 2 0.35204715D+00 0.74194432D-01 0.32440239D+06 0.32440239D+06 0.32440239D+06 0.10820481D+01  1  2  4  2  6  2       -2 -.794552523933D-04 0.100000000000D+01
-.328119118974D+00 0.000000000000D+00 -.388751360599D-01 0.615661693802D-04 0.000000000000D+00  6 2 -2 25 1 -1 21 2 0.35204715D+00 0.76213152D-01 0.32440239D+06 0.32440239D+06 0.32440239D+06 0.10820481D+01  1  2  5  2  6  2       -2 -.360515086589D+00 0.100000000000D+01
0.329058148193D+00 0.000000000000D+00 0.388611325603D-01 0.615661693802D-04 0.000000000000D+00  6 2 -2 25 1 -1 21 2 0.35204715D+00 0.74194432D-01 0.32440239D+06 0.32440239D+06 0.32440239D+06 0.10820481D+01  1  2  6  2  6  2       -2 0.383671534312D+00 0.100000000000D+01
0.527756800832D-10 0.000000000000D+00 0.000000000000D+00 0.615661693802D-04 0.000000000000D+00  6 2 21 25 1 2 -1 2 0.35204715D+00 0.76140786D-01 0.33560504D+06 0.33560504D+06 0.33560504D+06 0.10809666D+01  3  4 12  6  5  2       -2 0.557350816878D-09 0.100000000000D+01
-.157687417015D-02 0.000000000000D+00 -.188029399994D-03 0.615661693802D-04 0.000000000000D+00  6 2 21 25 1 2 -1 2 0.35204715D+00 0.76213152D-01 0.32440239D+06 0.32440239D+06 0.32440239D+06 0.10820481D+01  3  4  5  6  5  2       -2 -.167033203605D-01 0.100000000000D+01
  </mgrwgt>
  </event>
  <event>
  5     66 0.18881543E-05 0.41420227E+02 0.75467711E-02 0.94132737E-01
        2 -1    0    0  502    0 0.00000000E+00 0.00000000E+00 0.95323757E+03 0.95323763E+03 0.32000000E+00 0.0000E+00 0.9000E+01
       -2 -1    0    0    0  501 0.00000000E+00 0.00000000E+00 -.24293512E+04 0.24293512E+04 0.32000000E+00 0.0000E+00 0.9000E+01
       25  1    1    2    0    0 -.44828937E+03 -.18995914E+03 -.49704657E+03 0.70691451E+03 0.12500000E+03 0.0000E+00 0.9000E+01
        1  1    1    2  502    0 0.44402297E+03 0.23115679E+03 0.77418744E+03 0.92193066E+03 0.32000000E+00 0.0000E+00 0.9000E+01
       -1  1    1    2    0  501 0.42663981E+01 -.41197650E+02 -.17532545E+04 0.17537437E+04 0.32000000E+00 0.0000E+00 0.9000E+01
#aMCatNLO 1  0  0  2  5 0.43880447D+01 0.00000000D+00  -5  6  0 0.00000000D+00 0.00000000D+00 0.00000000D+00 0.00000000D+00 0.00000000D+00
  <mgrwgt>
 0.9477577630D-02    7    4    0
 0.152175850695181D+04 0.000000000000000D+00 0.000000000000000D+00 0.152175850695181D+04
 0.152175850695181D+04 0.000000000000000D+00 0.000000000000000D+00 -.152175850695181D+04
 0.544578363814655D+03 -.448285629459029D+03 -.189954773307050D+03 -.209517953534861D+03
 0.140011095460359D+04 0.444018866512060D+03 0.231154651052989D+03 0.130756470535072D+04
 0.109882769548536D+04 0.426676294696904D+01 -.411998777459386D+02 -.109804675181585D+04
 0.000000000000000D+00 -.000000000000000D+00 -.000000000000000D+00 -.000000000000000D+00
 0.167148608755965D+04 0.000000000000000D+00 0.000000000000000D+00 0.167148608755965D+04
 0.183212102275169D+04 0.000000000000000D+00 0.000000000000000D+00 -.183212102275169D+04
 0.510866872945141D+03 -.431832000016610D+03 -.122406342895151D+03 -.209517953534861D+03
 0.145593502304549D+04 0.488542561868357D+03 0.413941418433436D+03 0.130756470535072D+04
 0.110324196703674D+04 0.385954395770918D+02 0.997324455811129D+02 -.109804675181585D+04
 0.433563247283970D+03 -.953060014288385D+02 -.391267521119397D+03 -.160634935192034D+03
 0.152175850695181D+04 0.000000000000000D+00 0.000000000000000D+00 0.152175850695181D+04
 0.152175850695181D+04 0.000000000000000D+00 0.000000000000000D+00 -.152175850695181D+04
 0.544578363814655D+03 -.448285629459029D+03 -.189954773307050D+03 -.209517953534861D+03
 0.140011095460359D+04 0.444018866512060D+03 0.231154651052989D+03 0.130756470535072D+04
 0.000000000000000D+00 -.000000000000000D+00 -.000000000000000D+00 -.000000000000000D+00
 0.109882769548536D+04 0.426676294696904D+01 -.411998777459386D+02 -.109804675181585D+04
 0.167148608755965D+04 0.000000000000000D+00 0.000000000000000D+00 0.167148608755965D+04
 0.183212102275169D+04 0.000000000000000D+00 0.000000000000000D+00 -.183212102275169D+04
 0.510866872945141D+03 -.431832000016610D+03 -.122406342895151D+03 -.209517953534861D+03
 0.145593502304549D+04 0.488542561868357D+03 0.413941418433436D+03 0.130756470535072D+04
 0.433563247283970D+03 -.953060014288385D+02 -.391267521119397D+03 -.160634935192034D+03
 0.110324196703674D+04 0.385954395770918D+02 0.997324455811129D+02 -.109804675181585D+04
0.131125490372D+00 0.000000000000D+00 0.000000000000D+00 0.106555135998D-02 0.000000000000D+00  6 2 -2 25 1 -1 21 0 0.14665194D+00 0.37374634D+00 0.27283169D+06 0.27283169D+06 0.27283169D+06 0.10876152D+01  1  2  2  2  6  2       -2 0.410378735205D-02 0.100000000000D+01
0.695481549926D-01 0.000000000000D+00 -.503556409165D-03 0.106555135998D-02 0.000000000000D+00  6 2 -2 25 1 -1 21 2 0.14665194D+00 0.37374634D+00 0.27283169D+06 0.27283169D+06 0.27283169D+06 0.10876152D+01  1  2  3  2  6  2       -2 0.257474301892D-02 0.100000000000D+01
-.915097913758D-01 0.000000000000D+00 0.000000000000D+00 0.106555135998D-02 0.000000000000D+00  6 2 -2 25 1 -1 21 2 0.14665194D+00 0.37374634D+00 0.27283169D+06 0.27283169D+06 0.27283169D+06 0.10876152D+01  1  2 15  2  6  2       -2 -.338778500354D-02 0.100000000000D+01
-.108579552946D-02 0.000000000000D+00 0.000000000000D+00 0.106555135998D-02 0.000000000000D+00  6 2 -2 25 1 -1 21 2 0.14665194D+00 0.37374634D+00 0.27283169D+06 0.27283169D+06 0.27283169D+06 0.10876152D+01  1  2  4  2  6  2       -2 -.401972483634D-04 0.100000000000D+01
-.190174771502D+00 0.000000000000D+00 -.112157595626D+00 0.106555135998D-02 0.000000000000D+00  6 2 -2 25 1 -1 21 2 0.14665194D+00 0.46404902D+00 0.27283169D+06 0.27283169D+06 0.27283169D+06 0.10876152D+01  1  2  5  2  6  2       -2 -.135560525092D-02 0.100000000000D+01
0.212038474843D+00 0.000000000000D+00 0.109581467136D+00 0.106555135998D-02 0.000000000000D+00  6 2 -2 25 1 -1 21 2 0.14665194D+00 0.37374634D+00 0.27283169D+06 0.27283169D+06 0.27283169D+06 0.10876152D+01  1  2  6  2  6  2       -2 0.784987873371D-02 0.100000000000D+01
-.430117330458D-02 0.000000000000D+00 -.340823025840D-02 0.106555135998D-02 0.000000000000D+00  6 2 21 25 1 2 -1 2 0.14665194D+00 0.46404902D+00 0.27283169D+06 0.27283169D+06 0.27283169D+06 0.10876152D+01  3  4  5  6  5  2       -2 -.267243971536D-03 0.100000000000D+01
  </mgrwgt>
  </event>
  <event>
  5     66 0.18881543E-05 0.19887794E+03 0.75467711E-02 0.94637508E-01
        2 -1    0    0  502    0 0.00000000E+00 0.00000000E+00 0.12783243E+04 0.12783243E+04 0.32000000E+00 0.0000E+00 0.9000E+01
       -2 -1    0    0    0  501 0.00000000E+00 0.00000000E+00 -.25937371E+03 0.25937391E+03 0.32000000E+00 0.0000E+00 0.9000E+01
       25  1    1    2    0    0 0.71888453E+02 0.47264694E+03 0.74811756E+03 0.89658685E+03 0.12500000E+03 0.0000E+00 0.9000E+01
        1  1    1    2  502    0 -.10572620E+03 -.16866026E+03 0.26974964E+03 0.33524511E+03 0.32000000E+00 0.0000E+00 0.9000E+01
       -1  1    1    2    0  501 0.33837745E+02 -.30398668E+03 0.10833596E+01 0.30586627E+03 0.32000000E+00 0.0000E+00 0.9000E+01
#aMCatNLO 1  0  0  1  2 0.11493157D+03 0.00000000D+00  -5  6  0 0.00000000D+00 0.00000000D+00 0.00000000D+00 0.00000000D+00 0.00000000D+00
  <mgrwgt>
 0.4174900930D-02    1    2    0
 0.575815850610722D+03 0.000000000000000D+00 0.000000000000000D+00 0.575815850610722D+03
 0.575815850610722D+03 0.000000000000000D+00 0.000000000000000D+00 -.575815850610722D+03
 0.535251156205124D+03 0.718028336337886D+02 0.472606486799478D+03 0.205806370008644D+03
 0.208769539227624D+03 -.105630262983752D+03 -.168507217924225D+03 0.635002799894259D+02
 0.407611005788697D+03 0.338274293499630D+02 -.304099268875253D+03 -.269306649998070D+03
 0.000000000000000D+00 -.000000000000000D+00 -.000000000000000D+00 -.000000000000000D+00
 0.813808348198949D+03 0.000000000000000D+00 0.000000000000000D+00 0.813808348198949D+03
 0.450327952633867D+04 0.000000000000000D+00 0.000000000000000D+00 -.450327952633867D+04
 0.973264737399541D+03 0.523802390463658D+03 0.784151798361657D+03 0.205806370008644D+03
 0.119316391116148D+03 -.732523633723511D+01 -.100749474156691D+03 0.635002799894259D+02
 0.410636595517092D+03 0.279000552639737D+03 -.135111189290177D+03 -.269306649998070D+03
 0.381387015050483D+04 -.795477706766159D+03 -.548291134914788D+03 -.368947117813972D+04
0.274397398560D-03 0.000000000000D+00 0.000000000000D+00 0.348073145735D-07 0.000000000000D+00  6 2 -2 25 1 -1 21 2 0.19666529D+00 0.39903666D-01 0.24947809D+06 0.24947809D+06 0.24947809D+06 0.10905274D+01  1  2 14  1  6  1        2 0.417490093014D-02 0.100000000000D+01
  </mgrwgt>
  </event>
  <event>
  5     66 0.18881543E-05 0.16886446E+03 0.75467711E-02 0.92363208E-01
        2 -1    0    0  502    0 0.00000000E+00 0.00000000E+00 0.90788010E+03 0.90788016E+03 0.32000000E+00 0.0000E+00 0.9000E+01
       -2 -1    0    0    0  501 0.00000000E+00 0.00000000E+00 -.10217715E+04 0.10217715E+04 0.32000000E+00 0.0000E+00 0.9000E+01
       25  1    1    2    0    0 0.15345366E+03 0.55046078E+03 0.35922813E+03 0.68645826E+03 0.12500000E+03 0.0000E+00 0.9000E+01
        1  1    1    2  502    0 -.13546709E+02 -.45595292E+03 0.23646311E+03 0.51380101E+03 0.32000000E+00 0.0000E+00 0.9000E+01
       -1  1    1    2    0  501 -.13990695E+03 -.94507859E+02 -.70958261E+03 0.72939240E+03 0.32000000E+00 0.0000E+00 0.9000E+01
#aMCatNLO 1  0  0  2  1 0.18530847D+02 0.00000000D+00  -5  6  0 0.00000000D+00 0.00000000D+00 0.00000000D+00 0.00000000D+00 0.00000000D+00
  <mgrwgt>
 0.1100104545D-02    9    4    0
 0.963143857526354D+03 0.000000000000000D+00 0.000000000000000D+00 0.963143857526354D+03
 0.963143857526354D+03 0.000000000000000D+00 0.000000000000000D+00 -.963143857526354D+03
 0.708921848007457D+03 0.153472062831166D+03 0.550364932433909D+03 0.400611973934471D+03
 0.528546916498694D+03 -.135433234538763D+02 -.455838984945633D+03 0.267187651536962D+03
 0.688818950546557D+03 -.139928739377290D+03 -.945259474882764D+02 -.667799625471433D+03
 0.000000000000000D+00 0.000000000000000D+00 -.000000000000000D+00 -.000000000000000D+00
 0.966823496266838D+03 0.000000000000000D+00 0.000000000000000D+00 0.966823496266838D+03
 0.986805023898852D+03 0.000000000000000D+00 0.000000000000000D+00 -.986805023898852D+03
 0.713867577502839D+03 0.152159214209347D+03 0.557081267034974D+03 0.400611973934471D+03
 0.524292655035822D+03 -.145148087318119D+02 -.450869013481913D+03 0.267187651536962D+03
 0.688216613629334D+03 -.141199369598607D+03 -.880255958264313D+02 -.667799625471433D+03
 0.272516739976948D+02 0.355496412107205D+01 -.181866577266293D+02 -.199815276320146D+02
 0.963143857526354D+03 0.000000000000000D+00 0.000000000000000D+00 0.963143857526354D+03
 0.963143857526354D+03 0.000000000000000D+00 0.000000000000000D+00 -.963143857526354D+03
 0.708921848007457D+03 0.153472062831166D+03 0.550364932433909D+03 0.400611973934471D+03
 0.528546916498694D+03 -.135433234538763D+02 -.455838984945633D+03 0.267187651536962D+03
 0.000000000000000D+00 0.000000000000000D+00 -.000000000000000D+00 -.000000000000000D+00
 0.688818950546557D+03 -.139928739377290D+03 -.945259474882764D+02 -.667799625471433D+03
 0.966823496266838D+03 0.000000000000000D+00 0.000000000000000D+00 0.966823496266838D+03
 0.986805023898852D+03 0.000000000000000D+00 0.000000000000000D+00 -.986805023898852D+03
 0.713867577502839D+03 0.152159214209347D+03 0.557081267034974D+03 0.400611973934471D+03
 0.524292655035822D+03 -.145148087318119D+02 -.450869013481913D+03 0.267187651536962D+03
 0.272516739976948D+02 0.355496412107205D+01 -.181866577266293D+02 -.199815276320146D+02
 0.688216613629334D+03 -.141199369598607D+03 -.880255958264313D+02 -.667799625471433D+03
0.329904013327D-03 0.000000000000D+00 0.000000000000D+00 0.875782418972D-06 0.000000000000D+00  6 2 -2 25 1 -1 21 0 0.13967387D+00 0.15719562D+00 0.36589243D+06 0.36589243D+06 0.36589243D+06 0.10782291D+01  1  2  2  2  6  2       -2 0.305244272832D-03 0.100000000000D+01
0.422138817571D-04 0.000000000000D+00 -.126691827690D-05 0.875782418972D-06 0.000000000000D+00  6 2 -2 25 1 -1 21 2 0.13967387D+00 0.15719562D+00 0.36589243D+06 0.36589243D+06 0.36589243D+06 0.10782291D+01  1  2  3  2  6  2       -2 0.454085169668D-04 0.100000000000D+01
-.206824143230D-03 0.000000000000D+00 0.000000000000D+00 0.875782418972D-06 0.000000000000D+00  6 2 -2 25 1 -1 21 2 0.13967387D+00 0.15719562D+00 0.36589243D+06 0.36589243D+06 0.36589243D+06 0.10782291D+01  1  2 15  2  6  2       -2 -.222476048780D-03 0.100000000000D+01
0.149379952505D-07 0.000000000000D+00 0.000000000000D+00 0.875782418972D-06 0.000000000000D+00  6 2 -2 25 1 -1 21 2 0.13967387D+00 0.16135329D+00 0.37631173D+06 0.37631173D+06 0.37631173D+06 0.10773441D+01  1  2 12  2  6  2       -2 0.148758697409D-07 0.100000000000D+01
-.823294132911D-04 0.000000000000D+00 0.000000000000D+00 0.875782418972D-06 0.000000000000D+00  6 2 -2 25 1 -1 21 2 0.13967387D+00 0.15719562D+00 0.36589243D+06 0.36589243D+06 0.36589243D+06 0.10782291D+01  1  2  4  2  6  2       -2 -.885598861010D-04 0.100000000000D+01
-.260670355669D-01 0.000000000000D+00 -.279059694405D-02 0.875782418972D-06 0.000000000000D+00  6 2 -2 25 1 -1 21 2 0.13967387D+00 0.16137231D+00 0.36589243D+06 0.36589243D+06 0.36589243D+06 0.10782291D+01  1  2  5  2  6  2       -2 -.260318241074D-01 0.100000000000D+01
0.261321875572D-01 0.000000000000D+00 0.278963773680D-02 0.875782418972D-06 0.000000000000D+00  6 2 -2 25 1 -1 21 2 0.13967387D+00 0.15719562D+00 0.36589243D+06 0.36589243D+06 0.36589243D+06 0.10782291D+01  1  2  6  2  6  2       -2 0.281098025739D-01 0.100000000000D+01
0.549892980557D-09 0.000000000000D+00 0.000000000000D+00 0.875782418972D-06 0.000000000000D+00  6 2 21 25 1 2 -1 2 0.13967387D+00 0.16135329D+00 0.37631173D+06 0.37631173D+06 0.37631173D+06 0.10773441D+01  3  4 12  6  5  2       -2 0.454759016981D-08 0.100000000000D+01
-.122575785274D-03 0.000000000000D+00 -.131968425200D-04 0.875782418972D-06 0.000000000000D+00  6 2 21 25 1 2 -1 2 0.13967387D+00 0.16137231D+00 0.36589243D+06 0.36589243D+06 0.36589243D+06 0.10782291D+01  3  4  5  6  5  2       -2 -.101751019967D-02 0.100000000000D+01
  </mgrwgt>
  </event>
  <event>
  5     66 -.18881543E-05 0.62191810E+02 0.75467711E-02 0.94982410E-01
        2 -1    0    0  502    0 0.00000000E+00 0.00000000E+00 0.15945248E+04 0.15945248E+04 0.32000000E+00 0.0000E+00 0.9000E+01
       -2 -1    0    0    0  501 0.00000000E+00 0.00000000E+00 -.59963999E+03 0.59964008E+03 0.32000000E+00 0.0000E+00 0.9000E+01
       25  1    1    2    0    0 -.40718024E+03 -.24248901E+03 0.33462293E+03 0.59345950E+03 0.12500000E+03 0.0000E+00 0.9000E+01
        1  1    1    2  502    0 0.61405748E+02 0.99161656E+01 0.10370448E+04 0.10389086E+04 0.32000000E+00 0.0000E+00 0.9000E+01
       -1  1    1    2    0  501 0.34577449E+03 0.23257284E+03 -.37678298E+03 0.56179680E+03 0.32000000E+00 0.0000E+00 0.9000E+01
#aMCatNLO 1  0  0  4  1 0.13128301D+01 0.00000000D+00  -5  6  0 0.00000000D+00 0.00000000D+00 0.00000000D+00 0.00000000D+00 0.00000000D+00
  <mgrwgt>
 -.3231628085D-01    9    2    0
 0.977824598446643D+03 0.000000000000000D+00 0.000000000000000D+00 0.977824598446643D+03
 0.977824598446643D+03 -.000000000000000D+00 -.000000000000000D+00 -.977824598446643D+03
 0.495675152886598D+03 -.407224451196537D+03 -.242521972758097D+03 0.736219822223775D+02
 0.637950295036706D+03 0.613964234243153D+02 0.991465980670529D+01 0.634911614044853D+03
 0.822023748969983D+03 0.345828027772222D+03 0.232607312951392D+03 -.708533596267230D+03
 0.000000000000000D+00 0.000000000000000D+00 0.000000000000000D+00 0.000000000000000D+00
 0.977824598446643D+03 0.000000000000000D+00 0.000000000000000D+00 0.977824598446643D+03
 0.977824598446643D+03 -.000000000000000D+00 -.000000000000000D+00 -.977824598446643D+03
 0.495675482390924D+03 -.407223932661392D+03 -.242521889021956D+03 0.736273444888980D+02
 0.594441273403515D+03 0.585129706747295D+02 0.932136317418551D+01 0.591480998830043D+03
 0.822016485101565D+03 0.345828887702715D+03 0.232607451818085D+03 -.708524703569136D+03
 0.435159559972836D+02 0.288207428394737D+01 0.593074029685638D+00 0.434163602501942D+02
0.142027381805D-04 0.000000000000D+00 0.000000000000D+00 0.116458019597D-03 0.000000000000D+00  6 2 -2 25 1 -1 21 0 0.24531151D+00 0.92252316D-01 0.23481105D+06 0.23481105D+06 0.23481105D+06 0.10925129D+01  1  2  2  3  6  4        1 0.211367312450D-04 0.100000000000D+01
0.472353629134D-05 0.000000000000D+00 -.545422542798D-07 0.116458019597D-03 0.000000000000D+00  6 2 -2 25 1 -1 21 2 0.24531151D+00 0.92252316D-01 0.23481105D+06 0.23481105D+06 0.23481105D+06 0.10925129D+01  1  2  3  3  6  4        1 0.839046722522D-05 0.100000000000D+01
-.884277989397D-05 0.000000000000D+00 0.000000000000D+00 0.116458019597D-03 0.000000000000D+00  6 2 -2 25 1 -1 21 2 0.24531151D+00 0.92252316D-01 0.23481105D+06 0.23481105D+06 0.23481105D+06 0.10925129D+01  1  2 15  3  6  4        1 -.157075229879D-04 0.100000000000D+01
0.116665844915D-12 0.000000000000D+00 0.000000000000D+00 0.116458019597D-03 0.000000000000D+00  6 2 -2 25 1 -1 21 2 0.24531151D+00 0.92252316D-01 0.23481190D+06 0.23481190D+06 0.23481190D+06 0.10925128D+01  1  2 12  3  6  4        1 0.207234679632D-12 0.100000000000D+01
0.296460762187D-05 0.000000000000D+00 0.000000000000D+00 0.116458019597D-03 0.000000000000D+00  6 2 -2 25 1 -1 21 2 0.24531151D+00 0.92252316D-01 0.23481190D+06 0.23481190D+06 0.23481190D+06 0.10925128D+01  1  2 12  3  6  4        1 0.526606146986D-05 0.100000000000D+01
-.228888308221D+00 0.000000000000D+00 0.000000000000D+00 0.116458019597D-03 0.000000000000D+00  6 2 -2 25 1 -1 21 2 0.24531151D+00 0.92252316D-01 0.23481105D+06 0.23481105D+06 0.23481105D+06 0.10925129D+01  1  2  4  3  6  4        1 -.406576710734D+00 0.100000000000D+01
-.102338022256D+00 0.000000000000D+00 0.000000000000D+00 0.116458019597D-03 0.000000000000D+00  6 2 -2 25 1 -1 21 2 0.24531151D+00 0.92252316D-01 0.23481105D+06 0.23481105D+06 0.23481105D+06 0.10925129D+01  1  2  5  3  6  4        1 -.181784105948D+00 0.100000000000D+01
0.109556209088D+00 0.000000000000D+00 -.000000000000D+00 0.116458019597D-03 0.000000000000D+00  6 2 -2 25 1 -1 21 2 0.24531151D+00 0.92252316D-01 0.23481105D+06 0.23481105D+06 0.23481105D+06 0.10925129D+01  1  2  6  3  6  4        1 0.194605847182D+00 0.100000000000D+01
0.203466540527D+00 0.000000000000D+00 0.000000000000D+00 0.116458019597D-03 0.782885725775D-03  6 2 -2 25 1 -1 21 2 0.24531151D+00 0.92252316D-01 0.23481190D+06 0.23481190D+06 0.23481190D+06 0.10925128D+01  1  2 11  3  6  4        1 0.361419602908D+00 0.100000000000D+01
  </mgrwgt>
  </event>
  <event>
  5     66 0.18881543E-05 0.34797223E+02 0.75467711E-02 0.92697352E-01
        2 -1    0    0  502    0 0.00000000E+00 0.00000000E+00 0.95975008E+03 0.95975013E+03 0.32000000E+00 0.0000E+00 0.9000E+01
       -2 -1    0    0    0  501 -.00000000E+00 -.00000000E+00 -.16709051E+04 0.16709051E+04 0.32000000E+00 0.0000E+00 0.9000E+01
       25  1    1    2    0    0 0.13095291E+03 -.53659744E+03 -.48705045E+02 0.56840361E+03 0.12500000E+03 0.0000E+00 0.9000E+01
        1  1    1    2  502    0 -.13083659E+03 0.57139104E+03 0.57688000E+03 0.82243332E+03 0.32000000E+00 0.0000E+00 0.9000E+01
       -1  1    1    2    0  501 -.11631656E+00 -.34793598E+02 -.12393299E+04 0.12398183E+04 0.32000000E+00 0.0000E+00 0.9000E+01
#aMCatNLO 1  0  0  5  4 0.11570979D+02 0.00000000D+00  -5  6  0 0.00000000D+00 0.00000000D+00 0.00000000D+00 0.00000000D+00 0.00000000D+00
  <mgrwgt>
 0.1572246641D-02    7    2    0
 0.126635357499395D+04 0.000000000000000D+00 0.000000000000000D+00 0.126635357499395D+04
 0.126635357499395D+04 -.000000000000000D+00 -.000000000000000D+00 -.126635357499395D+04
 0.576698395027081D+03 0.130946533161759D+03 -.536565988112797D+03 0.109114548435421D+03
 0.101617087998241D+04 -.130830175733329D+03 0.571363017030964D+03 0.830078927097351D+03
 0.939837874978398D+03 -.116357428429618D+00 -.347970289181693D+02 -.939193475532772D+03
 0.000000000000000D+00 -.000000000000000D+00 0.000000000000000D+00 0.000000000000000D+00
 0.126635357499395D+04 0.000000000000000D+00 0.000000000000000D+00 0.126635357499395D+04
 0.126635357499395D+04 -.000000000000000D+00 -.000000000000000D+00 -.126635357499395D+04
 0.576670962049676D+03 0.130946511179640D+03 -.536572561929738D+03 0.108937117023251D+03
 0.101590902550572D+04 -.130830214462833D+03 0.571351434859800D+03 0.829766317086464D+03
 0.844192470564625D+03 0.635241765397303D+01 -.216576237370574D+02 -.843890704701751D+03
 0.959346918678718D+02 -.646871437078007D+01 -.131212491930077D+02 -.948127294079638D+02
0.457416117708D-03 0.000000000000D+00 0.000000000000D+00 0.186594742847D-03 0.000000000000D+00  6 2 -2 25 1 -1 21 0 0.14765386D+00 0.25706232D+00 0.35237838D+06 0.35237838D+06 0.35237838D+06 0.10794188D+01  1  2  2  4  6  5       -1 0.809241245958D-04 0.100000000000D+01
0.300013355164D-03 0.000000000000D+00 -.175659833243D-05 0.186594742847D-03 0.000000000000D+00  6 2 -2 25 1 -1 21 2 0.14765386D+00 0.25706232D+00 0.35237838D+06 0.35237838D+06 0.35237838D+06 0.10794188D+01  1  2  3  4  6  5       -1 0.618425082460D-04 0.100000000000D+01
-.342342408034D-03 0.000000000000D+00 0.000000000000D+00 0.186594742847D-03 0.000000000000D+00  6 2 -2 25 1 -1 21 2 0.14765386D+00 0.25706232D+00 0.35237838D+06 0.35237838D+06 0.35237838D+06 0.10794188D+01  1  2 15  4  6  5       -1 -.705679024864D-04 0.100000000000D+01
0.813395631270D-09 0.000000000000D+00 0.000000000000D+00 0.186594742847D-03 0.000000000000D+00  6 2 -2 25 1 -1 21 2 0.14765386D+00 0.25706232D+00 0.35380264D+06 0.35380264D+06 0.35380264D+06 0.10792911D+01  1  2 12  4  6  5       -1 0.167578986760D-09 0.100000000000D+01
-.456004640757D-02 0.000000000000D+00 0.000000000000D+00 0.186594742847D-03 0.000000000000D+00  6 2 -2 25 1 -1 21 2 0.14765386D+00 0.25706232D+00 0.35237838D+06 0.35237838D+06 0.35237838D+06 0.10794188D+01  1  2  4  4  6  5       -1 -.939973846859D-03 0.100000000000D+01
-.110364071710D+00 0.000000000000D+00 0.000000000000D+00 0.186594742847D-03 0.000000000000D+00  6 2 -2 25 1 -1 21 2 0.14765386D+00 0.25706232D+00 0.35237838D+06 0.35237838D+06 0.35237838D+06 0.10794188D+01  1  2  5  4  6  5       -1 -.227496239661D-01 0.100000000000D+01
0.122201221992D+00 0.000000000000D+00 -.000000000000D+00 0.186594742847D-03 0.000000000000D+00  6 2 -2 25 1 -1 21 2 0.14765386D+00 0.25706232D+00 0.35237838D+06 0.35237838D+06 0.35237838D+06 0.10794188D+01  1  2  6  4  6  5       -1 0.251896455563D-01 0.100000000000D+01
  </mgrwgt>
  </event>
  <event>
  6     66 0.18881543E-05 0.21242002E+02 0.75467711E-02 0.94961767E-01
        2 -1    0    0  502    0 0.00000000E+00 0.00000000E+00 0.16650446E+04 0.16650446E+04 0.32000000E+00 0.0000E+00 0.9000E+01
       -2 -1    0    0    0  501 0.00000000E+00 0.00000000E+00 -.24478985E+03 0.24479006E+03 0.32000000E+00 0.0000E+00 0.9000E+01
       25  1    1    2    0    0 0.16213393E+03 -.44873623E+03 0.51877294E+03 0.71582259E+03 0.12500000E+03 0.0000E+00 0.9000E+01
        1  1    1    2  502    0 -.30031154E+01 0.68926352E+01 0.65593411E+03 0.65597727E+03 0.32000000E+00 0.0000E+00 0.9000E+01
       -1  1    1    2    0  503 -.14373521E+03 0.41269295E+03 0.25196384E+03 0.50444143E+03 0.32000000E+00 0.0000E+00 0.9000E+01
       21  1    1    2  503  501 -.15395610E+02 0.29150648E+02 -.64161598E+01 0.33593373E+02 0.75000000E+00 0.0000E+00 0.9000E+01
#aMCatNLO 2  0  0  5  4 0.11570979D+02 0.00000000D+00  -5  6  0 0.00000000D+00 0.00000000D+00 0.00000000D+00 0.00000000D+00 0.00000000D+00
  <mgrwgt>
 0.1279368946D-01    1    2    0
 0.638424810630589D+03 0.000000000000000D+00 0.000000000000000D+00 0.638424810630589D+03
 0.638424810630589D+03 -.000000000000000D+00 -.000000000000000D+00 -.638424810630589D+03
 0.496440692367003D+03 0.163133697464865D+03 -.451512610135352D+03 -.187648788440874D+02
 0.252093919038677D+03 -.250899359626931D+01 0.552151492502717D+01 0.252020955161164D+03
 0.528315009855499D+03 -.160624703868596D+03 0.445991095210324D+03 -.233256076317077D+03
 0.000000000000000D+00 0.000000000000000D+00 0.000000000000000D+00 -.000000000000000D+00
 0.638424810630589D+03 0.000000000000000D+00 0.000000000000000D+00 0.638424810630589D+03
 0.638424810630589D+03 -.000000000000000D+00 -.000000000000000D+00 -.638424810630589D+03
 0.493730163782440D+03 0.162164303519841D+03 -.448820987633839D+03 -.201726139095902D+02
 0.251417470377996D+03 -.300193972684848D+01 0.689023081593119D+01 0.251305108361231D+03
 0.474268210176393D+03 -.143750534243408D+03 0.412751880338381D+03 -.184124969425076D+03
 0.574337769243501D+02 -.154118295495845D+02 0.291788764795267D+02 -.470075250265646D+02
0.122694224250D-02 0.000000000000D+00 0.000000000000D+00 0.124157619063D-04 0.225341136199D-06  6 2 -2 25 1 -1 21 2 0.25616072D+00 0.37659995D-01 0.23566195D+06 0.23566195D+06 0.23566195D+06 0.10923941D+01  1  2  1  4  6  5       -1 0.127936894616D-01 0.100000000000D+01
  </mgrwgt>
  </event>
  <event>
  5     66 0.18881543E-05 0.88244859E+02 0.75467711E-02 0.94652065E-01
        2 -1    0    0  502    0 0.00000000E+00 0.00000000E+00 0.79064940E+03 0.79064947E+03 0.32000000E+00 0.0000E+00 0.9000E+01
       -2 -1    0    0    0  501 0.00000000E+00 0.00000000E+00 -.92737081E+03 0.92737086E+03 0.32000000E+00 0.0000E+00 0.9000E+01
       25  1    1    2    0    0 -.35409879E+03 -.28545881E+03 0.30820818E+03 0.56346249E+03 0.12500000E+03 0.0000E+00 0.9000E+01
        1  1    1    2  502    0 -.23686942E+02 0.85058853E+02 0.29061374E+03 0.30373101E+03 0.32000000E+00 0.0000E+00 0.9000E+01
       -1  1    1    2    0  501 0.37778574E+03 0.20039996E+03 -.73554333E+03 0.85082683E+03 0.32000000E+00 0.0000E+00 0.9000E+01
#aMCatNLO 1  0  0  1  2 0.12407738D+02 0.00000000D+00  -5  6  0 0.00000000D+00 0.00000000D+00 0.00000000D+00 0.00000000D+00 0.00000000D+00
  <mgrwgt>
 0.1338574418D-01    9    2    0
 0.856285744263425D+03 0.000000000000000D+00 0.000000000000000D+00 0.856285744263425D+03
 0.856285744263425D+03 0.000000000000000D+00 0.000000000000000D+00 -.856285744263425D+03
 0.590011207225961D+03 -.354178621585377D+03 -.285453828032990D+03 0.354347062532526D+03
 0.327710346994564D+03 -.236733807872399D+02 0.850101537871276D+02 0.315605634174184D+03
 0.794849934306326D+03 0.377852002372617D+03 0.200443674245862D+03 -.669952696706710D+03
 0.000000000000000D+00 0.000000000000000D+00 0.000000000000000D+00 0.000000000000000D+00
 0.863659601167226D+03 0.000000000000000D+00 0.000000000000000D+00 0.863659601167226D+03
 0.861543693933061D+03 0.000000000000000D+00 0.000000000000000D+00 -.861543693933061D+03
 0.592339352755023D+03 -.354603808954769D+03 -.289715734421829D+03 0.354347062532526D+03
 0.327123110504026D+03 -.239088667121485D+02 0.826497380266922D+02 0.315605634174184D+03
 0.793153972281967D+03 0.377280937219456D+03 0.194719547896145D+03 -.669952696706710D+03
 0.125868595592705D+02 0.123173844746131D+01 0.123464484989917D+02 0.211590723416468D+01
0.282517226248D-02 0.000000000000D+00 0.000000000000D+00 0.965829093783D-05 0.000000000000D+00  6 2 -2 25 1 -1 21 0 0.12163838D+00 0.14267244D+00 0.24390002D+06 0.24390002D+06 0.24390002D+06 0.10912671D+01  1  2  2  1  6  1        2 0.418300896831D-02 0.100000000000D+01
0.402490709729D-03 0.000000000000D+00 -.108494053729D-04 0.965829093783D-05 0.000000000000D+00  6 2 -2 25 1 -1 21 2 0.12163838D+00 0.14267244D+00 0.24390002D+06 0.24390002D+06 0.24390002D+06 0.10912671D+01  1  2  3  1  6  1        2 0.709678827758D-03 0.100000000000D+01
-.181323185545D-02 0.000000000000D+00 0.000000000000D+00 0.965829093783D-05 0.000000000000D+00  6 2 -2 25 1 -1 21 2 0.12163838D+00 0.14267244D+00 0.24390002D+06 0.24390002D+06 0.24390002D+06 0.10912671D+01  1  2 15  1  6  1        2 -.319712288142D-02 0.100000000000D+01
0.272857010024D-08 0.000000000000D+00 0.000000000000D+00 0.965829093783D-05 0.000000000000D+00  6 2 -2 25 1 -1 21 2 0.12305656D+00 0.14267244D+00 0.24883866D+06 0.24883866D+06 0.24883866D+06 0.10906113D+01  1  2 12  1  6  1        2 0.473007482298D-08 0.100000000000D+01
-.353233951169D-04 0.000000000000D+00 0.000000000000D+00 0.965829093783D-05 0.000000000000D+00  6 2 -2 25 1 -1 21 2 0.12163838D+00 0.14267244D+00 0.24390002D+06 0.24390002D+06 0.24390002D+06 0.10912671D+01  1  2  4  1  6  1        2 -.622828428907D-04 0.100000000000D+01
-.419068211820D+00 0.000000000000D+00 -.519526275919D-01 0.965829093783D-05 0.000000000000D+00  6 2 -2 25 1 -1 21 2 0.12325070D+00 0.14267244D+00 0.24390002D+06 0.24390002D+06 0.24390002D+06 0.10912671D+01  1  2  5  1  6  1        2 -.726574547600D+00 0.100000000000D+01
0.419720435208D+00 0.000000000000D+00 0.519481237688D-01 0.965829093783D-05 0.000000000000D+00  6 2 -2 25 1 -1 21 2 0.12163838D+00 0.14267244D+00 0.24390002D+06 0.24390002D+06 0.24390002D+06 0.10912671D+01  1  2  6  1  6  1        2 0.740058588297D+00 0.100000000000D+01
0.205609220534D-09 0.000000000000D+00 0.000000000000D+00 0.965829093783D-05 0.000000000000D+00  6 21 -2 25 1 -1 -2 2 0.12305656D+00 0.14267244D+00 0.24883866D+06 0.24883866D+06 0.24883866D+06 0.10906113D+01  1  2 12  5  6  1        2 0.352560298627D-09 0.100000000000D+01
-.101121266095D-02 0.000000000000D+00 -.125773752919D-03 0.965829093783D-05 0.000000000000D+00  6 21 -2 25 1 -1 -2 2 0.12325070D+00 0.14267244D+00 0.24390002D+06 0.24390002D+06 0.24390002D+06 0.10912671D+01  1  2  5  5  6  1        2 -.173158367529D-02 0.100000000000D+01
  </mgrwgt>
  </event>
  <event>
  5     66 0.18881543E-05 0.27800817E+02 0.75467711E-02 0.94806315E-01
        2 -1    0    0  502    0 0.00000000E+00 0.00000000E+00 0.13300588E+04 0.13300589E+04 0.32000000E+00 0.0000E+00 0.9000E+01
       -2 -1    0    0    0  501 0.00000000E+00 0.00000000E+00 -.46496442E+03 0.46496453E+03 0.32000000E+00 0.0000E+00 0.9000E+01
       25  1    1    2    0    0 -.41159594E+03 0.23775559E+03 0.16069755E+03 0.51709538E+03 0.12500000E+03 0.0000E+00 0.9000E+01
        1  1    1    2  502    0 0.38688008E+03 -.22503453E+03 0.93977700E+03 0.10409119E+04 0.32000000E+00 0.0000E+00 0.9000E+01
       -1  1    1    2    0  501 0.24715860E+02 -.12721058E+02 -.23538015E+03 0.23701607E+03 0.32000000E+00 0.0000E+00 0.9000E+01
#aMCatNLO 1  0  0  4  5 0.21748010D+02 0.00000000D+00  -5  6  0 0.00000000D+00 0.00000000D+00 0.00000000D+00 0.00000000D+00 0.00000000D+00
  <mgrwgt>
 0.3298625717D-01    5    2    0
 0.786403305543256D+03 0.000000000000000D+00 0.000000000000000D+00 0.786403305543256D+03
 0.786403305543256D+03 -.000000000000000D+00 -.000000000000000D+00 -.786403305543256D+03
 0.501740574953724D+03 -.411585486933511D+03 0.237749322726548D+03 -.100951726303546D+03
 0.671047975654128D+03 0.386866653532462D+03 -.225026717808806D+03 0.500002554279768D+03
 0.400018060478661D+03 0.247188334010485D+02 -.127226049177419D+02 -.399050827976222D+03
 0.000000000000000D+00 0.000000000000000D+00 -.000000000000000D+00 0.000000000000000D+00
 0.786403305543256D+03 0.000000000000000D+00 0.000000000000000D+00 0.786403305543256D+03
 0.786403305543256D+03 -.000000000000000D+00 -.000000000000000D+00 -.786403305543256D+03
 0.497056570833735D+03 -.408120735263035D+03 0.235733998610834D+03 -.964737371324347D+02
 0.220419555385297D+02 0.568313944857030D+01 0.192610629892494D+02 0.908631842358209D+01
 0.396691548729960D+03 0.274825587090667D+02 -.143301666688254D+02 -.395478874434300D+03
 0.657016535984288D+03 0.374955037105399D+03 -.240664894931258D+03 0.482866293143152D+03
0.124949739135D-01 0.000000000000D+00 0.000000000000D+00 0.599948207172D-04 0.000000000000D+00  6 2 -2 25 1 -1 21 0 0.20462445D+00 0.71532999D-01 0.23369133D+06 0.23369133D+06 0.23369133D+06 0.10926700D+01  1  2  2  3  6  4        1 0.462029666695D-01 0.100000000000D+01
0.666052395202D-02 0.000000000000D+00 -.479839898299D-04 0.599948207172D-04 0.000000000000D+00  6 2 -2 25 1 -1 21 2 0.20462445D+00 0.71532999D-01 0.23369133D+06 0.23369133D+06 0.23369133D+06 0.10926700D+01  1  2  3  3  6  4        1 0.294049841113D-01 0.100000000000D+01
-.763005775231D-02 0.000000000000D+00 0.000000000000D+00 0.599948207172D-04 0.000000000000D+00  6 2 -2 25 1 -1 21 2 0.20462445D+00 0.71532999D-01 0.23369133D+06 0.23369133D+06 0.23369133D+06 0.10926700D+01  1  2 15  3  6  4        1 -.336852969213D-01 0.100000000000D+01
0.768004894504D-09 0.000000000000D+00 0.000000000000D+00 0.599948207172D-04 0.000000000000D+00  6 2 -2 25 1 -1 21 2 0.20462445D+00 0.71532999D-01 0.24217533D+06 0.24217533D+06 0.24217533D+06 0.10914996D+01  1  2 12  3  6  4        1 0.337777383451D-08 0.100000000000D+01
-.202418428422D-02 0.000000000000D+00 0.000000000000D+00 0.599948207172D-04 0.000000000000D+00  6 2 -2 25 1 -1 21 2 0.20462445D+00 0.71532999D-01 0.23369133D+06 0.23369133D+06 0.23369133D+06 0.10926700D+01  1  2  5  3  6  4        1 -.893640007074D-02 0.100000000000D+01
  </mgrwgt>
  </event>
  <event>
  6     66 0.18881543E-05 0.16354158E+03 0.75467711E-02 0.94973503E-01
        2 -1    0    0  502    0 0.00000000E+00 0.00000000E+00 0.24423477E+04 0.24423477E+04 0.32000000E+00 0.0000E+00 0.9000E+01
       -2 -1    0    0    0  501 0.00000000E+00 0.00000000E+00 -.87815836E+03 0.87815842E+03 0.32000000E+00 0.0000E+00 0.9000E+01
       25  1    1    2    0    0 0.17103137E+03 -.42813170E+03 -.95505334E+02 0.48712909E+03 0.12500000E+03 0.0000E+00 0.9000E+01
        1  1    1    2  503    0 0.15926461E+02 0.86861535E+02 0.58716048E+03 0.59376435E+03 0.32000000E+00 0.0000E+00 0.9000E+01
       -1  1    1    2    0  501 -.13133407E+03 0.12785583E+03 -.56155312E+03 0.59070954E+03 0.32000000E+00 0.0000E+00 0.9000E+01
       21  1    1    2  502  503 -.55623768E+02 0.21341434E+03 0.16340873E+04 0.16489031E+04 0.75000000E+00 0.0000E+00 0.9000E+01
#aMCatNLO 2  0  0  4  1 0.27434250D+02 0.00000000D+00  -5  6  0 0.00000000D+00 0.00000000D+00 0.00000000D+00 0.00000000D+00 0.00000000D+00
  <mgrwgt>
 0.8335740452D-03    3    2    0
 0.146450270675411D+04 0.000000000000000D+00 0.000000000000000D+00 0.146450270675411D+04
 0.146450270675411D+04 -.000000000000000D+00 -.000000000000000D+00 -.146450270675411D+04
 0.603369502828260D+03 0.171080307221407D+03 -.428229949348722D+03 -.368483915395288D+03
 0.135548097195263D+04 -.397178946014026D+02 0.300431597524206D+03 0.132117069653514D+04
 0.970154938727325D+03 -.131362412620004D+03 0.127798351824516D+03 -.952686781139850D+03
 0.000000000000000D+00 0.000000000000000D+00 0.000000000000000D+00 0.000000000000000D+00
 0.146450270675411D+04 0.000000000000000D+00 0.000000000000000D+00 0.146450270675411D+04
 0.146450270675411D+04 -.000000000000000D+00 -.000000000000000D+00 -.146450270675411D+04
 0.603145953583080D+03 0.171071696961665D+03 -.428164820164124D+03 -.368197504874929D+03
 0.359340088099733D+03 0.159061539535779D+02 0.868045125272105D+02 0.348334996500268D+03
 0.969718416123766D+03 -.131376256465404D+03 0.127903068568220D+03 -.952226281331047D+03
 0.996800955701639D+03 -.556015944498386D+02 0.213457239068695D+03 0.972088789705707D+03
-.803728251835D-09 0.000000000000D+00 0.000000000000D+00 0.145960514605D-03 0.000000000000D+00  6 2 -2 25 1 -1 21 2 0.37574580D+00 0.13510129D+00 0.23517826D+06 0.23517826D+06 0.23517826D+06 0.10924616D+01  1  2 13  3  6  4        1 -.187820312211D-09 0.100000000000D+01
-.157110263221D+00 0.000000000000D+00 0.000000000000D+00 0.145960514605D-03 0.000000000000D+00  6 2 -2 25 1 -1 21 2 0.37574580D+00 0.13510129D+00 0.23517826D+06 0.23517826D+06 0.23517826D+06 0.10924616D+01  1  2 13  3  6  4        1 -.367145221314D-01 0.100000000000D+01
0.160677327684D+00 0.000000000000D+00 0.000000000000D+00 0.145960514605D-03 0.177052738356D-06  6 2 -2 25 1 -1 21 2 0.37574580D+00 0.13510129D+00 0.23517826D+06 0.23517826D+06 0.23517826D+06 0.10924616D+01  1  2  1  3  6  4        1 0.375480963644D-01 0.100000000000D+01
  </mgrwgt>
  </event>
  <event>
  6     66 -.18881543E-05 0.37551298E+02 0.75467711E-02 0.95141415E-01
        2 -1    0    0  502    0 0.00000000E+00 0.00000000E+00 0.29630220E+04 0.29630220E+04 0.32000000E+00 0.0000E+00 0.9000E+01
       -2 -1    0    0    0  501 0.00000000E+00 0.00000000E+00 -.11104307E+04 0.11104307E+04 0.32000000E+00 0.0000E+00 0.9000E+01
       25  1    1    2    0    0 0.25114191E+03 -.39201158E+03 0.24975812E+03 0.54290833E+03 0.12500000E+03 0.0000E+00 0.9000E+01
        1  1    1    2  503    0 -.25235326E+01 0.17308444E+01 0.48743255E+03 0.48744226E+03 0.32000000E+00 0.0000E+00 0.9000E+01
       -1  1    1    2    0  501 -.25044612E+03 0.35108676E+03 -.91541151E+03 0.10119108E+04 0.32000000E+00 0.0000E+00 0.9000E+01
       21  1    1    2  502  503 0.18277416E+01 0.39193979E+02 0.20308121E+04 0.20311913E+04 0.75000000E+00 0.0000E+00 0.9000E+01
#aMCatNLO 2  0  0  4  1 0.66042391D+01 0.00000000D+00  -5  6  0 0.00000000D+00 0.00000000D+00 0.00000000D+00 0.00000000D+00 0.00000000D+00
  <mgrwgt>
 -.4083920263D-01    3    2    0
 0.181389927527406D+04 0.000000000000000D+00 0.000000000000000D+00 0.181389927527406D+04
 0.181389927527406D+04 -.000000000000000D+00 -.000000000000000D+00 -.181389927527406D+04
 0.482174525659856D+03 0.251212058913447D+03 -.392107967246516D+03 0.333416759906364D+01
 0.154186364164951D+04 -.695747144484073D+00 0.409222445947983D+02 0.154132033506144D+04
 0.160376038323875D+04 -.250516311768963D+03 0.351185722651713D+03 -.154465450266051D+04
 0.000000000000000D+00 0.000000000000000D+00 0.000000000000000D+00 0.000000000000000D+00
 0.181389927527406D+04 0.000000000000000D+00 0.000000000000000D+00 0.181389927527406D+04
 0.181389927527406D+04 -.000000000000000D+00 -.000000000000000D+00 -.181389927527406D+04
 0.482174347822127D+03 0.251212053525366D+03 -.392107650331995D+03 0.334610406053493D+01
 0.301869690427510D+03 -.251426371480677D+01 0.185085185581695D+01 0.301853545323192D+03
 0.160372237868109D+04 -.250516329690047D+03 0.351186776728605D+03 -.154461480126669D+04
 0.124003213361739D+04 0.181853987948793D+01 0.390700217475680D+02 0.123941515188296D+04
-.143592717516D-09 0.000000000000D+00 0.000000000000D+00 0.461759729838D-02 0.000000000000D+00  6 2 -2 25 1 -1 21 2 0.45584954D+00 0.17083549D+00 0.22837851D+06 0.22837851D+06 0.22837851D+06 0.10934269D+01  1  2 13  3  6  4        1 -.860079883231D-11 0.100000000000D+01
-.248363175950D+01 0.000000000000D+00 0.000000000000D+00 0.461759729838D-02 0.000000000000D+00  6 2 -2 25 1 -1 21 2 0.45584954D+00 0.17083549D+00 0.22837851D+06 0.22837851D+06 0.22837851D+06 0.10934269D+01  1  2 13  3  6  4        1 -.148762538286D+00 0.100000000000D+01
0.180180996593D+01 0.000000000000D+00 0.000000000000D+00 0.461759729838D-02 0.476416915882D-04  6 2 -2 25 1 -1 21 2 0.45584954D+00 0.17083549D+00 0.22837851D+06 0.22837851D+06 0.22837851D+06 0.10934269D+01  1  2  1  3  6  4        1 0.107923335661D+00 0.100000000000D+01
  </mgrwgt>
  </event>
  <event>
  5     66 0.18881543E-05 0.19898760E+02 0.75467711E-02 0.83863194E-01
        2 -1    0    0  502    0 0.00000000E+00 0.00000000E+00 0.14929153E+04 0.14929154E+04 0.32000000E+00 0.0000E+00 0.9000E+01
       -2 -1    0    0    0  501 0.00000000E+00 0.00000000E+00 -.99589916E+03 0.99589921E+03 0.32000000E+00 0.0000E+00 0.9000E+01
       25  1    1    2    0    0 -.36244573E+03 0.34231069E+03 0.68916719E+02 0.51857307E+03 0.12500000E+03 0.0000E+00 0.9000E+01
        1  1    1    2  502    0 0.35477458E+03 -.32395213E+03 0.11509093E+04 0.12471577E+04 0.32000000E+00 0.0000E+00 0.9000E+01
       -1  1    1    2    0  501 0.76711449E+01 -.18358561E+02 -.72280990E+03 0.72308377E+03 0.32000000E+00 0.0000E+00 0.9000E+01
#aMCatNLO 1  0  0  2  5 0.59897042D+02 0.00000000D+00  -5  6  0 0.00000000D+00 0.00000000D+00 0.00000000D+00 0.00000000D+00 0.00000000D+00
  <mgrwgt>
 0.1253068442D-01    5    4    0
 0.121934130562344D+04 0.000000000000000D+00 0.000000000000000D+00 0.121934130562344D+04
 0.121934130562344D+04 0.000000000000000D+00 0.000000000000000D+00 -.121934130562344D+04
 0.515169338774873D+03 -.362435315072200D+03 0.342302246059445D+03 -.352741030348602D+02
 0.103820141795331D+04 0.354763387655566D+03 -.323941903663768D+03 0.920362301525933D+03
 0.885311854518703D+03 0.767192741663450D+01 -.183603423956768D+02 -.885088198491072D+03
 0.000000000000000D+00 0.000000000000000D+00 0.000000000000000D+00 -.000000000000000D+00
 0.188417549075064D+04 0.000000000000000D+00 0.000000000000000D+00 0.188417549075064D+04
 0.205071459022778D+04 0.000000000000000D+00 0.000000000000000D+00 -.205071459022778D+04
 0.566931418159119D+03 -.530089465980761D+03 0.153450736743839D+03 -.352741030348602D+02
 0.116112372809115D+04 0.140132425612460D+02 -.707774805216391D+03 0.920362301525933D+03
 0.991563078867190D+03 -.283119730663287D+03 -.345918253888918D+03 -.885088198491072D+03
 0.121527185586096D+04 0.799195954082802D+03 0.900242322361469D+03 -.166539099477136D+03
 0.121934130562344D+04 0.000000000000000D+00 0.000000000000000D+00 0.121934130562344D+04
 0.121934130562344D+04 0.000000000000000D+00 0.000000000000000D+00 -.121934130562344D+04
 0.515169338774873D+03 -.362435315072200D+03 0.342302246059445D+03 -.352741030348602D+02
 0.103820141795331D+04 0.354763387655566D+03 -.323941903663768D+03 0.920362301525933D+03
 0.000000000000000D+00 0.000000000000000D+00 0.000000000000000D+00 -.000000000000000D+00
 0.885311854518703D+03 0.767192741663450D+01 -.183603423956768D+02 -.885088198491072D+03
 0.188417549075064D+04 0.000000000000000D+00 0.000000000000000D+00 0.188417549075064D+04
 0.205071459022778D+04 0.000000000000000D+00 0.000000000000000D+00 -.205071459022778D+04
 0.566931418159119D+03 -.530089465980761D+03 0.153450736743839D+03 -.352741030348602D+02
 0.116112372809115D+04 0.140132425612460D+02 -.707774805216391D+03 0.920362301525933D+03
 0.121527185586096D+04 0.799195954082802D+03 0.900242322361469D+03 -.166539099477136D+03
 0.991563078867190D+03 -.283119730663287D+03 -.345918253888918D+03 -.885088198491072D+03
0.212493077526D-01 0.000000000000D+00 0.000000000000D+00 0.609744694652D-03 0.000000000000D+00  6 2 -2 25 1 -1 21 0 0.22967929D+00 0.15321526D+00 0.25718630D+06 0.25718630D+06 0.25718630D+06 0.10895344D+01  1  2  2  2  6  2       -2 0.978627472666D-02 0.100000000000D+01
0.178182251228D-01 0.000000000000D+00 -.816029368413D-04 0.609744694652D-03 0.000000000000D+00  6 2 -2 25 1 -1 21 2 0.22967929D+00 0.15321526D+00 0.25718630D+06 0.25718630D+06 0.25718630D+06 0.10895344D+01  1  2  3  2  6  2       -2 0.974134564372D-02 0.100000000000D+01
-.143624242561D-01 0.000000000000D+00 0.000000000000D+00 0.609744694652D-03 0.000000000000D+00  6 2 -2 25 1 -1 21 2 0.22967929D+00 0.15321526D+00 0.25718630D+06 0.25718630D+06 0.25718630D+06 0.10895344D+01  1  2 15  2  6  2       -2 -.785203565428D-02 0.100000000000D+01
0.132213059750D-01 0.000000000000D+00 -.113714751020D-01 0.609744694652D-03 0.000000000000D+00  6 2 -2 25 1 -1 21 2 0.22967929D+00 0.33680595D+00 0.25718630D+06 0.25718630D+06 0.25718630D+06 0.10895344D+01  1  2  5  2  6  2       -2 0.426493249028D-03 0.100000000000D+01
0.184482896539D-02 0.000000000000D+00 -.970781238515D-03 0.609744694652D-03 0.000000000000D+00  6 2 21 25 1 2 -1 2 0.22967929D+00 0.33680595D+00 0.25718630D+06 0.25718630D+06 0.25718630D+06 0.10895344D+01  3  4  5  6  5  2       -2 0.428606450414D-03 0.100000000000D+01
  </mgrwgt>
  </event>
  <event>
  5     66 0.18881543E-05 0.33314585E+02 0.75467711E-02 0.86476384E-01
        2 -1    0    0  502    0 0.00000000E+00 0.00000000E+00 0.17438663E+04 0.17438664E+04 0.32000000E+00 0.0000E+00 0.9000E+01
       -2 -1    0    0    0  501 0.00000000E+00 0.00000000E+00 -.58027872E+03 0.58027881E+03 0.32000000E+00 0.0000E+00 0.9000E+01
       25  1    1    2    0    0 0.56857571E+03 0.45856081E+03 0.70773498E+03 0.10247293E+04 0.12500000E+03 0.0000E+00 0.9000E+01
        1  1    1    2  502    0 -.31126511E+02 -.11930602E+02 0.58739197E+03 0.58833717E+03 0.32000000E+00 0.0000E+00 0.9000E+01
       -1  1    1    2    0  501 -.53744920E+03 -.44663021E+03 -.13153934E+03 0.71107868E+03 0.32000000E+00 0.0000E+00 0.9000E+01
#aMCatNLO 1  0  0  1  4 0.40002478D+03 0.00000000D+00  -5  6  0 0.00000000D+00 0.00000000D+00 0.00000000D+00 0.00000000D+00 0.00000000D+00
  <mgrwgt>
 0.2851740281D-02    6    2    0
 0.100594664463722D+04 0.000000000000000D+00 0.000000000000000D+00 0.100594664463722D+04
 0.100594664463722D+04 0.000000000000000D+00 0.000000000000000D+00 -.100594664463722D+04
 0.774587268068266D+03 0.568646468088264D+03 0.458625355760892D+03 0.225087567931677D+03
 0.339723282299550D+03 -.311077742305894D+02 -.119234206688320D+02 0.338085857377016D+03
 0.897582738906633D+03 -.537538693857675D+03 -.446701935092060D+03 -.563173425308694D+03
 0.000000000000000D+00 -.000000000000000D+00 0.000000000000000D+00 0.000000000000000D+00
 0.180311928440071D+04 0.000000000000000D+00 0.000000000000000D+00 0.180311928440071D+04
 0.114591777372269D+04 0.000000000000000D+00 0.000000000000000D+00 -.114591777372269D+04
 0.677135849951865D+03 0.569122083810349D+03 0.261387834016818D+03 0.225087567931677D+03
 0.355781328826471D+03 -.308799119586949D+02 -.106417752375252D+03 0.338085857377016D+03
 0.105464905204588D+04 -.536899100727687D+03 -.711940778186745D+03 -.563173425308694D+03
 0.861470827299181D+03 -.134307112396704D+01 0.556970696545178D+03 0.657201510678018D+03
0.104906520811D-02 0.000000000000D+00 0.000000000000D+00 0.114412591255D-04 0.000000000000D+00  6 2 -2 25 1 -1 21 0 0.26828714D+00 0.89273658D-01 0.54272502D+06 0.54272502D+06 0.54272502D+06 0.10660027D+01  1  2  2  1  6  1        2 0.133020561828D-02 0.100000000000D+01
0.525417885439D-03 0.000000000000D+00 -.402868662434D-05 0.114412591255D-04 0.000000000000D+00  6 2 -2 25 1 -1 21 2 0.26828714D+00 0.89273658D-01 0.54272502D+06 0.54272502D+06 0.54272502D+06 0.10660027D+01  1  2  3  1  6  1        2 0.757073065834D-03 0.100000000000D+01
-.719447811912D-03 0.000000000000D+00 0.000000000000D+00 0.114412591255D-04 0.000000000000D+00  6 2 -2 25 1 -1 21 2 0.26828714D+00 0.89273658D-01 0.54272502D+06 0.54272502D+06 0.54272502D+06 0.10660027D+01  1  2 15  1  6  1        2 -.103665020885D-02 0.100000000000D+01
-.127014074552D-02 0.000000000000D+00 -.546824712093D-03 0.114412591255D-04 0.000000000000D+00  6 2 -2 25 1 -1 21 2 0.49638009D+00 0.89273658D-01 0.54272502D+06 0.54272502D+06 0.54272502D+06 0.10660027D+01  1  2  5  1  6  1        2 -.242730437842D-03 0.100000000000D+01
0.141880946639D-02 0.000000000000D+00 0.457465747071D-03 0.114412591255D-04 0.000000000000D+00  6 2 -2 25 1 -1 21 2 0.26828714D+00 0.89273658D-01 0.54272502D+06 0.54272502D+06 0.54272502D+06 0.10660027D+01  1  2  6  1  6  1        2 0.204435833328D-02 0.100000000000D+01
-.550224057700D-04 0.000000000000D+00 -.367011951865D-04 0.114412591255D-04 0.000000000000D+00  6 21 -2 25 1 -1 -2 2 0.49638009D+00 0.89273658D-01 0.54272502D+06 0.54272502D+06 0.54272502D+06 0.10660027D+01  1  2  5  5  6  1        2 -.516089384576D-06 0.100000000000D+01
  </mgrwgt>
  </event>
  <event>
  5     66 -.18881543E-05 0.33207714E+02 0.75467711E-02 0.94671543E-01
        2 -1    0    0  502    0 0.00000000E+00 0.00000000E+00 0.64144213E+03 0.64144221E+03 0.32000000E+00 0.0000E+00 0.9000E+01
       -2 -1    0    0    0  501 -.00000000E+00 -.00000000E+00 -.78782529E+03 0.78782535E+03 0.32000000E+00 0.0000E+00 0.9000E+01
       25  1    1    2    0    0 0.39497077E+03 -.22857888E+03 -.74739811E+02 0.47902114E+03 0.12500000E+03 0.0000E+00 0.9000E+01
        1  1    1    2  502    0 -.42629462E+03 0.23959526E+03 0.30225029E+03 0.57488114E+03 0.32000000E+00 0.0000E+00 0.9000E+01
       -1  1    1    2    0  501 0.31323848E+02 -.11016384E+02 -.37389363E+03 0.37536528E+03 0.32000000E+00 0.0000E+00 0.9000E+01
#aMCatNLO 1  0  0  5  2 0.75346756D+01 0.00000000D+00  -5  6  0 0.00000000D+00 0.00000000D+00 0.00000000D+00 0.00000000D+00 0.00000000D+00
  <mgrwgt>
 -.1746724009D-01    9    2    0
 0.710875822703888D+03 0.000000000000000D+00 0.000000000000000D+00 0.710875822703888D+03
 0.710875822703888D+03 -.000000000000000D+00 -.000000000000000D+00 -.710875822703888D+03
 0.473837514745691D+03 0.394954251177070D+03 -.228570297992177D+03 -.257633214725931D+02
 0.609020365404617D+03 -.426281078769113D+03 0.239587654470437D+03 0.363026174244185D+03
 0.338893765257466D+03 0.313268275920425D+02 -.110173564782599D+02 -.337262852771591D+03
 0.000000000000000D+00 0.000000000000000D+00 0.000000000000000D+00 -.000000000000000D+00
 0.710875822703888D+03 0.000000000000000D+00 0.000000000000000D+00 0.710875822703888D+03
 0.710875822703888D+03 -.000000000000000D+00 -.000000000000000D+00 -.710875822703888D+03
 0.473853931302996D+03 0.394964577476936D+03 -.228573929656647D+03 -.258744938324858D+02
 0.608924084139209D+03 -.426267807720125D+03 0.239582987164847D+03 0.362883298881915D+03
 0.170622459734335D+03 0.212438848109906D+02 -.106604595853480D+02 -.168958798898907D+03
 0.168351170231236D+03 0.100593454321979D+02 -.348597922851740D+00 -.168050006150522D+03
0.102840879377D-03 0.000000000000D+00 0.000000000000D+00 0.170206824211D-04 0.000000000000D+00  6 2 -2 25 1 -1 21 0 0.98683416D-01 0.12120390D+00 0.24767595D+06 0.24767595D+06 0.24767595D+06 0.10907644D+01  1  2  2  4  6  5       -1 0.302412034311D-03 0.100000000000D+01
0.465115197230D-04 0.000000000000D+00 -.394936055433D-06 0.170206824211D-04 0.000000000000D+00  6 2 -2 25 1 -1 21 2 0.98683416D-01 0.12120390D+00 0.24767595D+06 0.24767595D+06 0.24767595D+06 0.10907644D+01  1  2  3  4  6  5       -1 0.162725537549D-03 0.100000000000D+01
-.799056013042D-04 0.000000000000D+00 0.000000000000D+00 0.170206824211D-04 0.000000000000D+00  6 2 -2 25 1 -1 21 2 0.98683416D-01 0.12120390D+00 0.24767595D+06 0.24767595D+06 0.24767595D+06 0.10907644D+01  1  2 15  4  6  5       -1 -.279558311637D-03 0.100000000000D+01
0.113179651536D-07 0.000000000000D+00 0.000000000000D+00 0.170206824211D-04 0.000000000000D+00  6 2 -2 25 1 -1 21 2 0.98683416D-01 0.12120390D+00 0.24798601D+06 0.24798601D+06 0.24798601D+06 0.10907235D+01  1  2 12  4  6  5       -1 0.395921937621D-07 0.100000000000D+01
0.788919747009D-02 0.000000000000D+00 0.000000000000D+00 0.170206824211D-04 0.000000000000D+00  6 2 -2 25 1 -1 21 2 0.98683416D-01 0.12120390D+00 0.24798601D+06 0.24798601D+06 0.24798601D+06 0.10907235D+01  1  2 12  4  6  5       -1 0.275977731530D-01 0.100000000000D+01
-.188558068163D-01 0.000000000000D+00 0.000000000000D+00 0.170206824211D-04 0.000000000000D+00  6 2 -2 25 1 -1 21 2 0.98683416D-01 0.12120390D+00 0.24767595D+06 0.24767595D+06 0.24767595D+06 0.10907644D+01  1  2  4  4  6  5       -1 -.659690613934D-01 0.100000000000D+01
-.892524178560D-02 0.000000000000D+00 0.000000000000D+00 0.170206824211D-04 0.000000000000D+00  6 2 -2 25 1 -1 21 2 0.98683416D-01 0.12120390D+00 0.24767595D+06 0.24767595D+06 0.24767595D+06 0.10907644D+01  1  2  5  4  6  5       -1 -.312259151275D-01 0.100000000000D+01
0.145806798437D-01 0.000000000000D+00 -.000000000000D+00 0.170206824211D-04 0.000000000000D+00  6 2 -2 25 1 -1 21 2 0.98683416D-01 0.12120390D+00 0.24767595D+06 0.24767595D+06 0.24767595D+06 0.10907644D+01  1  2  6  4  6  5       -1 0.510120714081D-01 0.100000000000D+01
0.266502877222D-03 0.000000000000D+00 0.000000000000D+00 0.170206824211D-04 0.167017272099D-05  6 2 -2 25 1 -1 21 2 0.98683416D-01 0.12120390D+00 0.24798601D+06 0.24798601D+06 0.24798601D+06 0.10907235D+01  1  2 11  4  6  5       -1 0.932273019922D-03 0.100000000000D+01
  </mgrwgt>
  </event>
  <event>
  5     66 -.18881543E-05 0.26133881E+02 0.75467711E-02 0.95036752E-01
        2 -1    0    0  502    0 0.00000000E+00 0.00000000E+00 0.38225808E+04 0.38225809E+04 0.32000000E+00 0.0000E+00 0.9000E+01
       -2 -1    0    0    0  501 0.00000000E+00 0.00000000E+00 -.38696495E+03 0.38696509E+03 0.32000000E+00 0.0000E+00 0.9000E+01
       25  1    1    2    0    0 0.43321531E+03 0.17886081E+03 -.54922241E+01 0.48509985E+03 0.12500000E+03 0.0000E+00 0.9000E+01
        1  1    1    2  502    0 -.22611286E+02 0.13105613E+02 0.32200409E+04 0.32201470E+04 0.32000000E+00 0.0000E+00 0.9000E+01
       -1  1    1    2    0  501 -.41060403E+03 -.19196642E+03 0.22106718E+03 0.50429909E+03 0.32000000E+00 0.0000E+00 0.9000E+01
#aMCatNLO 1  0  0  4  1 0.10524794D+02 0.00000000D+00  -5  6  0 0.00000000D+00 0.00000000D+00 0.00000000D+00 0.00000000D+00 0.00000000D+00
  <mgrwgt>
 -.6259217091D-02    1    2    0
 0.121622577178390D+04 0.000000000000000D+00 0.000000000000000D+00 0.121622577178390D+04
 0.121622577178390D+04 -.000000000000000D+00 -.000000000000000D+00 -.121622577178390D+04
 0.847270366126051D+03 0.433255975889286D+03 0.178878816167691D+03 -.694646458133949D+03
 0.102466415085695D+04 -.226104976992696D+02 0.131051558687297D+02 0.102433082660576D+04
 0.560517026584787D+03 -.410645478190020D+03 -.191983972036419D+03 -.329684368471816D+03
 0.000000000000000D+00 0.000000000000000D+00 0.000000000000000D+00 0.000000000000000D+00
 0.121622577178390D+04 0.000000000000000D+00 0.000000000000000D+00 0.121622577178390D+04
 0.121622577178390D+04 -.000000000000000D+00 -.000000000000000D+00 -.121622577178390D+04
 0.791206923637458D+03 0.431737135073867D+03 0.179759143787657D+03 -.625837912270252D+03
 0.990171767505651D+03 -.105554623130844D+03 0.352685440876220D+02 0.983897596551039D+03
 0.535315466156967D+03 -.411661296430063D+03 -.191395198779539D+03 -.283664420067994D+03
 0.115757386267715D+03 0.854787844870377D+02 -.236324890957387D+02 -.743952642127927D+02
-.317101638411D-01 0.000000000000D+00 0.000000000000D+00 0.792957406930D-04 0.000000000000D+00  6 2 -2 25 1 -1 21 2 0.58808937D+00 0.59533081D-01 0.23259059D+06 0.23259059D+06 0.23259059D+06 0.10928253D+01  1  2 14  3  6  4        1 -.625921709100D-02 0.100000000000D+01
  </mgrwgt>
  </event>
  <event>
  5     66 0.18881543E-05 0.87675637E+02 0.75467711E-02 0.93860615E-01
        2 -1    0    0  502    0 0.00000000E+00 0.00000000E+00 0.23271458E+04 0.23271458E+04 0.32000000E+00 0.0000E+00 0.9000E+01
       -2 -1    0    0    0  501 0.00000000E+00 0.00000000E+00 -.31621935E+03 0.31621952E+03 0.32000000E+00 0.0000E+00 0.9000E+01
       25  1    1    2    0    0 -.40661565E+03 -.29990629E+03 0.22880330E+03 0.56855608E+03 0.12500000E+03 0.0000E+00 0.9000E+01
        1  1    1    2  502    0 0.32058043E+03 0.28306093E+03 0.18888683E+04 0.19366772E+04 0.32000000E+00 0.0000E+00 0.9000E+01
       -1  1    1    2    0  501 0.86035219E+02 0.16845357E+02 -.10674513E+03 0.13813200E+03 0.32000000E+00 0.0000E+00 0.9000E+01
#aMCatNLO 1  0  0  1  2 0.44072088D+02 0.00000000D+00  -5  6  0 0.00000000D+00 0.00000000D+00 0.00000000D+00 0.00000000D+00 0.00000000D+00
  <mgrwgt>
 0.2716163241D-02    9    2    0
 0.857839602854409D+03 0.000000000000000D+00 0.000000000000000D+00 0.857839602854409D+03
 0.857839602854409D+03 0.000000000000000D+00 0.000000000000000D+00 -.857839602854409D+03
 0.607785099619016D+03 -.406617968781063D+03 -.299904508122355D+03 -.313842063450945D+03
 0.769929949711210D+03 0.320576202984213D+03 0.283057196802228D+03 0.640235619815859D+03
 0.337964156378592D+03 0.860417657968507D+02 0.168473113201273D+02 -.326393556364913D+03
 0.000000000000000D+00 0.000000000000000D+00 -.000000000000000D+00 0.000000000000000D+00
 0.908892577423771D+03 0.000000000000000D+00 0.000000000000000D+00 0.908892577423771D+03
 0.867687038780088D+03 0.000000000000000D+00 0.000000000000000D+00 -.867687038780088D+03
 0.617112600534190D+03 -.422158339567851D+03 -.297470094766244D+03 -.313842063450945D+03
 0.763173546646102D+03 0.301125601693236D+03 0.286104151357997D+03 0.640235619815859D+03
 0.335959023477467D+03 0.774916508807523D+02 0.181866946742062D+02 -.326393556364913D+03
 0.603344455461000D+02 0.435410869938630D+02 -.682075126595984D+01 0.412055386436832D+02
0.392285849727D-03 0.000000000000D+00 0.000000000000D+00 0.953073507700D-05 0.000000000000D+00  6 2 -2 25 1 -1 21 0 0.35802244D+00 0.48649146D-01 0.26823015D+06 0.26823015D+06 0.26823015D+06 0.10881669D+01  1  2  2  1  6  1        2 0.904325614914D-03 0.100000000000D+01
0.635095546254D-04 0.000000000000D+00 -.150648095419D-05 0.953073507700D-05 0.000000000000D+00  6 2 -2 25 1 -1 21 2 0.35802244D+00 0.48649146D-01 0.26823015D+06 0.26823015D+06 0.26823015D+06 0.10881669D+01  1  2  3  1  6  1        2 0.173361364016D-03 0.100000000000D+01
-.262192043884D-03 0.000000000000D+00 0.000000000000D+00 0.953073507700D-05 0.000000000000D+00  6 2 -2 25 1 -1 21 2 0.35802244D+00 0.48649146D-01 0.26823015D+06 0.26823015D+06 0.26823015D+06 0.10881669D+01  1  2 15  1  6  1        2 -.715702867545D-03 0.100000000000D+01
0.423757339739D-08 0.000000000000D+00 0.000000000000D+00 0.953073507700D-05 0.000000000000D+00  6 2 -2 25 1 -1 21 2 0.38130749D+00 0.48649146D-01 0.28643243D+06 0.28643243D+06 0.28643243D+06 0.10860420D+01  1  2 12  1  6  1        2 0.940548772496D-08 0.100000000000D+01
-.595971673849D-03 0.000000000000D+00 0.000000000000D+00 0.953073507700D-05 0.000000000000D+00  6 2 -2 25 1 -1 21 2 0.35802244D+00 0.48649146D-01 0.26823015D+06 0.26823015D+06 0.26823015D+06 0.10881669D+01  1  2  4  1  6  1        2 -.162681761670D-02 0.100000000000D+01
-.797144059566D-02 0.000000000000D+00 -.115515421493D-02 0.953073507700D-05 0.000000000000D+00  6 2 -2 25 1 -1 21 2 0.38080061D+00 0.48649146D-01 0.26823015D+06 0.26823015D+06 0.26823015D+06 0.10881669D+01  1  2  5  1  6  1        2 -.179149177695D-01 0.100000000000D+01
0.802960568716D-02 0.000000000000D+00 0.115296033000D-02 0.953073507700D-05 0.000000000000D+00  6 2 -2 25 1 -1 21 2 0.35802244D+00 0.48649146D-01 0.26823015D+06 0.26823015D+06 0.26823015D+06 0.10881669D+01  1  2  6  1  6  1        2 0.219183302835D-01 0.100000000000D+01
0.568542580729D-10 0.000000000000D+00 0.000000000000D+00 0.953073507700D-05 0.000000000000D+00  6 21 -2 25 1 -1 -2 2 0.38130749D+00 0.48649146D-01 0.28643243D+06 0.28643243D+06 0.28643243D+06 0.10860420D+01  1  2 12  5  6  1        2 0.151136631829D-10 0.100000000000D+01
-.827127355080D-04 0.000000000000D+00 -.122068522492D-04 0.953073507700D-05 0.000000000000D+00  6 21 -2 25 1 -1 -2 2 0.38080061D+00 0.48649146D-01 0.26823015D+06 0.26823015D+06 0.26823015D+06 0.10881669D+01  1  2  5  5  6  1        2 -.224251884442D-04 0.100000000000D+01
  </mgrwgt>
  </event>
  <event>
  5     66 -.18881543E-05 0.21855280E+02 0.75467711E-02 0.93572592E-01
        2 -1    0    0  502    0 0.00000000E+00 0.00000000E+00 0.34329547E+04 0.34329548E+04 0.32000000E+00 0.0000E+00 0.9000E+01
       -2 -1    0    0    0  501 0.00000000E+00 0.00000000E+00 -.50416992E+03 0.50417002E+03 0.32000000E+00 0.0000E+00 0.9000E+01
       25  1    1    2    0    0 -.10202559E+02 -.53945396E+03 0.12056280E+04 0.13267549E+04 0.12500000E+03 0.0000E+00 0.9000E+01
        1  1    1    2  502    0 0.21697090E+02 0.52086841E+03 0.21351122E+04 0.21978351E+04 0.32000000E+00 0.0000E+00 0.9000E+01
       -1  1    1    2    0  501 -.11494530E+02 0.18585548E+02 -.41195545E+03 0.41253477E+03 0.32000000E+00 0.0000E+00 0.9000E+01
#aMCatNLO 1  0  0  5  4 0.90843487D+01 0.00000000D+00  -5  6  0 0.00000000D+00 0.00000000D+00 0.00000000D+00 0.00000000D+00 0.00000000D+00
  <mgrwgt>
 -.1348592331D-01    6    2    0
 0.131559596093892D+04 0.000000000000000D+00 0.000000000000000D+00 0.131559596093892D+04
 0.131559596093892D+04 -.000000000000000D+00 -.000000000000000D+00 -.131559596093892D+04
 0.643299901847614D+03 -.101992314855375D+02 -.539406334558562D+03 0.327332469566268D+03
 0.911996349963183D+03 0.216950191073363D+02 0.520818701183145D+03 0.748341198244492D+03
 0.107589567006704D+04 -.114957876217956D+02 0.185876333754113D+02 -.107567366781076D+04
 0.000000000000000D+00 0.000000000000000D+00 0.000000000000000D+00 -.000000000000000D+00
 0.131559596093892D+04 0.000000000000000D+00 0.000000000000000D+00 0.131559596093892D+04
 0.131559596093892D+04 -.000000000000000D+00 -.000000000000000D+00 -.131559596093892D+04
 0.643274008407368D+03 -.101997604692108D+02 -.539405479240518D+03 0.327282971974040D+03
 0.911939446336435D+03 0.216942691836438D+02 0.520819913740920D+03 0.748271027048283D+03
 0.273174401730892D+03 -.106564179493933D+02 0.947112179026751D+01 -.272802112106107D+03
 0.802804065403139D+03 -.838090765036675D+00 0.911444370932562D+01 -.802751886916216D+03
0.334052374846D-03 0.000000000000D+00 0.000000000000D+00 0.326897061677D-03 0.000000000000D+00  6 2 -2 25 1 -1 21 0 0.52814689D+00 0.77564611D-01 0.30080839D+06 0.30080839D+06 0.30080839D+06 0.10844654D+01  1  2  2  4  6  5       -1 0.590383610633D-04 0.100000000000D+01
0.291273502574D-03 0.000000000000D+00 -.128284907742D-05 0.326897061677D-03 0.000000000000D+00  6 2 -2 25 1 -1 21 2 0.52814689D+00 0.77564611D-01 0.30080839D+06 0.30080839D+06 0.30080839D+06 0.10844654D+01  1  2  3  4  6  5       -1 0.605413523544D-04 0.100000000000D+01
-.228597863368D-03 0.000000000000D+00 0.000000000000D+00 0.326897061677D-03 0.000000000000D+00  6 2 -2 25 1 -1 21 2 0.52814689D+00 0.77564611D-01 0.30080839D+06 0.30080839D+06 0.30080839D+06 0.10844654D+01  1  2 15  4  6  5       -1 -.475141874263D-04 0.100000000000D+01
0.254665920232D-09 0.000000000000D+00 0.000000000000D+00 0.326897061677D-03 0.000000000000D+00  6 2 -2 25 1 -1 21 2 0.52814689D+00 0.77564611D-01 0.30166182D+06 0.30166182D+06 0.30166182D+06 0.10843744D+01  1  2 12  4  6  5       -1 0.529094660825D-10 0.100000000000D+01
-.652335784832D-01 0.000000000000D+00 0.000000000000D+00 0.326897061677D-03 0.000000000000D+00  6 2 -2 25 1 -1 21 2 0.52814689D+00 0.77564611D-01 0.30080839D+06 0.30080839D+06 0.30080839D+06 0.10844654D+01  1  2  5  4  6  5       -1 -.135588339666D-01 0.100000000000D+01
0.406753932755D-05 0.000000000000D+00 0.000000000000D+00 0.326897061677D-03 0.107540751933D-04  6 2 -2 25 1 -1 21 2 0.52814689D+00 0.77564611D-01 0.30166182D+06 0.30166182D+06 0.30166182D+06 0.10843744D+01  1  2 11  4  6  5       -1 0.845073160532D-06 0.100000000000D+01
  </mgrwgt>
  </event>
  <event>
  5     66 0.18881543E-05 0.12166228E+03 0.75467711E-02 0.94155269E-01
        2 -1    0    0  502    0 0.00000000E+00 0.00000000E+00 0.13034921E+04 0.13034922E+04 0.32000000E+00 0.0000E+00 0.9000E+01
       -2 -1    0    0    0  501 0.00000000E+00 0.00000000E+00 -.28621918E+03 0.28621936E+03 0.32000000E+00 0.0000E+00 0.9000E+01
       25  1    1    2    0    0 0.34283557E+03 -.37442393E+03 0.31505318E+03 0.61042036E+03 0.12500000E+03 0.0000E+00 0.9000E+01
        1  1    1    2  502    0 -.23160753E+03 0.32519550E+03 0.74916824E+03 0.84890949E+03 0.32000000E+00 0.0000E+00 0.9000E+01
       -1  1    1    2    0  501 -.11122804E+03 0.49228434E+02 -.46948485E+02 0.13038167E+03 0.32000000E+00 0.0000E+00 0.9000E+01
#aMCatNLO 1  0  0  5  2 0.19519920D+02 0.00000000D+00  -5  6  0 0.00000000D+00 0.00000000D+00 0.00000000D+00 0.00000000D+00 0.00000000D+00
  <mgrwgt>
 0.4749464248D-02    8    2    0
 0.610806529372091D+03 0.000000000000000D+00 0.000000000000000D+00 0.610806529372091D+03
 0.610806529372091D+03 -.000000000000000D+00 -.000000000000000D+00 -.610806529372091D+03
 0.531979629455317D+03 0.342839815822388D+03 -.374411983700342D+03 -.982540243647185D+02
 0.480810581717654D+03 -.231588608643453D+03 0.325168929056991D+03 0.267975184325317D+03
 0.208822847571212D+03 -.111251207178935D+03 0.492430546433507D+02 -.169721159960599D+03
 0.000000000000000D+00 0.000000000000000D+00 0.000000000000000D+00 0.000000000000000D+00
 0.610806529372091D+03 0.000000000000000D+00 0.000000000000000D+00 0.610806529372091D+03
 0.610806529372091D+03 -.000000000000000D+00 -.000000000000000D+00 -.610806529372091D+03
 0.531398176099102D+03 0.341974200833270D+03 -.374028837060497D+03 -.995745779457334D+02
 0.480758618934600D+03 -.232371348991061D+03 0.325515392944316D+03 0.266781061554763D+03
 0.920605610008452D+02 -.367835884984265D+02 0.933539800388827D+01 -.838746973352379D+02
 0.117395702709635D+03 -.728192633437824D+02 0.391780461122929D+02 -.833317862737916D+02
0.795764924769D-04 0.000000000000D+00 0.000000000000D+00 0.250480146061D-06 0.000000000000D+00  6 2 -2 25 1 -1 21 0 0.20053727D+00 0.44033736D-01 0.27232691D+06 0.27232691D+06 0.27232691D+06 0.10876752D+01  1  2  2  4  6  5       -1 0.814587245780D-03 0.100000000000D+01
0.691219038961D-05 0.000000000000D+00 -.305594684083D-06 0.250480146061D-06 0.000000000000D+00  6 2 -2 25 1 -1 21 2 0.20053727D+00 0.44033736D-01 0.27232691D+06 0.27232691D+06 0.27232691D+06 0.10876752D+01  1  2  3  4  6  5       -1 0.837080052935D-04 0.100000000000D+01
-.503864019171D-04 0.000000000000D+00 0.000000000000D+00 0.250480146061D-06 0.000000000000D+00  6 2 -2 25 1 -1 21 2 0.20053727D+00 0.44033736D-01 0.27232691D+06 0.27232691D+06 0.27232691D+06 0.10876752D+01  1  2 15  4  6  5       -1 -.610189384357D-03 0.100000000000D+01
0.191917865054D-06 0.000000000000D+00 0.000000000000D+00 0.250480146061D-06 0.000000000000D+00  6 2 -2 25 1 -1 21 2 0.20053727D+00 0.44033736D-01 0.27173844D+06 0.27173844D+06 0.27173844D+06 0.10877454D+01  1  2 12  4  6  5       -1 0.232464317910D-05 0.100000000000D+01
0.318590274789D-03 0.000000000000D+00 0.000000000000D+00 0.250480146061D-06 0.000000000000D+00  6 2 -2 25 1 -1 21 2 0.20053727D+00 0.44033736D-01 0.27173844D+06 0.27173844D+06 0.27173844D+06 0.10877454D+01  1  2 12  4  6  5       -1 0.385898784882D-02 0.100000000000D+01
-.282678887944D-03 0.000000000000D+00 0.000000000000D+00 0.250480146061D-06 0.000000000000D+00  6 2 -2 25 1 -1 21 2 0.20053727D+00 0.44033736D-01 0.27232691D+06 0.27232691D+06 0.27232691D+06 0.10876752D+01  1  2  4  4  6  5       -1 -.342329775579D-02 0.100000000000D+01
-.320386095175D-03 0.000000000000D+00 0.000000000000D+00 0.250480146061D-06 0.000000000000D+00  6 2 -2 25 1 -1 21 2 0.20053727D+00 0.44033736D-01 0.27232691D+06 0.27232691D+06 0.27232691D+06 0.10876752D+01  1  2  5  4  6  5       -1 -.387993956173D-02 0.100000000000D+01
0.652613785694D-03 0.000000000000D+00 -.000000000000D+00 0.250480146061D-06 0.000000000000D+00  6 2 -2 25 1 -1 21 2 0.20053727D+00 0.44033736D-01 0.27232691D+06 0.27232691D+06 0.27232691D+06 0.10876752D+01  1  2  6  4  6  5       -1 0.790328320667D-02 0.100000000000D+01
  </mgrwgt>
  </event>
  <event>
  5     66 -.18881543E-05 0.12211222E+03 0.75467711E-02 0.93944299E-01
        2 -1    0    0  502    0 0.00000000E+00 0.00000000E+00 0.17241510E+04 0.17241510E+04 0.32000000E+00 0.0000E+00 0.9000E+01
       -2 -1    0    0    0  501 0.00000000E+00 0.00000000E+00 -.43830889E+03 0.43830901E+03 0.32000000E+00 0.0000E+00 0.9000E+01
       25  1    1    2    0    0 0.70917676E+02 -.45960525E+03 0.10141263E+04 0.11226502E+04 0.12500000E+03 0.0000E+00 0.9000E+01
        1  1    1    2  502    0 0.10669321E+03 0.59583130E+02 0.52166543E+03 0.53578775E+03 0.32000000E+00 0.0000E+00 0.9000E+01
       -1  1    1    2    0  501 -.17761089E+03 0.40002212E+03 -.24994964E+03 0.50402207E+03 0.32000000E+00 0.0000E+00 0.9000E+01
#aMCatNLO 1  0  0  2  5 0.24363868D+02 0.00000000D+00  -5  6  0 0.00000000D+00 0.00000000D+00 0.00000000D+00 0.00000000D+00 0.00000000D+00
  <mgrwgt>
 -.1404006394D-02   11    4    0
 0.869316316902252D+03 0.000000000000000D+00 0.000000000000000D+00 0.869316316902252D+03
 0.869316316902252D+03 0.000000000000000D+00 0.000000000000000D+00 -.869316316902252D+03
 0.646463583623664D+03 0.710185371793596D+02 -.459638817182095D+03 0.431252466738335D+03
 0.280379646983113D+03 0.106613889489155D+03 0.595388310634004D+02 0.252391268878250D+03
 0.811789403197728D+03 -.177632426668514D+03 0.400099986118694D+03 -.683643735616585D+03
 0.000000000000000D+00 -.000000000000000D+00 0.000000000000000D+00 -.000000000000000D+00
 0.869806099685009D+03 0.000000000000000D+00 0.000000000000000D+00 0.869806099685009D+03
 0.123633408269110D+04 0.000000000000000D+00 0.000000000000000D+00 -.123633408269110D+04
 0.653044366954157D+03 0.724685814821428D+02 -.468627314441469D+03 0.431252466738335D+03
 0.279821432434603D+03 0.107238984844102D+03 0.556640060846033D+02 0.252391268878250D+03
 0.805937534337956D+03 -.175827300560444D+03 0.388910416914451D+03 -.683643735616585D+03
 0.367336848649392D+03 -.388026576580011D+01 0.240528914424139D+02 -.366527983006090D+03
 0.869316316902252D+03 0.000000000000000D+00 0.000000000000000D+00 0.869316316902252D+03
 0.869316316902252D+03 0.000000000000000D+00 0.000000000000000D+00 -.869316316902252D+03
 0.646463583623664D+03 0.710185371793596D+02 -.459638817182095D+03 0.431252466738335D+03
 0.280379646983113D+03 0.106613889489155D+03 0.595388310634004D+02 0.252391268878250D+03
 0.000000000000000D+00 -.000000000000000D+00 0.000000000000000D+00 -.000000000000000D+00
 0.811789403197728D+03 -.177632426668514D+03 0.400099986118694D+03 -.683643735616585D+03
 0.869806099685009D+03 0.000000000000000D+00 0.000000000000000D+00 0.869806099685009D+03
 0.123633408269110D+04 0.000000000000000D+00 0.000000000000000D+00 -.123633408269110D+04
 0.653044366954157D+03 0.724685814821428D+02 -.468627314441469D+03 0.431252466738335D+03
 0.279821432434603D+03 0.107238984844102D+03 0.556640060846033D+02 0.252391268878250D+03
 0.367336848649392D+03 -.388026576580011D+01 0.240528914424139D+02 -.366527983006090D+03
 0.805937534337956D+03 -.175827300560444D+03 0.388910416914451D+03 -.683643735616585D+03
0.547675960259D-05 0.000000000000D+00 0.000000000000D+00 0.189053729435D-05 0.000000000000D+00  6 2 -2 25 1 -1 21 0 0.26525401D+00 0.67432148D-01 0.27116465D+06 0.27116465D+06 0.27116465D+06 0.10878139D+01  1  2  2  2  6  2       -2 0.138720368163D-04 0.100000000000D+01
0.441358586444D-06 0.000000000000D+00 -.210321989379D-07 0.189053729435D-05 0.000000000000D+00  6 2 -2 25 1 -1 21 2 0.26525401D+00 0.67432148D-01 0.27116465D+06 0.27116465D+06 0.27116465D+06 0.10878139D+01  1  2  3  2  6  2       -2 0.132287057206D-05 0.100000000000D+01
-.368558594919D-05 0.000000000000D+00 0.000000000000D+00 0.189053729435D-05 0.000000000000D+00  6 2 -2 25 1 -1 21 2 0.26525401D+00 0.67432148D-01 0.27116465D+06 0.27116465D+06 0.27116465D+06 0.10878139D+01  1  2 15  2  6  2       -2 -.110466938737D-04 0.100000000000D+01
0.107716526869D-07 0.000000000000D+00 0.000000000000D+00 0.189053729435D-05 0.000000000000D+00  6 2 -2 25 1 -1 21 2 0.26525401D+00 0.95914301D-01 0.28217059D+06 0.28217059D+06 0.28217059D+06 0.10865261D+01  1  2 12  2  6  2       -2 0.145149414348D-07 0.100000000000D+01
0.150013347618D-02 0.000000000000D+00 0.000000000000D+00 0.189053729435D-05 0.000000000000D+00  6 2 -2 25 1 -1 21 2 0.26525401D+00 0.96193718D-01 0.28217059D+06 0.28217059D+06 0.28217059D+06 0.10865261D+01  1  2 12  2  6  2       -2 0.200749492827D-02 0.100000000000D+01
-.187953857243D-02 0.000000000000D+00 0.000000000000D+00 0.189053729435D-05 0.000000000000D+00  6 2 -2 25 1 -1 21 2 0.26525401D+00 0.67432148D-01 0.27116465D+06 0.27116465D+06 0.27116465D+06 0.10878139D+01  1  2  4  2  6  2       -2 -.563348339171D-02 0.100000000000D+01
-.151838075005D-02 0.000000000000D+00 -.474568841423D-05 0.189053729435D-05 0.000000000000D+00  6 2 -2 25 1 -1 21 2 0.26525401D+00 0.95921743D-01 0.27116465D+06 0.27116465D+06 0.27116465D+06 0.10878139D+01  1  2  5  2  6  2       -2 -.205555219052D-02 0.100000000000D+01
0.143057612259D-02 0.000000000000D+00 0.446551310503D-05 0.189053729435D-05 0.000000000000D+00  6 2 -2 25 1 -1 21 2 0.26525401D+00 0.67432148D-01 0.27116465D+06 0.27116465D+06 0.27116465D+06 0.10878139D+01  1  2  6  2  6  2       -2 0.428782199279D-02 0.100000000000D+01
0.467558028110D-09 0.000000000000D+00 0.000000000000D+00 0.189053729435D-05 0.000000000000D+00  6 2 21 25 1 2 -1 2 0.26525401D+00 0.95914301D-01 0.28217059D+06 0.28217059D+06 0.28217059D+06 0.10865261D+01  3  4 12  6  5  2       -2 0.585715856888D-08 0.100000000000D+01
0.655030345861D-04 0.000000000000D+00 0.000000000000D+00 0.189053729435D-05 0.000000000000D+00  6 2 21 25 1 2 -1 2 0.26525401D+00 0.96193718D-01 0.28217059D+06 0.28217059D+06 0.28217059D+06 0.10865261D+01  3  4 12  6  5  2       -2 0.814481494617D-03 0.100000000000D+01
-.657822709494D-04 0.000000000000D+00 -.206025711081D-06 0.189053729435D-05 0.000000000000D+00  6 2 21 25 1 2 -1 2 0.26525401D+00 0.95921743D-01 0.27116465D+06 0.27116465D+06 0.27116465D+06 0.10878139D+01  3  4  5  6  5  2       -2 -.828937812823D-03 0.100000000000D+01
  </mgrwgt>
  </event>
  <event>
  6     66 0.18881543E-05 0.31390596E+02 0.75467711E-02 0.93770166E-01
        2 -1    0    0  503    0 0.00000000E+00 0.00000000E+00 0.13994746E+04 0.13994746E+04 0.32000000E+00 0.0000E+00 0.9000E+01
       -2 -1    0    0    0  501 0.00000000E+00 0.00000000E+00 -.56898804E+03 0.56898813E+03 0.32000000E+00 0.0000E+00 0.9000E+01
       25  1    1    2    0    0 0.44751106E+03 -.25791686E+03 0.61717251E+02 0.53499652E+03 0.12500000E+03 0.0000E+00 0.9000E+01
        1  1    1    2  502    0 -.40561776E+03 0.25014004E+03 0.82168689E+03 0.94987644E+03 0.32000000E+00 0.0000E+00 0.9000E+01
       -1  1    1    2    0  501 -.16803401E+01 -.21406807E+02 -.26494662E+03 0.26581552E+03 0.32000000E+00 0.0000E+00 0.9000E+01
       21  1    1    2  503  502 -.40212961E+02 0.29183622E+02 0.21202904E+03 0.21777429E+03 0.75000000E+00 0.0000E+00 0.9000E+01
#aMCatNLO 2  0  0  1  4 0.45445266D+02 0.00000000D+00  -5  6  0 0.00000000D+00 0.00000000D+00 0.00000000D+00 0.00000000D+00 0.00000000D+00
  <mgrwgt>
 0.1016457919D-01    1    2    0
 0.818527895248553D+03 0.000000000000000D+00 0.000000000000000D+00 0.818527895248553D+03
 0.818527895248553D+03 0.000000000000000D+00 0.000000000000000D+00 -.818527895248553D+03
 0.533203775879610D+03 0.434219641652215D+03 -.248269900909453D+03 -.136002300414757D+03
 0.719795430800296D+03 -.423105197508369D+03 0.262832085869980D+03 0.519621736150079D+03
 0.384056583817201D+03 -.111144441438456D+02 -.145621849605275D+02 -.383619435735323D+03
 0.000000000000000D+00 -.000000000000000D+00 0.000000000000000D+00 0.000000000000000D+00
 0.967466992812595D+03 0.000000000000000D+00 0.000000000000000D+00 0.967466992812595D+03
 0.823059253971140D+03 0.000000000000000D+00 0.000000000000000D+00 -.823059253971140D+03
 0.548541450682861D+03 0.447502684609936D+03 -.257909760703337D+03 -.136002300414757D+03
 0.705048172148515D+03 -.405609156554117D+03 0.250134740669497D+03 0.519621736150079D+03
 0.384220020316696D+03 -.168056739954783D+01 -.214086018107378D+02 -.383619435735323D+03
 0.152716603635662D+03 -.402129606562711D+02 0.291836218445772D+02 0.144407738841455D+03
0.405466521738D-02 0.000000000000D+00 0.000000000000D+00 0.555537436122D-04 0.408276939073D-06  6 2 -2 25 1 -1 21 2 0.21530356D+00 0.87536534D-01 0.29112013D+06 0.29112013D+06 0.29112013D+06 0.10855186D+01  1  2  1  1  6  1        2 0.101645791900D-01 0.100000000000D+01
  </mgrwgt>
  </event>
  <event>
  5     66 0.18881543E-05 0.95799628E+02 0.75467711E-02 0.89778301E-01
        2 -1    0    0  502    0 0.00000000E+00 0.00000000E+00 0.16184835E+04 0.16184836E+04 0.32000000E+00 0.0000E+00 0.9000E+01
       -2 -1    0    0    0  501 0.00000000E+00 0.00000000E+00 -.44976736E+03 0.44976748E+03 0.32000000E+00 0.0000E+00 0.9000E+01
       25  1    1    2    0    0 -.62947329E+02 -.46926394E+03 0.30197362E+03 0.57531216E+03 0.12500000E+03 0.0000E+00 0.9000E+01
        1  1    1    2  502    0 0.15615117E+03 0.49137093E+03 0.11141342E+04 0.12276496E+04 0.32000000E+00 0.0000E+00 0.9000E+01
       -1  1    1    2    0  501 -.93203844E+02 -.22106983E+02 -.24739161E+03 0.26528925E+03 0.32000000E+00 0.0000E+00 0.9000E+01
#aMCatNLO 1  0  0  1  4 0.66636077D+02 0.00000000D+00  -5  6  0 0.00000000D+00 0.00000000D+00 0.00000000D+00 0.00000000D+00 0.00000000D+00
  <mgrwgt>
 0.1282819077D-01    4    2    0
 0.853194714259690D+03 0.000000000000000D+00 0.000000000000000D+00 0.853194714259690D+03
 0.853194714259690D+03 0.000000000000000D+00 0.000000000000000D+00 -.853194714259690D+03
 0.490466848545728D+03 -.629316798694151D+02 -.469244968010732D+03 -.279551996558422D+02
 0.724884683443583D+03 0.156145451340578D+03 0.491352920623913D+03 0.509557366457498D+03
 0.491037896530069D+03 -.932137714711632D+02 -.221079526131809D+02 -.481602166801655D+03
 0.000000000000000D+00 0.000000000000000D+00 0.000000000000000D+00 -.000000000000000D+00
 0.989739319140087D+03 0.000000000000000D+00 0.000000000000000D+00 0.989739319140087D+03
 0.124962143425372D+04 0.000000000000000D+00 0.000000000000000D+00 -.124962143425372D+04
 0.615235562759605D+03 -.107573150442206D+03 -.592061079450650D+03 -.279551996558422D+02
 0.621934076089731D+03 0.101769183905646D+03 0.341754763679552D+03 0.509557366457498D+03
 0.517563880512558D+03 -.133934914962528D+03 -.134138592124520D+03 -.481602166801655D+03
 0.484627234031912D+03 0.139738881499088D+03 0.384444907895618D+03 -.259882115113633D+03
0.929253588919D-02 0.000000000000D+00 0.000000000000D+00 0.616285716944D-05 0.000000000000D+00  6 2 -2 25 1 -1 21 0 0.24899748D+00 0.69194990D-01 0.30307002D+06 0.30307002D+06 0.30307002D+06 0.10842249D+01  1  2  2  1  6  1        2 0.252715734583D-01 0.100000000000D+01
0.193988160220D-02 0.000000000000D+00 -.356857845954D-04 0.616285716944D-05 0.000000000000D+00  6 2 -2 25 1 -1 21 2 0.24899748D+00 0.69194990D-01 0.30307002D+06 0.30307002D+06 0.30307002D+06 0.10842249D+01  1  2  3  1  6  1        2 0.620171775153D-02 0.100000000000D+01
-.570414527842D-02 0.000000000000D+00 0.000000000000D+00 0.616285716944D-05 0.000000000000D+00  6 2 -2 25 1 -1 21 2 0.24899748D+00 0.69194990D-01 0.30307002D+06 0.30307002D+06 0.30307002D+06 0.10842249D+01  1  2 15  1  6  1        2 -.182359062483D-01 0.100000000000D+01
-.127994906504D-03 0.000000000000D+00 0.000000000000D+00 0.616285716944D-05 0.000000000000D+00  6 2 -2 25 1 -1 21 2 0.24899748D+00 0.69194990D-01 0.30307002D+06 0.30307002D+06 0.30307002D+06 0.10842249D+01  1  2  4  1  6  1        2 -.409194191475D-03 0.100000000000D+01
  </mgrwgt>
  </event>
  <event>
  5     66 0.18881543E-05 0.10452526E+02 0.75467711E-02 0.94012984E-01
        2 -1    0    0  502    0 0.00000000E+00 0.00000000E+00 0.66846471E+03 0.66846479E+03 0.32000000E+00 0.0000E+00 0.9000E+01
       -2 -1    0    0    0  501 0.00000000E+00 0.00000000E+00 -.89785038E+03 0.89785044E+03 0.32000000E+00 0.0000E+00 0.9000E+01
       25  1    1    2    0    0 0.55942152E+01 0.50259975E+03 -.74132516E+02 0.52321930E+03 0.12500000E+03 0.0000E+00 0.9000E+01
        1  1    1    2  502    0 -.57363908E+01 -.49214975E+03 0.30742114E+03 0.58030350E+03 0.32000000E+00 0.0000E+00 0.9000E+01
       -1  1    1    2    0  501 0.14217566E+00 -.10449999E+02 -.46267430E+03 0.46279243E+03 0.32000000E+00 0.0000E+00 0.9000E+01
#aMCatNLO 1  0  0  2  4 0.28742232D+03 0.00000000D+00  -5  6  0 0.00000000D+00 0.00000000D+00 0.00000000D+00 0.00000000D+00 0.00000000D+00
  <mgrwgt>
 0.1139662643D-01    7    4    0
 0.774713754202301D+03 0.000000000000000D+00 0.000000000000000D+00 0.774713754202301D+03
 0.774713754202301D+03 0.000000000000000D+00 0.000000000000000D+00 -.774713754202301D+03
 0.517921853236423D+03 0.559387166570655D+01 0.502573353965601D+03 0.260356359728220D+01
 0.632104719079328D+03 -.573606495327109D+01 -.492121795490808D+03 0.396660575106869D+03
 0.399400936088851D+03 0.142193287564548D+00 -.104515584747928D+02 -.399264138704151D+03
 0.000000000000000D+00 0.000000000000000D+00 0.000000000000000D+00 -.000000000000000D+00
 0.775462418663124D+03 0.000000000000000D+00 0.000000000000000D+00 0.775462418663124D+03
 0.105805759413515D+04 0.000000000000000D+00 0.000000000000000D+00 -.105805759413515D+04
 0.510213816549623D+03 0.156525533170730D+01 0.494655344690092D+03 0.260356359728220D+01
 0.639824620563780D+03 -.107199551770637D+02 -.501917339605313D+03 0.396660575106869D+03
 0.399620461689635D+03 -.298866847406967D+01 -.166050837583347D+02 -.399264138704151D+03
 0.283861113995240D+03 0.121433683194260D+02 0.238670786735553D+02 -.282595175472030D+03
 0.774713754202301D+03 0.000000000000000D+00 0.000000000000000D+00 0.774713754202301D+03
 0.774713754202301D+03 0.000000000000000D+00 0.000000000000000D+00 -.774713754202301D+03
 0.517921853236423D+03 0.559387166570655D+01 0.502573353965601D+03 0.260356359728220D+01
 0.632104719079328D+03 -.573606495327109D+01 -.492121795490808D+03 0.396660575106869D+03
 0.000000000000000D+00 0.000000000000000D+00 0.000000000000000D+00 -.000000000000000D+00
 0.399400936088851D+03 0.142193287564548D+00 -.104515584747928D+02 -.399264138704151D+03
 0.775462418663124D+03 0.000000000000000D+00 0.000000000000000D+00 0.775462418663124D+03
 0.105805759413515D+04 0.000000000000000D+00 0.000000000000000D+00 -.105805759413515D+04
 0.510213816549623D+03 0.156525533170730D+01 0.494655344690092D+03 0.260356359728220D+01
 0.639824620563780D+03 -.107199551770637D+02 -.501917339605313D+03 0.396660575106869D+03
 0.283861113995240D+03 0.121433683194260D+02 0.238670786735553D+02 -.282595175472030D+03
 0.399620461689635D+03 -.298866847406967D+01 -.166050837583347D+02 -.399264138704151D+03
0.826341352083D-04 0.000000000000D+00 0.000000000000D+00 0.402543826487D-04 0.000000000000D+00  6 2 -2 25 1 -1 21 0 0.10284074D+00 0.13813084D+00 0.26036683D+06 0.26036683D+06 0.26036683D+06 0.10891341D+01  1  2  2  2  6  2       -2 0.163845951815D-03 0.100000000000D+01
0.830734577881D-04 0.000000000000D+00 -.317336837268D-06 0.402543826487D-04 0.000000000000D+00  6 2 -2 25 1 -1 21 2 0.10284074D+00 0.13813084D+00 0.26036683D+06 0.26036683D+06 0.26036683D+06 0.10891341D+01  1  2  3  2  6  2       -2 0.195389506825D-03 0.100000000000D+01
-.532003581287D-04 0.000000000000D+00 0.000000000000D+00 0.402543826487D-04 0.000000000000D+00  6 2 -2 25 1 -1 21 2 0.10284074D+00 0.13813084D+00 0.26036683D+06 0.26036683D+06 0.26036683D+06 0.10891341D+01  1  2 15  2  6  2       -2 -.125127712442D-03 0.100000000000D+01
-.175788448031D-03 0.000000000000D+00 0.000000000000D+00 0.402543826487D-04 0.000000000000D+00  6 2 -2 25 1 -1 21 2 0.10284074D+00 0.13813084D+00 0.26036683D+06 0.26036683D+06 0.26036683D+06 0.10891341D+01  1  2  4  2  6  2       -2 -.413455983183D-03 0.100000000000D+01
-.119593523858D-01 0.000000000000D+00 -.723843111253D-04 0.402543826487D-04 0.000000000000D+00  6 2 -2 25 1 -1 21 2 0.10284074D+00 0.18871378D+00 0.26036683D+06 0.26036683D+06 0.26036683D+06 0.10891341D+01  1  2  5  2  6  2       -2 -.115874971197D-01 0.100000000000D+01
0.114246304743D-01 0.000000000000D+00 0.689980476042D-04 0.402543826487D-04 0.000000000000D+00  6 2 -2 25 1 -1 21 2 0.10284074D+00 0.13813084D+00 0.26036683D+06 0.26036683D+06 0.26036683D+06 0.10891341D+01  1  2  6  2  6  2       -2 0.268708318333D-01 0.100000000000D+01
-.473873616554D-03 0.000000000000D+00 -.287856949255D-05 0.402543826487D-04 0.000000000000D+00  6 2 21 25 1 2 -1 2 0.10284074D+00 0.18871378D+00 0.26036683D+06 0.26036683D+06 0.26036683D+06 0.10891341D+01  3  4  5  6  5  2       -2 -.370736004501D-02 0.100000000000D+01
  </mgrwgt>
  </event>
  <event>
  6     66 0.18881543E-05 0.62247211E+02 0.75467711E-02 0.94309968E-01
        2 -1    0    0  502    0 0.00000000E+00 0.00000000E+00 0.86106875E+03 0.86106881E+03 0.32000000E+00 0.0000E+00 0.9000E+01
       -2 -1    0    0    0  501 0.00000000E+00 0.00000000E+00 -.79964906E+03 0.79964912E+03 0.32000000E+00 0.0000E+00 0.9000E+01
       25  1    1    2    0    0 -.10284744E+03 -.44956486E+03 -.12845034E+03 0.49478344E+03 0.12500000E+03 0.0000E+00 0.9000E+01
        1  1    1    2  502    0 -.82991335E+02 0.24566120E+02 0.56158630E+03 0.56821680E+03 0.32000000E+00 0.0000E+00 0.9000E+01
       -1  1    1    2    0  503 0.11393821E+03 0.26602741E+03 -.19237216E+03 0.34750489E+03 0.32000000E+00 0.0000E+00 0.9000E+01
       21  1    1    2  503  501 0.71900566E+02 0.15897134E+03 -.17934411E+03 0.25021281E+03 0.75000000E+00 0.0000E+00 0.9000E+01
#aMCatNLO 2  0  0  5  2 0.30954064D+02 0.00000000D+00  -5  6  0 0.00000000D+00 0.00000000D+00 0.00000000D+00 0.00000000D+00 0.00000000D+00
  <mgrwgt>
 0.3127263990D-02    3    2    0
 0.829790888056657D+03 0.000000000000000D+00 0.000000000000000D+00 0.829790888056657D+03
 0.829790888056657D+03 -.000000000000000D+00 -.000000000000000D+00 -.829790888056657D+03
 0.500395281215950D+03 -.103164679746584D+03 -.450285354238192D+03 -.146186819086268D+03
 0.548466016120371D+03 -.833084573037587D+02 0.238200146219394D+02 0.541578506482698D+03
 0.610720478776991D+03 0.186473137050342D+03 0.426465339616252D+03 -.395391687396430D+03
 0.000000000000000D+00 0.000000000000000D+00 0.000000000000000D+00 -.000000000000000D+00
 0.829790888056657D+03 0.000000000000000D+00 0.000000000000000D+00 0.829790888056657D+03
 0.829790888056657D+03 -.000000000000000D+00 -.000000000000000D+00 -.829790888056657D+03
 0.499907853074637D+03 -.102867887255093D+03 -.449606587780560D+03 -.146816128411318D+03
 0.547768508007178D+03 -.829832017242040D+02 0.245638763566161D+02 0.540888844934287D+03
 0.354573868254796D+03 0.113853655687262D+03 0.265845502239421D+03 -.205149072810204D+03
 0.257331546776701D+03 0.719974332920345D+02 0.159197209184523D+03 -.188923643712765D+03
-.489825498766D-08 0.000000000000D+00 0.000000000000D+00 0.894207590745D-05 0.000000000000D+00  6 2 -2 25 1 -1 21 2 0.13247213D+00 0.12302294D+00 0.26436353D+06 0.26436353D+06 0.26436353D+06 0.10886386D+01  1  2 13  4  6  5       -1 -.113376004312D-07 0.100000000000D+01
-.423333016355D-02 0.000000000000D+00 0.000000000000D+00 0.894207590745D-05 0.000000000000D+00  6 2 -2 25 1 -1 21 2 0.13247213D+00 0.12302294D+00 0.26436353D+06 0.26436353D+06 0.26436353D+06 0.10886386D+01  1  2 13  4  6  5       -1 -.979855193504D-02 0.100000000000D+01
0.558442663810D-02 0.000000000000D+00 0.000000000000D+00 0.894207590745D-05 0.300540981495D-07  6 2 -2 25 1 -1 21 2 0.13247213D+00 0.12302294D+00 0.26436353D+06 0.26436353D+06 0.26436353D+06 0.10886386D+01  1  2  1  4  6  5       -1 0.129258272629D-01 0.100000000000D+01
  </mgrwgt>
  </event>
  <event>
  5     66 0.18881543E-05 0.18585922E+03 0.75467711E-02 0.88966690E-01
        2 -1    0    0  502    0 0.00000000E+00 0.00000000E+00 0.44176786E+04 0.44176786E+04 0.32000000E+00 0.0000E+00 0.9000E+01
       -2 -1    0    0    0  501 0.00000000E+00 0.00000000E+00 -.13479686E+04 0.13479686E+04 0.32000000E+00 0.0000E+00 0.9000E+01
       25  1    1    2    0    0 0.21858936E+03 -.60273361E+03 0.65974135E+03 0.92841411E+03 0.12500000E+03 0.0000E+00 0.9000E+01
        1  1    1    2  502    0 0.18208388E+03 0.37298023E+02 0.35220207E+04 0.35269216E+04 0.32000000E+00 0.0000E+00 0.9000E+01
       -1  1    1    2    0  501 -.40067324E+03 0.56543559E+03 -.11120521E+04 0.13103115E+04 0.32000000E+00 0.0000E+00 0.9000E+01
#aMCatNLO 1  0  0  1  4 0.58988268D+02 0.00000000D+00  -5  6  0 0.00000000D+00 0.00000000D+00 0.00000000D+00 0.00000000D+00 0.00000000D+00
  <mgrwgt>
 0.3548033641D-03    7    2    0
 0.244026475871478D+04 0.000000000000000D+00 0.000000000000000D+00 0.244026475871478D+04
 0.244026475871478D+04 0.000000000000000D+00 0.000000000000000D+00 -.244026475871478D+04
 0.681882365582098D+03 0.218616605151281D+03 -.602766293806559D+03 0.195494591983186D+03
 0.195124793687589D+04 0.182078526362814D+03 0.372969260360295D+02 0.194237608632011D+04
 0.224739921497158D+04 -.400695131514095D+03 0.565469367770529D+03 -.213787067830329D+04
 0.000000000000000D+00 -.000000000000000D+00 0.000000000000000D+00 0.000000000000000D+00
 0.258171490256641D+04 0.000000000000000D+00 0.000000000000000D+00 0.258171490256641D+04
 0.251672380772825D+04 0.000000000000000D+00 0.000000000000000D+00 -.251672380772825D+04
 0.709202916542210D+03 0.227651150927365D+03 -.630317852213271D+03 0.195494591983186D+03
 0.195383216169147D+04 0.207440468842650D+03 -.400463136640320D+02 0.194237608632011D+04
 0.222173697072221D+04 -.371669869031591D+03 0.476954545401292D+03 -.213787067830329D+04
 0.213666661338788D+03 -.634217507384246D+02 0.193409620476011D+03 0.649910948381601D+02
0.491520830187D-01 0.000000000000D+00 0.000000000000D+00 0.704736856607D-04 0.000000000000D+00  6 2 -2 25 1 -1 21 0 0.67964287D+00 0.20737978D+00 0.58688038D+06 0.58688038D+06 0.58688038D+06 0.10636274D+01  1  2  2  1  6  1        2 0.938507312073D-04 0.100000000000D+01
0.102254483732D-01 0.000000000000D+00 -.188756940832D-03 0.704736856607D-04 0.000000000000D+00  6 2 -2 25 1 -1 21 2 0.67964287D+00 0.20737978D+00 0.58688038D+06 0.58688038D+06 0.58688038D+06 0.10636274D+01  1  2  3  1  6  1        2 0.220880355437D-04 0.100000000000D+01
-.347730315637D-01 0.000000000000D+00 0.000000000000D+00 0.704736856607D-04 0.000000000000D+00  6 2 -2 25 1 -1 21 2 0.67964287D+00 0.20737978D+00 0.58688038D+06 0.58688038D+06 0.58688038D+06 0.10636274D+01  1  2 15  1  6  1        2 -.751133768526D-04 0.100000000000D+01
-.969901372050D-03 0.000000000000D+00 0.000000000000D+00 0.704736856607D-04 0.000000000000D+00  6 2 -2 25 1 -1 21 2 0.67964287D+00 0.20737978D+00 0.58688038D+06 0.58688038D+06 0.58688038D+06 0.10636274D+01  1  2  4  1  6  1        2 -.209508817588D-05 0.100000000000D+01
-.291424464226D+00 0.000000000000D+00 -.729685001424D-01 0.704736856607D-04 0.000000000000D+00  6 2 -2 25 1 -1 21 2 0.72241374D+00 0.20737978D+00 0.58688038D+06 0.58688038D+06 0.58688038D+06 0.10636274D+01  1  2  5  1  6  1        2 -.325166023060D-03 0.100000000000D+01
0.296869466799D+00 0.000000000000D+00 0.788249628319D-01 0.704736856607D-04 0.000000000000D+00  6 2 -2 25 1 -1 21 2 0.67964287D+00 0.20737978D+00 0.58688038D+06 0.58688038D+06 0.58688038D+06 0.10636274D+01  1  2  6  1  6  1        2 0.641269027546D-03 0.100000000000D+01
-.295563041669D-02 0.000000000000D+00 -.763663180287D-03 0.704736856607D-04 0.000000000000D+00  6 21 -2 25 1 -1 -2 2 0.72241374D+00 0.20737978D+00 0.58688038D+06 0.58688038D+06 0.58688038D+06 0.10636274D+01  1  2  5  5  6  1        2 -.299421466619D-07 0.100000000000D+01
  </mgrwgt>
  </event>
  <event>
  5     66 0.18881543E-05 0.21554938E+02 0.75467711E-02 0.95258474E-01
        2 -1    0    0  502    0 0.00000000E+00 0.00000000E+00 0.12033479E+04 0.12033479E+04 0.32000000E+00 0.0000E+00 0.9000E+01
       -2 -1    0    0    0  501 0.00000000E+00 0.00000000E+00 -.33470553E+03 0.33470569E+03 0.32000000E+00 0.0000E+00 0.9000E+01
       25  1    1    2    0    0 0.46313484E+03 0.24619208E+02 0.15250282E+03 0.50396636E+03 0.12500000E+03 0.0000E+00 0.9000E+01
        1  1    1    2  502    0 -.20301797E+02 0.72752911E+01 0.56451971E+03 0.56493159E+03 0.32000000E+00 0.0000E+00 0.9000E+01
       -1  1    1    2    0  501 -.44283304E+03 -.31894499E+02 0.15161981E+03 0.46915566E+03 0.32000000E+00 0.0000E+00 0.9000E+01
#aMCatNLO 1  0  0  5  2 0.30954064D+02 0.00000000D+00  -5  6  0 0.00000000D+00 0.00000000D+00 0.00000000D+00 0.00000000D+00 0.00000000D+00
  <mgrwgt>
 0.1366496822D-01    6    2    0
 0.634639537747357D+03 0.000000000000000D+00 0.000000000000000D+00 0.634639537747357D+03
 0.634639537747357D+03 -.000000000000000D+00 -.000000000000000D+00 -.634639537747357D+03
 0.506381471963229D+03 0.463236394197817D+03 0.246278601073313D+02 -.160008458353878D+03
 0.298070600658898D+03 -.202913737307954D+02 0.727155578327288D+01 0.297290207719265D+03
 0.464827002872588D+03 -.442945020467021D+03 -.318994158906043D+02 -.137281749365387D+03
 0.000000000000000D+00 0.000000000000000D+00 0.000000000000000D+00 -.000000000000000D+00
 0.634639537747357D+03 0.000000000000000D+00 0.000000000000000D+00 0.634639537747357D+03
 0.634639537747357D+03 -.000000000000000D+00 -.000000000000000D+00 -.634639537747357D+03
 0.474325285990421D+03 0.423281880020848D+03 0.217504698996383D+02 -.172391542817668D+03
 0.293254552146273D+03 -.443822745116274D+02 0.553660984714568D+01 0.289823725762896D+03
 0.186836250960871D+03 -.127300085751012D+03 0.135233307480031D+03 -.203574406276876D+02
 0.314862986397149D+03 -.251599519758208D+03 -.162520387226815D+03 -.970747423175402D+02
0.161973142358D-02 0.000000000000D+00 0.000000000000D+00 0.729960876199D-05 0.000000000000D+00  6 2 -2 25 1 -1 21 0 0.18513046D+00 0.51493174D-01 0.22376868D+06 0.22376868D+06 0.22376868D+06 0.10940993D+01  1  2  2  4  6  5       -1 0.140240143297D-01 0.100000000000D+01
0.944847905446D-03 0.000000000000D+00 -.622019515163D-05 0.729960876199D-05 0.000000000000D+00  6 2 -2 25 1 -1 21 2 0.18513046D+00 0.51493174D-01 0.22376868D+06 0.22376868D+06 0.22376868D+06 0.10940993D+01  1  2  3  4  6  5       -1 0.979275132311D-02 0.100000000000D+01
-.111837388959D-02 0.000000000000D+00 0.000000000000D+00 0.729960876199D-05 0.000000000000D+00  6 2 -2 25 1 -1 21 2 0.18513046D+00 0.51493174D-01 0.22376868D+06 0.22376868D+06 0.22376868D+06 0.10940993D+01  1  2 15  4  6  5       -1 -.115912384669D-01 0.100000000000D+01
-.227303363547D-03 0.000000000000D+00 0.000000000000D+00 0.729960876199D-05 0.000000000000D+00  6 2 -2 25 1 -1 21 2 0.18513046D+00 0.51493174D-01 0.22376868D+06 0.22376868D+06 0.22376868D+06 0.10940993D+01  1  2  4  4  6  5       -1 -.235585568988D-02 0.100000000000D+01
-.451272954835D-03 0.000000000000D+00 0.000000000000D+00 0.729960876199D-05 0.000000000000D+00  6 2 -2 25 1 -1 21 2 0.18513046D+00 0.51493174D-01 0.22376868D+06 0.22376868D+06 0.22376868D+06 0.10940993D+01  1  2  5  4  6  5       -1 -.467715893751D-02 0.100000000000D+01
0.817459947975D-03 0.000000000000D+00 -.000000000000D+00 0.729960876199D-05 0.000000000000D+00  6 2 -2 25 1 -1 21 2 0.18513046D+00 0.51493174D-01 0.22376868D+06 0.22376868D+06 0.22376868D+06 0.10940993D+01  1  2  6  4  6  5       -1 0.847245566295D-02 0.100000000000D+01
  </mgrwgt>
  </event>
  <event>
  5     66 0.18881543E-05 0.39414125E+02 0.75467711E-02 0.92862478E-01
        2 -1    0    0  502    0 0.00000000E+00 0.00000000E+00 0.31727847E+04 0.31727847E+04 0.32000000E+00 0.0000E+00 0.9000E+01
       -2 -1    0    0    0  501 0.00000000E+00 0.00000000E+00 -.11872749E+04 0.11872749E+04 0.32000000E+00 0.0000E+00 0.9000E+01
       25  1    1    2    0    0 -.36333082E+03 -.43536282E+03 0.21228114E+03 0.61825428E+03 0.12500000E+03 0.0000E+00 0.9000E+01
        1  1    1    2  502    0 0.38018789E+03 0.39973809E+03 0.27295158E+04 0.27847065E+04 0.32000000E+00 0.0000E+00 0.9000E+01
       -1  1    1    2    0  501 -.16857064E+02 0.35624728E+02 -.95628709E+03 0.95709894E+03 0.32000000E+00 0.0000E+00 0.9000E+01
#aMCatNLO 1  0  0  1  4 0.12521991D+02 0.00000000D+00  -5  6  0 0.00000000D+00 0.00000000D+00 0.00000000D+00 0.00000000D+00 0.00000000D+00
  <mgrwgt>
 0.4655287391D-01    4    2    0
 0.194086777765530D+04 0.000000000000000D+00 0.000000000000000D+00 0.194086777765530D+04
 0.194086777765530D+04 0.000000000000000D+00 0.000000000000000D+00 -.194086777765530D+04
 0.585841216217854D+03 -.363324366863541D+03 -.435359284357558D+03 -.777343462473023D+02
 0.173167611333867D+04 0.380182405974495D+03 0.399732331532285D+03 0.164145592777355D+04
 0.156421822575407D+04 -.168580391109540D+02 0.356269528252733D+02 -.156372158152625D+04
 0.000000000000000D+00 -.000000000000000D+00 -.000000000000000D+00 -.000000000000000D+00
 0.249733017148049D+04 0.000000000000000D+00 0.000000000000000D+00 0.249733017148049D+04
 0.276252921717667D+04 0.000000000000000D+00 0.000000000000000D+00 -.276252921717667D+04
 0.455038116921678D+03 -.225318817749240D+03 -.366910737963903D+03 -.777343462473023D+02
 0.196605521674609D+04 0.870448113476151D+03 0.642896285739308D+03 0.164145592777355D+04
 0.163449618151709D+04 0.407245239896228D+03 0.245975400080689D+03 -.156372158152625D+04
 0.120426987347231D+04 -.105237453562314D+04 -.521960947856093D+03 -.265199045696181D+03
0.159713782274D+01 0.000000000000D+00 0.000000000000D+00 0.222658495383D-02 0.000000000000D+00  6 2 -2 25 1 -1 21 0 0.48812073D+00 0.18265768D+00 0.34323865D+06 0.34323865D+06 0.34323865D+06 0.10802520D+01  1  2  2  1  6  1        2 0.461950578003D-01 0.100000000000D+01
0.102387018364D+01 0.000000000000D+00 -.613342977535D-02 0.222658495383D-02 0.000000000000D+00  6 2 -2 25 1 -1 21 2 0.48812073D+00 0.18265768D+00 0.34323865D+06 0.34323865D+06 0.34323865D+06 0.10802520D+01  1  2  3  1  6  1        2 0.345579639097D-01 0.100000000000D+01
-.100913645008D+01 0.000000000000D+00 0.000000000000D+00 0.222658495383D-02 0.000000000000D+00  6 2 -2 25 1 -1 21 2 0.48812073D+00 0.18265768D+00 0.34323865D+06 0.34323865D+06 0.34323865D+06 0.10802520D+01  1  2 15  1  6  1        2 -.340606666537D-01 0.100000000000D+01
-.413249435637D-02 0.000000000000D+00 0.000000000000D+00 0.222658495383D-02 0.000000000000D+00  6 2 -2 25 1 -1 21 2 0.48812073D+00 0.18265768D+00 0.34323865D+06 0.34323865D+06 0.34323865D+06 0.10802520D+01  1  2  4  1  6  1        2 -.139481150156D-03 0.100000000000D+01
  </mgrwgt>
  </event>
  <event>
  5     66 0.18881543E-05 0.63147220E+02 0.75467711E-02 0.91268558E-01
        2 -1    0    0  502    0 0.00000000E+00 0.00000000E+00 0.16128397E+04 0.16128398E+04 0.32000000E+00 0.0000E+00 0.9000E+01
       -2 -1    0    0    0  501 0.00000000E+00 0.00000000E+00 -.10558429E+04 0.10558429E+04 0.32000000E+00 0.0000E+00 0.9000E+01
       25  1    1    2    0    0 -.46420761E+03 0.31093309E+03 0.68748049E+01 0.57257345E+03 0.12500000E+03 0.0000E+00 0.9000E+01
        1  1    1    2  502    0 0.60701080E+02 -.17419298E+02 0.12417088E+04 0.12433137E+04 0.32000000E+00 0.0000E+00 0.9000E+01
       -1  1    1    2    0  501 0.40350653E+03 -.29351379E+03 -.69158678E+03 0.85279554E+03 0.32000000E+00 0.0000E+00 0.9000E+01
#aMCatNLO 1  0  0  5  4 0.40472194D+02 0.00000000D+00  -5  6  0 0.00000000D+00 0.00000000D+00 0.00000000D+00 0.00000000D+00 0.00000000D+00
  <mgrwgt>
 0.4628494902D-02    4    2    0
 0.130495420131374D+04 0.000000000000000D+00 0.000000000000000D+00 0.130495420131374D+04
 0.130495420131374D+04 -.000000000000000D+00 -.000000000000000D+00 -.130495420131374D+04
 0.584037104516148D+03 -.464248032496670D+03 0.310963158893838D+03 -.115108720718035D+03
 0.100625106311251D+04 0.606974138764446D+02 -.174182458461561D+02 0.100426770866907D+04
 0.101962023499882D+04 0.403550618620226D+03 -.293544913047682D+03 -.889158987951033D+03
 0.000000000000000D+00 0.000000000000000D+00 0.000000000000000D+00 0.000000000000000D+00
 0.130495420131374D+04 0.000000000000000D+00 0.000000000000000D+00 0.130495420131374D+04
 0.130495420131374D+04 -.000000000000000D+00 -.000000000000000D+00 -.130495420131374D+04
 0.557862330119676D+03 -.395421824004082D+03 0.260898600805844D+03 -.266756219356534D+03
 0.790014541672464D+03 0.168964523284747D+03 -.961723295986400D+02 0.765718518089175D+03
 0.773348320030736D+03 -.201820800454610D+03 -.141003197991154D+03 -.733112601688506D+03
 0.488683210804604D+03 0.428278101173946D+03 -.237230732160500D+02 0.234150302955864D+03
0.177485188762D-01 0.000000000000D+00 0.000000000000D+00 0.201159355333D-03 0.000000000000D+00  6 2 -2 25 1 -1 21 0 0.24812920D+00 0.16243737D+00 0.32191397D+06 0.32191397D+06 0.32191397D+06 0.10822938D+01  1  2  2  4  6  5       -1 0.586847895580D-02 0.100000000000D+01
0.751227688900D-02 0.000000000000D+00 -.681589857770D-04 0.201159355333D-03 0.000000000000D+00  6 2 -2 25 1 -1 21 2 0.24812920D+00 0.16243737D+00 0.32191397D+06 0.32191397D+06 0.32191397D+06 0.10822938D+01  1  2  3  4  6  5       -1 0.290954697727D-02 0.100000000000D+01
-.106938944927D-01 0.000000000000D+00 0.000000000000D+00 0.201159355333D-03 0.000000000000D+00  6 2 -2 25 1 -1 21 2 0.24812920D+00 0.16243737D+00 0.32191397D+06 0.32191397D+06 0.32191397D+06 0.10822938D+01  1  2 15  4  6  5       -1 -.414180532163D-02 0.100000000000D+01
-.199473205706D-04 0.000000000000D+00 0.000000000000D+00 0.201159355333D-03 0.000000000000D+00  6 2 -2 25 1 -1 21 2 0.24812920D+00 0.16243737D+00 0.32191397D+06 0.32191397D+06 0.32191397D+06 0.10822938D+01  1  2  4  4  6  5       -1 -.772570914629D-05 0.100000000000D+01
  </mgrwgt>
  </event>
  <event>
  6     66 0.18881543E-05 0.11500138E+03 0.75467711E-02 0.94379921E-01
        2 -1    0    0  502    0 0.00000000E+00 0.00000000E+00 0.73776030E+03 0.73776037E+03 0.32000000E+00 0.0000E+00 0.9000E+01
       -2 -1    0    0    0  501 0.00000000E+00 0.00000000E+00 -.62536143E+03 0.62536151E+03 0.32000000E+00 0.0000E+00 0.9000E+01
       25  1    1    2    0    0 0.46310005E+03 -.36671193E+01 0.14056889E+03 0.49985970E+03 0.12500000E+03 0.0000E+00 0.9000E+01
        1  1    1    2  503    0 -.46360337E+02 -.89593921E+02 0.20906014E+03 0.23212625E+03 0.32000000E+00 0.0000E+00 0.9000E+01
       -1  1    1    2    0  501 -.40372337E+03 0.11131414E+03 -.33160003E+03 0.53417421E+03 0.32000000E+00 0.0000E+00 0.9000E+01
       21  1    1    2  502  503 -.13016342E+02 -.18053098E+02 0.94369879E+02 0.96961724E+02 0.75000000E+00 0.0000E+00 0.9000E+01
#aMCatNLO 2  0  0  4  1 0.15171063D+02 0.00000000D+00  -5  6  0 0.00000000D+00 0.00000000D+00 0.00000000D+00 0.00000000D+00 0.00000000D+00
  <mgrwgt>
 0.4631062221D-02    3    2    0
 0.679239971768568D+03 0.000000000000000D+00 0.000000000000000D+00 0.679239971768568D+03
 0.679239971768568D+03 -.000000000000000D+00 -.000000000000000D+00 -.679239971768568D+03
 0.490268342486972D+03 0.463473806811129D+03 -.365481444362318D+01 0.995827313157550D+02
 0.304123156826436D+03 -.595430759579087D+02 -.107948690037880D+03 0.278015461697103D+03
 0.564088444223727D+03 -.403930730853221D+03 0.111603504481503D+03 -.377598193012858D+03
 0.000000000000000D+00 0.000000000000000D+00 0.000000000000000D+00 0.000000000000000D+00
 0.679239971768568D+03 0.000000000000000D+00 0.000000000000000D+00 0.679239971768568D+03
 0.679239971768568D+03 -.000000000000000D+00 -.000000000000000D+00 -.679239971768568D+03
 0.490270931670398D+03 0.463344370232835D+03 -.388947664145395D+01 0.100187089916586D+03
 0.214999214941467D+03 -.462374887984106D+02 -.893703177404356D+02 0.189999219372179D+03
 0.563676713484063D+03 -.404079602058057D+03 0.111333608254479D+03 -.376903091255344D+03
 0.895330834412071D+02 -.130272793763668D+02 -.180738138725889D+02 0.867167819665793D+02
-.208669858305D-07 0.000000000000D+00 0.000000000000D+00 0.106666882897D-05 0.000000000000D+00  6 2 -2 25 1 -1 21 2 0.11350160D+00 0.96209462D-01 0.26110262D+06 0.26110262D+06 0.26110262D+06 0.10890423D+01  1  2 13  3  6  4        1 -.108435940137D-06 0.100000000000D+01
-.614742486912D-03 0.000000000000D+00 0.000000000000D+00 0.106666882897D-05 0.000000000000D+00  6 2 -2 25 1 -1 21 2 0.11350160D+00 0.96209462D-01 0.26110262D+06 0.26110262D+06 0.26110262D+06 0.10890423D+01  1  2 13  3  6  4        1 -.319452843125D-02 0.100000000000D+01
0.150594675323D-02 0.000000000000D+00 0.000000000000D+00 0.106666882897D-05 0.416865808994D-07  6 2 -2 25 1 -1 21 2 0.11350160D+00 0.96209462D-01 0.26110262D+06 0.26110262D+06 0.26110262D+06 0.10890423D+01  1  2  1  3  6  4        1 0.782569908794D-02 0.100000000000D+01
  </mgrwgt>
  </event>
  <event>
  5     66 -.18881543E-05 0.18350454E+02 0.75467711E-02 0.94470261E-01
        2 -1    0    0  502    0 0.00000000E+00 0.00000000E+00 0.18549813E+04 0.18549813E+04 0.32000000E+00 0.0000E+00 0.9000E+01
       -2 -1    0    0    0  501 0.00000000E+00 0.00000000E+00 -.73687089E+03 0.73687096E+03 0.32000000E+00 0.0000E+00 0.9000E+01
       25  1    1    2    0    0 0.10981414E+03 0.48697410E+03 -.17932289E+03 0.54496295E+03 0.12500000E+03 0.0000E+00 0.9000E+01
        1  1    1    2  502    0 -.10608941E+03 -.46900573E+03 0.16373394E+04 0.17064881E+04 0.32000000E+00 0.0000E+00 0.9000E+01
       -1  1    1    2    0  501 -.37247280E+01 -.17968370E+02 -.33990608E+03 0.34040121E+03 0.32000000E+00 0.0000E+00 0.9000E+01
#aMCatNLO 1  0  0  4  1 0.15171063D+02 0.00000000D+00  -5  6  0 0.00000000D+00 0.00000000D+00 0.00000000D+00 0.00000000D+00 0.00000000D+00
  <mgrwgt>
 -.3960703952D-01    1    2    0
 0.116913721735710D+04 0.000000000000000D+00 0.000000000000000D+00 0.116913721735710D+04
 0.116913721735710D+04 -.000000000000000D+00 -.000000000000000D+00 -.116913721735710D+04
 0.689813337114949D+03 0.109814222733381D+03 0.486974445356360D+03 -.459362782685963D+03
 0.110861248704702D+04 -.106089473676255D+03 -.469005989770213D+03 0.998899420147661D+03
 0.539848610552223D+03 -.372474905712644D+01 -.179684555861470D+02 -.539536637461698D+03
 0.000000000000000D+00 0.000000000000000D+00 0.000000000000000D+00 -.000000000000000D+00
 0.116913721735710D+04 0.000000000000000D+00 0.000000000000000D+00 0.116913721735710D+04
 0.116913721735710D+04 -.000000000000000D+00 -.000000000000000D+00 -.116913721735710D+04
 0.645885513813430D+03 0.105183257414202D+03 0.466501627480564D+03 -.415759318442487D+03
 0.146302537255680D+03 0.145901597208371D+03 -.104081019985121D+02 0.297115335925083D+01
 0.506572814361700D+03 -.735276844536957D+01 -.340073967282345D+02 -.505376542801792D+03
 0.103951356928338D+04 -.243732086177204D+03 -.422086128753817D+03 0.918164707885028D+03
-.515085069622D-01 0.000000000000D+00 0.000000000000D+00 0.435867656396D-03 0.000000000000D+00  6 2 -2 25 1 -1 21 2 0.28538174D+00 0.11336476D+00 0.25695785D+06 0.25695785D+06 0.25695785D+06 0.10895634D+01  1  2 14  3  6  4        1 -.396070395209D-01 0.100000000000D+01
  </mgrwgt>
  </event>
  <event>
  6     66 0.18881543E-05 0.23189288E+03 0.75467711E-02 0.93417927E-01
        2 -1    0    0  502    0 0.00000000E+00 0.00000000E+00 0.53086321E+03 0.53086331E+03 0.32000000E+00 0.0000E+00 0.9000E+01
       21 -1    0    0  503  501 0.00000000E+00 0.00000000E+00 -.96120137E+03 0.96120166E+03 0.75000000E+00 0.0000E+00 0.9000E+01
       25  1    1    2    0    0 0.26076588E+03 0.42979351E+03 0.69230968E+02 0.52262724E+03 0.12500000E+03 0.0000E+00 0.9000E+01
        1  1    1    2  502    0 -.11039837E+02 -.79343326E+01 0.74631958E+02 0.75860814E+02 0.32000000E+00 0.0000E+00 0.9000E+01
        2  1    1    2  503    0 0.38762564E+02 -.23549858E+03 -.48218131E+03 0.53801583E+03 0.32000000E+00 0.0000E+00 0.9000E+01
       -1  1    1    2    0  501 -.28848860E+03 -.18636060E+03 -.92019771E+02 0.35556109E+03 0.32000000E+00 0.0000E+00 0.9000E+01
#aMCatNLO 2  0  0  2  2 0.43253810D+03 0.00000000D+00  -5  6  0 0.00000000D+00 0.00000000D+00 0.00000000D+00 0.00000000D+00 0.00000000D+00
  <mgrwgt>
 0.1113523690D-01    1    2    0
 0.461129030855624D+03 0.000000000000000D+00 0.000000000000000D+00 0.461129030855624D+03
 0.461129030855624D+03 0.000000000000000D+00 0.000000000000000D+00 -.461129030855624D+03
 0.438066658908415D+03 0.280643777393299D+03 0.309560763209928D+03 0.410925995586614D+02
 0.755831997689857D+02 -.795786328005790D+01 -.264027947828852D+02 0.703731832943995D+02
 0.000000000000000D+00 0.000000000000000D+00 -.000000000000000D+00 -.000000000000000D+00
 0.408608203033847D+03 -.272685914113241D+03 -.283157968427043D+03 -.111465782853061D+03
 0.502759012592226D+03 0.000000000000000D+00 0.000000000000000D+00 0.502759012592226D+03
 0.101493287732171D+04 0.000000000000000D+00 0.000000000000000D+00 -.101493287732171D+04
 0.519748514377058D+03 0.260841430651316D+03 0.429868194350832D+03 0.410925995586614D+02
 0.716656131392994D+02 -.110021583923949D+02 -.790744524819637D+01 0.703731832943995D+02
 0.565052373090146D+03 0.387625640012586D+02 -.235498578031633D+03 -.512173864729481D+03
 0.361225389307431D+03 -.288601836260180D+03 -.186462171071003D+03 -.111465782853061D+03
0.518836052100D-03 0.000000000000D+00 0.000000000000D+00 0.792029675106D-06 0.215938129343D-10  6 2 21 25 1 2 -1 2 0.81671287D-01 0.14787715D+00 0.31021295D+06 0.31021295D+06 0.31021295D+06 0.10834779D+01  1  2  1  6  5  2       -2 0.111352369036D-01 0.100000000000D+01
  </mgrwgt>
  </event>
  <event>
  5     66 0.18881543E-05 0.13123979E+03 0.75467711E-02 0.90498353E-01
        2 -1    0    0  502    0 0.00000000E+00 0.00000000E+00 0.10994045E+04 0.10994046E+04 0.32000000E+00 0.0000E+00 0.9000E+01
       -2 -1    0    0    0  501 0.00000000E+00 0.00000000E+00 -.86532510E+03 0.86532516E+03 0.32000000E+00 0.0000E+00 0.9000E+01
       25  1    1    2    0    0 0.44820803E+03 -.12102188E+03 0.29320128E+03 0.56314183E+03 0.12500000E+03 0.0000E+00 0.9000E+01
        1  1    1    2  502    0 -.41628852E+03 -.62572082E+01 0.59957432E+03 0.72994846E+03 0.32000000E+00 0.0000E+00 0.9000E+01
       -1  1    1    2    0  501 -.31919512E+02 0.12727909E+03 -.65869616E+03 0.67163945E+03 0.32000000E+00 0.0000E+00 0.9000E+01
#aMCatNLO 1  0  0  5  2 0.28495051D+02 0.00000000D+00  -5  6  0 0.00000000D+00 0.00000000D+00 0.00000000D+00 0.00000000D+00 0.00000000D+00
  <mgrwgt>
 0.1641939355D-02    4    2    0
 0.975367851313099D+03 0.000000000000000D+00 0.000000000000000D+00 0.975367851313099D+03
 0.975367851313099D+03 -.000000000000000D+00 -.000000000000000D+00 -.975367851313099D+03
 0.532019190474331D+03 0.448159451639469D+03 -.121040997406356D+03 0.227863120943359D+03
 0.663151171941710D+03 -.416233624149327D+03 -.625638309711727D+01 0.516216916272338D+03
 0.755565340210157D+03 -.319258274901423D+02 0.127297380503472D+03 -.744080037215698D+03
 0.000000000000000D+00 0.000000000000000D+00 0.000000000000000D+00 0.000000000000000D+00
 0.975367851313099D+03 0.000000000000000D+00 0.000000000000000D+00 0.975367851313099D+03
 0.975367851313099D+03 -.000000000000000D+00 -.000000000000000D+00 -.975367851313099D+03
 0.503021198071304D+03 0.445417781059706D+03 -.110109174789855D+03 0.163964312129303D+03
 0.606475647362846D+03 -.419596679868008D+03 0.715307930781556D+01 0.437835780338180D+03
 0.551017655676048D+03 -.246477549198389D+03 0.209321247259396D+03 -.446154558481312D+03
 0.290221201515999D+03 0.220656448006691D+03 -.106365151777357D+03 -.155645533986172D+03
0.378055215930D-02 0.000000000000D+00 0.000000000000D+00 0.118011791676D-04 0.000000000000D+00  6 2 -2 25 1 -1 21 0 0.16913917D+00 0.13312695D+00 0.26433622D+06 0.26433622D+06 0.26433622D+06 0.10886420D+01  1  2  2  4  6  5       -1 0.425701880235D-02 0.100000000000D+01
0.654603121546D-03 0.000000000000D+00 -.145183157340D-04 0.118011791676D-04 0.000000000000D+00  6 2 -2 25 1 -1 21 2 0.16913917D+00 0.13312695D+00 0.26433622D+06 0.26433622D+06 0.26433622D+06 0.10886420D+01  1  2  3  4  6  5       -1 0.873571677808D-03 0.100000000000D+01
-.248998989717D-02 0.000000000000D+00 0.000000000000D+00 0.118011791676D-04 0.000000000000D+00  6 2 -2 25 1 -1 21 2 0.16913917D+00 0.13312695D+00 0.26433622D+06 0.26433622D+06 0.26433622D+06 0.10886420D+01  1  2 15  4  6  5       -1 -.332290601832D-02 0.100000000000D+01
-.124199613007D-03 0.000000000000D+00 0.000000000000D+00 0.118011791676D-04 0.000000000000D+00  6 2 -2 25 1 -1 21 2 0.16913917D+00 0.13312695D+00 0.26433622D+06 0.26433622D+06 0.26433622D+06 0.10886420D+01  1  2  4  4  6  5       -1 -.165745106839D-03 0.100000000000D+01
  </mgrwgt>
  </event>
  <event>
  5     66 0.18881543E-05 0.14413031E+02 0.75467711E-02 0.88174124E-01
        2 -1    0    0  502    0 0.00000000E+00 0.00000000E+00 0.23877474E+04 0.23877474E+04 0.32000000E+00 0.0000E+00 0.9000E+01
       -2 -1    0    0    0  501 0.00000000E+00 0.00000000E+00 -.77205598E+03 0.77205605E+03 0.32000000E+00 0.0000E+00 0.9000E+01
       25  1    1    2    0    0 -.29078619E+03 -.34829665E+03 -.11425099E+02 0.47076820E+03 0.12500000E+03 0.0000E+00 0.9000E+01
        1  1    1    2  502    0 -.10475387E+02 0.99001246E+01 0.20613952E+04 0.20614456E+04 0.32000000E+00 0.0000E+00 0.9000E+01
       -1  1    1    2    0  501 0.30126158E+03 0.33839653E+03 -.43427866E+03 0.62758968E+03 0.32000000E+00 0.0000E+00 0.9000E+01
#aMCatNLO 1  0  0  4  1 0.12529467D+03 0.00000000D+00  -5  6  0 0.00000000D+00 0.00000000D+00 0.00000000D+00 0.00000000D+00 0.00000000D+00
  <mgrwgt>
 0.6136742353D-01    4    2    0
 0.135774622269123D+04 0.000000000000000D+00 0.000000000000000D+00 0.135774622269123D+04
 0.135774622269123D+04 -.000000000000000D+00 -.000000000000000D+00 -.135774622269123D+04
 0.554612284646196D+03 -.290811604585856D+03 -.348325330925828D+03 -.293373244782282D+03
 0.117220060374167D+04 -.104751162303174D+02 0.989986824827839D+01 0.117211199121968D+04
 0.988679556994604D+03 0.301286720816172D+03 0.338425462677551D+03 -.878738746437397D+03
 0.000000000000000D+00 0.000000000000000D+00 0.000000000000000D+00 0.000000000000000D+00
 0.135774622269123D+04 0.000000000000000D+00 0.000000000000000D+00 0.135774622269123D+04
 0.135774622269123D+04 -.000000000000000D+00 -.000000000000000D+00 -.135774622269123D+04
 0.516751331164183D+03 -.291525917547144D+03 -.347650244936394D+03 -.213445273674346D+03
 0.592264125957737D+03 0.441030539217997D+02 -.452930635041214D+03 0.379058775617207D+03
 0.867924471471710D+03 0.300048862537301D+03 0.339595343144882D+03 -.740228728964115D+03
 0.738552516788838D+03 -.526259989119577D+02 0.460985536832727D+03 0.574615227021255D+03
0.184335221556D+00 0.000000000000D+00 0.000000000000D+00 0.968174164927D-03 0.000000000000D+00  6 2 -2 25 1 -1 21 0 0.36734576D+00 0.11877785D+00 0.22004823D+06 0.22004823D+06 0.22004823D+06 0.10946532D+01  1  2  2  3  6  4        1 0.544974634855D-01 0.100000000000D+01
0.191016850778D+00 0.000000000000D+00 -.707895787353D-03 0.968174164927D-03 0.000000000000D+00  6 2 -2 25 1 -1 21 2 0.36734576D+00 0.11877785D+00 0.22004823D+06 0.22004823D+06 0.22004823D+06 0.10946532D+01  1  2  3  3  6  4        1 0.676694594541D-01 0.100000000000D+01
-.125034316445D+00 0.000000000000D+00 0.000000000000D+00 0.968174164927D-03 0.000000000000D+00  6 2 -2 25 1 -1 21 2 0.36734576D+00 0.11877785D+00 0.22004823D+06 0.22004823D+06 0.22004823D+06 0.10946532D+01  1  2 15  3  6  4        1 -.442945455994D-01 0.100000000000D+01
-.465900618262D-01 0.000000000000D+00 0.000000000000D+00 0.968174164927D-03 0.000000000000D+00  6 2 -2 25 1 -1 21 2 0.36734576D+00 0.11877785D+00 0.22004823D+06 0.22004823D+06 0.22004823D+06 0.10946532D+01  1  2  5  3  6  4        1 -.165049538136D-01 0.100000000000D+01
  </mgrwgt>
  </event>
  <event>
  5     66 0.18881543E-05 0.53707805E+02 0.75467711E-02 0.94669170E-01
        2 -1    0    0  502    0 0.00000000E+00 0.00000000E+00 0.19417484E+04 0.19417485E+04 0.32000000E+00 0.0000E+00 0.9000E+01
       -2 -1    0    0    0  501 0.00000000E+00 0.00000000E+00 -.27349698E+03 0.27349717E+03 0.32000000E+00 0.0000E+00 0.9000E+01
       25  1    1    2    0    0 0.41597378E+03 0.23760501E+03 0.26954060E+03 0.56370867E+03 0.12500000E+03 0.0000E+00 0.9000E+01
        1  1    1    2  502    0 -.39280700E+03 -.18915405E+03 0.14862284E+04 0.15488549E+04 0.32000000E+00 0.0000E+00 0.9000E+01
       -1  1    1    2    0  501 -.23166777E+02 -.48450959E+02 -.87517504E+02 0.10268209E+03 0.32000000E+00 0.0000E+00 0.9000E+01
#aMCatNLO 1  0  0  1  4 0.98239298D+01 0.00000000D+00  -5  6  0 0.00000000D+00 0.00000000D+00 0.00000000D+00 0.00000000D+00 0.00000000D+00
  <mgrwgt>
 0.4133637806D-01   13    2    0
 0.728740404048418D+03 0.000000000000000D+00 0.000000000000000D+00 0.728740404048418D+03
 0.728740404048418D+03 0.000000000000000D+00 0.000000000000000D+00 -.728740404048418D+03
 0.548258630172073D+03 0.415971680229261D+03 0.237605822024235D+03 -.235528257637148D+03
 0.652963721648543D+03 -.392803214886283D+03 -.189152230409357D+03 0.486095350620927D+03
 0.256258456276221D+03 -.231684653429785D+02 -.484535916148775D+02 -.250567092983779D+03
 0.000000000000000D+00 -.000000000000000D+00 0.000000000000000D+00 0.000000000000000D+00
 0.741609164582669D+03 0.000000000000000D+00 0.000000000000000D+00 0.741609164582669D+03
 0.730634254311521D+03 0.000000000000000D+00 0.000000000000000D+00 -.730634254311521D+03
 0.546941846302035D+03 0.416320705227753D+03 0.233931386285284D+03 -.235528257637148D+03
 0.653997428790529D+03 -.392386704737356D+03 -.193537130584031D+03 0.486095350620927D+03
 0.256574640987926D+03 -.230050326428984D+02 -.501741645156224D+02 -.250567092983779D+03
 0.147295028137008D+02 -.928967847498795D+00 0.977990881436922D+01 0.109749102711483D+02
0.109228265319D-02 0.000000000000D+00 0.000000000000D+00 0.113265927082D-04 0.000000000000D+00  6 2 -2 25 1 -1 21 0 0.29873055D+00 0.42076475D-01 0.24244358D+06 0.24244358D+06 0.24244358D+06 0.10914633D+01  1  2  2  1  6  1        2 0.547828234144D-02 0.100000000000D+01
0.264255003452D-03 0.000000000000D+00 -.419465299287D-05 0.113265927082D-04 0.000000000000D+00  6 2 -2 25 1 -1 21 2 0.29873055D+00 0.42076475D-01 0.24244358D+06 0.24244358D+06 0.24244358D+06 0.10914633D+01  1  2  3  1  6  1        2 0.157888630280D-02 0.100000000000D+01
-.680934869861D-03 0.000000000000D+00 0.000000000000D+00 0.113265927082D-04 0.000000000000D+00  6 2 -2 25 1 -1 21 2 0.29873055D+00 0.42076475D-01 0.24244358D+06 0.24244358D+06 0.24244358D+06 0.10914633D+01  1  2 15  1  6  1        2 -.406848962206D-02 0.100000000000D+01
0.724209165655D-08 0.000000000000D+00 0.000000000000D+00 0.113265927082D-04 0.000000000000D+00  6 2 -2 25 1 -1 21 2 0.30438996D+00 0.42076475D-01 0.24808973D+06 0.24808973D+06 0.24808973D+06 0.10907098D+01  1  2 12  1  6  1        2 0.412122953336D-07 0.100000000000D+01
0.178238513577D-02 0.000000000000D+00 0.000000000000D+00 0.113265927082D-04 0.000000000000D+00  6 2 -2 25 1 -1 21 2 0.30738137D+00 0.42076475D-01 0.24808973D+06 0.24808973D+06 0.24808973D+06 0.10907098D+01  1  2 12  1  6  1        2 0.989778730305D-02 0.100000000000D+01
-.668996109381D-03 0.000000000000D+00 0.000000000000D+00 0.113265927082D-04 0.000000000000D+00  6 2 -2 25 1 -1 21 2 0.29873055D+00 0.42076475D-01 0.24244358D+06 0.24244358D+06 0.24244358D+06 0.10914633D+01  1  2  4  1  6  1        2 -.399715721530D-02 0.100000000000D+01
-.118736177166D+00 0.000000000000D+00 -.114447485700D-01 0.113265927082D-04 0.000000000000D+00  6 2 -2 25 1 -1 21 2 0.30430902D+00 0.42076475D-01 0.24244358D+06 0.24244358D+06 0.24244358D+06 0.10914633D+01  1  2  5  1  6  1        2 -.677847284585D+00 0.100000000000D+01
0.118929527190D+00 0.000000000000D+00 0.114427900002D-01 0.113265927082D-04 0.000000000000D+00  6 2 -2 25 1 -1 21 2 0.29873055D+00 0.42076475D-01 0.24244358D+06 0.24244358D+06 0.24244358D+06 0.10914633D+01  1  2  6  1  6  1        2 0.710587118602D+00 0.100000000000D+01
0.135980981201D-08 0.000000000000D+00 0.000000000000D+00 0.113265927082D-04 0.256417163445D-06  6 2 -2 25 1 -1 21 2 0.30400580D+00 0.42185824D-01 0.24808973D+06 0.24808973D+06 0.24808973D+06 0.10907098D+01  1  2 11  1  6  1        2 0.772434439065D-08 0.100000000000D+01
0.426311868232D-09 0.000000000000D+00 0.000000000000D+00 0.113265927082D-04 0.000000000000D+00  6 21 -2 25 1 -1 -2 2 0.30438996D+00 0.42076475D-01 0.24808973D+06 0.24808973D+06 0.24808973D+06 0.10907098D+01  1  2 12  5  6  1        2 0.497469278352D-09 0.100000000000D+01
0.157312829352D-03 0.000000000000D+00 0.000000000000D+00 0.113265927082D-04 0.000000000000D+00  6 21 -2 25 1 -1 -2 2 0.30738137D+00 0.42076475D-01 0.24808973D+06 0.24808973D+06 0.24808973D+06 0.10907098D+01  1  2 12  5  6  1        2 0.175420611195D-03 0.100000000000D+01
-.399271844189D-03 0.000000000000D+00 -.386233888645D-04 0.113265927082D-04 0.000000000000D+00  6 21 -2 25 1 -1 -2 2 0.30430902D+00 0.42076475D-01 0.24244358D+06 0.24244358D+06 0.24244358D+06 0.10914633D+01  1  2  5  5  6  1        2 -.468235130408D-03 0.100000000000D+01
0.191504977175D-10 0.000000000000D+00 0.000000000000D+00 0.113265927082D-04 0.221284381233D-08  6 21 -2 25 1 -1 -2 2 0.30400580D+00 0.42185824D-01 0.24808973D+06 0.24808973D+06 0.24808973D+06 0.10907098D+01  1  2 11  5  6  1        2 0.223671050726D-10 0.100000000000D+01
  </mgrwgt>
  </event>
  <event>
  6     66 0.18881543E-05 0.53933990E+02 0.75467711E-02 0.95018440E-01
        2 -1    0    0  502    0 0.00000000E+00 0.00000000E+00 0.27322721E+04 0.27322721E+04 0.32000000E+00 0.0000E+00 0.9000E+01
       21 -1    0    0  503  501 0.00000000E+00 0.00000000E+00 -.80754453E+03 0.80754488E+03 0.75000000E+00 0.0000E+00 0.9000E+01
       25  1    1    2    0    0 -.25434559E+02 -.45266086E+03 0.82550278E+03 0.95006769E+03 0.12500000E+03 0.0000E+00 0.9000E+01
        1  1    1    2  502    0 -.19373542E+02 0.17686018E+02 0.17681783E+04 0.17683729E+04 0.32000000E+00 0.0000E+00 0.9000E+01
        2  1    1    2  503    0 -.50591427E+02 0.44000339E+02 -.52375654E+02 0.85081337E+02 0.32000000E+00 0.0000E+00 0.9000E+01
       -1  1    1    2    0  501 0.95399528E+02 0.39097450E+03 -.61657783E+03 0.73629509E+03 0.32000000E+00 0.0000E+00 0.9000E+01
#aMCatNLO 2  0  0  2  5 0.10379015D+03 0.00000000D+00  -5  6  0 0.00000000D+00 0.00000000D+00 0.00000000D+00 0.00000000D+00 0.00000000D+00
  <mgrwgt>
 0.3595286665D-02    1    2    0
 0.141613610559350D+04 0.000000000000000D+00 0.000000000000000D+00 0.141613610559350D+04
 0.141613610559350D+04 0.000000000000000D+00 0.000000000000000D+00 -.141613610559350D+04
 0.576129032228347D+03 -.357907891547610D+02 -.443703247369716D+03 0.343723885497676D+03
 0.923237557964613D+03 -.358525682772108D+02 0.320180527877975D+02 0.921985371944733D+03
 0.000000000000000D+00 -.000000000000000D+00 0.000000000000000D+00 -.000000000000000D+00
 0.133290562099403D+04 0.716433574319718D+02 0.411685194581918D+03 -.126570925744241D+04
 0.142506177652319D+04 0.000000000000000D+00 0.000000000000000D+00 0.142506177652319D+04
 0.154830585926750D+04 0.000000000000000D+00 0.000000000000000D+00 -.154830585926750D+04
 0.582544218042319D+03 -.254438454127560D+02 -.452702183828981D+03 0.343723885497676D+03
 0.922358392373765D+03 -.193714097934341D+02 0.176840715012760D+02 0.921985371944733D+03
 0.140301911071130D+03 -.505914267793606D+02 0.440003392618068D+02 -.123244082744307D+03
 0.132816311430348D+04 0.954066819855506D+02 0.391017773065899D+03 -.126570925744241D+04
0.204286219105D-02 0.000000000000D+00 0.000000000000D+00 0.124400308798D-02 0.442514340199D-07  6 2 21 25 1 2 -1 2 0.42034953D+00 0.12423763D+00 0.23333650D+06 0.23333650D+06 0.23333650D+06 0.10927200D+01  1  2  1  6  5  2       -2 0.359528666465D-02 0.100000000000D+01
  </mgrwgt>
  </event>
  <event>
  5     66 -.18881543E-05 0.11166290E+02 0.75467711E-02 0.94092745E-01
        2 -1    0    0  502    0 0.00000000E+00 0.00000000E+00 0.43244124E+03 0.43244136E+03 0.32000000E+00 0.0000E+00 0.9000E+01
       -2 -1    0    0    0  501 -.00000000E+00 -.00000000E+00 -.14532280E+04 0.14532281E+04 0.32000000E+00 0.0000E+00 0.9000E+01
       25  1    1    2    0    0 -.29331531E+03 0.42228782E+03 0.12222590E+02 0.52927806E+03 0.12500000E+03 0.0000E+00 0.9000E+01
        1  1    1    2  502    0 -.39117745E+01 -.10472772E+02 0.10741256E+03 0.10799324E+03 0.32000000E+00 0.0000E+00 0.9000E+01
       -1  1    1    2    0  501 0.29722708E+03 -.41181504E+03 -.11404219E+04 0.12483981E+04 0.32000000E+00 0.0000E+00 0.9000E+01
#aMCatNLO 1  0  0  4  1 0.51547409D+00 0.00000000D+00  -5  6  0 0.00000000D+00 0.00000000D+00 0.00000000D+00 0.00000000D+00 0.00000000D+00
  <mgrwgt>
 -.4040322245D-01    9    2    0
 0.792739472931084D+03 0.000000000000000D+00 0.000000000000000D+00 0.792739472931084D+03
 0.792739472931084D+03 -.000000000000000D+00 -.000000000000000D+00 -.792739472931084D+03
 0.637547822885254D+03 -.293378316374552D+03 0.422359994724991D+03 0.355504465236184D+03
 0.197362851123450D+03 -.390715681000720D+01 -.104604094353631D+02 0.197046717718626D+03
 0.750568271853464D+03 0.297285473184560D+03 -.411899585289628D+03 -.552551182954810D+03
 0.000000000000000D+00 0.000000000000000D+00 0.000000000000000D+00 0.000000000000000D+00
 0.792739472931084D+03 0.000000000000000D+00 0.000000000000000D+00 0.792739472931084D+03
 0.792739472931084D+03 -.000000000000000D+00 -.000000000000000D+00 -.792739472931084D+03
 0.637548426293726D+03 -.293378338882881D+03 0.422359934464719D+03 0.355505600381887D+03
 0.771354084073350D+02 -.200132626923025D+01 -.428897111774728D+01 0.769900685158910D+02
 0.750567316481572D+03 0.297285446686126D+03 -.411899656232382D+03 -.552549846579134D+03
 0.120227794679535D+03 -.190578153401500D+01 -.617130711459023D+01 0.120054177681355D+03
0.167003279428D-04 0.000000000000D+00 0.000000000000D+00 0.325171347750D-04 0.000000000000D+00  6 2 -2 25 1 -1 21 0 0.66529433D-01 0.22357355D+00 0.27477098D+06 0.27477098D+06 0.27477098D+06 0.10873857D+01  1  2  2  3  6  4        1 0.130590707926D-04 0.100000000000D+01
0.117557397573D-04 0.000000000000D+00 -.641336565976D-07 0.325171347750D-04 0.000000000000D+00  6 2 -2 25 1 -1 21 2 0.66529433D-01 0.22357355D+00 0.27477098D+06 0.27477098D+06 0.27477098D+06 0.10873857D+01  1  2  3  3  6  4        1 0.108693732254D-04 0.100000000000D+01
-.109885137634D-04 0.000000000000D+00 0.000000000000D+00 0.325171347750D-04 0.000000000000D+00  6 2 -2 25 1 -1 21 2 0.66529433D-01 0.22357355D+00 0.27477098D+06 0.27477098D+06 0.27477098D+06 0.10873857D+01  1  2 15  3  6  4        1 -.101599950111D-04 0.100000000000D+01
0.403609022573D-18 0.000000000000D+00 0.000000000000D+00 0.325171347750D-04 0.000000000000D+00  6 2 -2 25 1 -1 21 2 0.66529433D-01 0.22357355D+00 0.27478435D+06 0.27478435D+06 0.27478435D+06 0.10873842D+01  1  2 12  3  6  4        1 0.373175453985D-18 0.100000000000D+01
0.513264252925D-12 0.000000000000D+00 0.000000000000D+00 0.325171347750D-04 0.000000000000D+00  6 2 -2 25 1 -1 21 2 0.66529433D-01 0.22357355D+00 0.27478435D+06 0.27478435D+06 0.27478435D+06 0.10873842D+01  1  2 12  3  6  4        1 0.474562286488D-12 0.100000000000D+01
-.231972748048D+00 0.000000000000D+00 0.000000000000D+00 0.325171347750D-04 0.000000000000D+00  6 2 -2 25 1 -1 21 2 0.66529433D-01 0.22357355D+00 0.27477098D+06 0.27477098D+06 0.27477098D+06 0.10873857D+01  1  2  4  3  6  4        1 -.214482323418D+00 0.100000000000D+01
-.724397881879D-01 0.000000000000D+00 0.000000000000D+00 0.325171347750D-04 0.000000000000D+00  6 2 -2 25 1 -1 21 2 0.66529433D-01 0.22357355D+00 0.27477098D+06 0.27477098D+06 0.27477098D+06 0.10873857D+01  1  2  5  3  6  4        1 -.669779282661D-01 0.100000000000D+01
0.179068894644D+00 0.000000000000D+00 -.000000000000D+00 0.325171347750D-04 0.000000000000D+00  6 2 -2 25 1 -1 21 2 0.66529433D-01 0.22357355D+00 0.27477098D+06 0.27477098D+06 0.27477098D+06 0.10873857D+01  1  2  6  3  6  4        1 0.165567347450D+00 0.100000000000D+01
0.816311986289D-01 0.000000000000D+00 0.000000000000D+00 0.325171347750D-04 0.195948830546D-03  6 2 -2 25 1 -1 21 2 0.66529433D-01 0.22357355D+00 0.27478435D+06 0.27478435D+06 0.27478435D+06 0.10873842D+01  1  2 11  3  6  4        1 0.754759133318D-01 0.100000000000D+01
  </mgrwgt>
  </event>
  <event>
  5     66 0.18881543E-05 0.40170948E+02 0.75467711E-02 0.87030123E-01
        2 -1    0    0  502    0 0.00000000E+00 0.00000000E+00 0.27284444E+04 0.27284444E+04 0.32000000E+00 0.0000E+00 0.9000E+01
       -2 -1    0    0    0  501 0.00000000E+00 0.00000000E+00 -.10426419E+04 0.10426419E+04 0.32000000E+00 0.0000E+00 0.9000E+01
       25  1    1    2    0    0 0.62073155E+03 -.22000888E+03 0.65516156E+03 0.93732237E+03 0.12500000E+03 0.0000E+00 0.9000E+01
        1  1    1    2  502    0 0.67459785E+01 -.39604123E+02 0.18040781E+04 0.18045254E+04 0.32000000E+00 0.0000E+00 0.9000E+01
       -1  1    1    2    0  501 -.62747753E+03 0.25961300E+03 -.77343714E+03 0.10292386E+04 0.32000000E+00 0.0000E+00 0.9000E+01
#aMCatNLO 1  0  0  1  4 0.26545219D+02 0.00000000D+00  -5  6  0 0.00000000D+00 0.00000000D+00 0.00000000D+00 0.00000000D+00 0.00000000D+00
  <mgrwgt>
 0.1529094063D-01    7    2    0
 0.168665069448995D+04 0.000000000000000D+00 0.000000000000000D+00 0.168665069448995D+04
 0.168665069448995D+04 0.000000000000000D+00 0.000000000000000D+00 -.168665069448995D+04
 0.720524087319970D+03 0.620787501468369D+03 -.220034426568770D+03 0.264078945683840D+03
 0.111563223163025D+04 0.674537302779771D+01 -.396005684147374D+02 0.111490877258018D+04
 0.153714507002967D+04 -.627532874496167D+03 0.259634994983507D+03 -.137898771826402D+04
 0.000000000000000D+00 0.000000000000000D+00 0.000000000000000D+00 0.000000000000000D+00
 0.214004326956918D+04 0.000000000000000D+00 0.000000000000000D+00 0.214004326956918D+04
 0.182777165255523D+04 0.000000000000000D+00 0.000000000000000D+00 -.182777165255523D+04
 0.684794730640215D+03 0.549498618980172D+03 -.285713845128303D+03 0.264078945683840D+03
 0.112933008371487D+04 -.107136866819647D+03 -.144521827331594D+03 0.111490877258018D+04
 0.159142767293995D+04 -.786238822056926D+03 0.113417043545478D+03 -.137898771826402D+04
 0.562262434829370D+03 0.343877069896400D+03 0.316818628914419D+03 0.312271617013946D+03
0.825547272398D-01 0.000000000000D+00 0.000000000000D+00 0.401747990290D-03 0.000000000000D+00  6 2 -2 25 1 -1 21 0 0.41976069D+00 0.16040645D+00 0.48280242D+06 0.48280242D+06 0.48280242D+06 0.10695864D+01  1  2  2  1  6  1        2 0.642207935235D-02 0.100000000000D+01
0.514861481190D-01 0.000000000000D+00 -.317031889760D-03 0.401747990290D-03 0.000000000000D+00  6 2 -2 25 1 -1 21 2 0.41976069D+00 0.16040645D+00 0.48280242D+06 0.48280242D+06 0.48280242D+06 0.10695864D+01  1  2  3  1  6  1        2 0.458200782419D-02 0.100000000000D+01
-.557122625043D-01 0.000000000000D+00 0.000000000000D+00 0.401747990290D-03 0.000000000000D+00  6 2 -2 25 1 -1 21 2 0.41976069D+00 0.16040645D+00 0.48280242D+06 0.48280242D+06 0.48280242D+06 0.10695864D+01  1  2 15  1  6  1        2 -.495811071569D-02 0.100000000000D+01
-.824987499554D-03 0.000000000000D+00 0.000000000000D+00 0.401747990290D-03 0.000000000000D+00  6 2 -2 25 1 -1 21 2 0.41976069D+00 0.16040645D+00 0.48280242D+06 0.48280242D+06 0.48280242D+06 0.10695864D+01  1  2  4  1  6  1        2 -.734197316351D-04 0.100000000000D+01
-.131154766213D+00 0.000000000000D+00 -.596309071046D-01 0.401747990290D-03 0.000000000000D+00  6 2 -2 25 1 -1 21 2 0.54326788D+00 0.16040645D+00 0.48280242D+06 0.48280242D+06 0.48280242D+06 0.10695864D+01  1  2  5  1  6  1        2 -.346355471648D-02 0.100000000000D+01
0.143659700597D+00 0.000000000000D+00 0.577010617363D-01 0.401747990290D-03 0.000000000000D+00  6 2 -2 25 1 -1 21 2 0.41976069D+00 0.16040645D+00 0.48280242D+06 0.48280242D+06 0.48280242D+06 0.10695864D+01  1  2  6  1  6  1        2 0.127849896760D-01 0.100000000000D+01
-.349023664982D-02 0.000000000000D+00 -.206495132783D-02 0.401747990290D-03 0.000000000000D+00  6 21 -2 25 1 -1 -2 2 0.54326788D+00 0.16040645D+00 0.48280242D+06 0.48280242D+06 0.48280242D+06 0.10695864D+01  1  2  5  5  6  1        2 -.305105579033D-05 0.100000000000D+01
  </mgrwgt>
  </event>
  <event>
  5     66 0.18881543E-05 0.29737936E+02 0.75467711E-02 0.93437957E-01
        2 -1    0    0  502    0 0.00000000E+00 0.00000000E+00 0.12119149E+04 0.12119150E+04 0.32000000E+00 0.0000E+00 0.9000E+01
       -2 -1    0    0    0  501 0.00000000E+00 0.00000000E+00 -.53944432E+03 0.53944442E+03 0.32000000E+00 0.0000E+00 0.9000E+01
       25  1    1    2    0    0 0.39412448E+03 0.31623663E+03 0.47522134E+03 0.70484043E+03 0.12500000E+03 0.0000E+00 0.9000E+01
        1  1    1    2  502    0 -.40144501E+03 -.34505469E+03 0.50839677E+03 0.73395382E+03 0.32000000E+00 0.0000E+00 0.9000E+01
       -1  1    1    2    0  501 0.73205346E+01 0.28818060E+02 -.31114752E+03 0.31256512E+03 0.32000000E+00 0.0000E+00 0.9000E+01
#aMCatNLO 1  0  0  1  4 0.34318505D+02 0.00000000D+00  -5  6  0 0.00000000D+00 0.00000000D+00 0.00000000D+00 0.00000000D+00 0.00000000D+00
  <mgrwgt>
 0.7250448376D-02    7    2    0
 0.808554722092829D+03 0.000000000000000D+00 0.000000000000000D+00 0.808554722092829D+03
 0.808554722092829D+03 0.000000000000000D+00 0.000000000000000D+00 -.808554722092829D+03
 0.565720717257508D+03 0.394075541092080D+03 0.316190925423884D+03 0.221681520490369D+03
 0.583400348614131D+03 -.401397070617485D+03 -.345013486472596D+03 0.245361065808768D+03
 0.467988378314019D+03 0.732152952540548D+01 0.288225610487126D+02 -.467042586299137D+03
 0.000000000000000D+00 0.000000000000000D+00 0.000000000000000D+00 0.000000000000000D+00
 0.831165521566945D+03 0.000000000000000D+00 0.000000000000000D+00 0.831165521566945D+03
 0.821864575664833D+03 0.000000000000000D+00 0.000000000000000D+00 -.821864575664833D+03
 0.556412261627362D+03 0.382364934128129D+03 0.314044527912119D+03 0.221681520490369D+03
 0.593230652555649D+03 -.413676420262829D+03 -.347264126905325D+03 0.245361065808768D+03
 0.467830644885552D+03 -.244470048145958D+01 0.270325418079858D+02 -.467042586299137D+03
 0.355565381632157D+02 0.337561866161598D+02 0.618705718522050D+01 0.930094590211243D+01
0.738105771911D-03 0.000000000000D+00 0.000000000000D+00 0.129975830857D-04 0.000000000000D+00  6 2 -2 25 1 -1 21 0 0.18644846D+00 0.82991445D-01 0.29133627D+06 0.29133627D+06 0.29133627D+06 0.10854947D+01  1  2  2  1  6  1        2 0.226621847680D-02 0.100000000000D+01
0.425735685179D-03 0.000000000000D+00 -.283452051185D-05 0.129975830857D-04 0.000000000000D+00  6 2 -2 25 1 -1 21 2 0.18644846D+00 0.82991445D-01 0.29133627D+06 0.29133627D+06 0.29133627D+06 0.10854947D+01  1  2  3  1  6  1        2 0.154020540682D-02 0.100000000000D+01
-.561875051820D-03 0.000000000000D+00 0.000000000000D+00 0.129975830857D-04 0.000000000000D+00  6 2 -2 25 1 -1 21 2 0.18644846D+00 0.82991445D-01 0.29133627D+06 0.29133627D+06 0.29133627D+06 0.10854947D+01  1  2 15  1  6  1        2 -.203272364262D-02 0.100000000000D+01
-.252557135310D-03 0.000000000000D+00 0.000000000000D+00 0.129975830857D-04 0.000000000000D+00  6 2 -2 25 1 -1 21 2 0.18644846D+00 0.82991445D-01 0.29133627D+06 0.29133627D+06 0.29133627D+06 0.10854947D+01  1  2  4  1  6  1        2 -.913688654434D-03 0.100000000000D+01
-.284575127607D-01 0.000000000000D+00 -.444751975928D-02 0.129975830857D-04 0.000000000000D+00  6 2 -2 25 1 -1 21 2 0.19361220D+00 0.82991445D-01 0.29133627D+06 0.29133627D+06 0.29133627D+06 0.10854947D+01  1  2  5  1  6  1        2 -.968006953215D-01 0.100000000000D+01
0.286080187888D-01 0.000000000000D+00 0.444436062679D-02 0.129975830857D-04 0.000000000000D+00  6 2 -2 25 1 -1 21 2 0.18644846D+00 0.82991445D-01 0.29133627D+06 0.29133627D+06 0.29133627D+06 0.10854947D+01  1  2  6  1  6  1        2 0.103496668827D+00 0.100000000000D+01
-.188006520668D-03 0.000000000000D+00 -.297361406603D-04 0.129975830857D-04 0.000000000000D+00  6 21 -2 25 1 -1 -2 2 0.19361220D+00 0.82991445D-01 0.29133627D+06 0.29133627D+06 0.29133627D+06 0.10854947D+01  1  2  5  5  6  1        2 -.305536715896D-03 0.100000000000D+01
  </mgrwgt>
  </event>
  <event>
  5     66 0.18881543E-05 0.47113408E+02 0.75467711E-02 0.84496953E-01
        2 -1    0    0  502    0 0.00000000E+00 0.00000000E+00 0.17506088E+04 0.17506088E+04 0.32000000E+00 0.0000E+00 0.9000E+01
       -2 -1    0    0    0  501 0.00000000E+00 0.00000000E+00 -.13401372E+04 0.13401372E+04 0.32000000E+00 0.0000E+00 0.9000E+01
       25  1    1    2    0    0 0.21545112E+03 0.64951766E+03 -.13958255E+03 0.70950734E+03 0.12500000E+03 0.0000E+00 0.9000E+01
        1  1    1    2  502    0 -.22280712E+03 -.69605040E+03 0.13738234E+04 0.15561234E+04 0.32000000E+00 0.0000E+00 0.9000E+01
       -1  1    1    2    0  501 0.73559932E+01 0.46532744E+02 -.82376926E+03 0.82511532E+03 0.32000000E+00 0.0000E+00 0.9000E+01
#aMCatNLO 1  0  0  1  4 0.18810506D+02 0.00000000D+00  -5  6  0 0.00000000D+00 0.00000000D+00 0.00000000D+00 0.00000000D+00 0.00000000D+00
  <mgrwgt>
 0.3916387320D-02    7    2    0
 0.153168404648859D+04 0.000000000000000D+00 0.000000000000000D+00 0.153168404648859D+04
 0.153168404648859D+04 0.000000000000000D+00 0.000000000000000D+00 -.153168404648859D+04
 0.734518754761805D+03 0.215447805493325D+03 0.649505772811459D+03 -.235833193782243D+03
 0.138592914423932D+04 -.222804207567114D+03 -.696041313443244D+03 0.117757563150845D+04
 0.942920193976063D+03 0.735640207378890D+01 0.465355406317851D+02 -.941742437726204D+03
 0.000000000000000D+00 -.000000000000000D+00 0.000000000000000D+00 0.000000000000000D+00
 0.210403265754279D+04 0.000000000000000D+00 0.000000000000000D+00 0.210403265754279D+04
 0.197892664725921D+04 0.000000000000000D+00 0.000000000000000D+00 -.197892664725921D+04
 0.753549318966908D+03 0.411453404355042D+03 0.572101718989381D+03 -.235833193782243D+03
 0.145665477635845D+04 0.151615735651846D+03 -.843902505191273D+03 0.117757563150845D+04
 0.978552796435237D+03 0.260449302076992D+03 -.534127086407004D+02 -.941742437726204D+03
 0.894202413041405D+03 -.823518442083880D+03 0.325213494842592D+03 0.125106010283585D+03
0.223913454720D-01 0.000000000000D+00 0.000000000000D+00 0.134939364715D-03 0.000000000000D+00  6 2 -2 25 1 -1 21 0 0.26932443D+00 0.20617496D+00 0.54285571D+06 0.54285571D+06 0.54285571D+06 0.10659954D+01  1  2  2  1  6  1        2 0.291404240585D-02 0.100000000000D+01
0.124144499596D-01 0.000000000000D+00 -.859886623892D-04 0.134939364715D-03 0.000000000000D+00  6 2 -2 25 1 -1 21 2 0.26932443D+00 0.20617496D+00 0.54285571D+06 0.54285571D+06 0.54285571D+06 0.10659954D+01  1  2  3  1  6  1        2 0.183592032606D-02 0.100000000000D+01
-.165417244725D-01 0.000000000000D+00 0.000000000000D+00 0.134939364715D-03 0.000000000000D+00  6 2 -2 25 1 -1 21 2 0.26932443D+00 0.20617496D+00 0.54285571D+06 0.54285571D+06 0.54285571D+06 0.10659954D+01  1  2 15  1  6  1        2 -.244628544044D-02 0.100000000000D+01
-.538229778099D-03 0.000000000000D+00 0.000000000000D+00 0.134939364715D-03 0.000000000000D+00  6 2 -2 25 1 -1 21 2 0.26932443D+00 0.20617496D+00 0.54285571D+06 0.54285571D+06 0.54285571D+06 0.10659954D+01  1  2  4  1  6  1        2 -.795965180029D-04 0.100000000000D+01
-.776051078933D-02 0.000000000000D+00 -.140240712961D-01 0.134939364715D-03 0.000000000000D+00  6 2 -2 25 1 -1 21 2 0.41400707D+00 0.20617496D+00 0.54285571D+06 0.54285571D+06 0.54285571D+06 0.10659954D+01  1  2  5  1  6  1        2 -.335333775209D-03 0.100000000000D+01
0.137071702922D-01 0.000000000000D+00 0.128206203952D-01 0.134939364715D-03 0.000000000000D+00  6 2 -2 25 1 -1 21 2 0.26932443D+00 0.20617496D+00 0.54285571D+06 0.54285571D+06 0.54285571D+06 0.10659954D+01  1  2  6  1  6  1        2 0.202709525062D-02 0.100000000000D+01
0.137042299407D-03 0.000000000000D+00 -.704209273513D-03 0.134939364715D-03 0.000000000000D+00  6 21 -2 25 1 -1 -2 2 0.41400707D+00 0.20617496D+00 0.54285571D+06 0.54285571D+06 0.54285571D+06 0.10659954D+01  1  2  5  5  6  1        2 0.545071005154D-06 0.100000000000D+01
  </mgrwgt>
  </event>
  <event>
  5     66 0.18881543E-05 0.47109577E+02 0.75467711E-02 0.92292560E-01
        2 -1    0    0  502    0 0.00000000E+00 0.00000000E+00 0.27368325E+04 0.27368325E+04 0.32000000E+00 0.0000E+00 0.9000E+01
       -2 -1    0    0    0  501 0.00000000E+00 0.00000000E+00 -.17752062E+03 0.17752091E+03 0.32000000E+00 0.0000E+00 0.9000E+01
       25  1    1    2    0    0 0.49566527E+03 -.12220747E+03 0.71274025E+03 0.88557461E+03 0.12500000E+03 0.0000E+00 0.9000E+01
        1  1    1    2  502    0 -.76578355E+01 0.46506089E+02 0.12647522E+04 0.12656301E+04 0.32000000E+00 0.0000E+00 0.9000E+01
       -1  1    1    2    0  501 -.48800743E+03 0.75701377E+02 0.58181949E+03 0.76314873E+03 0.32000000E+00 0.0000E+00 0.9000E+01
#aMCatNLO 1  0  0  1  4 0.33958099D+02 0.00000000D+00  -5  6  0 0.00000000D+00 0.00000000D+00 0.00000000D+00 0.00000000D+00 0.00000000D+00
  <mgrwgt>
 0.1319002590D-01    7    2    0
 0.697025576576002D+03 0.000000000000000D+00 0.000000000000000D+00 0.697025576576002D+03
 0.697025576576002D+03 0.000000000000000D+00 0.000000000000000D+00 -.697025576576002D+03
 0.542918326925344D+03 0.495769626444396D+03 -.122216114492848D+03 -.135687171703409D+03
 0.323789966475855D+03 -.765413482803271D+01 0.464836146941715D+02 0.320344549158298D+03
 0.527342859750805D+03 -.488115491616363D+03 0.757324997986763D+02 -.184657377454889D+03
 0.000000000000000D+00 0.000000000000000D+00 -.000000000000000D+00 0.000000000000000D+00
 0.982211839274685D+03 0.000000000000000D+00 0.000000000000000D+00 0.982211839274685D+03
 0.718850869222683D+03 0.000000000000000D+00 0.000000000000000D+00 -.718850869222683D+03
 0.493398884438561D+03 0.443965444274531D+03 -.110910481427431D+03 -.135687171703409D+03
 0.327273839934908D+03 -.401999882227856D+02 0.535863515943588D+02 0.320344549158298D+03
 0.580696528941592D+03 -.543504974405769D+03 0.878205811440569D+02 -.184657377454889D+03
 0.299693455182307D+03 0.139739518354024D+03 -.304964513109845D+02 0.263360970052003D+03
0.767048288511D-03 0.000000000000D+00 0.000000000000D+00 0.375115539875D-05 0.000000000000D+00  6 2 -2 25 1 -1 21 0 0.42105118D+00 0.27310888D-01 0.28449131D+06 0.28449131D+06 0.28449131D+06 0.10862615D+01  1  2  2  1  6  1        2 0.295974280337D-02 0.100000000000D+01
0.263245033728D-03 0.000000000000D+00 -.294566739634D-05 0.375115539875D-05 0.000000000000D+00  6 2 -2 25 1 -1 21 2 0.42105118D+00 0.27310888D-01 0.28449131D+06 0.28449131D+06 0.28449131D+06 0.10862615D+01  1  2  3  1  6  1        2 0.119856124600D-02 0.100000000000D+01
-.496368739460D-03 0.000000000000D+00 0.000000000000D+00 0.375115539875D-05 0.000000000000D+00  6 2 -2 25 1 -1 21 2 0.42105118D+00 0.27310888D-01 0.28449131D+06 0.28449131D+06 0.28449131D+06 0.10862615D+01  1  2 15  1  6  1        2 -.225997932960D-02 0.100000000000D+01
-.642605653049D-04 0.000000000000D+00 0.000000000000D+00 0.375115539875D-05 0.000000000000D+00  6 2 -2 25 1 -1 21 2 0.42105118D+00 0.27310888D-01 0.28449131D+06 0.28449131D+06 0.28449131D+06 0.10862615D+01  1  2  4  1  6  1        2 -.292579966771D-03 0.100000000000D+01
-.306300247793D-02 0.000000000000D+00 -.438638969398D-03 0.375115539875D-05 0.000000000000D+00  6 2 -2 25 1 -1 21 2 0.59660578D+00 0.27310888D-01 0.28449131D+06 0.28449131D+06 0.28449131D+06 0.10862615D+01  1  2  5  1  6  1        2 -.231814962388D-02 0.100000000000D+01
0.305388426994D-02 0.000000000000D+00 0.413286332599D-03 0.375115539875D-05 0.000000000000D+00  6 2 -2 25 1 -1 21 2 0.42105118D+00 0.27310888D-01 0.28449131D+06 0.28449131D+06 0.28449131D+06 0.10862615D+01  1  2  6  1  6  1        2 0.139044117334D-01 0.100000000000D+01
-.119581411239D-03 0.000000000000D+00 -.188900950204D-04 0.375115539875D-05 0.000000000000D+00  6 21 -2 25 1 -1 -2 2 0.59660578D+00 0.27310888D-01 0.28449131D+06 0.28449131D+06 0.28449131D+06 0.10862615D+01  1  2  5  5  6  1        2 -.198096588360D-05 0.100000000000D+01
  </mgrwgt>
  </event>
  <event>
  5     66 0.18881543E-05 0.39499037E+02 0.75467711E-02 0.93850643E-01
        2 -1    0    0  502    0 0.00000000E+00 0.00000000E+00 0.20452576E+04 0.20452577E+04 0.32000000E+00 0.0000E+00 0.9000E+01
       -2 -1    0    0    0  501 0.00000000E+00 0.00000000E+00 -.45225269E+03 0.45225280E+03 0.32000000E+00 0.0000E+00 0.9000E+01
       25  1    1    2    0    0 -.74604890E+02 -.46978745E+03 0.90019742E+03 0.10257907E+04 0.12500000E+03 0.0000E+00 0.9000E+01
        1  1    1    2  502    0 -.34464702E+02 -.19327421E+02 0.92045874E+03 0.92130655E+03 0.32000000E+00 0.0000E+00 0.9000E+01
       -1  1    1    2    0  501 0.10906959E+03 0.48911487E+03 -.22765122E+03 0.55041322E+03 0.32000000E+00 0.0000E+00 0.9000E+01
#aMCatNLO 1  0  0  4  5 0.32554364D+02 0.00000000D+00  -5  6  0 0.00000000D+00 0.00000000D+00 0.00000000D+00 0.00000000D+00 0.00000000D+00
  <mgrwgt>
 0.2026466463D-01    7    2    0
 0.961755395755793D+03 0.000000000000000D+00 0.000000000000000D+00 0.961755395755793D+03
 0.961755395755793D+03 -.000000000000000D+00 -.000000000000000D+00 -.961755395755793D+03
 0.586523256286109D+03 -.746327531220122D+02 -.469871271991936D+03 0.319429914194913D+03
 0.433768719552004D+03 -.344515551551013D+02 -.193200483236278D+02 0.431966582205097D+03
 0.903218815673473D+03 0.109084308277114D+03 0.489191320315564D+03 -.751396496400010D+03
 0.000000000000000D+00 0.000000000000000D+00 -.000000000000000D+00 0.000000000000000D+00
 0.961755395755793D+03 0.000000000000000D+00 0.000000000000000D+00 0.961755395755793D+03
 0.961755395755793D+03 -.000000000000000D+00 -.000000000000000D+00 -.961755395755793D+03
 0.587600571426844D+03 -.747779846501373D+02 -.469952716214958D+03 0.321250881827584D+03
 0.126516028247836D+03 -.227294075550140D+02 0.243908550943708D+02 0.122044113432688D+03
 0.900797632778001D+03 0.108861163103336D+03 0.489066182988057D+03 -.748598618115029D+03
 0.308596559058906D+03 -.113537708981845D+02 -.435043218674701D+02 0.305303622854757D+03
0.315135883460D-02 0.000000000000D+00 0.000000000000D+00 0.756893798884D-04 0.000000000000D+00  6 2 -2 25 1 -1 21 0 0.31465503D+00 0.69577348D-01 0.26657277D+06 0.26657277D+06 0.26657277D+06 0.10883682D+01  1  2  2  3  6  4        1 0.499164689782D-02 0.100000000000D+01
0.123543049423D-02 0.000000000000D+00 -.121020476967D-04 0.756893798884D-04 0.000000000000D+00  6 2 -2 25 1 -1 21 2 0.31465503D+00 0.69577348D-01 0.26657277D+06 0.26657277D+06 0.26657277D+06 0.10883682D+01  1  2  3  3  6  4        1 0.231801373194D-02 0.100000000000D+01
-.197463858616D-02 0.000000000000D+00 0.000000000000D+00 0.756893798884D-04 0.000000000000D+00  6 2 -2 25 1 -1 21 2 0.31465503D+00 0.69577348D-01 0.26657277D+06 0.26657277D+06 0.26657277D+06 0.10883682D+01  1  2 15  3  6  4        1 -.370497521286D-02 0.100000000000D+01
0.770126495331D-09 0.000000000000D+00 0.000000000000D+00 0.756893798884D-04 0.000000000000D+00  6 2 -2 25 1 -1 21 2 0.31465503D+00 0.69577348D-01 0.28694507D+06 0.28694507D+06 0.28694507D+06 0.10859843D+01  1  2 12  3  6  4        1 0.143210888684D-08 0.100000000000D+01
-.934043995167D-03 0.000000000000D+00 0.000000000000D+00 0.756893798884D-04 0.000000000000D+00  6 2 -2 25 1 -1 21 2 0.31465503D+00 0.69577348D-01 0.26657277D+06 0.26657277D+06 0.26657277D+06 0.10883682D+01  1  2  4  3  6  4        1 -.175252822166D-02 0.100000000000D+01
-.999643097931D-02 0.000000000000D+00 0.000000000000D+00 0.756893798884D-04 0.000000000000D+00  6 2 -2 25 1 -1 21 2 0.31465503D+00 0.69577348D-01 0.26657277D+06 0.26657277D+06 0.26657277D+06 0.10883682D+01  1  2  5  3  6  4        1 -.187561051703D-01 0.100000000000D+01
0.198097341017D-01 0.000000000000D+00 -.000000000000D+00 0.756893798884D-04 0.000000000000D+00  6 2 -2 25 1 -1 21 2 0.31465503D+00 0.69577348D-01 0.26657277D+06 0.26657277D+06 0.26657277D+06 0.10883682D+01  1  2  6  3  6  4        1 0.371686111750D-01 0.100000000000D+01
  </mgrwgt>
  </event>
  <event>
  5     66 0.18881543E-05 0.22400556E+02 0.75467711E-02 0.90813686E-01
        2 -1    0    0  502    0 0.00000000E+00 0.00000000E+00 0.39112936E+04 0.39112936E+04 0.32000000E+00 0.0000E+00 0.9000E+01
       -2 -1    0    0    0  501 0.00000000E+00 0.00000000E+00 -.22376123E+03 0.22376146E+03 0.32000000E+00 0.0000E+00 0.9000E+01
       25  1    1    2    0    0 -.62829651E+03 0.24672079E+03 0.84658738E+03 0.10899371E+04 0.12500000E+03 0.0000E+00 0.9000E+01
        1  1    1    2  502    0 -.37799967E+01 -.22087504E+02 0.18402663E+04 0.18404028E+04 0.32000000E+00 0.0000E+00 0.9000E+01
       -1  1    1    2    0  501 0.63207651E+03 -.22463329E+03 0.10006787E+04 0.12047152E+04 0.32000000E+00 0.0000E+00 0.9000E+01
#aMCatNLO 1  0  0  4  1 0.26163067D+03 0.00000000D+00  -5  6  0 0.00000000D+00 0.00000000D+00 0.00000000D+00 0.00000000D+00 0.00000000D+00
  <mgrwgt>
 0.1834751727D-02    6    2    0
 0.935519300948072D+03 0.000000000000000D+00 0.000000000000000D+00 0.935519300948072D+03
 0.935519300948072D+03 -.000000000000000D+00 -.000000000000000D+00 -.935519300948072D+03
 0.740371727456486D+03 -.628399814614481D+03 0.246755562895917D+03 -.277039094694784D+03
 0.440305420749976D+03 -.377863656111935D+01 -.220795563952737D+02 0.439735236974410D+03
 0.690361453689682D+03 0.632178451175601D+03 -.224676006500643D+03 -.162696142279625D+03
 0.000000000000000D+00 0.000000000000000D+00 0.000000000000000D+00 0.000000000000000D+00
 0.935519300948072D+03 0.000000000000000D+00 0.000000000000000D+00 0.935519300948072D+03
 0.935519300948072D+03 -.000000000000000D+00 -.000000000000000D+00 -.935519300948072D+03
 0.739745770671602D+03 -.628413870141368D+03 0.246673432795933D+03 -.275403396117659D+03
 0.300981235387540D+03 -.304679350882010D+02 -.177215762215894D+02 0.298910278717701D+03
 0.690016475752543D+03 0.632165342797971D+03 -.224752602161126D+03 -.161170667296768D+03
 0.140295120084458D+03 0.267164624315983D+02 -.419925441321736D+01 0.137663784696727D+03
0.696646763462D-03 0.000000000000D+00 0.000000000000D+00 0.588136017906D-05 0.000000000000D+00  6 2 -2 25 1 -1 21 0 0.60173749D+00 0.34424823D-01 0.47603273D+06 0.47603273D+06 0.47603273D+06 0.10700214D+01  1  2  2  3  6  4        1 0.266017711898D-03 0.100000000000D+01
0.506272340116D-03 0.000000000000D+00 -.267530700300D-05 0.588136017906D-05 0.000000000000D+00  6 2 -2 25 1 -1 21 2 0.60173749D+00 0.34424823D-01 0.47603273D+06 0.47603273D+06 0.47603273D+06 0.10700214D+01  1  2  3  3  6  4        1 0.221343638271D-03 0.100000000000D+01
-.423576054862D-03 0.000000000000D+00 0.000000000000D+00 0.588136017906D-05 0.000000000000D+00  6 2 -2 25 1 -1 21 2 0.60173749D+00 0.34424823D-01 0.47603273D+06 0.47603273D+06 0.47603273D+06 0.10700214D+01  1  2 15  3  6  4        1 -.185188598386D-03 0.100000000000D+01
-.520041690806D-03 0.000000000000D+00 0.000000000000D+00 0.588136017906D-05 0.000000000000D+00  6 2 -2 25 1 -1 21 2 0.60173749D+00 0.34424823D-01 0.47603273D+06 0.47603273D+06 0.47603273D+06 0.10700214D+01  1  2  4  3  6  4        1 -.227363635685D-03 0.100000000000D+01
-.102638292963D-01 0.000000000000D+00 0.000000000000D+00 0.588136017906D-05 0.000000000000D+00  6 2 -2 25 1 -1 21 2 0.60173749D+00 0.34424823D-01 0.47603273D+06 0.47603273D+06 0.47603273D+06 0.10700214D+01  1  2  5  3  6  4        1 -.448737396659D-02 0.100000000000D+01
0.142892906598D-01 0.000000000000D+00 -.000000000000D+00 0.588136017906D-05 0.000000000000D+00  6 2 -2 25 1 -1 21 2 0.60173749D+00 0.34424823D-01 0.47603273D+06 0.47603273D+06 0.47603273D+06 0.10700214D+01  1  2  6  3  6  4        1 0.624731657713D-02 0.100000000000D+01
  </mgrwgt>
  </event>
  <event>
  5     66 0.18881543E-05 0.28306131E+02 0.75467711E-02 0.91744300E-01
        2 -1    0    0  502    0 0.00000000E+00 0.00000000E+00 0.15036274E+04 0.15036274E+04 0.32000000E+00 0.0000E+00 0.9000E+01
       -2 -1    0    0    0  501 0.00000000E+00 0.00000000E+00 -.36593458E+03 0.36593472E+03 0.32000000E+00 0.0000E+00 0.9000E+01
       25  1    1    2    0    0 -.46786226E+03 -.24143995E+03 0.37171541E+03 0.65649500E+03 0.12500000E+03 0.0000E+00 0.9000E+01
        1  1    1    2  502    0 0.48188271E+03 0.26602708E+03 0.91150567E+03 0.10648117E+04 0.32000000E+00 0.0000E+00 0.9000E+01
       -1  1    1    2    0  501 -.14020451E+02 -.24587126E+02 -.14552824E+03 0.14825543E+03 0.32000000E+00 0.0000E+00 0.9000E+01
#aMCatNLO 1  0  0  2  5 0.49233304D+03 0.00000000D+00  -5  6  0 0.00000000D+00 0.00000000D+00 0.00000000D+00 0.00000000D+00 0.00000000D+00
  <mgrwgt>
 0.3970685491D-02    7    4    0
 0.741774516179224D+03 0.000000000000000D+00 0.000000000000000D+00 0.741774516179224D+03
 0.741774516179224D+03 0.000000000000000D+00 0.000000000000000D+00 -.741774516179224D+03
 0.542234937696989D+03 -.467848421697741D+03 -.241430681786677D+03 -.349686697803994D+02
 0.642845501089102D+03 0.481869906776138D+03 0.266020008365476D+03 0.332091984792296D+03
 0.298468593572358D+03 -.140214850783977D+02 -.245893265787982D+02 -.297123315011897D+03
 0.000000000000000D+00 -.000000000000000D+00 0.000000000000000D+00 -.000000000000000D+00
 0.770591953746774D+03 0.000000000000000D+00 0.000000000000000D+00 0.770591953746774D+03
 0.987790416684047D+03 0.000000000000000D+00 0.000000000000000D+00 -.987790416684047D+03
 0.513702988138257D+03 -.419204708357753D+03 -.267040005704492D+03 -.349686697803994D+02
 0.677918269608093D+03 0.542713307396318D+03 0.233987948151383D+03 0.332091984792296D+03
 0.299991490414350D+03 0.135476741104319D+02 -.391035870932836D+02 -.297123315011897D+03
 0.266769622270121D+03 -.137056273148997D+03 0.721556446463923D+02 -.217198462937273D+03
 0.741774516179224D+03 0.000000000000000D+00 0.000000000000000D+00 0.741774516179224D+03
 0.741774516179224D+03 0.000000000000000D+00 0.000000000000000D+00 -.741774516179224D+03
 0.542234937696989D+03 -.467848421697741D+03 -.241430681786677D+03 -.349686697803994D+02
 0.642845501089102D+03 0.481869906776138D+03 0.266020008365476D+03 0.332091984792296D+03
 0.000000000000000D+00 -.000000000000000D+00 0.000000000000000D+00 -.000000000000000D+00
 0.298468593572358D+03 -.140214850783977D+02 -.245893265787982D+02 -.297123315011897D+03
 0.770591953746774D+03 0.000000000000000D+00 0.000000000000000D+00 0.770591953746774D+03
 0.987790416684047D+03 0.000000000000000D+00 0.000000000000000D+00 -.987790416684047D+03
 0.513702988138257D+03 -.419204708357753D+03 -.267040005704492D+03 -.349686697803994D+02
 0.677918269608093D+03 0.542713307396318D+03 0.233987948151383D+03 0.332091984792296D+03
 0.266769622270121D+03 -.137056273148997D+03 0.721556446463923D+02 -.217198462937273D+03
 0.299991490414350D+03 0.135476741104319D+02 -.391035870932836D+02 -.297123315011897D+03
0.306907535945D-03 0.000000000000D+00 0.000000000000D+00 0.102427072270D-04 0.000000000000D+00  6 2 -2 25 1 -1 21 0 0.23132731D+00 0.56297642D-01 0.31350768D+06 0.31350768D+06 0.31350768D+06 0.10831396D+01  1  2  2  2  6  2       -2 0.148528228891D-02 0.100000000000D+01
0.154748384853D-03 0.000000000000D+00 -.117860574864D-05 0.102427072270D-04 0.000000000000D+00  6 2 -2 25 1 -1 21 2 0.23132731D+00 0.56297642D-01 0.31350768D+06 0.31350768D+06 0.31350768D+06 0.10831396D+01  1  2  3  2  6  2       -2 0.878610614042D-03 0.100000000000D+01
-.217833021362D-03 0.000000000000D+00 0.000000000000D+00 0.102427072270D-04 0.000000000000D+00  6 2 -2 25 1 -1 21 2 0.23132731D+00 0.56297642D-01 0.31350768D+06 0.31350768D+06 0.31350768D+06 0.10831396D+01  1  2 15  2  6  2       -2 -.123678450563D-02 0.100000000000D+01
-.137614004405D-04 0.000000000000D+00 0.000000000000D+00 0.102427072270D-04 0.000000000000D+00  6 2 -2 25 1 -1 21 2 0.23132731D+00 0.56297642D-01 0.31350768D+06 0.31350768D+06 0.31350768D+06 0.10831396D+01  1  2  4  2  6  2       -2 -.781327217250D-04 0.100000000000D+01
-.157541778246D-02 0.000000000000D+00 -.295271861152D-03 0.102427072270D-04 0.000000000000D+00  6 2 -2 25 1 -1 21 2 0.23132731D+00 0.76816530D-01 0.31350768D+06 0.31350768D+06 0.31350768D+06 0.10831396D+01  1  2  5  2  6  2       -2 -.461323655923D-02 0.100000000000D+01
0.160286059768D-02 0.000000000000D+00 0.281565799041D-03 0.102427072270D-04 0.000000000000D+00  6 2 -2 25 1 -1 21 2 0.23132731D+00 0.56297642D-01 0.31350768D+06 0.31350768D+06 0.31350768D+06 0.10831396D+01  1  2  6  2  6  2       -2 0.910051717368D-02 0.100000000000D+01
-.554777934794D-04 0.000000000000D+00 -.117080408250D-04 0.102427072270D-04 0.000000000000D+00  6 2 21 25 1 2 -1 2 0.23132731D+00 0.76816530D-01 0.31350768D+06 0.31350768D+06 0.31350768D+06 0.10831396D+01  3  4  5  6  5  2       -2 -.156557079944D-02 0.100000000000D+01
  </mgrwgt>
  </event>
  <event>
  5     66 0.18881543E-05 0.34607693E+02 0.75467711E-02 0.85802155E-01
        2 -1    0    0  502    0 0.00000000E+00 0.00000000E+00 0.18794382E+04 0.18794382E+04 0.32000000E+00 0.0000E+00 0.9000E+01
       -2 -1    0    0    0  501 0.00000000E+00 0.00000000E+00 -.10205418E+04 0.10205418E+04 0.32000000E+00 0.0000E+00 0.9000E+01
       25  1    1    2    0    0 -.28132761E+03 -.10985332E+04 0.58894304E+03 0.12839001E+04 0.12500000E+03 0.0000E+00 0.9000E+01
        1  1    1    2  502    0 0.22899405E+02 -.25981660E+02 0.44735511E+03 0.44869380E+03 0.32000000E+00 0.0000E+00 0.9000E+01
       -1  1    1    2    0  501 0.25842820E+03 0.11245149E+04 -.17740177E+03 0.11673861E+04 0.32000000E+00 0.0000E+00 0.9000E+01
#aMCatNLO 1  0  0  1  4 0.35144259D+02 0.00000000D+00  -5  6  0 0.00000000D+00 0.00000000D+00 0.00000000D+00 0.00000000D+00 0.00000000D+00
  <mgrwgt>
 0.4442035453D-03    7    2    0
 0.138493511468399D+04 0.000000000000000D+00 0.000000000000000D+00 0.138493511468399D+04
 0.138493511468399D+04 0.000000000000000D+00 0.000000000000000D+00 -.138493511468399D+04
 0.116175130309495D+04 -.281347235901329D+03 -.109867323790056D+04 0.218636546383700D+03
 0.330812150900630D+03 0.228828183791523D+02 -.259628399088129D+02 0.328996940335920D+03
 0.127730677537239D+04 0.258464417522176D+03 0.112463607780937D+04 -.547633486719621D+03
 0.000000000000000D+00 0.000000000000000D+00 -.000000000000000D+00 0.000000000000000D+00
 0.141694976360649D+04 0.000000000000000D+00 0.000000000000000D+00 0.141694976360649D+04
 0.139472524031424D+04 0.000000000000000D+00 0.000000000000000D+00 -.139472524031424D+04
 0.116433878743874D+04 -.296060264356348D+03 -.109754553089563D+04 0.218636546383700D+03
 0.330524113697242D+03 0.186997218950724D+02 -.256422188196987D+02 0.328996940335920D+03
 0.127523027536104D+04 0.242319062528073D+03 0.112587356810443D+04 -.547633486719621D+03
 0.415818274237218D+02 0.350414799332021D+02 -.268581838910896D+01 0.222245232922530D+02
0.361244382102D-03 0.000000000000D+00 0.000000000000D+00 0.213419942524D-05 0.000000000000D+00  6 2 -2 25 1 -1 21 0 0.28914434D+00 0.15700643D+00 0.13567060D+07 0.13567060D+07 0.13567060D+07 0.10391571D+01  1  2  2  1  6  1        2 0.845925038573D-04 0.100000000000D+01
0.203384252462D-03 0.000000000000D+00 -.138727354510D-05 0.213419942524D-05 0.000000000000D+00  6 2 -2 25 1 -1 21 2 0.28914434D+00 0.15700643D+00 0.13567060D+07 0.13567060D+07 0.13567060D+07 0.10391571D+01  1  2  3  1  6  1        2 0.514292842726D-04 0.100000000000D+01
-.234578917473D-03 0.000000000000D+00 0.000000000000D+00 0.213419942524D-05 0.000000000000D+00  6 2 -2 25 1 -1 21 2 0.28914434D+00 0.15700643D+00 0.13567060D+07 0.13567060D+07 0.13567060D+07 0.10391571D+01  1  2 15  1  6  1        2 -.593174038061D-04 0.100000000000D+01
-.123793730320D-04 0.000000000000D+00 0.000000000000D+00 0.213419942524D-05 0.000000000000D+00  6 2 -2 25 1 -1 21 2 0.28914434D+00 0.15700643D+00 0.13567060D+07 0.13567060D+07 0.13567060D+07 0.10391571D+01  1  2  4  1  6  1        2 -.313034213353D-05 0.100000000000D+01
-.231002060256D-01 0.000000000000D+00 -.275306086149D-02 0.213419942524D-05 0.000000000000D+00  6 2 -2 25 1 -1 21 2 0.29672629D+00 0.15700643D+00 0.13567060D+07 0.13567060D+07 0.13567060D+07 0.10391571D+01  1  2  5  1  6  1        2 -.548188919989D-02 0.100000000000D+01
0.231646281770D-01 0.000000000000D+00 0.275213885939D-02 0.213419942524D-05 0.000000000000D+00  6 2 -2 25 1 -1 21 2 0.28914434D+00 0.15700643D+00 0.13567060D+07 0.13567060D+07 0.13567060D+07 0.10391571D+01  1  2  6  1  6  1        2 0.585758353050D-02 0.100000000000D+01
-.107213705296D-03 0.000000000000D+00 -.128574222387D-04 0.213419942524D-05 0.000000000000D+00  6 21 -2 25 1 -1 -2 2 0.29672629D+00 0.15700643D+00 0.13567060D+07 0.13567060D+07 0.13567060D+07 0.10391571D+01  1  2  5  5  6  1        2 -.506482749488D-05 0.100000000000D+01
  </mgrwgt>
  </event>
  <event>
  5     66 -.18881543E-05 0.47550546E+02 0.75467711E-02 0.93333311E-01
        2 -1    0    0  502    0 0.00000000E+00 0.00000000E+00 0.74559808E+03 0.74559814E+03 0.32000000E+00 0.0000E+00 0.9000E+01
       -2 -1    0    0    0  501 0.00000000E+00 0.00000000E+00 -.26482323E+04 0.26482323E+04 0.32000000E+00 0.0000E+00 0.9000E+01
       25  1    1    2    0    0 0.47742428E+03 0.84101639E+02 -.15210857E+04 0.16013537E+04 0.12500000E+03 0.0000E+00 0.9000E+01
        1  1    1    2  502    0 -.45515675E+03 -.12612216E+03 0.62578779E+03 0.78401845E+03 0.32000000E+00 0.0000E+00 0.9000E+01
       -1  1    1    2    0  501 -.22267533E+02 0.42020522E+02 -.10073363E+04 0.10084583E+04 0.32000000E+00 0.0000E+00 0.9000E+01
#aMCatNLO 1  0  0  1  2 0.12518461D+03 0.00000000D+00  -5  6  0 0.00000000D+00 0.00000000D+00 0.00000000D+00 0.00000000D+00 0.00000000D+00
  <mgrwgt>
 -.1111057094D-01    7    2    0
 0.140517508629540D+04 0.000000000000000D+00 0.000000000000000D+00 0.140517508629540D+04
 0.140517508629540D+04 0.000000000000000D+00 0.000000000000000D+00 -.140517508629540D+04
 0.904097873118637D+03 0.477423636932988D+03 0.841068401842192D+02 -.752835091178372D+03
 0.137046605919070D+04 -.455158961185003D+03 -.126122773417512D+03 0.128650712608682D+04
 0.535786240281464D+03 -.222646757479846D+02 0.420159332332931D+02 -.533672034908444D+03
 0.000000000000000D+00 0.000000000000000D+00 -.000000000000000D+00 0.000000000000000D+00
 0.190032960429790D+04 0.000000000000000D+00 0.000000000000000D+00 0.190032960429790D+04
 0.140888695780950D+04 0.000000000000000D+00 0.000000000000000D+00 -.140888695780950D+04
 0.891945454619572D+03 0.452866000942208D+03 0.899633519694466D+02 -.752835091178372D+03
 0.138263446935844D+04 -.492802619097908D+03 -.117145503525216D+03 0.128650712608682D+04
 0.536881055304319D+03 -.369314560964202D+02 0.455136710446282D+02 -.533672034908444D+03
 0.497755582825069D+03 0.768680742521204D+02 -.183315194888589D+02 0.491442646488402D+03
0.485672538160D-01 0.000000000000D+00 0.000000000000D+00 0.311483954137D-03 0.000000000000D+00  6 2 -2 25 1 -1 21 0 0.11470740D+00 0.40742035D+00 0.26035115D+06 0.26035115D+06 0.26035115D+06 0.10891361D+01  1  2  2  1  6  1        2 0.120563479276D-02 0.100000000000D+01
0.133113767225D-01 0.000000000000D+00 -.186511042705D-03 0.311483954137D-03 0.000000000000D+00  6 2 -2 25 1 -1 21 2 0.11470740D+00 0.40742035D+00 0.26035115D+06 0.26035115D+06 0.26035115D+06 0.10891361D+01  1  2  3  1  6  1        2 0.391976005544D-03 0.100000000000D+01
-.305291546071D-01 0.000000000000D+00 0.000000000000D+00 0.311483954137D-03 0.000000000000D+00  6 2 -2 25 1 -1 21 2 0.11470740D+00 0.40742035D+00 0.26035115D+06 0.26035115D+06 0.26035115D+06 0.10891361D+01  1  2 15  1  6  1        2 -.898982601500D-03 0.100000000000D+01
-.115782268298D+01 0.000000000000D+00 0.000000000000D+00 0.311483954137D-03 0.000000000000D+00  6 2 -2 25 1 -1 21 2 0.11470740D+00 0.40742035D+00 0.26035115D+06 0.26035115D+06 0.26035115D+06 0.10891361D+01  1  2  4  1  6  1        2 -.340940475104D-01 0.100000000000D+01
-.274413598815D+01 0.000000000000D+00 -.471470129087D-01 0.311483954137D-03 0.000000000000D+00  6 2 -2 25 1 -1 21 2 0.15527864D+00 0.40742035D+00 0.26035115D+06 0.26035115D+06 0.26035115D+06 0.10891361D+01  1  2  5  1  6  1        2 -.539762231948D-01 0.100000000000D+01
0.263857663663D+01 0.000000000000D+00 0.450647280550D-01 0.311483954137D-03 0.000000000000D+00  6 2 -2 25 1 -1 21 2 0.11470740D+00 0.40742035D+00 0.26035115D+06 0.26035115D+06 0.26035115D+06 0.10891361D+01  1  2  6  1  6  1        2 0.776973525663D-01 0.100000000000D+01
-.105726194265D+00 0.000000000000D+00 -.183491105944D-02 0.311483954137D-03 0.000000000000D+00  6 21 -2 25 1 -1 -2 2 0.15527864D+00 0.40742035D+00 0.26035115D+06 0.26035115D+06 0.26035115D+06 0.10891361D+01  1  2  5  5  6  1        2 -.143628099776D-02 0.100000000000D+01
  </mgrwgt>
  </event>
  <event>
  5     66 0.18881543E-05 0.13119753E+03 0.75467711E-02 0.94826812E-01
        2 -1    0    0  502    0 0.00000000E+00 0.00000000E+00 0.15065513E+04 0.15065513E+04 0.32000000E+00 0.0000E+00 0.9000E+01
       -2 -1    0    0    0  501 0.00000000E+00 0.00000000E+00 -.44685320E+03 0.44685332E+03 0.32000000E+00 0.0000E+00 0.9000E+01
       25  1    1    2    0    0 -.42928123E+03 -.16842524E+03 0.32667325E+03 0.57878308E+03 0.12500000E+03 0.0000E+00 0.9000E+01
        1  1    1    2  502    0 0.59485237E+02 0.11696518E+03 0.93906086E+03 0.94818498E+03 0.32000000E+00 0.0000E+00 0.9000E+01
       -1  1    1    2    0  501 0.36979600E+03 0.51460062E+02 -.20603602E+03 0.42643659E+03 0.32000000E+00 0.0000E+00 0.9000E+01
#aMCatNLO 1  0  0  4  1 0.17609354D+03 0.00000000D+00  -5  6  0 0.00000000D+00 0.00000000D+00 0.00000000D+00 0.00000000D+00 0.00000000D+00
  <mgrwgt>
 0.1923577796D-02    1    2    0
 0.820492177626195D+03 0.000000000000000D+00 0.000000000000000D+00 0.820492177626195D+03
 0.820492177626195D+03 -.000000000000000D+00 -.000000000000000D+00 -.820492177626195D+03
 0.478071803590700D+03 -.429337816054105D+03 -.168420036206202D+03 0.152111964900230D+02
 0.522189365640238D+03 0.594739106232012D+02 0.116942911565315D+03 0.505439356379739D+03
 0.640723186021454D+03 0.369863905430903D+03 0.514771246408866D+02 -.520650552869761D+03
 0.000000000000000D+00 0.000000000000000D+00 0.000000000000000D+00 0.000000000000000D+00
 0.820492177626195D+03 0.000000000000000D+00 0.000000000000000D+00 0.820492177626195D+03
 0.820492177626195D+03 -.000000000000000D+00 -.000000000000000D+00 -.820492177626195D+03
 0.475926683439819D+03 -.427513610609731D+03 -.164833120637291D+03 0.307142164873150D+02
 0.218844741792734D+03 0.102311868086018D+03 0.118724026101019D+03 0.152741311652880D+03
 0.625960072904203D+03 0.372286016711626D+03 0.562396960328615D+02 -.500066226835363D+03
 0.320252857115636D+03 -.470842741879132D+02 -.101306014965892D+02 0.316610698695168D+03
0.502495796027D-03 0.000000000000D+00 0.000000000000D+00 0.844935497074D-05 0.000000000000D+00  6 2 -2 25 1 -1 21 2 0.23177713D+00 0.68746658D-01 0.24130507D+06 0.24130507D+06 0.24130507D+06 0.10916175D+01  1  2 14  3  6  4        1 0.192357779583D-02 0.100000000000D+01
  </mgrwgt>
  </event>
  <event>
  5     66 -.18881543E-05 0.43442521E+02 0.75467711E-02 0.94309822E-01
        2 -1    0    0  502    0 0.00000000E+00 0.00000000E+00 0.65040132E+03 0.65040140E+03 0.32000000E+00 0.0000E+00 0.9000E+01
       -2 -1    0    0    0  501 0.00000000E+00 0.00000000E+00 -.13946114E+04 0.13946115E+04 0.32000000E+00 0.0000E+00 0.9000E+01
       25  1    1    2    0    0 -.30096991E+03 0.37427275E+03 0.24819737E+02 0.49689436E+03 0.12500000E+03 0.0000E+00 0.9000E+01
        1  1    1    2  502    0 0.29919049E+02 0.31514773E+02 0.33670121E+03 0.33949395E+03 0.32000000E+00 0.0000E+00 0.9000E+01
       -1  1    1    2    0  501 0.27105086E+03 -.40578753E+03 -.11057311E+04 0.12086246E+04 0.32000000E+00 0.0000E+00 0.9000E+01
#aMCatNLO 1  0  0  1  4 0.55109824D+00 0.00000000D+00  -5  6  0 0.00000000D+00 0.00000000D+00 0.00000000D+00 0.00000000D+00 0.00000000D+00
  <mgrwgt>
 -.5309034922D-02   13    2    0
 0.952395531331655D+03 0.000000000000000D+00 0.000000000000000D+00 0.952395531331655D+03
 0.952395531331655D+03 0.000000000000000D+00 0.000000000000000D+00 -.952395531331655D+03
 0.543287794223117D+03 -.301006386857818D+03 0.374343599073739D+03 0.220904169845527D+03
 0.495894845603920D+03 0.299105097031657D+02 0.315057779013238D+02 0.493988304785311D+03
 0.865608422836273D+03 0.271095877154652D+03 -.405849376975063D+03 -.714892474630838D+03
 0.000000000000000D+00 0.000000000000000D+00 0.000000000000000D+00 0.000000000000000D+00
 0.103666074516269D+04 0.000000000000000D+00 0.000000000000000D+00 0.103666074516269D+04
 0.952396472245037D+03 0.000000000000000D+00 0.000000000000000D+00 -.952396472245037D+03
 0.543221707502037D+03 -.301067278111602D+03 0.374198697614996D+03 0.220904169845527D+03
 0.495883110324146D+03 0.298549274895578D+02 0.313735102383764D+02 0.493988304785311D+03
 0.865686324559586D+03 0.270998850200289D+03 -.406080269695296D+03 -.714892474630838D+03
 0.842660750219587D+02 0.213500421754770D+00 0.508061841923216D+00 0.842642729176551D+02
0.756046272124D-05 0.000000000000D+00 0.000000000000D+00 0.811050552874D-04 0.000000000000D+00  6 2 -2 25 1 -1 21 0 0.10006175D+00 0.21455562D+00 0.26412219D+06 0.26412219D+06 0.26412219D+06 0.10886683D+01  1  2  2  1  6  1        2 0.425386359361D-05 0.100000000000D+01
0.302884346062D-05 0.000000000000D+00 -.290341675651D-07 0.811050552874D-04 0.000000000000D+00  6 2 -2 25 1 -1 21 2 0.10006175D+00 0.21455562D+00 0.26412219D+06 0.26412219D+06 0.26412219D+06 0.10886683D+01  1  2  3  1  6  1        2 0.201977577235D-05 0.100000000000D+01
-.490697844002D-05 0.000000000000D+00 0.000000000000D+00 0.811050552874D-04 0.000000000000D+00  6 2 -2 25 1 -1 21 2 0.10006175D+00 0.21455562D+00 0.26412219D+06 0.26412219D+06 0.26412219D+06 0.10886683D+01  1  2 15  1  6  1        2 -.327220481926D-05 0.100000000000D+01
0.542040276839D-16 0.000000000000D+00 0.000000000000D+00 0.811050552874D-04 0.000000000000D+00  6 2 -2 25 1 -1 21 2 0.10891497D+00 0.21455562D+00 0.26437035D+06 0.26437035D+06 0.26437035D+06 0.10886378D+01  1  2 12  1  6  1        2 0.326154750759D-16 0.100000000000D+01
0.803058656313D-09 0.000000000000D+00 0.000000000000D+00 0.811050552874D-04 0.000000000000D+00  6 2 -2 25 1 -1 21 2 0.10896637D+00 0.21455562D+00 0.26437035D+06 0.26437035D+06 0.26437035D+06 0.10886378D+01  1  2 12  1  6  1        2 0.482934330233D-09 0.100000000000D+01
-.114241874032D+01 0.000000000000D+00 0.000000000000D+00 0.811050552874D-04 0.000000000000D+00  6 2 -2 25 1 -1 21 2 0.10006175D+00 0.21455562D+00 0.26412219D+06 0.26412219D+06 0.26412219D+06 0.10886683D+01  1  2  4  1  6  1        2 -.761818734969D+00 0.100000000000D+01
-.988334441100D+00 0.000000000000D+00 -.230048381401D-04 0.811050552874D-04 0.000000000000D+00  6 2 -2 25 1 -1 21 2 0.10891497D+00 0.21455562D+00 0.26412219D+06 0.26412219D+06 0.26412219D+06 0.10886683D+01  1  2  5  1  6  1        2 -.594763347821D+00 0.100000000000D+01
0.984795172501D+00 0.000000000000D+00 0.229224096685D-04 0.811050552874D-04 0.000000000000D+00  6 2 -2 25 1 -1 21 2 0.10006175D+00 0.21455562D+00 0.26412219D+06 0.26412219D+06 0.26412219D+06 0.10886683D+01  1  2  6  1  6  1        2 0.656707900561D+00 0.100000000000D+01
0.115418284211D+01 0.000000000000D+00 0.000000000000D+00 0.811050552874D-04 0.198149080440D-02  6 2 -2 25 1 -1 21 2 0.10891493D+00 0.21455583D+00 0.26437035D+06 0.26437035D+06 0.26437035D+06 0.10886378D+01  1  2 11  1  6  1        2 0.694489339668D+00 0.100000000000D+01
0.802576676837D-18 0.000000000000D+00 0.000000000000D+00 0.811050552874D-04 0.000000000000D+00  6 21 -2 25 1 -1 -2 2 0.10891497D+00 0.21455562D+00 0.26437035D+06 0.26437035D+06 0.26437035D+06 0.10886378D+01  1  2 12  5  6  1        2 0.569107903072D-18 0.100000000000D+01
0.118905582339D-10 0.000000000000D+00 0.000000000000D+00 0.811050552874D-04 0.000000000000D+00  6 21 -2 25 1 -1 -2 2 0.10896637D+00 0.21455562D+00 0.26437035D+06 0.26437035D+06 0.26437035D+06 0.10886378D+01  1  2 12  5  6  1        2 0.842103457883D-11 0.100000000000D+01
-.138971372834D-01 0.000000000000D+00 -.323476204441D-06 0.811050552874D-04 0.000000000000D+00  6 21 -2 25 1 -1 -2 2 0.10891497D+00 0.21455562D+00 0.26412219D+06 0.26412219D+06 0.26412219D+06 0.10886683D+01  1  2  5  5  6  1        2 -.985595175512D-02 0.100000000000D+01
0.140019245350D-01 0.000000000000D+00 0.000000000000D+00 0.811050552874D-04 0.240013777503D-04  6 21 -2 25 1 -1 -2 2 0.10891493D+00 0.21455583D+00 0.26437035D+06 0.26437035D+06 0.26437035D+06 0.10886378D+01  1  2 11  5  6  1        2 0.992875746824D-02 0.100000000000D+01
  </mgrwgt>
  </event>
  <event>
  5     66 -.18881543E-05 0.31446674E+02 0.75467711E-02 0.94145638E-01
        2 -1    0    0  502    0 0.00000000E+00 0.00000000E+00 0.24126474E+04 0.24126474E+04 0.32000000E+00 0.0000E+00 0.9000E+01
       -2 -1    0    0    0  501 0.00000000E+00 0.00000000E+00 -.52261559E+03 0.52261568E+03 0.32000000E+00 0.0000E+00 0.9000E+01
       25  1    1    2    0    0 -.48792592E+03 0.15320006E+03 -.77917487E+02 0.53220118E+03 0.12500000E+03 0.0000E+00 0.9000E+01
        1  1    1    2  502    0 0.45981249E+03 -.13910716E+03 0.21577976E+04 0.22106263E+04 0.32000000E+00 0.0000E+00 0.9000E+01
       -1  1    1    2    0  501 0.28113436E+02 -.14092894E+02 -.18984829E+03 0.19243557E+03 0.32000000E+00 0.0000E+00 0.9000E+01
#aMCatNLO 1  0  0  2  5 0.39766404D+01 0.00000000D+00  -5  6  0 0.00000000D+00 0.00000000D+00 0.00000000D+00 0.00000000D+00 0.00000000D+00
  <mgrwgt>
 -.2132958758D-01   11    4    0
 0.112289238529999D+04 0.000000000000000D+00 0.000000000000000D+00 0.112289238529999D+04
 0.112289238529999D+04 0.000000000000000D+00 0.000000000000000D+00 -.112289238529999D+04
 0.761187029619913D+03 -.487926466640880D+03 0.153199970368848D+03 -.549761972395251D+03
 0.107333199286036D+04 0.459814182028635D+03 -.139107676089300D+03 0.959823702226598D+03
 0.411265748119702D+03 0.281122846122449D+02 -.140922942795476D+02 -.410061729831347D+03
 0.000000000000000D+00 -.000000000000000D+00 0.000000000000000D+00 -.000000000000000D+00
 0.112289557585095D+04 0.000000000000000D+00 0.000000000000000D+00 0.112289557585095D+04
 0.388717351746697D+04 0.000000000000000D+00 0.000000000000000D+00 -.388717351746697D+04
 0.760409457642991D+03 -.487027094713481D+03 0.152196997328911D+03 -.549761972395251D+03
 0.107406062995947D+04 0.461083444055876D+03 -.140523147881511D+03 0.959823702226598D+03
 0.411318203739314D+03 0.285984903313191D+02 -.146345073654122D+02 -.410061729831347D+03
 0.276428080197614D+04 -.265483967371387D+01 0.296065791801308D+01 -.276427794161601D+04
 0.112289238529999D+04 0.000000000000000D+00 0.000000000000000D+00 0.112289238529999D+04
 0.112289238529999D+04 0.000000000000000D+00 0.000000000000000D+00 -.112289238529999D+04
 0.761187029619913D+03 -.487926466640880D+03 0.153199970368848D+03 -.549761972395251D+03
 0.107333199286036D+04 0.459814182028635D+03 -.139107676089300D+03 0.959823702226598D+03
 0.000000000000000D+00 -.000000000000000D+00 0.000000000000000D+00 -.000000000000000D+00
 0.411265748119702D+03 0.281122846122449D+02 -.140922942795476D+02 -.410061729831347D+03
 0.112289557585095D+04 0.000000000000000D+00 0.000000000000000D+00 0.112289557585095D+04
 0.388717351746697D+04 0.000000000000000D+00 0.000000000000000D+00 -.388717351746697D+04
 0.760409457642991D+03 -.487027094713481D+03 0.152196997328911D+03 -.549761972395251D+03
 0.107406062995947D+04 0.461083444055876D+03 -.140523147881511D+03 0.959823702226598D+03
 0.276428080197614D+04 -.265483967371387D+01 0.296065791801308D+01 -.276427794161601D+04
 0.411318203739314D+03 0.285984903313191D+02 -.146345073654122D+02 -.410061729831347D+03
0.118877522075D-04 0.000000000000D+00 0.000000000000D+00 0.184036401938D-03 0.000000000000D+00  6 2 -2 25 1 -1 21 0 0.37117653D+00 0.80402407D-01 0.26952157D+06 0.26952157D+06 0.26952157D+06 0.10880111D+01  1  2  2  2  6  2       -2 0.852378475269D-05 0.100000000000D+01
0.486364962155D-05 0.000000000000D+00 -.456520985939D-07 0.184036401938D-03 0.000000000000D+00  6 2 -2 25 1 -1 21 2 0.37117653D+00 0.80402407D-01 0.26952157D+06 0.26952157D+06 0.26952157D+06 0.10880111D+01  1  2  3  2  6  2       -2 0.412820861941D-05 0.100000000000D+01
-.736971821236D-05 0.000000000000D+00 0.000000000000D+00 0.184036401938D-03 0.000000000000D+00  6 2 -2 25 1 -1 21 2 0.37117653D+00 0.80402407D-01 0.26952157D+06 0.26952157D+06 0.26952157D+06 0.10880111D+01  1  2 15  2  6  2       -2 -.625533017676D-05 0.100000000000D+01
0.438685126462D-08 0.000000000000D+00 0.000000000000D+00 0.184036401938D-03 0.000000000000D+00  6 2 -2 25 1 -1 21 2 0.37117653D+00 0.27833283D+00 0.27220513D+06 0.27220513D+06 0.27220513D+06 0.10876897D+01  1  2 12  2  6  2       -2 0.104381338955D-09 0.100000000000D+01
0.209033294997D+00 0.000000000000D+00 0.000000000000D+00 0.184036401938D-03 0.000000000000D+00  6 2 -2 25 1 -1 21 2 0.37117653D+00 0.27866366D+00 0.27220513D+06 0.27220513D+06 0.27220513D+06 0.10876897D+01  1  2 12  2  6  2       -2 0.494957315124D-02 0.100000000000D+01
-.208988065899D+01 0.000000000000D+00 -.748616033149D-05 0.184036401938D-03 0.000000000000D+00  6 2 -2 25 1 -1 21 2 0.37117653D+00 0.27833322D+00 0.26952157D+06 0.26952157D+06 0.26952157D+06 0.10880111D+01  1  2  5  2  6  2       -2 -.498103568210D-01 0.100000000000D+01
0.145865037417D+01 0.000000000000D+00 0.000000000000D+00 0.184036401938D-03 0.106797750378D-03  6 2 -2 25 1 -1 21 2 0.37117759D+00 0.27833309D+00 0.27220513D+06 0.27220513D+06 0.27220513D+06 0.10876897D+01  1  2 11  2  6  2       -2 0.347068809968D-01 0.100000000000D+01
0.636139863518D-09 0.000000000000D+00 0.000000000000D+00 0.184036401938D-03 0.000000000000D+00  6 2 21 25 1 2 -1 2 0.37117653D+00 0.27833283D+00 0.27220513D+06 0.27220513D+06 0.27220513D+06 0.10876897D+01  3  4 12  6  5  2       -2 0.110767785476D-09 0.100000000000D+01
0.303120401693D-01 0.000000000000D+00 0.000000000000D+00 0.184036401938D-03 0.000000000000D+00  6 2 21 25 1 2 -1 2 0.37117653D+00 0.27866366D+00 0.27220513D+06 0.27220513D+06 0.27220513D+06 0.10876897D+01  3  4 12  6  5  2       -2 0.525133461991D-02 0.100000000000D+01
-.303053861096D+00 0.000000000000D+00 -.108556996187D-05 0.184036401938D-03 0.000000000000D+00  6 2 21 25 1 2 -1 2 0.37117653D+00 0.27833322D+00 0.26952157D+06 0.26952157D+06 0.26952157D+06 0.10880111D+01  3  4  5  6  5  2       -2 -.528781961475D-01 0.100000000000D+01
0.209305245391D+00 0.000000000000D+00 0.000000000000D+00 0.184036401938D-03 0.153236930042D-04  6 2 21 25 1 2 -1 2 0.37117759D+00 0.27833309D+00 0.27220513D+06 0.27220513D+06 0.27220513D+06 0.10876897D+01  3  4 11  6  5  2       -2 0.364447797452D-01 0.100000000000D+01
  </mgrwgt>
  </event>
  <event>
  5     66 -.18881543E-05 0.53548744E+02 0.75467711E-02 0.92909446E-01
        2 -1    0    0  502    0 0.00000000E+00 0.00000000E+00 0.21669823E+04 0.21669823E+04 0.32000000E+00 0.0000E+00 0.9000E+01
       -2 -1    0    0    0  501 0.00000000E+00 0.00000000E+00 -.62725228E+03 0.62725236E+03 0.32000000E+00 0.0000E+00 0.9000E+01
       25  1    1    2    0    0 0.38198641E+03 0.35949289E+03 0.82569137E+03 0.98617443E+03 0.12500000E+03 0.0000E+00 0.9000E+01
        1  1    1    2  502    0 -.43181140E+03 -.37909547E+03 0.11940272E+04 0.13250945E+04 0.32000000E+00 0.0000E+00 0.9000E+01
       -1  1    1    2    0  501 0.49824988E+02 0.19602580E+02 -.47998855E+03 0.48296573E+03 0.32000000E+00 0.0000E+00 0.9000E+01
#aMCatNLO 1  0  0  4  1 0.31673153D+02 0.00000000D+00  -5  6  0 0.00000000D+00 0.00000000D+00 0.00000000D+00 0.00000000D+00 0.00000000D+00
  <mgrwgt>
 -.3470370835D-02    8    2    0
 0.116586651292900D+04 0.000000000000000D+00 0.000000000000000D+00 0.116586651292900D+04
 0.116586651292900D+04 -.000000000000000D+00 -.000000000000000D+00 -.116586651292900D+04
 0.636563028396605D+03 0.381932913254257D+03 0.359448881655621D+03 0.338395095075410D+03
 0.799379673562025D+03 -.431763818369961D+03 -.379053698107164D+03 0.555793272361230D+03
 0.895790323899378D+03 0.498309051157039D+02 0.196048164515428D+02 -.894188367436640D+03
 0.000000000000000D+00 0.000000000000000D+00 0.000000000000000D+00 0.000000000000000D+00
 0.116586651292900D+04 0.000000000000000D+00 0.000000000000000D+00 0.116586651292900D+04
 0.116586651292900D+04 -.000000000000000D+00 -.000000000000000D+00 -.116586651292900D+04
 0.636319455340779D+03 0.381338689997937D+03 0.358927201715742D+03 0.339160016252433D+03
 0.644738063762807D+03 -.344699970434866D+03 -.332470644779913D+03 0.431662335172349D+03
 0.894654365941138D+03 0.489950668608364D+02 0.188710180922382D+02 -.893112424388444D+03
 0.156021140813283D+03 -.856337864239072D+02 -.453275750280665D+02 0.122290072963662D+03
0.227029450911D-03 0.000000000000D+00 0.000000000000D+00 0.482141908487D-04 0.000000000000D+00  6 2 -2 25 1 -1 21 0 0.33338190D+00 0.96500359D-01 0.34062439D+06 0.34062439D+06 0.34062439D+06 0.10804947D+01  1  2  2  3  6  4        1 0.144207930651D-03 0.100000000000D+01
0.108059382616D-03 0.000000000000D+00 -.871852869725D-06 0.482141908487D-04 0.000000000000D+00  6 2 -2 25 1 -1 21 2 0.33338190D+00 0.96500359D-01 0.34062439D+06 0.34062439D+06 0.34062439D+06 0.10804947D+01  1  2  3  3  6  4        1 0.801336148537D-04 0.100000000000D+01
-.158401982836D-03 0.000000000000D+00 0.000000000000D+00 0.482141908487D-04 0.000000000000D+00  6 2 -2 25 1 -1 21 2 0.33338190D+00 0.96500359D-01 0.34062439D+06 0.34062439D+06 0.34062439D+06 0.10804947D+01  1  2 15  3  6  4        1 -.117466185512D-03 0.100000000000D+01
0.391816676797D-09 0.000000000000D+00 0.000000000000D+00 0.482141908487D-04 0.000000000000D+00  6 2 -2 25 1 -1 21 2 0.33338190D+00 0.96500359D-01 0.34029866D+06 0.34029866D+06 0.34029866D+06 0.10805251D+01  1  2 12  3  6  4        1 0.290595415136D-09 0.100000000000D+01
0.813738367866D-02 0.000000000000D+00 0.000000000000D+00 0.482141908487D-04 0.000000000000D+00  6 2 -2 25 1 -1 21 2 0.33338190D+00 0.96500359D-01 0.34029866D+06 0.34029866D+06 0.34029866D+06 0.10805251D+01  1  2 12  3  6  4        1 0.603518565762D-02 0.100000000000D+01
-.147296496917D-01 0.000000000000D+00 0.000000000000D+00 0.482141908487D-04 0.000000000000D+00  6 2 -2 25 1 -1 21 2 0.33338190D+00 0.96500359D-01 0.34062439D+06 0.34062439D+06 0.34062439D+06 0.10804947D+01  1  2  4  3  6  4        1 -.109230688419D-01 0.100000000000D+01
-.826710905181D-02 0.000000000000D+00 0.000000000000D+00 0.482141908487D-04 0.000000000000D+00  6 2 -2 25 1 -1 21 2 0.33338190D+00 0.96500359D-01 0.34062439D+06 0.34062439D+06 0.34062439D+06 0.10804947D+01  1  2  5  3  6  4        1 -.613064147393D-02 0.100000000000D+01
0.100344896039D-01 0.000000000000D+00 -.000000000000D+00 0.482141908487D-04 0.000000000000D+00  6 2 -2 25 1 -1 21 2 0.33338190D+00 0.96500359D-01 0.34062439D+06 0.34062439D+06 0.34062439D+06 0.10804947D+01  1  2  6  3  6  4        1 0.744127817228D-02 0.100000000000D+01
  </mgrwgt>
  </event>
  <event>
  5     66 0.18881543E-05 0.44425928E+02 0.75467711E-02 0.92508565E-01
        2 -1    0    0  502    0 0.00000000E+00 0.00000000E+00 0.25666667E+04 0.25666668E+04 0.32000000E+00 0.0000E+00 0.9000E+01
       -2 -1    0    0    0  501 0.00000000E+00 0.00000000E+00 -.46282162E+03 0.46282173E+03 0.32000000E+00 0.0000E+00 0.9000E+01
       25  1    1    2    0    0 -.30287394E+03 -.43011236E+03 0.38202641E+02 0.54204586E+03 0.12500000E+03 0.0000E+00 0.9000E+01
        1  1    1    2  502    0 0.32770028E+03 0.39326965E+03 0.22450212E+04 0.23026439E+04 0.32000000E+00 0.0000E+00 0.9000E+01
       -1  1    1    2    0  501 -.24826340E+02 0.36842714E+02 -.17937875E+03 0.18479873E+03 0.32000000E+00 0.0000E+00 0.9000E+01
#aMCatNLO 1  0  0  1  1 0.11834786D+03 0.00000000D+00  -5  6  0 0.00000000D+00 0.00000000D+00 0.00000000D+00 0.00000000D+00 0.00000000D+00
  <mgrwgt>
 0.1419403424D-01    7    2    0
 0.108991240771022D+04 0.000000000000000D+00 0.000000000000000D+00 0.108991240771022D+04
 0.108991240771022D+04 0.000000000000000D+00 0.000000000000000D+00 -.108991240771022D+04
 0.716464469346410D+03 -.302875099795883D+03 -.430112517208205D+03 -.470070454613231D+03
 0.103341345878801D+04 0.327700890887896D+03 0.393270378461551D+03 0.897715941899321D+03
 0.429946887286011D+03 -.248257910920132D+02 0.368421387466543D+02 -.427645487286090D+03
 0.000000000000000D+00 -.000000000000000D+00 0.000000000000000D+00 0.000000000000000D+00
 0.115830337154797D+04 0.000000000000000D+00 0.000000000000000D+00 0.115830337154797D+04
 0.114394719383446D+04 0.000000000000000D+00 0.000000000000000D+00 -.114394719383446D+04
 0.712178294973978D+03 -.267575365885861D+03 -.446105497727613D+03 -.470070454613231D+03
 0.104232995116691D+04 0.378989562812641D+03 0.370033412056943D+03 0.897715941899321D+03
 0.428526898476004D+03 -.361412295288710D+01 0.272319304601585D+02 -.427645487286090D+03
 0.119215420765542D+03 -.107800073973892D+03 0.488401552105106D+02 0.143561777135082D+02
0.547426543540D-02 0.000000000000D+00 0.000000000000D+00 0.820160026534D-04 0.000000000000D+00  6 2 -2 25 1 -1 21 0 0.39487182D+00 0.71203336D-01 0.30086998D+06 0.30086998D+06 0.30086998D+06 0.10844588D+01  1  2  2  1  6  1        2 0.415132259993D-02 0.100000000000D+01
0.185401790754D-02 0.000000000000D+00 -.210226206791D-04 0.820160026534D-04 0.000000000000D+00  6 2 -2 25 1 -1 21 2 0.39487182D+00 0.71203336D-01 0.30086998D+06 0.30086998D+06 0.30086998D+06 0.10844588D+01  1  2  3  1  6  1        2 0.165348667694D-02 0.100000000000D+01
-.346055108844D-02 0.000000000000D+00 0.000000000000D+00 0.820160026534D-04 0.000000000000D+00  6 2 -2 25 1 -1 21 2 0.39487182D+00 0.71203336D-01 0.30086998D+06 0.30086998D+06 0.30086998D+06 0.10844588D+01  1  2 15  1  6  1        2 -.308625666255D-02 0.100000000000D+01
-.302575236107D-03 0.000000000000D+00 0.000000000000D+00 0.820160026534D-04 0.000000000000D+00  6 2 -2 25 1 -1 21 2 0.39487182D+00 0.71203336D-01 0.30086998D+06 0.30086998D+06 0.30086998D+06 0.10844588D+01  1  2  4  1  6  1        2 -.269848591884D-03 0.100000000000D+01
-.489046129953D-01 0.000000000000D+00 -.118773020611D-01 0.820160026534D-04 0.000000000000D+00  6 2 -2 25 1 -1 21 2 0.42763777D+00 0.71203336D-01 0.30086998D+06 0.30086998D+06 0.30086998D+06 0.10844588D+01  1  2  5  1  6  1        2 -.325708085408D-01 0.100000000000D+01
0.497309613470D-01 0.000000000000D+00 0.118396643810D-01 0.820160026534D-04 0.000000000000D+00  6 2 -2 25 1 -1 21 2 0.39487182D+00 0.71203336D-01 0.30086998D+06 0.30086998D+06 0.30086998D+06 0.10844588D+01  1  2  6  1  6  1        2 0.443520430329D-01 0.100000000000D+01
-.625583589372D-03 0.000000000000D+00 -.158142129413D-03 0.820160026534D-04 0.000000000000D+00  6 21 -2 25 1 -1 -2 2 0.42763777D+00 0.71203336D-01 0.30086998D+06 0.30086998D+06 0.30086998D+06 0.10844588D+01  1  2  5  5  6  1        2 -.359042742810D-04 0.100000000000D+01
  </mgrwgt>
  </event>
  <event>
  6     66 0.18881543E-05 0.69564736E+02 0.75467711E-02 0.92361414E-01
        2 -1    0    0  502    0 0.00000000E+00 0.00000000E+00 0.31420987E+04 0.31420987E+04 0.32000000E+00 0.0000E+00 0.9000E+01
       -2 -1    0    0    0  503 0.00000000E+00 0.00000000E+00 -.14210725E+04 0.14210726E+04 0.32000000E+00 0.0000E+00 0.9000E+01
       25  1    1    2    0    0 0.10569588E+03 -.58396828E+03 0.83425896E+02 0.61218907E+03 0.12500000E+03 0.0000E+00 0.9000E+01
        1  1    1    2  502    0 -.44016136E+02 0.54674360E+03 0.27661897E+04 0.28200481E+04 0.32000000E+00 0.0000E+00 0.9000E+01
       -1  1    1    2    0  501 -.49199322E+02 0.31068508E+02 -.96465117E+03 0.96640458E+03 0.32000000E+00 0.0000E+00 0.9000E+01
       21  1    1    2  501  503 -.12480417E+02 0.61561773E+01 -.16393822E+03 0.16452952E+03 0.75000000E+00 0.0000E+00 0.9000E+01
#aMCatNLO 2  0  0  2  1 0.13916153D+02 0.00000000D+00  -5  6  0 0.00000000D+00 0.00000000D+00 0.00000000D+00 0.00000000D+00 0.00000000D+00
  <mgrwgt>
 0.8776455785D-02    2    2    0
 0.198713141166192D+04 0.000000000000000D+00 0.000000000000000D+00 0.198713141166192D+04
 0.198713141166192D+04 0.000000000000000D+00 0.000000000000000D+00 -.198713141166192D+04
 0.636733757134633D+03 0.103696800839903D+03 -.582977206013904D+03 -.197963199202722D+03
 0.181016009321159D+04 -.496985565428557D+02 0.549541033970472D+03 0.172401109872182D+04
 0.152736897297763D+04 -.539982442970470D+02 0.334361720434326D+02 -.152604789951910D+04
 0.000000000000000D+00 -.000000000000000D+00 0.000000000000000D+00 -.000000000000000D+00
 0.198733004570143D+04 0.000000000000000D+00 0.000000000000000D+00 0.198733004570143D+04
 0.224680739834952D+04 0.000000000000000D+00 0.000000000000000D+00 -.224680739834952D+04
 0.637966338881163D+03 0.105698271391141D+03 -.583964465298860D+03 -.197963199202722D+03
 0.180916387630488D+04 -.440156744570866D+02 0.546737856026628D+03 0.172401109872182D+04
 0.152715697224543D+04 -.492021799157355D+02 0.310704319685839D+02 -.152604789951910D+04
 0.259850256619479D+03 -.124804170183185D+02 0.615617730364712D+01 -.259477352648095D+03
-.619903079228D-09 0.000000000000D+00 0.000000000000D+00 0.128122478556D-02 0.000000000000D+00  6 2 -2 25 1 -1 21 2 0.48335136D+00 0.21863540D+00 0.37643682D+06 0.37643682D+06 0.37643682D+06 0.10773336D+01  1  2 13  2  6  2       -2 -.122413768799D-10 0.100000000000D+01
0.444589203777D+00 0.000000000000D+00 0.000000000000D+00 0.128122478556D-02 0.279292336088D-03  6 2 -2 25 1 -1 21 2 0.48339968D+00 0.21862649D+00 0.37643682D+06 0.37643682D+06 0.37643682D+06 0.10773336D+01  1  2  1  2  6  2       -2 0.877645579729D-02 0.100000000000D+01
  </mgrwgt>
  </event>
  <event>
  5     66 0.18881543E-05 0.10793225E+03 0.75467711E-02 0.89112051E-01
        2 -1    0    0  502    0 0.00000000E+00 0.00000000E+00 0.29047898E+04 0.29047899E+04 0.32000000E+00 0.0000E+00 0.9000E+01
       -2 -1    0    0    0  501 0.00000000E+00 0.00000000E+00 -.21316214E+03 0.21316238E+03 0.32000000E+00 0.0000E+00 0.9000E+01
       25  1    1    2    0    0 0.29878216E+03 0.50076472E+03 0.48764556E+03 0.77036308E+03 0.12500000E+03 0.0000E+00 0.9000E+01
        1  1    1    2  502    0 -.22487015E+03 -.42212833E+03 0.21865755E+04 0.22382742E+04 0.32000000E+00 0.0000E+00 0.9000E+01
       -1  1    1    2    0  501 -.73912011E+02 -.78636392E+02 0.17406648E+02 0.10931496E+03 0.32000000E+00 0.0000E+00 0.9000E+01
#aMCatNLO 1  0  0  1  4 0.30908662D+01 0.00000000D+00  -5  6  0 0.00000000D+00 0.00000000D+00 0.00000000D+00 0.00000000D+00 0.00000000D+00
  <mgrwgt>
 0.1182621756D-02    4    2    0
 0.786887302706089D+03 0.000000000000000D+00 0.000000000000000D+00 0.786887302706089D+03
 0.786887302706089D+03 0.000000000000000D+00 0.000000000000000D+00 -.786887302706089D+03
 0.692202969144551D+03 0.298785740812049D+03 0.500766668950439D+03 -.351396890777664D+03
 0.694740072941865D+03 -.224865933631148D+03 -.422120413924539D+03 0.503898240710995D+03
 0.186831563325762D+03 -.739198071809006D+02 -.786462550258994D+02 -.152501349933330D+03
 0.000000000000000D+00 0.000000000000000D+00 -.000000000000000D+00 -.000000000000000D+00
 0.970409139565086D+03 0.000000000000000D+00 0.000000000000000D+00 0.970409139565086D+03
 0.110986226753243D+04 0.000000000000000D+00 0.000000000000000D+00 -.110986226753243D+04
 0.749222860912770D+03 0.156990827962961D+03 0.630542623778606D+03 -.351396890777664D+03
 0.687552314270942D+03 -.360843813650825D+03 -.297668422943417D+03 0.503898240710995D+03
 0.193985224103412D+03 -.111381244362751D+03 -.443601605403779D+02 -.152501349933330D+03
 0.449511007810396D+03 0.315234230050616D+03 -.288514040294811D+03 -.139453127967348D+03
0.139750958692D-02 0.000000000000D+00 0.000000000000D+00 0.364419123178D-06 0.000000000000D+00  6 2 -2 25 1 -1 21 0 0.44689076D+00 0.32794196D-01 0.34962828D+06 0.34962828D+06 0.34962828D+06 0.10796670D+01  1  2  2  1  6  1        2 0.303572757486D-02 0.100000000000D+01
0.148776009014D-03 0.000000000000D+00 -.536680478652D-05 0.364419123178D-06 0.000000000000D+00  6 2 -2 25 1 -1 21 2 0.44689076D+00 0.32794196D-01 0.34962828D+06 0.34962828D+06 0.34962828D+06 0.10796670D+01  1  2  3  1  6  1        2 0.376721631368D-03 0.100000000000D+01
-.861610620604D-03 0.000000000000D+00 0.000000000000D+00 0.364419123178D-06 0.000000000000D+00  6 2 -2 25 1 -1 21 2 0.44689076D+00 0.32794196D-01 0.34962828D+06 0.34962828D+06 0.34962828D+06 0.10796670D+01  1  2 15  1  6  1        2 -.218171841514D-02 0.100000000000D+01
-.189993610204D-04 0.000000000000D+00 0.000000000000D+00 0.364419123178D-06 0.000000000000D+00  6 2 -2 25 1 -1 21 2 0.44689076D+00 0.32794196D-01 0.34962828D+06 0.34962828D+06 0.34962828D+06 0.10796670D+01  1  2  4  1  6  1        2 -.481090353610D-04 0.100000000000D+01
  </mgrwgt>
  </event>
  <event>
  6     66 0.18881543E-05 0.17136825E+03 0.75467711E-02 0.93162271E-01
        2 -1    0    0  502    0 0.00000000E+00 0.00000000E+00 0.25959353E+04 0.25959353E+04 0.32000000E+00 0.0000E+00 0.9000E+01
       -2 -1    0    0    0  503 0.00000000E+00 0.00000000E+00 -.34778810E+03 0.34778824E+03 0.32000000E+00 0.0000E+00 0.9000E+01
       25  1    1    2    0    0 -.79230744E+02 0.51234958E+03 0.10835204E+04 0.12076510E+04 0.12500000E+03 0.0000E+00 0.9000E+01
        1  1    1    2  502    0 0.15761292E+03 -.99261183E+02 0.12662044E+04 0.12798313E+04 0.32000000E+00 0.0000E+00 0.9000E+01
       -1  1    1    2    0  501 -.71862821E+02 -.38413851E+03 -.46350135E+02 0.39354173E+03 0.32000000E+00 0.0000E+00 0.9000E+01
       21  1    1    2  501  503 -.65193505E+01 -.28949893E+02 -.55227396E+02 0.62699489E+02 0.75000000E+00 0.0000E+00 0.9000E+01
#aMCatNLO 2  0  0  2  5 0.29674876D+02 0.00000000D+00  -5  6  0 0.00000000D+00 0.00000000D+00 0.00000000D+00 0.00000000D+00 0.00000000D+00
  <mgrwgt>
 0.2490483689D-02    3    2    0
 0.865142268680766D+03 0.000000000000000D+00 0.000000000000000D+00 0.865142268680766D+03
 0.865142268680766D+03 0.000000000000000D+00 0.000000000000000D+00 -.865142268680766D+03
 0.560223238943122D+03 -.813046261020783D+02 0.502951914657094D+03 0.196606222610291D+03
 0.446332454055919D+03 0.155883377082481D+03 -.106687327464374D+03 0.404389473714944D+03
 0.723728844362491D+03 -.745787509804022D+02 -.396264587192720D+03 -.600995696325235D+03
 0.000000000000000D+00 -.000000000000000D+00 -.000000000000000D+00 -.000000000000000D+00
 0.866515785963739D+03 0.000000000000000D+00 0.000000000000000D+00 0.866515785963739D+03
 0.104191292705001D+04 0.000000000000000D+00 0.000000000000000D+00 -.104191292705001D+04
 0.568414318499590D+03 -.791785472214893D+02 0.512393001870791D+03 0.196606222610291D+03
 0.445200408951190D+03 0.157562808339124D+03 -.992296281719643D+02 0.404389473714944D+03
 0.716924257512317D+03 -.718649106390518D+02 -.384213480537806D+03 -.600995696325235D+03
 0.177889728050652D+03 -.651935047858240D+01 -.289498931610214D+02 -.175397141086272D+03
-.129979734161D-07 0.000000000000D+00 0.000000000000D+00 0.141422063239D-05 0.000000000000D+00  6 2 -2 25 1 -1 21 2 0.39874126D+00 0.53536470D-01 0.32494969D+06 0.32494969D+06 0.32494969D+06 0.10819943D+01  1  2 13  2  6  2       -2 -.201586030743D-07 0.100000000000D+01
-.166535309971D-02 0.000000000000D+00 0.000000000000D+00 0.141422063239D-05 0.000000000000D+00  6 2 -2 25 1 -1 21 2 0.39874126D+00 0.54035874D-01 0.32494969D+06 0.32494969D+06 0.32494969D+06 0.10819943D+01  1  2 13  2  6  2       -2 -.253480326516D-02 0.100000000000D+01
0.325459223194D-02 0.000000000000D+00 0.000000000000D+00 0.141422063239D-05 0.210138320012D-07  6 2 -2 25 1 -1 21 2 0.39937431D+00 0.53505825D-01 0.32494969D+06 0.32494969D+06 0.32494969D+06 0.10819943D+01  1  2  1  2  6  2       -2 0.502530711273D-02 0.100000000000D+01
  </mgrwgt>
  </event>
  <event>
  5     66 0.18881543E-05 0.24780826E+02 0.75467711E-02 0.91957935E-01
        2 -1    0    0  502    0 0.00000000E+00 0.00000000E+00 0.33052469E+04 0.33052469E+04 0.32000000E+00 0.0000E+00 0.9000E+01
       -2 -1    0    0    0  501 0.00000000E+00 0.00000000E+00 -.49371159E+03 0.49371170E+03 0.32000000E+00 0.0000E+00 0.9000E+01
       25  1    1    2    0    0 -.19397731E+02 0.61228911E+03 0.29232814E+03 0.69018474E+03 0.12500000E+03 0.0000E+00 0.9000E+01
        1  1    1    2  502    0 -.25053331E+01 -.62387720E+03 0.27788134E+04 0.28479876E+04 0.32000000E+00 0.0000E+00 0.9000E+01
       -1  1    1    2    0  501 0.21903064E+02 0.11588093E+02 -.25960622E+03 0.26078635E+03 0.32000000E+00 0.0000E+00 0.9000E+01
#aMCatNLO 1  0  0  5  2 0.89139754D+00 0.00000000D+00  -5  6  0 0.00000000D+00 0.00000000D+00 0.00000000D+00 0.00000000D+00 0.00000000D+00
  <mgrwgt>
 0.8113437299D-02    9    2    0
 0.127743451765873D+04 0.000000000000000D+00 0.000000000000000D+00 0.127743451765873D+04
 0.127743451765873D+04 -.000000000000000D+00 -.000000000000000D+00 -.127743451765873D+04
 0.704548165148217D+03 -.193989149314608D+02 0.612283369278958D+03 -.324801285123085D+03
 0.117682321187208D+04 -.250531183336766D+01 -.623871906426814D+03 0.997842893337879D+03
 0.673497658297152D+03 0.219042267648297D+02 0.115885371478565D+02 -.673041608214793D+03
 0.000000000000000D+00 0.000000000000000D+00 0.000000000000000D+00 0.000000000000000D+00
 0.127743451765873D+04 0.000000000000000D+00 0.000000000000000D+00 0.127743451765873D+04
 0.127743451765873D+04 -.000000000000000D+00 -.000000000000000D+00 -.127743451765873D+04
 0.704551039430603D+03 -.193987180288974D+02 0.612283473451212D+03 -.324807335262148D+03
 0.117681455025183D+04 -.250498294431049D+01 -.623871732426467D+03 0.997832787707476D+03
 0.654881839655011D+03 0.210652278618960D+02 0.104082434026509D+02 -.654460196310157D+03
 0.186216059800029D+02 0.838473111313068D+00 0.118001557260477D+01 -.185652561351707D+02
0.159437789204D-03 0.000000000000D+00 0.000000000000D+00 0.191567368576D-03 0.000000000000D+00  6 2 -2 25 1 -1 21 0 0.50849954D+00 0.75955639D-01 0.40568716D+06 0.40568716D+06 0.40568716D+06 0.10749859D+01  1  2  2  4  6  5       -1 0.351913780512D-04 0.100000000000D+01
0.112576360604D-03 0.000000000000D+00 -.612283091479D-06 0.191567368576D-03 0.000000000000D+00  6 2 -2 25 1 -1 21 2 0.50849954D+00 0.75955639D-01 0.40568716D+06 0.40568716D+06 0.40568716D+06 0.10749859D+01  1  2  3  4  6  5       -1 0.287142682608D-04 0.100000000000D+01
-.105428784657D-03 0.000000000000D+00 0.000000000000D+00 0.191567368576D-03 0.000000000000D+00  6 2 -2 25 1 -1 21 2 0.50849954D+00 0.75955639D-01 0.40568716D+06 0.40568716D+06 0.40568716D+06 0.10749859D+01  1  2 15  4  6  5       -1 -.268911731452D-04 0.100000000000D+01
0.102637612914D-14 0.000000000000D+00 0.000000000000D+00 0.191567368576D-03 0.000000000000D+00  6 2 -2 25 1 -1 21 2 0.50849954D+00 0.75955639D-01 0.40579096D+06 0.40579096D+06 0.40579096D+06 0.10749779D+01  1  2 12  4  6  5       -1 0.261782564507D-15 0.100000000000D+01
0.812164033600D-07 0.000000000000D+00 0.000000000000D+00 0.191567368576D-03 0.000000000000D+00  6 2 -2 25 1 -1 21 2 0.50849954D+00 0.75955639D-01 0.40579096D+06 0.40579096D+06 0.40579096D+06 0.10749779D+01  1  2 12  4  6  5       -1 0.207146656552D-07 0.100000000000D+01
-.256512453807D+00 0.000000000000D+00 0.000000000000D+00 0.191567368576D-03 0.000000000000D+00  6 2 -2 25 1 -1 21 2 0.50849954D+00 0.75955639D-01 0.40568716D+06 0.40568716D+06 0.40568716D+06 0.10749859D+01  1  2  4  4  6  5       -1 -.654273008236D-01 0.100000000000D+01
-.125823757801D+01 0.000000000000D+00 0.000000000000D+00 0.191567368576D-03 0.000000000000D+00  6 2 -2 25 1 -1 21 2 0.50849954D+00 0.75955639D-01 0.40568716D+06 0.40568716D+06 0.40568716D+06 0.10749859D+01  1  2  5  4  6  5       -1 -.320932131373D+00 0.100000000000D+01
0.129350747340D+01 0.000000000000D+00 -.000000000000D+00 0.191567368576D-03 0.000000000000D+00  6 2 -2 25 1 -1 21 2 0.50849954D+00 0.75955639D-01 0.40568716D+06 0.40568716D+06 0.40568716D+06 0.10749859D+01  1  2  6  4  6  5       -1 0.329928240612D+00 0.100000000000D+01
0.252916210984D+00 0.000000000000D+00 0.000000000000D+00 0.191567368576D-03 0.308622335551D-03  6 2 -2 25 1 -1 21 2 0.50849954D+00 0.75955639D-01 0.40579096D+06 0.40579096D+06 0.40579096D+06 0.10749779D+01  1  2 11  4  6  5       -1 0.645075936949D-01 0.100000000000D+01
  </mgrwgt>
  </event>
  <event>
  5     66 -.18881543E-05 0.62826840E+02 0.75467711E-02 0.95173858E-01
        2 -1    0    0  502    0 0.00000000E+00 0.00000000E+00 0.31040791E+04 0.31040792E+04 0.32000000E+00 0.0000E+00 0.9000E+01
       -2 -1    0    0    0  501 0.00000000E+00 0.00000000E+00 -.21203215E+03 0.21203239E+03 0.32000000E+00 0.0000E+00 0.9000E+01
       25  1    1    2    0    0 -.31682480E+03 -.33157346E+03 0.21087808E+04 0.21616892E+04 0.12500000E+03 0.0000E+00 0.9000E+01
        1  1    1    2  502    0 0.62791832E+02 0.37195393E+01 0.73407055E+03 0.73676070E+03 0.32000000E+00 0.0000E+00 0.9000E+01
       -1  1    1    2    0  501 0.25403297E+03 0.32785392E+03 0.49195689E+02 0.41766166E+03 0.32000000E+00 0.0000E+00 0.9000E+01
#aMCatNLO 1  0  0  4  1 0.12132160D+01 0.00000000D+00  -5  6  0 0.00000000D+00 0.00000000D+00 0.00000000D+00 0.00000000D+00 0.00000000D+00
  <mgrwgt>
 -.7250235447D-02    9    2    0
 0.811273694103283D+03 0.000000000000000D+00 0.000000000000000D+00 0.811273694103283D+03
 0.811273694103283D+03 -.000000000000000D+00 -.000000000000000D+00 -.811273694103283D+03
 0.659460100300436D+03 -.316807995710192D+03 -.331633482310215D+03 0.457071713359241D+03
 0.197116955087706D+03 0.627169028244622D+02 0.371510076224308D+01 0.186836511714071D+03
 0.765970332818425D+03 0.254091092885730D+03 0.327918381547972D+03 -.643908225073311D+03
 0.000000000000000D+00 0.000000000000000D+00 0.000000000000000D+00 0.000000000000000D+00
 0.811273694103283D+03 0.000000000000000D+00 0.000000000000000D+00 0.811273694103283D+03
 0.811273694103283D+03 -.000000000000000D+00 -.000000000000000D+00 -.811273694103283D+03
 0.659466659454243D+03 -.316803776535513D+03 -.331633232383029D+03 0.457084282472892D+03
 0.259957269567002D+02 0.906192525555025D+01 -.387573012309542D+00 0.243620425627707D+02
 0.765959810258223D+03 0.254095993446601D+03 0.327918671837776D+03 -.643893626079143D+03
 0.171125191537401D+03 0.536458578333610D+02 0.410213355756213D+01 0.162447301043480D+03
0.457249080283D-04 0.000000000000D+00 0.000000000000D+00 0.797809550905D-05 0.000000000000D+00  6 2 -2 25 1 -1 21 0 0.47755066D+00 0.32620351D-01 0.22706832D+06 0.22706832D+06 0.22706832D+06 0.10936165D+01  1  2  2  3  6  4        1 0.771833151625D-04 0.100000000000D+01
0.676434211446D-05 0.000000000000D+00 -.175595686473D-06 0.797809550905D-05 0.000000000000D+00  6 2 -2 25 1 -1 21 2 0.47755066D+00 0.32620351D-01 0.22706832D+06 0.22706832D+06 0.22706832D+06 0.10936165D+01  1  2  3  3  6  4        1 0.136560853834D-04 0.100000000000D+01
-.298771438196D-04 0.000000000000D+00 0.000000000000D+00 0.797809550905D-05 0.000000000000D+00  6 2 -2 25 1 -1 21 2 0.47755066D+00 0.32620351D-01 0.22706832D+06 0.22706832D+06 0.22706832D+06 0.10936165D+01  1  2 15  3  6  4        1 -.603170005460D-04 0.100000000000D+01
0.713586658804D-12 0.000000000000D+00 0.000000000000D+00 0.797809550905D-05 0.000000000000D+00  6 2 -2 25 1 -1 21 2 0.47755066D+00 0.32620351D-01 0.22709028D+06 0.22709028D+06 0.22709028D+06 0.10936133D+01  1  2 12  3  6  4        1 0.144059531081D-11 0.100000000000D+01
0.221892066882D-06 0.000000000000D+00 0.000000000000D+00 0.797809550905D-05 0.000000000000D+00  6 2 -2 25 1 -1 21 2 0.47755066D+00 0.32620351D-01 0.22709028D+06 0.22709028D+06 0.22709028D+06 0.10936133D+01  1  2 12  3  6  4        1 0.447957745723D-06 0.100000000000D+01
-.200935100811D-01 0.000000000000D+00 0.000000000000D+00 0.797809550905D-05 0.000000000000D+00  6 2 -2 25 1 -1 21 2 0.47755066D+00 0.32620351D-01 0.22706832D+06 0.22706832D+06 0.22706832D+06 0.10936165D+01  1  2  4  3  6  4        1 -.405654658909D-01 0.100000000000D+01
-.511276618735D-02 0.000000000000D+00 0.000000000000D+00 0.797809550905D-05 0.000000000000D+00  6 2 -2 25 1 -1 21 2 0.47755066D+00 0.32620351D-01 0.22706832D+06 0.22706832D+06 0.22706832D+06 0.10936165D+01  1  2  5  3  6  4        1 -.103218273733D-01 0.100000000000D+01
0.163476248854D-01 0.000000000000D+00 -.000000000000D+00 0.797809550905D-05 0.000000000000D+00  6 2 -2 25 1 -1 21 2 0.47755066D+00 0.32620351D-01 0.22706832D+06 0.22706832D+06 0.22706832D+06 0.10936165D+01  1  2  6  3  6  4        1 0.330031446478D-01 0.100000000000D+01
0.525207771862D-02 0.000000000000D+00 0.000000000000D+00 0.797809550905D-05 0.238141817079D-05  6 2 -2 25 1 -1 21 2 0.47755066D+00 0.32620351D-01 0.22709028D+06 0.22709028D+06 0.22709028D+06 0.10936133D+01  1  2 11  3  6  4        1 0.106029428102D-01 0.100000000000D+01
  </mgrwgt>
  </event>
  <event>
  5     66 0.18881543E-05 0.22605170E+03 0.75467711E-02 0.94702334E-01
        2 -1    0    0  502    0 0.00000000E+00 0.00000000E+00 0.81768278E+03 0.81768285E+03 0.32000000E+00 0.0000E+00 0.9000E+01
       -2 -1    0    0    0  501 0.00000000E+00 0.00000000E+00 -.75132300E+03 0.75132306E+03 0.32000000E+00 0.0000E+00 0.9000E+01
       25  1    1    2    0    0 0.25555350E+02 -.45518815E+03 -.99305057E+02 0.48304847E+03 0.12500000E+03 0.0000E+00 0.9000E+01
        1  1    1    2  502    0 0.11333977E+03 0.19561425E+03 0.55416838E+03 0.59850943E+03 0.32000000E+00 0.0000E+00 0.9000E+01
       -1  1    1    2    0  501 -.13889512E+03 0.25957390E+03 -.38850354E+03 0.48744801E+03 0.32000000E+00 0.0000E+00 0.9000E+01
#aMCatNLO 1  0  0  1  2 0.21538484D+03 0.00000000D+00  -5  6  0 0.00000000D+00 0.00000000D+00 0.00000000D+00 0.00000000D+00 0.00000000D+00
  <mgrwgt>
 0.4336089450D-03    1    2    0
 0.783800983876065D+03 0.000000000000000D+00 0.000000000000000D+00 0.783800983876065D+03
 0.783800983876065D+03 0.000000000000000D+00 0.000000000000000D+00 -.783800983876065D+03
 0.487693492160843D+03 0.255844757168513D+02 -.455219265100451D+03 -.119753069187126D+03
 0.575521704067563D+03 0.113327051624456D+03 0.195592302441335D+03 0.529269177686210D+03
 0.504386771523725D+03 -.138911527341308D+03 0.259626962659117D+03 -.409516108499083D+03
 0.000000000000000D+00 -.000000000000000D+00 -.000000000000000D+00 0.000000000000000D+00
 0.292394002519472D+04 0.000000000000000D+00 0.000000000000000D+00 0.292394002519472D+04
 0.142244013647296D+04 0.000000000000000D+00 0.000000000000000D+00 -.142244013647296D+04
 0.361818771825852D+03 0.252719749258107D+03 -.192561040713721D+03 -.119753069187126D+03
 0.102439190658633D+04 0.541098175131088D+03 0.690264935152258D+03 0.529269177686210D+03
 0.810317675412371D+03 0.212602826058789D+03 0.666116604144719D+03 -.409516108499083D+03
 0.214985180784312D+04 -.100642075044798D+04 -.116382049858326D+04 0.150149988872176D+04
0.148258542561D-03 0.000000000000D+00 0.000000000000D+00 0.207150924389D-05 0.000000000000D+00  6 2 -2 25 1 -1 21 2 0.12579736D+00 0.11558816D+00 0.24664481D+06 0.24664481D+06 0.24664481D+06 0.10909008D+01  1  2 14  1  6  1        2 0.433608944978D-03 0.100000000000D+01
  </mgrwgt>
  </event>
  <event>
  6     66 0.18881543E-05 0.18260728E+03 0.75467711E-02 0.92234536E-01
        2 -1    0    0  502    0 0.00000000E+00 0.00000000E+00 0.89778104E+03 0.89778110E+03 0.32000000E+00 0.0000E+00 0.9000E+01
       -2 -1    0    0    0  501 0.00000000E+00 0.00000000E+00 -.55592253E+03 0.55592262E+03 0.32000000E+00 0.0000E+00 0.9000E+01
       25  1    1    2    0    0 0.18875692E+03 -.58048680E+03 -.12577781E+03 0.63564075E+03 0.12500000E+03 0.0000E+00 0.9000E+01
        1  1    1    2  503    0 -.13176649E+02 0.17983948E+03 0.81201551E+02 0.19776162E+03 0.32000000E+00 0.0000E+00 0.9000E+01
       -1  1    1    2    0  501 -.53939227E+02 0.96366859E+02 -.40804088E+01 0.11051137E+03 0.32000000E+00 0.0000E+00 0.9000E+01
       21  1    1    2  502  503 -.12164104E+03 0.30428047E+03 0.39051519E+03 0.50978998E+03 0.75000000E+00 0.0000E+00 0.9000E+01
#aMCatNLO 2  0  0  4  1 0.72595653D+02 0.00000000D+00  -5  6  0 0.00000000D+00 0.00000000D+00 0.00000000D+00 0.00000000D+00 0.00000000D+00
  <mgrwgt>
 0.7058146794D-01    2    2    0
 0.706467843108169D+03 0.000000000000000D+00 0.000000000000000D+00 0.706467843108169D+03
 0.706467843108169D+03 -.000000000000000D+00 -.000000000000000D+00 -.706467843108169D+03
 0.694523686618783D+03 0.191153619572870D+03 -.589027803763935D+03 -.288521561398402D+03
 0.604666344292866D+03 -.137552129427014D+03 0.493939094009529D+03 0.320507365000616D+03
 0.113745655304689D+03 -.536014901458561D+02 0.950887097544052D+02 -.319858036022139D+02
 0.000000000000000D+00 0.000000000000000D+00 0.000000000000000D+00 0.000000000000000D+00
 0.706467843108169D+03 0.000000000000000D+00 0.000000000000000D+00 0.706467843108169D+03
 0.706467843108169D+03 -.000000000000000D+00 -.000000000000000D+00 -.706467843108169D+03
 0.684382215001961D+03 0.188788021068528D+03 -.580533121879384D+03 -.283009529367823D+03
 0.183346363926414D+03 -.131138933569567D+02 0.179389831564226D+03 0.355415713977021D+02
 0.114858428988295D+03 -.539936746156262D+02 0.964970139550729D+02 -.310719827001036D+02
 0.430348678299668D+03 -.121680453095945D+03 0.304646276360085D+03 0.278539940670224D+03
-.123887618382D-04 0.000000000000D+00 0.000000000000D+00 0.121999047941D-07 0.000000000000D+00  6 2 -2 25 1 -1 21 2 0.13812017D+00 0.85526554D-01 0.38540327D+06 0.38540327D+06 0.38540327D+06 0.10765934D+01  1  2 13  3  6  4        1 -.632952826804D-04 0.100000000000D+01
0.138272728967D-01 0.000000000000D+00 0.000000000000D+00 0.121999047941D-07 0.335088601631D-08  6 2 -2 25 1 -1 21 2 0.13812017D+00 0.85526554D-01 0.38540327D+06 0.38540327D+06 0.38540327D+06 0.10765934D+01  1  2  1  3  6  4        1 0.706447632241D-01 0.100000000000D+01
  </mgrwgt>
  </event>
  <event>
  5     66 -.18881543E-05 0.14686193E+03 0.75467711E-02 0.94316046E-01
        2 -1    0    0  502    0 0.00000000E+00 0.00000000E+00 0.23472230E+04 0.23472230E+04 0.32000000E+00 0.0000E+00 0.9000E+01
       -2 -1    0    0    0  501 0.00000000E+00 0.00000000E+00 -.10974539E+04 0.10974539E+04 0.32000000E+00 0.0000E+00 0.9000E+01
       25  1    1    2    0    0 -.26405767E+03 -.39053445E+03 0.44644018E+03 0.66119395E+03 0.12500000E+03 0.0000E+00 0.9000E+01
        1  1    1    2  502    0 0.28186014E+03 0.24476862E+03 0.17683648E+04 0.18073381E+04 0.32000000E+00 0.0000E+00 0.9000E+01
       -1  1    1    2    0  501 -.17802466E+02 0.14576583E+03 -.96503585E+03 0.97614492E+03 0.32000000E+00 0.0000E+00 0.9000E+01
#aMCatNLO 1  0  0  5  4 0.20601381D+02 0.00000000D+00  -5  6  0 0.00000000D+00 0.00000000D+00 0.00000000D+00 0.00000000D+00 0.00000000D+00
  <mgrwgt>
 -.7551123394D-02    5    2    0
 0.160498259015093D+04 0.000000000000000D+00 0.000000000000000D+00 0.160498259015093D+04
 0.160498259015093D+04 -.000000000000000D+00 -.000000000000000D+00 -.160498259015093D+04
 0.535752765520959D+03 -.264042896183184D+03 -.390535587180191D+03 0.221741583570550D+03
 0.125093381275035D+04 0.281846517365814D+03 0.244756795518591D+03 0.119393972024485D+04
 0.142327860203054D+04 -.178036211826296D+02 0.145778791661600D+03 -.141568130381541D+04
 0.000000000000000D+00 0.000000000000000D+00 0.000000000000000D+00 0.000000000000000D+00
 0.160498259015093D+04 0.000000000000000D+00 0.000000000000000D+00 0.160498259015093D+04
 0.160498259015093D+04 -.000000000000000D+00 -.000000000000000D+00 -.160498259015093D+04
 0.535574777485464D+03 -.264047535456373D+03 -.390497600096955D+03 0.221372684892555D+03
 0.125012679122957D+04 0.281835686781385D+03 0.244845478011598D+03 0.119307851028492D+04
 0.103995394379832D+03 -.274108651928831D+01 -.100023398643553D+02 -.103476962142056D+03
 0.132026821720699D+04 -.150470648057228D+02 0.155654461949711D+03 -.131097423303542D+04
0.890595857326D-02 0.000000000000D+00 0.000000000000D+00 0.263022073282D-03 0.000000000000D+00  6 2 -2 25 1 -1 21 0 0.36111124D+00 0.16883906D+00 0.25394535D+06 0.25394535D+06 0.25394535D+06 0.10899479D+01  1  2  2  4  6  5       -1 0.105908842212D-02 0.100000000000D+01
0.168248911564D-02 0.000000000000D+00 -.342012259141D-04 0.263022073282D-03 0.000000000000D+00  6 2 -2 25 1 -1 21 2 0.36111124D+00 0.16883906D+00 0.25394535D+06 0.25394535D+06 0.25394535D+06 0.10899479D+01  1  2  3  4  6  5       -1 0.237692395379D-03 0.100000000000D+01
-.563772419462D-02 0.000000000000D+00 0.000000000000D+00 0.263022073282D-03 0.000000000000D+00  6 2 -2 25 1 -1 21 2 0.36111124D+00 0.16883906D+00 0.25394535D+06 0.25394535D+06 0.25394535D+06 0.10899479D+01  1  2 15  4  6  5       -1 -.796465282208D-03 0.100000000000D+01
0.969438972306D-10 0.000000000000D+00 0.000000000000D+00 0.263022073282D-03 0.000000000000D+00  6 2 -2 25 1 -1 21 2 0.36111124D+00 0.16883906D+00 0.26407839D+06 0.26407839D+06 0.26407839D+06 0.10886737D+01  1  2 12  4  6  5       -1 0.136163638183D-10 0.100000000000D+01
-.569915514763D-01 0.000000000000D+00 0.000000000000D+00 0.263022073282D-03 0.000000000000D+00  6 2 -2 25 1 -1 21 2 0.36111124D+00 0.16883906D+00 0.25394535D+06 0.25394535D+06 0.25394535D+06 0.10899479D+01  1  2  5  4  6  5       -1 -.805143894293D-02 0.100000000000D+01
  </mgrwgt>
  </event>
  <event>
  5     66 0.18881543E-05 0.11074521E+03 0.75467711E-02 0.93241277E-01
        2 -1    0    0  502    0 0.00000000E+00 0.00000000E+00 0.16232691E+04 0.16232691E+04 0.32000000E+00 0.0000E+00 0.9000E+01
       -2 -1    0    0    0  501 0.00000000E+00 0.00000000E+00 -.14854557E+04 0.14854557E+04 0.32000000E+00 0.0000E+00 0.9000E+01
       25  1    1    2    0    0 0.14229352E+03 0.47223140E+03 0.31907082E+03 0.60056734E+03 0.12500000E+03 0.0000E+00 0.9000E+01
        1  1    1    2  502    0 -.43451788E+02 -.42230627E+03 0.11222966E+04 0.11999085E+04 0.32000000E+00 0.0000E+00 0.9000E+01
       -1  1    1    2    0  501 -.98841736E+02 -.49925131E+02 -.13035540E+04 0.13082490E+04 0.32000000E+00 0.0000E+00 0.9000E+01
#aMCatNLO 1  0  0  5  4 0.84793895D+02 0.00000000D+00  -5  6  0 0.00000000D+00 0.00000000D+00 0.00000000D+00 0.00000000D+00 0.00000000D+00
  <mgrwgt>
 0.6285004806D-03    7    2    0
 0.155283432001977D+04 0.000000000000000D+00 0.000000000000000D+00 0.155283432001977D+04
 0.155283432001977D+04 -.000000000000000D+00 -.000000000000000D+00 -.155283432001977D+04
 0.587035506354156D+03 0.142299889331828D+03 0.472209637979995D+03 0.292838667213589D+03
 0.115121482672825D+04 -.434490414744933D+02 -.422279574562049D+03 0.107008771555494D+04
 0.136741830695714D+04 -.988508478573343D+02 -.499300634179454D+02 -.136292638276853D+04
 0.000000000000000D+00 -.000000000000000D+00 0.000000000000000D+00 0.000000000000000D+00
 0.155283432001977D+04 0.000000000000000D+00 0.000000000000000D+00 0.155283432001977D+04
 0.155283432001977D+04 -.000000000000000D+00 -.000000000000000D+00 -.155283432001977D+04
 0.585671074906083D+03 0.142118103456530D+03 0.472117817014582D+03 0.290332257093404D+03
 0.114673082264431D+04 -.438052550985439D+02 -.422459499865926D+03 0.106517634699672D+04
 0.996974179946374D+03 -.170778009242693D+02 -.101015915357258D+03 -.991696349211729D+03
 0.376292562542784D+03 -.812350474337161D+02 0.513575982086019D+02 -.363812254878392D+03
0.101887158075D-02 0.000000000000D+00 0.000000000000D+00 0.263932202539D-03 0.000000000000D+00  6 2 -2 25 1 -1 21 0 0.24973371D+00 0.22853165D+00 0.27250138D+06 0.27250138D+06 0.27250138D+06 0.10876545D+01  1  2  2  4  6  5       -1 0.116930008059D-03 0.100000000000D+01
0.262071191390D-03 0.000000000000D+00 -.391273514514D-05 0.263932202539D-03 0.000000000000D+00  6 2 -2 25 1 -1 21 2 0.24973371D+00 0.22853165D+00 0.27250138D+06 0.27250138D+06 0.27250138D+06 0.10876545D+01  1  2  3  4  6  5       -1 0.355801457675D-04 0.100000000000D+01
-.696185577212D-03 0.000000000000D+00 0.000000000000D+00 0.263932202539D-03 0.000000000000D+00  6 2 -2 25 1 -1 21 2 0.24973371D+00 0.22853165D+00 0.27250138D+06 0.27250138D+06 0.27250138D+06 0.10876545D+01  1  2 15  4  6  5       -1 -.945177689583D-04 0.100000000000D+01
0.328264780761D-10 0.000000000000D+00 0.000000000000D+00 0.263932202539D-03 0.000000000000D+00  6 2 -2 25 1 -1 21 2 0.24973371D+00 0.22853165D+00 0.32031349D+06 0.32031349D+06 0.32031349D+06 0.10824530D+01  1  2 12  4  6  5       -1 0.435490195475D-11 0.100000000000D+01
-.733823158484D-03 0.000000000000D+00 0.000000000000D+00 0.263932202539D-03 0.000000000000D+00  6 2 -2 25 1 -1 21 2 0.24973371D+00 0.22853165D+00 0.27250138D+06 0.27250138D+06 0.27250138D+06 0.10876545D+01  1  2  4  4  6  5       -1 -.996276424276D-04 0.100000000000D+01
-.158627712620D-01 0.000000000000D+00 0.000000000000D+00 0.263932202539D-03 0.000000000000D+00  6 2 -2 25 1 -1 21 2 0.24973371D+00 0.22853165D+00 0.27250138D+06 0.27250138D+06 0.27250138D+06 0.10876545D+01  1  2  5  4  6  5       -1 -.215361219515D-02 0.100000000000D+01
0.207987620054D-01 0.000000000000D+00 -.000000000000D+00 0.263932202539D-03 0.000000000000D+00  6 2 -2 25 1 -1 21 2 0.24973371D+00 0.22853165D+00 0.27250138D+06 0.27250138D+06 0.27250138D+06 0.10876545D+01  1  2  6  4  6  5       -1 0.282374792898D-02 0.100000000000D+01
  </mgrwgt>
  </event>
  <event>
  5     66 0.18881543E-05 0.14701457E+03 0.75467711E-02 0.94328738E-01
        2 -1    0    0  502    0 0.00000000E+00 0.00000000E+00 0.23189928E+04 0.23189928E+04 0.32000000E+00 0.0000E+00 0.9000E+01
       -2 -1    0    0    0  501 0.00000000E+00 0.00000000E+00 -.15833801E+03 0.15833833E+03 0.32000000E+00 0.0000E+00 0.9000E+01
       25  1    1    2    0    0 0.21707858E+02 -.49199364E+03 0.80947941E+03 0.95572531E+03 0.12500000E+03 0.0000E+00 0.9000E+01
        1  1    1    2  502    0 -.40850403E+02 0.14130133E+03 0.10461097E+04 0.10563998E+04 0.32000000E+00 0.0000E+00 0.9000E+01
       -1  1    1    2    0  501 0.19142546E+02 0.35069230E+03 0.30506569E+03 0.46520609E+03 0.32000000E+00 0.0000E+00 0.9000E+01
#aMCatNLO 1  0  0  4  5 0.39448243D+02 0.00000000D+00  -5  6  0 0.00000000D+00 0.00000000D+00 0.00000000D+00 0.00000000D+00 0.00000000D+00
  <mgrwgt>
 0.2484271313D-02    7    2    0
 0.605958026582428D+03 0.000000000000000D+00 0.000000000000000D+00 0.605958026582428D+03
 0.605958026582428D+03 -.000000000000000D+00 -.000000000000000D+00 -.605958026582428D+03
 0.510496033985028D+03 0.216919255965285D+02 -.492040871641884D+03 -.490554962491747D+02
 0.294238393251390D+03 -.408300642928158D+02 0.141230978700568D+03 0.254878301485795D+03
 0.407181625928439D+03 0.191381386962872D+02 0.350809892941316D+03 -.205822805236620D+03
 0.000000000000000D+00 -.000000000000000D+00 0.000000000000000D+00 0.000000000000000D+00
 0.605958026582428D+03 0.000000000000000D+00 0.000000000000000D+00 0.605958026582428D+03
 0.605958026582428D+03 -.000000000000000D+00 -.000000000000000D+00 -.605958026582428D+03
 0.506404780698875D+03 0.206533398802245D+02 -.488448409084732D+03 -.425722107608011D+02
 0.612112565084941D+02 0.194717162308288D+02 -.155087060626396D+01 0.580109040675747D+02
 0.407040831678963D+03 0.183065533517245D+02 0.353686342295972D+03 -.200631702458956D+03
 0.237259184278524D+03 -.584316094627778D+02 0.136312937395024D+03 0.185193009152183D+03
0.512113740628D-03 0.000000000000D+00 0.000000000000D+00 0.333106679161D-06 0.000000000000D+00  6 2 -2 25 1 -1 21 0 0.35676815D+00 0.24359720D-01 0.25325035D+06 0.25325035D+06 0.25325035D+06 0.10900373D+01  1  2  2  3  6  4        1 0.423979500250D-02 0.100000000000D+01
0.403309315739D-04 0.000000000000D+00 -.196665160666D-05 0.333106679161D-06 0.000000000000D+00  6 2 -2 25 1 -1 21 2 0.35676815D+00 0.24359720D-01 0.25325035D+06 0.25325035D+06 0.25325035D+06 0.10900373D+01  1  2  3  3  6  4        1 0.396733994911D-03 0.100000000000D+01
-.313754149424D-03 0.000000000000D+00 0.000000000000D+00 0.333106679161D-06 0.000000000000D+00  6 2 -2 25 1 -1 21 2 0.35676815D+00 0.24359720D-01 0.25325035D+06 0.25325035D+06 0.25325035D+06 0.10900373D+01  1  2 15  3  6  4        1 -.308638884011D-02 0.100000000000D+01
0.105255188137D-06 0.000000000000D+00 0.000000000000D+00 0.333106679161D-06 0.000000000000D+00  6 2 -2 25 1 -1 21 2 0.35676815D+00 0.24359720D-01 0.26348408D+06 0.26348408D+06 0.26348408D+06 0.10887469D+01  1  2 12  3  6  4        1 0.103103819162D-05 0.100000000000D+01
-.155596981087D-03 0.000000000000D+00 0.000000000000D+00 0.333106679161D-06 0.000000000000D+00  6 2 -2 25 1 -1 21 2 0.35676815D+00 0.24359720D-01 0.25325035D+06 0.25325035D+06 0.25325035D+06 0.10900373D+01  1  2  4  3  6  4        1 -.153060218284D-02 0.100000000000D+01
-.257347036546D-03 0.000000000000D+00 0.000000000000D+00 0.333106679161D-06 0.000000000000D+00  6 2 -2 25 1 -1 21 2 0.35676815D+00 0.24359720D-01 0.25325035D+06 0.25325035D+06 0.25325035D+06 0.10900373D+01  1  2  5  3  6  4        1 -.253151399938D-02 0.100000000000D+01
0.507800514637D-03 0.000000000000D+00 -.000000000000D+00 0.333106679161D-06 0.000000000000D+00  6 2 -2 25 1 -1 21 2 0.35676815D+00 0.24359720D-01 0.25325035D+06 0.25325035D+06 0.25325035D+06 0.10900373D+01  1  2  6  3  6  4        1 0.499521629995D-02 0.100000000000D+01
  </mgrwgt>
  </event>
  <event>
  6     66 0.18881543E-05 0.28162777E+02 0.75467711E-02 0.95309898E-01
        2 -1    0    0  503    0 0.00000000E+00 0.00000000E+00 0.80374559E+03 0.80374566E+03 0.32000000E+00 0.0000E+00 0.9000E+01
       -2 -1    0    0    0  501 0.00000000E+00 0.00000000E+00 -.10123762E+04 0.10123763E+04 0.32000000E+00 0.0000E+00 0.9000E+01
       25  1    1    2    0    0 -.67517003E+02 0.44523390E+03 -.17019785E+03 0.49737720E+03 0.12500000E+03 0.0000E+00 0.9000E+01
        1  1    1    2  502    0 0.42225021E+02 -.43820843E+03 0.49426111E+03 0.66189405E+03 0.32000000E+00 0.0000E+00 0.9000E+01
       -1  1    1    2    0  501 -.34987944E+01 0.21192077E+01 -.59108756E+03 0.59110180E+03 0.32000000E+00 0.0000E+00 0.9000E+01
       21  1    1    2  503  502 0.28790776E+02 -.91446758E+01 0.58393660E+02 0.65748886E+02 0.75000000E+00 0.0000E+00 0.9000E+01
#aMCatNLO 2  0  0  1  1 0.92634874D+03 0.00000000D+00  -5  6  0 0.00000000D+00 0.00000000D+00 0.00000000D+00 0.00000000D+00 0.00000000D+00
  <mgrwgt>
 0.3169407133D-01    1    2    0
 0.864810863713753D+03 0.000000000000000D+00 0.000000000000000D+00 0.864810863713753D+03
 0.864810863713753D+03 0.000000000000000D+00 0.000000000000000D+00 -.864810863713753D+03
 0.473566786579691D+03 -.596049717034158D+02 0.442708869843532D+03 -.953761252175408D+02
 0.749139250360414D+03 0.546667558685016D+02 -.442148254205954D+03 0.602267451831829D+03
 0.506915690487401D+03 0.493821583491422D+01 -.560615637578564D+00 -.506891326614288D+03
 0.000000000000000D+00 0.000000000000000D+00 -.000000000000000D+00 0.000000000000000D+00
 0.937328441886964D+03 0.000000000000000D+00 0.000000000000000D+00 0.937328441886964D+03
 0.868094389289433D+03 0.000000000000000D+00 0.000000000000000D+00 -.868094389289433D+03
 0.476971818911770D+03 -.675155619886513D+02 0.445221472599702D+03 -.953761252175408D+02
 0.746005850739221D+03 0.422238311482993D+02 -.438196067855822D+03 0.602267451831829D+03
 0.506907833462195D+03 -.349904539063311D+01 0.211927107699456D+01 -.506891326614288D+03
 0.755373280632113D+02 0.287907762309851D+02 -.914467582087451D+01 0.692340525975309D+02
0.231165398687D-01 0.000000000000D+00 0.000000000000D+00 0.178928865376D-03 0.137707853170D-05  6 2 -2 25 1 -1 21 2 0.12365291D+00 0.15574987D+00 0.22177667D+06 0.22177667D+06 0.22177667D+06 0.10943946D+01  1  2  1  1  6  1        2 0.316940713347D-01 0.100000000000D+01
  </mgrwgt>
  </event>
  <event>
  6     66 0.18881543E-05 0.18487270E+03 0.75467711E-02 0.94444478E-01
        2 -1    0    0  502    0 0.00000000E+00 0.00000000E+00 0.15568212E+04 0.15568212E+04 0.32000000E+00 0.0000E+00 0.9000E+01
       21 -1    0    0  503  501 0.00000000E+00 0.00000000E+00 -.17253524E+04 0.17253525E+04 0.75000000E+00 0.0000E+00 0.9000E+01
       25  1    1    2    0    0 0.17438277E+03 0.45286841E+03 0.10263594E+04 0.11421636E+04 0.12500000E+03 0.0000E+00 0.9000E+01
        1  1    1    2  502    0 0.65965387E+01 0.11471812E+02 0.42671411E+03 0.42691938E+03 0.32000000E+00 0.0000E+00 0.9000E+01
        2  1    1    2  503    0 -.13368234E+03 -.26539761E+03 -.12877144E+04 0.13215579E+04 0.32000000E+00 0.0000E+00 0.9000E+01
       -1  1    1    2    0  501 -.47296963E+02 -.19894262E+03 -.33389024E+03 0.39153283E+03 0.32000000E+00 0.0000E+00 0.9000E+01
#aMCatNLO 2  0  0  2  1 0.61672156D+02 0.00000000D+00  -5  6  0 0.00000000D+00 0.00000000D+00 0.00000000D+00 0.00000000D+00 0.00000000D+00
  <mgrwgt>
 0.3777449214D-02    1    2    0
 0.791065166813431D+03 0.000000000000000D+00 0.000000000000000D+00 0.791065166813431D+03
 0.791065166813431D+03 0.000000000000000D+00 0.000000000000000D+00 -.791065166813431D+03
 0.598851383517316D+03 0.120945483928228D+03 0.346799583616321D+03 0.456180028345736D+03
 0.224492807522065D+03 -.121545877939106D+02 -.257529277751272D+02 0.222679306033830D+03
 0.000000000000000D+00 -.000000000000000D+00 -.000000000000000D+00 -.000000000000000D+00
 0.758786142587481D+03 -.108790896134317D+03 -.321046655841194D+03 -.678859334379566D+03
 0.813742925589190D+03 0.000000000000000D+00 0.000000000000000D+00 0.813742925589190D+03
 0.330087710815224D+04 0.000000000000000D+00 0.000000000000000D+00 -.330087710815224D+04
 0.677717006591794D+03 0.174409954122838D+03 0.452941818189815D+03 0.456180028345736D+03
 0.223071388711039D+03 0.659002692088285D+01 0.114604830153521D+02 0.222679306033830D+03
 0.250482400592581D+04 -.133682341766386D+03 -.265397607541095D+03 -.248713418256305D+04
 0.709007632512781D+03 -.473176392773347D+02 -.199004693664072D+03 -.678859334379566D+03
0.594107264523D-02 0.000000000000D+00 0.000000000000D+00 0.131181475685D-03 0.925772015652D-08  6 2 21 25 1 2 -1 2 0.23951097D+00 0.26543884D+00 0.25813321D+06 0.25813321D+06 0.25813321D+06 0.10894147D+01  1  2  1  6  5  2       -2 0.377744921354D-02 0.100000000000D+01
  </mgrwgt>
  </event>
  <event>
  5     66 0.18881543E-05 0.26185775E+02 0.75467711E-02 0.86473538E-01
        2 -1    0    0  502    0 0.00000000E+00 0.00000000E+00 0.19442988E+04 0.19442989E+04 0.32000000E+00 0.0000E+00 0.9000E+01
       -2 -1    0    0    0  501 0.00000000E+00 0.00000000E+00 -.82689563E+03 0.82689569E+03 0.32000000E+00 0.0000E+00 0.9000E+01
       25  1    1    2    0    0 -.68192060E+03 -.80308555E+03 0.67893327E+03 0.12595783E+04 0.12500000E+03 0.0000E+00 0.9000E+01
        1  1    1    2  502    0 -.16910971E+02 0.20020144E+02 0.46107761E+03 0.46182188E+03 0.32000000E+00 0.0000E+00 0.9000E+01
       -1  1    1    2    0  501 0.69883157E+03 0.78306541E+03 -.22607673E+02 0.10497944E+04 0.32000000E+00 0.0000E+00 0.9000E+01
#aMCatNLO 1  0  0  1  2 0.70621990D+01 0.00000000D+00  -5  6  0 0.00000000D+00 0.00000000D+00 0.00000000D+00 0.00000000D+00 0.00000000D+00
  <mgrwgt>
 0.1562277722D-03    7    2    0
 0.126796385153763D+04 0.000000000000000D+00 0.000000000000000D+00 0.126796385153763D+04
 0.126796385153763D+04 0.000000000000000D+00 0.000000000000000D+00 -.126796385153763D+04
 0.107742989014564D+04 -.682016006606759D+03 -.803173867012204D+03 0.187072377063210D+03
 0.301262528882621D+03 -.168975177628229D+02 0.200042175763867D+02 0.300122335858836D+03
 0.115723528404699D+04 0.698913524369582D+03 0.783169649435817D+03 -.487194712922046D+03
 0.000000000000000D+00 0.000000000000000D+00 -.000000000000000D+00 0.000000000000000D+00
 0.135750389021160D+04 0.000000000000000D+00 0.000000000000000D+00 0.135750389021160D+04
 0.127684300968552D+04 0.000000000000000D+00 0.000000000000000D+00 -.127684300968552D+04
 0.107725920458935D+04 -.699646663419195D+03 -.787629904192823D+03 0.187072377063210D+03
 0.301899449983069D+03 -.218328663835010D+02 0.243554380826127D+02 0.300122335858836D+03
 0.115737264415228D+04 0.679974338137499D+03 0.799867269368682D+03 -.487194712922046D+03
 0.978156011724164D+02 0.415051916651970D+02 -.365928032584716D+02 0.806608805260845D+02
0.678342725854D-04 0.000000000000D+00 0.000000000000D+00 0.313187300406D-05 0.000000000000D+00  6 2 -2 25 1 -1 21 0 0.29912290D+00 0.12721472D+00 0.11416218D+07 0.11416218D+07 0.11416218D+07 0.10440562D+01  1  2  2  1  6  1        2 0.263211494924D-04 0.100000000000D+01
0.431736137607D-04 0.000000000000D+00 -.260501467902D-06 0.313187300406D-05 0.000000000000D+00  6 2 -2 25 1 -1 21 2 0.29912290D+00 0.12721472D+00 0.11416218D+07 0.11416218D+07 0.11416218D+07 0.10440562D+01  1  2  3  1  6  1        2 0.182608864000D-04 0.100000000000D+01
-.449652847202D-04 0.000000000000D+00 0.000000000000D+00 0.313187300406D-05 0.000000000000D+00  6 2 -2 25 1 -1 21 2 0.29912290D+00 0.12721472D+00 0.11416218D+07 0.11416218D+07 0.11416218D+07 0.10440562D+01  1  2 15  1  6  1        2 -.190186987999D-04 0.100000000000D+01
-.769019920490D-05 0.000000000000D+00 0.000000000000D+00 0.313187300406D-05 0.000000000000D+00  6 2 -2 25 1 -1 21 2 0.29912290D+00 0.12721472D+00 0.11416218D+07 0.11416218D+07 0.11416218D+07 0.10440562D+01  1  2  4  1  6  1        2 -.325267777797D-05 0.100000000000D+01
-.184537410702D-02 0.000000000000D+00 -.191178625429D-03 0.313187300406D-05 0.000000000000D+00  6 2 -2 25 1 -1 21 2 0.32104140D+00 0.12721472D+00 0.11416218D+07 0.11416218D+07 0.11416218D+07 0.10440562D+01  1  2  5  1  6  1        2 -.649273829695D-03 0.100000000000D+01
0.185473102634D-02 0.000000000000D+00 0.190701607231D-03 0.313187300406D-05 0.000000000000D+00  6 2 -2 25 1 -1 21 2 0.29912290D+00 0.12721472D+00 0.11416218D+07 0.11416218D+07 0.11416218D+07 0.10440562D+01  1  2  6  1  6  1        2 0.784484541004D-03 0.100000000000D+01
-.217455324278D-04 0.000000000000D+00 -.228675435673D-05 0.313187300406D-05 0.000000000000D+00  6 21 -2 25 1 -1 -2 2 0.32104140D+00 0.12721472D+00 0.11416218D+07 0.11416218D+07 0.11416218D+07 0.10440562D+01  1  2  5  5  6  1        2 -.129359841474D-05 0.100000000000D+01
  </mgrwgt>
  </event>
  <event>
  5     66 0.18881543E-05 0.45031487E+02 0.75467711E-02 0.93804430E-01
        2 -1    0    0  502    0 0.00000000E+00 0.00000000E+00 0.77014641E+03 0.77014647E+03 0.32000000E+00 0.0000E+00 0.9000E+01
       -2 -1    0    0    0  501 -.00000000E+00 -.00000000E+00 -.85384044E+03 0.85384050E+03 0.32000000E+00 0.0000E+00 0.9000E+01
       25  1    1    2    0    0 0.36202147E+03 -.28738990E+03 0.18575926E+02 0.47918949E+03 0.12500000E+03 0.0000E+00 0.9000E+01
        1  1    1    2  502    0 0.44295955E+02 -.81790698E+01 0.41863954E+03 0.42105605E+03 0.32000000E+00 0.0000E+00 0.9000E+01
       -1  1    1    2    0  501 -.40631743E+03 0.29556897E+03 -.52090950E+03 0.72374144E+03 0.32000000E+00 0.0000E+00 0.9000E+01
#aMCatNLO 1  0  0  4  5 0.35600344D+02 0.00000000D+00  -5  6  0 0.00000000D+00 0.00000000D+00 0.00000000D+00 0.00000000D+00 0.00000000D+00
  <mgrwgt>
 0.2258452380D-02    7    2    0
 0.810914455235877D+03 0.000000000000000D+00 0.000000000000000D+00 0.810914455235877D+03
 0.810914455235877D+03 -.000000000000000D+00 -.000000000000000D+00 -.810914455235877D+03
 0.480887158108039D+03 0.362102511599506D+03 -.287445056154345D+03 0.434116299968199D+02
 0.443089552521055D+03 0.442829197460654D+02 -.817666278352830D+01 0.440795322976319D+03
 0.697852199842660D+03 -.406385431345571D+03 0.295621718937874D+03 -.484206952973139D+03
 0.000000000000000D+00 0.000000000000000D+00 0.000000000000000D+00 0.000000000000000D+00
 0.810914455235877D+03 0.000000000000000D+00 0.000000000000000D+00 0.810914455235877D+03
 0.810914455235877D+03 -.000000000000000D+00 -.000000000000000D+00 -.810914455235877D+03
 0.481388123280445D+03 0.362382356734762D+03 -.287496728431506D+03 0.461972283152250D+02
 0.358896770132713D+03 0.586255306009229D+02 0.205792061266222D+02 0.353477630195536D+03
 0.694792507969657D+03 -.405980427856279D+03 0.295546936674710D+03 -.480175519524469D+03
 0.867515090889395D+02 -.150274594794060D+02 -.286294143698264D+02 0.805006610137081D+02
0.502958832141D-03 0.000000000000D+00 0.000000000000D+00 0.266791846508D-04 0.000000000000D+00  6 2 -2 25 1 -1 21 0 0.11848407D+00 0.13136008D+00 0.26342046D+06 0.26342046D+06 0.26342046D+06 0.10887548D+01  1  2  2  3  6  4        1 0.956564976276D-03 0.100000000000D+01
0.199863191452D-03 0.000000000000D+00 -.193149434752D-05 0.266791846508D-04 0.000000000000D+00  6 2 -2 25 1 -1 21 2 0.11848407D+00 0.13136008D+00 0.26342046D+06 0.26342046D+06 0.26342046D+06 0.10887548D+01  1  2  3  3  6  4        1 0.450583211864D-03 0.100000000000D+01
-.357341795657D-03 0.000000000000D+00 0.000000000000D+00 0.266791846508D-04 0.000000000000D+00  6 2 -2 25 1 -1 21 2 0.11848407D+00 0.13136008D+00 0.26342046D+06 0.26342046D+06 0.26342046D+06 0.10887548D+01  1  2 15  3  6  4        1 -.805612143239D-03 0.100000000000D+01
0.183567629685D-08 0.000000000000D+00 0.000000000000D+00 0.266791846508D-04 0.000000000000D+00  6 2 -2 25 1 -1 21 2 0.11848407D+00 0.13136008D+00 0.28933425D+06 0.28933425D+06 0.28933425D+06 0.10857169D+01  1  2 12  3  6  4        1 0.409796678303D-08 0.100000000000D+01
-.204113718117D-03 0.000000000000D+00 0.000000000000D+00 0.266791846508D-04 0.000000000000D+00  6 2 -2 25 1 -1 21 2 0.11848407D+00 0.13136008D+00 0.26342046D+06 0.26342046D+06 0.26342046D+06 0.10887548D+01  1  2  4  3  6  4        1 -.460165846581D-03 0.100000000000D+01
-.437775184877D-02 0.000000000000D+00 0.000000000000D+00 0.266791846508D-04 0.000000000000D+00  6 2 -2 25 1 -1 21 2 0.11848407D+00 0.13136008D+00 0.26342046D+06 0.26342046D+06 0.26342046D+06 0.10887548D+01  1  2  5  3  6  4        1 -.986945857531D-02 0.100000000000D+01
0.531681475948D-02 0.000000000000D+00 -.000000000000D+00 0.266791846508D-04 0.000000000000D+00  6 2 -2 25 1 -1 21 2 0.11848407D+00 0.13136008D+00 0.26342046D+06 0.26342046D+06 0.26342046D+06 0.10887548D+01  1  2  6  3  6  4        1 0.119865366594D-01 0.100000000000D+01
  </mgrwgt>
  </event>
  <event>
  6     66 0.18881543E-05 0.21832162E+02 0.75467711E-02 0.95042379E-01
        2 -1    0    0  502    0 0.00000000E+00 0.00000000E+00 0.26995709E+04 0.26995709E+04 0.32000000E+00 0.0000E+00 0.9000E+01
       21 -1    0    0  503  501 0.00000000E+00 0.00000000E+00 -.14525894E+03 0.14526087E+03 0.75000000E+00 0.0000E+00 0.9000E+01
       25  1    1    2    0    0 -.37664799E+03 0.26560221E+03 0.63015414E+03 0.79065004E+03 0.12500000E+03 0.0000E+00 0.9000E+01
        1  1    1    2  502    0 0.29236755E+02 0.30594254E+01 0.11553071E+04 0.11556811E+04 0.32000000E+00 0.0000E+00 0.9000E+01
        2  1    1    2  503    0 -.11038439E+02 -.10293492E+02 0.70531425E+02 0.72128964E+02 0.32000000E+00 0.0000E+00 0.9000E+01
       -1  1    1    2    0  501 0.35844967E+03 -.25836814E+03 0.69831925E+03 0.82637167E+03 0.32000000E+00 0.0000E+00 0.9000E+01
#aMCatNLO 2  0  0  2  2 0.15093148D+02 0.00000000D+00  -5  6  0 0.00000000D+00 0.00000000D+00 0.00000000D+00 0.00000000D+00 0.00000000D+00
  <mgrwgt>
 0.7685824693D-03    1    2    0
 0.616134604359883D+03 0.000000000000000D+00 0.000000000000000D+00 0.616134604359883D+03
 0.616134604359883D+03 0.000000000000000D+00 0.000000000000000D+00 -.616134604359883D+03
 0.510095360588228D+03 -.381293786286356D+03 0.261411437077849D+03 -.175645626185060D+03
 0.271268290982262D+03 0.267881185849710D+02 0.790576118400506D+00 0.269941210978457D+03
 0.000000000000000D+00 -.000000000000000D+00 -.000000000000000D+00 0.000000000000000D+00
 0.450905557149277D+03 0.354505667701385D+03 -.262202013196250D+03 -.942955847933966D+02
 0.632902605188688D+03 0.000000000000000D+00 0.000000000000000D+00 0.632902605188688D+03
 0.619586601905751D+03 0.000000000000000D+00 0.000000000000000D+00 -.619586601905751D+03
 0.508901705794053D+03 -.376729964159359D+03 0.265667262316310D+03 -.175645626185060D+03
 0.271535204919559D+03 0.292191938912064D+02 0.305758639114376D+01 0.269941210978457D+03
 0.201275694780680D+02 -.110384388360640D+02 -.102934920083391D+02 0.133160032829370D+02
 0.451924726902759D+03 0.358549209104216D+03 -.258431356699115D+03 -.942955847933966D+02
0.901283578814D-05 0.000000000000D+00 0.000000000000D+00 0.429753112004D-05 0.104789289766D-09  6 2 21 25 1 2 -1 2 0.41531790D+00 0.22347634D-01 0.23236194D+06 0.23236194D+06 0.23236194D+06 0.10928576D+01  1  2  1  6  5  2       -2 0.768582469330D-03 0.100000000000D+01
  </mgrwgt>
  </event>
  <event>
  5     66 0.18881543E-05 0.22047231E+02 0.75467711E-02 0.91619115E-01
        2 -1    0    0  502    0 0.00000000E+00 0.00000000E+00 0.31366008E+04 0.31366009E+04 0.32000000E+00 0.0000E+00 0.9000E+01
       -2 -1    0    0    0  501 0.00000000E+00 0.00000000E+00 -.12022917E+04 0.12022918E+04 0.32000000E+00 0.0000E+00 0.9000E+01
       25  1    1    2    0    0 -.57087259E+03 0.20013011E+03 -.77408018E+03 0.99033969E+03 0.12500000E+03 0.0000E+00 0.9000E+01
        1  1    1    2  502    0 -.70636052E+01 0.20885508E+02 0.27293534E+04 0.27294425E+04 0.32000000E+00 0.0000E+00 0.9000E+01
       -1  1    1    2    0  501 0.57793619E+03 -.22101561E+03 -.20964154E+02 0.61911044E+03 0.32000000E+00 0.0000E+00 0.9000E+01
#aMCatNLO 1  0  0  1  4 0.22108880D+02 0.00000000D+00  -5  6  0 0.00000000D+00 0.00000000D+00 0.00000000D+00 0.00000000D+00 0.00000000D+00
  <mgrwgt>
 0.5897696825D+00    7    2    0
 0.194193444839640D+04 0.000000000000000D+00 0.000000000000000D+00 0.194193444839640D+04
 0.194193444839640D+04 0.000000000000000D+00 0.000000000000000D+00 -.194193444839640D+04
 0.149189490444901D+04 -.570909906127405D+03 0.200143615030765D+03 -.135798741465778D+04
 0.168986636898477D+04 -.706347037793753D+01 0.208851092683009D+02 0.168972254072165D+04
 0.702107623359033D+03 0.577973376505343D+03 -.221028724299066D+03 -.331735126063868D+03
 0.000000000000000D+00 0.000000000000000D+00 -.000000000000000D+00 0.000000000000000D+00
 0.324023649704980D+04 0.000000000000000D+00 0.000000000000000D+00 0.324023649704980D+04
 0.194227936671891D+04 0.000000000000000D+00 0.000000000000000D+00 -.194227936671891D+04
 0.149517080370061D+04 -.574532882095517D+03 0.213758932587177D+03 -.135798741465778D+04
 0.169014909203030D+04 -.111630503616300D+02 0.362915275877062D+02 0.168972254072165D+04
 0.698721816033042D+03 0.576274327374788D+03 -.214643616128309D+03 -.331735126063868D+03
 0.129847415200475D+04 0.942160508235912D+01 -.354068440465745D+02 0.129795713033089D+04
0.350322001505D-01 0.000000000000D+00 0.000000000000D+00 0.642021424032D-04 0.000000000000D+00  6 2 -2 25 1 -1 21 0 0.48255398D+00 0.18496796D+00 0.39601625D+06 0.39601625D+06 0.39601625D+06 0.10757411D+01  1  2  2  1  6  1        2 0.101490824193D-02 0.100000000000D+01
0.334168229379D-01 0.000000000000D+00 -.134532872768D-03 0.642021424032D-04 0.000000000000D+00  6 2 -2 25 1 -1 21 2 0.48255398D+00 0.18496796D+00 0.39601625D+06 0.39601625D+06 0.39601625D+06 0.10757411D+01  1  2  3  1  6  1        2 0.112031479980D-02 0.100000000000D+01
-.203431446647D-01 0.000000000000D+00 0.000000000000D+00 0.642021424032D-04 0.000000000000D+00  6 2 -2 25 1 -1 21 2 0.48255398D+00 0.18496796D+00 0.39601625D+06 0.39601625D+06 0.39601625D+06 0.10757411D+01  1  2 15  1  6  1        2 -.682013550020D-03 0.100000000000D+01
-.870731590933D+00 0.000000000000D+00 0.000000000000D+00 0.642021424032D-04 0.000000000000D+00  6 2 -2 25 1 -1 21 2 0.48255398D+00 0.18496796D+00 0.39601625D+06 0.39601625D+06 0.39601625D+06 0.10757411D+01  1  2  4  1  6  1        2 -.291916885631D-01 0.100000000000D+01
-.211272777733D+02 0.000000000000D+00 -.140485225941D-01 0.642021424032D-04 0.000000000000D+00  6 2 -2 25 1 -1 21 2 0.80518130D+00 0.18496796D+00 0.39601625D+06 0.39601625D+06 0.39601625D+06 0.10757411D+01  1  2  5  1  6  1        2 -.738554365700D-02 0.100000000000D+01
0.186394350312D+02 0.000000000000D+00 0.123890479218D-01 0.642021424032D-04 0.000000000000D+00  6 2 -2 25 1 -1 21 2 0.48255398D+00 0.18496796D+00 0.39601625D+06 0.39601625D+06 0.39601625D+06 0.10757411D+01  1  2  6  1  6  1        2 0.624895878465D+00 0.100000000000D+01
-.121324469957D+01 0.000000000000D+00 -.807176160902D-03 0.642021424032D-04 0.000000000000D+00  6 21 -2 25 1 -1 -2 2 0.80518130D+00 0.18496796D+00 0.39601625D+06 0.39601625D+06 0.39601625D+06 0.10757411D+01  1  2  5  5  6  1        2 -.217324540353D-05 0.100000000000D+01
  </mgrwgt>
  </event>
  <event>
  5     66 -.18881543E-05 0.19344810E+03 0.75467711E-02 0.92649406E-01
        2 -1    0    0  502    0 0.00000000E+00 0.00000000E+00 0.12977324E+04 0.12977324E+04 0.32000000E+00 0.0000E+00 0.9000E+01
       -2 -1    0    0    0  501 0.00000000E+00 0.00000000E+00 -.74460371E+03 0.74460378E+03 0.32000000E+00 0.0000E+00 0.9000E+01
       25  1    1    2    0    0 -.31387493E+03 -.39252390E+03 0.13838761E+03 0.53606773E+03 0.12500000E+03 0.0000E+00 0.9000E+01
        1  1    1    2  502    0 0.42499461E+03 0.23420233E+03 0.87859931E+03 0.10036972E+04 0.32000000E+00 0.0000E+00 0.9000E+01
       -1  1    1    2    0  501 -.11111968E+03 0.15832157E+03 -.46385827E+03 0.50257128E+03 0.32000000E+00 0.0000E+00 0.9000E+01
#aMCatNLO 1  0  0  4  1 0.27561741D+02 0.00000000D+00  -5  6  0 0.00000000D+00 0.00000000D+00 0.00000000D+00 0.00000000D+00 0.00000000D+00
  <mgrwgt>
 -.3189683181D-02    8    2    0
 0.983003785130172D+03 0.000000000000000D+00 0.000000000000000D+00 0.983003785130172D+03
 0.983003785130172D+03 -.000000000000000D+00 -.000000000000000D+00 -.983003785130172D+03
 0.517930816334309D+03 -.313842278469904D+03 -.392532475141360D+03 -.697213833342041D+01
 0.795430863468618D+03 0.424971412520908D+03 0.234189549775984D+03 0.630289466732657D+03
 0.652645890457416D+03 -.111129134051004D+03 0.158342925365376D+03 -.623317328399237D+03
 0.000000000000000D+00 0.000000000000000D+00 0.000000000000000D+00 0.000000000000000D+00
 0.983003785130172D+03 0.000000000000000D+00 0.000000000000000D+00 0.983003785130172D+03
 0.983003785130172D+03 -.000000000000000D+00 -.000000000000000D+00 -.983003785130172D+03
 0.517247135035522D+03 -.313186177839638D+03 -.392170916912541D+03 -.599905331125185D+01
 0.703033450515434D+03 0.397224843472332D+03 0.210799302641935D+03 0.540399953994903D+03
 0.651445608829405D+03 -.110302594755537D+03 0.158798407451404D+03 -.622091460031567D+03
 0.942813758799825D+02 0.262639291228427D+02 0.225732068192015D+02 0.876905593479161D+02
0.449782671154D-04 0.000000000000D+00 0.000000000000D+00 0.195692930773D-05 0.000000000000D+00  6 2 -2 25 1 -1 21 0 0.19965114D+00 0.11455442D+00 0.35793848D+06 0.35793848D+06 0.35793848D+06 0.10789234D+01  1  2  2  3  6  4        1 0.563345456025D-04 0.100000000000D+01
0.476520191324D-05 0.000000000000D+00 -.172728388773D-06 0.195692930773D-05 0.000000000000D+00  6 2 -2 25 1 -1 21 2 0.19965114D+00 0.11455442D+00 0.35793848D+06 0.35793848D+06 0.35793848D+06 0.10789234D+01  1  2  3  3  6  4        1 0.694759690357D-05 0.100000000000D+01
-.293747615489D-04 0.000000000000D+00 0.000000000000D+00 0.195692930773D-05 0.000000000000D+00  6 2 -2 25 1 -1 21 2 0.19965114D+00 0.11455442D+00 0.35793848D+06 0.35793848D+06 0.35793848D+06 0.10789234D+01  1  2 15  3  6  4        1 -.428279863258D-04 0.100000000000D+01
0.373174772310D-08 0.000000000000D+00 0.000000000000D+00 0.195692930773D-05 0.000000000000D+00  6 2 -2 25 1 -1 21 2 0.19965114D+00 0.11455442D+00 0.35693779D+06 0.35693779D+06 0.35693779D+06 0.10790119D+01  1  2 12  3  6  4        1 0.544256749829D-08 0.100000000000D+01
0.154048693019D-02 0.000000000000D+00 0.000000000000D+00 0.195692930773D-05 0.000000000000D+00  6 2 -2 25 1 -1 21 2 0.19965114D+00 0.11455442D+00 0.35693779D+06 0.35693779D+06 0.35693779D+06 0.10790119D+01  1  2 12  3  6  4        1 0.224672317635D-02 0.100000000000D+01
-.395147958876D-02 0.000000000000D+00 0.000000000000D+00 0.195692930773D-05 0.000000000000D+00  6 2 -2 25 1 -1 21 2 0.19965114D+00 0.11455442D+00 0.35793848D+06 0.35793848D+06 0.35793848D+06 0.10789234D+01  1  2  4  3  6  4        1 -.576120127861D-02 0.100000000000D+01
-.166327237682D-02 0.000000000000D+00 0.000000000000D+00 0.195692930773D-05 0.000000000000D+00  6 2 -2 25 1 -1 21 2 0.19965114D+00 0.11455442D+00 0.35793848D+06 0.35793848D+06 0.35793848D+06 0.10789234D+01  1  2  5  3  6  4        1 -.242502756974D-02 0.100000000000D+01
0.187200919361D-02 0.000000000000D+00 -.000000000000D+00 0.195692930773D-05 0.000000000000D+00  6 2 -2 25 1 -1 21 2 0.19965114D+00 0.11455442D+00 0.35793848D+06 0.35793848D+06 0.35793848D+06 0.10789234D+01  1  2  6  3  6  4        1 0.272936289244D-02 0.100000000000D+01
  </mgrwgt>
  </event>
  <event>
  5     66 0.18881543E-05 0.87010909E+02 0.75467711E-02 0.94915784E-01
        2 -1    0    0  502    0 0.00000000E+00 0.00000000E+00 0.22312496E+04 0.22312496E+04 0.32000000E+00 0.0000E+00 0.9000E+01
       -2 -1    0    0    0  501 0.00000000E+00 0.00000000E+00 -.39334857E+03 0.39334870E+03 0.32000000E+00 0.0000E+00 0.9000E+01
       25  1    1    2    0    0 -.17792972E+03 0.44438213E+03 0.15700345E+03 0.51904677E+03 0.12500000E+03 0.0000E+00 0.9000E+01
        1  1    1    2  502    0 0.32652345E+02 -.80659143E+02 0.17105552E+04 0.17127671E+04 0.32000000E+00 0.0000E+00 0.9000E+01
       -1  1    1    2    0  501 0.14527738E+03 -.36372299E+03 -.29657616E+02 0.39278443E+03 0.32000000E+00 0.0000E+00 0.9000E+01
#aMCatNLO 1  0  0  1  4 0.95294413D+00 0.00000000D+00  -5  6  0 0.00000000D+00 0.00000000D+00 0.00000000D+00 0.00000000D+00 0.00000000D+00
  <mgrwgt>
 0.1069380209D-01   13    2    0
 0.936834591049442D+03 0.000000000000000D+00 0.000000000000000D+00 0.936834591049442D+03
 0.936834591049442D+03 0.000000000000000D+00 0.000000000000000D+00 -.936834591049442D+03
 0.573079429442769D+03 -.177949199712871D+03 0.444430893181977D+03 -.289154450004611D+03
 0.721253060770932D+03 0.326498116725127D+02 -.806528858755924D+02 0.715985390541683D+03
 0.579336691885184D+03 0.145299388040358D+03 -.363778007306384D+03 -.426830940537072D+03
 0.000000000000000D+00 0.000000000000000D+00 0.000000000000000D+00 0.000000000000000D+00
 0.101247150164292D+04 0.000000000000000D+00 0.000000000000000D+00 0.101247150164292D+04
 0.936837713739650D+03 0.000000000000000D+00 0.000000000000000D+00 -.936837713739650D+03
 0.572854715305310D+03 -.177953152222660D+03 0.444139510181291D+03 -.289154450004611D+03
 0.721293944937658D+03 0.326448360976178D+02 -.810196902657744D+02 0.715985390541683D+03
 0.579520764188574D+03 0.145295390956005D+03 -.364072676388779D+03 -.426830940537072D+03
 0.756397909510274D+02 0.129251690375554D-01 0.952856473261637D+00 0.756337879032677D+02
0.563264955425D-05 0.000000000000D+00 0.000000000000D+00 0.279715780635D-04 0.000000000000D+00  6 2 -2 25 1 -1 21 0 0.34326918D+00 0.60515177D-01 0.23693321D+06 0.23693321D+06 0.23693321D+06 0.10922174D+01  1  2  2  1  6  1        2 0.952931164593D-05 0.100000000000D+01
0.147007153433D-05 0.000000000000D+00 -.216308573990D-07 0.279715780635D-04 0.000000000000D+00  6 2 -2 25 1 -1 21 2 0.34326918D+00 0.60515177D-01 0.23693321D+06 0.23693321D+06 0.23693321D+06 0.10922174D+01  1  2  3  1  6  1        2 0.296691715020D-05 0.100000000000D+01
-.363421068594D-05 0.000000000000D+00 0.000000000000D+00 0.279715780635D-04 0.000000000000D+00  6 2 -2 25 1 -1 21 2 0.34326918D+00 0.60515177D-01 0.23693321D+06 0.23693321D+06 0.23693321D+06 0.10922174D+01  1  2 15  1  6  1        2 -.733461043204D-05 0.100000000000D+01
0.218281151851D-12 0.000000000000D+00 0.000000000000D+00 0.279715780635D-04 0.000000000000D+00  6 2 -2 25 1 -1 21 2 0.37098414D+00 0.60515177D-01 0.23756792D+06 0.23756792D+06 0.23756792D+06 0.10921295D+01  1  2 12  1  6  1        2 0.348610558634D-12 0.100000000000D+01
0.894326071159D-06 0.000000000000D+00 0.000000000000D+00 0.279715780635D-04 0.000000000000D+00  6 2 -2 25 1 -1 21 2 0.37119481D+00 0.60515177D-01 0.23756792D+06 0.23756792D+06 0.23756792D+06 0.10921295D+01  1  2 12  1  6  1        2 0.142573788061D-05 0.100000000000D+01
-.130358225042D+00 0.000000000000D+00 0.000000000000D+00 0.279715780635D-04 0.000000000000D+00  6 2 -2 25 1 -1 21 2 0.34326918D+00 0.60515177D-01 0.23693321D+06 0.23693321D+06 0.23693321D+06 0.10922174D+01  1  2  4  1  6  1        2 -.263090635057D+00 0.100000000000D+01
-.158613910958D+00 0.000000000000D+00 -.136007993896D-04 0.279715780635D-04 0.000000000000D+00  6 2 -2 25 1 -1 21 2 0.37098397D+00 0.60515177D-01 0.23693321D+06 0.23693321D+06 0.23693321D+06 0.10922174D+01  1  2  5  1  6  1        2 -.253403787647D+00 0.100000000000D+01
0.158138094366D+00 0.000000000000D+00 0.135599053720D-04 0.279715780635D-04 0.000000000000D+00  6 2 -2 25 1 -1 21 2 0.34326918D+00 0.60515177D-01 0.23693321D+06 0.23693321D+06 0.23693321D+06 0.10922174D+01  1  2  6  1  6  1        2 0.319156322204D+00 0.100000000000D+01
0.130257235228D+00 0.000000000000D+00 0.000000000000D+00 0.279715780635D-04 0.161663035650D-03  6 2 -2 25 1 -1 21 2 0.37098360D+00 0.60515378D-01 0.23756792D+06 0.23756792D+06 0.23756792D+06 0.10921295D+01  1  2 11  1  6  1        2 0.208029619565D+00 0.100000000000D+01
0.316447493607D-14 0.000000000000D+00 0.000000000000D+00 0.279715780635D-04 0.000000000000D+00  6 21 -2 25 1 -1 -2 2 0.37098414D+00 0.60515177D-01 0.23756792D+06 0.23756792D+06 0.23756792D+06 0.10921295D+01  1  2 12  5  6  1        2 0.656721424085D-15 0.100000000000D+01
0.129652625197D-07 0.000000000000D+00 0.000000000000D+00 0.279715780635D-04 0.000000000000D+00  6 21 -2 25 1 -1 -2 2 0.37119481D+00 0.60515177D-01 0.23756792D+06 0.23756792D+06 0.23756792D+06 0.10921295D+01  1  2 12  5  6  1        2 0.268196404367D-08 0.100000000000D+01
-.206294216984D-02 0.000000000000D+00 -.176895097410D-06 0.279715780635D-04 0.000000000000D+00  6 21 -2 25 1 -1 -2 2 0.37098397D+00 0.60515177D-01 0.23693321D+06 0.23693321D+06 0.23693321D+06 0.10922174D+01  1  2  5  5  6  1        2 -.428330186602D-03 0.100000000000D+01
0.204319315513D-02 0.000000000000D+00 0.000000000000D+00 0.279715780635D-04 0.253233431023D-05  6 21 -2 25 1 -1 -2 2 0.37098360D+00 0.60515378D-01 0.23756792D+06 0.23756792D+06 0.23756792D+06 0.10921295D+01  1  2 11  5  6  1        2 0.424023176558D-03 0.100000000000D+01
  </mgrwgt>
  </event>
  <event>
  6     66 0.18881543E-05 0.70061611E+01 0.75467711E-02 0.91144568E-01
        2 -1    0    0  502    0 0.00000000E+00 0.00000000E+00 0.23386539E+04 0.23386539E+04 0.32000000E+00 0.0000E+00 0.9000E+01
       21 -1    0    0  503  501 0.00000000E+00 0.00000000E+00 -.18431214E+04 0.18431215E+04 0.75000000E+00 0.0000E+00 0.9000E+01
       25  1    1    2    0    0 -.60861822E+03 -.28889783E+03 -.23708424E+03 0.72506002E+03 0.12500000E+03 0.0000E+00 0.9000E+01
        1  1    1    2  502    0 0.11130030E+02 0.56653472E+01 0.19915928E+04 0.19916319E+04 0.32000000E+00 0.0000E+00 0.9000E+01
        2  1    1    2  503    0 0.25774961E+01 -.12997381E+02 -.28883721E+03 0.28914117E+03 0.32000000E+00 0.0000E+00 0.9000E+01
       -1  1    1    2    0  501 0.59491069E+03 0.29622986E+03 -.97013880E+03 0.11759423E+04 0.32000000E+00 0.0000E+00 0.9000E+01
#aMCatNLO 2  0  0  2  2 0.11497672D+03 0.00000000D+00  -5  6  0 0.00000000D+00 0.00000000D+00 0.00000000D+00 0.00000000D+00 0.00000000D+00
  <mgrwgt>
 0.3763036258D-02    1    2    0
 0.190638335393740D+04 0.000000000000000D+00 0.000000000000000D+00 0.190638335393740D+04
 0.190638335393740D+04 0.000000000000000D+00 0.000000000000000D+00 -.190638335393740D+04
 0.789619341481325D+03 -.608125562944349D+03 -.291608492561173D+03 -.391179615012362D+03
 0.162358712884435D+04 0.122273384254518D+02 0.130563885256908D+00 0.162354108050802D+04
 0.000000000000000D+00 0.000000000000000D+00 -.000000000000000D+00 -.000000000000000D+00
 0.139956023754913D+04 0.595898224518897D+03 0.291477928675916D+03 -.123236146549566D+04
 0.190651868808144D+04 0.000000000000000D+00 0.000000000000000D+00 0.190651868808144D+04
 0.226088681375424D+04 0.000000000000000D+00 0.000000000000000D+00 -.226088681375424D+04
 0.789041145968144D+03 -.608659162201694D+03 -.288917744518114D+03 -.391179615012362D+03
 0.162358911257850D+04 0.111297681469358D+02 0.566521379037454D+01 0.162354108050802D+04
 0.354615769360907D+03 0.257749610240012D+01 -.129973805211622D+02 -.354368125672806D+03
 0.140015947392813D+04 0.594951897952358D+03 0.296249911248902D+03 -.123236146549566D+04
0.237894408660D-01 0.000000000000D+00 0.000000000000D+00 0.852378059042D-03 0.757654117574D-06  6 2 21 25 1 2 -1 2 0.35979290D+00 0.28355714D+00 0.47307978D+06 0.47307978D+06 0.47307978D+06 0.10702133D+01  1  2  1  6  5  2       -2 0.376303625771D-02 0.100000000000D+01
  </mgrwgt>
  </event>
  <event>
  5     66 0.18881543E-05 0.28451162E+03 0.75467711E-02 0.88673159E-01
        2 -1    0    0  502    0 0.00000000E+00 0.00000000E+00 0.36926495E+04 0.36926495E+04 0.32000000E+00 0.0000E+00 0.9000E+01
       -2 -1    0    0    0  501 0.00000000E+00 0.00000000E+00 -.49251349E+03 0.49251359E+03 0.32000000E+00 0.0000E+00 0.9000E+01
       25  1    1    2    0    0 0.31000319E+03 0.45668013E+03 0.19844999E+04 0.20636191E+04 0.12500000E+03 0.0000E+00 0.9000E+01
        1  1    1    2  502    0 -.69946721E+03 -.35039223E+03 0.14551617E+04 0.16521274E+04 0.32000000E+00 0.0000E+00 0.9000E+01
       -1  1    1    2    0  501 0.38946402E+03 -.10628790E+03 -.23952566E+03 0.46941664E+03 0.32000000E+00 0.0000E+00 0.9000E+01
#aMCatNLO 1  0  0  5  2 0.43566638D+01 0.00000000D+00  -5  6  0 0.00000000D+00 0.00000000D+00 0.00000000D+00 0.00000000D+00 0.00000000D+00
  <mgrwgt>
 0.2594925217D-04    9    2    0
 0.134858440966868D+04 0.000000000000000D+00 0.000000000000000D+00 0.134858440966868D+04
 0.134858440966868D+04 -.000000000000000D+00 -.000000000000000D+00 -.134858440966868D+04
 0.847548126789304D+03 0.309875976818183D+03 0.456649705114498D+03 0.630999804305736D+03
 0.836953777361524D+03 -.699373878992918D+03 -.350345475221260D+03 0.297700941910019D+03
 0.101266691518654D+04 0.389497902174734D+03 -.106304229893238D+03 -.928700746215755D+03
 0.000000000000000D+00 0.000000000000000D+00 0.000000000000000D+00 -.000000000000000D+00
 0.134858440966868D+04 0.000000000000000D+00 0.000000000000000D+00 0.134858440966868D+04
 0.134858440966868D+04 -.000000000000000D+00 -.000000000000000D+00 -.134858440966868D+04
 0.847431182979306D+03 0.309951114444306D+03 0.456629198078551D+03 0.630820649632348D+03
 0.836837338868782D+03 -.699299680629330D+03 -.350365725907738D+03 0.297524026770690D+03
 0.997090497826272D+03 0.386752451956377D+03 -.107064469983681D+03 -.912770070186510D+03
 0.158097996630035D+02 0.259611422864645D+01 0.800997812867492D+00 -.155746062165278D+02
0.299679567308D-04 0.000000000000D+00 0.000000000000D+00 0.172847702178D-07 0.000000000000D+00  6 2 -2 25 1 -1 21 0 0.56809993D+00 0.75771315D-01 0.76720466D+06 0.76720466D+06 0.76720466D+06 0.10556120D+01  1  2  2  4  6  5       -1 0.331145658534D-05 0.100000000000D+01
0.816552414181D-06 0.000000000000D+00 -.115084844591D-06 0.172847702178D-07 0.000000000000D+00  6 2 -2 25 1 -1 21 2 0.56809993D+00 0.75771315D-01 0.76720466D+06 0.76720466D+06 0.76720466D+06 0.10556120D+01  1  2  3  4  6  5       -1 0.100543655267D-06 0.100000000000D+01
-.187645280671D-04 0.000000000000D+00 0.000000000000D+00 0.172847702178D-07 0.000000000000D+00  6 2 -2 25 1 -1 21 2 0.56809993D+00 0.75771315D-01 0.76720466D+06 0.76720466D+06 0.76720466D+06 0.10556120D+01  1  2 15  4  6  5       -1 -.231051210976D-05 0.100000000000D+01
0.297152194768D-08 0.000000000000D+00 0.000000000000D+00 0.172847702178D-07 0.000000000000D+00  6 2 -2 25 1 -1 21 2 0.56809993D+00 0.75771315D-01 0.76741353D+06 0.76741353D+06 0.76741353D+06 0.10556040D+01  1  2 12  4  6  5       -1 0.365874197097D-09 0.100000000000D+01
0.343633605598D-04 0.000000000000D+00 0.000000000000D+00 0.172847702178D-07 0.000000000000D+00  6 2 -2 25 1 -1 21 2 0.56809993D+00 0.75771315D-01 0.76741353D+06 0.76741353D+06 0.76741353D+06 0.10556040D+01  1  2 12  4  6  5       -1 0.423105303469D-05 0.100000000000D+01
-.154789374211D-01 0.000000000000D+00 0.000000000000D+00 0.172847702178D-07 0.000000000000D+00  6 2 -2 25 1 -1 21 2 0.56809993D+00 0.75771315D-01 0.76720466D+06 0.76720466D+06 0.76720466D+06 0.10556120D+01  1  2  4  4  6  5       -1 -.190595107054D-02 0.100000000000D+01
-.113007592982D-01 0.000000000000D+00 0.000000000000D+00 0.172847702178D-07 0.000000000000D+00  6 2 -2 25 1 -1 21 2 0.56809993D+00 0.75771315D-01 0.76720466D+06 0.76720466D+06 0.76720466D+06 0.10556120D+01  1  2  5  4  6  5       -1 -.139148403385D-02 0.100000000000D+01
0.114785642708D-01 0.000000000000D+00 -.000000000000D+00 0.172847702178D-07 0.000000000000D+00  6 2 -2 25 1 -1 21 2 0.56809993D+00 0.75771315D-01 0.76720466D+06 0.76720466D+06 0.76720466D+06 0.10556120D+01  1  2  6  4  6  5       -1 0.141337749905D-02 0.100000000000D+01
0.154691981339D-01 0.000000000000D+00 0.000000000000D+00 0.172847702178D-07 0.286417359111D-07  6 2 -2 25 1 -1 21 2 0.56809993D+00 0.75771315D-01 0.76741353D+06 0.76741353D+06 0.76741353D+06 0.10556040D+01  1  2 11  4  6  5       -1 0.190467395046D-02 0.100000000000D+01
  </mgrwgt>
  </event>
  <event>
  6     66 0.18881543E-05 0.29328115E+03 0.75467711E-02 0.89403790E-01
        2 -1    0    0  502    0 0.00000000E+00 0.00000000E+00 0.29377816E+04 0.29377816E+04 0.32000000E+00 0.0000E+00 0.9000E+01
       -2 -1    0    0    0  501 0.00000000E+00 0.00000000E+00 -.43145109E+03 0.43145121E+03 0.32000000E+00 0.0000E+00 0.9000E+01
       25  1    1    2    0    0 0.61239790E+03 -.19204286E+03 0.14383080E+04 0.15799578E+04 0.12500000E+03 0.0000E+00 0.9000E+01
        1  1    1    2  502    0 -.62708101E+02 -.49234998E+02 0.84835234E+03 0.85209048E+03 0.32000000E+00 0.0000E+00 0.9000E+01
       -1  1    1    2    0  503 0.45498727E+01 0.33345032E+03 0.16674377E+03 0.37284501E+03 0.32000000E+00 0.0000E+00 0.9000E+01
       21  1    1    2  503  501 -.55423967E+03 -.92172452E+02 0.52926386E+02 0.56433956E+03 0.75000000E+00 0.0000E+00 0.9000E+01
#aMCatNLO 2  0  0  5  1 0.65278537D+02 0.00000000D+00  -5  6  0 0.00000000D+00 0.00000000D+00 0.00000000D+00 0.00000000D+00 0.00000000D+00
  <mgrwgt>
 0.1443739934D-03    1    2    0
 0.112583715992469D+04 0.000000000000000D+00 0.000000000000000D+00 0.112583715992469D+04
 0.112583715992469D+04 -.000000000000000D+00 -.000000000000000D+00 -.112583715992469D+04
 0.842457794578635D+03 0.662105819116023D+03 -.213895954351236D+03 0.458229790226663D+03
 0.355655728408638D+03 -.414544002168405D+02 -.585209362563328D+02 0.348350154115400D+03
 0.105356079686210D+04 -.620651418899182D+03 0.272416890607569D+03 -.806579944342063D+03
 0.000000000000000D+00 -.000000000000000D+00 0.000000000000000D+00 0.000000000000000D+00
 0.112583715992469D+04 0.000000000000000D+00 0.000000000000000D+00 0.112583715992469D+04
 0.112583715992469D+04 -.000000000000000D+00 -.000000000000000D+00 -.112583715992469D+04
 0.763353501355791D+03 0.612486082848126D+03 -.192116814152310D+03 0.393745471173283D+03
 0.330540884260378D+03 -.626579470064073D+02 -.492142560323339D+02 0.320794661501339D+03
 0.371804118583665D+03 0.469486178108036D+01 0.333085426002528D+03 -.165137396895272D+03
 0.785975815649543D+03 -.554522997622799D+03 -.917543558178848D+02 -.549402735779350D+03
0.259555285801D-03 0.000000000000D+00 0.000000000000D+00 0.501414241516D-05 0.190312073759D-10  6 2 -2 25 1 -1 21 2 0.45196641D+00 0.66377101D-01 0.66326628D+06 0.66326628D+06 0.66326628D+06 0.10599439D+01  1  2  1  4  6  5       -1 0.144373993401D-03 0.100000000000D+01
  </mgrwgt>
  </event>
  <event>
  5     66 -.18881543E-05 0.30938656E+02 0.75467711E-02 0.95502012E-01
        4 -1    0    0  502    0 0.00000000E+00 0.00000000E+00 0.24108222E+03 0.24108721E+03 0.15500000E+01 0.0000E+00 0.9000E+01
       -4 -1    0    0    0  501 -.00000000E+00 -.00000000E+00 -.15055554E+04 0.15055562E+04 0.15500000E+01 0.0000E+00 0.9000E+01
       25  1    1    2    0    0 0.24664296E+03 -.37692023E+03 -.10585355E+04 0.11571621E+04 0.12500000E+03 0.0000E+00 0.9000E+01
        3  1    1    2  502    0 -.21721496E+03 0.36728909E+03 -.48999496E+02 0.42951696E+03 0.50000000E+00 0.0000E+00 0.9000E+01
       -3  1    1    2    0  501 -.29428002E+02 0.96311343E+01 -.15693816E+03 0.15996438E+03 0.50000000E+00 0.0000E+00 0.9000E+01
#aMCatNLO 1  0  0  5  2 0.47209556D+01 0.00000000D+00  -5  6  0 0.00000000D+00 0.00000000D+00 0.00000000D+00 0.00000000D+00 0.00000000D+00
  <mgrwgt>
 -.3457136475D-03    9    2    0
 0.602468000730304D+03 0.000000000000000D+00 0.000000000000000D+00 0.602468000730304D+03
 0.602468000730304D+03 -.000000000000000D+00 -.000000000000000D+00 -.602468000730304D+03
 0.566609989214400D+03 0.246630987764006D+03 -.376928126586913D+03 -.320187793552117D+03
 0.571224766626877D+03 -.217226045851391D+03 0.367307845159276D+03 0.379730859815408D+03
 0.671012456193316D+02 -.294049419126147D+02 0.962028142763717D+01 -.595430662632911D+02
 0.000000000000000D+00 0.000000000000000D+00 0.000000000000000D+00 -.000000000000000D+00
 0.602468000730304D+03 0.000000000000000D+00 0.000000000000000D+00 0.602468000730304D+03
 0.602468000730304D+03 -.000000000000000D+00 -.000000000000000D+00 -.602468000730304D+03
 0.566694781171975D+03 0.246458687137958D+03 -.376871755772861D+03 -.320536690945776D+03
 0.571093688789342D+03 -.217399716862189D+03 0.367364664315887D+03 0.379379187483095D+03
 0.484296624078360D+02 -.219629490391553D+02 0.114128649880280D+02 -.416270054556592D+02
 0.187178690914548D+02 -.709602123661331D+01 -.190577353105395D+01 -.172154910816598D+02
0.177172464827D-02 0.000000000000D+00 0.000000000000D+00 0.159503349314D-05 0.000000000000D+00  6 4 -4 25 3 -3 21 0 0.37090017D-01 0.23162435D+00 0.21397163D+06 0.21397163D+06 0.21397163D+06 0.10955801D+01  1  2  2  4  6  5       -3 0.130844393334D-03 0.100000000000D+01
0.423978943853D-03 0.000000000000D+00 -.680388915517D-05 0.159503349314D-05 0.000000000000D+00  6 4 -4 25 3 -3 21 2 0.37090017D-01 0.23162435D+00 0.21397163D+06 0.21397163D+06 0.21397163D+06 0.10955801D+01  1  2  3  4  6  5       -3 0.375830027509D-04 0.100000000000D+01
-.107648660719D-02 0.000000000000D+00 0.000000000000D+00 0.159503349314D-05 0.000000000000D+00  6 4 -4 25 3 -3 21 2 0.37090017D-01 0.23162435D+00 0.21397163D+06 0.21397163D+06 0.21397163D+06 0.10955801D+01  1  2 15  4  6  5       -3 -.954236046526D-04 0.100000000000D+01
0.197523848883D-06 0.000000000000D+00 0.000000000000D+00 0.159503349314D-05 0.000000000000D+00  6 4 -4 25 3 -3 21 2 0.37090017D-01 0.23162435D+00 0.21450905D+06 0.21450905D+06 0.21450905D+06 0.10954970D+01  1  2 12  4  6  5       -3 0.175060901205D-07 0.100000000000D+01
0.104654017020D-02 0.000000000000D+00 0.000000000000D+00 0.159503349314D-05 0.000000000000D+00  6 4 -4 25 3 -3 21 2 0.37090017D-01 0.23162435D+00 0.21450905D+06 0.21450905D+06 0.21450905D+06 0.10954970D+01  1  2 12  4  6  5       -3 0.927524784363D-04 0.100000000000D+01
-.437609266766D-01 0.000000000000D+00 0.000000000000D+00 0.159503349314D-05 0.000000000000D+00  6 4 -4 25 3 -3 21 2 0.37090017D-01 0.23162435D+00 0.21397163D+06 0.21397163D+06 0.21397163D+06 0.10955801D+01  1  2  4  4  6  5       -3 -.387912430915D-02 0.100000000000D+01
-.198908202766D-01 0.000000000000D+00 0.000000000000D+00 0.159503349314D-05 0.000000000000D+00  6 4 -4 25 3 -3 21 2 0.37090017D-01 0.23162435D+00 0.21397163D+06 0.21397163D+06 0.21397163D+06 0.10955801D+01  1  2  5  4  6  5       -3 -.176319311139D-02 0.100000000000D+01
0.379349893779D-01 0.000000000000D+00 -.000000000000D+00 0.159503349314D-05 0.000000000000D+00  6 4 -4 25 3 -3 21 2 0.37090017D-01 0.23162435D+00 0.21397163D+06 0.21397163D+06 0.21397163D+06 0.10955801D+01  1  2  6  4  6  5       -3 0.336269248938D-02 0.100000000000D+01
0.199501615421D-01 0.000000000000D+00 0.000000000000D+00 0.159503349314D-05 0.333239972670D-06  6 4 -4 25 3 -3 21 2 0.37090017D-01 0.23162435D+00 0.21450905D+06 0.21450905D+06 0.21450905D+06 0.10954970D+01  1  2 11  4  6  5       -3 0.176813750769D-02 0.100000000000D+01
  </mgrwgt>
  </event>
  <event>
  6     66 0.18881543E-05 0.27917037E+03 0.75467711E-02 0.92770806E-01
        2 -1    0    0  502    0 0.00000000E+00 0.00000000E+00 0.22933925E+04 0.22933925E+04 0.32000000E+00 0.0000E+00 0.9000E+01
       21 -1    0    0  503  501 0.00000000E+00 0.00000000E+00 -.75799432E+03 0.75799469E+03 0.75000000E+00 0.0000E+00 0.9000E+01
       25  1    1    2    0    0 -.48533024E+03 0.21660228E+03 0.53835448E+03 0.76675455E+03 0.12500000E+03 0.0000E+00 0.9000E+01
        1  1    1    2  502    0 0.17897564E+02 -.19624050E+02 0.14495221E+04 0.14497654E+04 0.32000000E+00 0.0000E+00 0.9000E+01
        2  1    1    2  503    0 0.15503930E+03 -.24796924E+03 -.42668905E+03 0.51729061E+03 0.32000000E+00 0.0000E+00 0.9000E+01
       -1  1    1    2    0  501 0.31239338E+03 0.50991007E+02 -.25789350E+02 0.31757660E+03 0.32000000E+00 0.0000E+00 0.9000E+01
#aMCatNLO 2  0  0  2  2 0.29244817D+03 0.00000000D+00  -5  6  0 0.00000000D+00 0.00000000D+00 0.00000000D+00 0.00000000D+00 0.00000000D+00
  <mgrwgt>
 0.2719778600D-01    1    2    0
 0.788405560280542D+03 0.000000000000000D+00 0.000000000000000D+00 0.788405560280542D+03
 0.788405560280542D+03 0.000000000000000D+00 0.000000000000000D+00 -.788405560280542D+03
 0.480610746607255D+03 -.435008650538132D+03 0.136023251252213D+03 -.873317744589768D+02
 0.530984561718912D+03 0.689958688363432D+02 -.101351928546740D+03 0.516635230551691D+03
 0.000000000000000D+00 0.000000000000000D+00 -.000000000000000D+00 -.000000000000000D+00
 0.565215812234918D+03 0.366012781701789D+03 -.346713227054732D+02 -.429303456092715D+03
 0.818008758007144D+03 0.000000000000000D+00 0.000000000000000D+00 0.818008758007144D+03
 0.212513493651943D+04 0.000000000000000D+00 0.000000000000000D+00 -.212513493651943D+04
 0.552970038619950D+03 -.485392237269926D+03 0.216606557562997D+03 -.873317744589768D+02
 0.517317272553149D+03 0.178946804792726D+02 -.196208930779134D+02 0.516635230551691D+03
 0.133944196437320D+04 0.155039303512525D+03 -.247969239499908D+03 -.130712617851229D+04
 0.533414418980271D+03 0.312458253278128D+03 0.509835750148244D+02 -.429303456092715D+03
0.774931894521D-02 0.000000000000D+00 0.000000000000D+00 0.788058029837D-05 0.154205507308D-08  6 2 21 25 1 2 -1 2 0.35282963D+00 0.11661454D+00 0.34905905D+06 0.34905905D+06 0.34905905D+06 0.10797186D+01  1  2  1  6  5  2       -2 0.271977860008D-01 0.100000000000D+01
  </mgrwgt>
  </event>
  <event>
  5     66 0.18881543E-05 0.15163270E+03 0.75467711E-02 0.90900137E-01
        2 -1    0    0  502    0 0.00000000E+00 0.00000000E+00 0.25116456E+04 0.25116456E+04 0.32000000E+00 0.0000E+00 0.9000E+01
       -2 -1    0    0    0  501 0.00000000E+00 0.00000000E+00 -.97941480E+03 0.97941485E+03 0.32000000E+00 0.0000E+00 0.9000E+01
       25  1    1    2    0    0 -.51425940E+03 0.21183657E+03 -.23599226E+03 0.61697230E+03 0.12500000E+03 0.0000E+00 0.9000E+01
        1  1    1    2  502    0 0.58758936E+03 -.79115009E+02 0.22719484E+04 0.23480353E+04 0.32000000E+00 0.0000E+00 0.9000E+01
       -1  1    1    2    0  501 -.73329961E+02 -.13272156E+03 -.50372531E+03 0.52605283E+03 0.32000000E+00 0.0000E+00 0.9000E+01
#aMCatNLO 1  0  0  2  1 0.86066906D+02 0.00000000D+00  -5  6  0 0.00000000D+00 0.00000000D+00 0.00000000D+00 0.00000000D+00 0.00000000D+00
  <mgrwgt>
 0.1219463128D-02    9    4    0
 0.156842054117867D+04 0.000000000000000D+00 0.000000000000000D+00 0.156842054117867D+04
 0.156842054117867D+04 0.000000000000000D+00 0.000000000000000D+00 -.156842054117867D+04
 0.801913420331687D+03 -.514259166633173D+03 0.211837192809635D+03 -.564005892685842D+03
 0.150341770124555D+04 0.587589169112386D+03 -.791149829317084D+02 0.138157322362443D+04
 0.831509960780102D+03 -.733300024792138D+02 -.132722209877927D+03 -.817567330938587D+03
 0.000000000000000D+00 0.000000000000000D+00 0.000000000000000D+00 -.000000000000000D+00
 0.157665941835854D+04 0.000000000000000D+00 0.000000000000000D+00 0.157665941835854D+04
 0.181112990170455D+04 0.000000000000000D+00 0.000000000000000D+00 -.181112990170455D+04
 0.807585842668231D+03 -.529313339280502D+03 0.195690150885339D+03 -.564005892685842D+03
 0.149457731121800D+04 0.559547941911488D+03 -.109191884653832D+03 0.138157322362443D+04
 0.835858434354362D+03 -.889254440330485D+02 -.149449814542560D+03 -.817567330938587D+03
 0.249767731822495D+03 0.586908414020630D+02 0.629515483110530D+02 -.234470483346013D+03
 0.156842054117867D+04 0.000000000000000D+00 0.000000000000000D+00 0.156842054117867D+04
 0.156842054117867D+04 0.000000000000000D+00 0.000000000000000D+00 -.156842054117867D+04
 0.801913420331687D+03 -.514259166633173D+03 0.211837192809635D+03 -.564005892685842D+03
 0.150341770124555D+04 0.587589169112386D+03 -.791149829317084D+02 0.138157322362443D+04
 0.000000000000000D+00 0.000000000000000D+00 0.000000000000000D+00 -.000000000000000D+00
 0.831509960780102D+03 -.733300024792138D+02 -.132722209877927D+03 -.817567330938587D+03
 0.157665941835854D+04 0.000000000000000D+00 0.000000000000000D+00 0.157665941835854D+04
 0.181112990170455D+04 0.000000000000000D+00 0.000000000000000D+00 -.181112990170455D+04
 0.807585842668231D+03 -.529313339280502D+03 0.195690150885339D+03 -.564005892685842D+03
 0.149457731121800D+04 0.559547941911488D+03 -.109191884653832D+03 0.138157322362443D+04
 0.249767731822495D+03 0.586908414020630D+02 0.629515483110530D+02 -.234470483346013D+03
 0.835858434354362D+03 -.889254440330485D+02 -.149449814542560D+03 -.817567330938587D+03
0.180352818652D-02 0.000000000000D+00 0.000000000000D+00 0.154433546192D-04 0.000000000000D+00  6 2 -2 25 1 -1 21 0 0.38640702D+00 0.15067921D+00 0.43202942D+06 0.43202942D+06 0.43202942D+06 0.10730243D+01  1  2  2  2  6  2       -2 0.227219850418D-03 0.100000000000D+01
0.239754806442D-03 0.000000000000D+00 -.692602311611D-05 0.154433546192D-04 0.000000000000D+00  6 2 -2 25 1 -1 21 2 0.38640702D+00 0.15067921D+00 0.43202942D+06 0.43202942D+06 0.43202942D+06 0.10730243D+01  1  2  3  2  6  2       -2 0.347784125309D-04 0.100000000000D+01
-.118595250092D-02 0.000000000000D+00 0.000000000000D+00 0.154433546192D-04 0.000000000000D+00  6 2 -2 25 1 -1 21 2 0.38640702D+00 0.15067921D+00 0.43202942D+06 0.43202942D+06 0.43202942D+06 0.10730243D+01  1  2 15  2  6  2       -2 -.172032193770D-03 0.100000000000D+01
0.179573673725D-08 0.000000000000D+00 0.000000000000D+00 0.154433546192D-04 0.000000000000D+00  6 2 -2 25 1 -1 21 2 0.38640702D+00 0.17435423D+00 0.49567341D+06 0.49567341D+06 0.49567341D+06 0.10687773D+01  1  2 12  2  6  2       -2 0.168284074966D-09 0.100000000000D+01
-.257144386403D-02 0.000000000000D+00 0.000000000000D+00 0.154433546192D-04 0.000000000000D+00  6 2 -2 25 1 -1 21 2 0.38640702D+00 0.15067921D+00 0.43202942D+06 0.43202942D+06 0.43202942D+06 0.10730243D+01  1  2  4  2  6  2       -2 -.373009145595D-03 0.100000000000D+01
-.464011369342D-01 0.000000000000D+00 -.295895164262D-02 0.154433546192D-04 0.000000000000D+00  6 2 -2 25 1 -1 21 2 0.38640702D+00 0.17436996D+00 0.43202942D+06 0.43202942D+06 0.43202942D+06 0.10730243D+01  1  2  5  2  6  2       -2 -.443649167101D-02 0.100000000000D+01
0.463692316796D-01 0.000000000000D+00 0.292768172019D-02 0.154433546192D-04 0.000000000000D+00  6 2 -2 25 1 -1 21 2 0.38640702D+00 0.15067921D+00 0.43202942D+06 0.43202942D+06 0.43202942D+06 0.10730243D+01  1  2  6  2  6  2       -2 0.672623957794D-02 0.100000000000D+01
0.400595198205D-10 0.000000000000D+00 0.000000000000D+00 0.154433546192D-04 0.000000000000D+00  6 2 21 25 1 2 -1 2 0.38640702D+00 0.17435423D+00 0.49567341D+06 0.49567341D+06 0.49567341D+06 0.10687773D+01  3  4 12  6  5  2       -2 0.302807865389D-10 0.100000000000D+01
-.101607491364D-02 0.000000000000D+00 -.660418678941D-04 0.154433546192D-04 0.000000000000D+00  6 2 21 25 1 2 -1 2 0.38640702D+00 0.17436996D+00 0.43202942D+06 0.43202942D+06 0.43202942D+06 0.10730243D+01  3  4  5  6  5  2       -2 -.787241900703D-03 0.100000000000D+01
  </mgrwgt>
  </event>
  <event>
  6     66 0.18881543E-05 0.15559446E+02 0.75467711E-02 0.91064759E-01
        2 -1    0    0  503    0 0.00000000E+00 0.00000000E+00 0.10178756E+04 0.10178757E+04 0.32000000E+00 0.0000E+00 0.9000E+01
       -2 -1    0    0    0  501 0.00000000E+00 0.00000000E+00 -.20761500E+04 0.20761500E+04 0.32000000E+00 0.0000E+00 0.9000E+01
       25  1    1    2    0    0 -.10118747E+03 0.67713598E+03 -.15689187E+04 0.17163575E+04 0.12500000E+03 0.0000E+00 0.9000E+01
        1  1    1    2  502    0 0.86952278E+02 -.66401674E+03 0.71550024E+03 0.98001001E+03 0.32000000E+00 0.0000E+00 0.9000E+01
       -1  1    1    2    0  501 0.32562407E+01 0.10526016E+00 -.30048047E+03 0.30049830E+03 0.32000000E+00 0.0000E+00 0.9000E+01
       21  1    1    2  503  502 0.10978954E+02 -.13224492E+02 0.95624599E+02 0.97159925E+02 0.75000000E+00 0.0000E+00 0.9000E+01
#aMCatNLO 2  0  0  1  4 0.78737021D+01 0.00000000D+00  -5  6  0 0.00000000D+00 0.00000000D+00 0.00000000D+00 0.00000000D+00 0.00000000D+00
  <mgrwgt>
 0.2543225620D-01    1    2    0
 0.138287981217746D+04 0.000000000000000D+00 0.000000000000000D+00 0.138287981217746D+04
 0.138287981217746D+04 0.000000000000000D+00 0.000000000000000D+00 -.138287981217746D+04
 0.120167511394526D+04 -.964098894776200D+02 0.671387694605112D+03 -.984043584511941D+03
 0.136394303004768D+04 0.923601681619300D+02 -.670535060260031D+03 0.118414227249720D+04
 0.200141480361973D+03 0.404972131569008D+01 -.852634345081128D+00 -.200098687985257D+03
 0.000000000000000D+00 0.000000000000000D+00 -.000000000000000D+00 0.000000000000000D+00
 0.152756511651044D+04 0.000000000000000D+00 0.000000000000000D+00 0.152756511651044D+04
 0.138341707055876D+04 0.000000000000000D+00 0.000000000000000D+00 -.138341707055876D+04
 0.120529127023494D+04 -.101187187704350D+03 0.677142099510834D+03 -.984043584511941D+03
 0.136039656864016D+04 0.869529539941863D+02 -.664021901931531D+03 0.118414227249720D+04
 0.200125192465784D+03 0.325528011414814D+01 0.104294892009804D+00 -.200098687985257D+03
 0.145169155728319D+03 0.109789535960156D+02 -.132244924713127D+02 0.144148045951673D+03
0.353912768254D+00 0.000000000000D+00 0.000000000000D+00 0.889763066920D-04 0.280042918025D-05  6 2 -2 25 1 -1 21 2 0.15659615D+00 0.31940747D+00 0.48032779D+06 0.48032779D+06 0.48032779D+06 0.10697446D+01  1  2  1  1  6  1        2 0.254322561992D-01 0.100000000000D+01
  </mgrwgt>
  </event>
  <event>
  5     66 -.18881543E-05 0.13628623E+03 0.75467711E-02 0.93957832E-01
        2 -1    0    0  502    0 0.00000000E+00 0.00000000E+00 0.80252735E+03 0.80252742E+03 0.32000000E+00 0.0000E+00 0.9000E+01
       -2 -1    0    0    0  501 0.00000000E+00 0.00000000E+00 -.80614542E+03 0.80614548E+03 0.32000000E+00 0.0000E+00 0.9000E+01
       25  1    1    2    0    0 -.39586333E+03 -.22806227E+03 -.34606140E+03 0.58660350E+03 0.12500000E+03 0.0000E+00 0.9000E+01
        1  1    1    2  502    0 0.11661797E+03 0.70551558E+02 0.59720942E+03 0.61256548E+03 0.32000000E+00 0.0000E+00 0.9000E+01
       -1  1    1    2    0  501 0.27924536E+03 0.15751071E+03 -.25476609E+03 0.40950392E+03 0.32000000E+00 0.0000E+00 0.9000E+01
#aMCatNLO 1  0  0  1  2 0.12791914D+03 0.00000000D+00  -5  6  0 0.00000000D+00 0.00000000D+00 0.00000000D+00 0.00000000D+00 0.00000000D+00
  <mgrwgt>
 -.1013090295D-02    7    2    0
 0.804334414110679D+03 0.000000000000000D+00 0.000000000000000D+00 0.804334414110679D+03
 0.804334414110679D+03 0.000000000000000D+00 0.000000000000000D+00 -.804334414110679D+03
 0.585826784796186D+03 -.395906207859437D+03 -.228086470680503D+03 -.344677905087501D+03
 0.613855009582274D+03 0.116607494554552D+03 0.705452236103910D+02 0.598534908279144D+03
 0.408987033842899D+03 0.279298713304885D+03 0.157541247070112D+03 -.253857003191643D+03
 0.000000000000000D+00 -.000000000000000D+00 0.000000000000000D+00 0.000000000000000D+00
 0.249387630190732D+04 0.000000000000000D+00 0.000000000000000D+00 0.249387630190732D+04
 0.809298303360324D+03 0.000000000000000D+00 0.000000000000000D+00 -.809298303360324D+03
 0.596890470615785D+03 -.383552673272764D+03 -.273382008335846D+03 -.344677905087501D+03
 0.612820514464380D+03 0.129420175221544D+03 0.235661784192488D+02 0.598534908279144D+03
 0.404035805898769D+03 0.287790773198782D+03 0.126404213697461D+03 -.253857003191643D+03
 0.168942781428871D+04 -.336582751475612D+02 0.123411616219136D+03 0.168457799854699D+04
0.557746740683D-04 0.000000000000D+00 0.000000000000D+00 0.411158573098D-05 0.000000000000D+00  6 2 -2 25 1 -1 21 0 0.12346576D+00 0.12402238D+00 0.21652788D+06 0.21652788D+06 0.21652788D+06 0.10951867D+01  1  2  2  1  6  1        2 0.117976299713D-03 0.100000000000D+01
0.747492419848D-05 0.000000000000D+00 -.214189434231D-06 0.411158573098D-05 0.000000000000D+00  6 2 -2 25 1 -1 21 2 0.12346576D+00 0.12402238D+00 0.21652788D+06 0.21652788D+06 0.21652788D+06 0.10951867D+01  1  2  3  1  6  1        2 0.189644764179D-04 0.100000000000D+01
-.367308150784D-04 0.000000000000D+00 0.000000000000D+00 0.411158573098D-05 0.000000000000D+00  6 2 -2 25 1 -1 21 2 0.12346576D+00 0.12402238D+00 0.21652788D+06 0.21652788D+06 0.21652788D+06 0.10951867D+01  1  2 15  1  6  1        2 -.931889953490D-04 0.100000000000D+01
0.168952366687D-07 0.000000000000D+00 0.000000000000D+00 0.411158573098D-05 0.000000000000D+00  6 2 -2 25 1 -1 21 2 0.38218292D+00 0.12402238D+00 0.28148808D+06 0.28148808D+06 0.28148808D+06 0.10866043D+01  1  2 12  1  6  1        2 0.455493741532D-08 0.100000000000D+01
-.374956340295D-02 0.000000000000D+00 -.338336965448D-04 0.411158573098D-05 0.000000000000D+00  6 2 -2 25 1 -1 21 2 0.38317570D+00 0.12402238D+00 0.21652788D+06 0.21652788D+06 0.21652788D+06 0.10951867D+01  1  2  5  1  6  1        2 -.104069019938D-02 0.100000000000D+01
0.218500398039D-08 0.000000000000D+00 0.000000000000D+00 0.411158573098D-05 0.000000000000D+00  6 21 -2 25 1 -1 -2 2 0.38218292D+00 0.12402238D+00 0.28148808D+06 0.28148808D+06 0.28148808D+06 0.10866043D+01  1  2 12  5  6  1        2 0.701972597676D-10 0.100000000000D+01
-.484691496487D-03 0.000000000000D+00 -.438777792390D-05 0.411158573098D-05 0.000000000000D+00  6 21 -2 25 1 -1 -2 2 0.38317570D+00 0.12402238D+00 0.21652788D+06 0.21652788D+06 0.21652788D+06 0.10951867D+01  1  2  5  5  6  1        2 -.161565018128D-04 0.100000000000D+01
  </mgrwgt>
  </event>
  <event>
  5     66 -.18881543E-05 0.13469600E+02 0.75467711E-02 0.95133125E-01
        2 -1    0    0  502    0 0.00000000E+00 0.00000000E+00 0.11824692E+04 0.11824693E+04 0.32000000E+00 0.0000E+00 0.9000E+01
       -2 -1    0    0    0  501 0.00000000E+00 0.00000000E+00 -.97431178E+03 0.97431183E+03 0.32000000E+00 0.0000E+00 0.9000E+01
       25  1    1    2    0    0 -.42574798E+03 -.19825732E+03 0.52595996E+03 0.71611884E+03 0.12500000E+03 0.0000E+00 0.9000E+01
        1  1    1    2  502    0 0.97970588E+01 0.92513605E+01 0.50198082E+03 0.50216175E+03 0.32000000E+00 0.0000E+00 0.9000E+01
       -1  1    1    2    0  501 0.41595092E+03 0.18900596E+03 -.81978333E+03 0.93850052E+03 0.32000000E+00 0.0000E+00 0.9000E+01
#aMCatNLO 1  0  0  1  2 0.12791914D+03 0.00000000D+00  -5  6  0 0.00000000D+00 0.00000000D+00 0.00000000D+00 0.00000000D+00 0.00000000D+00
  <mgrwgt>
 -.4336119514D-02    1    2    0
 0.107335632727320D+04 0.000000000000000D+00 0.000000000000000D+00 0.107335632727320D+04
 0.107335632727320D+04 0.000000000000000D+00 0.000000000000000D+00 -.107335632727320D+04
 0.668633579283389D+03 -.425804551999200D+03 -.198281398998315D+03 0.459152298974259D+03
 0.455666306159916D+03 0.979328385374370D+01 0.924779582935469D+01 0.455467180412685D+03
 0.102241276910310D+04 0.416011268145457D+03 0.189033603168960D+03 -.914619479386944D+03
 0.000000000000000D+00 0.000000000000000D+00 -.000000000000000D+00 0.000000000000000D+00
 0.362051095720152D+04 0.000000000000000D+00 0.000000000000000D+00 0.362051095720152D+04
 0.352391919785496D+04 0.000000000000000D+00 0.000000000000000D+00 -.352391919785496D+04
 0.141234090203943D+04 -.116396527045531D+04 0.642997542059144D+03 0.459152298974259D+03
 0.827311099685933D+03 -.445302889675555D+03 0.527919160172339D+03 0.455467180412685D+03
 0.165442536246552D+04 -.533513474288367D+03 0.127120331208185D+04 -.914619479386944D+03
 0.325035279086560D+04 0.214278163441924D+04 -.244212001431334D+04 0.965917593465558D+02
-.492422029714D-02 0.000000000000D+00 0.000000000000D+00 0.379623636013D-03 0.000000000000D+00  6 2 -2 25 1 -1 21 2 0.18191835D+00 0.14989413D+00 0.22870898D+06 0.22870898D+06 0.22870898D+06 0.10933792D+01  1  2 14  1  6  1        2 -.433611951405D-02 0.100000000000D+01
  </mgrwgt>
  </event>
  <event>
  5     66 0.18881543E-05 0.20481426E+02 0.75467711E-02 0.83699933E-01
        2 -1    0    0  502    0 0.00000000E+00 0.00000000E+00 0.15590197E+04 0.15590197E+04 0.32000000E+00 0.0000E+00 0.9000E+01
       -2 -1    0    0    0  501 0.00000000E+00 0.00000000E+00 -.38001053E+03 0.38001067E+03 0.32000000E+00 0.0000E+00 0.9000E+01
       25  1    1    2    0    0 0.29995986E+03 0.40247351E+03 0.88628178E+03 0.10261975E+04 0.12500000E+03 0.0000E+00 0.9000E+01
        1  1    1    2  502    0 -.16665792E+02 0.11946522E+02 0.39915336E+03 0.39967984E+03 0.32000000E+00 0.0000E+00 0.9000E+01
       -1  1    1    2    0  501 -.28329407E+03 -.41442004E+03 -.10642598E+03 0.51315308E+03 0.32000000E+00 0.0000E+00 0.9000E+01
#aMCatNLO 1  0  0  1  2 0.18943613D+02 0.00000000D+00  -5  6  0 0.00000000D+00 0.00000000D+00 0.00000000D+00 0.00000000D+00 0.00000000D+00
  <mgrwgt>
 0.7926878952D-02    5    2    0
 0.769703882722402D+03 0.000000000000000D+00 0.000000000000000D+00 0.769703882722402D+03
 0.769703882722402D+03 0.000000000000000D+00 0.000000000000000D+00 -.769703882722402D+03
 0.613990393887789D+03 0.300002577013202D+03 0.402569621214313D+03 0.330598484036581D+03
 0.197498583133882D+03 -.166463745995656D+02 0.119326030536088D+02 0.196433707741178D+03
 0.727918788423132D+03 -.283356202413636D+03 -.414502224267922D+03 -.527032191777759D+03
 0.000000000000000D+00 0.000000000000000D+00 -.000000000000000D+00 0.000000000000000D+00
 0.208475613530640D+04 0.000000000000000D+00 0.000000000000000D+00 0.208475613530640D+04
 0.143366504290537D+04 0.000000000000000D+00 0.000000000000000D+00 -.143366504290537D+04
 0.108847208942445D+04 0.148967848554284D+03 0.101865583584734D+04 0.330598484036581D+03
 0.274633218858566D+03 -.585317607444717D+02 0.182787407519835D+03 0.196433707741178D+03
 0.672629403312485D+03 -.407606468076390D+03 0.923274077007021D+02 -.527032191777759D+03
 0.148268646661626D+04 0.317170380266578D+03 -.129377065106788D+04 0.651091092401031D+03
0.238426647652D-02 0.000000000000D+00 0.000000000000D+00 0.224424644849D-04 0.000000000000D+00  6 2 -2 25 1 -1 21 0 0.23984920D+00 0.58463172D-01 0.27038253D+06 0.27038253D+06 0.27038253D+06 0.10879076D+01  1  2  2  1  6  1        2 0.100257806320D-01 0.100000000000D+01
0.113563844668D-02 0.000000000000D+00 -.915621106161D-05 0.224424644849D-04 0.000000000000D+00  6 2 -2 25 1 -1 21 2 0.23984920D+00 0.58463172D-01 0.27038253D+06 0.27038253D+06 0.27038253D+06 0.10879076D+01  1  2  3  1  6  1        2 0.565180946265D-02 0.100000000000D+01
-.156321678236D-02 0.000000000000D+00 0.000000000000D+00 0.224424644849D-04 0.000000000000D+00  6 2 -2 25 1 -1 21 2 0.23984920D+00 0.58463172D-01 0.27038253D+06 0.27038253D+06 0.27038253D+06 0.10879076D+01  1  2 15  1  6  1        2 -.777976778484D-02 0.100000000000D+01
0.101724492305D-02 0.000000000000D+00 -.124599303203D-02 0.224424644849D-04 0.000000000000D+00  6 2 -2 25 1 -1 21 2 0.72935761D+00 0.58463172D-01 0.27038253D+06 0.27038253D+06 0.27038253D+06 0.10879076D+01  1  2  5  1  6  1        2 0.290088341878D-04 0.100000000000D+01
0.189715103674D-03 0.000000000000D+00 -.158073851180D-03 0.224424644849D-04 0.000000000000D+00  6 21 -2 25 1 -1 -2 2 0.72935761D+00 0.58463172D-01 0.27038253D+06 0.27038253D+06 0.27038253D+06 0.10879076D+01  1  2  5  5  6  1        2 0.478082053320D-07 0.100000000000D+01
  </mgrwgt>
  </event>
  <event>
  5     66 -.18881543E-05 0.15499777E+02 0.75467711E-02 0.89883747E-01
        2 -1    0    0  502    0 0.00000000E+00 0.00000000E+00 0.20115222E+04 0.20115222E+04 0.32000000E+00 0.0000E+00 0.9000E+01
       -2 -1    0    0    0  501 0.00000000E+00 0.00000000E+00 -.12723903E+04 0.12723903E+04 0.32000000E+00 0.0000E+00 0.9000E+01
       25  1    1    2    0    0 0.67686169E+03 0.36964173E+03 -.62374184E+02 0.78376801E+03 0.12500000E+03 0.0000E+00 0.9000E+01
        1  1    1    2  502    0 -.66708513E+03 -.35761566E+03 0.15639840E+04 0.17375090E+04 0.32000000E+00 0.0000E+00 0.9000E+01
       -1  1    1    2    0  501 -.97765557E+01 -.12026068E+02 -.76247791E+03 0.76263548E+03 0.32000000E+00 0.0000E+00 0.9000E+01
#aMCatNLO 1  0  0  1  2 0.18943613D+02 0.00000000D+00  -5  6  0 0.00000000D+00 0.00000000D+00 0.00000000D+00 0.00000000D+00 0.00000000D+00
  <mgrwgt>
 -.1588794649D-02    1    2    0
 0.159982542057226D+04 0.000000000000000D+00 0.000000000000000D+00 0.159982542057226D+04
 0.159982542057226D+04 0.000000000000000D+00 0.000000000000000D+00 -.159982542057226D+04
 0.818782302195308D+03 0.676851191920718D+03 0.369636575273467D+03 -.244991274546368D+03
 0.142195526052357D+04 -.667073884224212D+03 -.357609633089977D+03 0.120377927637833D+04
 0.958913278425635D+03 -.977730769650600D+01 -.120269421834906D+02 -.958788001831960D+03
 0.000000000000000D+00 -.000000000000000D+00 0.000000000000000D+00 0.000000000000000D+00
 0.380601632386050D+04 0.000000000000000D+00 0.000000000000000D+00 0.380601632386050D+04
 0.183145346320818D+04 0.000000000000000D+00 0.000000000000000D+00 -.183145346320818D+04
 0.104940419791350D+04 0.973463547400843D+03 0.279234968935476D+03 -.244991274546368D+03
 0.132028950229669D+04 -.231687118312040D+03 -.490306947579968D+03 0.120377927637833D+04
 0.101124970653955D+04 0.303025875292044D+03 -.107363193986043D+03 -.958788001831960D+03
 0.225652638031893D+04 -.104480230438085D+04 0.318435172630534D+03 0.197456286065233D+04
-.128811543094D-01 0.000000000000D+00 0.000000000000D+00 0.276403137838D-03 0.000000000000D+00  6 2 -2 25 1 -1 21 2 0.30946496D+00 0.19575235D+00 0.60345987D+06 0.60345987D+06 0.60345987D+06 0.10627852D+01  1  2 14  1  6  1        2 -.158879464915D-02 0.100000000000D+01
  </mgrwgt>
  </event>
  <event>
  5     66 0.18881543E-05 0.47854178E+02 0.75467711E-02 0.88637397E-01
        2 -1    0    0  502    0 0.00000000E+00 0.00000000E+00 0.45210346E+04 0.45210346E+04 0.32000000E+00 0.0000E+00 0.9000E+01
       -2 -1    0    0    0  501 0.00000000E+00 0.00000000E+00 -.54347848E+03 0.54347858E+03 0.32000000E+00 0.0000E+00 0.9000E+01
       25  1    1    2    0    0 -.70275439E+03 -.38755505E+03 0.48010318E+03 0.94349706E+03 0.12500000E+03 0.0000E+00 0.9000E+01
        1  1    1    2  502    0 0.70631812E+03 0.43527401E+03 0.37618852E+04 0.38522888E+04 0.32000000E+00 0.0000E+00 0.9000E+01
       -1  1    1    2    0  501 -.35637257E+01 -.47718964E+02 -.26443230E+03 0.26872727E+03 0.32000000E+00 0.0000E+00 0.9000E+01
#aMCatNLO 1  0  0  1  4 0.41145981D+02 0.00000000D+00  -5  6  0 0.00000000D+00 0.00000000D+00 0.00000000D+00 0.00000000D+00 0.00000000D+00
  <mgrwgt>
 0.3052154460D-02    7    2    0
 0.156750926175506D+04 0.000000000000000D+00 0.000000000000000D+00 0.156750926175506D+04
 0.156750926175506D+04 0.000000000000000D+00 0.000000000000000D+00 -.156750926175506D+04
 0.915024921655590D+03 -.702748786049890D+03 -.387549231119682D+03 -.421420626470476D+03
 0.145033324790353D+04 0.706312473666281D+03 0.435270531186413D+03 0.118959185614164D+04
 0.769660353951009D+03 -.356368761639180D+01 -.477213000667303D+02 -.768171229671163D+03
 0.000000000000000D+00 -.000000000000000D+00 0.000000000000000D+00 0.000000000000000D+00
 0.160021842692456D+04 0.000000000000000D+00 0.000000000000000D+00 0.160021842692456D+04
 0.159258747389961D+04 0.000000000000000D+00 0.000000000000000D+00 -.159258747389961D+04
 0.913332319081437D+03 -.692982913542171D+03 -.400911788555178D+03 -.421420626470476D+03
 0.145175400963077D+04 0.721813500233677D+03 0.414060612906991D+03 0.118959185614164D+04
 0.770446029593189D+03 0.466253987072283D+01 -.589771747658055D+02 -.768171229671163D+03
 0.572735425187776D+02 -.334931265622284D+02 0.458283504139928D+02 0.763095302495443D+01
0.252127291461D-01 0.000000000000D+00 0.000000000000D+00 0.595309225383D-04 0.000000000000D+00  6 2 -2 25 1 -1 21 0 0.69554379D+00 0.83612082D-01 0.71378788D+06 0.71378788D+06 0.71378788D+06 0.10577527D+01  1  2  2  1  6  1        2 0.426662702560D-03 0.100000000000D+01
0.132385372294D-01 0.000000000000D+00 -.968235185849D-04 0.595309225383D-04 0.000000000000D+00  6 2 -2 25 1 -1 21 2 0.69554379D+00 0.83612082D-01 0.71378788D+06 0.71378788D+06 0.71378788D+06 0.10577527D+01  1  2  3  1  6  1        2 0.250653122550D-03 0.100000000000D+01
-.180765986754D-01 0.000000000000D+00 0.000000000000D+00 0.595309225383D-04 0.000000000000D+00  6 2 -2 25 1 -1 21 2 0.69554379D+00 0.83612082D-01 0.71378788D+06 0.71378788D+06 0.71378788D+06 0.10577527D+01  1  2 15  1  6  1        2 -.342255025956D-03 0.100000000000D+01
-.108818179406D-02 0.000000000000D+00 0.000000000000D+00 0.595309225383D-04 0.000000000000D+00  6 2 -2 25 1 -1 21 2 0.69554379D+00 0.83612082D-01 0.71378788D+06 0.71378788D+06 0.71378788D+06 0.10577527D+01  1  2  4  1  6  1        2 -.206031950400D-04 0.100000000000D+01
-.616941704254D+00 0.000000000000D+00 -.914843329605D-01 0.595309225383D-04 0.000000000000D+00  6 2 -2 25 1 -1 21 2 0.71190635D+00 0.83612082D-01 0.71378788D+06 0.71378788D+06 0.71378788D+06 0.10577527D+01  1  2  5  1  6  1        2 -.905201301232D-02 0.100000000000D+01
0.622706663714D+00 0.000000000000D+00 0.948848014094D-01 0.595309225383D-04 0.000000000000D+00  6 2 -2 25 1 -1 21 2 0.69554379D+00 0.83612082D-01 0.71378788D+06 0.71378788D+06 0.71378788D+06 0.10577527D+01  1  2  6  1  6  1        2 0.117900767273D-01 0.100000000000D+01
-.258033905769D-02 0.000000000000D+00 -.385301574594D-03 0.595309225383D-04 0.000000000000D+00  6 21 -2 25 1 -1 -2 2 0.71190635D+00 0.83612082D-01 0.71378788D+06 0.71378788D+06 0.71378788D+06 0.10577527D+01  1  2  5  5  6  1        2 -.366859468297D-06 0.100000000000D+01
  </mgrwgt>
  </event>
  <event>
  5     66 0.18881543E-05 0.11600067E+03 0.75467711E-02 0.89698323E-01
        2 -1    0    0  502    0 0.00000000E+00 0.00000000E+00 0.29662640E+04 0.29662640E+04 0.32000000E+00 0.0000E+00 0.9000E+01
       -2 -1    0    0    0  501 0.00000000E+00 0.00000000E+00 -.13959156E+04 0.13959157E+04 0.32000000E+00 0.0000E+00 0.9000E+01
       25  1    1    2    0    0 0.28151418E+02 0.73930760E+03 0.74759341E+03 0.10591927E+04 0.12500000E+03 0.0000E+00 0.9000E+01
        1  1    1    2  502    0 0.84318878E+02 -.71094145E+03 0.19978135E+04 0.21222174E+04 0.32000000E+00 0.0000E+00 0.9000E+01
       -1  1    1    2    0  501 -.11247030E+03 -.28366144E+02 -.11750586E+04 0.11807697E+04 0.32000000E+00 0.0000E+00 0.9000E+01
#aMCatNLO 1  0  0  5  4 0.65280735D+00 0.00000000D+00  -5  6  0 0.00000000D+00 0.00000000D+00 0.00000000D+00 0.00000000D+00 0.00000000D+00
  <mgrwgt>
 0.3791774646D-03    6    2    0
 0.203485979878366D+04 0.000000000000000D+00 0.000000000000000D+00 0.203485979878366D+04
 0.203485979878366D+04 -.000000000000000D+00 -.000000000000000D+00 -.203485979878366D+04
 0.846866683434453D+03 0.281637547791736D+02 0.739274007804197D+03 0.392732636552053D+03
 0.150376963671027D+04 0.843146171744213D+02 -.710905527407959D+03 0.132243241669405D+04
 0.171908327742260D+04 -.112478371953594D+03 -.283684803962384D+02 -.171516505324611D+04
 0.000000000000000D+00 0.000000000000000D+00 0.000000000000000D+00 -.000000000000000D+00
 0.203485979878366D+04 0.000000000000000D+00 0.000000000000000D+00 0.203485979878366D+04
 0.203485979878366D+04 -.000000000000000D+00 -.000000000000000D+00 -.203485979878366D+04
 0.846840540613676D+03 0.281601856305160D+02 0.739273107619371D+03 0.392678211163945D+03
 0.150368505037841D+04 0.843082795661813D+02 -.710907125833611D+03 0.132233577549997D+04
 0.944233734409295D+00 -.657132769759899D+00 -.232809707542401D+00 -.636830832298495D+00
 0.171824977284083D+04 -.111811332426937D+03 -.281331720782169D+02 -.171437715583161D+04
0.231383990248D-01 0.000000000000D+00 0.000000000000D+00 0.725268241033D-04 0.000000000000D+00  6 2 -2 25 1 -1 21 0 0.45634831D+00 0.21475625D+00 0.62582717D+06 0.62582717D+06 0.62582717D+06 0.10616882D+01  1  2  2  4  6  5       -1 0.512862492734D-03 0.100000000000D+01
0.812495038435D-02 0.000000000000D+00 -.888575447357D-04 0.725268241033D-04 0.000000000000D+00  6 2 -2 25 1 -1 21 2 0.45634831D+00 0.21475625D+00 0.62582717D+06 0.62582717D+06 0.62582717D+06 0.10616882D+01  1  2  3  4  6  5       -1 0.202993583812D-03 0.100000000000D+01
-.147993155448D-01 0.000000000000D+00 0.000000000000D+00 0.725268241033D-04 0.000000000000D+00  6 2 -2 25 1 -1 21 2 0.45634831D+00 0.21475625D+00 0.62582717D+06 0.62582717D+06 0.62582717D+06 0.10616882D+01  1  2 15  4  6  5       -1 -.369745777916D-03 0.100000000000D+01
0.245579776125D-17 0.000000000000D+00 0.000000000000D+00 0.725268241033D-04 0.000000000000D+00  6 2 -2 25 1 -1 21 2 0.45634831D+00 0.21475625D+00 0.62582136D+06 0.62582136D+06 0.62582136D+06 0.10616885D+01  1  2 12  4  6  5       -1 0.613556913181D-19 0.100000000000D+01
-.113339407081D-01 0.000000000000D+00 0.000000000000D+00 0.725268241033D-04 0.000000000000D+00  6 2 -2 25 1 -1 21 2 0.45634831D+00 0.21475625D+00 0.62582717D+06 0.62582717D+06 0.62582717D+06 0.10616882D+01  1  2  5  4  6  5       -1 -.283166928314D-03 0.100000000000D+01
0.126574562870D-01 0.000000000000D+00 0.000000000000D+00 0.725268241033D-04 0.241829483681D-06  6 2 -2 25 1 -1 21 2 0.45634831D+00 0.21475625D+00 0.62582136D+06 0.62582136D+06 0.62582136D+06 0.10616885D+01  1  2 11  4  6  5       -1 0.316234094301D-03 0.100000000000D+01
  </mgrwgt>
  </event>
  <event>
  5     66 0.18881543E-05 0.37344568E+02 0.75467711E-02 0.93749967E-01
        2 -1    0    0  502    0 0.00000000E+00 0.00000000E+00 0.17618161E+03 0.17618190E+03 0.32000000E+00 0.0000E+00 0.9000E+01
       -2 -1    0    0    0  501 -.00000000E+00 -.00000000E+00 -.20341413E+04 0.20341413E+04 0.32000000E+00 0.0000E+00 0.9000E+01
       25  1    1    2    0    0 0.51146292E+03 -.14299877E+03 -.86573022E+03 0.10233068E+04 0.12500000E+03 0.0000E+00 0.9000E+01
        1  1    1    2  502    0 -.47449524E+03 0.13773586E+03 -.53492817E+03 0.72819307E+03 0.32000000E+00 0.0000E+00 0.9000E+01
       -1  1    1    2    0  501 -.36967677E+02 0.52629084E+01 -.45730131E+03 0.45882338E+03 0.32000000E+00 0.0000E+00 0.9000E+01
#aMCatNLO 1  0  0  5  2 0.93626626D+01 0.00000000D+00  -5  6  0 0.00000000D+00 0.00000000D+00 0.00000000D+00 0.00000000D+00 0.00000000D+00
  <mgrwgt>
 0.4103524178D-01    9    2    0
 0.598647345874479D+03 0.000000000000000D+00 0.000000000000000D+00 0.598647345874479D+03
 0.598647345874479D+03 -.000000000000000D+00 -.000000000000000D+00 -.598647345874479D+03
 0.545677344438907D+03 0.511455008346727D+03 -.142995976298580D+03 -.102317854435156D+02
 0.514202065596457D+03 -.474483244779654D+03 0.137732378764652D+03 0.142475283915719D+03
 0.137415281713593D+03 -.369717635670730D+02 0.526359753392819D+01 -.132243498472203D+03
 0.000000000000000D+00 0.000000000000000D+00 0.000000000000000D+00 0.000000000000000D+00
 0.598647345874479D+03 0.000000000000000D+00 0.000000000000000D+00 0.598647345874479D+03
 0.598647345874479D+03 -.000000000000000D+00 -.000000000000000D+00 -.598647345874479D+03
 0.545526714231419D+03 0.511288665988416D+03 -.142972294462970D+03 -.108267718137837D+02
 0.514197662543231D+03 -.474640013291195D+03 0.137754697590456D+03 0.141914542030121D+03
 0.848298808180217D+02 -.223890856935569D+02 -.611746868571953D+01 -.815929782413019D+02
 0.527404341562851D+02 -.142595670036638D+02 0.113350655582334D+02 -.494947919750352D+02
0.492535567745D-02 0.000000000000D+00 0.000000000000D+00 0.966370766793D-06 0.000000000000D+00  6 2 -2 25 1 -1 21 0 0.27104888D-01 0.31294484D+00 0.28997975D+06 0.28997975D+06 0.28997975D+06 0.10856451D+01  1  2  2  4  6  5       -1 0.278955612012D-02 0.100000000000D+01
0.140619865460D-02 0.000000000000D+00 -.189146626773D-04 0.966370766793D-06 0.000000000000D+00  6 2 -2 25 1 -1 21 2 0.27104888D-01 0.31294484D+00 0.28997975D+06 0.28997975D+06 0.28997975D+06 0.10856451D+01  1  2  3  4  6  5       -1 0.938685109389D-03 0.100000000000D+01
-.321032378478D-02 0.000000000000D+00 0.000000000000D+00 0.966370766793D-06 0.000000000000D+00  6 2 -2 25 1 -1 21 2 0.27104888D-01 0.31294484D+00 0.28997975D+06 0.28997975D+06 0.28997975D+06 0.10856451D+01  1  2 15  4  6  5       -1 -.214299958490D-02 0.100000000000D+01
0.127585588227D-04 0.000000000000D+00 0.000000000000D+00 0.966370766793D-06 0.000000000000D+00  6 2 -2 25 1 -1 21 2 0.27104888D-01 0.31294484D+00 0.29217869D+06 0.29217869D+06 0.29217869D+06 0.10854017D+01  1  2 12  4  6  5       -1 0.850943914405D-05 0.100000000000D+01
0.529648226584D-01 0.000000000000D+00 0.000000000000D+00 0.966370766793D-06 0.000000000000D+00  6 2 -2 25 1 -1 21 2 0.27104888D-01 0.31294484D+00 0.29217869D+06 0.29217869D+06 0.29217869D+06 0.10854017D+01  1  2 12  4  6  5       -1 0.353253797275D-01 0.100000000000D+01
-.447510645441D-01 0.000000000000D+00 0.000000000000D+00 0.966370766793D-06 0.000000000000D+00  6 2 -2 25 1 -1 21 2 0.27104888D-01 0.31294484D+00 0.28997975D+06 0.28997975D+06 0.28997975D+06 0.10856451D+01  1  2  4  4  6  5       -1 -.298728474668D-01 0.100000000000D+01
-.573412963433D-01 0.000000000000D+00 0.000000000000D+00 0.966370766793D-06 0.000000000000D+00  6 2 -2 25 1 -1 21 2 0.27104888D-01 0.31294484D+00 0.28997975D+06 0.28997975D+06 0.28997975D+06 0.10856451D+01  1  2  5  4  6  5       -1 -.382772525450D-01 0.100000000000D+01
0.108257737646D+00 0.000000000000D+00 -.000000000000D+00 0.966370766793D-06 0.000000000000D+00  6 2 -2 25 1 -1 21 2 0.27104888D-01 0.31294484D+00 0.28997975D+06 0.28997975D+06 0.28997975D+06 0.10856451D+01  1  2  6  4  6  5       -1 0.722656972914D-01 0.100000000000D+01
0.770196129993D-06 0.000000000000D+00 0.000000000000D+00 0.966370766793D-06 0.150037264059D-07  6 2 -2 25 1 -1 21 2 0.27104888D-01 0.31294484D+00 0.29217869D+06 0.29217869D+06 0.29217869D+06 0.10854017D+01  1  2 11  4  6  5       -1 0.513689452567D-06 0.100000000000D+01
  </mgrwgt>
  </event>
  <event>
  5     66 0.18881543E-05 0.10448150E+03 0.75467711E-02 0.92827594E-01
        2 -1    0    0  502    0 0.00000000E+00 0.00000000E+00 0.26520628E+04 0.26520629E+04 0.32000000E+00 0.0000E+00 0.9000E+01
       -2 -1    0    0    0  501 0.00000000E+00 0.00000000E+00 -.11215252E+04 0.11215252E+04 0.32000000E+00 0.0000E+00 0.9000E+01
       25  1    1    2    0    0 0.15864245E+03 -.43269433E+03 0.16063663E+04 0.16758369E+04 0.12500000E+03 0.0000E+00 0.9000E+01
        1  1    1    2  502    0 -.89701787E+02 0.53634854E+02 0.97393111E+03 0.97952286E+03 0.32000000E+00 0.0000E+00 0.9000E+01
       -1  1    1    2    0  501 -.68940659E+02 0.37905948E+03 -.10497597E+04 0.11182283E+04 0.32000000E+00 0.0000E+00 0.9000E+01
#aMCatNLO 1  0  0  1  4 0.10224164D+02 0.00000000D+00  -5  6  0 0.00000000D+00 0.00000000D+00 0.00000000D+00 0.00000000D+00 0.00000000D+00
  <mgrwgt>
 0.5943506240D-02    7    2    0
 0.172463193643712D+04 0.000000000000000D+00 0.000000000000000D+00 0.172463193643712D+04
 0.172463193643712D+04 0.000000000000000D+00 0.000000000000000D+00 -.172463193643712D+04
 0.112080421538436D+04 0.158621846943577D+03 -.432712798299487D+03 0.101399005571228D+04
 0.639266322365769D+03 -.896741741387328D+02 0.536183434117097D+02 0.630670315341839D+03
 0.168919333512411D+04 -.689476728048438D+02 0.379094454887778D+03 -.164466037105412D+04
 0.000000000000000D+00 0.000000000000000D+00 0.000000000000000D+00 0.000000000000000D+00
 0.324557617843017D+04 0.000000000000000D+00 0.000000000000000D+00 0.324557617843017D+04
 0.173342371115067D+04 0.000000000000000D+00 0.000000000000000D+00 -.173342371115067D+04
 0.112664729200080D+04 0.103951525118954D+03 -.463386844779589D+03 0.101399005571228D+04
 0.643163188662642D+03 -.120869879076050D+03 0.361152728006302D+02 0.630670315341839D+03
 0.168482467135281D+04 -.151022258018376D+03 0.333044613627449D+03 -.164466037105412D+04
 0.152436473756460D+04 0.167940611975471D+03 0.942269583515096D+02 0.151215246727951D+04
0.355974426572D-02 0.000000000000D+00 0.000000000000D+00 0.189303193430D-03 0.000000000000D+00  6 2 -2 25 1 -1 21 0 0.40800967D+00 0.17254234D+00 0.23392497D+06 0.23392497D+06 0.23392497D+06 0.10926372D+01  1  2  2  1  6  1        2 0.267058025017D-03 0.100000000000D+01
0.279673752673D-03 0.000000000000D+00 -.136703552825D-04 0.189303193430D-03 0.000000000000D+00  6 2 -2 25 1 -1 21 2 0.40800967D+00 0.17254234D+00 0.23392497D+06 0.23392497D+06 0.23392497D+06 0.10926372D+01  1  2  3  1  6  1        2 0.250490047661D-04 0.100000000000D+01
-.244685620624D-02 0.000000000000D+00 0.000000000000D+00 0.189303193430D-03 0.000000000000D+00  6 2 -2 25 1 -1 21 2 0.40800967D+00 0.17254234D+00 0.23392497D+06 0.23392497D+06 0.23392497D+06 0.10926372D+01  1  2 15  1  6  1        2 -.219152895781D-03 0.100000000000D+01
-.135611492800D-01 0.000000000000D+00 0.000000000000D+00 0.189303193430D-03 0.000000000000D+00  6 2 -2 25 1 -1 21 2 0.40800967D+00 0.17254234D+00 0.23392497D+06 0.23392497D+06 0.23392497D+06 0.10926372D+01  1  2  4  1  6  1        2 -.121460555273D-02 0.100000000000D+01
-.956333744895D-01 0.000000000000D+00 -.148558922009D-02 0.189303193430D-03 0.000000000000D+00  6 2 -2 25 1 -1 21 2 0.76814823D+00 0.17254234D+00 0.23392497D+06 0.23392497D+06 0.23392497D+06 0.10926372D+01  1  2  5  1  6  1        2 -.100390273702D-03 0.100000000000D+01
0.802276209659D-01 0.000000000000D+00 0.123089710769D-02 0.189303193430D-03 0.000000000000D+00  6 2 -2 25 1 -1 21 2 0.40800967D+00 0.17254234D+00 0.23392497D+06 0.23392497D+06 0.23392497D+06 0.10926372D+01  1  2  6  1  6  1        2 0.718559407431D-02 0.100000000000D+01
-.649850056778D-02 0.000000000000D+00 -.102252899275D-03 0.189303193430D-03 0.000000000000D+00  6 21 -2 25 1 -1 -2 2 0.76814823D+00 0.17254234D+00 0.23392497D+06 0.23392497D+06 0.23392497D+06 0.10926372D+01  1  2  5  5  6  1        2 -.461415817192D-07 0.100000000000D+01
  </mgrwgt>
  </event>
  <event>
  5     66 -.18881543E-05 0.23272521E+02 0.75467711E-02 0.94355054E-01
        2 -1    0    0  502    0 0.00000000E+00 0.00000000E+00 0.32231317E+04 0.32231317E+04 0.32000000E+00 0.0000E+00 0.9000E+01
       -2 -1    0    0    0  501 0.00000000E+00 0.00000000E+00 -.38249960E+03 0.38249974E+03 0.32000000E+00 0.0000E+00 0.9000E+01
       25  1    1    2    0    0 0.43392028E+03 0.24186560E+03 0.83640027E+03 0.98080385E+03 0.12500000E+03 0.0000E+00 0.9000E+01
        1  1    1    2  502    0 0.29217429E+01 -.23091488E+02 0.21221166E+04 0.21222442E+04 0.32000000E+00 0.0000E+00 0.9000E+01
       -1  1    1    2    0  501 -.43684203E+03 -.21877411E+03 -.11788479E+03 0.50258332E+03 0.32000000E+00 0.0000E+00 0.9000E+01
#aMCatNLO 1  0  0  5  2 0.58453001D+02 0.00000000D+00  -5  6  0 0.00000000D+00 0.00000000D+00 0.00000000D+00 0.00000000D+00 0.00000000D+00
  <mgrwgt>
 -.1910606193D-02    1    2    0
 0.111033636999060D+04 0.000000000000000D+00 0.000000000000000D+00 0.111033636999060D+04
 0.111033636999060D+04 -.000000000000000D+00 -.000000000000000D+00 -.111033636999060D+04
 0.522670732761834D+03 0.433977313991741D+03 0.241892031755867D+03 0.103497008649165D+03
 0.731158328794974D+03 0.292135678248358D+01 -.230884363144224D+02 0.730787856733651D+03
 0.966843678424393D+03 -.436898670774225D+03 -.218803595441445D+03 -.834284865382816D+03
 0.000000000000000D+00 0.000000000000000D+00 0.000000000000000D+00 -.000000000000000D+00
 0.111033636999060D+04 0.000000000000000D+00 0.000000000000000D+00 0.111033636999060D+04
 0.111033636999060D+04 -.000000000000000D+00 -.000000000000000D+00 -.111033636999060D+04
 0.521116605930852D+03 0.432896014411797D+03 0.241350505192232D+03 0.101432200640265D+03
 0.728292631199764D+03 0.140945521835052D+01 -.238456130245269D+02 0.727900787769423D+03
 0.942243521066179D+03 -.417160680381224D+03 -.233272830693011D+03 -.812024387685207D+03
 0.290199817844071D+02 -.171447892489234D+02 0.157679385253060D+02 -.173086007244806D+02
-.358712050070D-02 0.000000000000D+00 0.000000000000D+00 0.338967333291D-03 0.000000000000D+00  6 2 -2 25 1 -1 21 2 0.49586642D+00 0.58846105D-01 0.26225658D+06 0.26225658D+06 0.26225658D+06 0.10888988D+01  1  2 14  4  6  5       -1 -.191060619283D-02 0.100000000000D+01
  </mgrwgt>
  </event>
  <event>
  6     66 0.18881543E-05 0.53638966E+02 0.75467711E-02 0.93403439E-01
        2 -1    0    0  502    0 0.00000000E+00 0.00000000E+00 0.90624907E+03 0.90624913E+03 0.32000000E+00 0.0000E+00 0.9000E+01
       -2 -1    0    0    0  501 0.00000000E+00 0.00000000E+00 -.75606155E+03 0.75606162E+03 0.32000000E+00 0.0000E+00 0.9000E+01
       25  1    1    2    0    0 -.22601497E+03 0.48517160E+03 0.40386373E+01 0.54965040E+03 0.12500000E+03 0.0000E+00 0.9000E+01
        1  1    1    2  503    0 0.10802635E+03 -.37037687E+03 0.35524243E+03 0.52444829E+03 0.32000000E+00 0.0000E+00 0.9000E+01
       -1  1    1    2    0  501 0.17376267E+02 0.98421295E+01 -.36449183E+03 0.36503863E+03 0.32000000E+00 0.0000E+00 0.9000E+01
       21  1    1    2  502  503 0.10061235E+03 -.12463686E+03 0.15539829E+03 0.22317343E+03 0.75000000E+00 0.0000E+00 0.9000E+01
#aMCatNLO 2  0  0  4  2 0.44779336D+02 0.00000000D+00  -5  6  0 0.00000000D+00 0.00000000D+00 0.00000000D+00 0.00000000D+00 0.00000000D+00
  <mgrwgt>
 0.9522540549D-02    1    2    0
 0.827756111149807D+03 0.000000000000000D+00 0.000000000000000D+00 0.827756111149807D+03
 0.827756111149807D+03 -.000000000000000D+00 -.000000000000000D+00 -.827756111149807D+03
 0.553243210631844D+03 -.226670084523687D+03 0.486695948136616D+03 -.469124392848545D+02
 0.701325062683472D+03 0.209780567002108D+03 -.497722910918649D+03 0.447348702024402D+03
 0.400943948984299D+03 0.168895175215793D+02 0.110269627820323D+02 -.400436262739547D+03
 0.000000000000000D+00 0.000000000000000D+00 0.000000000000000D+00 0.000000000000000D+00
 0.827756111149807D+03 0.000000000000000D+00 0.000000000000000D+00 0.827756111149807D+03
 0.827756111149807D+03 -.000000000000000D+00 -.000000000000000D+00 -.827756111149807D+03
 0.551407931157735D+03 -.225984060721712D+03 0.485068296116423D+03 -.454495208565327D+02
 0.494100447858259D+03 0.107930788967894D+03 -.370187574874033D+03 0.308945556328914D+03
 0.399875266962933D+03 0.173868519491058D+02 0.984699295686699D+01 -.399375716885346D+03
 0.210128576320688D+03 0.100666419804712D+03 -.124727714199258D+03 0.135879681412965D+03
0.388387669234D-02 0.000000000000D+00 0.000000000000D+00 0.325308977150D-04 0.537986236678D-07  6 2 -2 25 1 -1 21 2 0.13942294D+00 0.11631717D+00 0.31102777D+06 0.31102777D+06 0.31102777D+06 0.10833938D+01  1  2  1  3  6  4        1 0.952254054900D-02 0.100000000000D+01
  </mgrwgt>
  </event>
  <event>
  5     66 0.18881543E-05 0.58538614E+02 0.75467711E-02 0.91125067E-01
        2 -1    0    0  502    0 0.00000000E+00 0.00000000E+00 0.65158477E+03 0.65158485E+03 0.32000000E+00 0.0000E+00 0.9000E+01
       -2 -1    0    0    0  501 0.00000000E+00 0.00000000E+00 -.13058596E+04 0.13058596E+04 0.32000000E+00 0.0000E+00 0.9000E+01
       25  1    1    2    0    0 0.57152741E+03 -.56402537E+02 0.23608214E+03 0.63339135E+03 0.12500000E+03 0.0000E+00 0.9000E+01
        1  1    1    2  502    0 -.57908505E+02 0.89755921E+01 0.15098906E+03 0.16196220E+03 0.32000000E+00 0.0000E+00 0.9000E+01
       -1  1    1    2    0  501 -.51361890E+03 0.47426945E+02 -.10413460E+04 0.11620909E+04 0.32000000E+00 0.0000E+00 0.9000E+01
#aMCatNLO 1  0  0  2  1 0.24101756D+03 0.00000000D+00  -5  6  0 0.00000000D+00 0.00000000D+00 0.00000000D+00 0.00000000D+00 0.00000000D+00
  <mgrwgt>
 0.2333500746D-02    7    4    0
 0.922430671360489D+03 0.000000000000000D+00 0.000000000000000D+00 0.922430671360489D+03
 0.922430671360489D+03 0.000000000000000D+00 0.000000000000000D+00 -.922430671360489D+03
 0.755944012142241D+03 0.571563466258622D+03 -.564026057151774D+02 0.475352815917478D+03
 0.225157613837629D+03 -.578478751798985D+02 0.896619463272468D+01 0.217414768955639D+03
 0.863759716741107D+03 -.513715591078724D+03 0.474364110824527D+02 -.692767584873117D+03
 0.000000000000000D+00 -.000000000000000D+00 0.000000000000000D+00 -.000000000000000D+00
 0.968187076861426D+03 0.000000000000000D+00 0.000000000000000D+00 0.968187076861426D+03
 0.131326400120600D+04 0.000000000000000D+00 0.000000000000000D+00 -.131326400120600D+04
 0.827889192186977D+03 0.656159217013178D+03 -.115196774555464D+03 0.475352815917478D+03
 0.220196617938964D+03 -.340606004303360D+02 -.756599564162854D+01 0.217414768955639D+03
 0.812452509844833D+03 -.424185688975139D+03 -.147870000650519D+02 -.692767584873117D+03
 0.420912758096654D+03 -.197912927607703D+03 0.137549770262145D+03 -.345076924344576D+03
 0.922430671360489D+03 0.000000000000000D+00 0.000000000000000D+00 0.922430671360489D+03
 0.922430671360489D+03 0.000000000000000D+00 0.000000000000000D+00 -.922430671360489D+03
 0.755944012142241D+03 0.571563466258622D+03 -.564026057151774D+02 0.475352815917478D+03
 0.225157613837629D+03 -.578478751798985D+02 0.896619463272468D+01 0.217414768955639D+03
 0.000000000000000D+00 -.000000000000000D+00 0.000000000000000D+00 -.000000000000000D+00
 0.863759716741107D+03 -.513715591078724D+03 0.474364110824527D+02 -.692767584873117D+03
 0.968187076861426D+03 0.000000000000000D+00 0.000000000000000D+00 0.968187076861426D+03
 0.131326400120600D+04 0.000000000000000D+00 0.000000000000000D+00 -.131326400120600D+04
 0.827889192186977D+03 0.656159217013178D+03 -.115196774555464D+03 0.475352815917478D+03
 0.220196617938964D+03 -.340606004303360D+02 -.756599564162854D+01 0.217414768955639D+03
 0.420912758096654D+03 -.197912927607703D+03 0.137549770262145D+03 -.345076924344576D+03
 0.812452509844833D+03 -.424185688975139D+03 -.147870000650519D+02 -.692767584873117D+03
0.166509830441D-02 0.000000000000D+00 0.000000000000D+00 0.659234505718D-05 0.000000000000D+00  6 2 -2 25 1 -1 21 0 0.10024382D+00 0.20090148D+00 0.33769148D+06 0.33769148D+06 0.33769148D+06 0.10807695D+01  1  2  2  2  6  2       -2 0.113969485860D-02 0.100000000000D+01
0.340569401514D-03 0.000000000000D+00 -.639441591939D-05 0.659234505718D-05 0.000000000000D+00  6 2 -2 25 1 -1 21 2 0.10024382D+00 0.20090148D+00 0.33769148D+06 0.33769148D+06 0.33769148D+06 0.10807695D+01  1  2  3  2  6  2       -2 0.272282988612D-03 0.100000000000D+01
-.112926034491D-02 0.000000000000D+00 0.000000000000D+00 0.659234505718D-05 0.000000000000D+00  6 2 -2 25 1 -1 21 2 0.10024382D+00 0.20090148D+00 0.33769148D+06 0.33769148D+06 0.33769148D+06 0.10807695D+01  1  2 15  2  6  2       -2 -.902836192172D-03 0.100000000000D+01
-.146571923812D-02 0.000000000000D+00 0.000000000000D+00 0.659234505718D-05 0.000000000000D+00  6 2 -2 25 1 -1 21 2 0.10024382D+00 0.20090148D+00 0.33769148D+06 0.33769148D+06 0.33769148D+06 0.10807695D+01  1  2  4  2  6  2       -2 -.117183285653D-02 0.100000000000D+01
-.538607189656D-02 0.000000000000D+00 -.119307526327D-02 0.659234505718D-05 0.000000000000D+00  6 2 -2 25 1 -1 21 2 0.10024382D+00 0.29104839D+00 0.33769148D+06 0.33769148D+06 0.33769148D+06 0.10807695D+01  1  2  5  2  6  2       -2 -.111228790278D-02 0.100000000000D+01
0.552210320930D-02 0.000000000000D+00 0.111555516216D-02 0.659234505718D-05 0.000000000000D+00  6 2 -2 25 1 -1 21 2 0.10024382D+00 0.20090148D+00 0.33769148D+06 0.33769148D+06 0.33769148D+06 0.10807695D+01  1  2  6  2  6  2       -2 0.441488506769D-02 0.100000000000D+01
-.205889280935D-03 0.000000000000D+00 -.537233026627D-04 0.659234505718D-05 0.000000000000D+00  6 2 21 25 1 2 -1 2 0.10024382D+00 0.29104839D+00 0.33769148D+06 0.33769148D+06 0.33769148D+06 0.10807695D+01  3  4  5  6  5  2       -2 -.306405217756D-03 0.100000000000D+01
  </mgrwgt>
  </event>
  <event>
  5     66 0.18881543E-05 0.38535593E+02 0.75467711E-02 0.93270424E-01
        2 -1    0    0  502    0 0.00000000E+00 0.00000000E+00 0.12274301E+04 0.12274301E+04 0.32000000E+00 0.0000E+00 0.9000E+01
       -2 -1    0    0    0  501 0.00000000E+00 0.00000000E+00 -.66521924E+03 0.66521931E+03 0.32000000E+00 0.0000E+00 0.9000E+01
       25  1    1    2    0    0 0.47529432E+03 -.25561191E+03 0.22806970E+03 0.59906838E+03 0.12500000E+03 0.0000E+00 0.9000E+01
        1  1    1    2  502    0 -.43677476E+03 0.25471145E+03 0.73431628E+03 0.89155517E+03 0.32000000E+00 0.0000E+00 0.9000E+01
       -1  1    1    2    0  501 -.38519555E+02 0.90045989E+00 -.40017514E+03 0.40202588E+03 0.32000000E+00 0.0000E+00 0.9000E+01
#aMCatNLO 1  0  0  5  4 0.25041053D+02 0.00000000D+00  -5  6  0 0.00000000D+00 0.00000000D+00 0.00000000D+00 0.00000000D+00 0.00000000D+00
  <mgrwgt>
 0.1954042550D-02    7    2    0
 0.903609545198028D+03 0.000000000000000D+00 0.000000000000000D+00 0.903609545198028D+03
 0.903609545198028D+03 -.000000000000000D+00 -.000000000000000D+00 -.903609545198028D+03
 0.556415967126798D+03 0.475267850985582D+03 -.255593533693880D+03 0.525941425167453D+02
 0.705209111774797D+03 -.436742786750997D+03 0.254692798266099D+03 0.491637272857292D+03
 0.545594011494461D+03 -.385250642345855D+02 0.900735427780864D+00 -.544231415374037D+03
 0.000000000000000D+00 -.000000000000000D+00 0.000000000000000D+00 0.000000000000000D+00
 0.903609545198028D+03 0.000000000000000D+00 0.000000000000000D+00 0.903609545198028D+03
 0.903609545198028D+03 -.000000000000000D+00 -.000000000000000D+00 -.903609545198028D+03
 0.555642498708610D+03 0.474905813572873D+03 -.255585069076616D+03 0.474797543268312D+02
 0.701005142328587D+03 -.437200588373764D+03 0.254703501898882D+03 0.485170053916360D+03
 0.522967425828259D+03 -.359167755852013D+02 0.258847027264693D+02 -.521090103411838D+03
 0.276040235306001D+02 -.178844961390887D+01 -.250031355487355D+02 -.115597048313524D+02
0.884662578597D-03 0.000000000000D+00 0.000000000000D+00 0.435505634617D-04 0.000000000000D+00  6 2 -2 25 1 -1 21 0 0.18883541D+00 0.10234143D+00 0.30142397D+06 0.30142397D+06 0.30142397D+06 0.10843997D+01  1  2  2  4  6  5       -1 0.162228034703D-02 0.100000000000D+01
0.449473129902D-03 0.000000000000D+00 -.339733723882D-05 0.435505634617D-04 0.000000000000D+00  6 2 -2 25 1 -1 21 2 0.18883541D+00 0.10234143D+00 0.30142397D+06 0.30142397D+06 0.30142397D+06 0.10843997D+01  1  2  3  4  6  5       -1 0.969238820150D-03 0.100000000000D+01
-.608012903259D-03 0.000000000000D+00 0.000000000000D+00 0.435505634617D-04 0.000000000000D+00  6 2 -2 25 1 -1 21 2 0.18883541D+00 0.10234143D+00 0.30142397D+06 0.30142397D+06 0.30142397D+06 0.10843997D+01  1  2 15  4  6  5       -1 -.131111221069D-02 0.100000000000D+01
0.255653283088D-09 0.000000000000D+00 0.000000000000D+00 0.435505634617D-04 0.000000000000D+00  6 2 -2 25 1 -1 21 2 0.18883541D+00 0.10234143D+00 0.31862182D+06 0.31862182D+06 0.31862182D+06 0.10826221D+01  1  2 12  4  6  5       -1 0.547926945713D-09 0.100000000000D+01
-.639734097068D-04 0.000000000000D+00 0.000000000000D+00 0.435505634617D-04 0.000000000000D+00  6 2 -2 25 1 -1 21 2 0.18883541D+00 0.10234143D+00 0.30142397D+06 0.30142397D+06 0.30142397D+06 0.10843997D+01  1  2  4  4  6  5       -1 -.137951543752D-03 0.100000000000D+01
-.725553845708D-02 0.000000000000D+00 0.000000000000D+00 0.435505634617D-04 0.000000000000D+00  6 2 -2 25 1 -1 21 2 0.18883541D+00 0.10234143D+00 0.30142397D+06 0.30142397D+06 0.30142397D+06 0.10843997D+01  1  2  5  4  6  5       -1 -.156457618172D-01 0.100000000000D+01
0.763190221489D-02 0.000000000000D+00 -.000000000000D+00 0.435505634617D-04 0.000000000000D+00  6 2 -2 25 1 -1 21 2 0.18883541D+00 0.10234143D+00 0.30142397D+06 0.30142397D+06 0.30142397D+06 0.10843997D+01  1  2  6  4  6  5       -1 0.164573484067D-01 0.100000000000D+01
  </mgrwgt>
  </event>
  <event>
  5     66 0.18881543E-05 0.22422235E+02 0.75467711E-02 0.92544012E-01
        2 -1    0    0  502    0 0.00000000E+00 0.00000000E+00 0.54795473E+03 0.54795482E+03 0.32000000E+00 0.0000E+00 0.9000E+01
       -2 -1    0    0    0  501 -.00000000E+00 -.00000000E+00 -.10805787E+04 0.10805787E+04 0.32000000E+00 0.0000E+00 0.9000E+01
       25  1    1    2    0    0 0.23826524E+03 -.54071261E+03 -.25361018E+03 0.65504472E+03 0.12500000E+03 0.0000E+00 0.9000E+01
        1  1    1    2  502    0 -.21608425E+03 0.53744991E+03 0.10510125E+03 0.58871995E+03 0.32000000E+00 0.0000E+00 0.9000E+01
       -1  1    1    2    0  501 -.22180990E+02 0.32627085E+01 -.38411499E+03 0.38476885E+03 0.32000000E+00 0.0000E+00 0.9000E+01
#aMCatNLO 1  0  0  5  2 0.34242049D+01 0.00000000D+00  -5  6  0 0.00000000D+00 0.00000000D+00 0.00000000D+00 0.00000000D+00 0.00000000D+00
  <mgrwgt>
 0.2626838233D-02    9    2    0
 0.769485733751096D+03 0.000000000000000D+00 0.000000000000000D+00 0.769485733751096D+03
 0.769485733751096D+03 -.000000000000000D+00 -.000000000000000D+00 -.769485733751096D+03
 0.605373096679314D+03 0.238260700789144D+03 -.540695732526988D+03 -.416118909648577D+02
 0.659334132915269D+03 -.216077210859932D+03 0.537432388953484D+03 0.314958037011082D+03
 0.274264237907610D+03 -.221834899292127D+02 0.326334357350449D+01 -.273346146046224D+03
 0.000000000000000D+00 0.000000000000000D+00 0.000000000000000D+00 -.000000000000000D+00
 0.769485733751096D+03 0.000000000000000D+00 0.000000000000000D+00 0.769485733751096D+03
 0.769485733751096D+03 -.000000000000000D+00 -.000000000000000D+00 -.769485733751096D+03
 0.605374065209277D+03 0.238257696669201D+03 -.540695290600333D+03 -.416489078910250D+02
 0.659316339935897D+03 -.216080482710826D+03 0.537432870265199D+03 0.314917721089863D+03
 0.950385574887853D+02 -.833917405299845D+01 0.448935177629609D+01 -.945654868664653D+02
 0.179242504868234D+03 -.138380399053766D+02 -.122693144116239D+01 -.178703326332373D+03
0.417863323739D-04 0.000000000000D+00 0.000000000000D+00 0.886887685034D-05 0.000000000000D+00  6 2 -2 25 1 -1 21 0 0.84300738D-01 0.16624288D+00 0.36337200D+06 0.36337200D+06 0.36337200D+06 0.10784473D+01  1  2  2  4  6  5       -1 0.617232257930D-04 0.100000000000D+01
0.245390982032D-04 0.000000000000D+00 -.160470518910D-06 0.886887685034D-05 0.000000000000D+00  6 2 -2 25 1 -1 21 2 0.84300738D-01 0.16624288D+00 0.36337200D+06 0.36337200D+06 0.36337200D+06 0.10784473D+01  1  2  3  4  6  5       -1 0.421571099245D-04 0.100000000000D+01
-.275345936517D-04 0.000000000000D+00 0.000000000000D+00 0.886887685034D-05 0.000000000000D+00  6 2 -2 25 1 -1 21 2 0.84300738D-01 0.16624288D+00 0.36337200D+06 0.36337200D+06 0.36337200D+06 0.10784473D+01  1  2 15  4  6  5       -1 -.473032416142D-04 0.100000000000D+01
0.727719987799D-09 0.000000000000D+00 0.000000000000D+00 0.886887685034D-05 0.000000000000D+00  6 2 -2 25 1 -1 21 2 0.84300738D-01 0.16624288D+00 0.36393945D+06 0.36393945D+06 0.36393945D+06 0.10783980D+01  1  2 12  4  6  5       -1 0.124999121193D-08 0.100000000000D+01
0.235111396637D-03 0.000000000000D+00 0.000000000000D+00 0.886887685034D-05 0.000000000000D+00  6 2 -2 25 1 -1 21 2 0.84300738D-01 0.16624288D+00 0.36393945D+06 0.36393945D+06 0.36393945D+06 0.10783980D+01  1  2 12  4  6  5       -1 0.403846513147D-03 0.100000000000D+01
-.130823345569D-01 0.000000000000D+00 0.000000000000D+00 0.886887685034D-05 0.000000000000D+00  6 2 -2 25 1 -1 21 2 0.84300738D-01 0.16624288D+00 0.36337200D+06 0.36337200D+06 0.36337200D+06 0.10784473D+01  1  2  4  4  6  5       -1 -.224748852389D-01 0.100000000000D+01
-.640709203848D-02 0.000000000000D+00 0.000000000000D+00 0.886887685034D-05 0.000000000000D+00  6 2 -2 25 1 -1 21 2 0.84300738D-01 0.16624288D+00 0.36337200D+06 0.36337200D+06 0.36337200D+06 0.10784473D+01  1  2  5  4  6  5       -1 -.110071071531D-01 0.100000000000D+01
0.139717407311D-01 0.000000000000D+00 -.000000000000D+00 0.886887685034D-05 0.000000000000D+00  6 2 -2 25 1 -1 21 2 0.84300738D-01 0.16624288D+00 0.36337200D+06 0.36337200D+06 0.36337200D+06 0.10784473D+01  1  2  6  4  6  5       -1 0.240028465986D-01 0.100000000000D+01
0.677981260659D-02 0.000000000000D+00 0.000000000000D+00 0.886887685034D-05 0.101627937386D-05  6 2 -2 25 1 -1 21 2 0.84300738D-01 0.16624288D+00 0.36393945D+06 0.36393945D+06 0.36393945D+06 0.10783980D+01  1  2 11  4  6  5       -1 0.116455591695D-01 0.100000000000D+01
  </mgrwgt>
  </event>
  <event>
  5     66 0.18881543E-05 0.88877661E+02 0.75467711E-02 0.90943454E-01
        2 -1    0    0  502    0 0.00000000E+00 0.00000000E+00 0.20306445E+04 0.20306445E+04 0.32000000E+00 0.0000E+00 0.9000E+01
       -2 -1    0    0    0  501 0.00000000E+00 0.00000000E+00 -.92321832E+03 0.92321838E+03 0.32000000E+00 0.0000E+00 0.9000E+01
       25  1    1    2    0    0 -.40207678E+03 -.37192850E+03 0.47945290E+02 0.56384421E+03 0.12500000E+03 0.0000E+00 0.9000E+01
        1  1    1    2  502    0 0.46430769E+03 0.43537668E+03 0.16626589E+04 0.17803284E+04 0.32000000E+00 0.0000E+00 0.9000E+01
       -1  1    1    2    0  501 -.62230913E+02 -.63448173E+02 -.60317805E+03 0.60969026E+03 0.32000000E+00 0.0000E+00 0.9000E+01
#aMCatNLO 1  0  0  5  1 0.95336880D+02 0.00000000D+00  -5  6  0 0.00000000D+00 0.00000000D+00 0.00000000D+00 0.00000000D+00 0.00000000D+00
  <mgrwgt>
 0.3538581557D-02    6    2    0
 0.136920717466751D+04 0.000000000000000D+00 0.000000000000000D+00 0.136920717466751D+04
 0.136920717466751D+04 -.000000000000000D+00 -.000000000000000D+00 -.136920717466751D+04
 0.588788559422288D+03 -.402067988037730D+03 -.371919945669649D+03 -.176249410537881D+03
 0.124799763056748D+04 0.464302355728710D+03 0.435371676098897D+03 0.107348633527290D+04
 0.901628159345256D+03 -.622343676909801D+02 -.634517304292475D+02 -.897236924735018D+03
 0.000000000000000D+00 0.000000000000000D+00 -.000000000000000D+00 0.000000000000000D+00
 0.136920717466751D+04 0.000000000000000D+00 0.000000000000000D+00 0.136920717466751D+04
 0.136920717466751D+04 -.000000000000000D+00 -.000000000000000D+00 -.136920717466751D+04
 0.590509789284173D+03 -.402370586761614D+03 -.372228463509044D+03 -.180611996011474D+03
 0.123962362940681D+04 0.463664051588285D+03 0.434720886129418D+03 0.106428386298549D+04
 0.433387083370965D+03 -.355937780488824D+02 0.651619511303519D+02 -.426979352102516D+03
 0.474893847273069D+03 -.256996867777876D+02 -.127654373750725D+03 -.456692514871495D+03
0.441717812914D-02 0.000000000000D+00 0.000000000000D+00 0.490290861548D-04 0.000000000000D+00  6 2 -2 25 1 -1 21 0 0.31240684D+00 0.14203359D+00 0.41419663D+06 0.41419663D+06 0.41419663D+06 0.10743374D+01  1  2  2  4  6  5       -1 0.122958558922D-02 0.100000000000D+01
0.135374778015D-02 0.000000000000D+00 -.169631270856D-04 0.490290861548D-04 0.000000000000D+00  6 2 -2 25 1 -1 21 2 0.31240684D+00 0.14203359D+00 0.41419663D+06 0.41419663D+06 0.41419663D+06 0.10743374D+01  1  2  3  4  6  5       -1 0.434943670644D-03 0.100000000000D+01
-.332521486708D-02 0.000000000000D+00 0.000000000000D+00 0.490290861548D-04 0.000000000000D+00  6 2 -2 25 1 -1 21 2 0.31240684D+00 0.14203359D+00 0.41419663D+06 0.41419663D+06 0.41419663D+06 0.10743374D+01  1  2 15  4  6  5       -1 -.106835348592D-02 0.100000000000D+01
-.839611347203D-03 0.000000000000D+00 0.000000000000D+00 0.490290861548D-04 0.000000000000D+00  6 2 -2 25 1 -1 21 2 0.31240684D+00 0.14203359D+00 0.41419663D+06 0.41419663D+06 0.41419663D+06 0.10743374D+01  1  2  4  4  6  5       -1 -.269757518072D-03 0.100000000000D+01
-.157698585499D-01 0.000000000000D+00 0.000000000000D+00 0.490290861548D-04 0.000000000000D+00  6 2 -2 25 1 -1 21 2 0.31240684D+00 0.14203359D+00 0.41419663D+06 0.41419663D+06 0.41419663D+06 0.10743374D+01  1  2  5  4  6  5       -1 -.506667509549D-02 0.100000000000D+01
0.257676105163D-01 0.000000000000D+00 -.000000000000D+00 0.490290861548D-04 0.000000000000D+00  6 2 -2 25 1 -1 21 2 0.31240684D+00 0.14203359D+00 0.41419663D+06 0.41419663D+06 0.41419663D+06 0.10743374D+01  1  2  6  4  6  5       -1 0.827883839670D-02 0.100000000000D+01
  </mgrwgt>
  </event>
  <event>
  6     66 0.18881543E-05 0.13460181E+02 0.75467711E-02 0.92156650E-01
        2 -1    0    0  503    0 0.00000000E+00 0.00000000E+00 0.22745986E+04 0.22745987E+04 0.32000000E+00 0.0000E+00 0.9000E+01
       -2 -1    0    0    0  501 0.00000000E+00 0.00000000E+00 -.34929981E+03 0.34929996E+03 0.32000000E+00 0.0000E+00 0.9000E+01
       25  1    1    2    0    0 0.60430936E+03 0.29326430E+01 0.39127090E+03 0.73069578E+03 0.12500000E+03 0.0000E+00 0.9000E+01
        1  1    1    2  502    0 -.60661511E+03 0.62436536E+01 0.15579419E+04 0.16718864E+04 0.32000000E+00 0.0000E+00 0.9000E+01
       -1  1    1    2    0  501 0.81052890E+01 -.16002281E+02 -.12175186E+03 0.12306659E+03 0.32000000E+00 0.0000E+00 0.9000E+01
       21  1    1    2  503  502 -.57995417E+01 0.68259844E+01 0.97837857E+02 0.98249873E+02 0.75000000E+00 0.0000E+00 0.9000E+01
#aMCatNLO 2  0  0  1  4 0.89570501D+01 0.00000000D+00  -5  6  0 0.00000000D+00 0.00000000D+00 0.00000000D+00 0.00000000D+00 0.00000000D+00
  <mgrwgt>
 0.1423979050D-02    6    2    0
 0.871666184000123D+03 0.000000000000000D+00 0.000000000000000D+00 0.871666184000123D+03
 0.871666184000123D+03 0.000000000000000D+00 0.000000000000000D+00 -.871666184000123D+03
 0.646429613076486D+03 0.602149991672340D+03 0.546847368198331D+01 -.199077191026007D+03
 0.791052745556791D+03 -.609237826991669D+03 0.933691027594664D+01 0.504486410641461D+03
 0.305850009366970D+03 0.708783531932966D+01 -.148053839579299D+02 -.305409219615453D+03
 0.000000000000000D+00 -.000000000000000D+00 0.000000000000000D+00 0.000000000000000D+00
 0.910939101165340D+03 0.000000000000000D+00 0.000000000000000D+00 0.910939101165340D+03
 0.872188551599371D+03 0.000000000000000D+00 0.000000000000000D+00 -.872188551599371D+03
 0.648419905186074D+03 0.604303764647076D+03 0.293351122077542D+01 -.199077191026007D+03
 0.788999877300793D+03 -.606609664730514D+03 0.624359786459292D+01 0.504486410641461D+03
 0.305935595531113D+03 0.810544183157554D+01 -.160030934375650D+02 -.305409219615453D+03
 0.397722747467308D+02 -.579954174813763D+01 0.682598435219668D+01 0.387505495659689D+02
-.450852292030D-08 0.000000000000D+00 0.000000000000D+00 0.225278582547D-04 0.000000000000D+00  6 2 -2 25 1 -1 21 2 0.35003474D+00 0.53706043D-01 0.39102572D+06 0.39102572D+06 0.39102572D+06 0.10761388D+01  1  2 13  1  6  1        2 -.103334687791D-07 0.100000000000D+01
-.758842429968D-02 0.000000000000D+00 0.000000000000D+00 0.225278582547D-04 0.000000000000D+00  6 2 -2 25 1 -1 21 2 0.35055495D+00 0.53706043D-01 0.39102572D+06 0.39102572D+06 0.39102572D+06 0.10761388D+01  1  2 13  1  6  1        2 -.173162376235D-01 0.100000000000D+01
-.170837957067D-01 0.000000000000D+00 0.000000000000D+00 0.225278582547D-04 0.000000000000D+00  6 2 -2 25 1 -1 21 2 0.33485017D+00 0.53706043D-01 0.38485627D+06 0.38485627D+06 0.38485627D+06 0.10766380D+01  1  2  8  1  6  1        2 -.445705406156D-01 0.100000000000D+01
-.114406467521D-01 0.000000000000D+00 0.000000000000D+00 0.225278582547D-04 0.000000000000D+00  6 2 -2 25 1 -1 21 2 0.35000412D+00 0.53706043D-01 0.38485627D+06 0.38485627D+06 0.38485627D+06 0.10766380D+01  1  2  9  1  6  1        2 -.262783185019D-01 0.100000000000D+01
0.114294491979D-01 0.000000000000D+00 0.000000000000D+00 0.225278582547D-04 0.000000000000D+00  6 2 -2 25 1 -1 21 2 0.33485017D+00 0.53706043D-01 0.38485627D+06 0.38485627D+06 0.38485627D+06 0.10766380D+01  1  2 10  1  6  1        2 0.298187088183D-01 0.100000000000D+01
0.260880289490D-01 0.000000000000D+00 0.000000000000D+00 0.225278582547D-04 0.225044691744D-05  6 2 -2 25 1 -1 21 2 0.34993685D+00 0.53738228D-01 0.39102572D+06 0.39102572D+06 0.39102572D+06 0.10761388D+01  1  2  1  1  6  1        2 0.597703773057D-01 0.100000000000D+01
  </mgrwgt>
  </event>
  <event>
  5     66 0.18881543E-05 0.49864743E+02 0.75467711E-02 0.94341394E-01
        2 -1    0    0  502    0 0.00000000E+00 0.00000000E+00 0.43603573E+03 0.43603585E+03 0.32000000E+00 0.0000E+00 0.9000E+01
       -2 -1    0    0    0  501 -.00000000E+00 -.00000000E+00 -.11276813E+04 0.11276814E+04 0.32000000E+00 0.0000E+00 0.9000E+01
       25  1    1    2    0    0 0.39056277E+03 -.25390748E+03 -.53202191E+02 0.48524609E+03 0.12500000E+03 0.0000E+00 0.9000E+01
        1  1    1    2  502    0 -.42879433E+02 0.25517635E+02 0.16572831E+03 0.17307736E+03 0.32000000E+00 0.0000E+00 0.9000E+01
       -1  1    1    2    0  501 -.34768334E+03 0.22838985E+03 -.80417172E+03 0.90539378E+03 0.32000000E+00 0.0000E+00 0.9000E+01
#aMCatNLO 1  0  0  4  1 0.12703340D+03 0.00000000D+00  -5  6  0 0.00000000D+00 0.00000000D+00 0.00000000D+00 0.00000000D+00 0.00000000D+00
  <mgrwgt>
 0.5918826469D-02    6    2    0
 0.701219992774435D+03 0.000000000000000D+00 0.000000000000000D+00 0.701219992774435D+03
 0.701219992774435D+03 -.000000000000000D+00 -.000000000000000D+00 -.701219992774435D+03
 0.514930671913594D+03 0.390617813787182D+03 -.253944952394212D+03 0.180161820547554D+03
 0.274531118727501D+03 -.428509820029816D+02 0.255007036605291D+02 0.269964521009653D+03
 0.612978194907774D+03 -.347766831784201D+03 0.228444248733683D+03 -.450126341557207D+03
 0.000000000000000D+00 0.000000000000000D+00 0.000000000000000D+00 0.000000000000000D+00
 0.701219992774435D+03 0.000000000000000D+00 0.000000000000000D+00 0.701219992774435D+03
 0.701219992774435D+03 -.000000000000000D+00 -.000000000000000D+00 -.701219992774435D+03
 0.517658317862906D+03 0.388412408213387D+03 -.252632511200106D+03 0.194056047273099D+03
 0.929121741173800D+02 -.677640067380537D+02 -.233628288797189D+02 0.591175922781056D+02
 0.603158586354970D+03 -.350364259088238D+03 0.229989982830405D+03 -.433762347426497D+03
 0.188710907213614D+03 0.297158576129050D+02 0.460053572494194D+02 0.180588707875293D+03
0.359837482028D-02 0.000000000000D+00 0.000000000000D+00 0.156330561607D-04 0.000000000000D+00  6 2 -2 25 1 -1 21 0 0.67082432D-01 0.17348945D+00 0.22483574D+06 0.22483574D+06 0.22483574D+06 0.10939423D+01  1  2  2  3  6  4        1 0.621168597574D-02 0.100000000000D+01
0.976283034049D-03 0.000000000000D+00 -.138187067837D-04 0.156330561607D-04 0.000000000000D+00  6 2 -2 25 1 -1 21 2 0.67082432D-01 0.17348945D+00 0.22483574D+06 0.22483574D+06 0.22483574D+06 0.10939423D+01  1  2  3  3  6  4        1 0.201682248092D-02 0.100000000000D+01
-.249531913373D-02 0.000000000000D+00 0.000000000000D+00 0.156330561607D-04 0.000000000000D+00  6 2 -2 25 1 -1 21 2 0.67082432D-01 0.17348945D+00 0.22483574D+06 0.22483574D+06 0.22483574D+06 0.10939423D+01  1  2 15  3  6  4        1 -.515487368976D-02 0.100000000000D+01
-.199232741696D-03 0.000000000000D+00 0.000000000000D+00 0.156330561607D-04 0.000000000000D+00  6 2 -2 25 1 -1 21 2 0.67082432D-01 0.17348945D+00 0.22483574D+06 0.22483574D+06 0.22483574D+06 0.10939423D+01  1  2  4  3  6  4        1 -.411578464825D-03 0.100000000000D+01
-.139723529112D-02 0.000000000000D+00 0.000000000000D+00 0.156330561607D-04 0.000000000000D+00  6 2 -2 25 1 -1 21 2 0.67082432D-01 0.17348945D+00 0.22483574D+06 0.22483574D+06 0.22483574D+06 0.10939423D+01  1  2  5  3  6  4        1 -.288643297896D-02 0.100000000000D+01
0.297373966363D-02 0.000000000000D+00 -.000000000000D+00 0.156330561607D-04 0.000000000000D+00  6 2 -2 25 1 -1 21 2 0.67082432D-01 0.17348945D+00 0.22483574D+06 0.22483574D+06 0.22483574D+06 0.10939423D+01  1  2  6  3  6  4        1 0.614320314586D-02 0.100000000000D+01
  </mgrwgt>
  </event>
  <event>
  6     66 0.18881543E-05 0.39281073E+02 0.75467711E-02 0.93714106E-01
        2 -1    0    0  502    0 0.00000000E+00 0.00000000E+00 0.13116016E+04 0.13116016E+04 0.32000000E+00 0.0000E+00 0.9000E+01
       -2 -1    0    0    0  501 0.00000000E+00 0.00000000E+00 -.11877855E+04 0.11877855E+04 0.32000000E+00 0.0000E+00 0.9000E+01
       25  1    1    2    0    0 0.36933002E+03 0.34113715E+03 -.20648344E+03 0.55770927E+03 0.12500000E+03 0.0000E+00 0.9000E+01
        1  1    1    2  502    0 0.31205960E+02 0.10478717E+02 0.10451390E+04 0.10456573E+04 0.32000000E+00 0.0000E+00 0.9000E+01
       -1  1    1    2    0  503 -.12216779E+03 -.92736827E+02 -.27318425E+03 0.31329671E+03 0.32000000E+00 0.0000E+00 0.9000E+01
       21  1    1    2  503  501 -.27836819E+03 -.25887904E+03 -.44165519E+03 0.58272384E+03 0.75000000E+00 0.0000E+00 0.9000E+01
#aMCatNLO 2  0  0  5  2 0.42083459D+02 0.00000000D+00  -5  6  0 0.00000000D+00 0.00000000D+00 0.00000000D+00 0.00000000D+00 0.00000000D+00
  <mgrwgt>
 0.5466763437D-02    1    2    0
 0.124815920771446D+04 0.000000000000000D+00 0.000000000000000D+00 0.124815920771446D+04
 0.124815920771446D+04 -.000000000000000D+00 -.000000000000000D+00 -.124815920771446D+04
 0.568814710767224D+03 0.369759370553461D+03 0.341514075877885D+03 -.233605049282723D+03
 0.996481518991111D+03 0.319266366632536D+02 0.111117247929672D+02 0.995907946114665D+03
 0.931022185670587D+03 -.401686007216715D+03 -.352625800670852D+03 -.762302896831942D+03
 0.000000000000000D+00 0.000000000000000D+00 -.000000000000000D+00 0.000000000000000D+00
 0.124815920771446D+04 0.000000000000000D+00 0.000000000000000D+00 0.124815920771446D+04
 0.124815920771446D+04 -.000000000000000D+00 -.000000000000000D+00 -.124815920771446D+04
 0.568651767845018D+03 0.369347738531105D+03 0.341152718825716D+03 -.234386227310918D+03
 0.995084832811845D+03 0.312059187340092D+02 0.104790322612591D+02 0.994540197785395D+03
 0.326853306725145D+03 -.122022848173866D+03 -.926199170574995D+02 -.288730080879982D+03
 0.605728508046914D+03 -.278530809091248D+03 -.259011834029475D+03 -.471423889594494D+03
0.133933453905D-01 0.000000000000D+00 0.000000000000D+00 0.231342320987D-03 0.131288088315D-06  6 2 -2 25 1 -1 21 2 0.20178486D+00 0.18273623D+00 0.29406869D+06 0.29406869D+06 0.29406869D+06 0.10851941D+01  1  2  1  4  6  5       -1 0.546676343708D-02 0.100000000000D+01
  </mgrwgt>
  </event>
  <event>
  6     66 0.18881543E-05 0.74057443E+02 0.75467711E-02 0.90690193E-01
        2 -1    0    0  502    0 0.00000000E+00 0.00000000E+00 0.21238214E+04 0.21238214E+04 0.32000000E+00 0.0000E+00 0.9000E+01
       -2 -1    0    0    0  501 -.00000000E+00 -.00000000E+00 -.23235891E+04 0.23235891E+04 0.32000000E+00 0.0000E+00 0.9000E+01
       25  1    1    2    0    0 0.62861921E+03 -.29857281E+03 0.57921214E+03 0.91401287E+03 0.12500000E+03 0.0000E+00 0.9000E+01
        1  1    1    2  503    0 -.45772387E+03 0.31162292E+03 0.10220744E+04 0.11624355E+04 0.32000000E+00 0.0000E+00 0.9000E+01
       -1  1    1    2    0  501 -.98907549E+02 -.27676930E+02 -.20799852E+04 0.20825194E+04 0.32000000E+00 0.0000E+00 0.9000E+01
       21  1    1    2  502  503 -.71987787E+02 0.14626813E+02 0.27893089E+03 0.28844270E+03 0.75000000E+00 0.0000E+00 0.9000E+01
#aMCatNLO 2  0  0  4  1 0.63480133D+02 0.00000000D+00  -5  6  0 0.00000000D+00 0.00000000D+00 0.00000000D+00 0.00000000D+00 0.00000000D+00
  <mgrwgt>
 0.8603776188D-03    3    2    0
 0.222146083698538D+04 0.000000000000000D+00 0.000000000000000D+00 0.222146083698538D+04
 0.222146083698538D+04 -.000000000000000D+00 -.000000000000000D+00 -.222146083698538D+04
 0.940653589655808D+03 0.629153847471363D+03 -.298881060846749D+03 0.619709386254122D+03
 0.150764585964491D+04 -.531556928111821D+03 0.327386239033563D+03 0.137231975893821D+04
 0.199462222467004D+04 -.975969193595415D+02 -.285051781868146D+02 -.199202914519233D+04
 0.000000000000000D+00 0.000000000000000D+00 0.000000000000000D+00 0.000000000000000D+00
 0.222146083698538D+04 0.000000000000000D+00 0.000000000000000D+00 0.222146083698538D+04
 0.222146083698538D+04 -.000000000000000D+00 -.000000000000000D+00 -.222146083698538D+04
 0.941182034960631D+03 0.628523814182484D+03 -.298493022956537D+03 0.621335942292416D+03
 0.120916904135478D+04 -.457588243469192D+03 0.311543624691742D+03 0.107500853016316D+04
 0.199123581082510D+04 -.989313734501417D+02 -.276832870914686D+02 -.198858398698053D+04
 0.301334786830245D+03 -.720041972631508D+02 0.146326853562637D+02 0.292239514524957D+03
-.540794940323D-10 0.000000000000D+00 0.000000000000D+00 0.238228061015D-03 0.000000000000D+00  6 2 -2 25 1 -1 21 2 0.32674175D+00 0.35747525D+00 0.51604425D+06 0.51604425D+06 0.51604425D+06 0.10675423D+01  1  2 13  3  6  4        1 -.508585357589D-12 0.100000000000D+01
-.825704472466D-01 0.000000000000D+00 0.000000000000D+00 0.238228061015D-03 0.000000000000D+00  6 2 -2 25 1 -1 21 2 0.32674175D+00 0.35747525D+00 0.51604425D+06 0.51604425D+06 0.51604425D+06 0.10675423D+01  1  2 13  3  6  4        1 -.776525764352D-03 0.100000000000D+01
0.174057128166D+00 0.000000000000D+00 0.000000000000D+00 0.238228061015D-03 0.666393747561D-06  6 2 -2 25 1 -1 21 2 0.32674175D+00 0.35747525D+00 0.51604425D+06 0.51604425D+06 0.51604425D+06 0.10675423D+01  1  2  1  3  6  4        1 0.163690338368D-02 0.100000000000D+01
  </mgrwgt>
  </event>
  <event>
  5     66 0.18881543E-05 0.57322363E+02 0.75467711E-02 0.94444329E-01
        2 -1    0    0  502    0 0.00000000E+00 0.00000000E+00 0.24148480E+04 0.24148480E+04 0.32000000E+00 0.0000E+00 0.9000E+01
       -2 -1    0    0    0  501 0.00000000E+00 0.00000000E+00 -.58167562E+03 0.58167571E+03 0.32000000E+00 0.0000E+00 0.9000E+01
       25  1    1    2    0    0 -.11416448E+03 -.46543753E+03 0.15454607E+03 0.51882088E+03 0.12500000E+03 0.0000E+00 0.9000E+01
        1  1    1    2  502    0 -.38347115E+02 0.42610706E+02 0.19511878E+04 0.19520298E+04 0.32000000E+00 0.0000E+00 0.9000E+01
       -1  1    1    2    0  501 0.15251159E+03 0.42282682E+03 -.27256152E+03 0.52567308E+03 0.32000000E+00 0.0000E+00 0.9000E+01
#aMCatNLO 1  0  0  1  2 0.10014401D+02 0.00000000D+00  -5  6  0 0.00000000D+00 0.00000000D+00 0.00000000D+00 0.00000000D+00 0.00000000D+00
  <mgrwgt>
 0.3351131218D-02    9    2    0
 0.118518283965292D+04 0.000000000000000D+00 0.000000000000000D+00 0.118518283965292D+04
 0.118518283965292D+04 0.000000000000000D+00 0.000000000000000D+00 -.118518283965292D+04
 0.536378147472478D+03 -.114180965265492D+03 -.465482174565515D+03 -.205828980998322D+03
 0.958640709357077D+03 -.383452467475482D+02 0.426086301961969D+02 0.956925366118651D+03
 0.875346822476292D+03 0.152526212013040D+03 0.422873544369318D+03 -.751096385120329D+03
 0.000000000000000D+00 -.000000000000000D+00 -.000000000000000D+00 0.000000000000000D+00
 0.126126322695552D+04 0.000000000000000D+00 0.000000000000000D+00 0.126126322695552D+04
 0.118552300962861D+04 0.000000000000000D+00 0.000000000000000D+00 -.118552300962861D+04
 0.534359189381020D+03 -.113716140860850D+03 -.463268618799988D+03 -.205828980998322D+03
 0.958792144138208D+03 -.375128581178718D+02 0.465725757893683D+02 0.956925366118651D+03
 0.877235500281534D+03 0.153287036359705D+03 0.426496691308885D+03 -.751096385120329D+03
 0.763994027833678D+02 -.205803738098380D+01 -.980064829826448D+01 0.757402173269094D+02
0.185480776145D-03 0.000000000000D+00 0.000000000000D+00 0.218718561547D-03 0.000000000000D+00  6 2 -2 25 1 -1 21 0 0.37151508D+00 0.89488565D-01 0.25108940D+06 0.25108940D+06 0.25108940D+06 0.10903171D+01  1  2  2  1  6  1        2 0.104333162200D-03 0.100000000000D+01
0.785143437859D-04 0.000000000000D+00 -.712295018606D-06 0.218718561547D-03 0.000000000000D+00  6 2 -2 25 1 -1 21 2 0.37151508D+00 0.89488565D-01 0.25108940D+06 0.25108940D+06 0.25108940D+06 0.10903171D+01  1  2  3  1  6  1        2 0.525022720387D-04 0.100000000000D+01
-.122412928759D-03 0.000000000000D+00 0.000000000000D+00 0.218718561547D-03 0.000000000000D+00  6 2 -2 25 1 -1 21 2 0.37151508D+00 0.89488565D-01 0.25108940D+06 0.25108940D+06 0.25108940D+06 0.10903171D+01  1  2 15  1  6  1        2 -.818571050444D-04 0.100000000000D+01
0.337018522404D-09 0.000000000000D+00 0.000000000000D+00 0.218718561547D-03 0.000000000000D+00  6 2 -2 25 1 -1 21 2 0.39541517D+00 0.89488565D-01 0.25813999D+06 0.25813999D+06 0.25813999D+06 0.10894138D+01  1  2 12  1  6  1        2 0.182635937804D-09 0.100000000000D+01
-.286299701568D-02 0.000000000000D+00 0.000000000000D+00 0.218718561547D-03 0.000000000000D+00  6 2 -2 25 1 -1 21 2 0.37151508D+00 0.89488565D-01 0.25108940D+06 0.25108940D+06 0.25108940D+06 0.10903171D+01  1  2  4  1  6  1        2 -.191447627166D-02 0.100000000000D+01
-.422104118035D-01 0.000000000000D+00 -.529556222115D-03 0.218718561547D-03 0.000000000000D+00  6 2 -2 25 1 -1 21 2 0.39539706D+00 0.89488565D-01 0.25108940D+06 0.25108940D+06 0.25108940D+06 0.10903171D+01  1  2  5  1  6  1        2 -.229656856034D-01 0.100000000000D+01
0.421625780021D-01 0.000000000000D+00 0.528530167230D-03 0.218718561547D-03 0.000000000000D+00  6 2 -2 25 1 -1 21 2 0.37151508D+00 0.89488565D-01 0.25108940D+06 0.25108940D+06 0.25108940D+06 0.10903171D+01  1  2  6  1  6  1        2 0.281939711062D-01 0.100000000000D+01
0.511794800977D-11 0.000000000000D+00 0.000000000000D+00 0.218718561547D-03 0.000000000000D+00  6 21 -2 25 1 -1 -2 2 0.39541517D+00 0.89488565D-01 0.25813999D+06 0.25813999D+06 0.25813999D+06 0.10894138D+01  1  2 12  5  6  1        2 0.303039450362D-12 0.100000000000D+01
-.632375653982D-03 0.000000000000D+00 -.564731343313D-05 0.218718561547D-03 0.000000000000D+00  6 21 -2 25 1 -1 -2 2 0.39539706D+00 0.89488565D-01 0.25108940D+06 0.25108940D+06 0.25108940D+06 0.10903171D+01  1  2  5  5  6  1        2 -.376565257228D-04 0.100000000000D+01
  </mgrwgt>
  </event>
  <event>
  5     66 0.18881543E-05 0.53510781E+02 0.75467711E-02 0.93589711E-01
        2 -1    0    0  502    0 0.00000000E+00 0.00000000E+00 0.81938362E+03 0.81938368E+03 0.32000000E+00 0.0000E+00 0.9000E+01
       -2 -1    0    0    0  501 -.00000000E+00 -.00000000E+00 -.17427447E+04 0.17427447E+04 0.32000000E+00 0.0000E+00 0.9000E+01
       25  1    1    2    0    0 0.28784448E+03 -.40967384E+03 -.61848637E+03 0.80550449E+03 0.12500000E+03 0.0000E+00 0.9000E+01
        1  1    1    2  502    0 -.34046034E+03 0.39993383E+03 0.62999959E+03 0.82021942E+03 0.32000000E+00 0.0000E+00 0.9000E+01
       -1  1    1    2    0  501 0.52615860E+02 0.97400058E+01 -.93487429E+03 0.93640447E+03 0.32000000E+00 0.0000E+00 0.9000E+01
#aMCatNLO 1  0  0  5  2 0.89190425D+01 0.00000000D+00  -5  6  0 0.00000000D+00 0.00000000D+00 0.00000000D+00 0.00000000D+00 0.00000000D+00
  <mgrwgt>
 0.1059732347D-01    9    2    0
 0.119497972950847D+04 0.000000000000000D+00 0.000000000000000D+00 0.119497972950847D+04
 0.119497972950847D+04 -.000000000000000D+00 -.000000000000000D+00 -.119497972950847D+04
 0.624570072119909D+03 0.287842707850480D+03 -.409673270417117D+03 -.351819786298206D+03
 0.112270438393538D+04 -.340459513503582D+03 0.399932865577520D+03 0.992273226688885D+03
 0.642685002961662D+03 0.526168056531010D+02 0.974040483959756D+01 -.640453440390679D+03
 0.000000000000000D+00 0.000000000000000D+00 0.000000000000000D+00 -.000000000000000D+00
 0.119497972950847D+04 0.000000000000000D+00 0.000000000000000D+00 0.119497972950847D+04
 0.119497972950847D+04 -.000000000000000D+00 -.000000000000000D+00 -.119497972950847D+04
 0.624642855114106D+03 0.287852821201450D+03 -.409671398237089D+03 -.351942886329496D+03
 0.112250453074797D+04 -.340441336789861D+03 0.399936230444469D+03 0.992051979148433D+03
 0.997943863761229D+02 0.151873675032710D+02 -.393438120029878D+01 -.985534579052313D+02
 0.543017686778749D+03 0.374011480851402D+02 0.136695489929187D+02 -.541555634913706D+03
0.203299583475D-02 0.000000000000D+00 0.000000000000D+00 0.138077245319D-03 0.000000000000D+00  6 2 -2 25 1 -1 21 0 0.12605902D+00 0.26811457D+00 0.29963936D+06 0.29963936D+06 0.29963936D+06 0.10845905D+01  1  2  2  4  6  5       -1 0.382345565087D-03 0.100000000000D+01
0.731499392167D-03 0.000000000000D+00 -.780723930554D-05 0.138077245319D-03 0.000000000000D+00  6 2 -2 25 1 -1 21 2 0.12605902D+00 0.26811457D+00 0.29963936D+06 0.29963936D+06 0.29963936D+06 0.10845905D+01  1  2  3  4  6  5       -1 0.161832276535D-03 0.100000000000D+01
-.131988710706D-02 0.000000000000D+00 0.000000000000D+00 0.138077245319D-03 0.000000000000D+00  6 2 -2 25 1 -1 21 2 0.12605902D+00 0.26811457D+00 0.29963936D+06 0.29963936D+06 0.29963936D+06 0.10845905D+01  1  2 15  4  6  5       -1 -.292003435124D-03 0.100000000000D+01
0.856999431248D-09 0.000000000000D+00 0.000000000000D+00 0.138077245319D-03 0.000000000000D+00  6 2 -2 25 1 -1 21 2 0.12605902D+00 0.26811457D+00 0.30073172D+06 0.30073172D+06 0.30073172D+06 0.10844736D+01  1  2 12  4  6  5       -1 0.189506803176D-09 0.100000000000D+01
0.561506896138D-01 0.000000000000D+00 0.000000000000D+00 0.138077245319D-03 0.000000000000D+00  6 2 -2 25 1 -1 21 2 0.12605902D+00 0.26811457D+00 0.30073172D+06 0.30073172D+06 0.30073172D+06 0.10844736D+01  1  2 12  4  6  5       -1 0.124165049554D-01 0.100000000000D+01
-.663622693752D-01 0.000000000000D+00 0.000000000000D+00 0.138077245319D-03 0.000000000000D+00  6 2 -2 25 1 -1 21 2 0.12605902D+00 0.26811457D+00 0.29963936D+06 0.29963936D+06 0.29963936D+06 0.10845905D+01  1  2  4  4  6  5       -1 -.146815667162D-01 0.100000000000D+01
-.597895287008D-01 0.000000000000D+00 0.000000000000D+00 0.138077245319D-03 0.000000000000D+00  6 2 -2 25 1 -1 21 2 0.12605902D+00 0.26811457D+00 0.29963936D+06 0.29963936D+06 0.29963936D+06 0.10845905D+01  1  2  5  4  6  5       -1 -.132274553420D-01 0.100000000000D+01
0.116770758707D+00 0.000000000000D+00 -.000000000000D+00 0.138077245319D-03 0.000000000000D+00  6 2 -2 25 1 -1 21 2 0.12605902D+00 0.26811457D+00 0.29963936D+06 0.29963936D+06 0.29963936D+06 0.10845905D+01  1  2  6  4  6  5       -1 0.258336205286D-01 0.100000000000D+01
0.182945955560D-04 0.000000000000D+00 0.000000000000D+00 0.138077245319D-03 0.104240692408D-05  6 2 -2 25 1 -1 21 2 0.12605902D+00 0.26811457D+00 0.30073172D+06 0.30073172D+06 0.30073172D+06 0.10844736D+01  1  2 11  4  6  5       -1 0.404545229879D-05 0.100000000000D+01
  </mgrwgt>
  </event>
  <event>
  5     66 0.18881543E-05 0.17462204E+02 0.75467711E-02 0.94419578E-01
        2 -1    0    0  502    0 0.00000000E+00 0.00000000E+00 0.82973879E+03 0.82973886E+03 0.32000000E+00 0.0000E+00 0.9000E+01
       -2 -1    0    0    0  501 0.00000000E+00 0.00000000E+00 -.46433851E+03 0.46433862E+03 0.32000000E+00 0.0000E+00 0.9000E+01
       25  1    1    2    0    0 -.47379554E+03 -.11129621E+03 0.52787008E+02 0.50525294E+03 0.12500000E+03 0.0000E+00 0.9000E+01
        1  1    1    2  502    0 0.48804511E+03 0.10120153E+03 0.43720966E+03 0.66300993E+03 0.32000000E+00 0.0000E+00 0.9000E+01
       -1  1    1    2    0  501 -.14249571E+02 0.10094678E+02 -.12459639E+03 0.12581461E+03 0.32000000E+00 0.0000E+00 0.9000E+01
#aMCatNLO 1  0  0  5  2 0.34929326D+01 0.00000000D+00  -5  6  0 0.00000000D+00 0.00000000D+00 0.00000000D+00 0.00000000D+00 0.00000000D+00
  <mgrwgt>
 0.6650304752D-02    9    2    0
 0.620709101740165D+03 0.000000000000000D+00 0.000000000000000D+00 0.620709101740165D+03
 0.620709101740165D+03 -.000000000000000D+00 -.000000000000000D+00 -.620709101740165D+03
 0.511151803961263D+03 -.473798451835377D+03 -.111296477585258D+03 -.936978538087594D+02
 0.562447615169791D+03 0.488047301706327D+03 0.101201981341177D+03 0.260605660107332D+03
 0.167818784349275D+03 -.142488498709504D+02 0.100944962440813D+02 -.166907806298573D+03
 0.000000000000000D+00 0.000000000000000D+00 0.000000000000000D+00 0.000000000000000D+00
 0.620709101740165D+03 0.000000000000000D+00 0.000000000000000D+00 0.620709101740165D+03
 0.620709101740165D+03 -.000000000000000D+00 -.000000000000000D+00 -.620709101740165D+03
 0.511175850066503D+03 -.473806684159219D+03 -.111290645454044D+03 -.937942853892495D+02
 0.562391756396846D+03 0.488038243903831D+03 0.101208398276867D+03 0.260499559056490D+03
 0.135732817701680D+03 -.893359808662218D+01 0.584297057110767D+01 -.135312410078933D+03
 0.321177793153008D+02 -.529796165798951D+01 0.423927660606879D+01 -.313928635883073D+02
0.188926302723D-04 0.000000000000D+00 0.000000000000D+00 0.634130453956D-05 0.000000000000D+00  6 2 -2 25 1 -1 21 0 0.12765214D+00 0.71436708D-01 0.25927569D+06 0.25927569D+06 0.25927569D+06 0.10892708D+01  1  2  2  4  6  5       -1 0.140355709696D-03 0.100000000000D+01
0.102317549695D-04 0.000000000000D+00 -.725526747894D-07 0.634130453956D-05 0.000000000000D+00  6 2 -2 25 1 -1 21 2 0.12765214D+00 0.71436708D-01 0.25927569D+06 0.25927569D+06 0.25927569D+06 0.10892708D+01  1  2  3  4  6  5       -1 0.901902394350D-04 0.100000000000D+01
-.130209857252D-04 0.000000000000D+00 0.000000000000D+00 0.634130453956D-05 0.000000000000D+00  6 2 -2 25 1 -1 21 2 0.12765214D+00 0.71436708D-01 0.25927569D+06 0.25927569D+06 0.25927569D+06 0.10892708D+01  1  2 15  4  6  5       -1 -.114776577795D-03 0.100000000000D+01
0.636815857414D-09 0.000000000000D+00 0.000000000000D+00 0.634130453956D-05 0.000000000000D+00  6 2 -2 25 1 -1 21 2 0.12765214D+00 0.71436708D-01 0.25927400D+06 0.25927400D+06 0.25927400D+06 0.10892710D+01  1  2 12  4  6  5       -1 0.561336835634D-08 0.100000000000D+01
0.458036636356D-04 0.000000000000D+00 0.000000000000D+00 0.634130453956D-05 0.000000000000D+00  6 2 -2 25 1 -1 21 2 0.12765214D+00 0.71436708D-01 0.25927400D+06 0.25927400D+06 0.25927400D+06 0.10892710D+01  1  2 12  4  6  5       -1 0.403747540303D-03 0.100000000000D+01
-.613134991183D-03 0.000000000000D+00 0.000000000000D+00 0.634130453956D-05 0.000000000000D+00  6 2 -2 25 1 -1 21 2 0.12765214D+00 0.71436708D-01 0.25927569D+06 0.25927569D+06 0.25927569D+06 0.10892708D+01  1  2  4  4  6  5       -1 -.540462431183D-02 0.100000000000D+01
-.240189752730D-02 0.000000000000D+00 0.000000000000D+00 0.634130453956D-05 0.000000000000D+00  6 2 -2 25 1 -1 21 2 0.12765214D+00 0.71436708D-01 0.25927569D+06 0.25927569D+06 0.25927569D+06 0.10892708D+01  1  2  5  4  6  5       -1 -.211720974292D-01 0.100000000000D+01
0.325332404426D-02 0.000000000000D+00 -.000000000000D+00 0.634130453956D-05 0.000000000000D+00  6 2 -2 25 1 -1 21 2 0.12765214D+00 0.71436708D-01 0.25927569D+06 0.25927569D+06 0.25927569D+06 0.10892708D+01  1  2  6  4  6  5       -1 0.286771991107D-01 0.100000000000D+01
0.457223164439D-03 0.000000000000D+00 0.000000000000D+00 0.634130453956D-05 0.438928476922D-06  6 2 -2 25 1 -1 21 2 0.12765214D+00 0.71436708D-01 0.25927400D+06 0.25927400D+06 0.25927400D+06 0.10892710D+01  1  2 11  4  6  5       -1 0.403030485685D-02 0.100000000000D+01
  </mgrwgt>
  </event>
  <event>
  5     66 0.18881543E-05 0.14190028E+03 0.75467711E-02 0.92141604E-01
        2 -1    0    0  502    0 0.00000000E+00 0.00000000E+00 0.78164892E+03 0.78164899E+03 0.32000000E+00 0.0000E+00 0.9000E+01
       -2 -1    0    0    0  501 0.00000000E+00 0.00000000E+00 -.57746353E+03 0.57746362E+03 0.32000000E+00 0.0000E+00 0.9000E+01
       25  1    1    2    0    0 -.24374285E+03 -.48844751E+03 0.68442906E+02 0.56418169E+03 0.12500000E+03 0.0000E+00 0.9000E+01
        1  1    1    2  502    0 0.14057960E+03 0.20026837E+02 0.26282744E+03 0.29873411E+03 0.32000000E+00 0.0000E+00 0.9000E+01
       -1  1    1    2    0  501 0.10316324E+03 0.46842067E+03 -.12708496E+03 0.49619681E+03 0.32000000E+00 0.0000E+00 0.9000E+01
#aMCatNLO 1  0  0  2  5 0.76451944D+02 0.00000000D+00  -5  6  0 0.00000000D+00 0.00000000D+00 0.00000000D+00 0.00000000D+00 0.00000000D+00
  <mgrwgt>
 0.6852820476D-04    4    2    0
 0.671843617851741D+03 0.000000000000000D+00 0.000000000000000D+00 0.671843617851741D+03
 0.671843617851741D+03 0.000000000000000D+00 0.000000000000000D+00 -.671843617851741D+03
 0.560329643667161D+03 -.243716336752733D+03 -.488547665295144D+03 -.163656807576172D+02
 0.262042150887863D+03 0.140481930850725D+03 0.200129221548877D+02 0.220296161775942D+03
 0.521315441148458D+03 0.103234405902008D+03 0.468534743140256D+03 -.203930481018325D+03
 0.000000000000000D+00 0.000000000000000D+00 0.000000000000000D+00 0.000000000000000D+00
 0.789964712690541D+03 0.000000000000000D+00 0.000000000000000D+00 0.789964712690541D+03
 0.685415633598568D+03 0.000000000000000D+00 0.000000000000000D+00 -.685415633598568D+03
 0.587537069598074D+03 -.271584425334111D+03 -.505518419606223D+03 -.163656807576172D+02
 0.255046914733352D+03 0.127927961196703D+03 0.123679653073801D+02 0.220296161775942D+03
 0.503276441984519D+03 0.783592030331242D+02 0.453386558323298D+03 -.203930481018325D+03
 0.129519919973163D+03 0.652972611042841D+02 0.397638959755445D+02 0.104549079091973D+03
0.457968544106D-04 0.000000000000D+00 0.000000000000D+00 0.106466882061D-06 0.000000000000D+00  6 2 -2 25 1 -1 21 0 0.12025369D+00 0.88840554D-01 0.34914147D+06 0.34914147D+06 0.34914147D+06 0.10797112D+01  1  2  2  2  6  2       -2 0.222666748813D-03 0.100000000000D+01
0.374136813938D-05 0.000000000000D+00 -.175871979525D-06 0.106466882061D-06 0.000000000000D+00  6 2 -2 25 1 -1 21 2 0.12025369D+00 0.88840554D-01 0.34914147D+06 0.34914147D+06 0.34914147D+06 0.10797112D+01  1  2  3  2  6  2       -2 0.212063213504D-04 0.100000000000D+01
-.300470693328D-04 0.000000000000D+00 0.000000000000D+00 0.106466882061D-06 0.000000000000D+00  6 2 -2 25 1 -1 21 2 0.12025369D+00 0.88840554D-01 0.34914147D+06 0.34914147D+06 0.34914147D+06 0.10797112D+01  1  2 15  2  6  2       -2 -.170308770527D-03 0.100000000000D+01
-.888503225195D-06 0.000000000000D+00 0.000000000000D+00 0.106466882061D-06 0.000000000000D+00  6 2 -2 25 1 -1 21 2 0.12025369D+00 0.88840554D-01 0.34914147D+06 0.34914147D+06 0.34914147D+06 0.10797112D+01  1  2  4  2  6  2       -2 -.503609487556D-05 0.100000000000D+01
  </mgrwgt>
  </event>
  <event>
  5     66 -.18881543E-05 0.22562958E+02 0.75467711E-02 0.93071764E-01
        2 -1    0    0  502    0 0.00000000E+00 0.00000000E+00 0.15014902E+04 0.15014902E+04 0.32000000E+00 0.0000E+00 0.9000E+01
       -2 -1    0    0    0  501 0.00000000E+00 0.00000000E+00 -.16335713E+04 0.16335713E+04 0.32000000E+00 0.0000E+00 0.9000E+01
       25  1    1    2    0    0 -.43457106E+03 -.28055155E+03 -.51003867E+02 0.53459103E+03 0.12500000E+03 0.0000E+00 0.9000E+01
        1  1    1    2  502    0 -.46476427E+01 -.22080050E+02 0.12065394E+04 0.12067504E+04 0.32000000E+00 0.0000E+00 0.9000E+01
       -1  1    1    2    0  501 0.43921870E+03 0.30263160E+03 -.12876166E+04 0.13937201E+04 0.32000000E+00 0.0000E+00 0.9000E+01
#aMCatNLO 1  0  0  2  4 0.63060311D+02 0.00000000D+00  -5  6  0 0.00000000D+00 0.00000000D+00 0.00000000D+00 0.00000000D+00 0.00000000D+00
  <mgrwgt>
 -.2885420878D-01    7    4    0
 0.156613898306218D+04 0.000000000000000D+00 0.000000000000000D+00 0.156613898306218D+04
 0.156613898306218D+04 0.000000000000000D+00 0.000000000000000D+00 -.156613898306218D+04
 0.532958000880479D+03 -.434609009656911D+03 -.280578050460457D+03 -.284639601490109D+02
 0.125864771007267D+04 -.464745031913181D+01 -.220791365691376D+02 0.125844545809704D+04
 0.134067225517120D+04 0.439256459976043D+03 0.302657187029595D+03 -.122998149794803D+04
 0.000000000000000D+00 0.000000000000000D+00 -.000000000000000D+00 -.000000000000000D+00
 0.156723132876947D+04 0.000000000000000D+00 0.000000000000000D+00 0.156723132876947D+04
 0.284924993798943D+04 0.000000000000000D+00 0.000000000000000D+00 -.284924993798943D+04
 0.534820442602889D+03 -.441875922155108D+03 -.272659821422518D+03 -.284639601490109D+02
 0.125863852840800D+04 -.217791867196881D+02 -.341192230573742D+01 0.125844545809704D+04
 0.133945370888623D+04 0.421016495511680D+03 0.322531957271917D+03 -.122998149794803D+04
 0.128356858686177D+04 0.426386133631164D+02 -.464602135436619D+02 -.128201860921996D+04
 0.156613898306218D+04 0.000000000000000D+00 0.000000000000000D+00 0.156613898306218D+04
 0.156613898306218D+04 0.000000000000000D+00 0.000000000000000D+00 -.156613898306218D+04
 0.532958000880479D+03 -.434609009656911D+03 -.280578050460457D+03 -.284639601490109D+02
 0.125864771007267D+04 -.464745031913181D+01 -.220791365691376D+02 0.125844545809704D+04
 0.000000000000000D+00 0.000000000000000D+00 -.000000000000000D+00 -.000000000000000D+00
 0.134067225517120D+04 0.439256459976043D+03 0.302657187029595D+03 -.122998149794803D+04
 0.156723132876947D+04 0.000000000000000D+00 0.000000000000000D+00 0.156723132876947D+04
 0.284924993798943D+04 0.000000000000000D+00 0.000000000000000D+00 -.284924993798943D+04
 0.534820442602889D+03 -.441875922155108D+03 -.272659821422518D+03 -.284639601490109D+02
 0.125863852840800D+04 -.217791867196881D+02 -.341192230573742D+01 0.125844545809704D+04
 0.128356858686177D+04 0.426386133631164D+02 -.464602135436619D+02 -.128201860921996D+04
 0.133945370888623D+04 0.421016495511680D+03 0.322531957271917D+03 -.122998149794803D+04
0.173161817603D-01 0.000000000000D+00 0.000000000000D+00 0.126732745322D-02 0.000000000000D+00  6 2 -2 25 1 -1 21 0 0.23099849D+00 0.25131866D+00 0.29603957D+06 0.29603957D+06 0.29603957D+06 0.10849791D+01  1  2  2  2  6  2       -2 0.163714406741D-02 0.100000000000D+01
0.148394730180D-01 0.000000000000D+00 -.664986974148D-04 0.126732745322D-02 0.000000000000D+00  6 2 -2 25 1 -1 21 2 0.23099849D+00 0.25131866D+00 0.29603957D+06 0.29603957D+06 0.29603957D+06 0.10849791D+01  1  2  3  2  6  2       -2 0.165156627512D-02 0.100000000000D+01
-.122415900994D-01 0.000000000000D+00 0.000000000000D+00 0.126732745322D-02 0.000000000000D+00  6 2 -2 25 1 -1 21 2 0.23099849D+00 0.25131866D+00 0.29603957D+06 0.29603957D+06 0.29603957D+06 0.10849791D+01  1  2 15  2  6  2       -2 -.136243364826D-02 0.100000000000D+01
-.345572189839D+01 0.000000000000D+00 0.000000000000D+00 0.126732745322D-02 0.000000000000D+00  6 2 -2 25 1 -1 21 2 0.23099849D+00 0.25131866D+00 0.29603957D+06 0.29603957D+06 0.29603957D+06 0.10849791D+01  1  2  4  2  6  2       -2 -.384606228042D+00 0.100000000000D+01
-.401763222345D+01 0.000000000000D+00 -.885396648291D-02 0.126732745322D-02 0.000000000000D+00  6 2 -2 25 1 -1 21 2 0.23099849D+00 0.45728125D+00 0.29603957D+06 0.29603957D+06 0.29603957D+06 0.10849791D+01  1  2  5  2  6  2       -2 -.156233084290D-01 0.100000000000D+01
0.339730372812D+01 0.000000000000D+00 0.747447442244D-02 0.126732745322D-02 0.000000000000D+00  6 2 -2 25 1 -1 21 2 0.23099849D+00 0.25131866D+00 0.29603957D+06 0.29603957D+06 0.29603957D+06 0.10849791D+01  1  2  6  2  6  2       -2 0.378104549731D+00 0.100000000000D+01
-.262669400378D+00 0.000000000000D+00 -.579918838454D-03 0.126732745322D-02 0.000000000000D+00  6 2 21 25 1 2 -1 2 0.23099849D+00 0.45728125D+00 0.29603957D+06 0.29603957D+06 0.29603957D+06 0.10849791D+01  3  4  5  6  5  2       -2 -.865549873494D-02 0.100000000000D+01
  </mgrwgt>
  </event>
  <event>
  5     66 0.18881543E-05 0.89189994E+02 0.75467711E-02 0.89761105E-01
        2 -1    0    0  502    0 0.00000000E+00 0.00000000E+00 0.28815429E+04 0.28815429E+04 0.32000000E+00 0.0000E+00 0.9000E+01
       -2 -1    0    0    0  501 0.00000000E+00 0.00000000E+00 -.75131689E+03 0.75131696E+03 0.32000000E+00 0.0000E+00 0.9000E+01
       25  1    1    2    0    0 0.71795953E+03 -.25727449E+03 0.90847164E+02 0.77816082E+03 0.12500000E+03 0.0000E+00 0.9000E+01
        1  1    1    2  502    0 -.76514817E+02 0.45840137E+02 0.21657493E+04 0.21675853E+04 0.32000000E+00 0.0000E+00 0.9000E+01
       -1  1    1    2    0  501 -.64144471E+03 0.21143436E+03 -.12637041E+03 0.68711381E+03 0.32000000E+00 0.0000E+00 0.9000E+01
#aMCatNLO 1  0  0  1  4 0.29921480D+02 0.00000000D+00  -5  6  0 0.00000000D+00 0.00000000D+00 0.00000000D+00 0.00000000D+00 0.00000000D+00
  <mgrwgt>
 0.2201232730D-02   11    2    0
 0.147137759248501D+04 0.000000000000000D+00 0.000000000000000D+00 0.147137759248501D+04
 0.147137759248501D+04 0.000000000000000D+00 0.000000000000000D+00 -.147137759248501D+04
 0.894910699718199D+03 0.718020715351312D+03 -.257294651351911D+03 -.451094086840213D+03
 0.110807621819746D+04 -.765101022968920D+02 0.458373122323898D+02 0.110448089634390D+04
 0.939768267054366D+03 -.641510613054420D+03 0.211457339119521D+03 -.653386809503682D+03
 0.000000000000000D+00 -.000000000000000D+00 -.000000000000000D+00 0.000000000000000D+00
 0.207487263437472D+04 0.000000000000000D+00 0.000000000000000D+00 0.207487263437472D+04
 0.147182457569485D+04 0.000000000000000D+00 0.000000000000000D+00 -.147182457569485D+04
 0.893373840883368D+03 0.719275884042298D+03 -.248290448925579D+03 -.451094086840213D+03
 0.110848769414388D+04 -.749543310752693D+02 0.569979467424383D+02 0.110448089634390D+04
 0.941045764507383D+03 -.640190499374306D+03 0.220927437351635D+03 -.653386809503682D+03
 0.603789910534938D+03 -.413105359272256D+01 -.296349351684946D+02 0.603048058679871D+03
0.861772649410D-04 0.000000000000D+00 0.000000000000D+00 0.182920637009D-04 0.000000000000D+00  6 2 -2 25 1 -1 21 0 0.44331430D+00 0.11558722D+00 0.59101962D+06 0.59101962D+06 0.59101962D+06 0.10634147D+01  1  2  2  1  6  1        2 0.127874588617D-04 0.100000000000D+01
0.334094397578D-04 0.000000000000D+00 -.330943388369D-06 0.182920637009D-04 0.000000000000D+00  6 2 -2 25 1 -1 21 2 0.44331430D+00 0.11558722D+00 0.59101962D+06 0.59101962D+06 0.59101962D+06 0.10634147D+01  1  2  3  1  6  1        2 0.560616747323D-05 0.100000000000D+01
-.596577413925D-04 0.000000000000D+00 0.000000000000D+00 0.182920637009D-04 0.000000000000D+00  6 2 -2 25 1 -1 21 2 0.44331430D+00 0.11558722D+00 0.59101962D+06 0.59101962D+06 0.59101962D+06 0.10634147D+01  1  2 15  1  6  1        2 -.100106823624D-04 0.100000000000D+01
0.165283771089D-08 0.000000000000D+00 0.000000000000D+00 0.182920637009D-04 0.000000000000D+00  6 2 -2 25 1 -1 21 2 0.62518901D+00 0.11558722D+00 0.61814823D+06 0.61814823D+06 0.61814823D+06 0.10620599D+01  1  2 12  1  6  1        2 0.388332545535D-10 0.100000000000D+01
0.198832650045D-01 0.000000000000D+00 0.000000000000D+00 0.182920637009D-04 0.000000000000D+00  6 2 -2 25 1 -1 21 2 0.68404859D+00 0.11558722D+00 0.61814823D+06 0.61814823D+06 0.61814823D+06 0.10620599D+01  1  2 12  1  6  1        2 0.209369552955D-03 0.100000000000D+01
-.103794667509D-01 0.000000000000D+00 0.000000000000D+00 0.182920637009D-04 0.000000000000D+00  6 2 -2 25 1 -1 21 2 0.44331430D+00 0.11558722D+00 0.59101962D+06 0.59101962D+06 0.59101962D+06 0.10634147D+01  1  2  4  1  6  1        2 -.174169424301D-02 0.100000000000D+01
-.276409801367D-01 0.000000000000D+00 -.478577344560D-04 0.182920637009D-04 0.000000000000D+00  6 2 -2 25 1 -1 21 2 0.62517208D+00 0.11558722D+00 0.59101962D+06 0.59101962D+06 0.59101962D+06 0.10634147D+01  1  2  5  1  6  1        2 -.654546186862D-03 0.100000000000D+01
0.261026982392D-01 0.000000000000D+00 0.451630628755D-04 0.182920637009D-04 0.000000000000D+00  6 2 -2 25 1 -1 21 2 0.44331430D+00 0.11558722D+00 0.59101962D+06 0.59101962D+06 0.59101962D+06 0.10634147D+01  1  2  6  1  6  1        2 0.438008236274D-02 0.100000000000D+01
0.704822780596D-10 0.000000000000D+00 0.000000000000D+00 0.182920637009D-04 0.000000000000D+00  6 21 -2 25 1 -1 -2 2 0.62518901D+00 0.11558722D+00 0.61814823D+06 0.61814823D+06 0.61814823D+06 0.10620599D+01  1  2 12  5  6  1        2 0.287873881679D-13 0.100000000000D+01
0.100499119479D-02 0.000000000000D+00 0.000000000000D+00 0.182920637009D-04 0.000000000000D+00  6 21 -2 25 1 -1 -2 2 0.68404859D+00 0.11558722D+00 0.61814823D+06 0.61814823D+06 0.61814823D+06 0.10620599D+01  1  2 12  5  6  1        2 0.123702061199D-06 0.100000000000D+01
-.117731453476D-02 0.000000000000D+00 -.204069075927D-05 0.182920637009D-04 0.000000000000D+00  6 21 -2 25 1 -1 -2 2 0.62517208D+00 0.11558722D+00 0.59101962D+06 0.59101962D+06 0.59101962D+06 0.10634147D+01  1  2  5  5  6  1        2 -.485441083015D-06 0.100000000000D+01
  </mgrwgt>
  </event>
  <event>
  5     66 0.18881543E-05 0.94925206E+02 0.75467711E-02 0.90092305E-01
        2 -1    0    0  502    0 0.00000000E+00 0.00000000E+00 0.40298933E+04 0.40298933E+04 0.32000000E+00 0.0000E+00 0.9000E+01
       -2 -1    0    0    0  501 0.00000000E+00 0.00000000E+00 -.21060741E+03 0.21060766E+03 0.32000000E+00 0.0000E+00 0.9000E+01
       25  1    1    2    0    0 -.68437568E+03 0.15641867E+03 0.18563883E+04 0.19886276E+04 0.12500000E+03 0.0000E+00 0.9000E+01
        1  1    1    2  502    0 -.25730574E+02 -.91444956E+02 0.12143040E+04 0.12180142E+04 0.32000000E+00 0.0000E+00 0.9000E+01
       -1  1    1    2    0  501 0.71010625E+03 -.64973713E+02 0.74859348E+03 0.10338592E+04 0.32000000E+00 0.0000E+00 0.9000E+01
#aMCatNLO 1  0  0  2  5 0.10029594D+01 0.00000000D+00  -5  6  0 0.00000000D+00 0.00000000D+00 0.00000000D+00 0.00000000D+00 0.00000000D+00
  <mgrwgt>
 0.2047261126D-03    6    4    0
 0.921263230455577D+03 0.000000000000000D+00 0.000000000000000D+00 0.921263230455577D+03
 0.921263230455577D+03 0.000000000000000D+00 0.000000000000000D+00 -.921263230455577D+03
 0.728873401074692D+03 -.684508351423811D+03 0.156388033871010D+03 0.150407893699784D+03
 0.285924204231290D+03 -.257113955116717D+02 -.913767958366977D+02 0.269706981535067D+03
 0.827728855605173D+03 0.710219746935482D+03 -.650112380343128D+02 -.420114875234851D+03
 0.000000000000000D+00 0.000000000000000D+00 0.000000000000000D+00 0.000000000000000D+00
 0.922729202182858D+03 0.000000000000000D+00 0.000000000000000D+00 0.922729202182858D+03
 0.921434929121110D+03 0.000000000000000D+00 0.000000000000000D+00 -.921434929121110D+03
 0.729175896331375D+03 -.684868485499540D+03 0.156221352167450D+03 0.150407893699784D+03
 0.285957839957178D+03 -.258526487681811D+02 -.914421724145204D+02 0.269706981535067D+03
 0.827392997597642D+03 0.709810936492734D+03 -.652004487356131D+02 -.420114875234851D+03
 0.163739741777313D+01 0.910197774987040D+00 0.421268982683934D+00 0.129427306174825D+01
 0.921263230455577D+03 0.000000000000000D+00 0.000000000000000D+00 0.921263230455577D+03
 0.921263230455577D+03 0.000000000000000D+00 0.000000000000000D+00 -.921263230455577D+03
 0.728873401074692D+03 -.684508351423811D+03 0.156388033871010D+03 0.150407893699784D+03
 0.285924204231290D+03 -.257113955116717D+02 -.913767958366977D+02 0.269706981535067D+03
 0.000000000000000D+00 0.000000000000000D+00 0.000000000000000D+00 0.000000000000000D+00
 0.827728855605173D+03 0.710219746935482D+03 -.650112380343128D+02 -.420114875234851D+03
 0.922729202182858D+03 0.000000000000000D+00 0.000000000000000D+00 0.922729202182858D+03
 0.921434929121110D+03 0.000000000000000D+00 0.000000000000000D+00 -.921434929121110D+03
 0.729175896331375D+03 -.684868485499540D+03 0.156221352167450D+03 0.150407893699784D+03
 0.285957839957178D+03 -.258526487681811D+02 -.914421724145204D+02 0.269706981535067D+03
 0.163739741777313D+01 0.910197774987040D+00 0.421268982683934D+00 0.129427306174825D+01
 0.827392997597642D+03 0.709810936492734D+03 -.652004487356131D+02 -.420114875234851D+03
0.125029102696D-02 0.000000000000D+00 0.000000000000D+00 0.388581887163D-06 0.000000000000D+00  6 2 -2 25 1 -1 21 0 0.61998360D+00 0.32401160D-01 0.57858838D+06 0.57858838D+06 0.57858838D+06 0.10640583D+01  1  2  2  2  6  2       -2 0.419089259788D-03 0.100000000000D+01
0.233999509475D-03 0.000000000000D+00 -.480144675271D-05 0.388581887163D-06 0.000000000000D+00  6 2 -2 25 1 -1 21 2 0.61998360D+00 0.32401160D-01 0.57858838D+06 0.57858838D+06 0.57858838D+06 0.10640583D+01  1  2  3  2  6  2       -2 0.888057734255D-04 0.100000000000D+01
-.923159018070D-03 0.000000000000D+00 0.000000000000D+00 0.388581887163D-06 0.000000000000D+00  6 2 -2 25 1 -1 21 2 0.61998360D+00 0.32401160D-01 0.57858838D+06 0.57858838D+06 0.57858838D+06 0.10640583D+01  1  2 15  2  6  2       -2 -.350350523291D-03 0.100000000000D+01
-.872456112167D-03 0.000000000000D+00 0.000000000000D+00 0.388581887163D-06 0.000000000000D+00  6 2 -2 25 1 -1 21 2 0.61998360D+00 0.32401160D-01 0.57858838D+06 0.57858838D+06 0.57858838D+06 0.10640583D+01  1  2  4  2  6  2       -2 -.331108129220D-03 0.100000000000D+01
0.852966403120D-03 0.000000000000D+00 0.000000000000D+00 0.388581887163D-06 0.425905770967D-06  6 2 -2 25 1 -1 21 2 0.62097016D+00 0.32407199D-01 0.57936720D+06 0.57936720D+06 0.57936720D+06 0.10640175D+01  1  2 11  2  6  2       -2 0.319556934371D-03 0.100000000000D+01
0.140302005386D-04 0.000000000000D+00 0.000000000000D+00 0.388581887163D-06 0.810258300516D-10  6 2 21 25 1 2 -1 2 0.62097016D+00 0.32407199D-01 0.57936720D+06 0.57936720D+06 0.57936720D+06 0.10640175D+01  3  4 11  6  5  2       -2 0.587327975761D-04 0.100000000000D+01
  </mgrwgt>
  </event>
  <event>
  5     66 0.18881543E-05 0.22924433E+02 0.75467711E-02 0.85707965E-01
        2 -1    0    0  502    0 0.00000000E+00 0.00000000E+00 0.20334744E+04 0.20334744E+04 0.32000000E+00 0.0000E+00 0.9000E+01
       -2 -1    0    0    0  501 0.00000000E+00 0.00000000E+00 -.84079887E+03 0.84079893E+03 0.32000000E+00 0.0000E+00 0.9000E+01
       25  1    1    2    0    0 0.75621630E+02 0.70702983E+03 0.66361671E+03 0.98062325E+03 0.12500000E+03 0.0000E+00 0.9000E+01
        1  1    1    2  502    0 -.37532476E+01 -.22620267E+02 0.10376705E+04 0.10379238E+04 0.32000000E+00 0.0000E+00 0.9000E+01
       -1  1    1    2    0  501 -.71868382E+02 -.68440957E+03 -.50861166E+03 0.85572627E+03 0.32000000E+00 0.0000E+00 0.9000E+01
#aMCatNLO 1  0  0  1  2 0.10009342D+03 0.00000000D+00  -5  6  0 0.00000000D+00 0.00000000D+00 0.00000000D+00 0.00000000D+00 0.00000000D+00
  <mgrwgt>
 0.1374754217D-01    7    2    0
 0.130757143909854D+04 0.000000000000000D+00 0.000000000000000D+00 0.130757143909854D+04
 0.130757143909854D+04 0.000000000000000D+00 0.000000000000000D+00 -.130757143909854D+04
 0.775256251457730D+03 0.756294313735614D+02 0.707106272044803D+03 0.282273209088824D+03
 0.667376268951455D+03 -.375241324883397D+01 -.226152383126844D+02 0.666982424618846D+03
 0.117251035778790D+04 -.718770181247275D+02 -.684491033732119D+03 -.949255633707671D+03
 0.000000000000000D+00 0.000000000000000D+00 -.000000000000000D+00 0.000000000000000D+00
 0.170771950099521D+04 0.000000000000000D+00 0.000000000000000D+00 0.170771950099521D+04
 0.169987416948476D+04 0.000000000000000D+00 0.000000000000000D+00 -.169987416948476D+04
 0.807061043277205D+03 -.130795892558838D+03 0.734123148726509D+03 0.282273209088824D+03
 0.691099238693635D+03 -.180975873836013D+03 0.579708356538625D+00 0.666982424618846D+03
 0.120911751160699D+04 -.382578484930491D+03 -.643826530687591D+03 -.949255633707671D+03
 0.700315876902136D+03 0.694350251325341D+03 -.908763263954569D+02 0.784533151045288D+01
0.198903859186D-01 0.000000000000D+00 0.000000000000D+00 0.124116069106D-03 0.000000000000D+00  6 2 -2 25 1 -1 21 0 0.31284222D+00 0.12935368D+00 0.51353030D+06 0.51353030D+06 0.51353030D+06 0.10676918D+01  1  2  2  1  6  1        2 0.697273240824D-02 0.100000000000D+01
0.155880801877D-01 0.000000000000D+00 -.763843191865D-04 0.124116069106D-03 0.000000000000D+00  6 2 -2 25 1 -1 21 2 0.31284222D+00 0.12935368D+00 0.51353030D+06 0.51353030D+06 0.51353030D+06 0.10676918D+01  1  2  3  1  6  1        2 0.622937169758D-02 0.100000000000D+01
-.117374513359D-01 0.000000000000D+00 0.000000000000D+00 0.124116069106D-03 0.000000000000D+00  6 2 -2 25 1 -1 21 2 0.31284222D+00 0.12935368D+00 0.51353030D+06 0.51353030D+06 0.51353030D+06 0.10676918D+01  1  2 15  1  6  1        2 -.469056781035D-02 0.100000000000D+01
-.386878722716D-03 0.000000000000D+00 0.000000000000D+00 0.124116069106D-03 0.000000000000D+00  6 2 -2 25 1 -1 21 2 0.31284222D+00 0.12935368D+00 0.51353030D+06 0.51353030D+06 0.51353030D+06 0.10676918D+01  1  2  4  1  6  1        2 -.154606041069D-03 0.100000000000D+01
-.126548371945D-01 0.000000000000D+00 -.127911210466D-01 0.124116069106D-03 0.000000000000D+00  6 2 -2 25 1 -1 21 2 0.45575877D+00 0.12935368D+00 0.51353030D+06 0.51353030D+06 0.51353030D+06 0.10676918D+01  1  2  5  1  6  1        2 -.144079292445D-02 0.100000000000D+01
0.170979627409D-01 0.000000000000D+00 0.119361728564D-01 0.124116069106D-03 0.000000000000D+00  6 2 -2 25 1 -1 21 2 0.31284222D+00 0.12935368D+00 0.51353030D+06 0.51353030D+06 0.51353030D+06 0.10676918D+01  1  2  6  1  6  1        2 0.683275707475D-02 0.100000000000D+01
-.174839696652D-03 0.000000000000D+00 -.582265854282D-03 0.124116069106D-03 0.000000000000D+00  6 21 -2 25 1 -1 -2 2 0.45575877D+00 0.12935368D+00 0.51353030D+06 0.51353030D+06 0.51353030D+06 0.10676918D+01  1  2  5  5  6  1        2 -.135223698864D-05 0.100000000000D+01
  </mgrwgt>
  </event>
  <event>
  5     66 0.18881543E-05 0.18528273E+03 0.75467711E-02 0.91187496E-01
        2 -1    0    0  502    0 0.00000000E+00 0.00000000E+00 0.23314921E+04 0.23314921E+04 0.32000000E+00 0.0000E+00 0.9000E+01
       -2 -1    0    0    0  501 0.00000000E+00 0.00000000E+00 -.28143538E+03 0.28143557E+03 0.32000000E+00 0.0000E+00 0.9000E+01
       25  1    1    2    0    0 -.27558158E+03 -.49019267E+03 0.10257759E+04 0.11764673E+04 0.12500000E+03 0.0000E+00 0.9000E+01
        1  1    1    2  502    0 0.53459345E+02 0.41504883E+03 0.11104146E+04 0.11866525E+04 0.32000000E+00 0.0000E+00 0.9000E+01
       -1  1    1    2    0  501 0.22212223E+03 0.75143840E+02 -.86133764E+02 0.24980795E+03 0.32000000E+00 0.0000E+00 0.9000E+01
#aMCatNLO 1  0  0  1  2 0.14925673D+03 0.00000000D+00  -5  6  0 0.00000000D+00 0.00000000D+00 0.00000000D+00 0.00000000D+00 0.00000000D+00
  <mgrwgt>
 0.1034378978D-02    9    2    0
 0.810039904040111D+03 0.000000000000000D+00 0.000000000000000D+00 0.810039904040111D+03
 0.810039904040111D+03 0.000000000000000D+00 0.000000000000000D+00 -.810039904040111D+03
 0.599435272477792D+03 -.275611147986824D+03 -.490133178276685D+03 0.165848149065057D+03
 0.508653058275569D+03 0.534486100851770D+02 0.414965486806587D+03 0.289266009984624D+03
 0.511991477326861D+03 0.222162537901647D+03 0.751676914700974D+02 -.455114159049680D+03
 0.000000000000000D+00 0.000000000000000D+00 0.000000000000000D+00 0.000000000000000D+00
 0.892219443366372D+03 0.000000000000000D+00 0.000000000000000D+00 0.892219443366372D+03
 0.884193641944910D+03 0.000000000000000D+00 0.000000000000000D+00 -.884193641944910D+03
 0.649312436236621D+03 -.280996312432916D+03 -.547281557977549D+03 0.165848149065057D+03
 0.472283360083104D+03 0.492183689506723D+02 0.370073370883123D+03 0.289266009984624D+03
 0.505344938501835D+03 0.217775323528396D+03 0.286097459623141D+02 -.455114159049680D+03
 0.149472350489722D+03 0.140026199538476D+02 0.148598441132112D+03 0.802580142146227D+01
0.141726452850D-03 0.000000000000D+00 0.000000000000D+00 0.198490764254D-06 0.000000000000D+00  6 2 -2 25 1 -1 21 0 0.35869111D+00 0.43297767D-01 0.37758781D+06 0.37758781D+06 0.37758781D+06 0.10772375D+01  1  2  2  1  6  1        2 0.399347150043D-03 0.100000000000D+01
0.895392416791D-05 0.000000000000D+00 -.544266896376D-06 0.198490764254D-06 0.000000000000D+00  6 2 -2 25 1 -1 21 2 0.35869111D+00 0.43297767D-01 0.37758781D+06 0.37758781D+06 0.37758781D+06 0.10772375D+01  1  2  3  1  6  1        2 0.292776385872D-04 0.100000000000D+01
-.940419202218D-04 0.000000000000D+00 0.000000000000D+00 0.198490764254D-06 0.000000000000D+00  6 2 -2 25 1 -1 21 2 0.35869111D+00 0.43297767D-01 0.37758781D+06 0.37758781D+06 0.37758781D+06 0.10772375D+01  1  2 15  1  6  1        2 -.307499293121D-03 0.100000000000D+01
0.244660978316D-07 0.000000000000D+00 0.000000000000D+00 0.198490764254D-06 0.000000000000D+00  6 2 -2 25 1 -1 21 2 0.40996534D+00 0.43297767D-01 0.46923178D+06 0.46923178D+06 0.46923178D+06 0.10704653D+01  1  2 12  1  6  1        2 0.498597660507D-07 0.100000000000D+01
-.172891228659D-04 0.000000000000D+00 0.000000000000D+00 0.198490764254D-06 0.000000000000D+00  6 2 -2 25 1 -1 21 2 0.35869111D+00 0.43297767D-01 0.37758781D+06 0.37758781D+06 0.37758781D+06 0.10772375D+01  1  2  4  1  6  1        2 -.565321619063D-04 0.100000000000D+01
-.765466728594D-03 0.000000000000D+00 -.200490347719D-03 0.198490764254D-06 0.000000000000D+00  6 2 -2 25 1 -1 21 2 0.41005493D+00 0.43297767D-01 0.37758781D+06 0.37758781D+06 0.37758781D+06 0.10772375D+01  1  2  5  1  6  1        2 -.160069500812D-02 0.100000000000D+01
0.787021938183D-03 0.000000000000D+00 0.198708224250D-03 0.198490764254D-06 0.000000000000D+00  6 2 -2 25 1 -1 21 2 0.35869111D+00 0.43297767D-01 0.37758781D+06 0.37758781D+06 0.37758781D+06 0.10772375D+01  1  2  6  1  6  1        2 0.257341288961D-02 0.100000000000D+01
0.507704963826D-09 0.000000000000D+00 0.000000000000D+00 0.198490764254D-06 0.000000000000D+00  6 21 -2 25 1 -1 -2 2 0.40996534D+00 0.43297767D-01 0.46923178D+06 0.46923178D+06 0.46923178D+06 0.10704653D+01  1  2 12  5  6  1        2 0.987608368181D-10 0.100000000000D+01
-.147737968540D-04 0.000000000000D+00 -.416606807839D-05 0.198490764254D-06 0.000000000000D+00  6 21 -2 25 1 -1 -2 2 0.41005493D+00 0.43297767D-01 0.37758781D+06 0.37758781D+06 0.37758781D+06 0.10772375D+01  1  2  5  5  6  1        2 -.298219608626D-05 0.100000000000D+01
  </mgrwgt>
  </event>
  <event>
  5     66 0.18881543E-05 0.32702212E+02 0.75467711E-02 0.93255509E-01
        2 -1    0    0  502    0 0.00000000E+00 0.00000000E+00 0.66249114E+03 0.66249122E+03 0.32000000E+00 0.0000E+00 0.9000E+01
       -2 -1    0    0    0  501 -.00000000E+00 -.00000000E+00 -.18899588E+04 0.18899588E+04 0.32000000E+00 0.0000E+00 0.9000E+01
       25  1    1    2    0    0 0.21268839E+03 0.48475815E+03 -.63258761E+03 0.83427747E+03 0.12500000E+03 0.0000E+00 0.9000E+01
        1  1    1    2  502    0 -.19573074E+03 -.51271832E+03 0.42725630E+03 0.69551323E+03 0.32000000E+00 0.0000E+00 0.9000E+01
       -1  1    1    2    0  501 -.16957647E+02 0.27960168E+02 -.10221363E+04 0.10226593E+04 0.32000000E+00 0.0000E+00 0.9000E+01
#aMCatNLO 1  0  0  4  1 0.21602797D+03 0.00000000D+00  -5  6  0 0.00000000D+00 0.00000000D+00 0.00000000D+00 0.00000000D+00 0.00000000D+00
  <mgrwgt>
 0.7292674263D-02    4    2    0
 0.111896428780567D+04 0.000000000000000D+00 0.000000000000000D+00 0.111896428780567D+04
 0.111896428780567D+04 -.000000000000000D+00 -.000000000000000D+00 -.111896428780567D+04
 0.604542985075166D+03 0.212687687634551D+03 0.484752573397828D+03 -.263867601111701D+03
 0.102759599954526D+04 -.195729083209560D+03 -.512713982056924D+03 0.868773869813481D+03
 0.605789590990927D+03 -.169586044249909D+02 0.279614086590966D+02 -.604906268701780D+03
 0.000000000000000D+00 0.000000000000000D+00 0.000000000000000D+00 0.000000000000000D+00
 0.111896428780567D+04 0.000000000000000D+00 0.000000000000000D+00 0.111896428780567D+04
 0.111896428780567D+04 -.000000000000000D+00 -.000000000000000D+00 -.111896428780567D+04
 0.572872575363732D+03 0.205384873558030D+03 0.465622790414142D+03 -.231452929046870D+03
 0.263682067765391D+03 -.209041194549002D+03 -.155697244960616D+03 0.398544822351632D+02
 0.573034777221066D+03 -.242701565049686D+02 0.880873640175863D+01 -.572452811654398D+03
 0.828339155261160D+03 0.279264774959409D+02 -.318734281855284D+03 0.764051258466104D+03
0.719753668761D-01 0.000000000000D+00 0.000000000000D+00 0.154609845565D-03 0.000000000000D+00  6 2 -2 25 1 -1 21 0 0.10192172D+00 0.29076289D+00 0.31664439D+06 0.31664439D+06 0.31664439D+06 0.10828211D+01  1  2  2  3  6  4        1 0.125821398242D-01 0.100000000000D+01
0.394491056594D-01 0.000000000000D+00 -.276404360353D-03 0.154609845565D-03 0.000000000000D+00  6 2 -2 25 1 -1 21 2 0.10192172D+00 0.29076289D+00 0.31664439D+06 0.31664439D+06 0.31664439D+06 0.10828211D+01  1  2  3  3  6  4        1 0.808576727436D-02 0.100000000000D+01
-.458970345651D-01 0.000000000000D+00 0.000000000000D+00 0.154609845565D-03 0.000000000000D+00  6 2 -2 25 1 -1 21 2 0.10192172D+00 0.29076289D+00 0.31664439D+06 0.31664439D+06 0.31664439D+06 0.10828211D+01  1  2 15  3  6  4        1 -.940738031632D-02 0.100000000000D+01
-.193584885585D-01 0.000000000000D+00 0.000000000000D+00 0.154609845565D-03 0.000000000000D+00  6 2 -2 25 1 -1 21 2 0.10192172D+00 0.29076289D+00 0.31664439D+06 0.31664439D+06 0.31664439D+06 0.10828211D+01  1  2  5  3  6  4        1 -.396785251910D-02 0.100000000000D+01
  </mgrwgt>
  </event>
  <event>
  5     66 0.18881543E-05 0.13522682E+03 0.75467711E-02 0.90327853E-01
        2 -1    0    0  502    0 0.00000000E+00 0.00000000E+00 0.12183822E+04 0.12183823E+04 0.32000000E+00 0.0000E+00 0.9000E+01
       -2 -1    0    0    0  501 0.00000000E+00 0.00000000E+00 -.15520497E+04 0.15520497E+04 0.32000000E+00 0.0000E+00 0.9000E+01
       25  1    1    2    0    0 0.40353293E+03 0.48979774E+03 -.16003048E+03 0.66631479E+03 0.12500000E+03 0.0000E+00 0.9000E+01
        1  1    1    2  502    0 -.12643663E+03 -.47984975E+02 0.90021973E+03 0.91032106E+03 0.32000000E+00 0.0000E+00 0.9000E+01
       -1  1    1    2    0  501 -.27709630E+03 -.44181276E+03 -.10738567E+04 0.11937962E+04 0.32000000E+00 0.0000E+00 0.9000E+01
#aMCatNLO 1  0  0  2  5 0.12724250D+03 0.00000000D+00  -5  6  0 0.00000000D+00 0.00000000D+00 0.00000000D+00 0.00000000D+00 0.00000000D+00
  <mgrwgt>
 0.2172762505D-02   11    4    0
 0.137513268132848D+04 0.000000000000000D+00 0.000000000000000D+00 0.137513268132848D+04
 0.137513268132848D+04 0.000000000000000D+00 0.000000000000000D+00 -.137513268132848D+04
 0.651823423248999D+03 0.403556602504389D+03 0.489840973329057D+03 -.802911235392825D+02
 0.102614265277914D+04 -.126428035945803D+03 -.479817116465173D+02 0.101719341864119D+04
 0.107229928662882D+04 -.277128566558586D+03 -.441859261682540D+03 -.936902295101912D+03
 0.000000000000000D+00 0.000000000000000D+00 0.000000000000000D+00 -.000000000000000D+00
 0.138011757776207D+04 0.000000000000000D+00 0.000000000000000D+00 0.138011757776207D+04
 0.252848870430324D+04 0.000000000000000D+00 0.000000000000000D+00 -.252848870430324D+04
 0.624804807305785D+03 0.393364616671247D+03 0.462140304522665D+03 -.802911235392825D+02
 0.103134341307651D+04 -.142854015203661D+03 -.926256719788578D+02 0.101719341864119D+04
 0.109705904018440D+04 -.294447680146009D+03 -.488930660461907D+03 -.936902295101912D+03
 0.115539902149862D+04 0.439370786784233D+02 0.119416027918099D+03 -.114837112654117D+04
 0.137513268132848D+04 0.000000000000000D+00 0.000000000000000D+00 0.137513268132848D+04
 0.137513268132848D+04 0.000000000000000D+00 0.000000000000000D+00 -.137513268132848D+04
 0.651823423248999D+03 0.403556602504389D+03 0.489840973329057D+03 -.802911235392825D+02
 0.102614265277914D+04 -.126428035945803D+03 -.479817116465173D+02 0.101719341864119D+04
 0.000000000000000D+00 0.000000000000000D+00 0.000000000000000D+00 -.000000000000000D+00
 0.107229928662882D+04 -.277128566558586D+03 -.441859261682540D+03 -.936902295101912D+03
 0.138011757776207D+04 0.000000000000000D+00 0.000000000000000D+00 0.138011757776207D+04
 0.252848870430324D+04 0.000000000000000D+00 0.000000000000000D+00 -.252848870430324D+04
 0.624804807305785D+03 0.393364616671247D+03 0.462140304522665D+03 -.802911235392825D+02
 0.103134341307651D+04 -.142854015203661D+03 -.926256719788578D+02 0.101719341864119D+04
 0.115539902149862D+04 0.439370786784233D+02 0.119416027918099D+03 -.114837112654117D+04
 0.109705904018440D+04 -.294447680146009D+03 -.488930660461907D+03 -.936902295101912D+03
0.781915332836D-03 0.000000000000D+00 0.000000000000D+00 0.281336151156D-04 0.000000000000D+00  6 2 -2 25 1 -1 21 0 0.18744343D+00 0.23877689D+00 0.42488276D+06 0.42488276D+06 0.42488276D+06 0.10735433D+01  1  2  2  2  6  2       -2 0.125032752645D-03 0.100000000000D+01
0.179316428475D-03 0.000000000000D+00 -.300276076112D-05 0.281336151156D-04 0.000000000000D+00  6 2 -2 25 1 -1 21 2 0.18744343D+00 0.23877689D+00 0.42488276D+06 0.42488276D+06 0.42488276D+06 0.10735433D+01  1  2  3  2  6  2       -2 0.330463339618D-04 0.100000000000D+01
-.508525542296D-03 0.000000000000D+00 0.000000000000D+00 0.281336151156D-04 0.000000000000D+00  6 2 -2 25 1 -1 21 2 0.18744343D+00 0.23877689D+00 0.42488276D+06 0.42488276D+06 0.42488276D+06 0.10735433D+01  1  2 15  2  6  2       -2 -.937164823198D-04 0.100000000000D+01
0.135222344599D-08 0.000000000000D+00 0.000000000000D+00 0.281336151156D-04 0.000000000000D+00  6 2 -2 25 1 -1 21 2 0.18744343D+00 0.43913576D+00 0.55343882D+06 0.55343882D+06 0.55343882D+06 0.10654076D+01  1  2 12  2  6  2       -2 0.980277739460D-11 0.100000000000D+01
0.337073316441D-01 0.000000000000D+00 0.000000000000D+00 0.281336151156D-04 0.000000000000D+00  6 2 -2 25 1 -1 21 2 0.18744343D+00 0.44968843D+00 0.55343882D+06 0.55343882D+06 0.55343882D+06 0.10654076D+01  1  2 12  2  6  2       -2 0.197788278204D-03 0.100000000000D+01
-.182519895957D-01 0.000000000000D+00 0.000000000000D+00 0.281336151156D-04 0.000000000000D+00  6 2 -2 25 1 -1 21 2 0.18744343D+00 0.23877689D+00 0.42488276D+06 0.42488276D+06 0.42488276D+06 0.10735433D+01  1  2  4  2  6  2       -2 -.336367029377D-02 0.100000000000D+01
-.357374090143D-01 0.000000000000D+00 -.403478089866D-03 0.281336151156D-04 0.000000000000D+00  6 2 -2 25 1 -1 21 2 0.18744343D+00 0.43936189D+00 0.42488276D+06 0.42488276D+06 0.42488276D+06 0.10735433D+01  1  2  5  2  6  2       -2 -.269935432055D-03 0.100000000000D+01
0.302480744571D-01 0.000000000000D+00 0.338557218138D-03 0.281336151156D-04 0.000000000000D+00  6 2 -2 25 1 -1 21 2 0.18744343D+00 0.23877689D+00 0.42488276D+06 0.42488276D+06 0.42488276D+06 0.10735433D+01  1  2  6  2  6  2       -2 0.557443608882D-02 0.100000000000D+01
0.899665483924D-10 0.000000000000D+00 0.000000000000D+00 0.281336151156D-04 0.000000000000D+00  6 2 21 25 1 2 -1 2 0.18744343D+00 0.43913576D+00 0.55343882D+06 0.55343882D+06 0.55343882D+06 0.10654076D+01  3  4 12  6  5  2       -2 0.511145080427D-11 0.100000000000D+01
0.232118633338D-02 0.000000000000D+00 0.000000000000D+00 0.281336151156D-04 0.000000000000D+00  6 2 21 25 1 2 -1 2 0.18744343D+00 0.44968843D+00 0.55343882D+06 0.55343882D+06 0.55343882D+06 0.10654076D+01  3  4 12  6  5  2       -2 0.110460218475D-03 0.100000000000D+01
-.235734001230D-02 0.000000000000D+00 -.268645004269D-04 0.281336151156D-04 0.000000000000D+00  6 2 21 25 1 2 -1 2 0.18744343D+00 0.43936189D+00 0.42488276D+06 0.42488276D+06 0.42488276D+06 0.10735433D+01  3  4  5  6  5  2       -2 -.140678974334D-03 0.100000000000D+01
  </mgrwgt>
  </event>
  <event>
  6     66 0.18881543E-05 0.18458417E+03 0.75467711E-02 0.94576444E-01
        2 -1    0    0  502    0 0.00000000E+00 0.00000000E+00 0.14906706E+04 0.14906706E+04 0.32000000E+00 0.0000E+00 0.9000E+01
       -2 -1    0    0    0  501 0.00000000E+00 0.00000000E+00 -.36326080E+03 0.36326094E+03 0.32000000E+00 0.0000E+00 0.9000E+01
       25  1    1    2    0    0 0.14040332E+03 -.44742357E+03 0.50526289E+03 0.70058300E+03 0.12500000E+03 0.0000E+00 0.9000E+01
        1  1    1    2  502    0 0.15667633E+02 0.25579083E+02 0.65514612E+03 0.65583253E+03 0.32000000E+00 0.0000E+00 0.9000E+01
       -1  1    1    2    0  503 0.46957660E+01 0.26249391E+03 -.60714399E+02 0.26946510E+03 0.32000000E+00 0.0000E+00 0.9000E+01
       21  1    1    2  503  501 -.16076672E+03 0.15935058E+03 0.27715185E+02 0.22805096E+03 0.75000000E+00 0.0000E+00 0.9000E+01
#aMCatNLO 2  0  0  5  2 0.13110781D+03 0.00000000D+00  -5  6  0 0.00000000D+00 0.00000000D+00 0.00000000D+00 0.00000000D+00 0.00000000D+00
  <mgrwgt>
 0.1647369653D-02    1    2    0
 0.735868442287249D+03 0.000000000000000D+00 0.000000000000000D+00 0.735868442287249D+03
 0.735868442287249D+03 -.000000000000000D+00 -.000000000000000D+00 -.735868442287249D+03
 0.505493922476459D+03 0.143460082359801D+03 -.455667631175137D+03 0.108098660163737D+03
 0.329197698651436D+03 0.176355790840253D+02 0.202321691431915D+02 0.328101768479742D+03
 0.637045263446603D+03 -.161095661443826D+03 0.435435462031946D+03 -.436200428643479D+03
 0.000000000000000D+00 -.000000000000000D+00 0.000000000000000D+00 0.000000000000000D+00
 0.735868442287249D+03 0.000000000000000D+00 0.000000000000000D+00 0.735868442287249D+03
 0.735868442287249D+03 -.000000000000000D+00 -.000000000000000D+00 -.735868442287249D+03
 0.495552466717434D+03 0.140433635655156D+03 -.447487260534854D+03 0.999039183687009D+02
 0.324143317240772D+03 0.156603441839239D+02 0.255711541514698D+02 0.322753404021173D+03
 0.385727910683935D+03 0.478516629626961D+01 0.262361868241054D+03 -.282717833461518D+03
 0.266313189932358D+03 -.160879146135350D+03 0.159554238142331D+03 -.139939488928356D+03
0.274855542511D-03 0.000000000000D+00 0.000000000000D+00 0.321924173288D-04 0.421654816401D-08  6 2 -2 25 1 -1 21 2 0.22933395D+00 0.55886291D-01 0.25218033D+06 0.25218033D+06 0.25218033D+06 0.10901755D+01  1  2  1  4  6  5       -1 0.164736965306D-02 0.100000000000D+01
  </mgrwgt>
  </event>
  <event>
  5     66 0.18881543E-05 0.29330667E+02 0.75467711E-02 0.91966267E-01
        2 -1    0    0  502    0 0.00000000E+00 0.00000000E+00 0.18880542E+04 0.18880542E+04 0.32000000E+00 0.0000E+00 0.9000E+01
       -2 -1    0    0    0  501 0.00000000E+00 0.00000000E+00 -.42966022E+03 0.42966034E+03 0.32000000E+00 0.0000E+00 0.9000E+01
       25  1    1    2    0    0 0.21563041E+03 -.55161653E+03 0.57957923E+03 0.83804197E+03 0.12500000E+03 0.0000E+00 0.9000E+01
        1  1    1    2  502    0 0.10519591E+02 -.27391857E+02 0.85718783E+03 0.85768995E+03 0.32000000E+00 0.0000E+00 0.9000E+01
       -1  1    1    2    0  501 -.22615000E+03 0.57900839E+03 0.21626880E+02 0.62198260E+03 0.32000000E+00 0.0000E+00 0.9000E+01
#aMCatNLO 1  0  0  2  5 0.18702769D+02 0.00000000D+00  -5  6  0 0.00000000D+00 0.00000000D+00 0.00000000D+00 0.00000000D+00 0.00000000D+00
  <mgrwgt>
 0.5393572721D-02   11    4    0
 0.900678601211659D+03 0.000000000000000D+00 0.000000000000000D+00 0.900678601211659D+03
 0.900678601211659D+03 0.000000000000000D+00 0.000000000000000D+00 -.900678601211659D+03
 0.609154035566578D+03 0.215671118648799D+03 -.551720853160274D+03 0.673328138126114D+02
 0.409395786618628D+03 0.105153896886582D+02 -.273809169029908D+02 0.408343754783066D+03
 0.782807380238111D+03 -.226186508337457D+03 0.579101770063264D+03 -.475676568595677D+03
 0.000000000000000D+00 0.000000000000000D+00 -.000000000000000D+00 -.000000000000000D+00
 0.900912997080259D+03 0.000000000000000D+00 0.000000000000000D+00 0.900912997080259D+03
 0.137125586903726D+04 0.000000000000000D+00 0.000000000000000D+00 -.137125586903726D+04
 0.603304733088235D+03 0.215191986351324D+03 -.545445049625455D+03 0.673328138126114D+02
 0.409126080905040D+03 0.101919310498496D+02 -.231441687657897D+02 0.408343754783066D+03
 0.789023477488062D+03 -.226807655175251D+03 0.587237718194515D+03 -.475676568595677D+03
 0.470714574636185D+03 0.142373777407794D+01 -.186484998032700D+02 -.470342871957004D+03
 0.900678601211659D+03 0.000000000000000D+00 0.000000000000000D+00 0.900678601211659D+03
 0.900678601211659D+03 0.000000000000000D+00 0.000000000000000D+00 -.900678601211659D+03
 0.609154035566578D+03 0.215671118648799D+03 -.551720853160274D+03 0.673328138126114D+02
 0.409395786618628D+03 0.105153896886582D+02 -.273809169029908D+02 0.408343754783066D+03
 0.000000000000000D+00 0.000000000000000D+00 -.000000000000000D+00 -.000000000000000D+00
 0.782807380238111D+03 -.226186508337457D+03 0.579101770063264D+03 -.475676568595677D+03
 0.900912997080259D+03 0.000000000000000D+00 0.000000000000000D+00 0.900912997080259D+03
 0.137125586903726D+04 0.000000000000000D+00 0.000000000000000D+00 -.137125586903726D+04
 0.603304733088235D+03 0.215191986351324D+03 -.545445049625455D+03 0.673328138126114D+02
 0.409126080905040D+03 0.101919310498496D+02 -.231441687657897D+02 0.408343754783066D+03
 0.470714574636185D+03 0.142373777407794D+01 -.186484998032700D+02 -.470342871957004D+03
 0.789023477488062D+03 -.226807655175251D+03 0.587237718194515D+03 -.475676568595677D+03
0.432573346620D-04 0.000000000000D+00 0.000000000000D+00 0.191324793001D-04 0.000000000000D+00  6 2 -2 25 1 -1 21 0 0.29046988D+00 0.66101584D-01 0.39467207D+06 0.39467207D+06 0.39467207D+06 0.10758477D+01  1  2  2  2  6  2       -2 0.911511553271D-04 0.100000000000D+01
0.248102379115D-04 0.000000000000D+00 -.166119555020D-06 0.191324793001D-04 0.000000000000D+00  6 2 -2 25 1 -1 21 2 0.29046988D+00 0.66101584D-01 0.39467207D+06 0.39467207D+06 0.39467207D+06 0.10758477D+01  1  2  3  2  6  2       -2 0.605110842034D-04 0.100000000000D+01
-.302917028019D-04 0.000000000000D+00 0.000000000000D+00 0.191324793001D-04 0.000000000000D+00  6 2 -2 25 1 -1 21 2 0.29046988D+00 0.66101584D-01 0.39467207D+06 0.39467207D+06 0.39467207D+06 0.10758477D+01  1  2 15  2  6  2       -2 -.738801371209D-04 0.100000000000D+01
0.127977516816D-07 0.000000000000D+00 0.000000000000D+00 0.191324793001D-04 0.000000000000D+00  6 2 -2 25 1 -1 21 2 0.29046988D+00 0.10064262D+00 0.40515949D+06 0.40515949D+06 0.40515949D+06 0.10750266D+01  1  2 12  2  6  2       -2 0.119614432400D-07 0.100000000000D+01
0.276717737588D-01 0.000000000000D+00 0.000000000000D+00 0.191324793001D-04 0.000000000000D+00  6 2 -2 25 1 -1 21 2 0.29046988D+00 0.10069310D+00 0.40515949D+06 0.40515949D+06 0.40515949D+06 0.10750266D+01  1  2 12  2  6  2       -2 0.258319387053D-01 0.100000000000D+01
-.231851115568D-01 0.000000000000D+00 0.000000000000D+00 0.191324793001D-04 0.000000000000D+00  6 2 -2 25 1 -1 21 2 0.29046988D+00 0.66101584D-01 0.39467207D+06 0.39467207D+06 0.39467207D+06 0.10758477D+01  1  2  4  2  6  2       -2 -.565474721637D-01 0.100000000000D+01
-.277230108110D-01 0.000000000000D+00 -.333049332196D-04 0.191324793001D-04 0.000000000000D+00  6 2 -2 25 1 -1 21 2 0.29046988D+00 0.10064703D+00 0.39467207D+06 0.39467207D+06 0.39467207D+06 0.10758477D+01  1  2  5  2  6  2       -2 -.259928960156D-01 0.100000000000D+01
0.254565813979D-01 0.000000000000D+00 0.305637077198D-04 0.191324793001D-04 0.000000000000D+00  6 2 -2 25 1 -1 21 2 0.29046988D+00 0.66101584D-01 0.39467207D+06 0.39467207D+06 0.39467207D+06 0.10758477D+01  1  2  6  2  6  2       -2 0.620874876731D-01 0.100000000000D+01
0.631931198881D-09 0.000000000000D+00 0.000000000000D+00 0.191324793001D-04 0.000000000000D+00  6 2 21 25 1 2 -1 2 0.29046988D+00 0.10064262D+00 0.40515949D+06 0.40515949D+06 0.40515949D+06 0.10750266D+01  3  4 12  6  5  2       -2 0.538250647866D-08 0.100000000000D+01
0.136759535069D-02 0.000000000000D+00 0.000000000000D+00 0.191324793001D-04 0.000000000000D+00  6 2 21 25 1 2 -1 2 0.29046988D+00 0.10069310D+00 0.40515949D+06 0.40515949D+06 0.40515949D+06 0.10750266D+01  3  4 12  6  5  2       -2 0.116332824605D-01 0.100000000000D+01
-.136780618203D-02 0.000000000000D+00 -.164466824061D-05 0.191324793001D-04 0.000000000000D+00  6 2 21 25 1 2 -1 2 0.29046988D+00 0.10064703D+00 0.39467207D+06 0.39467207D+06 0.39467207D+06 0.10758477D+01  3  4  5  6  5  2       -2 -.116965673848D-01 0.100000000000D+01
  </mgrwgt>
  </event>
  <event>
  5     66 0.18881543E-05 0.17031647E+03 0.75467711E-02 0.95569756E-01
        2 -1    0    0  502    0 0.00000000E+00 0.00000000E+00 0.13314379E+04 0.13314380E+04 0.32000000E+00 0.0000E+00 0.9000E+01
       -2 -1    0    0    0  501 0.00000000E+00 0.00000000E+00 -.93302719E+03 0.93302725E+03 0.32000000E+00 0.0000E+00 0.9000E+01
       25  1    1    2    0    0 0.11461057E+03 0.43583825E+03 0.16003749E+03 0.49429502E+03 0.12500000E+03 0.0000E+00 0.9000E+01
        1  1    1    2  502    0 -.94238479E+02 -.26676639E+03 0.97442922E+03 0.10146712E+04 0.32000000E+00 0.0000E+00 0.9000E+01
       -1  1    1    2    0  501 -.20372095E+02 -.16907186E+03 -.73605596E+03 0.75549903E+03 0.32000000E+00 0.0000E+00 0.9000E+01
#aMCatNLO 1  0  0  4  4 0.31283292D+02 0.00000000D+00  -5  6  0 0.00000000D+00 0.00000000D+00 0.00000000D+00 0.00000000D+00 0.00000000D+00
  <mgrwgt>
 0.1962053336D-02    6    2    0
 0.111457073019054D+04 0.000000000000000D+00 0.000000000000000D+00 0.111457073019054D+04
 0.111457073019054D+04 -.000000000000000D+00 -.000000000000000D+00 -.111457073019054D+04
 0.473541381959675D+03 0.114606961756881D+03 0.435841225341738D+03 0.743243636888166D+02
 0.856532430246247D+03 -.942319420075040D+02 -.266747884770095D+03 0.808463797049513D+03
 0.899067648175168D+03 -.203750197493769D+02 -.169093340571643D+03 -.882788160738329D+03
 0.000000000000000D+00 0.000000000000000D+00 0.000000000000000D+00 -.000000000000000D+00
 0.111457073019054D+04 0.000000000000000D+00 0.000000000000000D+00 0.111457073019054D+04
 0.111457073019054D+04 -.000000000000000D+00 -.000000000000000D+00 -.111457073019054D+04
 0.468352589258027D+03 0.109857328957483D+03 0.422396161219287D+03 0.115073881164390D+03
 0.829524550155108D+03 -.104529616138545D+03 -.230852945411321D+03 0.789867999259927D+03
 0.831351234399398D+03 -.291009002970013D+02 -.193794202394590D+03 -.807924389814759D+03
 0.999130865685564D+02 0.237731874780633D+02 0.225098658662483D+01 -.970174906095573D+02
0.105410910767D-01 0.000000000000D+00 0.000000000000D+00 0.784628989861D-04 0.000000000000D+00  6 2 -2 25 1 -1 21 0 0.20483661D+00 0.14354265D+00 0.21201038D+06 0.21201038D+06 0.21201038D+06 0.10958855D+01  1  2  2  3  6  4        1 0.722239182430D-02 0.100000000000D+01
0.145780790930D-02 0.000000000000D+00 -.404805652676D-04 0.784628989861D-04 0.000000000000D+00  6 2 -2 25 1 -1 21 2 0.20483661D+00 0.14354265D+00 0.21201038D+06 0.21201038D+06 0.21201038D+06 0.10958855D+01  1  2  3  3  6  4        1 0.119957146157D-02 0.100000000000D+01
-.737507655043D-02 0.000000000000D+00 0.000000000000D+00 0.784628989861D-04 0.000000000000D+00  6 2 -2 25 1 -1 21 2 0.20483661D+00 0.14354265D+00 0.21201038D+06 0.21201038D+06 0.21201038D+06 0.10958855D+01  1  2 15  3  6  4        1 -.606865369595D-02 0.100000000000D+01
-.462472440994D-03 0.000000000000D+00 0.000000000000D+00 0.784628989861D-04 0.000000000000D+00  6 2 -2 25 1 -1 21 2 0.20483661D+00 0.14354265D+00 0.21201038D+06 0.21201038D+06 0.21201038D+06 0.10958855D+01  1  2  4  3  6  4        1 -.380549960278D-03 0.100000000000D+01
0.105438447806D-03 0.000000000000D+00 0.000000000000D+00 0.784628989861D-04 0.000000000000D+00  6 2 -2 25 1 -1 21 2 0.20483661D+00 0.14354265D+00 0.21201038D+06 0.21201038D+06 0.21201038D+06 0.10958855D+01  1  2  5  3  6  4        1 0.867610555089D-04 0.100000000000D+01
-.118449526953D-03 0.000000000000D+00 0.000000000000D+00 0.784628989861D-04 0.000000000000D+00  6 2 -2 25 1 -1 21 2 0.20483661D+00 0.14354265D+00 0.21201038D+06 0.21201038D+06 0.21201038D+06 0.10958855D+01  1  2  6  3  6  4        1 -.974673489301D-04 0.100000000000D+01
  </mgrwgt>
  </event>
  <event>
  5     66 0.18881543E-05 0.25223282E+03 0.75467711E-02 0.93741661E-01
        2 -1    0    0  502    0 0.00000000E+00 0.00000000E+00 0.43714629E+04 0.43714629E+04 0.32000000E+00 0.0000E+00 0.9000E+01
       -2 -1    0    0    0  501 0.00000000E+00 0.00000000E+00 -.65364523E+03 0.65364531E+03 0.32000000E+00 0.0000E+00 0.9000E+01
       25  1    1    2    0    0 0.20935679E+03 -.41019807E+03 0.55800207E+03 0.73422342E+03 0.12500000E+03 0.0000E+00 0.9000E+01
        1  1    1    2  502    0 -.30490719E+03 0.17678429E+03 0.36884053E+04 0.37052065E+04 0.32000000E+00 0.0000E+00 0.9000E+01
       -1  1    1    2    0  501 0.95550394E+02 0.23341379E+03 -.52858973E+03 0.58567831E+03 0.32000000E+00 0.0000E+00 0.9000E+01
#aMCatNLO 1  0  0  2  4 0.22289795D+03 0.00000000D+00  -5  6  0 0.00000000D+00 0.00000000D+00 0.00000000D+00 0.00000000D+00 0.00000000D+00
  <mgrwgt>
 0.2267074126D-02    4    2    0
 0.169038045873663D+04 0.000000000000000D+00 0.000000000000000D+00 0.169038045873663D+04
 0.169038045873663D+04 0.000000000000000D+00 0.000000000000000D+00 -.169038045873663D+04
 0.477712480627567D+03 0.209343690730450D+03 -.410211867964777D+03 0.220376196433623D+02
 0.145119034622344D+04 -.304899896847735D+03 0.176780060375021D+03 0.140774226480849D+04
 0.145185809062226D+04 0.955562061172855D+02 0.233431807589756D+03 -.142977988445185D+04
 0.000000000000000D+00 0.000000000000000D+00 -.000000000000000D+00 0.000000000000000D+00
 0.188407893228271D+04 0.000000000000000D+00 0.000000000000000D+00 0.188407893228271D+04
 0.175941369148313D+04 0.000000000000000D+00 0.000000000000000D+00 -.175941369148313D+04
 0.455809866184133D+03 0.180847674009190D+03 -.398680443760058D+03 0.220376196433623D+02
 0.147734767497700D+04 -.394294295070756D+03 0.212955106786546D+03 0.140774226480849D+04
 0.145494338392994D+04 0.682532173393487D+01 0.269338351226814D+03 -.142977988445185D+04
 0.255391698674757D+03 0.206621299327631D+03 -.836130142533021D+02 0.124665240799577D+03
0.377560438614D+00 0.000000000000D+00 0.000000000000D+00 0.764523540039D-04 0.000000000000D+00  6 2 -2 25 1 -1 21 0 0.67253276D+00 0.10056081D+00 0.29261522D+06 0.29261522D+06 0.29261522D+06 0.10853536D+01  1  2  2  2  6  2       -2 0.643247745333D-02 0.100000000000D+01
0.424097414391D-01 0.000000000000D+00 -.144993149822D-02 0.764523540039D-04 0.000000000000D+00  6 2 -2 25 1 -1 21 2 0.67253276D+00 0.10056081D+00 0.29261522D+06 0.29261522D+06 0.29261522D+06 0.10853536D+01  1  2  3  2  6  2       -2 0.851137889108D-03 0.100000000000D+01
-.247453266088D+00 0.000000000000D+00 0.000000000000D+00 0.764523540039D-04 0.000000000000D+00  6 2 -2 25 1 -1 21 2 0.67253276D+00 0.10056081D+00 0.29261522D+06 0.29261522D+06 0.29261522D+06 0.10853536D+01  1  2 15  2  6  2       -2 -.496623755307D-02 0.100000000000D+01
-.250648617961D-02 0.000000000000D+00 0.000000000000D+00 0.764523540039D-04 0.000000000000D+00  6 2 -2 25 1 -1 21 2 0.67253276D+00 0.10056081D+00 0.29261522D+06 0.29261522D+06 0.29261522D+06 0.10853536D+01  1  2  4  2  6  2       -2 -.503036633472D-04 0.100000000000D+01
  </mgrwgt>
  </event>
  <event>
  5     66 0.18881543E-05 0.54505006E+02 0.75467711E-02 0.89121347E-01
        2 -1    0    0  502    0 0.00000000E+00 0.00000000E+00 0.13330889E+04 0.13330889E+04 0.32000000E+00 0.0000E+00 0.9000E+01
       -2 -1    0    0    0  501 -.00000000E+00 -.00000000E+00 -.15843751E+04 0.15843752E+04 0.32000000E+00 0.0000E+00 0.9000E+01
       25  1    1    2    0    0 0.43974396E+03 -.40093158E+03 -.15125506E+03 0.62659714E+03 0.12500000E+03 0.0000E+00 0.9000E+01
        1  1    1    2  502    0 -.44319722E+03 0.34654058E+03 0.10224771E+04 0.11670363E+04 0.32000000E+00 0.0000E+00 0.9000E+01
       -1  1    1    2    0  501 0.34532631E+01 0.54391007E+02 -.11225083E+04 0.11238306E+04 0.32000000E+00 0.0000E+00 0.9000E+01
#aMCatNLO 1  0  0  4  5 0.16238075D+03 0.00000000D+00  -5  6  0 0.00000000D+00 0.00000000D+00 0.00000000D+00 0.00000000D+00 0.00000000D+00
  <mgrwgt>
 0.2507816889D-02    4    2    0
 0.145331103246552D+04 0.000000000000000D+00 0.000000000000000D+00 0.145331103246552D+04
 0.145331103246552D+04 -.000000000000000D+00 -.000000000000000D+00 -.145331103246552D+04
 0.615835208662795D+03 0.439733256868220D+03 -.400927789455439D+03 -.975683077397124D+02
 0.125975553728305D+04 -.443186630688183D+03 0.346532293876860D+03 0.112715792744185D+04
 0.103103131898520D+04 0.345337381996230D+01 0.543954955785786D+02 -.102958961970214D+04
 0.000000000000000D+00 0.000000000000000D+00 -.000000000000000D+00 0.000000000000000D+00
 0.145331103246552D+04 0.000000000000000D+00 0.000000000000000D+00 0.145331103246552D+04
 0.145331103246552D+04 -.000000000000000D+00 -.000000000000000D+00 -.145331103246552D+04
 0.576665117713871D+03 0.413669352272831D+03 -.380548147964894D+03 -.312798986350381D+02
 0.111552352395409D+04 -.574639733104293D+03 0.464760704282429D+03 0.835571300002390D+03
 0.925827463876698D+03 -.393167449758384D+02 0.878379018909716D+02 -.920812244393099D+03
 0.288605959386387D+03 0.200287125807300D+03 -.172050458208507D+03 0.116520843025747D+03
0.250697158824D-01 0.000000000000D+00 0.000000000000D+00 0.299178664437D-03 0.000000000000D+00  6 2 -2 25 1 -1 21 0 0.20509060D+00 0.24375003D+00 0.37524480D+06 0.37524480D+06 0.37524480D+06 0.10774335D+01  1  2  2  3  6  4        1 0.322974814025D-02 0.100000000000D+01
0.120483424626D-01 0.000000000000D+00 -.962743099963D-04 0.299178664437D-03 0.000000000000D+00  6 2 -2 25 1 -1 21 2 0.20509060D+00 0.24375003D+00 0.37524480D+06 0.37524480D+06 0.37524480D+06 0.10774335D+01  1  2  3  3  6  4        1 0.180188672279D-02 0.100000000000D+01
-.163014195685D-01 0.000000000000D+00 0.000000000000D+00 0.299178664437D-03 0.000000000000D+00  6 2 -2 25 1 -1 21 2 0.20509060D+00 0.24375003D+00 0.37524480D+06 0.37524480D+06 0.37524480D+06 0.10774335D+01  1  2 15  3  6  4        1 -.243795456298D-02 0.100000000000D+01
-.574126980138D-03 0.000000000000D+00 0.000000000000D+00 0.299178664437D-03 0.000000000000D+00  6 2 -2 25 1 -1 21 2 0.20509060D+00 0.24375003D+00 0.37524480D+06 0.37524480D+06 0.37524480D+06 0.10774335D+01  1  2  4  3  6  4        1 -.858634111633D-04 0.100000000000D+01
  </mgrwgt>
  </event>
  <event>
  5     66 0.18881543E-05 0.52299176E+02 0.75467711E-02 0.74414730E-01
        2 -1    0    0  502    0 0.00000000E+00 0.00000000E+00 0.97183021E+03 0.97183026E+03 0.32000000E+00 0.0000E+00 0.9000E+01
       -2 -1    0    0    0  501 0.00000000E+00 0.00000000E+00 -.93894810E+03 0.93894816E+03 0.32000000E+00 0.0000E+00 0.9000E+01
       25  1    1    2    0    0 0.18484648E+03 -.43859523E+03 -.46187645E+03 0.67489914E+03 0.12500000E+03 0.0000E+00 0.9000E+01
        1  1    1    2  502    0 -.24916069E+02 -.45989265E+02 0.68817479E+03 0.69015974E+03 0.32000000E+00 0.0000E+00 0.9000E+01
       -1  1    1    2    0  501 -.15993041E+03 0.48458450E+03 -.19341623E+03 0.54571954E+03 0.32000000E+00 0.0000E+00 0.9000E+01
#aMCatNLO 1  0  0  1  2 0.33123866D+02 0.00000000D+00  -5  6  0 0.00000000D+00 0.00000000D+00 0.00000000D+00 0.00000000D+00 0.00000000D+00
  <mgrwgt>
 0.1488901367D-01    5    2    0
 0.955247733072760D+03 0.000000000000000D+00 0.000000000000000D+00 0.955247733072760D+03
 0.955247733072760D+03 0.000000000000000D+00 0.000000000000000D+00 -.955247733072760D+03
 0.682983173358828D+03 0.184870443617059D+03 -.438662515012288D+03 -.473538944640481D+03
 0.678340718076640D+03 -.249132495122270D+02 -.459840607660936D+02 0.676321614289336D+03
 0.549171574710052D+03 -.159957194104832D+03 0.484646575778381D+03 -.202782669648855D+03
 0.000000000000000D+00 0.000000000000000D+00 -.000000000000000D+00 0.000000000000000D+00
 0.534315811899027D+04 0.000000000000000D+00 0.000000000000000D+00 0.534315811899027D+04
 0.468634190613288D+04 0.000000000000000D+00 0.000000000000000D+00 -.468634190613288D+04
 0.105467680713178D+04 -.932145048369759D+03 -.598718983347848D+02 -.473538944640481D+03
 0.185972839733508D+04 -.165645368520076D+04 0.507286876120817D+03 0.676321614289336D+03
 0.226080073215014D+04 -.196628445838963D+04 0.109718939480662D+04 -.202782669648855D+03
 0.485429408850615D+04 0.455488319196014D+04 -.154460437259266D+04 0.656816212857390D+03
0.182767920792D-01 0.000000000000D+00 0.000000000000D+00 0.980366154897D-05 0.000000000000D+00  6 2 -2 25 1 -1 21 0 0.14951235D+00 0.14445356D+00 0.27816444D+06 0.27816444D+06 0.27816444D+06 0.10869884D+01  1  2  2  1  6  1        2 0.197271544599D-01 0.100000000000D+01
0.752954278922D-02 0.000000000000D+00 -.701876939742D-04 0.980366154897D-05 0.000000000000D+00  6 2 -2 25 1 -1 21 2 0.14951235D+00 0.14445356D+00 0.27816444D+06 0.27816444D+06 0.27816444D+06 0.10869884D+01  1  2  3  1  6  1        2 0.960246848411D-02 0.100000000000D+01
-.113234545826D-01 0.000000000000D+00 0.000000000000D+00 0.980366154897D-05 0.000000000000D+00  6 2 -2 25 1 -1 21 2 0.14951235D+00 0.14445356D+00 0.27816444D+06 0.27816444D+06 0.27816444D+06 0.10869884D+01  1  2 15  1  6  1        2 -.144408656414D-01 0.100000000000D+01
0.487534581204D-01 0.000000000000D+00 -.163185522334D-01 0.980366154897D-05 0.000000000000D+00  6 2 -2 25 1 -1 21 2 0.94027500D+00 0.14445356D+00 0.27816444D+06 0.27816444D+06 0.27816444D+06 0.10869884D+01  1  2  5  1  6  1        2 0.256247361913D-06 0.100000000000D+01
0.979148765587D-02 0.000000000000D+00 -.367702836372D-02 0.980366154897D-05 0.000000000000D+00  6 21 -2 25 1 -1 -2 2 0.94027500D+00 0.14445356D+00 0.27816444D+06 0.27816444D+06 0.27816444D+06 0.10869884D+01  1  2  5  5  6  1        2 0.115620262138D-09 0.100000000000D+01
  </mgrwgt>
  </event>
  <event>
  5     66 0.18881543E-05 0.37869261E+02 0.75467711E-02 0.94664441E-01
        2 -1    0    0  502    0 0.00000000E+00 0.00000000E+00 0.10967945E+04 0.10967945E+04 0.32000000E+00 0.0000E+00 0.9000E+01
       -2 -1    0    0    0  501 0.00000000E+00 0.00000000E+00 -.32959842E+03 0.32959857E+03 0.32000000E+00 0.0000E+00 0.9000E+01
       25  1    1    2    0    0 -.37124409E+03 -.31982460E+03 0.24832988E+03 0.56338501E+03 0.12500000E+03 0.0000E+00 0.9000E+01
        1  1    1    2  502    0 0.23799335E+02 0.29499395E+02 0.39057105E+03 0.39240600E+03 0.32000000E+00 0.0000E+00 0.9000E+01
       -1  1    1    2    0  501 0.34744475E+03 0.29032521E+03 0.12829514E+03 0.47060209E+03 0.32000000E+00 0.0000E+00 0.9000E+01
#aMCatNLO 1  0  0  4  1 0.13831241D+01 0.00000000D+00  -5  6  0 0.00000000D+00 0.00000000D+00 0.00000000D+00 0.00000000D+00 0.00000000D+00
  <mgrwgt>
 0.2249835929D-01    9    2    0
 0.601250257723923D+03 0.000000000000000D+00 0.000000000000000D+00 0.601250257723923D+03
 0.601250257723923D+03 -.000000000000000D+00 -.000000000000000D+00 -.601250257723923D+03
 0.509926939427406D+03 -.371323945422860D+03 -.319887454265007D+03 -.647381472800681D+02
 0.216091537857074D+03 0.237782719655219D+02 0.294732882574889D+02 0.212747436635697D+03
 0.476482038163366D+03 0.347545673457338D+03 0.290414166007518D+03 -.148009289355629D+03
 0.000000000000000D+00 0.000000000000000D+00 0.000000000000000D+00 0.000000000000000D+00
 0.601250257723923D+03 0.000000000000000D+00 0.000000000000000D+00 0.601250257723923D+03
 0.601250257723923D+03 -.000000000000000D+00 -.000000000000000D+00 -.601250257723923D+03
 0.509924755828027D+03 -.371323118798462D+03 -.319886429659888D+03 -.647307513590348D+02
 0.110449744910267D+03 0.116512072802446D+02 0.137953438726078D+02 0.108963682055501D+03
 0.476481038431584D+03 0.347546445866241D+03 0.290415123412257D+03 -.148002378508007D+03
 0.105644976277969D+03 0.121254656519757D+02 0.156759623750236D+02 0.103769447811541D+03
0.610902269039D-05 0.000000000000D+00 0.000000000000D+00 0.273155725365D-05 0.000000000000D+00  6 2 -2 25 1 -1 21 0 0.16873763D+00 0.50707465D-01 0.24829346D+06 0.24829346D+06 0.24829346D+06 0.10906830D+01  1  2  2  3  6  4        1 0.627374021309D-04 0.100000000000D+01
0.204335897296D-05 0.000000000000D+00 -.234602556737D-07 0.273155725365D-05 0.000000000000D+00  6 2 -2 25 1 -1 21 2 0.16873763D+00 0.50707465D-01 0.24829346D+06 0.24829346D+06 0.24829346D+06 0.10906830D+01  1  2  3  3  6  4        1 0.249629854091D-04 0.100000000000D+01
-.420093074750D-05 0.000000000000D+00 0.000000000000D+00 0.273155725365D-05 0.000000000000D+00  6 2 -2 25 1 -1 21 2 0.16873763D+00 0.50707465D-01 0.24829346D+06 0.24829346D+06 0.24829346D+06 0.10906830D+01  1  2 15  3  6  4        1 -.513212677470D-04 0.100000000000D+01
0.300801069024D-10 0.000000000000D+00 0.000000000000D+00 0.273155725365D-05 0.000000000000D+00  6 2 -2 25 1 -1 21 2 0.16873763D+00 0.50707465D-01 0.24829651D+06 0.24829651D+06 0.24829651D+06 0.10906826D+01  1  2 12  3  6  4        1 0.367477480767D-09 0.100000000000D+01
0.729589419535D-06 0.000000000000D+00 0.000000000000D+00 0.273155725365D-05 0.000000000000D+00  6 2 -2 25 1 -1 21 2 0.16873763D+00 0.50707465D-01 0.24829651D+06 0.24829651D+06 0.24829651D+06 0.10906826D+01  1  2 12  3  6  4        1 0.891312264130D-05 0.100000000000D+01
-.939698185553D-02 0.000000000000D+00 0.000000000000D+00 0.273155725365D-05 0.000000000000D+00  6 2 -2 25 1 -1 21 2 0.16873763D+00 0.50707465D-01 0.24829346D+06 0.24829346D+06 0.24829346D+06 0.10906830D+01  1  2  4  3  6  4        1 -.114799564860D+00 0.100000000000D+01
-.662612458771D-02 0.000000000000D+00 0.000000000000D+00 0.273155725365D-05 0.000000000000D+00  6 2 -2 25 1 -1 21 2 0.16873763D+00 0.50707465D-01 0.24829346D+06 0.24829346D+06 0.24829346D+06 0.10906830D+01  1  2  5  3  6  4        1 -.809489930995D-01 0.100000000000D+01
0.122033965404D-01 0.000000000000D+00 -.000000000000D+00 0.273155725365D-05 0.000000000000D+00  6 2 -2 25 1 -1 21 2 0.16873763D+00 0.50707465D-01 0.24829346D+06 0.24829346D+06 0.24829346D+06 0.10906830D+01  1  2  6  3  6  4        1 0.149084528862D+00 0.100000000000D+01
0.565762458558D-02 0.000000000000D+00 0.000000000000D+00 0.273155725365D-05 0.249378624870D-05  6 2 -2 25 1 -1 21 2 0.16873763D+00 0.50707465D-01 0.24829651D+06 0.24829651D+06 0.24829651D+06 0.10906826D+01  1  2 11  3  6  4        1 0.691170957796D-01 0.100000000000D+01
  </mgrwgt>
  </event>
  <event>
  5     66 0.18881543E-05 0.33713233E+02 0.75467711E-02 0.87105468E-01
        2 -1    0    0  502    0 0.00000000E+00 0.00000000E+00 0.13155583E+04 0.13155584E+04 0.32000000E+00 0.0000E+00 0.9000E+01
       -2 -1    0    0    0  501 -.00000000E+00 -.00000000E+00 -.18289180E+04 0.18289180E+04 0.32000000E+00 0.0000E+00 0.9000E+01
       25  1    1    2    0    0 0.70359722E+03 0.38900456E+03 -.90241220E+01 0.81368300E+03 0.12500000E+03 0.0000E+00 0.9000E+01
        1  1    1    2  502    0 -.67755652E+03 -.36759766E+03 0.75029459E+03 0.10757104E+04 0.32000000E+00 0.0000E+00 0.9000E+01
       -1  1    1    2    0  501 -.26040706E+02 -.21406898E+02 -.12546301E+04 0.12550829E+04 0.32000000E+00 0.0000E+00 0.9000E+01
#aMCatNLO 1  0  0  4  5 0.15845609D+02 0.00000000D+00  -5  6  0 0.00000000D+00 0.00000000D+00 0.00000000D+00 0.00000000D+00 0.00000000D+00
  <mgrwgt>
 0.4251147716D-02    3    2    0
 0.155114422062386D+04 0.000000000000000D+00 0.000000000000000D+00 0.155114422062386D+04
 0.155114422062386D+04 -.000000000000000D+00 -.000000000000000D+00 -.155114422062386D+04
 0.823239689404325D+03 0.703566761921212D+03 0.388988676250684D+03 0.125619295806693D+03
 0.121443709382975D+04 -.677523656218974D+03 -.367579829183001D+03 0.938458427055304D+03
 0.106461165801364D+04 -.260431057022374D+02 -.214088470676835D+02 -.106407772286200D+04
 0.000000000000000D+00 0.000000000000000D+00 0.000000000000000D+00 0.000000000000000D+00
 0.155114422062386D+04 0.000000000000000D+00 0.000000000000000D+00 0.155114422062386D+04
 0.155114422062386D+04 -.000000000000000D+00 -.000000000000000D+00 -.155114422062386D+04
 0.741094336283865D+03 0.587682184641418D+03 0.326117317102623D+03 0.286134514892734D+03
 0.625879385515833D+03 -.294064739037208D+02 -.621706497941976D+03 -.658885037237109D+02
 0.886218883775057D+03 -.170559026833750D+03 -.998136925902678D+02 -.863904366869695D+03
 0.849095835672962D+03 -.387716683903947D+03 0.395402873429622D+03 0.643658355700671D+03
0.522763213006D-01 0.000000000000D+00 0.000000000000D+00 0.112774546165D-03 0.000000000000D+00  6 2 -2 25 1 -1 21 0 0.20239360D+00 0.28137200D+00 0.65458263D+06 0.65458263D+06 0.65458263D+06 0.10603388D+01  1  2  2  3  6  4        1 0.376225579430D-02 0.100000000000D+01
0.406980716306D-01 0.000000000000D+00 -.200754838466D-03 0.112774546165D-03 0.000000000000D+00  6 2 -2 25 1 -1 21 2 0.20239360D+00 0.28137200D+00 0.65458263D+06 0.65458263D+06 0.65458263D+06 0.10603388D+01  1  2  3  3  6  4        1 0.329311150341D-02 0.100000000000D+01
-.346560780794D-01 0.000000000000D+00 0.000000000000D+00 0.112774546165D-03 0.000000000000D+00  6 2 -2 25 1 -1 21 2 0.20239360D+00 0.28137200D+00 0.65458263D+06 0.65458263D+06 0.65458263D+06 0.10603388D+01  1  2 15  3  6  4        1 -.280421958127D-02 0.100000000000D+01
  </mgrwgt>
  </event>
  <event>
  5     66 0.18881543E-05 0.72351608E+02 0.75467711E-02 0.93521111E-01
        2 -1    0    0  502    0 0.00000000E+00 0.00000000E+00 0.41903263E+04 0.41903263E+04 0.32000000E+00 0.0000E+00 0.9000E+01
       -2 -1    0    0    0  501 0.00000000E+00 0.00000000E+00 -.33760697E+03 0.33760712E+03 0.32000000E+00 0.0000E+00 0.9000E+01
       25  1    1    2    0    0 -.10475240E+03 -.46878952E+03 0.10810721E+04 0.11895707E+04 0.12500000E+03 0.0000E+00 0.9000E+01
        1  1    1    2  502    0 -.60413233E+02 -.39827458E+02 0.28018156E+04 0.28027498E+04 0.32000000E+00 0.0000E+00 0.9000E+01
       -1  1    1    2    0  501 0.16516563E+03 0.50861698E+03 -.30168332E+02 0.53561287E+03 0.32000000E+00 0.0000E+00 0.9000E+01
#aMCatNLO 1  0  0  5  1 0.37915282D+03 0.00000000D+00  -5  6  0 0.00000000D+00 0.00000000D+00 0.00000000D+00 0.00000000D+00 0.00000000D+00
  <mgrwgt>
 0.6385447518D-02    6    2    0
 0.118940478368074D+04 0.000000000000000D+00 0.000000000000000D+00 0.118940478368074D+04
 0.118940478368074D+04 -.000000000000000D+00 -.000000000000000D+00 -.118940478368074D+04
 0.513460661455187D+03 -.104776939957234D+03 -.468854243404018D+03 0.131203438054200D+03
 0.796967024990163D+03 -.604061366628858D+02 -.398227797754695D+02 0.793676057208538D+03
 0.106838188091613D+04 0.165183076620120D+03 0.508677023179488D+03 -.924879495262738D+03
 0.000000000000000D+00 0.000000000000000D+00 0.000000000000000D+00 0.000000000000000D+00
 0.118940478368074D+04 0.000000000000000D+00 0.000000000000000D+00 0.118940478368074D+04
 0.118940478368074D+04 -.000000000000000D+00 -.000000000000000D+00 -.118940478368074D+04
 0.469818670896898D+03 -.943915804010040D+02 -.436872796564516D+03 0.730545870882038D+02
 0.706243258386553D+03 -.445292858354144D+02 0.906957276834569D+01 0.704779700026358D+03
 0.743783857863301D+03 0.414910069464153D+03 0.102397575363657D+03 -.608751836165535D+03
 0.458963780214730D+03 -.275989203227735D+03 0.325405648432514D+03 -.169082450949026D+03
0.780502768633D-01 0.000000000000D+00 0.000000000000D+00 0.911316034185D-04 0.000000000000D+00  6 2 -2 25 1 -1 21 0 0.64466559D+00 0.51939547D-01 0.30447841D+06 0.30447841D+06 0.30447841D+06 0.10840761D+01  1  2  2  4  6  5       -1 0.824402649944D-02 0.100000000000D+01
0.255980223632D-01 0.000000000000D+00 -.299733614265D-03 0.911316034185D-04 0.000000000000D+00  6 2 -2 25 1 -1 21 2 0.64466559D+00 0.51939547D-01 0.30447841D+06 0.30447841D+06 0.30447841D+06 0.10840761D+01  1  2  3  4  6  5       -1 0.317753884534D-02 0.100000000000D+01
-.567912940502D-01 0.000000000000D+00 0.000000000000D+00 0.911316034185D-04 0.000000000000D+00  6 2 -2 25 1 -1 21 2 0.64466559D+00 0.51939547D-01 0.30447841D+06 0.30447841D+06 0.30447841D+06 0.10840761D+01  1  2 15  4  6  5       -1 -.704962830180D-02 0.100000000000D+01
-.158105030706D-02 0.000000000000D+00 0.000000000000D+00 0.911316034185D-04 0.000000000000D+00  6 2 -2 25 1 -1 21 2 0.64466559D+00 0.51939547D-01 0.30447841D+06 0.30447841D+06 0.30447841D+06 0.10840761D+01  1  2  4  4  6  5       -1 -.196259253775D-03 0.100000000000D+01
-.349731032884D-01 0.000000000000D+00 0.000000000000D+00 0.911316034185D-04 0.000000000000D+00  6 2 -2 25 1 -1 21 2 0.64466559D+00 0.51939547D-01 0.30447841D+06 0.30447841D+06 0.30447841D+06 0.10840761D+01  1  2  5  4  6  5       -1 -.434128827079D-02 0.100000000000D+01
0.527748478709D-01 0.000000000000D+00 -.000000000000D+00 0.911316034185D-04 0.000000000000D+00  6 2 -2 25 1 -1 21 2 0.64466559D+00 0.51939547D-01 0.30447841D+06 0.30447841D+06 0.30447841D+06 0.10840761D+01  1  2  6  4  6  5       -1 0.655105799922D-02 0.100000000000D+01
  </mgrwgt>
  </event>
  <event>
  5     66 0.18881543E-05 0.67727393E+02 0.75467711E-02 0.91866843E-01
        2 -1    0    0  502    0 0.00000000E+00 0.00000000E+00 0.19729862E+04 0.19729862E+04 0.32000000E+00 0.0000E+00 0.9000E+01
       -2 -1    0    0    0  501 0.00000000E+00 0.00000000E+00 -.42385685E+03 0.42385697E+03 0.32000000E+00 0.0000E+00 0.9000E+01
       25  1    1    2    0    0 -.31442573E+02 -.53331049E+03 0.54075937E+03 0.77035992E+03 0.12500000E+03 0.0000E+00 0.9000E+01
        1  1    1    2  502    0 0.67730017E+02 -.14190843E+01 0.10832077E+04 0.10853241E+04 0.32000000E+00 0.0000E+00 0.9000E+01
       -1  1    1    2    0  501 -.36287445E+02 0.53472957E+03 -.74837706E+02 0.54115920E+03 0.32000000E+00 0.0000E+00 0.9000E+01
#aMCatNLO 1  0  0  5  1 0.17112648D+03 0.00000000D+00  -5  6  0 0.00000000D+00 0.00000000D+00 0.00000000D+00 0.00000000D+00 0.00000000D+00
  <mgrwgt>
 0.6307248567D-02    4    2    0
 0.914474659492652D+03 0.000000000000000D+00 0.000000000000000D+00 0.914474659492652D+03
 0.914474659492652D+03 -.000000000000000D+00 -.000000000000000D+00 -.914474659492652D+03
 0.551626203165750D+03 -.314266079263605D+02 -.533397637988285D+03 0.562654078615066D+02
 0.504707414073845D+03 0.677125319147973D+02 -.141871792069611D+01 0.500142553760682D+03
 0.772615701745710D+03 -.362859239884368D+02 0.534816355908982D+03 -.556407961622189D+03
 0.000000000000000D+00 0.000000000000000D+00 0.000000000000000D+00 0.000000000000000D+00
 0.914474659492652D+03 0.000000000000000D+00 0.000000000000000D+00 0.914474659492652D+03
 0.914474659492652D+03 -.000000000000000D+00 -.000000000000000D+00 -.914474659492652D+03
 0.505846088523797D+03 -.344493372753764D+02 -.488845786536053D+03 0.991490907973487D+01
 0.463945083265524D+03 0.649436893118132D+02 0.393911099201325D+02 0.457685151566101D+03
 0.665318328560554D+03 -.217902914999545D+03 0.466669852581082D+03 -.421172229195208D+03
 0.193839818635430D+03 0.187408562963108D+03 -.172151759651611D+02 -.464278314506274D+02
0.504487645470D-02 0.000000000000D+00 0.000000000000D+00 0.158180368309D-04 0.000000000000D+00  6 2 -2 25 1 -1 21 0 0.30353635D+00 0.65208758D-01 0.33207702D+06 0.33207702D+06 0.33207702D+06 0.10813029D+01  1  2  2  4  6  5       -1 0.992800616602D-02 0.100000000000D+01
0.155989442654D-02 0.000000000000D+00 -.193736539325D-04 0.158180368309D-04 0.000000000000D+00  6 2 -2 25 1 -1 21 2 0.30353635D+00 0.65208758D-01 0.33207702D+06 0.33207702D+06 0.33207702D+06 0.10813029D+01  1  2  3  4  6  5       -1 0.358923108391D-02 0.100000000000D+01
-.291723916447D-02 0.000000000000D+00 0.000000000000D+00 0.158180368309D-04 0.000000000000D+00  6 2 -2 25 1 -1 21 2 0.30353635D+00 0.65208758D-01 0.33207702D+06 0.33207702D+06 0.33207702D+06 0.10813029D+01  1  2 15  4  6  5       -1 -.671240650019D-02 0.100000000000D+01
-.216251240386D-03 0.000000000000D+00 0.000000000000D+00 0.158180368309D-04 0.000000000000D+00  6 2 -2 25 1 -1 21 2 0.30353635D+00 0.65208758D-01 0.33207702D+06 0.33207702D+06 0.33207702D+06 0.10813029D+01  1  2  4  4  6  5       -1 -.497582182950D-03 0.100000000000D+01
  </mgrwgt>
  </event>
  <event>
  5     66 -.18881543E-05 0.25202653E+02 0.75467711E-02 0.89720478E-01
        2 -1    0    0  502    0 0.00000000E+00 0.00000000E+00 0.26593902E+04 0.26593902E+04 0.32000000E+00 0.0000E+00 0.9000E+01
       -2 -1    0    0    0  501 0.00000000E+00 0.00000000E+00 -.52866631E+03 0.52866641E+03 0.32000000E+00 0.0000E+00 0.9000E+01
       25  1    1    2    0    0 0.24052403E+03 -.71014248E+03 0.20319396E+04 0.21694603E+04 0.12500000E+03 0.0000E+00 0.9000E+01
        1  1    1    2  502    0 0.22524564E+02 -.11456402E+02 0.23688572E+03 0.23823004E+03 0.32000000E+00 0.0000E+00 0.9000E+01
       -1  1    1    2    0  501 -.26304859E+03 0.72159888E+03 -.13810145E+03 0.78036634E+03 0.32000000E+00 0.0000E+00 0.9000E+01
#aMCatNLO 1  0  0  2  4 0.45365730D+03 0.00000000D+00  -5  6  0 0.00000000D+00 0.00000000D+00 0.00000000D+00 0.00000000D+00 0.00000000D+00
  <mgrwgt>
 -.1427103646D-01    7    4    0
 0.118571927569935D+04 0.000000000000000D+00 0.000000000000000D+00 0.118571927569935D+04
 0.118571927569935D+04 0.000000000000000D+00 0.000000000000000D+00 -.118571927569935D+04
 0.109110474245564D+04 0.240611711851545D+03 -.710266465881970D+03 0.782631529247702D+03
 0.107135948776312D+03 0.224639667600862D+02 -.114255811952115D+02 0.104129428174527D+03
 0.117319786016674D+04 -.263075678611631D+03 0.721692047077181D+03 -.886760957422230D+03
 0.000000000000000D+00 -.000000000000000D+00 0.000000000000000D+00 -.000000000000000D+00
 0.118637972461826D+04 0.000000000000000D+00 0.000000000000000D+00 0.118637972461826D+04
 0.145672604541910D+04 0.000000000000000D+00 0.000000000000000D+00 -.145672604541910D+04
 0.109893189045689D+04 0.241502662586578D+03 -.721935352544914D+03 0.782631529247702D+03
 0.107282103912987D+03 0.225511963154174D+02 -.125680369503891D+02 0.104129428174527D+03
 0.116535999324942D+04 -.262124306471500D+03 0.709231814158629D+03 -.886760957422230D+03
 0.271531782418064D+03 -.192955243049515D+01 0.252715753366741D+02 -.270346320800842D+03
 0.118571927569935D+04 0.000000000000000D+00 0.000000000000000D+00 0.118571927569935D+04
 0.118571927569935D+04 0.000000000000000D+00 0.000000000000000D+00 -.118571927569935D+04
 0.109110474245564D+04 0.240611711851545D+03 -.710266465881970D+03 0.782631529247702D+03
 0.107135948776312D+03 0.224639667600862D+02 -.114255811952115D+02 0.104129428174527D+03
 0.000000000000000D+00 -.000000000000000D+00 0.000000000000000D+00 -.000000000000000D+00
 0.117319786016674D+04 -.263075678611631D+03 0.721692047077181D+03 -.886760957422230D+03
 0.118637972461826D+04 0.000000000000000D+00 0.000000000000000D+00 0.118637972461826D+04
 0.145672604541910D+04 0.000000000000000D+00 0.000000000000000D+00 -.145672604541910D+04
 0.109893189045689D+04 0.241502662586578D+03 -.721935352544914D+03 0.782631529247702D+03
 0.107282103912987D+03 0.225511963154174D+02 -.125680369503891D+02 0.104129428174527D+03
 0.271531782418064D+03 -.192955243049515D+01 0.252715753366741D+02 -.270346320800842D+03
 0.116535999324942D+04 -.262124306471500D+03 0.709231814158629D+03 -.886760957422230D+03
0.100885272167D-03 0.000000000000D+00 0.000000000000D+00 0.353177779460D-05 0.000000000000D+00  6 2 -2 25 1 -1 21 0 0.40913697D+00 0.81333287D-01 0.60342605D+06 0.60342605D+06 0.60342605D+06 0.10627869D+01  1  2  2  2  6  2       -2 0.476142484718D-04 0.100000000000D+01
0.362402134351D-04 0.000000000000D+00 -.387426008824D-06 0.353177779460D-05 0.000000000000D+00  6 2 -2 25 1 -1 21 2 0.40913697D+00 0.81333287D-01 0.60342605D+06 0.60342605D+06 0.60342605D+06 0.10627869D+01  1  2  3  2  6  2       -2 0.193193418008D-04 0.100000000000D+01
-.703076137888D-04 0.000000000000D+00 0.000000000000D+00 0.353177779460D-05 0.000000000000D+00  6 2 -2 25 1 -1 21 2 0.40913697D+00 0.81333287D-01 0.60342605D+06 0.60342605D+06 0.60342605D+06 0.10627869D+01  1  2 15  2  6  2       -2 -.374803758928D-04 0.100000000000D+01
-.318447329555D-01 0.000000000000D+00 0.000000000000D+00 0.353177779460D-05 0.000000000000D+00  6 2 -2 25 1 -1 21 2 0.40913697D+00 0.81333287D-01 0.60342605D+06 0.60342605D+06 0.60342605D+06 0.10627869D+01  1  2  4  2  6  2       -2 -.169761494817D-01 0.100000000000D+01
-.248449102712D-01 0.000000000000D+00 -.131991230868D-03 0.353177779460D-05 0.000000000000D+00  6 2 -2 25 1 -1 21 2 0.40913697D+00 0.99945441D-01 0.60342605D+06 0.60342605D+06 0.60342605D+06 0.10627869D+01  1  2  5  2  6  2       -2 -.815950790556D-02 0.100000000000D+01
0.243559006084D-01 0.000000000000D+00 0.129237506174D-03 0.353177779460D-05 0.000000000000D+00  6 2 -2 25 1 -1 21 2 0.40913697D+00 0.81333287D-01 0.60342605D+06 0.60342605D+06 0.60342605D+06 0.10627869D+01  1  2  6  2  6  2       -2 0.129839182532D-01 0.100000000000D+01
-.725825134771D-03 0.000000000000D+00 -.386452380545D-05 0.353177779460D-05 0.000000000000D+00  6 2 21 25 1 2 -1 2 0.40913697D+00 0.99945441D-01 0.60342605D+06 0.60342605D+06 0.60342605D+06 0.10627869D+01  3  4  5  6  5  2       -2 -.214875054257D-02 0.100000000000D+01
  </mgrwgt>
  </event>
  <event>
  5     66 0.18881543E-05 0.16336921E+03 0.75467711E-02 0.88193384E-01
        2 -1    0    0  502    0 0.00000000E+00 0.00000000E+00 0.20583215E+04 0.20583215E+04 0.32000000E+00 0.0000E+00 0.9000E+01
       -2 -1    0    0    0  501 0.00000000E+00 0.00000000E+00 -.88431636E+03 0.88431642E+03 0.32000000E+00 0.0000E+00 0.9000E+01
       25  1    1    2    0    0 0.31333810E+03 -.43304051E+03 0.59120455E+03 0.80675441E+03 0.12500000E+03 0.0000E+00 0.9000E+01
        1  1    1    2  502    0 -.22518072E+02 0.16182986E+03 0.13029943E+04 0.13131985E+04 0.32000000E+00 0.0000E+00 0.9000E+01
       -1  1    1    2    0  501 -.29082003E+03 0.27121065E+03 -.72019375E+03 0.82268503E+03 0.32000000E+00 0.0000E+00 0.9000E+01
#aMCatNLO 1  0  0  4  1 0.60953778D+03 0.00000000D+00  -5  6  0 0.00000000D+00 0.00000000D+00 0.00000000D+00 0.00000000D+00 0.00000000D+00
  <mgrwgt>
 0.2900465436D-02    4    2    0
 0.134915065680825D+04 0.000000000000000D+00 0.000000000000000D+00 0.134915065680825D+04
 0.134915065680825D+04 -.000000000000000D+00 -.000000000000000D+00 -.134915065680825D+04
 0.622658306465644D+03 0.313367615888603D+03 -.433053187101026D+03 0.293843565634166D+03
 0.865086036999968D+03 -.225153451720468D+02 0.161810255535079D+03 0.849520071480224D+03
 0.121055697015090D+04 -.290852270716556D+03 0.271242931565947D+03 -.114336363711439D+04
 0.000000000000000D+00 0.000000000000000D+00 0.000000000000000D+00 0.000000000000000D+00
 0.134915065680825D+04 0.000000000000000D+00 0.000000000000000D+00 0.134915065680825D+04
 0.134915065680825D+04 -.000000000000000D+00 -.000000000000000D+00 -.134915065680825D+04
 0.683173171533414D+03 0.309587273261889D+03 -.405885128971575D+03 0.436478595829189D+03
 0.479453788203706D+03 -.415191075876437D+03 0.200110448997895D+03 0.132091308333713D+03
 0.100111331812668D+04 -.297254989296924D+03 0.317257128625416D+03 -.901784487227997D+03
 0.534561035752703D+03 0.402858791911473D+03 -.111482448651735D+03 0.333214583065094D+03
0.269569893611D-01 0.000000000000D+00 0.000000000000D+00 0.445604881393D-04 0.000000000000D+00  6 2 -2 25 1 -1 21 0 0.31666485D+00 0.13604868D+00 0.30804408D+06 0.30804408D+06 0.30804408D+06 0.10837027D+01  1  2  2  3  6  4        1 0.832108040392D-02 0.100000000000D+01
0.374293402211D-02 0.000000000000D+00 -.103521937085D-03 0.445604881393D-04 0.000000000000D+00  6 2 -2 25 1 -1 21 2 0.31666485D+00 0.13604868D+00 0.30804408D+06 0.30804408D+06 0.30804408D+06 0.10837027D+01  1  2  3  3  6  4        1 0.135687801280D-02 0.100000000000D+01
-.184130799139D-01 0.000000000000D+00 0.000000000000D+00 0.445604881393D-04 0.000000000000D+00  6 2 -2 25 1 -1 21 2 0.31666485D+00 0.13604868D+00 0.30804408D+06 0.30804408D+06 0.30804408D+06 0.10837027D+01  1  2 15  3  6  4        1 -.667505842624D-02 0.100000000000D+01
-.282564663048D-03 0.000000000000D+00 0.000000000000D+00 0.445604881393D-04 0.000000000000D+00  6 2 -2 25 1 -1 21 2 0.31666485D+00 0.13604868D+00 0.30804408D+06 0.30804408D+06 0.30804408D+06 0.10837027D+01  1  2  4  3  6  4        1 -.102434554342D-03 0.100000000000D+01
  </mgrwgt>
  </event>
  <event>
  5     66 0.18881543E-05 0.15108124E+02 0.75467711E-02 0.95125286E-01
        2 -1    0    0  502    0 0.00000000E+00 0.00000000E+00 0.83137995E+03 0.83138001E+03 0.32000000E+00 0.0000E+00 0.9000E+01
       -2 -1    0    0    0  501 0.00000000E+00 0.00000000E+00 -.45465425E+03 0.45465436E+03 0.32000000E+00 0.0000E+00 0.9000E+01
       25  1    1    2    0    0 0.43170436E+03 0.18153339E+03 -.10335470E+03 0.49561095E+03 0.12500000E+03 0.0000E+00 0.9000E+01
        1  1    1    2  502    0 -.34622842E+01 -.14719840E+02 0.29433350E+03 0.29472185E+03 0.32000000E+00 0.0000E+00 0.9000E+01
       -1  1    1    2    0  501 -.42824207E+03 -.16681355E+03 0.18574690E+03 0.49570157E+03 0.32000000E+00 0.0000E+00 0.9000E+01
#aMCatNLO 1  0  0  5  2 0.11171575D+02 0.00000000D+00  -5  6  0 0.00000000D+00 0.00000000D+00 0.00000000D+00 0.00000000D+00 0.00000000D+00
  <mgrwgt>
 0.6256447669D-02    5    2    0
 0.614809351074643D+03 0.000000000000000D+00 0.000000000000000D+00 0.614809351074643D+03
 0.614809351074643D+03 -.000000000000000D+00 -.000000000000000D+00 -.614809351074643D+03
 0.550076850760858D+03 0.431811759840720D+03 0.181572960883652D+03 -.259864206235078D+03
 0.217873378824936D+03 -.345921149465942D+01 -.147067765668899D+02 0.217348921735169D+03
 0.461668472563493D+03 -.428352548346061D+03 -.166866184316763D+03 0.425152844999092D+02
 0.000000000000000D+00 0.000000000000000D+00 0.000000000000000D+00 0.000000000000000D+00
 0.614809351074643D+03 0.000000000000000D+00 0.000000000000000D+00 0.614809351074643D+03
 0.614809351074643D+03 -.000000000000000D+00 -.000000000000000D+00 -.614809351074643D+03
 0.546148467249371D+03 0.427717908600329D+03 0.179978187283537D+03 -.259457879131720D+03
 0.218110194339618D+03 -.508739126980806D+01 -.153410395064003D+02 0.217510523496673D+03
 0.112797722735349D+02 0.109040740402766D+01 -.886606931416080D+01 -.688745883127267D+01
 0.454080268286763D+03 -.423720924734548D+03 -.155771078462975D+03 0.488348144663196D+02
0.746609240207D-03 0.000000000000D+00 0.000000000000D+00 0.173461774644D-05 0.000000000000D+00  6 2 -2 25 1 -1 21 0 0.12790462D+00 0.69946821D-01 0.23022707D+06 0.23022707D+06 0.23022707D+06 0.10931614D+01  1  2  2  4  6  5       -1 0.581391719444D-02 0.100000000000D+01
0.470257031921D-03 0.000000000000D+00 -.286717606912D-05 0.173461774644D-05 0.000000000000D+00  6 2 -2 25 1 -1 21 2 0.12790462D+00 0.69946821D-01 0.23022707D+06 0.23022707D+06 0.23022707D+06 0.10931614D+01  1  2  3  4  6  5       -1 0.437602019279D-02 0.100000000000D+01
-.480064955078D-03 0.000000000000D+00 0.000000000000D+00 0.173461774644D-05 0.000000000000D+00  6 2 -2 25 1 -1 21 2 0.12790462D+00 0.69946821D-01 0.23022707D+06 0.23022707D+06 0.23022707D+06 0.10931614D+01  1  2 15  4  6  5       -1 -.446728872653D-02 0.100000000000D+01
0.173786634993D-03 0.000000000000D+00 0.000000000000D+00 0.173461774644D-05 0.000000000000D+00  6 2 -2 25 1 -1 21 2 0.12790462D+00 0.69946821D-01 0.22902197D+06 0.22902197D+06 0.22902197D+06 0.10933342D+01  1  2 12  4  6  5       -1 0.161797921043D-02 0.100000000000D+01
-.116508457811D-03 0.000000000000D+00 0.000000000000D+00 0.173461774644D-05 0.000000000000D+00  6 2 -2 25 1 -1 21 2 0.12790462D+00 0.69946821D-01 0.23022707D+06 0.23022707D+06 0.23022707D+06 0.10931614D+01  1  2  5  4  6  5       -1 -.108418020233D-02 0.100000000000D+01
  </mgrwgt>
  </event>
  <event>
  5     66 -.18881543E-05 0.23796397E+02 0.75467711E-02 0.94121519E-01
        2 -1    0    0  502    0 0.00000000E+00 0.00000000E+00 0.13890371E+04 0.13890371E+04 0.32000000E+00 0.0000E+00 0.9000E+01
       -2 -1    0    0    0  501 0.00000000E+00 0.00000000E+00 -.35879447E+03 0.35879461E+03 0.32000000E+00 0.0000E+00 0.9000E+01
       25  1    1    2    0    0 0.51265254E+03 0.29860441E+02 0.53788388E+03 0.75408776E+03 0.12500000E+03 0.0000E+00 0.9000E+01
        1  1    1    2  502    0 -.21153649E+02 0.10938527E+02 0.49992946E+03 0.50049645E+03 0.32000000E+00 0.0000E+00 0.9000E+01
       -1  1    1    2    0  501 -.49149889E+03 -.40798967E+02 -.75707160E+01 0.49324754E+03 0.32000000E+00 0.0000E+00 0.9000E+01
#aMCatNLO 1  0  0  5  2 0.11171575D+02 0.00000000D+00  -5  6  0 0.00000000D+00 0.00000000D+00 0.00000000D+00 0.00000000D+00 0.00000000D+00
  <mgrwgt>
 -.4349861601D-02    1    2    0
 0.705959622857536D+03 0.000000000000000D+00 0.000000000000000D+00 0.705959622857536D+03
 0.705959622857536D+03 -.000000000000000D+00 -.000000000000000D+00 -.705959622857536D+03
 0.541139636352312D+03 0.512750086744097D+03 0.298747893139786D+02 0.115766798085112D+03
 0.254590975124979D+03 -.211376091194791D+02 0.109302325264569D+02 0.253476421216486D+03
 0.616188634237781D+03 -.491612477624618D+03 -.408050218404354D+02 -.369243219301598D+03
 0.000000000000000D+00 0.000000000000000D+00 0.000000000000000D+00 0.000000000000000D+00
 0.705959622857536D+03 0.000000000000000D+00 0.000000000000000D+00 0.705959622857536D+03
 0.705959622857536D+03 -.000000000000000D+00 -.000000000000000D+00 -.705959622857536D+03
 0.434010563826785D+03 0.413040880156095D+03 0.215986845817008D+02 0.408766150440824D+02
 0.227716787576611D+03 -.704536266328604D+02 0.683688407964756D+01 0.216435853902653D+03
 0.471060864507863D+03 -.422342047901475D+03 -.201656731667628D+03 -.534798580627719D+02
 0.279131029803812D+03 0.797547943782401D+02 0.173221163006280D+03 -.203832610883963D+03
-.627028715204D-03 0.000000000000D+00 0.000000000000D+00 0.153540800885D-04 0.000000000000D+00  6 2 -2 25 1 -1 21 2 0.21369803D+00 0.55199163D-01 0.27337785D+06 0.27337785D+06 0.27337785D+06 0.10875504D+01  1  2 14  4  6  5       -1 -.434986160076D-02 0.100000000000D+01
  </mgrwgt>
  </event>
  <event>
  5     66 0.18881543E-05 0.95655341E+02 0.75467711E-02 0.90004827E-01
        2 -1    0    0  502    0 0.00000000E+00 0.00000000E+00 0.33238430E+04 0.33238430E+04 0.32000000E+00 0.0000E+00 0.9000E+01
       -2 -1    0    0    0  501 0.00000000E+00 0.00000000E+00 -.40679740E+03 0.40679753E+03 0.32000000E+00 0.0000E+00 0.9000E+01
       25  1    1    2    0    0 -.51142131E+03 0.47759390E+03 0.15183509E+04 0.16765029E+04 0.12500000E+03 0.0000E+00 0.9000E+01
        1  1    1    2  502    0 0.50197485E+02 0.81469932E+02 0.13218544E+04 0.13253136E+04 0.32000000E+00 0.0000E+00 0.9000E+01
       -1  1    1    2    0  501 0.46122383E+03 -.55906383E+03 0.76840295E+02 0.72882393E+03 0.32000000E+00 0.0000E+00 0.9000E+01
#aMCatNLO 1  0  0  5  2 0.48702397D+02 0.00000000D+00  -5  6  0 0.00000000D+00 0.00000000D+00 0.00000000D+00 0.00000000D+00 0.00000000D+00
  <mgrwgt>
 0.1243117247D-02    8    2    0
 0.116281165196988D+04 0.000000000000000D+00 0.000000000000000D+00 0.116281165196988D+04
 0.116281165196988D+04 -.000000000000000D+00 -.000000000000000D+00 -.116281165196988D+04
 0.785028194814334D+03 -.511468553684686D+03 0.477692009194561D+03 0.332948238614970D+03
 0.467802103935968D+03 0.501777655600411D+02 0.814379273910116D+02 0.457917966750133D+03
 0.107279300518946D+04 0.461290788124645D+03 -.559129936585573D+03 -.790866205365103D+03
 0.000000000000000D+00 0.000000000000000D+00 -.000000000000000D+00 0.000000000000000D+00
 0.116281165196988D+04 0.000000000000000D+00 0.000000000000000D+00 0.116281165196988D+04
 0.116281165196988D+04 -.000000000000000D+00 -.000000000000000D+00 -.116281165196988D+04
 0.779465135139796D+03 -.508837852194027D+03 0.474503339497454D+03 0.328437997008315D+03
 0.465012909812976D+03 0.517462975570747D+02 0.795367118917831D+02 0.455228775939428D+03
 0.100264608319924D+04 0.452740251064785D+03 -.481502626162287D+03 -.753976560789126D+03
 0.784991757877506D+02 0.435130357216736D+01 -.725374252269496D+02 -.296902121586173D+02
0.518179673357D-03 0.000000000000D+00 0.000000000000D+00 0.307977080597D-05 0.000000000000D+00  6 2 -2 25 1 -1 21 0 0.51136047D+00 0.62584226D-01 0.58632413D+06 0.58632413D+06 0.58632413D+06 0.10636561D+01  1  2  2  4  6  5       -1 0.163716125208D-03 0.100000000000D+01
0.117677750730D-03 0.000000000000D+00 -.198994638553D-05 0.307977080597D-05 0.000000000000D+00  6 2 -2 25 1 -1 21 2 0.51136047D+00 0.62584226D-01 0.58632413D+06 0.58632413D+06 0.58632413D+06 0.10636561D+01  1  2  3  4  6  5       -1 0.420637395059D-04 0.100000000000D+01
-.349006520004D-03 0.000000000000D+00 0.000000000000D+00 0.307977080597D-05 0.000000000000D+00  6 2 -2 25 1 -1 21 2 0.51136047D+00 0.62584226D-01 0.58632413D+06 0.58632413D+06 0.58632413D+06 0.10636561D+01  1  2 15  4  6  5       -1 -.124751869000D-03 0.100000000000D+01
0.590689658550D-08 0.000000000000D+00 0.000000000000D+00 0.307977080597D-05 0.000000000000D+00  6 2 -2 25 1 -1 21 2 0.51136047D+00 0.62584226D-01 0.58933958D+06 0.58933958D+06 0.58933958D+06 0.10635008D+01  1  2 12  4  6  5       -1 0.210987957172D-08 0.100000000000D+01
0.439833337897D-02 0.000000000000D+00 0.000000000000D+00 0.307977080597D-05 0.000000000000D+00  6 2 -2 25 1 -1 21 2 0.51136047D+00 0.62584226D-01 0.58933958D+06 0.58933958D+06 0.58933958D+06 0.10635008D+01  1  2 12  4  6  5       -1 0.157103711087D-02 0.100000000000D+01
-.169424249798D-02 0.000000000000D+00 0.000000000000D+00 0.307977080597D-05 0.000000000000D+00  6 2 -2 25 1 -1 21 2 0.51136047D+00 0.62584226D-01 0.58632413D+06 0.58632413D+06 0.58632413D+06 0.10636561D+01  1  2  4  4  6  5       -1 -.605604497475D-03 0.100000000000D+01
-.725403970150D-02 0.000000000000D+00 0.000000000000D+00 0.307977080597D-05 0.000000000000D+00  6 2 -2 25 1 -1 21 2 0.51136047D+00 0.62584226D-01 0.58632413D+06 0.58632413D+06 0.58632413D+06 0.10636561D+01  1  2  5  4  6  5       -1 -.259294585829D-02 0.100000000000D+01
0.780420149838D-02 0.000000000000D+00 -.000000000000D+00 0.307977080597D-05 0.000000000000D+00  6 2 -2 25 1 -1 21 2 0.51136047D+00 0.62584226D-01 0.58632413D+06 0.58632413D+06 0.58632413D+06 0.10636561D+01  1  2  6  4  6  5       -1 0.278960038616D-02 0.100000000000D+01
  </mgrwgt>
  </event>
  <event>
  6     66 -.18881543E-05 0.22562910E+03 0.75467711E-02 0.94587907E-01
        2 -1    0    0  502    0 0.00000000E+00 0.00000000E+00 0.81668863E+03 0.81668869E+03 0.32000000E+00 0.0000E+00 0.9000E+01
       -2 -1    0    0    0  501 0.00000000E+00 0.00000000E+00 -.78913866E+03 0.78913872E+03 0.32000000E+00 0.0000E+00 0.9000E+01
       25  1    1    2    0    0 0.34924397E+03 0.33888070E+03 0.70193836E+02 0.50731022E+03 0.12500000E+03 0.0000E+00 0.9000E+01
        1  1    1    2  503    0 -.10931438E+03 -.63489913E+02 0.25246323E+03 0.28234445E+03 0.32000000E+00 0.0000E+00 0.9000E+01
       -1  1    1    2    0  501 -.12466023E+03 -.20341755E+03 -.50935517E+03 0.56246037E+03 0.32000000E+00 0.0000E+00 0.9000E+01
       21  1    1    2  502  503 -.11526936E+03 -.71973240E+02 0.21424808E+03 0.25371238E+03 0.75000000E+00 0.0000E+00 0.9000E+01
#aMCatNLO 2  0  0  4  1 0.13641400D+02 0.00000000D+00  -5  6  0 0.00000000D+00 0.00000000D+00 0.00000000D+00 0.00000000D+00 0.00000000D+00
  <mgrwgt>
 -.6055689818D-03    3    2    0
 0.802795534899429D+03 0.000000000000000D+00 0.000000000000000D+00 0.802795534899429D+03
 0.802795534899429D+03 -.000000000000000D+00 -.000000000000000D+00 -.802795534899429D+03
 0.506334445975324D+03 0.349297630172172D+03 0.338996649211133D+03 0.618223953019243D+02
 0.527548225300293D+03 -.224639352366179D+03 -.135496699101546D+03 0.457695243495689D+03
 0.571708398523240D+03 -.124658277805993D+03 -.203499950109587D+03 -.519517638797613D+03
 0.000000000000000D+00 0.000000000000000D+00 -.000000000000000D+00 0.000000000000000D+00
 0.802795534899429D+03 0.000000000000000D+00 0.000000000000000D+00 0.802795534899429D+03
 0.802795534899429D+03 -.000000000000000D+00 -.000000000000000D+00 -.802795534899429D+03
 0.506254204834353D+03 0.349202610253933D+03 0.338939335632125D+03 0.620159952395889D+02
 0.277392577798985D+03 -.109041871224908D+03 -.633280425517451D+02 0.247075032255995D+03
 0.571556229837014D+03 -.124765560177196D+03 -.203564660085896D+03 -.519299054517997D+03
 0.250388057328506D+03 -.115395178851829D+03 -.720466329944834D+02 0.210208027022413D+03
-.584054171407D-08 0.000000000000D+00 0.000000000000D+00 0.303252448377D-05 0.000000000000D+00  6 2 -2 25 1 -1 21 2 0.12564441D+00 0.12140596D+00 0.25167060D+06 0.25167060D+06 0.25167060D+06 0.10902416D+01  1  2 13  3  6  4        1 -.150676781710D-07 0.100000000000D+01
-.124540277167D-02 0.000000000000D+00 0.000000000000D+00 0.303252448377D-05 0.000000000000D+00  6 2 -2 25 1 -1 21 2 0.12564441D+00 0.12140596D+00 0.25167060D+06 0.25167060D+06 0.25167060D+06 0.10902416D+01  1  2 13  3  6  4        1 -.321294309251D-02 0.100000000000D+01
0.101067762984D-02 0.000000000000D+00 0.000000000000D+00 0.303252448377D-05 0.279809742314D-07  6 2 -2 25 1 -1 21 2 0.12564441D+00 0.12140596D+00 0.25167060D+06 0.25167060D+06 0.25167060D+06 0.10902416D+01  1  2  1  3  6  4        1 0.260738917835D-02 0.100000000000D+01
  </mgrwgt>
  </event>
  <event>
  6     66 0.18881543E-05 0.18117291E+03 0.75467711E-02 0.94002731E-01
        2 -1    0    0  502    0 0.00000000E+00 0.00000000E+00 0.13788046E+04 0.13788047E+04 0.32000000E+00 0.0000E+00 0.9000E+01
       -2 -1    0    0    0  501 0.00000000E+00 0.00000000E+00 -.40998024E+03 0.40998037E+03 0.32000000E+00 0.0000E+00 0.9000E+01
       25  1    1    2    0    0 -.23932023E+03 -.40645910E+03 0.49093984E+03 0.69219224E+03 0.12500000E+03 0.0000E+00 0.9000E+01
        1  1    1    2  502    0 0.12821521E+02 0.14193530E+02 0.53392199E+03 0.53426458E+03 0.32000000E+00 0.0000E+00 0.9000E+01
       -1  1    1    2    0  503 -.62849647E+02 0.18029257E+03 -.70025855E+02 0.20336965E+03 0.32000000E+00 0.0000E+00 0.9000E+01
       21  1    1    2  503  501 0.28934835E+03 0.21197300E+03 0.13988415E+02 0.35895857E+03 0.75000000E+00 0.0000E+00 0.9000E+01
#aMCatNLO 2  0  0  5  2 0.20465052D+02 0.00000000D+00  -5  6  0 0.00000000D+00 0.00000000D+00 0.00000000D+00 0.00000000D+00 0.00000000D+00
  <mgrwgt>
 0.3640378473D-03    1    2    0
 0.751852915664850D+03 0.000000000000000D+00 0.000000000000000D+00 0.751852915664850D+03
 0.751852915664850D+03 -.000000000000000D+00 -.000000000000000D+00 -.751852915664850D+03
 0.532298976510100D+03 -.249830697438237D+03 -.424664643748025D+03 0.157992921871795D+03
 0.302202109616052D+03 0.683495161220743D+01 0.382967463631677D+01 0.302100533076377D+03
 0.669204745203548D+03 0.242995745826029D+03 0.420834969111708D+03 -.460093454948172D+03
 0.000000000000000D+00 0.000000000000000D+00 0.000000000000000D+00 0.000000000000000D+00
 0.751852915664850D+03 0.000000000000000D+00 0.000000000000000D+00 0.751852915664850D+03
 0.751852915664850D+03 -.000000000000000D+00 -.000000000000000D+00 -.751852915664850D+03
 0.507227458696101D+03 -.239361620387070D+03 -.406533652596393D+03 0.138170542618956D+03
 0.291408697952133D+03 0.128132096654565D+02 0.141831894051807D+02 0.290781168644951D+03
 0.286676986510867D+03 -.629141346430232D+02 0.180054684968633D+03 -.214022934934361D+03
 0.418392688170600D+03 0.289462545364637D+03 0.212295778222579D+03 -.214928776329545D+03
0.683638743938D-04 0.000000000000D+00 0.000000000000D+00 0.429051191878D-04 0.104882247807D-08  6 2 -2 25 1 -1 21 2 0.21212380D+00 0.63073896D-01 0.27923694D+06 0.27923694D+06 0.27923694D+06 0.10868639D+01  1  2  1  4  6  5       -1 0.364037847297D-03 0.100000000000D+01
  </mgrwgt>
  </event>
  <event>
  5     66 0.18881543E-05 0.37167991E+02 0.75467711E-02 0.93052467E-01
        2 -1    0    0  502    0 0.00000000E+00 0.00000000E+00 0.58793537E+03 0.58793546E+03 0.32000000E+00 0.0000E+00 0.9000E+01
       -2 -1    0    0    0  501 -.00000000E+00 -.00000000E+00 -.13320536E+04 0.13320536E+04 0.32000000E+00 0.0000E+00 0.9000E+01
       25  1    1    2    0    0 -.33461385E+03 0.43521337E+03 0.14374407E+03 0.58108903E+03 0.12500000E+03 0.0000E+00 0.9000E+01
        1  1    1    2  502    0 0.27303325E+02 0.25271404E+02 0.15435290E+03 0.15877354E+03 0.32000000E+00 0.0000E+00 0.9000E+01
       -1  1    1    2    0  501 0.30731052E+03 -.46048478E+03 -.10422152E+04 0.11801265E+04 0.32000000E+00 0.0000E+00 0.9000E+01
#aMCatNLO 1  0  0  5  2 0.28639553D+02 0.00000000D+00  -5  6  0 0.00000000D+00 0.00000000D+00 0.00000000D+00 0.00000000D+00 0.00000000D+00
  <mgrwgt>
 0.3487802917D-02    8    2    0
 0.884964140596792D+03 0.000000000000000D+00 0.000000000000000D+00 0.884964140596792D+03
 0.884964140596792D+03 -.000000000000000D+00 -.000000000000000D+00 -.884964140596792D+03
 0.690979312151752D+03 -.334647378715313D+03 0.435315126334258D+03 0.400423878565286D+03
 0.236900571698091D+03 0.272771173092246D+02 0.252471464949316D+02 0.233966709888490D+03
 0.842048397343741D+03 0.307370261406088D+03 -.460562272829190D+03 -.634390588453775D+03
 0.000000000000000D+00 0.000000000000000D+00 0.000000000000000D+00 0.000000000000000D+00
 0.884964140596792D+03 0.000000000000000D+00 0.000000000000000D+00 0.884964140596792D+03
 0.884964140596792D+03 -.000000000000000D+00 -.000000000000000D+00 -.884964140596792D+03
 0.689373195825503D+03 -.334035308297498D+03 0.434398002662402D+03 0.399160608297185D+03
 0.236463668319970D+03 0.274870145974115D+02 0.249326373044008D+02 0.233533496657130D+03
 0.732411650704045D+03 0.251238318775330D+03 -.385353941546965D+03 -.569919707502897D+03
 0.111679766344067D+03 0.553099749247568D+02 -.739766984198376D+02 -.627743974514173D+02
0.188644112627D-03 0.000000000000D+00 0.000000000000D+00 0.143735797589D-04 0.000000000000D+00  6 2 -2 25 1 -1 21 0 0.90451605D-01 0.20493133D+00 0.33293209D+06 0.33293209D+06 0.33293209D+06 0.10812210D+01  1  2  2  4  6  5       -1 0.137042757487D-03 0.100000000000D+01
0.619544210290D-04 0.000000000000D+00 -.724443063624D-06 0.143735797589D-04 0.000000000000D+00  6 2 -2 25 1 -1 21 2 0.90451605D-01 0.20493133D+00 0.33293209D+06 0.33293209D+06 0.33293209D+06 0.10812210D+01  1  2  3  4  6  5       -1 0.526155465703D-04 0.100000000000D+01
-.126572099397D-03 0.000000000000D+00 0.000000000000D+00 0.143735797589D-04 0.000000000000D+00  6 2 -2 25 1 -1 21 2 0.90451605D-01 0.20493133D+00 0.33293209D+06 0.33293209D+06 0.33293209D+06 0.10812210D+01  1  2 15  4  6  5       -1 -.107492896870D-03 0.100000000000D+01
0.751519260134D-08 0.000000000000D+00 0.000000000000D+00 0.143735797589D-04 0.000000000000D+00  6 2 -2 25 1 -1 21 2 0.90451605D-01 0.20493133D+00 0.33151859D+06 0.33151859D+06 0.33151859D+06 0.10813565D+01  1  2 12  4  6  5       -1 0.638538145308D-08 0.100000000000D+01
0.723676104299D-02 0.000000000000D+00 0.000000000000D+00 0.143735797589D-04 0.000000000000D+00  6 2 -2 25 1 -1 21 2 0.90451605D-01 0.20493133D+00 0.33151859D+06 0.33151859D+06 0.33151859D+06 0.10813565D+01  1  2 12  4  6  5       -1 0.614880844652D-02 0.100000000000D+01
-.431368126333D-02 0.000000000000D+00 0.000000000000D+00 0.143735797589D-04 0.000000000000D+00  6 2 -2 25 1 -1 21 2 0.90451605D-01 0.20493133D+00 0.33293209D+06 0.33293209D+06 0.33293209D+06 0.10812210D+01  1  2  4  4  6  5       -1 -.366344634701D-02 0.100000000000D+01
-.766693065883D-02 0.000000000000D+00 0.000000000000D+00 0.143735797589D-04 0.000000000000D+00  6 2 -2 25 1 -1 21 2 0.90451605D-01 0.20493133D+00 0.33293209D+06 0.33293209D+06 0.33293209D+06 0.10812210D+01  1  2  5  4  6  5       -1 -.651123423366D-02 0.100000000000D+01
0.875054070136D-02 0.000000000000D+00 -.000000000000D+00 0.143735797589D-04 0.000000000000D+00  6 2 -2 25 1 -1 21 2 0.90451605D-01 0.20493133D+00 0.33293209D+06 0.33293209D+06 0.33293209D+06 0.10812210D+01  1  2  6  4  6  5       -1 0.743150325901D-02 0.100000000000D+01
  </mgrwgt>
  </event>
  <event>
  5     66 -.18881543E-05 0.55129178E+02 0.75467711E-02 0.89240242E-01
        2 -1    0    0  502    0 0.00000000E+00 0.00000000E+00 0.19395586E+04 0.19395586E+04 0.32000000E+00 0.0000E+00 0.9000E+01
       -2 -1    0    0    0  501 0.00000000E+00 0.00000000E+00 -.96390607E+03 0.96390612E+03 0.32000000E+00 0.0000E+00 0.9000E+01
       25  1    1    2    0    0 0.14512707E+03 -.53259410E+03 -.32620561E+03 0.65326369E+03 0.12500000E+03 0.0000E+00 0.9000E+01
        1  1    1    2  502    0 -.14889101E+03 0.47759419E+03 0.17390359E+04 0.18095609E+04 0.32000000E+00 0.0000E+00 0.9000E+01
       -1  1    1    2    0  501 0.37639345E+01 0.54999909E+02 -.43717780E+03 0.44064009E+03 0.32000000E+00 0.0000E+00 0.9000E+01
#aMCatNLO 1  0  0  2  1 0.14118782D+03 0.00000000D+00  -5  6  0 0.00000000D+00 0.00000000D+00 0.00000000D+00 0.00000000D+00 0.00000000D+00
  <mgrwgt>
 -.2132648289D-02    5    4    0
 0.136731575490241D+04 0.000000000000000D+00 0.000000000000000D+00 0.136731575490241D+04
 0.136731575490241D+04 0.000000000000000D+00 0.000000000000000D+00 -.136731575490241D+04
 0.809973867209045D+03 0.145126992058017D+03 -.532594386105159D+03 -.579408354812940D+03
 0.130083298851268D+04 -.148890901175535D+03 0.477593846997183D+03 0.120079227215219D+04
 0.623824654083084D+03 0.376390911751736D+01 0.550005391079757D+02 -.621383917339246D+03
 0.000000000000000D+00 0.000000000000000D+00 -.000000000000000D+00 -.000000000000000D+00
 0.140364710819263D+04 0.000000000000000D+00 0.000000000000000D+00 0.140364710819263D+04
 0.286254881848402D+04 0.000000000000000D+00 0.000000000000000D+00 -.286254881848402D+04
 0.745162899127608D+03 0.892266653503891D+02 -.442681947677647D+03 -.579408354812940D+03
 0.137918387416478D+04 -.245225719725630D+03 0.632542824068707D+03 0.120079227215219D+04
 0.635751846611383D+03 -.415123260189809D+02 0.127824741464282D+03 -.621383917339246D+03
 0.150609730677288D+04 0.197511380394221D+03 -.317685617855343D+03 -.145890171029139D+04
 0.136731575490241D+04 0.000000000000000D+00 0.000000000000000D+00 0.136731575490241D+04
 0.136731575490241D+04 0.000000000000000D+00 0.000000000000000D+00 -.136731575490241D+04
 0.809973867209045D+03 0.145126992058017D+03 -.532594386105159D+03 -.579408354812940D+03
 0.130083298851268D+04 -.148890901175535D+03 0.477593846997183D+03 0.120079227215219D+04
 0.000000000000000D+00 0.000000000000000D+00 -.000000000000000D+00 -.000000000000000D+00
 0.623824654083084D+03 0.376390911751736D+01 0.550005391079757D+02 -.621383917339246D+03
 0.140364710819263D+04 0.000000000000000D+00 0.000000000000000D+00 0.140364710819263D+04
 0.286254881848402D+04 0.000000000000000D+00 0.000000000000000D+00 -.286254881848402D+04
 0.745162899127608D+03 0.892266653503891D+02 -.442681947677647D+03 -.579408354812940D+03
 0.137918387416478D+04 -.245225719725630D+03 0.632542824068707D+03 0.120079227215219D+04
 0.150609730677288D+04 0.197511380394221D+03 -.317685617855343D+03 -.145890171029139D+04
 0.635751846611383D+03 -.415123260189809D+02 0.127824741464282D+03 -.621383917339246D+03
0.165198568868D-01 0.000000000000D+00 0.000000000000D+00 0.216015884655D-03 0.000000000000D+00  6 2 -2 25 1 -1 21 0 0.29839363D+00 0.14829325D+00 0.31437471D+06 0.31437471D+06 0.31437471D+06 0.10830512D+01  1  2  2  2  6  2       -2 0.468334487526D-02 0.100000000000D+01
0.519309125498D-02 0.000000000000D+00 -.634406002237D-04 0.216015884655D-03 0.000000000000D+00  6 2 -2 25 1 -1 21 2 0.29839363D+00 0.14829325D+00 0.31437471D+06 0.31437471D+06 0.31437471D+06 0.10830512D+01  1  2  3  2  6  2       -2 0.172692633857D-02 0.100000000000D+01
-.109572756868D-01 0.000000000000D+00 0.000000000000D+00 0.216015884655D-03 0.000000000000D+00  6 2 -2 25 1 -1 21 2 0.29839363D+00 0.14829325D+00 0.31437471D+06 0.31437471D+06 0.31437471D+06 0.10830512D+01  1  2 15  2  6  2       -2 -.364376573672D-02 0.100000000000D+01
-.123362532946D+00 0.000000000000D+00 -.897633419801D-02 0.216015884655D-03 0.000000000000D+00  6 2 -2 25 1 -1 21 2 0.29839363D+00 0.31248338D+00 0.31437471D+06 0.31437471D+06 0.31437471D+06 0.10830512D+01  1  2  5  2  6  2       -2 -.317008610579D-02 0.100000000000D+01
-.938841215474D-02 0.000000000000D+00 -.723656010463D-03 0.216015884655D-03 0.000000000000D+00  6 2 21 25 1 2 -1 2 0.29839363D+00 0.31248338D+00 0.31437471D+06 0.31437471D+06 0.31437471D+06 0.10830512D+01  3  4  5  6  5  2       -2 -.172906765994D-02 0.100000000000D+01
  </mgrwgt>
  </event>
  <event>
  5     66 0.18881543E-05 0.20601299E+03 0.75467711E-02 0.85276660E-01
        2 -1    0    0  502    0 0.00000000E+00 0.00000000E+00 0.33144106E+04 0.33144106E+04 0.32000000E+00 0.0000E+00 0.9000E+01
       -2 -1    0    0    0  501 0.00000000E+00 0.00000000E+00 -.27956429E+03 0.27956447E+03 0.32000000E+00 0.0000E+00 0.9000E+01
       25  1    1    2    0    0 -.15015253E+03 -.47156670E+03 0.15915761E+04 0.16714247E+04 0.12500000E+03 0.0000E+00 0.9000E+01
        1  1    1    2  502    0 -.10898017E+02 0.20578821E+03 0.15725289E+04 0.15859744E+04 0.32000000E+00 0.0000E+00 0.9000E+01
       -1  1    1    2    0  501 0.16105054E+03 0.26577849E+03 -.12925871E+03 0.33657599E+03 0.32000000E+00 0.0000E+00 0.9000E+01
#aMCatNLO 1  0  0  1  2 0.11411354D+04 0.00000000D+00  -5  6  0 0.00000000D+00 0.00000000D+00 0.00000000D+00 0.00000000D+00 0.00000000D+00
  <mgrwgt>
 0.5928134031D-02    3    2    0
 0.962596069931244D+03 0.000000000000000D+00 0.000000000000000D+00 0.962596069931244D+03
 0.962596069931244D+03 0.000000000000000D+00 0.000000000000000D+00 -.962596069931244D+03
 0.611390916049347D+03 -.150180928730542D+03 -.471550733134591D+03 0.336540409094540D+03
 0.481657153499751D+03 -.108946541143249D+02 0.205724718722321D+03 0.435375998575752D+03
 0.832144070313390D+03 0.161075582844867D+03 0.265826014412270D+03 -.771916407670293D+03
 0.000000000000000D+00 -.000000000000000D+00 0.000000000000000D+00 -.000000000000000D+00
 0.159710468867281D+04 0.000000000000000D+00 0.000000000000000D+00 0.159710468867281D+04
 0.179988850314231D+04 0.000000000000000D+00 0.000000000000000D+00 -.179988850314231D+04
 0.922570751843533D+03 0.347882596683903D+02 -.849141991773382D+03 0.336540409094540D+03
 0.447564050253213D+03 0.101153316508933D+03 -.230070750524858D+02 0.435375998575752D+03
 0.867845285978053D+03 0.366064832642737D+03 -.152633673434022D+03 -.771916407670293D+03
 0.115901310374033D+04 -.502006408820060D+03 0.102478274025989D+04 -.202783814469500D+03
0.224349580375D-01 0.000000000000D+00 0.000000000000D+00 0.500013410834D-05 0.000000000000D+00  6 2 -2 25 1 -1 21 0 0.50990934D+00 0.43009906D-01 0.26381741D+06 0.26381741D+06 0.26381741D+06 0.10887058D+01  1  2  2  1  6  1        2 0.162998850136D-01 0.100000000000D+01
0.167861906076D-02 0.000000000000D+00 -.861561461240D-04 0.500013410834D-05 0.000000000000D+00  6 2 -2 25 1 -1 21 2 0.50990934D+00 0.43009906D-01 0.26381741D+06 0.26381741D+06 0.26381741D+06 0.10887058D+01  1  2  3  1  6  1        2 0.144554801962D-02 0.100000000000D+01
-.137226457257D-01 0.000000000000D+00 0.000000000000D+00 0.500013410834D-05 0.000000000000D+00  6 2 -2 25 1 -1 21 2 0.50990934D+00 0.43009906D-01 0.26381741D+06 0.26381741D+06 0.26381741D+06 0.10887058D+01  1  2 15  1  6  1        2 -.118172990027D-01 0.100000000000D+01
  </mgrwgt>
  </event>
  <event>
  5     66 -.18881543E-05 0.12202315E+03 0.75467711E-02 0.91667773E-01
        2 -1    0    0  502    0 0.00000000E+00 0.00000000E+00 0.20864173E+04 0.20864173E+04 0.32000000E+00 0.0000E+00 0.9000E+01
       -2 -1    0    0    0  501 0.00000000E+00 0.00000000E+00 -.44647827E+03 0.44647839E+03 0.32000000E+00 0.0000E+00 0.9000E+01
       25  1    1    2    0    0 0.60516017E+03 0.22959163E+03 0.52378411E+03 0.84196553E+03 0.12500000E+03 0.0000E+00 0.9000E+01
        1  1    1    2  502    0 -.50201169E+03 -.16443347E+03 0.13375813E+04 0.14381161E+04 0.32000000E+00 0.0000E+00 0.9000E+01
       -1  1    1    2    0  501 -.10314848E+03 -.65158154E+02 -.22142640E+03 0.25281406E+03 0.32000000E+00 0.0000E+00 0.9000E+01
#aMCatNLO 1  0  0  4  1 0.78694217D+01 0.00000000D+00  -5  6  0 0.00000000D+00 0.00000000D+00 0.00000000D+00 0.00000000D+00 0.00000000D+00
  <mgrwgt>
 -.5911862112D-02    9    2    0
 0.965163286704301D+03 0.000000000000000D+00 0.000000000000000D+00 0.965163286704301D+03
 0.965163286704301D+03 -.000000000000000D+00 -.000000000000000D+00 -.965163286704301D+03
 0.659779530499806D+03 0.605139927996564D+03 0.229589091704651D+03 -.279024260789270D+02
 0.750620305573439D+03 -.501975694318282D+03 -.164421682729878D+03 0.533307374504720D+03
 0.519926737335358D+03 -.103164233678283D+03 -.651674089747731D+02 -.505404948425792D+03
 0.000000000000000D+00 0.000000000000000D+00 0.000000000000000D+00 0.000000000000000D+00
 0.965163286704301D+03 0.000000000000000D+00 0.000000000000000D+00 0.965163286704301D+03
 0.965163286704301D+03 -.000000000000000D+00 -.000000000000000D+00 -.965163286704301D+03
 0.659618125303518D+03 0.604989919359339D+03 0.229539956511781D+03 -.277430543934502D+02
 0.699975400062725D+03 -.473817018987036D+03 -.153256858999418D+03 0.491909878311915D+03
 0.519832982624039D+03 -.103282448939578D+03 -.652061302762355D+02 -.505279354554732D+03
 0.509000654183212D+02 -.278904514327240D+02 -.110769672361267D+02 0.411125306362673D+02
0.390617799674D-04 0.000000000000D+00 0.000000000000D+00 0.285043027481D-05 0.000000000000D+00  6 2 -2 25 1 -1 21 0 0.32098729D+00 0.68688976D-01 0.42865190D+06 0.42865190D+06 0.42865190D+06 0.10732684D+01  1  2  2  3  6  4        1 0.586293321146D-04 0.100000000000D+01
0.727488565846D-05 0.000000000000D+00 -.150007520278D-06 0.285043027481D-05 0.000000000000D+00  6 2 -2 25 1 -1 21 2 0.32098729D+00 0.68688976D-01 0.42865190D+06 0.42865190D+06 0.42865190D+06 0.10732684D+01  1  2  3  3  6  4        1 0.125778316032D-04 0.100000000000D+01
-.240462228574D-04 0.000000000000D+00 0.000000000000D+00 0.285043027481D-05 0.000000000000D+00  6 2 -2 25 1 -1 21 2 0.32098729D+00 0.68688976D-01 0.42865190D+06 0.42865190D+06 0.42865190D+06 0.10732684D+01  1  2 15  3  6  4        1 -.415744461140D-04 0.100000000000D+01
0.162289502364D-07 0.000000000000D+00 0.000000000000D+00 0.285043027481D-05 0.000000000000D+00  6 2 -2 25 1 -1 21 2 0.32098729D+00 0.68688976D-01 0.42848415D+06 0.42848415D+06 0.42848415D+06 0.10732806D+01  1  2 12  3  6  4        1 0.280601788922D-07 0.100000000000D+01
0.585043022704D-02 0.000000000000D+00 0.000000000000D+00 0.285043027481D-05 0.000000000000D+00  6 2 -2 25 1 -1 21 2 0.32098729D+00 0.68688976D-01 0.42848415D+06 0.42848415D+06 0.42848415D+06 0.10732806D+01  1  2 12  3  6  4        1 0.101155106384D-01 0.100000000000D+01
-.982588217616D-02 0.000000000000D+00 0.000000000000D+00 0.285043027481D-05 0.000000000000D+00  6 2 -2 25 1 -1 21 2 0.32098729D+00 0.68688976D-01 0.42865190D+06 0.42865190D+06 0.42865190D+06 0.10732684D+01  1  2  4  3  6  4        1 -.169883482940D-01 0.100000000000D+01
-.610954675657D-02 0.000000000000D+00 0.000000000000D+00 0.285043027481D-05 0.000000000000D+00  6 2 -2 25 1 -1 21 2 0.32098729D+00 0.68688976D-01 0.42865190D+06 0.42865190D+06 0.42865190D+06 0.10732684D+01  1  2  5  3  6  4        1 -.105630320370D-01 0.100000000000D+01
0.653785137702D-02 0.000000000000D+00 -.000000000000D+00 0.285043027481D-05 0.000000000000D+00  6 2 -2 25 1 -1 21 2 0.32098729D+00 0.68688976D-01 0.42865190D+06 0.42865190D+06 0.42865190D+06 0.10732684D+01  1  2  6  3  6  4        1 0.113035444855D-01 0.100000000000D+01
0.110352871537D-03 0.000000000000D+00 0.000000000000D+00 0.285043027481D-05 0.367527391735D-06  6 2 -2 25 1 -1 21 2 0.32098729D+00 0.68688976D-01 0.42848415D+06 0.42848415D+06 0.42848415D+06 0.10732806D+01  1  2 11  3  6  4        1 0.190802317555D-03 0.100000000000D+01
  </mgrwgt>
  </event>
  <event>
  6     66 0.18881543E-05 0.19034986E+03 0.75467711E-02 0.89006284E-01
        2 -1    0    0  502    0 0.00000000E+00 0.00000000E+00 0.97423803E+03 0.97423809E+03 0.32000000E+00 0.0000E+00 0.9000E+01
       21 -1    0    0  503  501 0.00000000E+00 0.00000000E+00 -.93614946E+03 0.93614976E+03 0.75000000E+00 0.0000E+00 0.9000E+01
       25  1    1    2    0    0 0.51216038E+03 0.63420739E+03 0.44007206E+03 0.93478109E+03 0.12500000E+03 0.0000E+00 0.9000E+01
        1  1    1    2  502    0 -.21073823E+03 -.63817924E+02 -.19332919E+03 0.29301810E+03 0.32000000E+00 0.0000E+00 0.9000E+01
        2  1    1    2  503    0 -.46011712E+02 -.40231258E+02 -.13450488E+02 0.62583143E+02 0.32000000E+00 0.0000E+00 0.9000E+01
       -1  1    1    2    0  501 -.25541044E+03 -.53015821E+03 -.19520381E+03 0.62000552E+03 0.32000000E+00 0.0000E+00 0.9000E+01
#aMCatNLO 2  0  0  2  1 0.61119814D+02 0.00000000D+00  -5  6  0 0.00000000D+00 0.00000000D+00 0.00000000D+00 0.00000000D+00 0.00000000D+00
  <mgrwgt>
 0.2607049275D-01    2    2    0
 0.923037150670269D+03 0.000000000000000D+00 0.000000000000000D+00 0.923037150670269D+03
 0.923037150670269D+03 0.000000000000000D+00 0.000000000000000D+00 -.923037150670269D+03
 0.896808268371168D+03 0.489434047337422D+03 0.614444434782990D+03 0.414188870070183D+03
 0.305126854189642D+03 -.218113975206209D+03 -.703484640455997D+02 -.201444246812455D+03
 0.000000000000000D+00 -.000000000000000D+00 -.000000000000000D+00 -.000000000000000D+00
 0.644139178779728D+03 -.271320072131213D+03 -.544095970737390D+03 -.212744623257728D+03
 0.947432913535351D+03 0.000000000000000D+00 0.000000000000000D+00 0.947432913535351D+03
 0.962634881709374D+03 0.000000000000000D+00 0.000000000000000D+00 -.962634881709374D+03
 0.922888850449871D+03 0.512104978649396D+03 0.634267215798808D+03 0.414188870070183D+03
 0.298324653068916D+03 -.210595796752407D+03 -.637747947473805D+02 -.201444246812455D+03
 0.629819938319586D+02 -.460117115907102D+02 -.402312578373852D+02 -.152019681740233D+02
 0.625872297893979D+03 -.255497470306278D+03 -.530261163214042D+03 -.212744623257728D+03
-.260818761504D-07 0.000000000000D+00 0.000000000000D+00 0.132520831594D-09 0.000000000000D+00  6 2 21 25 1 2 -1 2 0.14602336D+00 0.14578436D+00 0.71782439D+06 0.71782439D+06 0.71782439D+06 0.10575850D+01  1  2 13  6  5  2       -2 -.251498812063D-06 0.100000000000D+01
0.270623672181D-02 0.000000000000D+00 0.000000000000D+00 0.132520831594D-09 0.135044926217D-09  6 2 21 25 1 2 -1 2 0.14988274D+00 0.14402296D+00 0.71782439D+06 0.71782439D+06 0.71782439D+06 0.10575850D+01  1  2  1  6  5  2       -2 0.260707442490D-01 0.100000000000D+01
  </mgrwgt>
  </event>
  <event>
  6     66 0.18881543E-05 0.53730517E+02 0.75467711E-02 0.93423437E-01
        2 -1    0    0  502    0 0.00000000E+00 0.00000000E+00 0.34687106E+03 0.34687120E+03 0.32000000E+00 0.0000E+00 0.9000E+01
       -2 -1    0    0    0  501 -.00000000E+00 -.00000000E+00 -.11504839E+04 0.11504840E+04 0.32000000E+00 0.0000E+00 0.9000E+01
       25  1    1    2    0    0 0.48088916E+03 0.20931582E+03 -.72777349E+03 0.90572996E+03 0.12500000E+03 0.0000E+00 0.9000E+01
        1  1    1    2  503    0 -.19934895E+03 -.79794704E+02 0.60230410E+01 0.21481057E+03 0.32000000E+00 0.0000E+00 0.9000E+01
       -1  1    1    2    0  501 -.30823208E+03 -.11864121E+03 -.97029854E+02 0.34423488E+03 0.32000000E+00 0.0000E+00 0.9000E+01
       21  1    1    2  502  503 0.26691876E+02 -.10879903E+02 0.15167432E+02 0.32579779E+02 0.75000000E+00 0.0000E+00 0.9000E+01
#aMCatNLO 2  0  0  4  1 0.67860761D+02 0.00000000D+00  -5  6  0 0.00000000D+00 0.00000000D+00 0.00000000D+00 0.00000000D+00 0.00000000D+00
  <mgrwgt>
 0.4956060809D-01    1    2    0
 0.631719653290948D+03 0.000000000000000D+00 0.000000000000000D+00 0.631719653290948D+03
 0.631719653290948D+03 -.000000000000000D+00 -.000000000000000D+00 -.631719653290948D+03
 0.629206367372417D+03 0.493841916469151D+03 0.216081555570597D+03 -.299507221319053D+03
 0.297132950524477D+03 -.192092226219456D+03 -.100881396815873D+03 0.203006183871115D+03
 0.337099988685002D+03 -.301749690249694D+03 -.115200158754724D+03 0.965010374479383D+02
 0.000000000000000D+00 0.000000000000000D+00 0.000000000000000D+00 0.000000000000000D+00
 0.631719653290948D+03 0.000000000000000D+00 0.000000000000000D+00 0.631719653290948D+03
 0.631719653290948D+03 -.000000000000000D+00 -.000000000000000D+00 -.631719653290948D+03
 0.610492905136850D+03 0.481075151923839D+03 0.209376812408950D+03 -.286015097240258D+03
 0.257814352487267D+03 -.198979116534950D+03 -.795811950962518D+02 0.143326148760272D+03
 0.346835146344705D+03 -.308793042639114D+03 -.118899127949341D+03 0.103944566623357D+03
 0.482969026130728D+02 0.266970072502262D+02 -.108964893633575D+02 0.387443818566285D+02
0.203884050856D-01 0.000000000000D+00 0.000000000000D+00 0.132487981880D-07 0.139814905042D-07  6 2 -2 25 1 -1 21 2 0.53364793D-01 0.17699754D+00 0.30990369D+06 0.30990369D+06 0.30990369D+06 0.10835098D+01  1  2  1  3  6  4        1 0.495606080898D-01 0.100000000000D+01
  </mgrwgt>
  </event>
  <event>
  6     66 0.18881543E-05 0.50368155E+02 0.75467711E-02 0.94896075E-01
        2 -1    0    0  502    0 0.00000000E+00 0.00000000E+00 0.83679108E+03 0.83679114E+03 0.32000000E+00 0.0000E+00 0.9000E+01
       -2 -1    0    0    0  503 0.00000000E+00 0.00000000E+00 -.16551080E+04 0.16551080E+04 0.32000000E+00 0.0000E+00 0.9000E+01
       25  1    1    2    0    0 -.45643556E+03 0.11729099E+03 0.14286427E+03 0.50806082E+03 0.12500000E+03 0.0000E+00 0.9000E+01
        1  1    1    2  502    0 0.47999692E+02 -.37586522E+02 0.47614700E+03 0.48003415E+03 0.32000000E+00 0.0000E+00 0.9000E+01
       -1  1    1    2    0  501 0.39517679E+03 -.96206949E+02 -.12322857E+04 0.12976705E+04 0.32000000E+00 0.0000E+00 0.9000E+01
       21  1    1    2  501  503 0.13259074E+02 0.16502486E+02 -.20504245E+03 0.20613370E+03 0.75000000E+00 0.0000E+00 0.9000E+01
#aMCatNLO 2  0  0  2  5 0.21169202D+02 0.00000000D+00  -5  6  0 0.00000000D+00 0.00000000D+00 0.00000000D+00 0.00000000D+00 0.00000000D+00
  <mgrwgt>
 0.4464530768D-02    3    2    0
 0.110092802178816D+04 0.000000000000000D+00 0.000000000000000D+00 0.110092802178816D+04
 0.110092802178816D+04 0.000000000000000D+00 0.000000000000000D+00 -.110092802178816D+04
 0.565446320724739D+03 -.453071453911800D+03 0.121541454138334D+03 0.289928394948359D+03
 0.630828649063390D+03 0.517886520927121D+02 -.328513509953183D+02 0.627840352901392D+03
 0.100558107378818D+04 0.401282801819088D+03 -.886901031430161D+02 -.917768747849751D+03
 0.000000000000000D+00 0.000000000000000D+00 0.000000000000000D+00 -.000000000000000D+00
 0.110169636442874D+04 0.000000000000000D+00 0.000000000000000D+00 0.110169636442874D+04
 0.125713173874013D+04 0.000000000000000D+00 0.000000000000000D+00 -.125713173874013D+04
 0.567289816457455D+03 -.456481914321756D+03 0.117296732930404D+03 0.289928394948359D+03
 0.630792158445429D+03 0.479901436182759D+02 -.375790438994401D+02 0.627840352901392D+03
 0.100387582935382D+04 0.395232696248404D+03 -.962201748456870D+02 -.917768747849751D+03
 0.156870298912168D+03 0.132590744550764D+02 0.165024858147228D+02 -.155435374311392D+03
-.892334663822D-09 0.000000000000D+00 0.000000000000D+00 0.216881659341D-03 0.000000000000D+00  6 2 -2 25 1 -1 21 2 0.12864721D+00 0.25470298D+00 0.23839011D+06 0.23839011D+06 0.23839011D+06 0.10920161D+01  1  2 13  2  6  2       -2 -.241451772472D-09 0.100000000000D+01
-.651777616593D-01 0.000000000000D+00 0.000000000000D+00 0.216881659341D-03 0.000000000000D+00  6 2 -2 25 1 -1 21 2 0.12864721D+00 0.25668375D+00 0.23839011D+06 0.23839011D+06 0.23839011D+06 0.10920161D+01  1  2 13  2  6  2       -2 -.171273950621D-01 0.100000000000D+01
0.797860664069D-01 0.000000000000D+00 0.000000000000D+00 0.216881659341D-03 0.377805023966D-05  6 2 -2 25 1 -1 21 2 0.12873699D+00 0.25463180D+00 0.23839011D+06 0.23839011D+06 0.23839011D+06 0.10920161D+01  1  2  1  2  6  2       -2 0.215919260712D-01 0.100000000000D+01
  </mgrwgt>
  </event>
  <event>
  5     66 0.18881543E-05 0.56303688E+02 0.75467711E-02 0.90418662E-01
        2 -1    0    0  502    0 0.00000000E+00 0.00000000E+00 0.24711080E+04 0.24711081E+04 0.32000000E+00 0.0000E+00 0.9000E+01
       -2 -1    0    0    0  501 0.00000000E+00 0.00000000E+00 -.29585680E+03 0.29585697E+03 0.32000000E+00 0.0000E+00 0.9000E+01
       25  1    1    2    0    0 -.53915212E+03 -.41645922E+03 0.52352739E+03 0.86823339E+03 0.12500000E+03 0.0000E+00 0.9000E+01
        1  1    1    2  502    0 -.28739572E+02 -.48478425E+02 0.67316728E+03 0.67552233E+03 0.32000000E+00 0.0000E+00 0.9000E+01
       -1  1    1    2    0  501 0.56789169E+03 0.46493765E+03 0.97855657E+03 0.12232093E+04 0.32000000E+00 0.0000E+00 0.9000E+01
#aMCatNLO 1  0  0  5  5 0.15086028D+03 0.00000000D+00  -5  6  0 0.00000000D+00 0.00000000D+00 0.00000000D+00 0.00000000D+00 0.00000000D+00
  <mgrwgt>
 0.1044823752D-02    6    2    0
 0.855040577532970D+03 0.000000000000000D+00 0.000000000000000D+00 0.855040577532970D+03
 0.855040577532970D+03 -.000000000000000D+00 -.000000000000000D+00 -.855040577532970D+03
 0.739013224460543D+03 -.539264104640457D+03 -.416557285362926D+03 -.257273782933600D+03
 0.236512033609490D+03 -.287123433275940D+02 -.484324957483236D+02 0.229712508885179D+03
 0.734555896995908D+03 0.567976447968051D+03 0.464989781111249D+03 0.275612740484214D+02
 0.000000000000000D+00 0.000000000000000D+00 0.000000000000000D+00 0.000000000000000D+00
 0.855040577532970D+03 0.000000000000000D+00 0.000000000000000D+00 0.855040577532970D+03
 0.855040577532970D+03 -.000000000000000D+00 -.000000000000000D+00 -.855040577532970D+03
 0.712828142235517D+03 -.517530378231487D+03 -.398764363276467D+03 -.256219145559473D+03
 0.234975732699456D+03 -.216542815081719D+02 -.426542163280696D+02 0.230055004030447D+03
 0.450722180945736D+03 0.232807022748660D+03 0.385554001192502D+03 0.173056846105039D+02
 0.311555099185232D+03 0.306377636990998D+03 0.558645784120352D+02 0.885845691852215D+01
0.207797421088D-02 0.000000000000D+00 0.000000000000D+00 0.214157064672D-06 0.000000000000D+00  6 2 -2 25 1 -1 21 0 0.38017048D+00 0.45516446D-01 0.54991651D+06 0.54991651D+06 0.54991651D+06 0.10656018D+01  1  2  2  4  6  5       -1 0.432101032890D-02 0.100000000000D+01
0.562102659819D-03 0.000000000000D+00 -.797996811295D-05 0.214157064672D-06 0.000000000000D+00  6 2 -2 25 1 -1 21 2 0.38017048D+00 0.45516446D-01 0.54991651D+06 0.54991651D+06 0.54991651D+06 0.10656018D+01  1  2  3  4  6  5       -1 0.132724384035D-02 0.100000000000D+01
-.149306130759D-02 0.000000000000D+00 0.000000000000D+00 0.214157064672D-06 0.000000000000D+00  6 2 -2 25 1 -1 21 2 0.38017048D+00 0.45516446D-01 0.54991651D+06 0.54991651D+06 0.54991651D+06 0.10656018D+01  1  2 15  4  6  5       -1 -.352543505915D-02 0.100000000000D+01
-.177561153315D-02 0.000000000000D+00 0.000000000000D+00 0.214157064672D-06 0.000000000000D+00  6 2 -2 25 1 -1 21 2 0.38017048D+00 0.45516446D-01 0.54991651D+06 0.54991651D+06 0.54991651D+06 0.10656018D+01  1  2  4  4  6  5       -1 -.419259619050D-02 0.100000000000D+01
-.262795659851D-02 0.000000000000D+00 0.000000000000D+00 0.214157064672D-06 0.000000000000D+00  6 2 -2 25 1 -1 21 2 0.38017048D+00 0.45516446D-01 0.54991651D+06 0.54991651D+06 0.54991651D+06 0.10656018D+01  1  2  5  4  6  5       -1 -.620516403394D-02 0.100000000000D+01
0.394702500110D-02 0.000000000000D+00 -.000000000000D+00 0.214157064672D-06 0.000000000000D+00  6 2 -2 25 1 -1 21 2 0.38017048D+00 0.45516446D-01 0.54991651D+06 0.54991651D+06 0.54991651D+06 0.10656018D+01  1  2  6  4  6  5       -1 0.931976486663D-02 0.100000000000D+01
  </mgrwgt>
  </event>
  <event>
  6     66 -.18881543E-05 0.45237330E+02 0.75467711E-02 0.93032038E-01
        2 -1    0    0  502    0 0.00000000E+00 0.00000000E+00 0.16198784E+04 0.16198785E+04 0.32000000E+00 0.0000E+00 0.9000E+01
       -2 -1    0    0    0  503 0.00000000E+00 0.00000000E+00 -.49363032E+03 0.49363042E+03 0.32000000E+00 0.0000E+00 0.9000E+01
       25  1    1    2    0    0 -.34121517E+03 -.44546967E+03 0.57520171E+03 0.81323614E+03 0.12500000E+03 0.0000E+00 0.9000E+01
        1  1    1    2  502    0 0.39780486E+02 0.28750616E+02 0.72657570E+03 0.72823172E+03 0.32000000E+00 0.0000E+00 0.9000E+01
       -1  1    1    2    0  501 0.30533283E+03 0.42330008E+03 -.14662842E+03 0.54213568E+03 0.32000000E+00 0.0000E+00 0.9000E+01
       21  1    1    2  501  503 -.38981431E+01 -.65810273E+01 -.28900884E+02 0.29905335E+02 0.75000000E+00 0.0000E+00 0.9000E+01
#aMCatNLO 2  0  0  2  5 0.76488849D+01 0.00000000D+00  -5  6  0 0.00000000D+00 0.00000000D+00 0.00000000D+00 0.00000000D+00 0.00000000D+00
  <mgrwgt>
 -.2199926562D-02    6    2    0
 0.867031720042349D+03 0.000000000000000D+00 0.000000000000000D+00 0.867031720042349D+03
 0.867031720042349D+03 0.000000000000000D+00 0.000000000000000D+00 -.867031720042349D+03
 0.596558884211926D+03 -.342595389252883D+03 -.447794736431079D+03 0.149551916134378D+03
 0.390650795057737D+03 0.388853522075802D+02 0.272555752682857D+02 0.387753925421432D+03
 0.746853760815035D+03 0.303710037045303D+03 0.420539161162794D+03 -.537305841555809D+03
 0.000000000000000D+00 -.000000000000000D+00 -.000000000000000D+00 -.000000000000000D+00
 0.867306506666239D+03 0.000000000000000D+00 0.000000000000000D+00 0.867306506666239D+03
 0.921953816207803D+03 0.000000000000000D+00 0.000000000000000D+00 -.921953816207803D+03
 0.594095092202833D+03 -.341257111506468D+03 -.445535393438378D+03 0.149551916134378D+03
 0.390845447906839D+03 0.397637426145193D+02 0.287385149764965D+02 0.387753925421432D+03
 0.749139769356402D+03 0.305391512007691D+03 0.423377905723743D+03 -.537305841555809D+03
 0.551800134079693D+02 -.389814311574253D+01 -.658102726186135D+01 -.546473095415639D+02
-.160161127565D-08 0.000000000000D+00 0.000000000000D+00 0.208935887770D-04 0.000000000000D+00  6 2 -2 25 1 -1 21 2 0.24913239D+00 0.75953837D-01 0.33275703D+06 0.33275703D+06 0.33275703D+06 0.10812377D+01  1  2 13  2  6  2       -2 -.412753591135D-08 0.100000000000D+01
-.283076032616D-02 0.000000000000D+00 0.000000000000D+00 0.208935887770D-04 0.000000000000D+00  6 2 -2 25 1 -1 21 2 0.24913239D+00 0.76038581D-01 0.33275703D+06 0.33275703D+06 0.33275703D+06 0.10812377D+01  1  2 13  2  6  2       -2 -.727715738828D-02 0.100000000000D+01
-.930324366124D-03 0.000000000000D+00 0.000000000000D+00 0.208935887770D-04 0.000000000000D+00  6 2 -2 25 1 -1 21 2 0.24913239D+00 0.71418886D-01 0.32703356D+06 0.32703356D+06 0.32703356D+06 0.10817904D+01  1  2  8  2  6  2       -2 -.275054735715D-02 0.100000000000D+01
-.127718194595D-02 0.000000000000D+00 0.000000000000D+00 0.208935887770D-04 0.000000000000D+00  6 2 -2 25 1 -1 21 2 0.24913239D+00 0.75953897D-01 0.32703356D+06 0.32703356D+06 0.32703356D+06 0.10817904D+01  1  2  9  2  6  2       -2 -.329786520760D-02 0.100000000000D+01
0.127476540711D-02 0.000000000000D+00 0.000000000000D+00 0.208935887770D-04 0.000000000000D+00  6 2 -2 25 1 -1 21 2 0.24913239D+00 0.71418886D-01 0.32703356D+06 0.32703356D+06 0.32703356D+06 0.10817904D+01  1  2 10  2  6  2       -2 0.376890335156D-02 0.100000000000D+01
0.285557776911D-02 0.000000000000D+00 0.000000000000D+00 0.208935887770D-04 0.152917157661D-05  6 2 -2 25 1 -1 21 2 0.24921134D+00 0.75942913D-01 0.33275703D+06 0.33275703D+06 0.33275703D+06 0.10812377D+01  1  2  1  2  6  2       -2 0.735674416675D-02 0.100000000000D+01
  </mgrwgt>
  </event>
  <event>
  5     66 0.18881543E-05 0.21947016E+02 0.75467711E-02 0.91779740E-01
        2 -1    0    0  502    0 0.00000000E+00 0.00000000E+00 0.12863838E+04 0.12863839E+04 0.32000000E+00 0.0000E+00 0.9000E+01
       -2 -1    0    0    0  501 0.00000000E+00 0.00000000E+00 -.78985082E+03 0.78985088E+03 0.32000000E+00 0.0000E+00 0.9000E+01
       25  1    1    2    0    0 -.50963244E+03 0.17185648E+03 -.68473609E+02 0.55639330E+03 0.12500000E+03 0.0000E+00 0.9000E+01
        1  1    1    2  502    0 0.50842631E+03 -.19376886E+03 0.97110864E+03 0.11131468E+04 0.32000000E+00 0.0000E+00 0.9000E+01
       -1  1    1    2    0  501 0.12061282E+01 0.21912379E+02 -.40610201E+03 0.40669467E+03 0.32000000E+00 0.0000E+00 0.9000E+01
#aMCatNLO 1  0  0  5  4 0.18156440D+03 0.00000000D+00  -5  6  0 0.00000000D+00 0.00000000D+00 0.00000000D+00 0.00000000D+00 0.00000000D+00
  <mgrwgt>
 0.2193749682D-02    4    2    0
 0.100799376571139D+04 0.000000000000000D+00 0.000000000000000D+00 0.100799376571139D+04
 0.100799376571139D+04 -.000000000000000D+00 -.000000000000000D+00 -.100799376571139D+04
 0.589862006853173D+03 -.509625474662427D+03 0.171852274406394D+03 -.207511104486720D+03
 0.907218126537916D+03 0.508419080900390D+03 -.193766108165933D+03 0.725954173912924D+03
 0.518907398031685D+03 0.120639376203723D+01 0.219138337595389D+02 -.518443069426204D+03
 0.000000000000000D+00 0.000000000000000D+00 0.000000000000000D+00 0.000000000000000D+00
 0.100799376571139D+04 0.000000000000000D+00 0.000000000000000D+00 0.100799376571139D+04
 0.100799376571139D+04 -.000000000000000D+00 -.000000000000000D+00 -.100799376571139D+04
 0.605755282221623D+03 -.509530965874573D+03 0.173569002336385D+03 -.248125891801471D+03
 0.859463443199556D+03 0.508558730046656D+03 -.191229417184727D+03 0.665940491555333D+03
 0.442905082374067D+03 -.644203309251712D+02 -.667512570123459D+02 -.433081057821214D+03
 0.107863723627528D+03 0.653925667530876D+02 0.844116718606877D+02 0.152664580673523D+02
0.242350495871D-02 0.000000000000D+00 0.000000000000D+00 0.114035507341D-03 0.000000000000D+00  6 2 -2 25 1 -1 21 0 0.19790521D+00 0.12151552D+00 0.31258963D+06 0.31258963D+06 0.31258963D+06 0.10832335D+01  1  2  2  4  6  5       -1 0.267110917590D-02 0.100000000000D+01
0.168102859855D-02 0.000000000000D+00 -.930689716496D-05 0.114035507341D-03 0.000000000000D+00  6 2 -2 25 1 -1 21 2 0.19790521D+00 0.12151552D+00 0.31258963D+06 0.31258963D+06 0.31258963D+06 0.10832335D+01  1  2  3  4  6  5       -1 0.217403717669D-02 0.100000000000D+01
-.160213833837D-02 0.000000000000D+00 0.000000000000D+00 0.114035507341D-03 0.000000000000D+00  6 2 -2 25 1 -1 21 2 0.19790521D+00 0.12151552D+00 0.31258963D+06 0.31258963D+06 0.31258963D+06 0.10832335D+01  1  2 15  4  6  5       -1 -.207201014476D-02 0.100000000000D+01
-.447998465583D-03 0.000000000000D+00 0.000000000000D+00 0.114035507341D-03 0.000000000000D+00  6 2 -2 25 1 -1 21 2 0.19790521D+00 0.12151552D+00 0.31258963D+06 0.31258963D+06 0.31258963D+06 0.10832335D+01  1  2  4  4  6  5       -1 -.579386525676D-03 0.100000000000D+01
  </mgrwgt>
  </event>
  <event>
  5     66 0.18881543E-05 0.58344315E+02 0.75467711E-02 0.92731972E-01
        2 -1    0    0  502    0 0.00000000E+00 0.00000000E+00 0.98714659E+03 0.98714664E+03 0.32000000E+00 0.0000E+00 0.9000E+01
       -2 -1    0    0    0  501 0.00000000E+00 0.00000000E+00 -.11804407E+04 0.11804407E+04 0.32000000E+00 0.0000E+00 0.9000E+01
       25  1    1    2    0    0 -.76965246E+02 0.47540748E+03 0.20288247E+03 0.53732878E+03 0.12500000E+03 0.0000E+00 0.9000E+01
        1  1    1    2  502    0 -.19832036E+02 0.54883990E+02 0.54367173E+03 0.54679486E+03 0.32000000E+00 0.0000E+00 0.9000E+01
       -1  1    1    2    0  501 0.96797283E+02 -.53029147E+03 -.93984828E+03 0.10834637E+04 0.32000000E+00 0.0000E+00 0.9000E+01
#aMCatNLO 1  0  0  1  4 0.95101613D+01 0.00000000D+00  -5  6  0 0.00000000D+00 0.00000000D+00 0.00000000D+00 0.00000000D+00 0.00000000D+00
  <mgrwgt>
 0.3630547464D-01    7    2    0
 0.107947584228712D+04 0.000000000000000D+00 0.000000000000000D+00 0.107947584228712D+04
 0.107947584228712D+04 0.000000000000000D+00 0.000000000000000D+00 -.107947584228712D+04
 0.557761057201501D+03 -.769819294806077D+02 0.475490139278586D+03 0.251903368204575D+03
 0.597525740341793D+03 -.198276597214973D+02 0.548718775920389D+02 0.594670456076725D+03
 0.100366488703094D+04 0.968095892021050D+02 -.530362016870625D+03 -.846573824281300D+03
 0.000000000000000D+00 -.000000000000000D+00 -.000000000000000D+00 0.000000000000000D+00
 0.211895573113235D+04 0.000000000000000D+00 0.000000000000000D+00 0.211895573113235D+04
 0.108215629174324D+04 0.000000000000000D+00 0.000000000000000D+00 -.108215629174324D+04
 0.561500410022597D+03 -.557352757476539D+02 0.482800147659534D+03 0.251903368204575D+03
 0.597971506177629D+03 0.286615828198827D+01 0.626797894583621D+02 0.594670456076725D+03
 0.100122058424224D+04 0.134867816550909D+03 -.517267909705303D+03 -.846573824281300D+03
 0.104041952243313D+04 -.819986990852438D+02 -.282120274125933D+02 0.103679943938911D+04
0.182656684866D-02 0.000000000000D+00 0.000000000000D+00 0.677452177246D-04 0.000000000000D+00  6 2 -2 25 1 -1 21 0 0.15186871D+00 0.18160627D+00 0.29981429D+06 0.29981429D+06 0.29981429D+06 0.10845718D+01  1  2  2  1  6  1        2 0.100127255447D-02 0.100000000000D+01
0.621036719673D-03 0.000000000000D+00 -.701449764495D-05 0.677452177246D-04 0.000000000000D+00  6 2 -2 25 1 -1 21 2 0.15186871D+00 0.18160627D+00 0.29981429D+06 0.29981429D+06 0.29981429D+06 0.10845718D+01  1  2  3  1  6  1        2 0.400452128774D-03 0.100000000000D+01
-.128098358100D-02 0.000000000000D+00 0.000000000000D+00 0.677452177246D-04 0.000000000000D+00  6 2 -2 25 1 -1 21 2 0.15186871D+00 0.18160627D+00 0.29981429D+06 0.29981429D+06 0.29981429D+06 0.10845718D+01  1  2 15  1  6  1        2 -.825993996306D-03 0.100000000000D+01
-.251591536782D-01 0.000000000000D+00 0.000000000000D+00 0.677452177246D-04 0.000000000000D+00  6 2 -2 25 1 -1 21 2 0.15186871D+00 0.18160627D+00 0.29981429D+06 0.29981429D+06 0.29981429D+06 0.10845718D+01  1  2  4  1  6  1        2 -.162229322831D-01 0.100000000000D+01
-.155536951665D+00 0.000000000000D+00 -.106877855805D-02 0.677452177246D-04 0.000000000000D+00  6 2 -2 25 1 -1 21 2 0.29828757D+00 0.18160627D+00 0.29981429D+06 0.29981429D+06 0.29981429D+06 0.10845718D+01  1  2  5  1  6  1        2 -.291820452579D-01 0.100000000000D+01
0.126524155214D+00 0.000000000000D+00 0.864270562105D-03 0.677452177246D-04 0.000000000000D+00  6 2 -2 25 1 -1 21 2 0.15186871D+00 0.18160627D+00 0.29981429D+06 0.29981429D+06 0.29981429D+06 0.10845718D+01  1  2  6  1  6  1        2 0.815843342135D-01 0.100000000000D+01
-.113089565793D-01 0.000000000000D+00 -.781438226827D-04 0.677452177246D-04 0.000000000000D+00  6 21 -2 25 1 -1 -2 2 0.29828757D+00 0.18160627D+00 0.29981429D+06 0.29981429D+06 0.29981429D+06 0.10845718D+01  1  2  5  5  6  1        2 -.449612715012D-03 0.100000000000D+01
  </mgrwgt>
  </event>
  <event>
  5     66 0.18881543E-05 0.10113210E+02 0.75467711E-02 0.95175127E-01
        2 -1    0    0  502    0 0.00000000E+00 0.00000000E+00 0.36409591E+03 0.36409605E+03 0.32000000E+00 0.0000E+00 0.9000E+01
       -2 -1    0    0    0  501 0.00000000E+00 0.00000000E+00 -.10768329E+04 0.10768329E+04 0.32000000E+00 0.0000E+00 0.9000E+01
       25  1    1    2    0    0 -.10008914E+03 0.45680134E+03 0.20636356E+01 0.48406049E+03 0.12500000E+03 0.0000E+00 0.9000E+01
        1  1    1    2  502    0 0.93265237E+02 -.44934012E+03 -.31427199E+03 0.55621213E+03 0.32000000E+00 0.0000E+00 0.9000E+01
       -1  1    1    2    0  501 0.68239022E+01 -.74612152E+01 -.40052861E+03 0.40065635E+03 0.32000000E+00 0.0000E+00 0.9000E+01
#aMCatNLO 1  0  0  1  4 0.11199132D+02 0.00000000D+00  -5  6  0 0.00000000D+00 0.00000000D+00 0.00000000D+00 0.00000000D+00 0.00000000D+00
  <mgrwgt>
 0.2402457724D-02    7    2    0
 0.626155393968662D+03 0.000000000000000D+00 0.000000000000000D+00 0.626155393968662D+03
 0.626155393968662D+03 0.000000000000000D+00 0.000000000000000D+00 -.626155393968662D+03
 0.558128491153784D+03 -.100078712494225D+03 0.456746264712093D+03 0.277937967206081D+03
 0.461064440331355D+03 0.932534792516076D+02 -.449283477138176D+03 -.450395816606423D+02
 0.233117856452185D+03 0.682523324261743D+01 -.746278757391667D+01 -.232898385545439D+03
 0.000000000000000D+00 0.000000000000000D+00 0.000000000000000D+00 0.000000000000000D+00
 0.758596367536664D+03 0.000000000000000D+00 0.000000000000000D+00 0.758596367536664D+03
 0.683136541887787D+03 0.000000000000000D+00 0.000000000000000D+00 -.683136541887787D+03
 0.536778098156562D+03 -.155903480505220D+03 0.413461386120017D+03 0.277937967206081D+03
 0.491041272411617D+03 0.447095385586410D+02 -.486923016972218D+03 -.450395816606423D+02
 0.234960261710701D+03 -.170401381165277D+02 -.259672926285897D+02 -.232898385545439D+03
 0.178953277145571D+03 0.128234080063107D+03 0.994289234807913D+02 0.754598256488777D+02
0.566880715273D-03 0.000000000000D+00 0.000000000000D+00 0.203812364564D-05 0.000000000000D+00  6 2 -2 25 1 -1 21 0 0.56014769D-01 0.16566661D+00 0.22704008D+06 0.22704008D+06 0.22704008D+06 0.10936206D+01  1  2  2  1  6  1        2 0.136414722959D-02 0.100000000000D+01
0.467213089967D-03 0.000000000000D+00 -.217697120977D-05 0.203812364564D-05 0.000000000000D+00  6 2 -2 25 1 -1 21 2 0.56014769D-01 0.16566661D+00 0.22704008D+06 0.22704008D+06 0.22704008D+06 0.10936206D+01  1  2  3  1  6  1        2 0.134467673592D-02 0.100000000000D+01
-.389398659673D-03 0.000000000000D+00 0.000000000000D+00 0.203812364564D-05 0.000000000000D+00  6 2 -2 25 1 -1 21 2 0.56014769D-01 0.16566661D+00 0.22704008D+06 0.22704008D+06 0.22704008D+06 0.10936206D+01  1  2 15  1  6  1        2 -.112072056606D-02 0.100000000000D+01
-.249081630391D-03 0.000000000000D+00 0.000000000000D+00 0.203812364564D-05 0.000000000000D+00  6 2 -2 25 1 -1 21 2 0.56014769D-01 0.16566661D+00 0.22704008D+06 0.22704008D+06 0.22704008D+06 0.10936206D+01  1  2  4  1  6  1        2 -.716876904618D-03 0.100000000000D+01
-.194509210114D-02 0.000000000000D+00 -.651852127586D-03 0.203812364564D-05 0.000000000000D+00  6 2 -2 25 1 -1 21 2 0.73007113D-01 0.16566661D+00 0.22704008D+06 0.22704008D+06 0.22704008D+06 0.10936206D+01  1  2  5  1  6  1        2 -.417171198838D-02 0.100000000000D+01
0.206704967451D-02 0.000000000000D+00 0.629624632083D-03 0.203812364564D-05 0.000000000000D+00  6 2 -2 25 1 -1 21 2 0.56014769D-01 0.16566661D+00 0.22704008D+06 0.22704008D+06 0.22704008D+06 0.10936206D+01  1  2  6  1  6  1        2 0.594913470747D-02 0.100000000000D+01
-.566905219818D-04 0.000000000000D+00 -.230218739258D-04 0.203812364564D-05 0.000000000000D+00  6 21 -2 25 1 -1 -2 2 0.73007113D-01 0.16566661D+00 0.22704008D+06 0.22704008D+06 0.22704008D+06 0.10936206D+01  1  2  5  5  6  1        2 -.246191489869D-03 0.100000000000D+01
  </mgrwgt>
  </event>
  <event>
  6     66 0.18881543E-05 0.13880794E+03 0.75467711E-02 0.93379237E-01
        2 -1    0    0  502    0 0.00000000E+00 0.00000000E+00 0.94668446E+03 0.94668452E+03 0.32000000E+00 0.0000E+00 0.9000E+01
       -2 -1    0    0    0  503 0.00000000E+00 0.00000000E+00 -.66049883E+03 0.66049891E+03 0.32000000E+00 0.0000E+00 0.9000E+01
       25  1    1    2    0    0 0.35063642E+03 -.32613507E+03 0.22045829E+03 0.54179041E+03 0.12500000E+03 0.0000E+00 0.9000E+01
        1  1    1    2  502    0 0.69046087E+02 0.11767993E+03 0.39157477E+03 0.41466472E+03 0.32000000E+00 0.0000E+00 0.9000E+01
       -1  1    1    2    0  501 -.20477990E+03 0.29755479E+02 0.17888854E+02 0.20770246E+03 0.32000000E+00 0.0000E+00 0.9000E+01
       21  1    1    2  501  503 -.21490261E+03 0.17869967E+03 -.34373628E+03 0.44302584E+03 0.75000000E+00 0.0000E+00 0.9000E+01
#aMCatNLO 2  0  0  2  1 0.70378825D+02 0.00000000D+00  -5  6  0 0.00000000D+00 0.00000000D+00 0.00000000D+00 0.00000000D+00 0.00000000D+00
  <mgrwgt>
 0.1643766878D-01    1    2    0
 0.469133390655798D+03 0.000000000000000D+00 0.000000000000000D+00 0.469133390655798D+03
 0.469133390655798D+03 0.000000000000000D+00 0.000000000000000D+00 -.469133390655798D+03
 0.381824606664708D+03 0.251610619240226D+03 -.243719419520999D+03 -.863595454397280D+02
 0.258087626906098D+03 0.130705209448063D+02 0.164146596384092D+03 0.198731677242885D+03
 0.298354547740791D+03 -.264681140185032D+03 0.795728231369068D+02 -.112372131803158D+03
 0.000000000000000D+00 -.000000000000000D+00 0.000000000000000D+00 -.000000000000000D+00
 0.516595627692451D+03 0.000000000000000D+00 0.000000000000000D+00 0.516595627692451D+03
 0.121039284150527D+04 0.000000000000000D+00 0.000000000000000D+00 -.121039284150527D+04
 0.502452613787196D+03 0.350726953417163D+03 -.326138409513115D+03 -.863595454397280D+02
 0.241025695481743D+03 0.690148353631664D+02 0.117626777744195D+03 0.198731677242885D+03
 0.235532035059289D+03 -.204839181431019D+03 0.298119654476886D+02 -.112372131803158D+03
 0.747978124869494D+03 -.214902607349311D+03 0.178699666321231D+03 -.693797213812821D+03
0.509357000719D-02 0.000000000000D+00 0.000000000000D+00 0.160133754188D-06 0.657507230262D-10  6 2 -2 25 1 -1 21 2 0.14564372D+00 0.10161518D+00 0.31239426D+06 0.31239426D+06 0.31239426D+06 0.10832535D+01  1  2  1  2  6  2       -2 0.164376687845D-01 0.100000000000D+01
  </mgrwgt>
  </event>
  <event>
  5     66 0.18881543E-05 0.31652020E+02 0.75467711E-02 0.83716758E-01
        2 -1    0    0  502    0 0.00000000E+00 0.00000000E+00 0.25982251E+04 0.25982251E+04 0.32000000E+00 0.0000E+00 0.9000E+01
       -2 -1    0    0    0  501 0.00000000E+00 0.00000000E+00 -.27667336E+04 0.27667337E+04 0.32000000E+00 0.0000E+00 0.9000E+01
       25  1    1    2    0    0 -.13201746E+04 -.40306304E+03 0.36561227E+03 0.14333939E+04 0.12500000E+03 0.0000E+00 0.9000E+01
        1  1    1    2  502    0 0.30113022E+02 0.97584300E+01 0.14948810E+04 0.14952161E+04 0.32000000E+00 0.0000E+00 0.9000E+01
       -1  1    1    2    0  501 0.12900615E+04 0.39330461E+03 -.20290018E+04 0.24363488E+04 0.32000000E+00 0.0000E+00 0.9000E+01
#aMCatNLO 1  0  0  2  2 0.16704128D+03 0.00000000D+00  -5  6  0 0.00000000D+00 0.00000000D+00 0.00000000D+00 0.00000000D+00 0.00000000D+00
  <mgrwgt>
 0.8430443405D-03    7    4    0
 0.268115590161652D+04 0.000000000000000D+00 0.000000000000000D+00 0.268115590161652D+04
 0.268115590161652D+04 0.000000000000000D+00 0.000000000000000D+00 -.268115590161652D+04
 0.144569476843393D+04 -.132024747807807D+04 -.403085242730310D+03 0.410946769300809D+03
 0.154279878025722D+04 0.301104568922305D+02 0.975759876301575D+01 0.154247406007857D+04
 0.237381825454190D+04 0.129013702118584D+04 0.393327643967294D+03 -.195342082937938D+04
 0.000000000000000D+00 -.000000000000000D+00 0.000000000000000D+00 -.000000000000000D+00
 0.275382746976137D+04 0.000000000000000D+00 0.000000000000000D+00 0.275382746976137D+04
 0.279192670553527D+04 0.000000000000000D+00 0.000000000000000D+00 -.279192670553527D+04
 0.144682669218910D+04 -.130670317648216D+04 -.448700388459288D+03 0.410946769300809D+03
 0.154360825386634D+04 0.445626323685397D+02 -.389151279762927D+02 0.154247406007857D+04
 0.237477993862370D+04 0.131237244690752D+04 0.318442115358993D+03 -.195342082937938D+04
 0.180539290617502D+03 -.502319027938980D+02 0.169173401076588D+03 -.380992357738978D+02
 0.268115590161652D+04 0.000000000000000D+00 0.000000000000000D+00 0.268115590161652D+04
 0.268115590161652D+04 0.000000000000000D+00 0.000000000000000D+00 -.268115590161652D+04
 0.144569476843393D+04 -.132024747807807D+04 -.403085242730310D+03 0.410946769300809D+03
 0.154279878025722D+04 0.301104568922305D+02 0.975759876301575D+01 0.154247406007857D+04
 0.000000000000000D+00 -.000000000000000D+00 0.000000000000000D+00 -.000000000000000D+00
 0.237381825454190D+04 0.129013702118584D+04 0.393327643967294D+03 -.195342082937938D+04
 0.275382746976137D+04 0.000000000000000D+00 0.000000000000000D+00 0.275382746976137D+04
 0.279192670553527D+04 0.000000000000000D+00 0.000000000000000D+00 -.279192670553527D+04
 0.144682669218910D+04 -.130670317648216D+04 -.448700388459288D+03 0.410946769300809D+03
 0.154360825386634D+04 0.445626323685397D+02 -.389151279762927D+02 0.154247406007857D+04
 0.180539290617502D+03 -.502319027938980D+02 0.169173401076588D+03 -.380992357738978D+02
 0.237477993862370D+04 0.131237244690752D+04 0.318442115358993D+03 -.195342082937938D+04
0.110149110875D+00 0.000000000000D+00 0.000000000000D+00 0.139976806212D-03 0.000000000000D+00  6 2 -2 25 1 -1 21 0 0.39972694D+00 0.42565133D+00 0.19133422D+07 0.19133422D+07 0.19133422D+07 0.10296056D+01  1  2  2  2  6  2       -2 0.128406343456D-03 0.100000000000D+01
0.110449773676D+00 0.000000000000D+00 -.423001588687D-03 0.139976806212D-03 0.000000000000D+00  6 2 -2 25 1 -1 21 2 0.39972694D+00 0.42565133D+00 0.19133422D+07 0.19133422D+07 0.19133422D+07 0.10296056D+01  1  2  3  2  6  2       -2 0.136493549317D-03 0.100000000000D+01
-.706861806964D-01 0.000000000000D+00 0.000000000000D+00 0.139976806212D-03 0.000000000000D+00  6 2 -2 25 1 -1 21 2 0.39972694D+00 0.42565133D+00 0.19133422D+07 0.19133422D+07 0.19133422D+07 0.10296056D+01  1  2 15  2  6  2       -2 -.873538022743D-04 0.100000000000D+01
-.180419619263D-01 0.000000000000D+00 0.000000000000D+00 0.139976806212D-03 0.000000000000D+00  6 2 -2 25 1 -1 21 2 0.39972694D+00 0.42565133D+00 0.19133422D+07 0.19133422D+07 0.19133422D+07 0.10296056D+01  1  2  4  2  6  2       -2 -.222962106486D-04 0.100000000000D+01
-.176542737280D+01 0.000000000000D+00 -.337466414689D+00 0.139976806212D-03 0.000000000000D+00  6 2 -2 25 1 -1 21 2 0.39972694D+00 0.44746156D+00 0.19133422D+07 0.19133422D+07 0.19133422D+07 0.10296056D+01  1  2  5  2  6  2       -2 -.141792378511D-02 0.100000000000D+01
0.178048808161D+01 0.000000000000D+00 0.337045523995D+00 0.139976806212D-03 0.000000000000D+00  6 2 -2 25 1 -1 21 2 0.39972694D+00 0.42565133D+00 0.19133422D+07 0.19133422D+07 0.19133422D+07 0.10296056D+01  1  2  6  2  6  2       -2 0.220032264157D-02 0.100000000000D+01
-.150725608969D-01 0.000000000000D+00 -.293786175084D-02 0.139976806212D-03 0.000000000000D+00  6 2 21 25 1 2 -1 2 0.39972694D+00 0.44746156D+00 0.19133422D+07 0.19133422D+07 0.19133422D+07 0.10296056D+01  3  4  5  6  5  2       -2 -.946043957764D-04 0.100000000000D+01
  </mgrwgt>
  </event>
  <event>
  5     66 0.18881543E-05 0.13402684E+03 0.75467711E-02 0.95376288E-01
        2 -1    0    0  502    0 0.00000000E+00 0.00000000E+00 0.14985675E+04 0.14985675E+04 0.32000000E+00 0.0000E+00 0.9000E+01
       -2 -1    0    0    0  501 0.00000000E+00 0.00000000E+00 -.61625393E+03 0.61625401E+03 0.32000000E+00 0.0000E+00 0.9000E+01
       25  1    1    2    0    0 0.44113013E+03 -.11591228E+03 -.31189624E+03 0.56651188E+03 0.12500000E+03 0.0000E+00 0.9000E+01
        1  1    1    2  502    0 -.30713250E+03 0.11853648E+03 0.13224527E+04 0.13628142E+04 0.32000000E+00 0.0000E+00 0.9000E+01
       -1  1    1    2    0  501 -.13399763E+03 -.26242019E+01 -.12824286E+03 0.18549551E+03 0.32000000E+00 0.0000E+00 0.9000E+01
#aMCatNLO 1  0  0  5  2 0.85491085D+01 0.00000000D+00  -5  6  0 0.00000000D+00 0.00000000D+00 0.00000000D+00 0.00000000D+00 0.00000000D+00
  <mgrwgt>
 0.2844234644D-02    9    2    0
 0.960988153978085D+03 0.000000000000000D+00 0.000000000000000D+00 0.960988153978085D+03
 0.960988153978085D+03 -.000000000000000D+00 -.000000000000000D+00 -.960988153978085D+03
 0.766530196260077D+03 0.441132935908589D+03 -.115912394282530D+03 -.603249195181288D+03
 0.892459845145499D+03 -.307131778077395D+03 0.118536206535783D+03 0.829520231116910D+03
 0.262986266550594D+03 -.134001157831194D+03 -.262381225325287D+01 -.226271035935621D+03
 0.000000000000000D+00 0.000000000000000D+00 -.000000000000000D+00 0.000000000000000D+00
 0.960988153978085D+03 0.000000000000000D+00 0.000000000000000D+00 0.960988153978085D+03
 0.960988153978085D+03 -.000000000000000D+00 -.000000000000000D+00 -.960988153978085D+03
 0.766618011307578D+03 0.441016870932460D+03 -.115914666895032D+03 -.603445179625078D+03
 0.892293957719545D+03 -.307266890525431D+03 0.118533560963890D+03 0.829292083583861D+03
 0.110430762990568D+03 -.507438377492713D+02 0.472470130124438D+01 -.979678189140118D+02
 0.152633575938479D+03 -.830061426577569D+02 -.734359537010294D+01 -.127879085044771D+03
0.710219400512D-04 0.000000000000D+00 0.000000000000D+00 0.405213228417D-05 0.000000000000D+00  6 2 -2 25 1 -1 21 0 0.23054885D+00 0.94808306D-01 0.21910128D+06 0.21910128D+06 0.21910128D+06 0.10947958D+01  1  2  2  4  6  5       -1 0.112244135427D-03 0.100000000000D+01
0.403538049783D-05 0.000000000000D+00 -.272742950303D-06 0.405213228417D-05 0.000000000000D+00  6 2 -2 25 1 -1 21 2 0.23054885D+00 0.94808306D-01 0.21910128D+06 0.21910128D+06 0.21910128D+06 0.10947958D+01  1  2  3  4  6  5       -1 0.764402021604D-05 0.100000000000D+01
-.465660064702D-04 0.000000000000D+00 0.000000000000D+00 0.405213228417D-05 0.000000000000D+00  6 2 -2 25 1 -1 21 2 0.23054885D+00 0.94808306D-01 0.21910128D+06 0.21910128D+06 0.21910128D+06 0.10947958D+01  1  2 15  4  6  5       -1 -.882076659264D-04 0.100000000000D+01
0.676803279493D-08 0.000000000000D+00 0.000000000000D+00 0.405213228417D-05 0.000000000000D+00  6 2 -2 25 1 -1 21 2 0.23054885D+00 0.94808306D-01 0.21923435D+06 0.21923435D+06 0.21923435D+06 0.10947757D+01  1  2 12  4  6  5       -1 0.128194416767D-07 0.100000000000D+01
0.219417306536D-02 0.000000000000D+00 0.000000000000D+00 0.405213228417D-05 0.000000000000D+00  6 2 -2 25 1 -1 21 2 0.23054885D+00 0.94808306D-01 0.21923435D+06 0.21923435D+06 0.21923435D+06 0.10947757D+01  1  2 12  4  6  5       -1 0.415601911103D-02 0.100000000000D+01
-.355902658490D-02 0.000000000000D+00 0.000000000000D+00 0.405213228417D-05 0.000000000000D+00  6 2 -2 25 1 -1 21 2 0.23054885D+00 0.94808306D-01 0.21910128D+06 0.21910128D+06 0.21910128D+06 0.10947958D+01  1  2  4  4  6  5       -1 -.674168673289D-02 0.100000000000D+01
-.219838178985D-02 0.000000000000D+00 0.000000000000D+00 0.405213228417D-05 0.000000000000D+00  6 2 -2 25 1 -1 21 2 0.23054885D+00 0.94808306D-01 0.21910128D+06 0.21910128D+06 0.21910128D+06 0.10947958D+01  1  2  5  4  6  5       -1 -.416428509113D-02 0.100000000000D+01
0.504625561633D-02 0.000000000000D+00 -.000000000000D+00 0.405213228417D-05 0.000000000000D+00  6 2 -2 25 1 -1 21 2 0.23054885D+00 0.94808306D-01 0.21910128D+06 0.21910128D+06 0.21910128D+06 0.10947958D+01  1  2  6  4  6  5       -1 0.955887058662D-02 0.100000000000D+01
0.191300900851D-05 0.000000000000D+00 0.000000000000D+00 0.405213228417D-05 0.721427923322D-07  6 2 -2 25 1 -1 21 2 0.23054885D+00 0.94808306D-01 0.21923435D+06 0.21923435D+06 0.21923435D+06 0.10947757D+01  1  2 11  4  6  5       -1 0.362346166967D-05 0.100000000000D+01
  </mgrwgt>
  </event>
  <event>
  6     66 0.18881543E-05 0.54210865E+02 0.75467711E-02 0.94162914E-01
        2 -1    0    0  502    0 0.00000000E+00 0.00000000E+00 0.15674690E+04 0.15674690E+04 0.32000000E+00 0.0000E+00 0.9000E+01
       -2 -1    0    0    0  503 0.00000000E+00 0.00000000E+00 -.94883732E+03 0.94883738E+03 0.32000000E+00 0.0000E+00 0.9000E+01
       25  1    1    2    0    0 -.43280049E+03 -.16736994E+03 0.86603604E+03 0.99044049E+03 0.12500000E+03 0.0000E+00 0.9000E+01
        1  1    1    2  502    0 0.47220944E+03 0.10794057E+03 0.54510405E+03 0.72922661E+03 0.32000000E+00 0.0000E+00 0.9000E+01
       -1  1    1    2    0  501 -.42885132E+02 0.44553959E+02 -.51321104E+03 0.51692346E+03 0.32000000E+00 0.0000E+00 0.9000E+01
       21  1    1    2  501  503 0.34761800E+01 0.14875407E+02 -.27929738E+03 0.27971584E+03 0.75000000E+00 0.0000E+00 0.9000E+01
#aMCatNLO 2  0  0  2  5 0.15276176D+02 0.00000000D+00  -5  6  0 0.00000000D+00 0.00000000D+00 0.00000000D+00 0.00000000D+00 0.00000000D+00
  <mgrwgt>
 0.1154945551D-01    3    2    0
 0.102418594455235D+04 0.000000000000000D+00 0.000000000000000D+00 0.102418594455235D+04
 0.102418594455235D+04 0.000000000000000D+00 0.000000000000000D+00 -.102418594455235D+04
 0.699900886720500D+03 -.431492068939267D+03 -.162261176346124D+03 0.511587877422272D+03
 0.558731101909264D+03 0.473043043617918D+03 0.111966366457951D+03 0.275452819748937D+03
 0.789739900474945D+03 -.415509746786503D+02 0.502948098881729D+02 -.787040697171209D+03
 0.000000000000000D+00 0.000000000000000D+00 0.000000000000000D+00 -.000000000000000D+00
 0.102435082965444D+04 0.000000000000000D+00 0.000000000000000D+00 0.102435082965444D+04
 0.145191685699176D+04 0.000000000000000D+00 0.000000000000000D+00 -.145191685699176D+04
 0.701830962394156D+03 -.432681453651736D+03 -.167350838406929D+03 0.511587877422272D+03
 0.557130756963119D+03 0.472096222699916D+03 0.107914692971479D+03 0.275452819748937D+03
 0.789467131646620D+03 -.428909490132675D+02 0.445607387656385D+02 -.787040697171209D+03
 0.427838835642302D+03 0.347617996508750D+01 0.148754066698114D+02 -.427566027337321D+03
-.187723029692D-07 0.000000000000D+00 0.000000000000D+00 0.139860907985D-04 0.000000000000D+00  6 2 -2 25 1 -1 21 2 0.24111019D+00 0.14598059D+00 0.27136862D+06 0.27136862D+06 0.27136862D+06 0.10877895D+01  1  2 13  2  6  2       -2 -.106027864899D-07 0.100000000000D+01
-.401356708914D-01 0.000000000000D+00 0.000000000000D+00 0.139860907985D-04 0.000000000000D+00  6 2 -2 25 1 -1 21 2 0.24111019D+00 0.15300842D+00 0.27136862D+06 0.27136862D+06 0.27136862D+06 0.10877895D+01  1  2 13  2  6  2       -2 -.199169357462D-01 0.100000000000D+01
0.557232600980D-01 0.000000000000D+00 0.000000000000D+00 0.139860907985D-04 0.648441739417D-06  6 2 -2 25 1 -1 21 2 0.24114900D+00 0.14597493D+00 0.27136862D+06 0.27136862D+06 0.27136862D+06 0.10877895D+01  1  2  1  2  6  2       -2 0.314664018605D-01 0.100000000000D+01
  </mgrwgt>
  </event>
  <event>
  5     66 -.18881543E-05 0.17044598E+02 0.75467711E-02 0.90203605E-01
        2 -1    0    0  502    0 0.00000000E+00 0.00000000E+00 0.13394260E+04 0.13394260E+04 0.32000000E+00 0.0000E+00 0.9000E+01
       -2 -1    0    0    0  501 0.00000000E+00 0.00000000E+00 -.68785195E+03 0.68785202E+03 0.32000000E+00 0.0000E+00 0.9000E+01
       25  1    1    2    0    0 0.73711036E+03 0.22298140E+02 -.17106355E+03 0.76727872E+03 0.12500000E+03 0.0000E+00 0.9000E+01
        1  1    1    2  502    0 0.35250470E+01 -.16688683E+02 0.41349967E+03 0.41385144E+03 0.32000000E+00 0.0000E+00 0.9000E+01
       -1  1    1    2    0  501 -.74063541E+03 -.56094576E+01 0.40913788E+03 0.84614785E+03 0.32000000E+00 0.0000E+00 0.9000E+01
#aMCatNLO 1  0  0  4  1 0.14889220D+01 0.00000000D+00  -5  6  0 0.00000000D+00 0.00000000D+00 0.00000000D+00 0.00000000D+00 0.00000000D+00
  <mgrwgt>
 -.5004689692D-02    9    2    0
 0.959857730848729D+03 0.000000000000000D+00 0.000000000000000D+00 0.959857730848729D+03
 0.959857730848729D+03 -.000000000000000D+00 -.000000000000000D+00 -.959857730848729D+03
 0.868399919479461D+03 0.737231930809155D+03 0.222970078853399D+02 -.441004924900732D+03
 0.296478806864606D+03 0.352250320452891D+01 -.166766395529580D+02 0.295988453464413D+03
 0.754836735353391D+03 -.740754434013684D+03 -.562036833238227D+01 0.145016471436319D+03
 0.000000000000000D+00 0.000000000000000D+00 0.000000000000000D+00 0.000000000000000D+00
 0.959857730848729D+03 0.000000000000000D+00 0.000000000000000D+00 0.959857730848729D+03
 0.959857730848729D+03 -.000000000000000D+00 -.000000000000000D+00 -.959857730848729D+03
 0.868394288916374D+03 0.737232065047282D+03 0.222963723597677D+02 -.440993645156354D+03
 0.242133667119795D+03 0.339996306718590D+01 -.150109217454065D+02 0.241644005165398D+03
 0.754838508664934D+03 -.740754317329752D+03 -.562092075086603D+01 0.145026276139008D+03
 0.543489969963551D+02 0.122289215283412D+00 -.166452986349556D+01 0.543233638519484D+02
0.972729398893D-06 0.000000000000D+00 0.000000000000D+00 0.100988357115D-05 0.000000000000D+00  6 2 -2 25 1 -1 21 0 0.20606554D+00 0.10582339D+00 0.56693869D+06 0.56693869D+06 0.56693869D+06 0.10646752D+01  1  2  2  3  6  4        1 0.137139594330D-05 0.100000000000D+01
0.702427473305D-06 0.000000000000D+00 -.373553701728D-08 0.100988357115D-05 0.000000000000D+00  6 2 -2 25 1 -1 21 2 0.20606554D+00 0.10582339D+00 0.56693869D+06 0.56693869D+06 0.56693869D+06 0.10646752D+01  1  2  3  3  6  4        1 0.112255229081D-05 0.100000000000D+01
-.667679074567D-06 0.000000000000D+00 0.000000000000D+00 0.100988357115D-05 0.000000000000D+00  6 2 -2 25 1 -1 21 2 0.20606554D+00 0.10582339D+00 0.56693869D+06 0.56693869D+06 0.56693869D+06 0.10646752D+01  1  2 15  3  6  4        1 -.106702072906D-05 0.100000000000D+01
0.584239233106D-11 0.000000000000D+00 0.000000000000D+00 0.100988357115D-05 0.000000000000D+00  6 2 -2 25 1 -1 21 2 0.20606554D+00 0.10582339D+00 0.56695042D+06 0.56695042D+06 0.56695042D+06 0.10646746D+01  1  2 12  3  6  4        1 0.933673025889D-11 0.100000000000D+01
0.237399819841D-06 0.000000000000D+00 0.000000000000D+00 0.100988357115D-05 0.000000000000D+00  6 2 -2 25 1 -1 21 2 0.20606554D+00 0.10582339D+00 0.56695042D+06 0.56695042D+06 0.56695042D+06 0.10646746D+01  1  2 12  3  6  4        1 0.379388777022D-06 0.100000000000D+01
-.106506374653D-01 0.000000000000D+00 0.000000000000D+00 0.100988357115D-05 0.000000000000D+00  6 2 -2 25 1 -1 21 2 0.20606554D+00 0.10582339D+00 0.56693869D+06 0.56693869D+06 0.56693869D+06 0.10646752D+01  1  2  4  3  6  4        1 -.170208283981D-01 0.100000000000D+01
-.216811694156D-02 0.000000000000D+00 0.000000000000D+00 0.100988357115D-05 0.000000000000D+00  6 2 -2 25 1 -1 21 2 0.20606554D+00 0.10582339D+00 0.56693869D+06 0.56693869D+06 0.56693869D+06 0.10646752D+01  1  2  5  3  6  4        1 -.346487677658D-02 0.100000000000D+01
0.283095591406D-02 0.000000000000D+00 -.000000000000D+00 0.100988357115D-05 0.000000000000D+00  6 2 -2 25 1 -1 21 2 0.20606554D+00 0.10582339D+00 0.56693869D+06 0.56693869D+06 0.56693869D+06 0.10646752D+01  1  2  6  3  6  4        1 0.452416251823D-02 0.100000000000D+01
0.685504225727D-02 0.000000000000D+00 0.000000000000D+00 0.100988357115D-05 0.690552679496D-05  6 2 -2 25 1 -1 21 2 0.20606554D+00 0.10582339D+00 0.56695042D+06 0.56695042D+06 0.56695042D+06 0.10646746D+01  1  2 11  3  6  4        1 0.109550466389D-01 0.100000000000D+01
  </mgrwgt>
  </event>
  <event>
  5     66 0.18881543E-05 0.57433351E+02 0.75467711E-02 0.90271477E-01
        2 -1    0    0  502    0 0.00000000E+00 0.00000000E+00 0.13560293E+04 0.13560293E+04 0.32000000E+00 0.0000E+00 0.9000E+01
       -2 -1    0    0    0  501 0.00000000E+00 0.00000000E+00 -.68480551E+03 0.68480558E+03 0.32000000E+00 0.0000E+00 0.9000E+01
       25  1    1    2    0    0 -.28848581E+01 -.53824009E+03 0.12578210E+03 0.56670703E+03 0.12500000E+03 0.0000E+00 0.9000E+01
        1  1    1    2  502    0 -.53058343E+02 0.52527022E+03 0.93854983E+03 0.10768472E+04 0.32000000E+00 0.0000E+00 0.9000E+01
       -1  1    1    2    0  501 0.55943201E+02 0.12969867E+02 -.39310812E+03 0.39728071E+03 0.32000000E+00 0.0000E+00 0.9000E+01
#aMCatNLO 1  0  0  2  1 0.17508578D+03 0.00000000D+00  -5  6  0 0.00000000D+00 0.00000000D+00 0.00000000D+00 0.00000000D+00 0.00000000D+00
  <mgrwgt>
 0.6692724961D-02    4    2    0
 0.963647472093973D+03 0.000000000000000D+00 0.000000000000000D+00 0.963647472093973D+03
 0.963647472093973D+03 0.000000000000000D+00 0.000000000000000D+00 -.963647472093973D+03
 0.556259304033371D+03 -.289296172108108D+01 -.538221970035631D+03 -.640948911157107D+02
 0.813383710527371D+03 -.530563141376082D+02 0.525250140299628D+03 0.618781365424515D+03
 0.557651929627203D+03 0.559492758586893D+02 0.129718297360037D+02 -.554686474308804D+03
 0.000000000000000D+00 -.000000000000000D+00 0.000000000000000D+00 0.000000000000000D+00
 0.123565388170158D+04 0.000000000000000D+00 0.000000000000000D+00 0.123565388170158D+04
 0.104960997849897D+04 0.000000000000000D+00 0.000000000000000D+00 -.104960997849897D+04
 0.579554241426876D+03 0.775037409741502D+02 -.556904959417456D+03 -.640948911157107D+02
 0.797097747020202D+03 0.609389797696932D+02 0.498759341619467D+03 0.618781365424515D+03
 0.571106546957020D+03 0.135846597051396D+03 -.559511086525705D+01 -.554686474308804D+03
 0.337505324796454D+03 -.274289317795239D+03 0.637407286632462D+02 0.186043903202605D+03
0.710234885054D-02 0.000000000000D+00 0.000000000000D+00 0.343939522368D-04 0.000000000000D+00  6 2 -2 25 1 -1 21 0 0.20861990D+00 0.10535470D+00 0.32371016D+06 0.32371016D+06 0.32371016D+06 0.10821162D+01  1  2  2  2  6  2       -2 0.102130009534D-01 0.100000000000D+01
0.262875515532D-02 0.000000000000D+00 -.272748896775D-04 0.343939522368D-04 0.000000000000D+00  6 2 -2 25 1 -1 21 2 0.20861990D+00 0.10535470D+00 0.32371016D+06 0.32371016D+06 0.32371016D+06 0.10821162D+01  1  2  3  2  6  2       -2 0.442638637298D-02 0.100000000000D+01
-.433365179933D-02 0.000000000000D+00 0.000000000000D+00 0.343939522368D-04 0.000000000000D+00  6 2 -2 25 1 -1 21 2 0.20861990D+00 0.10535470D+00 0.32371016D+06 0.32371016D+06 0.32371016D+06 0.10821162D+01  1  2 15  2  6  2       -2 -.729714870211D-02 0.100000000000D+01
-.385735054693D-03 0.000000000000D+00 0.000000000000D+00 0.343939522368D-04 0.000000000000D+00  6 2 -2 25 1 -1 21 2 0.20861990D+00 0.10535470D+00 0.32371016D+06 0.32371016D+06 0.32371016D+06 0.10821162D+01  1  2  4  2  6  2       -2 -.649513662852D-03 0.100000000000D+01
  </mgrwgt>
  </event>
  <event>
  6     66 0.18881543E-05 0.39461272E+02 0.75467711E-02 0.95287347E-01
        2 -1    0    0  503    0 0.00000000E+00 0.00000000E+00 0.19210180E+04 0.19210180E+04 0.32000000E+00 0.0000E+00 0.9000E+01
       -2 -1    0    0    0  501 0.00000000E+00 0.00000000E+00 -.12966783E+04 0.12966784E+04 0.32000000E+00 0.0000E+00 0.9000E+01
       25  1    1    2    0    0 0.36192597E+03 -.28518264E+03 0.48892487E+03 0.68336818E+03 0.12500000E+03 0.0000E+00 0.9000E+01
        1  1    1    2  502    0 -.46097539E+02 0.10387788E+02 0.33817619E+03 0.34146175E+03 0.32000000E+00 0.0000E+00 0.9000E+01
       -1  1    1    2    0  501 -.30234132E+03 0.26708173E+03 -.11637825E+04 0.12317195E+04 0.32000000E+00 0.0000E+00 0.9000E+01
       21  1    1    2  503  502 -.13487103E+02 0.77131229E+01 0.96102116E+03 0.96114703E+03 0.75000000E+00 0.0000E+00 0.9000E+01
#aMCatNLO 2  0  0  1  4 0.15536866D+02 0.00000000D+00  -5  6  0 0.00000000D+00 0.00000000D+00 0.00000000D+00 0.00000000D+00 0.00000000D+00
  <mgrwgt>
 0.6386694807D-01    3    2    0
 0.111561859295369D+04 0.000000000000000D+00 0.000000000000000D+00 0.111561859295369D+04
 0.111561859295369D+04 0.000000000000000D+00 0.000000000000000D+00 -.111561859295369D+04
 0.761900081392619D+03 0.357332780777582D+03 -.282576490832848D+03 0.597771314665093D+03
 0.396479418791531D+03 -.484699487100121D+02 0.117525722848912D+02 0.393329976790490D+03
 0.107285768572322D+04 -.308862832067570D+03 0.270823918547957D+03 -.991101291455582D+03
 0.000000000000000D+00 -.000000000000000D+00 0.000000000000000D+00 0.000000000000000D+00
 0.223262773041964D+04 0.000000000000000D+00 0.000000000000000D+00 0.223262773041964D+04
 0.111569966797190D+04 0.000000000000000D+00 0.000000000000000D+00 -.111569966797190D+04
 0.765055346653927D+03 0.361947699314318D+03 -.285215710942437D+03 0.597771314665093D+03
 0.396155418618846D+03 -.460743678457380D+02 0.103825664785460D+02 0.393329976790490D+03
 0.107008051423142D+04 -.302386228336771D+03 0.267120021572940D+03 -.991101291455582D+03
 0.111703611888734D+04 -.134871031318087D+02 0.771312289095060D+01 0.111692806244775D+04
-.119794696219D-07 0.000000000000D+00 0.000000000000D+00 0.156880383177D-03 0.000000000000D+00  6 2 -2 25 1 -1 21 2 0.29554120D+00 0.19947446D+00 0.22264774D+06 0.22264774D+06 0.22264774D+06 0.10942651D+01  1  2 13  1  6  1        2 -.180136472208D-08 0.100000000000D+01
-.446065008034D+00 0.000000000000D+00 0.000000000000D+00 0.156880383177D-03 0.000000000000D+00  6 2 -2 25 1 -1 21 2 0.30051989D+00 0.19947446D+00 0.22264774D+06 0.22264774D+06 0.22264774D+06 0.10942651D+01  1  2 13  1  6  1        2 -.644102292717D-01 0.100000000000D+01
0.853265479465D+00 0.000000000000D+00 0.000000000000D+00 0.156880383177D-03 0.982967656075D-05  6 2 -2 25 1 -1 21 2 0.29554121D+00 0.19948896D+00 0.22264774D+06 0.22264774D+06 0.22264774D+06 0.10942651D+01  1  2  1  1  6  1        2 0.128277179138D+00 0.100000000000D+01
  </mgrwgt>
  </event>
  <event>
  6     66 0.18881543E-05 0.55460672E+02 0.75467711E-02 0.93822539E-01
       21 -1    0    0  502  503 0.00000000E+00 0.00000000E+00 0.32352206E+04 0.32352207E+04 0.75000000E+00 0.0000E+00 0.9000E+01
       -2 -1    0    0    0  501 0.00000000E+00 0.00000000E+00 -.19716939E+04 0.19716939E+04 0.32000000E+00 0.0000E+00 0.9000E+01
       25  1    1    2    0    0 0.40003945E+03 -.25462574E+03 0.61106748E+03 0.78351407E+03 0.12500000E+03 0.0000E+00 0.9000E+01
        1  1    1    2  502    0 -.44408873E+03 0.14875406E+03 0.22005671E+04 0.22498530E+04 0.32000000E+00 0.0000E+00 0.9000E+01
       -1  1    1    2    0  501 0.34315745E+02 0.67155900E+02 -.18587859E+04 0.18603152E+04 0.32000000E+00 0.0000E+00 0.9000E+01
       -2  1    1    2    0  503 0.97335383E+01 0.38715783E+02 0.31067793E+03 0.31323239E+03 0.32000000E+00 0.0000E+00 0.9000E+01
#aMCatNLO 2  0  0  1  4 0.39920592D+02 0.00000000D+00  -5  6  0 0.00000000D+00 0.00000000D+00 0.00000000D+00 0.00000000D+00 0.00000000D+00
  <mgrwgt>
 0.1253039609D-04    3    2    0
 0.239992765965805D+04 0.000000000000000D+00 0.000000000000000D+00 0.239992765965805D+04
 0.239992765965805D+04 0.000000000000000D+00 0.000000000000000D+00 -.239992765965805D+04
 0.676327129137672D+03 0.401394208286817D+03 -.249165462257717D+03 0.467538926271710D+03
 0.185721823292733D+04 -.440307235167337D+03 0.163727451498605D+03 0.179682565236663D+04
 0.226630995725110D+04 0.389130268805192D+02 0.854380107591126D+02 -.226436457863834D+04
 0.000000000000000D+00 0.000000000000000D+00 0.000000000000000D+00 0.000000000000000D+00
 0.265612677872625D+04 0.000000000000000D+00 0.000000000000000D+00 0.265612677872625D+04
 0.240156626030817D+04 0.000000000000000D+00 0.000000000000000D+00 -.240156626030817D+04
 0.677546317055937D+03 0.400021484498880D+03 -.254625560610228D+03 0.467538926271710D+03
 0.185685472684583D+04 -.444073020157321D+03 0.148748796214556D+03 0.179682565236663D+04
 0.226562028313359D+04 0.343179973644757D+02 0.671609813153445D+02 -.226436457863834D+04
 0.257671711999063D+03 0.973353829396491D+01 0.387157830803269D+02 0.254560518418087D+03
-.230034936168D-11 0.000000000000D+00 0.000000000000D+00 0.218396342188D-02 0.000000000000D+00  6 21 -2 25 1 -1 -2 2 0.49787027D+00 0.30313055D+00 0.28839538D+06 0.28839538D+06 0.28839538D+06 0.10858217D+01  1  2 13  5  6  1        2 -.587521342685D-15 0.100000000000D+01
-.577821942804D-01 0.000000000000D+00 0.000000000000D+00 0.218396342188D-02 0.000000000000D+00  6 21 -2 25 1 -1 -2 2 0.51021524D+00 0.30313055D+00 0.28839538D+06 0.28839538D+06 0.28839538D+06 0.10858217D+01  1  2 13  5  6  1        2 -.117590257274D-04 0.100000000000D+01
0.951448274554D-01 0.000000000000D+00 0.000000000000D+00 0.218396342188D-02 0.221784076596D-06  6 21 -2 25 1 -1 -2 2 0.49772623D+00 0.30333752D+00 0.28839538D+06 0.28839538D+06 0.28839538D+06 0.10858217D+01  1  2  1  5  6  1        2 0.242894218213D-04 0.100000000000D+01
  </mgrwgt>
  </event>
  <event>
  6     66 0.18881543E-05 0.22482992E+02 0.75467711E-02 0.94743663E-01
        2 -1    0    0  503    0 0.00000000E+00 0.00000000E+00 0.10159273E+04 0.10159274E+04 0.32000000E+00 0.0000E+00 0.9000E+01
       -2 -1    0    0    0  501 0.00000000E+00 0.00000000E+00 -.73591011E+03 0.73591018E+03 0.32000000E+00 0.0000E+00 0.9000E+01
       25  1    1    2    0    0 0.26052082E+03 -.37949060E+03 -.25756316E+03 0.54207748E+03 0.12500000E+03 0.0000E+00 0.9000E+01
        1  1    1    2  502    0 -.25174229E+03 0.40623398E+03 0.71129374E+03 0.85693588E+03 0.32000000E+00 0.0000E+00 0.9000E+01
       -1  1    1    2    0  501 -.59698119E+00 -.26570908E+02 -.26240749E+03 0.26375019E+03 0.32000000E+00 0.0000E+00 0.9000E+01
       21  1    1    2  503  502 -.81815516E+01 -.17247227E+00 0.88694109E+02 0.89073986E+02 0.75000000E+00 0.0000E+00 0.9000E+01
#aMCatNLO 2  0  0  1  4 0.81833693D+01 0.00000000D+00  -5  6  0 0.00000000D+00 0.00000000D+00 0.00000000D+00 0.00000000D+00 0.00000000D+00
  <mgrwgt>
 0.6713254093D-02    6    2    0
 0.825849736207746D+03 0.000000000000000D+00 0.000000000000000D+00 0.825849736207746D+03
 0.825849736207746D+03 0.000000000000000D+00 0.000000000000000D+00 -.825849736207746D+03
 0.574322331531020D+03 0.257675426816134D+03 -.379557563091843D+03 -.322118877450750D+03
 0.781496274671146D+03 -.255612806027376D+03 0.406156427451993D+03 0.616794517776483D+03
 0.295880866213326D+03 -.206262078875753D+01 -.265988643601501D+02 -.294675640325733D+03
 0.000000000000000D+00 -.000000000000000D+00 -.000000000000000D+00 0.000000000000000D+00
 0.905040604978231D+03 0.000000000000000D+00 0.000000000000000D+00 0.905040604978231D+03
 0.826071311154015D+03 0.000000000000000D+00 0.000000000000000D+00 -.826071311154015D+03
 0.575566119791912D+03 0.260523346219271D+03 -.379497527155185D+03 -.322118877450750D+03
 0.780282121591674D+03 -.251744762137554D+03 0.406237968256028D+03 0.616794517776483D+03
 0.295871503219197D+03 -.597032493805827D+00 -.265679688348254D+02 -.294675640325733D+03
 0.793921715294628D+02 -.818155158791055D+01 -.172472266017766D+00 0.789692938242167D+02
-.472218835992D-08 0.000000000000D+00 0.000000000000D+00 0.509664209049D-04 0.000000000000D+00  6 2 -2 25 1 -1 21 2 0.15631427D+00 0.11318634D+00 0.24485735D+06 0.24485735D+06 0.24485735D+06 0.10911388D+01  1  2 13  1  6  1        2 -.108418389338D-07 0.100000000000D+01
-.176626402749D-01 0.000000000000D+00 0.000000000000D+00 0.509664209049D-04 0.000000000000D+00  6 2 -2 25 1 -1 21 2 0.15649466D+00 0.11318634D+00 0.24485735D+06 0.24485735D+06 0.24485735D+06 0.10911388D+01  1  2 13  1  6  1        2 -.404850355238D-01 0.100000000000D+01
-.401202756854D-03 0.000000000000D+00 0.000000000000D+00 0.509664209049D-04 0.000000000000D+00  6 2 -2 25 1 -1 21 2 0.14262030D+00 0.11318634D+00 0.24111051D+06 0.24111051D+06 0.24111051D+06 0.10916440D+01  1  2  8  1  6  1        2 -.104929815362D-02 0.100000000000D+01
-.349005829656D-03 0.000000000000D+00 0.000000000000D+00 0.509664209049D-04 0.000000000000D+00  6 2 -2 25 1 -1 21 2 0.15631316D+00 0.11318634D+00 0.24111051D+06 0.24111051D+06 0.24111051D+06 0.10916440D+01  1  2  9  1  6  1        2 -.802643555439D-03 0.100000000000D+01
0.347544354350D-03 0.000000000000D+00 0.000000000000D+00 0.509664209049D-04 0.000000000000D+00  6 2 -2 25 1 -1 21 2 0.14262030D+00 0.11318634D+00 0.24111051D+06 0.24111051D+06 0.24111051D+06 0.10916440D+01  1  2 10  1  6  1        2 0.908960975690D-03 0.100000000000D+01
0.209786385600D-01 0.000000000000D+00 0.000000000000D+00 0.509664209049D-04 0.560541995061D-05  6 2 -2 25 1 -1 21 2 0.15629618D+00 0.11321671D+00 0.24485735D+06 0.24485735D+06 0.24485735D+06 0.10911388D+01  1  2  1  1  6  1        2 0.481412811923D-01 0.100000000000D+01
  </mgrwgt>
  </event>
  <event>
  5     66 -.18881543E-05 0.22200756E+03 0.75467711E-02 0.92804832E-01
        2 -1    0    0  502    0 0.00000000E+00 0.00000000E+00 0.30078090E+04 0.30078090E+04 0.32000000E+00 0.0000E+00 0.9000E+01
       -2 -1    0    0    0  501 0.00000000E+00 0.00000000E+00 -.11269558E+04 0.11269559E+04 0.32000000E+00 0.0000E+00 0.9000E+01
       25  1    1    2    0    0 0.36069394E+03 -.38064780E+03 0.55252375E+03 0.77194583E+03 0.12500000E+03 0.0000E+00 0.9000E+01
        1  1    1    2  502    0 -.13683709E+03 0.31164892E+03 0.23195020E+04 0.23443419E+04 0.32000000E+00 0.0000E+00 0.9000E+01
       -1  1    1    2    0  501 -.22385685E+03 0.68998880E+02 -.99117250E+03 0.10184772E+04 0.32000000E+00 0.0000E+00 0.9000E+01
#aMCatNLO 1  0  0  4  5 0.81689491D+02 0.00000000D+00  -5  6  0 0.00000000D+00 0.00000000D+00 0.00000000D+00 0.00000000D+00 0.00000000D+00
  <mgrwgt>
 -.1013255058D-02    5    2    0
 0.184110510088524D+04 0.000000000000000D+00 0.000000000000000D+00 0.184110510088524D+04
 0.184110510088524D+04 -.000000000000000D+00 -.000000000000000D+00 -.184110510088524D+04
 0.584628293269278D+03 0.360705775338163D+03 -.380641015118792D+03 0.226205664248222D+03
 0.144761984620945D+04 -.136831464781184D+03 0.311636109470792D+03 0.140704061940628D+04
 0.164996206229176D+04 -.223874310556979D+03 0.690049056479997D+02 -.163324628365450D+04
 0.000000000000000D+00 0.000000000000000D+00 0.000000000000000D+00 0.000000000000000D+00
 0.184110510088524D+04 0.000000000000000D+00 0.000000000000000D+00 0.184110510088524D+04
 0.184110510088524D+04 -.000000000000000D+00 -.000000000000000D+00 -.184110510088524D+04
 0.585396017439845D+03 0.360305082704902D+03 -.379728430476634D+03 0.230325994406183D+03
 0.150860531017420D+03 0.623271490579590D+02 0.612197128915744D+02 0.122989320929249D+03
 0.163876301219751D+04 -.225000584513947D+03 0.715700147382873D+02 -.162166478660215D+04
 0.130719064111572D+04 -.197631647248914D+03 0.246938702846772D+03 0.126834947126671D+04
0.465034104853D-01 0.000000000000D+00 0.000000000000D+00 0.141984900745D-03 0.000000000000D+00  6 2 -2 25 1 -1 21 0 0.46273985D+00 0.17337782D+00 0.31008937D+06 0.31008937D+06 0.31008937D+06 0.10834906D+01  1  2  2  3  6  4        1 0.202699397490D-02 0.100000000000D+01
0.622536974499D-02 0.000000000000D+00 -.178585340893D-03 0.141984900745D-03 0.000000000000D+00  6 2 -2 25 1 -1 21 2 0.46273985D+00 0.17337782D+00 0.31008937D+06 0.31008937D+06 0.31008937D+06 0.10834906D+01  1  2  3  3  6  4        1 0.318554046030D-03 0.100000000000D+01
-.288275116755D-01 0.000000000000D+00 0.000000000000D+00 0.141984900745D-03 0.000000000000D+00  6 2 -2 25 1 -1 21 2 0.46273985D+00 0.17337782D+00 0.31008937D+06 0.31008937D+06 0.31008937D+06 0.10834906D+01  1  2 15  3  6  4        1 -.147511246036D-02 0.100000000000D+01
0.699049848574D-10 0.000000000000D+00 0.000000000000D+00 0.141984900745D-03 0.000000000000D+00  6 2 -2 25 1 -1 21 2 0.46273985D+00 0.17337782D+00 0.34688590D+06 0.34688590D+06 0.34688590D+06 0.10799166D+01  1  2 12  3  6  4        1 0.351350455842D-11 0.100000000000D+01
-.368121854147D-01 0.000000000000D+00 0.000000000000D+00 0.141984900745D-03 0.000000000000D+00  6 2 -2 25 1 -1 21 2 0.46273985D+00 0.17337782D+00 0.31008937D+06 0.31008937D+06 0.31008937D+06 0.10834906D+01  1  2  5  3  6  4        1 -.188369062199D-02 0.100000000000D+01
  </mgrwgt>
  </event>
  <event>
  6     66 0.18881543E-05 0.20518720E+02 0.75467711E-02 0.93102503E-01
        2 -1    0    0  502    0 0.00000000E+00 0.00000000E+00 0.18985017E+04 0.18985017E+04 0.32000000E+00 0.0000E+00 0.9000E+01
       -2 -1    0    0    0  501 0.00000000E+00 0.00000000E+00 -.28791800E+03 0.28791818E+03 0.32000000E+00 0.0000E+00 0.9000E+01
       25  1    1    2    0    0 0.45230638E+03 0.33123362E+03 0.33574090E+03 0.66531476E+03 0.12500000E+03 0.0000E+00 0.9000E+01
        1  1    1    2  503    0 -.15760504E+03 -.81384818E+02 0.41797290E+03 0.45405318E+03 0.32000000E+00 0.0000E+00 0.9000E+01
       -1  1    1    2    0  501 -.12553743E+01 -.24713103E+02 -.67253459E+02 0.71662009E+02 0.32000000E+00 0.0000E+00 0.9000E+01
       21  1    1    2  502  503 -.29344597E+03 -.22513570E+03 0.92412332E+03 0.99538992E+03 0.75000000E+00 0.0000E+00 0.9000E+01
#aMCatNLO 2  0  0  4  1 0.76765971D+02 0.00000000D+00  -5  6  0 0.00000000D+00 0.00000000D+00 0.00000000D+00 0.00000000D+00 0.00000000D+00
  <mgrwgt>
 0.6440027106D-02    1    2    0
 0.739332822784563D+03 0.000000000000000D+00 0.000000000000000D+00 0.739332822784563D+03
 0.739332822784563D+03 -.000000000000000D+00 -.000000000000000D+00 -.739332822784563D+03
 0.618632887850202D+03 0.452734629832021D+03 0.331537516230784D+03 -.228464177087495D+03
 0.680562392501703D+03 -.451610984048122D+03 -.306901061154759D+03 0.406231987707533D+03
 0.179470365217220D+03 -.112364578389979D+01 -.246364550760251D+02 -.177767810620037D+03
 0.000000000000000D+00 0.000000000000000D+00 0.000000000000000D+00 0.000000000000000D+00
 0.739332822784563D+03 0.000000000000000D+00 0.000000000000000D+00 0.739332822784563D+03
 0.739332822784563D+03 -.000000000000000D+00 -.000000000000000D+00 -.739332822784563D+03
 0.617975932054024D+03 0.452274620477496D+03 0.331224907893008D+03 -.228050390618491D+03
 0.215868513212230D+03 -.157418001569816D+03 -.812937615183052D+02 0.123329283288394D+03
 0.179364802743014D+03 -.125712981808871D+01 -.247271667575094D+02 -.177647739394024D+03
 0.465456397559857D+03 -.293599489089591D+03 -.225203979617193D+03 0.282368846724121D+03
0.116415888485D-02 0.000000000000D+00 0.000000000000D+00 0.776356582356D-05 0.175837305317D-07  6 2 -2 25 1 -1 21 2 0.29207719D+00 0.44295092D-01 0.32850699D+06 0.32850699D+06 0.32850699D+06 0.10816471D+01  1  2  1  3  6  4        1 0.644002710595D-02 0.100000000000D+01
  </mgrwgt>
  </event>
  <event>
  6     66 0.18881543E-05 0.61640313E+01 0.75467711E-02 0.93772907E-01
        2 -1    0    0  502    0 0.00000000E+00 0.00000000E+00 0.13177822E+04 0.13177823E+04 0.32000000E+00 0.0000E+00 0.9000E+01
       -2 -1    0    0    0  503 0.00000000E+00 0.00000000E+00 -.58302360E+03 0.58302369E+03 0.32000000E+00 0.0000E+00 0.9000E+01
       25  1    1    2    0    0 -.42606713E+03 -.31300895E+03 0.87381413E+03 0.10289237E+04 0.12500000E+03 0.0000E+00 0.9000E+01
        1  1    1    2  502    0 0.41591495E+03 0.30320862E+03 0.18470133E+03 0.54684129E+03 0.32000000E+00 0.0000E+00 0.9000E+01
       -1  1    1    2    0  501 0.11135845E+02 -.99402614E-01 -.27735976E+03 0.27758342E+03 0.32000000E+00 0.0000E+00 0.9000E+01
       21  1    1    2  501  503 -.98365832E+00 0.98997333E+01 -.46397057E+02 0.47457578E+02 0.75000000E+00 0.0000E+00 0.9000E+01
#aMCatNLO 2  0  0  2  1 0.99484825D+01 0.00000000D+00  -5  6  0 0.00000000D+00 0.00000000D+00 0.00000000D+00 0.00000000D+00 0.00000000D+00
  <mgrwgt>
 0.2369872966D-03    5    2    0
 0.840326879926205D+03 0.000000000000000D+00 0.000000000000000D+00 0.840326879926205D+03
 0.840326879926205D+03 0.000000000000000D+00 0.000000000000000D+00 -.840326879926205D+03
 0.726906629513088D+03 -.426409595712328D+03 -.308660075991723D+03 0.485460670089051D+03
 0.518619769444447D+03 0.415526438896079D+03 0.306196629803623D+03 -.504764076956508D+02
 0.435127360894876D+03 0.108831568162485D+02 0.246344618810053D+01 -.434984262393400D+03
 0.000000000000000D+00 -.000000000000000D+00 0.000000000000000D+00 -.000000000000000D+00
 0.840677979755499D+03 0.000000000000000D+00 0.000000000000000D+00 0.840677979755499D+03
 0.913899030085854D+03 0.000000000000000D+00 0.000000000000000D+00 -.913899030085854D+03
 0.728487927479746D+03 -.425983690490941D+03 -.312946471007654D+03 0.485460670089051D+03
 0.517068433531858D+03 0.415829521665805D+03 0.303146344415399D+03 -.504764076956508D+02
 0.435126843167521D+03 0.111378271444172D+02 -.996067414043686D-01 -.434984262393400D+03
 0.738938056622275D+02 -.983658319281628D+00 0.989973333365986D+01 -.732210503303550D+02
-.337076002508D-07 0.000000000000D+00 0.000000000000D+00 0.345573394303D-05 0.000000000000D+00  6 2 -2 25 1 -1 21 2 0.20265061D+00 0.89712123D-01 0.29097683D+06 0.29097683D+06 0.29097683D+06 0.10855345D+01  1  2 13  2  6  2       -2 -.887620066144D-07 0.100000000000D+01
-.234402480386D-05 0.000000000000D+00 0.000000000000D+00 0.345573394303D-05 0.000000000000D+00  6 2 -2 25 1 -1 21 2 0.20265061D+00 0.82474916D-01 0.28534461D+06 0.28534461D+06 0.28534461D+06 0.10861648D+01  1  2  8  2  6  2       -2 -.750634191412D-05 0.100000000000D+01
-.218222096346D-03 0.000000000000D+00 0.000000000000D+00 0.345573394303D-05 0.000000000000D+00  6 2 -2 25 1 -1 21 2 0.20265061D+00 0.89712351D-01 0.28534461D+06 0.28534461D+06 0.28534461D+06 0.10861648D+01  1  2  9  2  6  2       -2 -.575879947005D-03 0.100000000000D+01
0.217452382273D-03 0.000000000000D+00 0.000000000000D+00 0.345573394303D-05 0.000000000000D+00  6 2 -2 25 1 -1 21 2 0.20265061D+00 0.82474916D-01 0.28534461D+06 0.28534461D+06 0.28534461D+06 0.10861648D+01  1  2 10  2  6  2       -2 0.696354376751D-03 0.100000000000D+01
0.471439783121D-04 0.000000000000D+00 0.000000000000D+00 0.345573394303D-05 0.933290717518D-08  6 2 -2 25 1 -1 21 2 0.20273528D+00 0.89695745D-01 0.29097683D+06 0.29097683D+06 0.29097683D+06 0.10855345D+01  1  2  1  2  6  2       -2 0.124107970763D-03 0.100000000000D+01
  </mgrwgt>
  </event>
  <event>
  5     66 0.18881543E-05 0.19454191E+03 0.75467711E-02 0.93939231E-01
        2 -1    0    0  502    0 0.00000000E+00 0.00000000E+00 0.17392146E+04 0.17392147E+04 0.32000000E+00 0.0000E+00 0.9000E+01
       -2 -1    0    0    0  501 0.00000000E+00 0.00000000E+00 -.15755080E+04 0.15755080E+04 0.32000000E+00 0.0000E+00 0.9000E+01
       25  1    1    2    0    0 -.43041041E+03 0.20556988E+03 0.16867602E+03 0.52114172E+03 0.12500000E+03 0.0000E+00 0.9000E+01
        1  1    1    2  502    0 0.29508328E+03 0.31249370E+02 0.13649193E+04 0.13968019E+04 0.32000000E+00 0.0000E+00 0.9000E+01
       -1  1    1    2    0  501 0.13532713E+03 -.23681925E+03 -.13698887E+04 0.13967791E+04 0.32000000E+00 0.0000E+00 0.9000E+01
#aMCatNLO 1  0  0  4  1 0.19281744D+02 0.00000000D+00  -5  6  0 0.00000000D+00 0.00000000D+00 0.00000000D+00 0.00000000D+00 0.00000000D+00
  <mgrwgt>
 0.4895666576D-02    8    2    0
 0.165533884260268D+04 0.000000000000000D+00 0.000000000000000D+00 0.165533884260268D+04
 0.165533884260268D+04 -.000000000000000D+00 -.000000000000000D+00 -.165533884260268D+04
 0.513466541709047D+03 -.430411245541137D+03 0.205590461452260D+03 0.143183837517446D+03
 0.133096325007014D+04 0.295071629840323D+03 0.312481356454885D+02 0.129746655460529D+04
 0.146624789342617D+04 0.135339615700814D+03 -.236838597097749D+03 -.144065039212274D+04
 0.000000000000000D+00 0.000000000000000D+00 0.000000000000000D+00 0.000000000000000D+00
 0.165533884260268D+04 0.000000000000000D+00 0.000000000000000D+00 0.165533884260268D+04
 0.165533884260268D+04 -.000000000000000D+00 -.000000000000000D+00 -.165533884260268D+04
 0.513475107496907D+03 -.430391358230212D+03 0.205592567521860D+03 0.143271284490238D+03
 0.788194174975068D+03 0.156577062959145D+03 0.237741734126836D+02 0.772119465820064D+03
 0.146600683535826D+04 0.135396400486540D+03 -.236832583579309D+03 -.144040070237680D+04
 0.543001567375126D+03 0.138417894784527D+03 0.746584264476575D+01 0.525009952066498D+03
0.387897838145D-03 0.000000000000D+00 0.000000000000D+00 0.917970306646D-04 0.000000000000D+00  6 2 -2 25 1 -1 21 0 0.26757149D+00 0.24238585D+00 0.28228022D+06 0.28228022D+06 0.28228022D+06 0.10865135D+01  1  2  2  3  6  4        1 0.311892051640D-04 0.100000000000D+01
0.435578597723D-04 0.000000000000D+00 -.148962983432D-05 0.917970306646D-04 0.000000000000D+00  6 2 -2 25 1 -1 21 2 0.26757149D+00 0.24238585D+00 0.28228022D+06 0.28228022D+06 0.28228022D+06 0.10865135D+01  1  2  3  3  6  4        1 0.413450709431D-05 0.100000000000D+01
-.262187749941D-03 0.000000000000D+00 0.000000000000D+00 0.917970306646D-04 0.000000000000D+00  6 2 -2 25 1 -1 21 2 0.26757149D+00 0.24238585D+00 0.28228022D+06 0.28228022D+06 0.28228022D+06 0.10865135D+01  1  2 15  3  6  4        1 -.248868313971D-04 0.100000000000D+01
0.405682332261D-09 0.000000000000D+00 0.000000000000D+00 0.917970306646D-04 0.000000000000D+00  6 2 -2 25 1 -1 21 2 0.26757149D+00 0.24238585D+00 0.28242669D+06 0.28242669D+06 0.28242669D+06 0.10864967D+01  1  2 12  3  6  4        1 0.385043490931D-10 0.100000000000D+01
0.967762093942D-01 0.000000000000D+00 0.000000000000D+00 0.917970306646D-04 0.000000000000D+00  6 2 -2 25 1 -1 21 2 0.26757149D+00 0.24238585D+00 0.28242669D+06 0.28242669D+06 0.28242669D+06 0.10864967D+01  1  2 12  3  6  4        1 0.918527787407D-02 0.100000000000D+01
-.926641600989D-01 0.000000000000D+00 0.000000000000D+00 0.917970306646D-04 0.000000000000D+00  6 2 -2 25 1 -1 21 2 0.26757149D+00 0.24238585D+00 0.28228022D+06 0.28228022D+06 0.28228022D+06 0.10865135D+01  1  2  4  3  6  4        1 -.879567153482D-02 0.100000000000D+01
-.984782189295D-01 0.000000000000D+00 0.000000000000D+00 0.917970306646D-04 0.000000000000D+00  6 2 -2 25 1 -1 21 2 0.26757149D+00 0.24238585D+00 0.28228022D+06 0.28228022D+06 0.28228022D+06 0.10865135D+01  1  2  5  3  6  4        1 -.934754133760D-02 0.100000000000D+01
0.145840510389D+00 0.000000000000D+00 -.000000000000D+00 0.917970306646D-04 0.000000000000D+00  6 2 -2 25 1 -1 21 2 0.26757149D+00 0.24238585D+00 0.28228022D+06 0.28228022D+06 0.28228022D+06 0.10865135D+01  1  2  6  3  6  4        1 0.138431646548D-01 0.100000000000D+01
  </mgrwgt>
  </event>
  <event>
  6     66 0.18881543E-05 0.54140922E+02 0.75467711E-02 0.92702236E-01
        2 -1    0    0  502    0 0.00000000E+00 0.00000000E+00 0.12847345E+04 0.12847346E+04 0.32000000E+00 0.0000E+00 0.9000E+01
       21 -1    0    0  503  501 0.00000000E+00 0.00000000E+00 -.12427412E+04 0.12427415E+04 0.75000000E+00 0.0000E+00 0.9000E+01
       25  1    1    2    0    0 0.23834376E+03 0.53009811E+03 0.26850897E+03 0.65232953E+03 0.12500000E+03 0.0000E+00 0.9000E+01
        1  1    1    2  502    0 -.40490239E+01 -.19924731E+02 0.71865915E+03 0.71894678E+03 0.32000000E+00 0.0000E+00 0.9000E+01
        2  1    1    2  503    0 -.55312815E+02 -.32796994E+02 0.17685837E+02 0.66693640E+02 0.32000000E+00 0.0000E+00 0.9000E+01
       -1  1    1    2    0  501 -.17898192E+03 -.47737638E+03 -.96286066E+03 0.10895061E+04 0.32000000E+00 0.0000E+00 0.9000E+01
#aMCatNLO 2  0  0  2  4 0.64305135D+02 0.00000000D+00  -5  6  0 0.00000000D+00 0.00000000D+00 0.00000000D+00 0.00000000D+00 0.00000000D+00
  <mgrwgt>
 0.1200650665D-02    1    2    0
 0.122991096856361D+04 0.000000000000000D+00 0.000000000000000D+00 0.122991096856361D+04
 0.122991096856361D+04 0.000000000000000D+00 0.000000000000000D+00 -.122991096856361D+04
 0.637604555219913D+03 0.223895916938508D+03 0.521574374391240D+03 0.262193362223063D+03
 0.712357824069543D+03 -.200572811388427D+02 -.294135467776857D+02 0.711467650882574D+03
 0.000000000000000D+00 -.000000000000000D+00 -.000000000000000D+00 0.000000000000000D+00
 0.110985955783776D+04 -.203838635799665D+03 -.492160827613554D+03 -.973661013105637D+03
 0.127210580678112D+04 0.000000000000000D+00 0.000000000000000D+00 0.127210580678112D+04
 0.125507793999484D+04 0.000000000000000D+00 0.000000000000000D+00 -.125507793999484D+04
 0.649811221221073D+03 0.238368189845253D+03 0.530155515015061D+03 0.262193362223063D+03
 0.711758008842341D+03 -.404831700940397D+01 -.199212456497540D+02 0.711467650882574D+03
 0.665214146522824D+02 -.553128153942650D+02 -.327969939660590D+02 0.170278667862755D+02
 0.109909310206026D+04 -.179007057441584D+03 -.477437275399249D+03 -.973661013105637D+03
0.418932326107D-03 0.000000000000D+00 0.000000000000D+00 0.257907403384D-03 0.176050697595D-08  6 2 21 25 1 2 -1 2 0.19765143D+00 0.19119092D+00 0.35348497D+06 0.35348497D+06 0.35348497D+06 0.10793195D+01  1  2  1  6  5  2       -2 0.120065066495D-02 0.100000000000D+01
  </mgrwgt>
  </event>
  <event>
  5     66 0.18881543E-05 0.16359491E+03 0.75467711E-02 0.95025526E-01
        2 -1    0    0  502    0 0.00000000E+00 0.00000000E+00 0.11918679E+04 0.11918680E+04 0.32000000E+00 0.0000E+00 0.9000E+01
       -2 -1    0    0    0  501 0.00000000E+00 0.00000000E+00 -.26127540E+03 0.26127560E+03 0.32000000E+00 0.0000E+00 0.9000E+01
       25  1    1    2    0    0 0.37308268E+03 0.29159024E+03 0.54028029E+03 0.72920734E+03 0.12500000E+03 0.0000E+00 0.9000E+01
        1  1    1    2  502    0 -.26481006E+03 -.16902244E+03 0.45088568E+03 0.54953703E+03 0.32000000E+00 0.0000E+00 0.9000E+01
       -1  1    1    2    0  501 -.10827262E+03 -.12256780E+03 -.60573457E+02 0.17439918E+03 0.32000000E+00 0.0000E+00 0.9000E+01
#aMCatNLO 1  0  0  5  2 0.24457345D+02 0.00000000D+00  -5  6  0 0.00000000D+00 0.00000000D+00 0.00000000D+00 0.00000000D+00 0.00000000D+00
  <mgrwgt>
 0.1467439388D-01    8    2    0
 0.558037578850924D+03 0.000000000000000D+00 0.000000000000000D+00 0.558037578850924D+03
 0.558037578850924D+03 -.000000000000000D+00 -.000000000000000D+00 -.558037578850924D+03
 0.498935735631745D+03 0.373042367338632D+03 0.291577664628608D+03 0.955705286712727D+02
 0.339451030976494D+03 -.264731565346953D+03 -.168972343515309D+03 0.128812064135704D+03
 0.277688391093610D+03 -.108310801991679D+03 -.122605321113299D+03 -.224382592806977D+03
 0.000000000000000D+00 0.000000000000000D+00 -.000000000000000D+00 0.000000000000000D+00
 0.558037578850924D+03 0.000000000000000D+00 0.000000000000000D+00 0.558037578850924D+03
 0.558037578850924D+03 -.000000000000000D+00 -.000000000000000D+00 -.558037578850924D+03
 0.497558556515720D+03 0.372278746061008D+03 0.290713263015561D+03 0.939885689863190D+02
 0.339743547159002D+03 -.265252037401433D+03 -.169561505835193D+03 0.127733825705925D+03
 0.154267712163337D+03 -.510728075358671D+02 -.490071699010844D+02 -.137070757803408D+03
 0.124505341863789D+03 -.559539011237081D+02 -.721445872792835D+02 -.846516368888350D+02
0.159898137640D-03 0.000000000000D+00 0.000000000000D+00 0.140792922848D-06 0.000000000000D+00  6 2 -2 25 1 -1 21 0 0.18336431D+00 0.40196234D-01 0.23394302D+06 0.23394302D+06 0.23394302D+06 0.10926346D+01  1  2  2  4  6  5       -1 0.226613724481D-02 0.100000000000D+01
0.852991254254D-05 0.000000000000D+00 -.614050950684D-06 0.140792922848D-06 0.000000000000D+00  6 2 -2 25 1 -1 21 2 0.18336431D+00 0.40196234D-01 0.23394302D+06 0.23394302D+06 0.23394302D+06 0.10926346D+01  1  2  3  4  6  5       -1 0.144323581328D-03 0.100000000000D+01
-.931885764479D-04 0.000000000000D+00 0.000000000000D+00 0.140792922848D-06 0.000000000000D+00  6 2 -2 25 1 -1 21 2 0.18336431D+00 0.40196234D-01 0.23394302D+06 0.23394302D+06 0.23394302D+06 0.10926346D+01  1  2 15  4  6  5       -1 -.157672297632D-02 0.100000000000D+01
0.215118971906D-05 0.000000000000D+00 0.000000000000D+00 0.140792922848D-06 0.000000000000D+00  6 2 -2 25 1 -1 21 2 0.18336431D+00 0.40196234D-01 0.23304755D+06 0.23304755D+06 0.23304755D+06 0.10927607D+01  1  2 12  4  6  5       -1 0.364102341069D-04 0.100000000000D+01
0.979276504789D-03 0.000000000000D+00 0.000000000000D+00 0.140792922848D-06 0.000000000000D+00  6 2 -2 25 1 -1 21 2 0.18336431D+00 0.40196234D-01 0.23304755D+06 0.23304755D+06 0.23304755D+06 0.10927607D+01  1  2 12  4  6  5       -1 0.165748685385D-01 0.100000000000D+01
-.702359592627D-03 0.000000000000D+00 0.000000000000D+00 0.140792922848D-06 0.000000000000D+00  6 2 -2 25 1 -1 21 2 0.18336431D+00 0.40196234D-01 0.23394302D+06 0.23394302D+06 0.23394302D+06 0.10926346D+01  1  2  4  4  6  5       -1 -.118837152530D-01 0.100000000000D+01
-.100360755975D-02 0.000000000000D+00 0.000000000000D+00 0.140792922848D-06 0.000000000000D+00  6 2 -2 25 1 -1 21 2 0.18336431D+00 0.40196234D-01 0.23394302D+06 0.23394302D+06 0.23394302D+06 0.10926346D+01  1  2  5  4  6  5       -1 -.169807411915D-01 0.100000000000D+01
0.154221588302D-02 0.000000000000D+00 -.000000000000D+00 0.140792922848D-06 0.000000000000D+00  6 2 -2 25 1 -1 21 2 0.18336431D+00 0.40196234D-01 0.23394302D+06 0.23394302D+06 0.23394302D+06 0.10926346D+01  1  2  6  4  6  5       -1 0.260938337068D-01 0.100000000000D+01
  </mgrwgt>
  </event>
  <event>
  5     66 0.18881543E-05 0.34604688E+02 0.75467711E-02 0.91847582E-01
        2 -1    0    0  502    0 0.00000000E+00 0.00000000E+00 0.12674258E+04 0.12674259E+04 0.32000000E+00 0.0000E+00 0.9000E+01
       -2 -1    0    0    0  501 0.00000000E+00 0.00000000E+00 -.44675995E+03 0.44676007E+03 0.32000000E+00 0.0000E+00 0.9000E+01
       25  1    1    2    0    0 0.44416348E+03 0.19197291E+03 0.17684104E+02 0.50007252E+03 0.12500000E+03 0.0000E+00 0.9000E+01
        1  1    1    2  502    0 -.22845941E+02 0.26003686E+02 0.73393335E+03 0.73474921E+03 0.32000000E+00 0.0000E+00 0.9000E+01
       -1  1    1    2    0  501 -.42131754E+03 -.21797660E+03 0.69048427E+02 0.47936422E+03 0.32000000E+00 0.0000E+00 0.9000E+01
#aMCatNLO 1  0  0  2  4 0.26507387D+02 0.00000000D+00  -5  6  0 0.00000000D+00 0.00000000D+00 0.00000000D+00 0.00000000D+00 0.00000000D+00
  <mgrwgt>
 0.1388605041D-01    7    4    0
 0.752486041481790D+03 0.000000000000000D+00 0.000000000000000D+00 0.752486041481790D+03
 0.752486041481790D+03 0.000000000000000D+00 0.000000000000000D+00 -.752486041481790D+03
 0.559997713844022D+03 0.444243725258992D+03 0.192015742354101D+03 -.252487438829635D+03
 0.436556812581719D+03 -.228397978633093D+02 0.259966935217179D+02 0.435183140954485D+03
 0.508417556537838D+03 -.421403927395682D+03 -.218012435875819D+03 -.182695702124850D+03
 0.000000000000000D+00 -.000000000000000D+00 0.000000000000000D+00 -.000000000000000D+00
 0.866763512875977D+03 0.000000000000000D+00 0.000000000000000D+00 0.866763512875977D+03
 0.913394486129212D+03 0.000000000000000D+00 0.000000000000000D+00 -.913394486129212D+03
 0.566556189718394D+03 0.479945744624544D+03 0.106127713431832D+03 -.252487438829635D+03
 0.437100775266128D+03 0.484759465432482D+01 -.406106192184469D+02 0.435183140954485D+03
 0.521974194522324D+03 -.388749416915424D+03 -.296569099908024D+03 -.182695702124850D+03
 0.254526839498342D+03 -.960439223634451D+02 0.231052005694639D+03 -.466309732532354D+02
 0.752486041481790D+03 0.000000000000000D+00 0.000000000000000D+00 0.752486041481790D+03
 0.752486041481790D+03 0.000000000000000D+00 0.000000000000000D+00 -.752486041481790D+03
 0.559997713844022D+03 0.444243725258992D+03 0.192015742354101D+03 -.252487438829635D+03
 0.436556812581719D+03 -.228397978633093D+02 0.259966935217179D+02 0.435183140954485D+03
 0.000000000000000D+00 -.000000000000000D+00 0.000000000000000D+00 -.000000000000000D+00
 0.508417556537838D+03 -.421403927395682D+03 -.218012435875819D+03 -.182695702124850D+03
 0.866763512875977D+03 0.000000000000000D+00 0.000000000000000D+00 0.866763512875977D+03
 0.913394486129212D+03 0.000000000000000D+00 0.000000000000000D+00 -.913394486129212D+03
 0.566556189718394D+03 0.479945744624544D+03 0.106127713431832D+03 -.252487438829635D+03
 0.437100775266128D+03 0.484759465432482D+01 -.406106192184469D+02 0.435183140954485D+03
 0.254526839498342D+03 -.960439223634451D+02 0.231052005694639D+03 -.466309732532354D+02
 0.521974194522324D+03 -.388749416915424D+03 -.296569099908024D+03 -.182695702124850D+03
0.176943780693D-02 0.000000000000D+00 0.000000000000D+00 0.952669226309D-05 0.000000000000D+00  6 2 -2 25 1 -1 21 0 0.19498860D+00 0.68732313D-01 0.25447511D+06 0.25447511D+06 0.25447511D+06 0.10898799D+01  1  2  2  2  6  2       -2 0.770868441953D-02 0.100000000000D+01
0.865933912836D-03 0.000000000000D+00 -.679510708227D-05 0.952669226309D-05 0.000000000000D+00  6 2 -2 25 1 -1 21 2 0.19498860D+00 0.68732313D-01 0.25447511D+06 0.25447511D+06 0.25447511D+06 0.10898799D+01  1  2  3  2  6  2       -2 0.448112450407D-02 0.100000000000D+01
-.106133768411D-02 0.000000000000D+00 0.000000000000D+00 0.952669226309D-05 0.000000000000D+00  6 2 -2 25 1 -1 21 2 0.19498860D+00 0.68732313D-01 0.25447511D+06 0.25447511D+06 0.25447511D+06 0.10898799D+01  1  2 15  2  6  2       -2 -.549232017923D-02 0.100000000000D+01
-.259407592823D-03 0.000000000000D+00 0.000000000000D+00 0.952669226309D-05 0.000000000000D+00  6 2 -2 25 1 -1 21 2 0.19498860D+00 0.68732313D-01 0.25447511D+06 0.25447511D+06 0.25447511D+06 0.10898799D+01  1  2  4  2  6  2       -2 -.134240928033D-02 0.100000000000D+01
-.317194812885D-02 0.000000000000D+00 -.164833467059D-02 0.952669226309D-05 0.000000000000D+00  6 2 -2 25 1 -1 21 2 0.19498860D+00 0.94528293D-01 0.25447511D+06 0.25447511D+06 0.25447511D+06 0.10898799D+01  1  2  5  2  6  2       -2 -.800068022628D-02 0.100000000000D+01
0.359351506665D-02 0.000000000000D+00 0.156803618105D-02 0.952669226309D-05 0.000000000000D+00  6 2 -2 25 1 -1 21 2 0.19498860D+00 0.68732313D-01 0.25447511D+06 0.25447511D+06 0.25447511D+06 0.10898799D+01  1  2  6  2  6  2       -2 0.185960939769D-01 0.100000000000D+01
-.875263637175D-04 0.000000000000D+00 -.665546467094D-04 0.952669226309D-05 0.000000000000D+00  6 2 21 25 1 2 -1 2 0.19498860D+00 0.94528293D-01 0.25447511D+06 0.25447511D+06 0.25447511D+06 0.10898799D+01  3  4  5  6  5  2       -2 -.206444280852D-02 0.100000000000D+01
  </mgrwgt>
  </event>
  <event>
  6     66 0.18881543E-05 0.53257130E+02 0.75467711E-02 0.94583546E-01
        2 -1    0    0  502    0 0.00000000E+00 0.00000000E+00 0.97588753E+03 0.97588758E+03 0.32000000E+00 0.0000E+00 0.9000E+01
       -2 -1    0    0    0  503 0.00000000E+00 0.00000000E+00 -.41507537E+03 0.41507550E+03 0.32000000E+00 0.0000E+00 0.9000E+01
       25  1    1    2    0    0 -.17771068E+03 0.45094965E+03 0.60084692E+03 0.78203497E+03 0.12500000E+03 0.0000E+00 0.9000E+01
        1  1    1    2  502    0 0.53903433E+02 -.24950794E+02 0.10407013E+03 0.11982828E+03 0.32000000E+00 0.0000E+00 0.9000E+01
       -1  1    1    2    0  501 0.11856830E+03 -.41532451E+03 -.99903977E+02 0.44332132E+03 0.32000000E+00 0.0000E+00 0.9000E+01
       21  1    1    2  501  503 0.52389408E+01 -.10674350E+02 -.44200916E+02 0.45778507E+02 0.75000000E+00 0.0000E+00 0.9000E+01
#aMCatNLO 2  0  0  2  5 0.11890679D+02 0.00000000D+00  -5  6  0 0.00000000D+00 0.00000000D+00 0.00000000D+00 0.00000000D+00 0.00000000D+00
  <mgrwgt>
 0.5317990100D-02    3    2    0
 0.600695288970331D+03 0.000000000000000D+00 0.000000000000000D+00 0.600695288970331D+03
 0.600695288970331D+03 0.000000000000000D+00 0.000000000000000D+00 -.600695288970331D+03
 0.568393653976404D+03 -.175115265857784D+03 0.445926280321375D+03 0.279160781742257D+03
 0.819468606125698D+02 0.540823278310422D+02 -.255947032742002D+02 0.559937580890698D+02
 0.551050063351688D+03 0.121032938026742D+03 -.420331577047175D+03 -.335154539831327D+03
 0.000000000000000D+00 0.000000000000000D+00 -.000000000000000D+00 -.000000000000000D+00
 0.601208748357206D+03 0.000000000000000D+00 0.000000000000000D+00 0.601208748357206D+03
 0.673750052764856D+03 0.000000000000000D+00 0.000000000000000D+00 -.673750052764856D+03
 0.573147176644180D+03 -.177604180984483D+03 0.450997448916375D+03 0.279160781742257D+03
 0.814876269348661D+02 0.537259896630416D+02 -.248686636807326D+02 0.559937580890698D+02
 0.546814616504896D+03 0.118639250533953D+03 -.415454434910243D+03 -.335154539831327D+03
 0.735093810381200D+02 0.523894078748878D+01 -.106743503253991D+02 -.725413044076501D+02
-.218184904096D-05 0.000000000000D+00 0.000000000000D+00 0.215649958722D-06 0.000000000000D+00  6 2 -2 25 1 -1 21 2 0.15000786D+00 0.63880150D-01 0.25186440D+06 0.25186440D+06 0.25186440D+06 0.10902164D+01  1  2 13  2  6  2       -2 -.196986251058D-04 0.100000000000D+01
-.127491980630D-02 0.000000000000D+00 0.000000000000D+00 0.215649958722D-06 0.000000000000D+00  6 2 -2 25 1 -1 21 2 0.15000786D+00 0.63997282D-01 0.25186440D+06 0.25186440D+06 0.25186440D+06 0.10902164D+01  1  2 13  2  6  2       -2 -.114661339948D-01 0.100000000000D+01
0.186206698663D-02 0.000000000000D+00 0.000000000000D+00 0.215649958722D-06 0.143395393435D-07  6 2 -2 25 1 -1 21 2 0.15013608D+00 0.63857560D-01 0.25186440D+06 0.25186440D+06 0.25186440D+06 0.10902164D+01  1  2  1  2  6  2       -2 0.168038227201D-01 0.100000000000D+01
  </mgrwgt>
  </event>
  <event>
  5     66 0.18881543E-05 0.11159093E+03 0.75467711E-02 0.95525499E-01
        2 -1    0    0  502    0 0.00000000E+00 0.00000000E+00 0.19897543E+04 0.19897543E+04 0.32000000E+00 0.0000E+00 0.9000E+01
       -2 -1    0    0    0  501 0.00000000E+00 0.00000000E+00 -.88132252E+03 0.88132258E+03 0.32000000E+00 0.0000E+00 0.9000E+01
       25  1    1    2    0    0 -.17836818E+03 -.41719172E+03 -.36976556E+03 0.59851124E+03 0.12500000E+03 0.0000E+00 0.9000E+01
        1  1    1    2  502    0 0.13125110E+03 0.31603435E+03 0.18515421E+04 0.18829001E+04 0.32000000E+00 0.0000E+00 0.9000E+01
       -1  1    1    2    0  501 0.47117083E+02 0.10115736E+03 -.37334476E+03 0.38966555E+03 0.32000000E+00 0.0000E+00 0.9000E+01
#aMCatNLO 1  0  0  5  4 0.10116796D+03 0.00000000D+00  -5  6  0 0.00000000D+00 0.00000000D+00 0.00000000D+00 0.00000000D+00 0.00000000D+00
  <mgrwgt>
 0.1814348517D-01    7    2    0
 0.132424143514439D+04 0.000000000000000D+00 0.000000000000000D+00 0.132424143514439D+04
 0.132424143514439D+04 -.000000000000000D+00 -.000000000000000D+00 -.132424143514439D+04
 0.803572189366634D+03 -.178367748892484D+03 -.417190808117620D+03 -.651337116477082D+03
 0.126625168761014D+04 0.131251220969314D+03 0.316034647454242D+03 0.121913434656647D+04
 0.578658993312013D+03 0.471165279231699D+02 0.101156160663378D+03 -.567797230089389D+03
 0.000000000000000D+00 0.000000000000000D+00 0.000000000000000D+00 -.000000000000000D+00
 0.132424143514439D+04 0.000000000000000D+00 0.000000000000000D+00 0.132424143514439D+04
 0.132424143514439D+04 -.000000000000000D+00 -.000000000000000D+00 -.132424143514439D+04
 0.819216576037416D+03 -.176531698589528D+03 -.413248925987964D+03 -.673463200937777D+03
 0.123532221340408D+04 0.134081543446730D+03 0.322111168112164D+03 0.118502637355205D+04
 0.113691851111902D+03 0.643997809317623D+02 0.881240517210455D+02 -.318222678867854D+02
 0.480252229735386D+03 -.219496257889640D+02 0.301370615475423D+01 -.479740904727486D+03
0.800876151987D-01 0.000000000000D+00 0.000000000000D+00 0.117378937849D-03 0.000000000000D+00  6 2 -2 25 1 -1 21 0 0.30611605D+00 0.13558809D+00 0.21363903D+06 0.21363903D+06 0.21363903D+06 0.10956317D+01  1  2  2  4  6  5       -1 0.279663177621D-01 0.100000000000D+01
0.838499764298D-02 0.000000000000D+00 -.307557529916D-03 0.117378937849D-03 0.000000000000D+00  6 2 -2 25 1 -1 21 2 0.30611605D+00 0.13558809D+00 0.21363903D+06 0.21363903D+06 0.21363903D+06 0.10956317D+01  1  2  3  4  6  5       -1 0.351481158254D-02 0.100000000000D+01
-.518835776025D-01 0.000000000000D+00 0.000000000000D+00 0.117378937849D-03 0.000000000000D+00  6 2 -2 25 1 -1 21 2 0.30611605D+00 0.13558809D+00 0.21363903D+06 0.21363903D+06 0.21363903D+06 0.10956317D+01  1  2 15  4  6  5       -1 -.217484854815D-01 0.100000000000D+01
0.306240721088D-09 0.000000000000D+00 0.000000000000D+00 0.117378937849D-03 0.000000000000D+00  6 2 -2 25 1 -1 21 2 0.30611605D+00 0.13558809D+00 0.22403320D+06 0.22403320D+06 0.22403320D+06 0.10940603D+01  1  2 12  4  6  5       -1 0.127548112924D-09 0.100000000000D+01
-.108039994743D-02 0.000000000000D+00 0.000000000000D+00 0.117378937849D-03 0.000000000000D+00  6 2 -2 25 1 -1 21 2 0.30611605D+00 0.13558809D+00 0.21363903D+06 0.21363903D+06 0.21363903D+06 0.10956317D+01  1  2  4  4  6  5       -1 -.452880538633D-03 0.100000000000D+01
-.182109102936D-01 0.000000000000D+00 0.000000000000D+00 0.117378937849D-03 0.000000000000D+00  6 2 -2 25 1 -1 21 2 0.30611605D+00 0.13558809D+00 0.21363903D+06 0.21363903D+06 0.21363903D+06 0.10956317D+01  1  2  5  4  6  5       -1 -.763362390235D-02 0.100000000000D+01
0.393563640342D-01 0.000000000000D+00 -.000000000000D+00 0.117378937849D-03 0.000000000000D+00  6 2 -2 25 1 -1 21 2 0.30611605D+00 0.13558809D+00 0.21363903D+06 0.21363903D+06 0.21363903D+06 0.10956317D+01  1  2  6  4  6  5       -1 0.164973456218D-01 0.100000000000D+01
  </mgrwgt>
  </event>
  <event>
  5     66 0.18881543E-05 0.23528290E+02 0.75467711E-02 0.94001387E-01
        2 -1    0    0  502    0 0.00000000E+00 0.00000000E+00 0.88591546E+03 0.88591552E+03 0.32000000E+00 0.0000E+00 0.9000E+01
       -2 -1    0    0    0  501 0.00000000E+00 0.00000000E+00 -.70493934E+03 0.70493941E+03 0.32000000E+00 0.0000E+00 0.9000E+01
       25  1    1    2    0    0 -.45104478E+03 -.17057966E+03 0.18822887E+03 0.53253538E+03 0.12500000E+03 0.0000E+00 0.9000E+01
        1  1    1    2  502    0 0.23396738E+02 0.25723298E+01 0.42608891E+03 0.42673867E+03 0.32000000E+00 0.0000E+00 0.9000E+01
       -1  1    1    2    0  501 0.42764805E+03 0.16800733E+03 -.43334167E+03 0.63158089E+03 0.32000000E+00 0.0000E+00 0.9000E+01
#aMCatNLO 1  0  0  2  1 0.24222281D+03 0.00000000D+00  -5  6  0 0.00000000D+00 0.00000000D+00 0.00000000D+00 0.00000000D+00 0.00000000D+00
  <mgrwgt>
 0.1497946622D-02    4    2    0
 0.790263729242189D+03 0.000000000000000D+00 0.000000000000000D+00 0.790263729242189D+03
 0.790263729242189D+03 0.000000000000000D+00 0.000000000000000D+00 -.790263729242189D+03
 0.514570936862617D+03 -.451120037952035D+03 -.170611040270357D+03 0.128611171208776D+03
 0.380585677564545D+03 0.233873652651308D+02 0.257129931958973D+01 0.379857706954892D+03
 0.685370844057217D+03 0.427732672686904D+03 0.168039740950767D+03 -.508468878163668D+03
 0.000000000000000D+00 -.000000000000000D+00 -.000000000000000D+00 0.000000000000000D+00
 0.828740668522091D+03 0.000000000000000D+00 0.000000000000000D+00 0.828740668522091D+03
 0.811377791644862D+03 0.000000000000000D+00 0.000000000000000D+00 -.811377791644862D+03
 0.498228363441039D+03 -.436146727129665D+03 -.160753541769770D+03 0.128611171208776D+03
 0.381566033020353D+03 0.346550808460628D+02 0.998926390749780D+01 0.379857706954892D+03
 0.701723727656903D+03 0.448239596572090D+03 0.181540226838490D+03 -.508468878163668D+03
 0.586003360486573D+02 -.467479502884886D+02 -.307759489762176D+02 0.173628768772291D+02
0.640645734470D-03 0.000000000000D+00 0.000000000000D+00 0.599442080905D-04 0.000000000000D+00  6 2 -2 25 1 -1 21 0 0.13629470D+00 0.10845222D+00 0.24074947D+06 0.24074947D+06 0.24074947D+06 0.10916931D+01  1  2  2  2  6  2       -2 0.166289955159D-02 0.100000000000D+01
0.375791750057D-03 0.000000000000D+00 -.246024830626D-05 0.599442080905D-04 0.000000000000D+00  6 2 -2 25 1 -1 21 2 0.13629470D+00 0.10845222D+00 0.24074947D+06 0.24074947D+06 0.24074947D+06 0.10916931D+01  1  2  3  2  6  2       -2 0.116250935681D-02 0.100000000000D+01
-.408596659401D-03 0.000000000000D+00 0.000000000000D+00 0.599442080905D-04 0.000000000000D+00  6 2 -2 25 1 -1 21 2 0.13629470D+00 0.10845222D+00 0.24074947D+06 0.24074947D+06 0.24074947D+06 0.10916931D+01  1  2 15  2  6  2       -2 -.126399113243D-02 0.100000000000D+01
-.205176292206D-04 0.000000000000D+00 0.000000000000D+00 0.599442080905D-04 0.000000000000D+00  6 2 -2 25 1 -1 21 2 0.13629470D+00 0.10845222D+00 0.24074947D+06 0.24074947D+06 0.24074947D+06 0.10916931D+01  1  2  4  2  6  2       -2 -.634711537567D-04 0.100000000000D+01
  </mgrwgt>
  </event>
  <event>
  5     66 0.18881543E-05 0.77228337E+02 0.75467711E-02 0.92179880E-01
        2 -1    0    0  502    0 0.00000000E+00 0.00000000E+00 0.16921083E+04 0.16921083E+04 0.32000000E+00 0.0000E+00 0.9000E+01
       -2 -1    0    0    0  501 0.00000000E+00 0.00000000E+00 -.12214209E+04 0.12214210E+04 0.32000000E+00 0.0000E+00 0.9000E+01
       25  1    1    2    0    0 0.50297904E+03 -.65401037E+02 0.61682439E+03 0.80830844E+03 0.12500000E+03 0.0000E+00 0.9000E+01
        1  1    1    2  502    0 -.65587073E+02 0.40799026E+02 0.93526690E+03 0.93845112E+03 0.32000000E+00 0.0000E+00 0.9000E+01
       -1  1    1    2    0  501 -.43739197E+03 0.24602012E+02 -.10814040E+04 0.11667697E+04 0.32000000E+00 0.0000E+00 0.9000E+01
#aMCatNLO 1  0  0  1  4 0.22640821D+03 0.00000000D+00  -5  6  0 0.00000000D+00 0.00000000D+00 0.00000000D+00 0.00000000D+00 0.00000000D+00
  <mgrwgt>
 0.1110157116D-01    7    2    0
 0.143762881365811D+04 0.000000000000000D+00 0.000000000000000D+00 0.143762881365811D+04
 0.143762881365811D+04 0.000000000000000D+00 0.000000000000000D+00 -.143762881365811D+04
 0.718209578592543D+03 0.503015338332864D+03 -.653974064226484D+02 0.492847590454842D+03
 0.797702501018024D+03 -.655760317731361D+02 0.407921577349787D+02 0.793955328752584D+03
 0.135934554770566D+04 -.437439306559728D+03 0.246052486876698D+02 -.128680291920743D+04
 0.000000000000000D+00 -.000000000000000D+00 0.000000000000000D+00 0.000000000000000D+00
 0.275587150722739D+04 0.000000000000000D+00 0.000000000000000D+00 0.275587150722739D+04
 0.145183330956344D+04 0.000000000000000D+00 0.000000000000000D+00 -.145183330956344D+04
 0.734103074786424D+03 0.515475748642227D+03 -.121112879395523D+03 0.492847590454842D+03
 0.795910106597095D+03 -.519033099120016D+02 -.203440445574379D+02 0.793955328752584D+03
 0.135414477224282D+04 -.414158367239689D+03 -.794931327672474D+02 -.128680291920743D+04
 0.132354686316450D+04 -.494140714905355D+02 0.220950056720209D+03 0.130403819766395D+04
0.387721182358D-02 0.000000000000D+00 0.000000000000D+00 0.318145035855D-03 0.000000000000D+00  6 2 -2 25 1 -1 21 0 0.26032436D+00 0.18791092D+00 0.26924815D+06 0.26924815D+06 0.26924815D+06 0.10880440D+01  1  2  2  1  6  1        2 0.767129552478D-03 0.100000000000D+01
0.966859592791D-03 0.000000000000D+00 -.148895142959D-04 0.318145035855D-03 0.000000000000D+00  6 2 -2 25 1 -1 21 2 0.26032436D+00 0.18791092D+00 0.26924815D+06 0.26924815D+06 0.26924815D+06 0.10880440D+01  1  2  3  1  6  1        2 0.226467305651D-03 0.100000000000D+01
-.273063002454D-02 0.000000000000D+00 0.000000000000D+00 0.318145035855D-03 0.000000000000D+00  6 2 -2 25 1 -1 21 2 0.26032436D+00 0.18791092D+00 0.26924815D+06 0.26924815D+06 0.26924815D+06 0.10880440D+01  1  2 15  1  6  1        2 -.639594858447D-03 0.100000000000D+01
-.266993671653D-02 0.000000000000D+00 0.000000000000D+00 0.318145035855D-03 0.000000000000D+00  6 2 -2 25 1 -1 21 2 0.26032436D+00 0.18791092D+00 0.26924815D+06 0.26924815D+06 0.26924815D+06 0.10880440D+01  1  2  4  1  6  1        2 -.625378678518D-03 0.100000000000D+01
-.677742790614D-01 0.000000000000D+00 -.200015410162D-02 0.318145035855D-03 0.000000000000D+00  6 2 -2 25 1 -1 21 2 0.49989414D+00 0.18791092D+00 0.26924815D+06 0.26924815D+06 0.26924815D+06 0.10880440D+01  1  2  5  1  6  1        2 -.194679206651D-02 0.100000000000D+01
0.568945102201D-01 0.000000000000D+00 0.163877667474D-02 0.318145035855D-03 0.000000000000D+00  6 2 -2 25 1 -1 21 2 0.26032436D+00 0.18791092D+00 0.26924815D+06 0.26924815D+06 0.26924815D+06 0.10880440D+01  1  2  6  1  6  1        2 0.133263883732D-01 0.100000000000D+01
-.468352303638D-02 0.000000000000D+00 -.141630327797D-03 0.318145035855D-03 0.000000000000D+00  6 21 -2 25 1 -1 -2 2 0.49989414D+00 0.18791092D+00 0.26924815D+06 0.26924815D+06 0.26924815D+06 0.10880440D+01  1  2  5  5  6  1        2 -.664846646405D-05 0.100000000000D+01
  </mgrwgt>
  </event>
  <event>
  5     66 0.18881543E-05 0.35852565E+02 0.75467711E-02 0.94237444E-01
        2 -1    0    0  502    0 0.00000000E+00 0.00000000E+00 0.59661944E+03 0.59661952E+03 0.32000000E+00 0.0000E+00 0.9000E+01
       -2 -1    0    0    0  501 0.00000000E+00 0.00000000E+00 -.94454794E+03 0.94454800E+03 0.32000000E+00 0.0000E+00 0.9000E+01
       25  1    1    2    0    0 0.40047665E+03 0.24076737E+03 -.39291275E+03 0.62318208E+03 0.12500000E+03 0.0000E+00 0.9000E+01
        1  1    1    2  502    0 -.43543143E+03 -.23277662E+03 0.35359313E+03 0.60730033E+03 0.32000000E+00 0.0000E+00 0.9000E+01
       -1  1    1    2    0  501 0.34954776E+02 -.79907511E+01 -.30860889E+03 0.31068511E+03 0.32000000E+00 0.0000E+00 0.9000E+01
#aMCatNLO 1  0  0  2  1 0.20857371D+02 0.00000000D+00  -5  6  0 0.00000000D+00 0.00000000D+00 0.00000000D+00 0.00000000D+00 0.00000000D+00
  <mgrwgt>
 0.1291527308D-01    9    4    0
 0.750690195095357D+03 0.000000000000000D+00 0.000000000000000D+00 0.750690195095357D+03
 0.750690195095357D+03 0.000000000000000D+00 0.000000000000000D+00 -.750690195095357D+03
 0.548668910810556D+03 0.400485454665644D+03 0.240769134949505D+03 -.258948253415545D+03
 0.705343332458292D+03 -.435436399164081D+03 -.232779273599242D+03 0.503704445790383D+03
 0.247368146921866D+03 0.349509444984373D+02 -.798986135026314D+01 -.244756192374837D+03
 0.000000000000000D+00 0.000000000000000D+00 0.000000000000000D+00 -.000000000000000D+00
 0.752309012210580D+03 0.000000000000000D+00 0.000000000000000D+00 0.752309012210580D+03
 0.821092901746978D+03 0.000000000000000D+00 0.000000000000000D+00 -.821092901746978D+03
 0.542572067759509D+03 0.395582195702801D+03 0.234989312967246D+03 -.258948253415545D+03
 0.711790639164438D+03 -.441803988893908D+03 -.240285206974035D+03 0.503704445790383D+03
 0.247162552934808D+03 0.327288761064945D+02 -.106091722688092D+02 -.244756192374837D+03
 0.718766540988021D+02 0.134929170846121D+02 0.159050662755981D+02 -.687838895363984D+02
 0.750690195095357D+03 0.000000000000000D+00 0.000000000000000D+00 0.750690195095357D+03
 0.750690195095357D+03 0.000000000000000D+00 0.000000000000000D+00 -.750690195095357D+03
 0.548668910810556D+03 0.400485454665644D+03 0.240769134949505D+03 -.258948253415545D+03
 0.705343332458292D+03 -.435436399164081D+03 -.232779273599242D+03 0.503704445790383D+03
 0.000000000000000D+00 0.000000000000000D+00 0.000000000000000D+00 -.000000000000000D+00
 0.247368146921866D+03 0.349509444984373D+02 -.798986135026314D+01 -.244756192374837D+03
 0.752309012210580D+03 0.000000000000000D+00 0.000000000000000D+00 0.752309012210580D+03
 0.821092901746978D+03 0.000000000000000D+00 0.000000000000000D+00 -.821092901746978D+03
 0.542572067759509D+03 0.395582195702801D+03 0.234989312967246D+03 -.258948253415545D+03
 0.711790639164438D+03 -.441803988893908D+03 -.240285206974035D+03 0.503704445790383D+03
 0.718766540988021D+02 0.134929170846121D+02 0.159050662755981D+02 -.687838895363984D+02
 0.247162552934808D+03 0.327288761064945D+02 -.106091722688092D+02 -.244756192374837D+03
0.847383885853D-03 0.000000000000D+00 0.000000000000D+00 0.163119490531D-04 0.000000000000D+00  6 2 -2 25 1 -1 21 0 0.91787616D-01 0.14531508D+00 0.25670580D+06 0.25670580D+06 0.25670580D+06 0.10895953D+01  1  2  2  2  6  2       -2 0.167742045816D-02 0.100000000000D+01
0.291255298259D-03 0.000000000000D+00 -.325417724298D-05 0.163119490531D-04 0.000000000000D+00  6 2 -2 25 1 -1 21 2 0.91787616D-01 0.14531508D+00 0.25670580D+06 0.25670580D+06 0.25670580D+06 0.10895953D+01  1  2  3  2  6  2       -2 0.684488328059D-03 0.100000000000D+01
-.558859940194D-03 0.000000000000D+00 0.000000000000D+00 0.163119490531D-04 0.000000000000D+00  6 2 -2 25 1 -1 21 2 0.91787616D-01 0.14531508D+00 0.25670580D+06 0.25670580D+06 0.25670580D+06 0.10895953D+01  1  2 15  2  6  2       -2 -.131339449744D-02 0.100000000000D+01
0.618333591089D-07 0.000000000000D+00 0.000000000000D+00 0.163119490531D-04 0.000000000000D+00  6 2 -2 25 1 -1 21 2 0.91787616D-01 0.15909151D+00 0.26779261D+06 0.26779261D+06 0.26779261D+06 0.10882199D+01  1  2 12  2  6  2       -2 0.112566868534D-06 0.100000000000D+01
-.153369481072D-02 0.000000000000D+00 0.000000000000D+00 0.163119490531D-04 0.000000000000D+00  6 2 -2 25 1 -1 21 2 0.91787616D-01 0.14531508D+00 0.25670580D+06 0.25670580D+06 0.25670580D+06 0.10895953D+01  1  2  4  2  6  2       -2 -.360438489194D-02 0.100000000000D+01
-.532788978634D-01 0.000000000000D+00 -.218143180878D-02 0.163119490531D-04 0.000000000000D+00  6 2 -2 25 1 -1 21 2 0.91787616D-01 0.15908697D+00 0.25670580D+06 0.25670580D+06 0.25670580D+06 0.10895953D+01  1  2  5  2  6  2       -2 -.974311366770D-01 0.100000000000D+01
0.532668226441D-01 0.000000000000D+00 0.217251980021D-02 0.163119490531D-04 0.000000000000D+00  6 2 -2 25 1 -1 21 2 0.91787616D-01 0.14531508D+00 0.25670580D+06 0.25670580D+06 0.25670580D+06 0.10895953D+01  1  2  6  2  6  2       -2 0.125184051898D+00 0.100000000000D+01
0.939568875446D-09 0.000000000000D+00 0.000000000000D+00 0.163119490531D-04 0.000000000000D+00  6 2 21 25 1 2 -1 2 0.91787616D-01 0.15909151D+00 0.26779261D+06 0.26779261D+06 0.26779261D+06 0.10882199D+01  3  4 12  6  5  2       -2 0.144228126455D-07 0.100000000000D+01
-.795309975231D-03 0.000000000000D+00 -.325000030732D-04 0.163119490531D-04 0.000000000000D+00  6 2 21 25 1 2 -1 2 0.91787616D-01 0.15908697D+00 0.25670580D+06 0.25670580D+06 0.25670580D+06 0.10895953D+01  3  4  5  6  5  2       -2 -.122818985242D-01 0.100000000000D+01
  </mgrwgt>
  </event>
  <event>
  5     66 0.18881543E-05 0.18145470E+03 0.75467711E-02 0.92545190E-01
        2 -1    0    0  502    0 0.00000000E+00 0.00000000E+00 0.15277830E+04 0.15277831E+04 0.32000000E+00 0.0000E+00 0.9000E+01
       -2 -1    0    0    0  501 0.00000000E+00 0.00000000E+00 -.50951372E+03 0.50951382E+03 0.32000000E+00 0.0000E+00 0.9000E+01
       25  1    1    2    0    0 0.45455480E+03 0.24621206E+03 0.32704535E+03 0.62435896E+03 0.12500000E+03 0.0000E+00 0.9000E+01
        1  1    1    2  502    0 -.11982759E+03 0.13631634E+03 0.85876651E+03 0.87773619E+03 0.32000000E+00 0.0000E+00 0.9000E+01
       -1  1    1    2    0  501 -.33472721E+03 -.38252840E+03 -.16754256E+03 0.53520173E+03 0.32000000E+00 0.0000E+00 0.9000E+01
#aMCatNLO 1  0  0  5  2 0.93579630D+02 0.00000000D+00  -5  6  0 0.00000000D+00 0.00000000D+00 0.00000000D+00 0.00000000D+00 0.00000000D+00
  <mgrwgt>
 0.9394622006D-03    8    2    0
 0.882284848263408D+03 0.000000000000000D+00 0.000000000000000D+00 0.882284848263408D+03
 0.882284848263408D+03 -.000000000000000D+00 -.000000000000000D+00 -.882284848263408D+03
 0.532207143630311D+03 0.454596040685060D+03 0.246291682007488D+03 0.173865148469886D+02
 0.517715775135675D+03 -.119800328494206D+03 0.136285327096533D+03 0.484875050642126D+03
 0.714646777760829D+03 -.334795712190854D+03 -.382577009104021D+03 -.502261565489115D+03
 0.000000000000000D+00 0.000000000000000D+00 0.000000000000000D+00 -.000000000000000D+00
 0.882284848263408D+03 0.000000000000000D+00 0.000000000000000D+00 0.882284848263408D+03
 0.882284848263408D+03 -.000000000000000D+00 -.000000000000000D+00 -.882284848263408D+03
 0.522998527776655D+03 0.448094732698932D+03 0.238862521853911D+03 0.763323244838416D+01
 0.508487045976492D+03 -.126122944811636D+03 0.129060361087841D+03 0.475389842038948D+03
 0.600028254130067D+03 -.308164980857429D+03 -.376675739939206D+03 -.350975265893151D+03
 0.133055868643601D+03 -.138068070298671D+02 0.875285699745456D+01 -.132047808594181D+03
0.157625705979D-03 0.000000000000D+00 0.000000000000D+00 0.789632464273D-06 0.000000000000D+00  6 2 -2 25 1 -1 21 0 0.23504355D+00 0.78386737D-01 0.37317488D+06 0.37317488D+06 0.37317488D+06 0.10776077D+01  1  2  2  4  6  5       -1 0.361417614930D-03 0.100000000000D+01
0.156928142128D-04 0.000000000000D+00 -.605324214761D-06 0.789632464273D-06 0.000000000000D+00  6 2 -2 25 1 -1 21 2 0.23504355D+00 0.78386737D-01 0.37317488D+06 0.37317488D+06 0.37317488D+06 0.10776077D+01  1  2  3  4  6  5       -1 0.417834672354D-04 0.100000000000D+01
-.966058458210D-04 0.000000000000D+00 0.000000000000D+00 0.789632464273D-06 0.000000000000D+00  6 2 -2 25 1 -1 21 2 0.23504355D+00 0.78386737D-01 0.37317488D+06 0.37317488D+06 0.37317488D+06 0.10776077D+01  1  2 15  4  6  5       -1 -.257221371443D-03 0.100000000000D+01
0.499719150655D-08 0.000000000000D+00 0.000000000000D+00 0.789632464273D-06 0.000000000000D+00  6 2 -2 25 1 -1 21 2 0.23504355D+00 0.78386737D-01 0.36386035D+06 0.36386035D+06 0.36386035D+06 0.10784049D+01  1  2 12  4  6  5       -1 0.133427794896D-07 0.100000000000D+01
0.322145177858D-03 0.000000000000D+00 0.000000000000D+00 0.789632464273D-06 0.000000000000D+00  6 2 -2 25 1 -1 21 2 0.23504355D+00 0.78386737D-01 0.36386035D+06 0.36386035D+06 0.36386035D+06 0.10784049D+01  1  2 12  4  6  5       -1 0.860145556995D-03 0.100000000000D+01
-.120450316341D-03 0.000000000000D+00 0.000000000000D+00 0.789632464273D-06 0.000000000000D+00  6 2 -2 25 1 -1 21 2 0.23504355D+00 0.78386737D-01 0.37317488D+06 0.37317488D+06 0.37317488D+06 0.10776077D+01  1  2  4  4  6  5       -1 -.320709324542D-03 0.100000000000D+01
-.469633417772D-03 0.000000000000D+00 0.000000000000D+00 0.789632464273D-06 0.000000000000D+00  6 2 -2 25 1 -1 21 2 0.23504355D+00 0.78386737D-01 0.37317488D+06 0.37317488D+06 0.37317488D+06 0.10776077D+01  1  2  5  4  6  5       -1 -.125043935766D-02 0.100000000000D+01
0.565041759822D-03 0.000000000000D+00 -.000000000000D+00 0.789632464273D-06 0.000000000000D+00  6 2 -2 25 1 -1 21 2 0.23504355D+00 0.78386737D-01 0.37317488D+06 0.37317488D+06 0.37317488D+06 0.10776077D+01  1  2  6  4  6  5       -1 0.150447227234D-02 0.100000000000D+01
  </mgrwgt>
  </event>
  <event>
  5     66 0.18881543E-05 0.15027865E+03 0.75467711E-02 0.93802492E-01
        2 -1    0    0  502    0 0.00000000E+00 0.00000000E+00 0.28662734E+04 0.28662734E+04 0.32000000E+00 0.0000E+00 0.9000E+01
       -2 -1    0    0    0  501 0.00000000E+00 0.00000000E+00 -.69524078E+03 0.69524085E+03 0.32000000E+00 0.0000E+00 0.9000E+01
       25  1    1    2    0    0 0.25868593E+03 0.44411882E+03 0.97932338E+03 0.11130405E+04 0.12500000E+03 0.0000E+00 0.9000E+01
        1  1    1    2  502    0 -.28612759E+02 -.14754926E+03 0.17605509E+04 0.17669547E+04 0.32000000E+00 0.0000E+00 0.9000E+01
       -1  1    1    2    0  501 -.23007317E+03 -.29656956E+03 -.56884168E+03 0.68151898E+03 0.32000000E+00 0.0000E+00 0.9000E+01
#aMCatNLO 1  0  0  4  1 0.34704385D+02 0.00000000D+00  -5  6  0 0.00000000D+00 0.00000000D+00 0.00000000D+00 0.00000000D+00 0.00000000D+00
  <mgrwgt>
 0.4015772915D-02    8    2    0
 0.141164807301828D+04 0.000000000000000D+00 0.000000000000000D+00 0.141164807301828D+04
 0.141164807301828D+04 -.000000000000000D+00 -.000000000000000D+00 -.141164807301828D+04
 0.651089716322559D+03 0.258706961653741D+03 0.444133039506286D+03 0.379617399379677D+03
 0.875042304006083D+03 -.286090846477558D+02 -.147530307650616D+03 0.862041392509899D+03
 0.129716412570792D+04 -.230097877005985D+03 -.296602731855670D+03 -.124165879188958D+04
 0.000000000000000D+00 0.000000000000000D+00 0.000000000000000D+00 0.000000000000000D+00
 0.141164807301828D+04 0.000000000000000D+00 0.000000000000000D+00 0.141164807301828D+04
 0.141164807301828D+04 -.000000000000000D+00 -.000000000000000D+00 -.141164807301828D+04
 0.651506579355631D+03 0.258676468810662D+03 0.443975795100324D+03 0.380536201684356D+03
 0.684098147290015D+03 -.550392752904681D+02 -.126411745866723D+03 0.670060462800230D+03
 0.129549619860646D+04 -.230158569320778D+03 -.296915707820601D+03 -.123983002706879D+04
 0.192195220784458D+03 0.265213758005840D+02 -.206483414129993D+02 0.189233362584199D+03
0.141888181442D-02 0.000000000000D+00 0.000000000000D+00 0.889754091499D-04 0.000000000000D+00  6 2 -2 25 1 -1 21 0 0.44096514D+00 0.10696013D+00 0.27806566D+06 0.27806566D+06 0.27806566D+06 0.10869999D+01  1  2  2  3  6  4        1 0.279104276027D-03 0.100000000000D+01
0.198818459090D-03 0.000000000000D+00 -.544887976754D-05 0.889754091499D-04 0.000000000000D+00  6 2 -2 25 1 -1 21 2 0.44096514D+00 0.10696013D+00 0.27806566D+06 0.27806566D+06 0.27806566D+06 0.10869999D+01  1  2  3  3  6  4        1 0.462099995779D-04 0.100000000000D+01
-.903702760259D-03 0.000000000000D+00 0.000000000000D+00 0.889754091499D-04 0.000000000000D+00  6 2 -2 25 1 -1 21 2 0.44096514D+00 0.10696013D+00 0.27806566D+06 0.27806566D+06 0.27806566D+06 0.10869999D+01  1  2 15  3  6  4        1 -.210041383286D-03 0.100000000000D+01
0.562542514379D-09 0.000000000000D+00 0.000000000000D+00 0.889754091499D-04 0.000000000000D+00  6 2 -2 25 1 -1 21 2 0.44096514D+00 0.10696013D+00 0.28943495D+06 0.28943495D+06 0.28943495D+06 0.10857057D+01  1  2 12  3  6  4        1 0.129974319104D-09 0.100000000000D+01
0.313006447778D-01 0.000000000000D+00 0.000000000000D+00 0.889754091499D-04 0.000000000000D+00  6 2 -2 25 1 -1 21 2 0.44096514D+00 0.10696013D+00 0.28943495D+06 0.28943495D+06 0.28943495D+06 0.10857057D+01  1  2 12  3  6  4        1 0.723195116552D-02 0.100000000000D+01
-.273034390957D-01 0.000000000000D+00 0.000000000000D+00 0.889754091499D-04 0.000000000000D+00  6 2 -2 25 1 -1 21 2 0.44096514D+00 0.10696013D+00 0.27806566D+06 0.27806566D+06 0.27806566D+06 0.10869999D+01  1  2  4  3  6  4        1 -.634594954040D-02 0.100000000000D+01
-.533654210943D-01 0.000000000000D+00 0.000000000000D+00 0.889754091499D-04 0.000000000000D+00  6 2 -2 25 1 -1 21 2 0.44096514D+00 0.10696013D+00 0.27806566D+06 0.27806566D+06 0.27806566D+06 0.10869999D+01  1  2  5  3  6  4        1 -.124033557927D-01 0.100000000000D+01
0.663352957099D-01 0.000000000000D+00 -.000000000000D+00 0.889754091499D-04 0.000000000000D+00  6 2 -2 25 1 -1 21 2 0.44096514D+00 0.10696013D+00 0.27806566D+06 0.27806566D+06 0.27806566D+06 0.10869999D+01  1  2  6  3  6  4        1 0.154178540604D-01 0.100000000000D+01
  </mgrwgt>
  </event>
  <event>
  6     66 0.18881543E-05 0.70390455E+02 0.75467711E-02 0.91741100E-01
        2 -1    0    0  502    0 0.00000000E+00 0.00000000E+00 0.16199042E+04 0.16199042E+04 0.32000000E+00 0.0000E+00 0.9000E+01
       -2 -1    0    0    0  501 0.00000000E+00 0.00000000E+00 -.48082859E+03 0.48082870E+03 0.32000000E+00 0.0000E+00 0.9000E+01
       25  1    1    2    0    0 0.61596171E+03 -.17215546E+03 0.11804082E+01 0.65166918E+03 0.12500000E+03 0.0000E+00 0.9000E+01
        1  1    1    2  502    0 -.19527599E+02 0.15045933E+02 0.66529943E+03 0.66575607E+03 0.32000000E+00 0.0000E+00 0.9000E+01
       -1  1    1    2    0  503 -.34228522E+03 0.13716345E+03 0.30108913E+03 0.47605435E+03 0.32000000E+00 0.0000E+00 0.9000E+01
       21  1    1    2  503  501 -.25414890E+03 0.19946076E+02 0.17150662E+03 0.30725330E+03 0.75000000E+00 0.0000E+00 0.9000E+01
#aMCatNLO 2  0  0  5  4 0.60675656D+02 0.00000000D+00  -5  6  0 0.00000000D+00 0.00000000D+00 0.00000000D+00 0.00000000D+00 0.00000000D+00
  <mgrwgt>
 0.1911399639D-02    1    2    0
 0.882551069670129D+03 0.000000000000000D+00 0.000000000000000D+00 0.882551069670129D+03
 0.882551069670129D+03 -.000000000000000D+00 -.000000000000000D+00 -.882551069670129D+03
 0.777890376829258D+03 0.619391890467721D+03 -.173058532628714D+03 -.419395837688911D+03
 0.362607168002235D+03 -.179592486846777D+02 0.146285398078172D+02 0.361866590743570D+03
 0.624604594508764D+03 -.601432641783043D+03 0.158429992820897D+03 0.575292469453415D+02
 0.000000000000000D+00 -.000000000000000D+00 0.000000000000000D+00 0.000000000000000D+00
 0.882551069670129D+03 0.000000000000000D+00 0.000000000000000D+00 0.882551069670129D+03
 0.882551069670129D+03 -.000000000000000D+00 -.000000000000000D+00 -.882551069670129D+03
 0.774864503912875D+03 0.616051583913281D+03 -.172178625708679D+03 -.419076325066394D+03
 0.362853560120035D+03 -.195198692663226D+02 0.150396400547428D+02 0.362015869849146D+03
 0.372053168050893D+03 -.342054332213865D+03 0.137129221243248D+03 0.511661054962515D+02
 0.255330907256454D+03 -.254477382433094D+03 0.200097644106883D+02 0.589434972099709D+01
0.719020775870D-03 0.000000000000D+00 0.000000000000D+00 0.180992126929D-05 0.189035452713D-08  6 2 -2 25 1 -1 21 2 0.24921604D+00 0.73973640D-01 0.42261824D+06 0.42261824D+06 0.42261824D+06 0.10737098D+01  1  2  1  4  6  5       -1 0.191139963935D-02 0.100000000000D+01
  </mgrwgt>
  </event>
  <event>
  5     66 -.18881543E-05 0.10247869E+03 0.75467711E-02 0.93639418E-01
        2 -1    0    0  502    0 0.00000000E+00 0.00000000E+00 0.33834678E+03 0.33834693E+03 0.32000000E+00 0.0000E+00 0.9000E+01
       -2 -1    0    0    0  501 -.00000000E+00 -.00000000E+00 -.13988605E+04 0.13988605E+04 0.32000000E+00 0.0000E+00 0.9000E+01
       25  1    1    2    0    0 0.21340718E+03 0.45052113E+03 -.36613526E+03 0.63102452E+03 0.12500000E+03 0.0000E+00 0.9000E+01
        1  1    1    2  502    0 -.28694741E+03 -.37917407E+03 -.78632317E+02 0.48196985E+03 0.32000000E+00 0.0000E+00 0.9000E+01
       -1  1    1    2    0  501 0.73540232E+02 -.71347061E+02 -.61574612E+03 0.62421307E+03 0.32000000E+00 0.0000E+00 0.9000E+01
#aMCatNLO 1  0  0  5  2 0.38392692D+00 0.00000000D+00  -5  6  0 0.00000000D+00 0.00000000D+00 0.00000000D+00 0.00000000D+00 0.00000000D+00
  <mgrwgt>
 -.2114222497D-01    7    2    0
 0.687968091155124D+03 0.000000000000000D+00 0.000000000000000D+00 0.687968091155124D+03
 0.687968091155124D+03 -.000000000000000D+00 -.000000000000000D+00 -.687968091155124D+03
 0.514486272625865D+03 0.213377105643899D+03 0.450507314693169D+03 0.241763296519149D+02
 0.547871582948848D+03 -.286926671331405D+03 -.379146659969325D+03 0.272184068078317D+03
 0.313578326735534D+03 0.735495656875055D+02 -.713606547238437D+02 -.296360397730232D+03
 0.000000000000000D+00 0.000000000000000D+00 0.000000000000000D+00 -.000000000000000D+00
 0.687968091155124D+03 0.000000000000000D+00 0.000000000000000D+00 0.687968091155124D+03
 0.687968091155124D+03 -.000000000000000D+00 -.000000000000000D+00 -.687968091155124D+03
 0.514485065285752D+03 0.213379039989523D+03 0.450505437915667D+03 0.241685354055042D+02
 0.547867763843614D+03 -.286924611469743D+03 -.379148658527379D+03 0.272175768077961D+03
 0.338882916177788D+01 0.113844664319997D+01 -.879539597467413D+00 -.306830774610208D+01
 0.310194524019104D+03 0.724071248370200D+02 -.704772397908208D+02 -.293275995737363D+03
0.362461511386D-03 0.000000000000D+00 0.000000000000D+00 0.875077164471D-06 0.000000000000D+00  6 2 -2 25 1 -1 21 0 0.52053365D-01 0.21520932D+00 0.29804741D+06 0.29804741D+06 0.29804741D+06 0.10847617D+01  1  2  2  4  6  5       -1 0.420950168258D-03 0.100000000000D+01
0.535765816760D-04 0.000000000000D+00 -.139194764203D-05 0.875077164471D-06 0.000000000000D+00  6 2 -2 25 1 -1 21 2 0.52053365D-01 0.21520932D+00 0.29804741D+06 0.29804741D+06 0.29804741D+06 0.10847617D+01  1  2  3  4  6  5       -1 0.732170977650D-04 0.100000000000D+01
-.214688511746D-03 0.000000000000D+00 0.000000000000D+00 0.875077164471D-06 0.000000000000D+00  6 2 -2 25 1 -1 21 2 0.52053365D-01 0.21520932D+00 0.29804741D+06 0.29804741D+06 0.29804741D+06 0.10847617D+01  1  2 15  4  6  5       -1 -.293390680439D-03 0.100000000000D+01
-.322397278602D-01 0.000000000000D+00 0.000000000000D+00 0.875077164471D-06 0.000000000000D+00  6 2 -2 25 1 -1 21 2 0.52053365D-01 0.21520932D+00 0.29804741D+06 0.29804741D+06 0.29804741D+06 0.10847617D+01  1  2  4  4  6  5       -1 -.440584156886D-01 0.100000000000D+01
-.757436949330D-02 0.000000000000D+00 0.000000000000D+00 0.875077164471D-06 0.000000000000D+00  6 2 -2 25 1 -1 21 2 0.52053365D-01 0.21520932D+00 0.29804741D+06 0.29804741D+06 0.29804741D+06 0.10847617D+01  1  2  5  4  6  5       -1 -.103510402185D-01 0.100000000000D+01
0.165336420652D-01 0.000000000000D+00 -.000000000000D+00 0.875077164471D-06 0.000000000000D+00  6 2 -2 25 1 -1 21 2 0.52053365D-01 0.21520932D+00 0.29804741D+06 0.29804741D+06 0.29804741D+06 0.10847617D+01  1  2  6  4  6  5       -1 0.225946719561D-01 0.100000000000D+01
0.766272719537D-02 0.000000000000D+00 0.000000000000D+00 0.875077164471D-06 0.202747497344D-06  6 2 -2 25 1 -1 21 2 0.52053365D-01 0.21520932D+00 0.29804914D+06 0.29804914D+06 0.29804914D+06 0.10847616D+01  1  2 11  4  6  5       -1 0.104717823958D-01 0.100000000000D+01
  </mgrwgt>
  </event>
  <event>
  6     66 -.18881543E-05 0.14485291E+03 0.75467711E-02 0.93736165E-01
        2 -1    0    0  503    0 0.00000000E+00 0.00000000E+00 0.10992600E+04 0.10992601E+04 0.32000000E+00 0.0000E+00 0.9000E+01
       -2 -1    0    0    0  501 0.00000000E+00 0.00000000E+00 -.54297557E+03 0.54297567E+03 0.32000000E+00 0.0000E+00 0.9000E+01
       25  1    1    2    0    0 -.33066566E+03 0.37257721E+03 0.36202696E+03 0.62836460E+03 0.12500000E+03 0.0000E+00 0.9000E+01
        1  1    1    2  502    0 0.14903352E+03 -.19032557E+02 0.35935720E+03 0.38950087E+03 0.32000000E+00 0.0000E+00 0.9000E+01
       -1  1    1    2    0  501 0.18798852E+03 -.36203343E+03 -.28905444E+03 0.49996046E+03 0.32000000E+00 0.0000E+00 0.9000E+01
       21  1    1    2  503  502 -.63563786E+01 0.84887785E+01 0.12395475E+03 0.12440983E+03 0.75000000E+00 0.0000E+00 0.9000E+01
#aMCatNLO 2  0  0  1  4 0.10604853D+02 0.00000000D+00  -5  6  0 0.00000000D+00 0.00000000D+00 0.00000000D+00 0.00000000D+00 0.00000000D+00
  <mgrwgt>
 -.8344917609D-03    3    2    0
 0.727456886540160D+03 0.000000000000000D+00 0.000000000000000D+00 0.727456886540160D+03
 0.727456886540160D+03 0.000000000000000D+00 0.000000000000000D+00 -.727456886540160D+03
 0.551669178356219D+03 -.333039717831199D+03 0.375852553578150D+03 0.191136827074022D+03
 0.298621373278844D+03 0.147639395483820D+03 -.172768380191388D+02 0.258995838476558D+03
 0.604623221445257D+03 0.185400322347379D+03 -.358575715559012D+03 -.450132665550581D+03
 0.000000000000000D+00 -.000000000000000D+00 0.000000000000000D+00 0.000000000000000D+00
 0.820123177692561D+03 0.000000000000000D+00 0.000000000000000D+00 0.820123177692561D+03
 0.727779682595990D+03 0.000000000000000D+00 0.000000000000000D+00 -.727779682595990D+03
 0.548035881087450D+03 -.330637496827720D+03 0.372644449827007D+03 0.191136827074022D+03
 0.299375131012362D+03 0.148945672789976D+03 -.190213374302424D+02 0.258995838476558D+03
 0.607541409805392D+03 0.188048202623876D+03 -.362111890888136D+03 -.450132665550581D+03
 0.929504383833465D+02 -.635637858613172D+01 0.848877849137114D+01 0.923434950965714D+02
-.347630376483D-07 0.000000000000D+00 0.000000000000D+00 0.708282566886D-06 0.000000000000D+00  6 2 -2 25 1 -1 21 2 0.16914736D+00 0.83497490D-01 0.29290446D+06 0.29290446D+06 0.29290446D+06 0.10853218D+01  1  2 13  1  6  1        2 -.144322840500D-06 0.100000000000D+01
-.713596813270D-03 0.000000000000D+00 0.000000000000D+00 0.708282566886D-06 0.000000000000D+00  6 2 -2 25 1 -1 21 2 0.17039750D+00 0.83497490D-01 0.29290446D+06 0.29290446D+06 0.29290446D+06 0.10853218D+01  1  2 13  1  6  1        2 -.292968924859D-02 0.100000000000D+01
0.505076639087D-03 0.000000000000D+00 0.000000000000D+00 0.708282566886D-06 0.270873503056D-07  6 2 -2 25 1 -1 21 2 0.16911659D+00 0.83534541D-01 0.29290446D+06 0.29290446D+06 0.29290446D+06 0.10853218D+01  1  2  1  1  6  1        2 0.209534181054D-02 0.100000000000D+01
  </mgrwgt>
  </event>
  <event>
  6     66 -.18881543E-05 0.40584349E+02 0.75467711E-02 0.93764002E-01
        2 -1    0    0  503    0 0.00000000E+00 0.00000000E+00 0.15332604E+04 0.15332604E+04 0.32000000E+00 0.0000E+00 0.9000E+01
       -2 -1    0    0    0  501 0.00000000E+00 0.00000000E+00 -.98833214E+03 0.98833219E+03 0.32000000E+00 0.0000E+00 0.9000E+01
       25  1    1    2    0    0 0.35849529E+03 0.37099557E+03 0.78616170E+03 0.94859464E+03 0.12500000E+03 0.0000E+00 0.9000E+01
        1  1    1    2  502    0 -.39090224E+02 0.17686310E+02 0.42501770E+03 0.42717795E+03 0.32000000E+00 0.0000E+00 0.9000E+01
       -1  1    1    2    0  501 -.32150419E+03 -.38459866E+03 -.83666606E+03 0.97534162E+03 0.32000000E+00 0.0000E+00 0.9000E+01
       21  1    1    2  503  502 0.20991221E+01 -.40832162E+01 0.17041494E+03 0.17047842E+03 0.75000000E+00 0.0000E+00 0.9000E+01
#aMCatNLO 2  0  0  1  4 0.45911838D+01 0.00000000D+00  -5  6  0 0.00000000D+00 0.00000000D+00 0.00000000D+00 0.00000000D+00 0.00000000D+00
  <mgrwgt>
 -.2235882744D-02    3    2    0
 0.116054477919737D+04 0.000000000000000D+00 0.000000000000000D+00 0.116054477919737D+04
 0.116054477919737D+04 0.000000000000000D+00 0.000000000000000D+00 -.116054477919737D+04
 0.833880539313113D+03 0.359272127067805D+03 0.369590140938496D+03 0.643473713743122D+03
 0.363845695174501D+03 -.387381840894647D+02 0.170357946971709D+02 0.361376292373341D+03
 0.112336332390712D+04 -.320533942978341D+03 -.386625935635667D+03 -.100485000611646D+04
 0.000000000000000D+00 0.000000000000000D+00 -.000000000000000D+00 0.000000000000000D+00
 0.130569520762208D+04 0.000000000000000D+00 0.000000000000000D+00 0.130569520762208D+04
 0.116058335552203D+04 0.000000000000000D+00 0.000000000000000D+00 -.116058335552203D+04
 0.834207431844511D+03 0.358517844040722D+03 0.371057373691240D+03 0.643473713743122D+03
 0.363911409632654D+03 -.390672643547066D+02 0.176759222436063D+02 0.361376292373341D+03
 0.112297525766178D+04 -.321549701795895D+03 -.384650079687048D+03 -.100485000611646D+04
 0.145184464005161D+03 0.209912210987928D+01 -.408321624779837D+01 0.145111852100052D+03
-.645914696122D-09 0.000000000000D+00 0.000000000000D+00 0.885219460135D-04 0.000000000000D+00  6 2 -2 25 1 -1 21 2 0.23588926D+00 0.15204592D+00 0.29144270D+06 0.29144270D+06 0.29144270D+06 0.10854829D+01  1  2 13  1  6  1        2 -.337344932950D-09 0.100000000000D+01
-.130226903643D-01 0.000000000000D+00 0.000000000000D+00 0.885219460135D-04 0.000000000000D+00  6 2 -2 25 1 -1 21 2 0.23930410D+00 0.15204592D+00 0.29144270D+06 0.29144270D+06 0.29144270D+06 0.10854829D+01  1  2 13  1  6  1        2 -.661350394054D-02 0.100000000000D+01
0.838238597725D-02 0.000000000000D+00 0.000000000000D+00 0.885219460135D-04 0.160200775113D-04  6 2 -2 25 1 -1 21 2 0.23588603D+00 0.15205098D+00 0.29144270D+06 0.29144270D+06 0.29144270D+06 0.10854829D+01  1  2  1  1  6  1        2 0.437762153416D-02 0.100000000000D+01
  </mgrwgt>
  </event>
  <event>
  5     66 0.18881543E-05 0.15058957E+02 0.75467711E-02 0.93582855E-01
        2 -1    0    0  502    0 0.00000000E+00 0.00000000E+00 0.38780145E+04 0.38780145E+04 0.32000000E+00 0.0000E+00 0.9000E+01
       -2 -1    0    0    0  501 0.00000000E+00 0.00000000E+00 -.13771355E+03 0.13771392E+03 0.32000000E+00 0.0000E+00 0.9000E+01
       25  1    1    2    0    0 0.44735171E+03 0.19752368E+03 0.17295847E+04 0.18017290E+04 0.12500000E+03 0.0000E+00 0.9000E+01
        1  1    1    2  502    0 0.86557527E+01 0.12334861E+02 0.14923032E+04 0.14923793E+04 0.32000000E+00 0.0000E+00 0.9000E+01
       -1  1    1    2    0  501 -.45600746E+03 -.20985854E+03 0.51841305E+03 0.72162012E+03 0.32000000E+00 0.0000E+00 0.9000E+01
#aMCatNLO 1  0  0  1  4 0.99928250D+01 0.00000000D+00  -5  6  0 0.00000000D+00 0.00000000D+00 0.00000000D+00 0.00000000D+00 0.00000000D+00
  <mgrwgt>
 0.2974930932D-01    7    2    0
 0.730791296812597D+03 0.000000000000000D+00 0.000000000000000D+00 0.730791296812597D+03
 0.730791296812597D+03 0.000000000000000D+00 0.000000000000000D+00 -.730791296812597D+03
 0.524288979492224D+03 0.447451767633713D+03 0.197573342058831D+03 0.141441239269766D+03
 0.281240414550510D+03 0.865005800464309D+01 0.123267460736322D+02 0.280836960894208D+03
 0.656053199582460D+03 -.456101825638356D+03 -.209900088132463D+03 -.422278200163975D+03
 0.000000000000000D+00 -.000000000000000D+00 0.000000000000000D+00 0.000000000000000D+00
 0.120256068848710D+04 0.000000000000000D+00 0.000000000000000D+00 0.120256068848710D+04
 0.734366325038935D+03 0.000000000000000D+00 0.000000000000000D+00 -.734366325038935D+03
 0.540473811217042D+03 0.470897430598383D+03 0.186378449132801D+03 0.141441239269766D+03
 0.281697327189895D+03 0.210457283624949D+02 0.640803084635866D+01 0.280836960894208D+03
 0.641152965228474D+03 -.427537849885981D+03 -.223538885660663D+03 -.422278200163975D+03
 0.473602909890623D+03 -.644053090748972D+02 0.307524056815039D+02 0.468194363448165D+03
0.132403873649D-02 0.000000000000D+00 0.000000000000D+00 0.269151330435D-04 0.000000000000D+00  6 2 -2 25 1 -1 21 0 0.59661764D+00 0.21186730D-01 0.26111657D+06 0.26111657D+06 0.26111657D+06 0.10890405D+01  1  2  2  1  6  1        2 0.132166835751D-02 0.100000000000D+01
0.942771827278D-03 0.000000000000D+00 -.508465737554D-05 0.269151330435D-04 0.000000000000D+00  6 2 -2 25 1 -1 21 2 0.59661764D+00 0.21186730D-01 0.26111657D+06 0.26111657D+06 0.26111657D+06 0.10890405D+01  1  2  3  1  6  1        2 0.111613436958D-02 0.100000000000D+01
-.925469718112D-03 0.000000000000D+00 0.000000000000D+00 0.269151330435D-04 0.000000000000D+00  6 2 -2 25 1 -1 21 2 0.59661764D+00 0.21186730D-01 0.26111657D+06 0.26111657D+06 0.26111657D+06 0.10890405D+01  1  2 15  1  6  1        2 -.109565064472D-02 0.100000000000D+01
-.378803791752D-03 0.000000000000D+00 0.000000000000D+00 0.269151330435D-04 0.000000000000D+00  6 2 -2 25 1 -1 21 2 0.59661764D+00 0.21186730D-01 0.26111657D+06 0.26111657D+06 0.26111657D+06 0.10890405D+01  1  2  4  1  6  1        2 -.448460506633D-03 0.100000000000D+01
-.224797613034D-01 0.000000000000D+00 -.420022228896D-03 0.269151330435D-04 0.000000000000D+00  6 2 -2 25 1 -1 21 2 0.98180308D+00 0.21186730D-01 0.26111657D+06 0.26111657D+06 0.26111657D+06 0.10890405D+01  1  2  5  1  6  1        2 -.198760416704D-06 0.100000000000D+01
0.243738134524D-01 0.000000000000D+00 0.450663938180D-03 0.269151330435D-04 0.000000000000D+00  6 2 -2 25 1 -1 21 2 0.59661764D+00 0.21186730D-01 0.26111657D+06 0.26111657D+06 0.26111657D+06 0.10890405D+01  1  2  6  1  6  1        2 0.288558165663D-01 0.100000000000D+01
-.124481638509D-02 0.000000000000D+00 -.236111899759D-04 0.269151330435D-04 0.000000000000D+00  6 21 -2 25 1 -1 -2 2 0.98180308D+00 0.21186730D-01 0.26111657D+06 0.26111657D+06 0.26111657D+06 0.10890405D+01  1  2  5  5  6  1        2 -.567275981567D-10 0.100000000000D+01
  </mgrwgt>
  </event>
  <event>
  5     66 0.18881543E-05 0.28710065E+03 0.75467711E-02 0.90303976E-01
        2 -1    0    0  502    0 0.00000000E+00 0.00000000E+00 0.25385751E+04 0.25385751E+04 0.32000000E+00 0.0000E+00 0.9000E+01
       -2 -1    0    0    0  501 0.00000000E+00 0.00000000E+00 -.86830019E+03 0.86830025E+03 0.32000000E+00 0.0000E+00 0.9000E+01
       25  1    1    2    0    0 0.69365503E+03 -.62192600E+02 0.85237533E+03 0.11077879E+04 0.12500000E+03 0.0000E+00 0.9000E+01
        1  1    1    2  502    0 -.47964609E+03 -.12914355E+03 0.14887310E+04 0.15694135E+04 0.32000000E+00 0.0000E+00 0.9000E+01
       -1  1    1    2    0  501 -.21400894E+03 0.19133615E+03 -.67083143E+03 0.72967408E+03 0.32000000E+00 0.0000E+00 0.9000E+01
#aMCatNLO 1  0  0  4  1 0.55076061D+02 0.00000000D+00  -5  6  0 0.00000000D+00 0.00000000D+00 0.00000000D+00 0.00000000D+00 0.00000000D+00
  <mgrwgt>
 0.2228356932D-03    1    2    0
 0.148467012818629D+04 0.000000000000000D+00 0.000000000000000D+00 0.148467012818629D+04
 0.148467012818629D+04 -.000000000000000D+00 -.000000000000000D+00 -.148467012818629D+04
 0.791597270737523D+03 0.693627937060485D+03 -.622248045362138D+02 0.354978305912827D+03
 0.963142998537070D+03 -.479594683287664D+03 -.129129706214226D+03 0.825202335410057D+03
 0.121459998709798D+04 -.214033253772821D+03 0.191354510750440D+03 -.118018064132288D+04
 0.000000000000000D+00 0.000000000000000D+00 0.000000000000000D+00 -.000000000000000D+00
 0.148467012818629D+04 0.000000000000000D+00 0.000000000000000D+00 0.148467012818629D+04
 0.148467012818629D+04 -.000000000000000D+00 -.000000000000000D+00 -.148467012818629D+04
 0.809819984402385D+03 0.590613484571170D+03 -.899611962213273D+02 0.532227490979757D+03
 0.435792121182613D+03 0.414695015080624D+03 -.812138376516912D+02 0.106522907987001D+03
 0.101140553722914D+04 -.357225628896015D+03 0.152800310764273D+03 -.933800340451830D+03
 0.712322613558435D+03 -.648082870755779D+03 0.183747231087460D+02 0.295049941485072D+03
0.119006748592D-02 0.000000000000D+00 0.000000000000D+00 0.231948941124D-05 0.000000000000D+00  6 2 -2 25 1 -1 21 2 0.39055003D+00 0.13358465D+00 0.55600720D+06 0.55600720D+06 0.55600720D+06 0.10652667D+01  1  2 14  3  6  4        1 0.222835693198D-03 0.100000000000D+01
  </mgrwgt>
  </event>
  <event>
  5     66 0.18881543E-05 0.43987841E+02 0.75467711E-02 0.91319409E-01
        2 -1    0    0  502    0 0.00000000E+00 0.00000000E+00 0.98418992E+03 0.98418997E+03 0.32000000E+00 0.0000E+00 0.9000E+01
       -2 -1    0    0    0  501 0.00000000E+00 0.00000000E+00 -.10358027E+04 0.10358028E+04 0.32000000E+00 0.0000E+00 0.9000E+01
       25  1    1    2    0    0 0.26311094E+03 -.44198146E+03 -.20259562E+03 0.56678476E+03 0.12500000E+03 0.0000E+00 0.9000E+01
        1  1    1    2  502    0 0.35670716E+02 -.25748523E+02 0.68298376E+03 0.68439923E+03 0.32000000E+00 0.0000E+00 0.9000E+01
       -1  1    1    2    0  501 -.29878165E+03 0.46772998E+03 -.53200097E+03 0.76880878E+03 0.32000000E+00 0.0000E+00 0.9000E+01
#aMCatNLO 1  0  0  1  2 0.10482869D+03 0.00000000D+00  -5  6  0 0.00000000D+00 0.00000000D+00 0.00000000D+00 0.00000000D+00 0.00000000D+00
  <mgrwgt>
 0.8065683714D-02    7    2    0
 0.100966664092163D+04 0.000000000000000D+00 0.000000000000000D+00 0.100966664092163D+04
 0.100966664092163D+04 0.000000000000000D+00 0.000000000000000D+00 -.100966664092163D+04
 0.561848067128237D+03 0.263152854896729D+03 -.442046526155375D+03 -.188132119026503D+03
 0.701996532156860D+03 0.356665108279731D+02 -.257454874884617D+02 0.700617014523339D+03
 0.755488682558165D+03 -.298819365724702D+03 0.467792013643837D+03 -.512484895496836D+03
 0.000000000000000D+00 0.000000000000000D+00 0.000000000000000D+00 0.000000000000000D+00
 0.173521085496361D+04 0.000000000000000D+00 0.000000000000000D+00 0.173521085496361D+04
 0.102540017527372D+04 0.000000000000000D+00 0.000000000000000D+00 -.102540017527372D+04
 0.602356019265154D+03 0.259323039971095D+03 -.494535783008379D+03 -.188132119026503D+03
 0.706962692276642D+03 0.310315390645074D+02 -.892697642806925D+02 0.700617014523339D+03
 0.718284750120754D+03 -.303667553044643D+03 0.401345526163566D+03 -.512484895496836D+03
 0.733007568574782D+03 0.133129740090407D+02 0.182460021125505D+03 0.709810679689893D+03
0.137395378971D-02 0.000000000000D+00 0.000000000000D+00 0.430259627755D-04 0.000000000000D+00  6 2 -2 25 1 -1 21 0 0.15141384D+00 0.15935428D+00 0.31837237D+06 0.31837237D+06 0.31837237D+06 0.10826472D+01  1  2  2  1  6  1        2 0.110148271944D-02 0.100000000000D+01
0.698523020323D-03 0.000000000000D+00 -.527634432282D-05 0.430259627755D-04 0.000000000000D+00  6 2 -2 25 1 -1 21 2 0.15141384D+00 0.15935428D+00 0.31837237D+06 0.31837237D+06 0.31837237D+06 0.10826472D+01  1  2  3  1  6  1        2 0.656387315429D-03 0.100000000000D+01
-.100823212470D-02 0.000000000000D+00 0.000000000000D+00 0.430259627755D-04 0.000000000000D+00  6 2 -2 25 1 -1 21 2 0.15141384D+00 0.15935428D+00 0.31837237D+06 0.31837237D+06 0.31837237D+06 0.10826472D+01  1  2 15  1  6  1        2 -.947414413569D-03 0.100000000000D+01
-.227359264977D-03 0.000000000000D+00 0.000000000000D+00 0.430259627755D-04 0.000000000000D+00  6 2 -2 25 1 -1 21 2 0.15141384D+00 0.15935428D+00 0.31837237D+06 0.31837237D+06 0.31837237D+06 0.10826472D+01  1  2  4  1  6  1        2 -.213644694927D-03 0.100000000000D+01
-.158108964912D-01 0.000000000000D+00 -.874802942008D-03 0.430259627755D-04 0.000000000000D+00  6 2 -2 25 1 -1 21 2 0.26139939D+00 0.15935428D+00 0.31837237D+06 0.31837237D+06 0.31837237D+06 0.10826472D+01  1  2  5  1  6  1        2 -.581006571666D-02 0.100000000000D+01
0.142299547123D-01 0.000000000000D+00 0.758839511258D-03 0.430259627755D-04 0.000000000000D+00  6 2 -2 25 1 -1 21 2 0.15141384D+00 0.15935428D+00 0.31837237D+06 0.31837237D+06 0.31837237D+06 0.10826472D+01  1  2  6  1  6  1        2 0.133715876220D-01 0.100000000000D+01
-.914083559455D-03 0.000000000000D+00 -.529742873037D-04 0.430259627755D-04 0.000000000000D+00  6 21 -2 25 1 -1 -2 2 0.26139939D+00 0.15935428D+00 0.31837237D+06 0.31837237D+06 0.31837237D+06 0.10826472D+01  1  2  5  5  6  1        2 -.926491174299D-04 0.100000000000D+01
  </mgrwgt>
  </event>
  <event>
  6     66 0.18881543E-05 0.37232755E+02 0.75467711E-02 0.93635940E-01
        2 -1    0    0  502    0 0.00000000E+00 0.00000000E+00 0.90219775E+03 0.90219781E+03 0.32000000E+00 0.0000E+00 0.9000E+01
       -2 -1    0    0    0  501 0.00000000E+00 0.00000000E+00 -.74838790E+03 0.74838797E+03 0.32000000E+00 0.0000E+00 0.9000E+01
       25  1    1    2    0    0 -.21310182E+03 -.45754593E+03 -.19369845E+03 0.55489166E+03 0.12500000E+03 0.0000E+00 0.9000E+01
        1  1    1    2  503    0 0.32254700E+02 0.58985694E+01 0.50049178E+03 0.50156484E+03 0.32000000E+00 0.0000E+00 0.9000E+01
       -1  1    1    2    0  501 0.12974885E+03 0.46767267E+03 -.19799360E+03 0.52416988E+03 0.32000000E+00 0.0000E+00 0.9000E+01
       21  1    1    2  502  503 0.51098272E+02 -.16025312E+02 0.45010120E+02 0.69959399E+02 0.75000000E+00 0.0000E+00 0.9000E+01
#aMCatNLO 2  0  0  4  5 0.46500757D+02 0.00000000D+00  -5  6  0 0.00000000D+00 0.00000000D+00 0.00000000D+00 0.00000000D+00 0.00000000D+00
  <mgrwgt>
 0.2351642189D-02    3    2    0
 0.821701880882413D+03 0.000000000000000D+00 0.000000000000000D+00 0.821701880882413D+03
 0.821701880882413D+03 -.000000000000000D+00 -.000000000000000D+00 -.821701880882413D+03
 0.579205769971466D+03 -.214439195535193D+03 -.457692655503827D+03 -.253747095518971D+03
 0.515889665090127D+03 0.857488937977912D+02 -.104178290554151D+02 0.508606667865287D+03
 0.548308326703233D+03 0.128690301737402D+03 0.468110484559242D+03 -.254859572346317D+03
 0.000000000000000D+00 0.000000000000000D+00 -.000000000000000D+00 0.000000000000000D+00
 0.821701880882413D+03 0.000000000000000D+00 0.000000000000000D+00 0.821701880882413D+03
 0.821701880882413D+03 -.000000000000000D+00 -.000000000000000D+00 -.821701880882413D+03
 0.575613526247141D+03 -.213175228459029D+03 -.457846217752247D+03 -.246250064893535D+03
 0.456497999015092D+03 0.321605957530468D+02 0.591546040713672D+01 0.455325297467386D+03
 0.545203883540956D+03 0.129887167286547D+03 0.467965074628675D+03 -.247760544337058D+03
 0.660883529616378D+02 0.511274654194350D+02 -.160343172835647D+02 0.386853117632064D+02
-.201824363117D-07 0.000000000000D+00 0.000000000000D+00 0.343382495052D-05 0.000000000000D+00  6 2 -2 25 1 -1 21 2 0.13879966D+00 0.11513661D+00 0.29823596D+06 0.29823596D+06 0.29823596D+06 0.10847414D+01  1  2 13  3  6  4        1 -.513093036192D-07 0.100000000000D+01
-.255153490287D-04 0.000000000000D+00 0.000000000000D+00 0.343382495052D-05 0.000000000000D+00  6 2 -2 25 1 -1 21 2 0.13879966D+00 0.11513661D+00 0.29840100D+06 0.29840100D+06 0.29840100D+06 0.10847236D+01  1  2  8  3  6  4        1 -.648632585281D-04 0.100000000000D+01
0.950548914148D-03 0.000000000000D+00 0.000000000000D+00 0.343382495052D-05 0.204819434129D-08  6 2 -2 25 1 -1 21 2 0.13879966D+00 0.11513661D+00 0.29823596D+06 0.29823596D+06 0.29823596D+06 0.10847414D+01  1  2  1  3  6  4        1 0.241655675696D-02 0.100000000000D+01
  </mgrwgt>
  </event>
  <event>
  5     66 -.18881543E-05 0.33156406E+02 0.75467711E-02 0.93025719E-01
        2 -1    0    0  502    0 0.00000000E+00 0.00000000E+00 0.70559070E+03 0.70559077E+03 0.32000000E+00 0.0000E+00 0.9000E+01
       -2 -1    0    0    0  501 -.00000000E+00 -.00000000E+00 -.11241591E+04 0.11241591E+04 0.32000000E+00 0.0000E+00 0.9000E+01
       25  1    1    2    0    0 -.48308386E+03 0.29366646E+03 -.26795923E+03 0.63799463E+03 0.12500000E+03 0.0000E+00 0.9000E+01
        1  1    1    2  502    0 0.83322011E+01 -.32100262E+02 0.41035879E+03 0.41169684E+03 0.32000000E+00 0.0000E+00 0.9000E+01
       -1  1    1    2    0  501 0.47475166E+03 -.26156619E+03 -.56096796E+03 0.78005844E+03 0.32000000E+00 0.0000E+00 0.9000E+01
#aMCatNLO 1  0  0  4  5 0.46500757D+02 0.00000000D+00  -5  6  0 0.00000000D+00 0.00000000D+00 0.00000000D+00 0.00000000D+00 0.00000000D+00
  <mgrwgt>
 -.4138322648D-02    1    2    0
 0.890615691789712D+03 0.000000000000000D+00 0.000000000000000D+00 0.890615691789712D+03
 0.890615691789712D+03 -.000000000000000D+00 -.000000000000000D+00 -.890615691789712D+03
 0.592471132282821D+03 -.483161311711589D+03 0.293706804531520D+03 -.125253752141438D+03
 0.519221071183456D+03 0.833028768176238D+01 -.320928899092292D+02 0.518161339242237D+03
 0.669539180113147D+03 0.474831024029827D+03 -.261613914622291D+03 -.392907587100799D+03
 0.000000000000000D+00 -.000000000000000D+00 0.000000000000000D+00 0.000000000000000D+00
 0.890615691789712D+03 0.000000000000000D+00 0.000000000000000D+00 0.890615691789712D+03
 0.890615691789712D+03 -.000000000000000D+00 -.000000000000000D+00 -.890615691789712D+03
 0.576760656969725D+03 -.481804799801114D+03 0.288480768040756D+03 -.408758704784872D+02
 0.170782374308608D+03 0.822074671070058D+02 -.143070817892226D+03 -.440374022165905D+02
 0.623030086896296D+03 0.476330628831826D+03 -.267391224321123D+03 -.299629027917413D+03
 0.410658265404795D+03 -.767332961377181D+02 0.121981274172592D+03 0.384542300612491D+03
-.361551262988D-02 0.000000000000D+00 0.000000000000D+00 0.252325005605D-04 0.000000000000D+00  6 2 -2 25 1 -1 21 2 0.10855242D+00 0.17294756D+00 0.33314114D+06 0.33314114D+06 0.33314114D+06 0.10812010D+01  1  2 14  3  6  4        1 -.413832264775D-02 0.100000000000D+01
  </mgrwgt>
  </event>
  <event>
  5     66 0.18881543E-05 0.76202811E+02 0.75467711E-02 0.93741179E-01
        2 -1    0    0  502    0 0.00000000E+00 0.00000000E+00 0.90147403E+03 0.90147409E+03 0.32000000E+00 0.0000E+00 0.9000E+01
       -2 -1    0    0    0  501 0.00000000E+00 0.00000000E+00 -.53066602E+03 0.53066611E+03 0.32000000E+00 0.0000E+00 0.9000E+01
       25  1    1    2    0    0 -.43054930E+03 -.30648325E+03 0.23257794E+03 0.59078100E+03 0.12500000E+03 0.0000E+00 0.9000E+01
        1  1    1    2  502    0 0.49003215E+02 0.58425774E+02 0.33644099E+03 0.34497468E+03 0.32000000E+00 0.0000E+00 0.9000E+01
       -1  1    1    2    0  501 0.38154609E+03 0.24805748E+03 -.19821092E+03 0.49638453E+03 0.32000000E+00 0.0000E+00 0.9000E+01
#aMCatNLO 1  0  0  1  4 0.62795501D+01 0.00000000D+00  -5  6  0 0.00000000D+00 0.00000000D+00 0.00000000D+00 0.00000000D+00 0.00000000D+00
  <mgrwgt>
 0.2533704549D-02   13    2    0
 0.691651460739266D+03 0.000000000000000D+00 0.000000000000000D+00 0.691651460739266D+03
 0.691651460739266D+03 0.000000000000000D+00 0.000000000000000D+00 -.691651460739266D+03
 0.549385096265553D+03 -.430612355785539D+03 -.306512330319330D+03 0.825964551645717D+02
 0.266783311332200D+03 0.489694192452942D+02 0.583854806160514D+02 0.255668666123529D+03
 0.567134513880780D+03 0.381642936540245D+03 0.248126849703279D+03 -.338265121288101D+03
 0.000000000000000D+00 -.000000000000000D+00 -.000000000000000D+00 0.000000000000000D+00
 0.763063633973026D+03 0.000000000000000D+00 0.000000000000000D+00 0.763063633973026D+03
 0.691796647353723D+03 0.000000000000000D+00 0.000000000000000D+00 -.691796647353723D+03
 0.547267534507863D+03 -.428145558813388D+03 -.306179621119587D+03 0.825964551645717D+02
 0.267041790597998D+03 0.501701988797450D+02 0.585474357488641D+02 0.255668666123529D+03
 0.569007849413730D+03 0.384198561232205D+03 0.248471539540224D+03 -.338265121288101D+03
 0.715431068071574D+02 -.622320129856168D+01 -.839354169500981D+00 0.712669866193040D+02
0.305037715455D-05 0.000000000000D+00 0.000000000000D+00 0.227656319711D-05 0.000000000000D+00  6 2 -2 25 1 -1 21 0 0.13868832D+00 0.81640937D-01 0.28866756D+06 0.28866756D+06 0.28866756D+06 0.10857913D+01  1  2  2  1  6  1        2 0.150354347415D-04 0.100000000000D+01
0.587883552574D-06 0.000000000000D+00 -.117142514562D-07 0.227656319711D-05 0.000000000000D+00  6 2 -2 25 1 -1 21 2 0.13868832D+00 0.81640937D-01 0.28866756D+06 0.28866756D+06 0.28866756D+06 0.10857913D+01  1  2  3  1  6  1        2 0.341622506468D-05 0.100000000000D+01
-.204035002618D-05 0.000000000000D+00 0.000000000000D+00 0.227656319711D-05 0.000000000000D+00  6 2 -2 25 1 -1 21 2 0.13868832D+00 0.81640937D-01 0.28866756D+06 0.28866756D+06 0.28866756D+06 0.10857913D+01  1  2 15  1  6  1        2 -.118565911049D-04 0.100000000000D+01
0.325280656039D-07 0.000000000000D+00 0.000000000000D+00 0.227656319711D-05 0.000000000000D+00  6 2 -2 25 1 -1 21 2 0.15302142D+00 0.81640937D-01 0.29264056D+06 0.29264056D+06 0.29264056D+06 0.10853508D+01  1  2 12  1  6  1        2 0.164657992015D-06 0.100000000000D+01
0.135056239441D-02 0.000000000000D+00 0.000000000000D+00 0.227656319711D-05 0.000000000000D+00  6 2 -2 25 1 -1 21 2 0.15488369D+00 0.81640937D-01 0.29264056D+06 0.29264056D+06 0.29264056D+06 0.10853508D+01  1  2 12  1  6  1        2 0.671927588283D-02 0.100000000000D+01
-.107456680449D-02 0.000000000000D+00 0.000000000000D+00 0.227656319711D-05 0.000000000000D+00  6 2 -2 25 1 -1 21 2 0.13868832D+00 0.81640937D-01 0.28866756D+06 0.28866756D+06 0.28866756D+06 0.10857913D+01  1  2  4  1  6  1        2 -.624436937398D-02 0.100000000000D+01
-.183327176444D-02 0.000000000000D+00 -.771889677519D-05 0.227656319711D-05 0.000000000000D+00  6 2 -2 25 1 -1 21 2 0.15302071D+00 0.81640937D-01 0.28866756D+06 0.28866756D+06 0.28866756D+06 0.10857913D+01  1  2  5  1  6  1        2 -.929285550803D-02 0.100000000000D+01
0.182523449151D-02 0.000000000000D+00 0.768171967871D-05 0.227656319711D-05 0.000000000000D+00  6 2 -2 25 1 -1 21 2 0.13868832D+00 0.81640937D-01 0.28866756D+06 0.28866756D+06 0.28866756D+06 0.10857913D+01  1  2  6  1  6  1        2 0.106065423867D-01 0.100000000000D+01
0.147576799315D-03 0.000000000000D+00 0.000000000000D+00 0.227656319711D-05 0.216051613441D-06  6 2 -2 25 1 -1 21 2 0.15300773D+00 0.81658075D-01 0.29264056D+06 0.29264056D+06 0.29264056D+06 0.10853508D+01  1  2 11  1  6  1        2 0.746778278007D-03 0.100000000000D+01
0.523070932711D-09 0.000000000000D+00 0.000000000000D+00 0.227656319711D-05 0.000000000000D+00  6 21 -2 25 1 -1 -2 2 0.15302142D+00 0.81640937D-01 0.29264056D+06 0.29264056D+06 0.29264056D+06 0.10853508D+01  1  2 12  5  6  1        2 0.186178946461D-08 0.100000000000D+01
0.239928946577D-04 0.000000000000D+00 0.000000000000D+00 0.227656319711D-05 0.000000000000D+00  6 21 -2 25 1 -1 -2 2 0.15488369D+00 0.81640937D-01 0.29264056D+06 0.29264056D+06 0.29264056D+06 0.10853508D+01  1  2 12  5  6  1        2 0.823462276254D-04 0.100000000000D+01
-.294336335498D-04 0.000000000000D+00 -.123575187272D-06 0.227656319711D-05 0.000000000000D+00  6 21 -2 25 1 -1 -2 2 0.15302071D+00 0.81640937D-01 0.28866756D+06 0.28866756D+06 0.28866756D+06 0.10857913D+01  1  2  5  5  6  1        2 -.104973566974D-03 0.100000000000D+01
0.398993954296D-05 0.000000000000D+00 0.000000000000D+00 0.227656319711D-05 0.548060703825D-08  6 21 -2 25 1 -1 -2 2 0.15300773D+00 0.81658075D-01 0.29264056D+06 0.29264056D+06 0.29264056D+06 0.10853508D+01  1  2 11  5  6  1        2 0.141986343907D-04 0.100000000000D+01
  </mgrwgt>
  </event>
  <event>
  5     66 0.18881543E-05 0.28969099E+02 0.75467711E-02 0.92976408E-01
        2 -1    0    0  502    0 0.00000000E+00 0.00000000E+00 0.11421295E+04 0.11421296E+04 0.32000000E+00 0.0000E+00 0.9000E+01
       -2 -1    0    0    0  501 0.00000000E+00 0.00000000E+00 -.55675171E+03 0.55675180E+03 0.32000000E+00 0.0000E+00 0.9000E+01
       25  1    1    2    0    0 0.52774702E+03 0.13963178E+03 0.53008942E+03 0.77112498E+03 0.12500000E+03 0.0000E+00 0.9000E+01
        1  1    1    2  502    0 -.54422649E+03 -.16345141E+03 0.32625805E+03 0.65524289E+03 0.32000000E+00 0.0000E+00 0.9000E+01
       -1  1    1    2    0  501 0.16479467E+02 0.23819629E+02 -.27096965E+03 0.27251349E+03 0.32000000E+00 0.0000E+00 0.9000E+01
#aMCatNLO 1  0  0  5  2 0.63594831D+01 0.00000000D+00  -5  6  0 0.00000000D+00 0.00000000D+00 0.00000000D+00 0.00000000D+00 0.00000000D+00
  <mgrwgt>
 0.1095264678D-01    9    2    0
 0.797422519605601D+03 0.000000000000000D+00 0.000000000000000D+00 0.797422519605601D+03
 0.797422519605601D+03 -.000000000000000D+00 -.000000000000000D+00 -.797422519605601D+03
 0.626844566469969D+03 0.527680435010937D+03 0.139608705808508D+03 0.281730151531683D+03
 0.578167053440705D+03 -.544162328719756D+03 -.163432137119730D+03 0.107025409333846D+03
 0.389833419300528D+03 0.164818937088186D+02 0.238234313112224D+02 -.388755560865529D+03
 0.000000000000000D+00 0.000000000000000D+00 0.000000000000000D+00 0.000000000000000D+00
 0.797422519605601D+03 0.000000000000000D+00 0.000000000000000D+00 0.797422519605601D+03
 0.797422519605601D+03 -.000000000000000D+00 -.000000000000000D+00 -.797422519605601D+03
 0.626806433149788D+03 0.527684476414048D+03 0.139614547375691D+03 0.281634827659281D+03
 0.578145752868577D+03 -.544158601106430D+03 -.163426749113862D+03 0.106937486766529D+03
 0.120335326491498D+03 0.669482534289006D+01 0.120015284643373D+01 -.120142955468012D+03
 0.269557526701340D+03 0.977929934949247D+01 0.226120488917378D+02 -.268429358957798D+03
0.332307242132D-04 0.000000000000D+00 0.000000000000D+00 0.442039259029D-05 0.000000000000D+00  6 2 -2 25 1 -1 21 0 0.17571224D+00 0.85654119D-01 0.33472604D+06 0.33472604D+06 0.33472604D+06 0.10810500D+01  1  2  2  4  6  5       -1 0.103597422515D-03 0.100000000000D+01
0.183419632786D-04 0.000000000000D+00 -.127614730829D-06 0.442039259029D-05 0.000000000000D+00  6 2 -2 25 1 -1 21 2 0.17571224D+00 0.85654119D-01 0.33472604D+06 0.33472604D+06 0.33472604D+06 0.10810500D+01  1  2  3  4  6  5       -1 0.668261637787D-04 0.100000000000D+01
-.254453389538D-04 0.000000000000D+00 0.000000000000D+00 0.442039259029D-05 0.000000000000D+00  6 2 -2 25 1 -1 21 2 0.17571224D+00 0.85654119D-01 0.33472604D+06 0.33472604D+06 0.33472604D+06 0.10810500D+01  1  2 15  4  6  5       -1 -.927062366496D-04 0.100000000000D+01
0.103760952497D-07 0.000000000000D+00 0.000000000000D+00 0.442039259029D-05 0.000000000000D+00  6 2 -2 25 1 -1 21 2 0.17571224D+00 0.85654119D-01 0.33615586D+06 0.33615586D+06 0.33615586D+06 0.10809144D+01  1  2 12  4  6  5       -1 0.377869838149D-07 0.100000000000D+01
0.197238350963D-02 0.000000000000D+00 0.000000000000D+00 0.442039259029D-05 0.000000000000D+00  6 2 -2 25 1 -1 21 2 0.17571224D+00 0.85654119D-01 0.33615586D+06 0.33615586D+06 0.33615586D+06 0.10809144D+01  1  2 12  4  6  5       -1 0.718289703031D-02 0.100000000000D+01
-.126792587336D-02 0.000000000000D+00 0.000000000000D+00 0.442039259029D-05 0.000000000000D+00  6 2 -2 25 1 -1 21 2 0.17571224D+00 0.85654119D-01 0.33472604D+06 0.33472604D+06 0.33472604D+06 0.10810500D+01  1  2  4  4  6  5       -1 -.461949578599D-02 0.100000000000D+01
-.244932859862D-02 0.000000000000D+00 0.000000000000D+00 0.442039259029D-05 0.000000000000D+00  6 2 -2 25 1 -1 21 2 0.17571224D+00 0.85654119D-01 0.33472604D+06 0.33472604D+06 0.33472604D+06 0.10810500D+01  1  2  5  4  6  5       -1 -.892375759304D-02 0.100000000000D+01
0.454252131498D-02 0.000000000000D+00 -.000000000000D+00 0.442039259029D-05 0.000000000000D+00  6 2 -2 25 1 -1 21 2 0.17571224D+00 0.85654119D-01 0.33472604D+06 0.33472604D+06 0.33472604D+06 0.10810500D+01  1  2  6  4  6  5       -1 0.165499880657D-01 0.100000000000D+01
0.188168557632D-03 0.000000000000D+00 0.000000000000D+00 0.442039259029D-05 0.704615703440D-07  6 2 -2 25 1 -1 21 2 0.17571224D+00 0.85654119D-01 0.33615586D+06 0.33615586D+06 0.33615586D+06 0.10809144D+01  1  2 11  4  6  5       -1 0.685259923953D-03 0.100000000000D+01
  </mgrwgt>
  </event>
  <event>
  5     66 0.18881543E-05 0.11563393E+02 0.75467711E-02 0.93114507E-01
        2 -1    0    0  502    0 0.00000000E+00 0.00000000E+00 0.11858604E+04 0.11858604E+04 0.32000000E+00 0.0000E+00 0.9000E+01
       -2 -1    0    0    0  501 0.00000000E+00 0.00000000E+00 -.84761814E+03 0.84761820E+03 0.32000000E+00 0.0000E+00 0.9000E+01
       25  1    1    2    0    0 0.34189337E+03 0.45058689E+03 0.84602988E+03 0.10253347E+04 0.12500000E+03 0.0000E+00 0.9000E+01
        1  1    1    2  502    0 -.78303996E+01 -.85431572E+01 0.14866418E+03 0.14911554E+03 0.32000000E+00 0.0000E+00 0.9000E+01
       -1  1    1    2    0  501 -.33406297E+03 -.44204373E+03 -.65645182E+03 0.85902842E+03 0.32000000E+00 0.0000E+00 0.9000E+01
#aMCatNLO 1  0  0  4  5 0.53353876D+01 0.00000000D+00  -5  6  0 0.00000000D+00 0.00000000D+00 0.00000000D+00 0.00000000D+00 0.00000000D+00
  <mgrwgt>
 0.1551958026D-02    7    2    0
 0.100257512106278D+04 0.000000000000000D+00 0.000000000000000D+00 0.100257512106278D+04
 0.100257512106278D+04 -.000000000000000D+00 -.000000000000000D+00 -.100257512106278D+04
 0.897345745387474D+03 0.341931282951648D+03 0.450640626823934D+03 0.685281263394654D+03
 0.125867380093854D+03 -.781322035945447D+01 -.852441423289947D+01 0.125335092138201D+03
 0.981937116644222D+03 -.334118062592194D+03 -.442116212591035D+03 -.810616355532855D+03
 0.000000000000000D+00 0.000000000000000D+00 0.000000000000000D+00 0.000000000000000D+00
 0.100257512106278D+04 0.000000000000000D+00 0.000000000000000D+00 0.100257512106278D+04
 0.100257512106278D+04 -.000000000000000D+00 -.000000000000000D+00 -.100257512106278D+04
 0.897685449740777D+03 0.341901283490363D+03 0.450607896679001D+03 0.685762497133278D+03
 0.154495722670965D+02 -.986196576197178D+00 -.630398408655643D+01 0.140704116565855D+02
 0.981529910001431D+03 -.334150877037542D+03 -.442152013952330D+03 -.810089965473192D+03
 0.110485310116246D+03 -.676420987662398D+01 -.215189864011448D+01 0.110257056683328D+03
0.185599763348D-03 0.000000000000D+00 0.000000000000D+00 0.326739848655D-04 0.000000000000D+00  6 2 -2 25 1 -1 21 0 0.18244007D+00 0.13040280D+00 0.32778900D+06 0.32778900D+06 0.32778900D+06 0.10817169D+01  1  2  2  3  6  4        1 0.193953961760D-03 0.100000000000D+01
0.980210378051D-04 0.000000000000D+00 -.712751960798D-06 0.326739848655D-04 0.000000000000D+00  6 2 -2 25 1 -1 21 2 0.18244007D+00 0.13040280D+00 0.32778900D+06 0.32778900D+06 0.32778900D+06 0.10817169D+01  1  2  3  3  6  4        1 0.119858199039D-03 0.100000000000D+01
-.122687361029D-03 0.000000000000D+00 0.000000000000D+00 0.326739848655D-04 0.000000000000D+00  6 2 -2 25 1 -1 21 2 0.18244007D+00 0.13040280D+00 0.32778900D+06 0.32778900D+06 0.32778900D+06 0.10817169D+01  1  2 15  3  6  4        1 -.150019694415D-03 0.100000000000D+01
0.116732765297D-09 0.000000000000D+00 0.000000000000D+00 0.326739848655D-04 0.000000000000D+00  6 2 -2 25 1 -1 21 2 0.18244007D+00 0.13040280D+00 0.32888958D+06 0.32888958D+06 0.32888958D+06 0.10816101D+01  1  2 12  3  6  4        1 0.142683931170D-09 0.100000000000D+01
-.119346300155D-03 0.000000000000D+00 0.000000000000D+00 0.326739848655D-04 0.000000000000D+00  6 2 -2 25 1 -1 21 2 0.18244007D+00 0.13040280D+00 0.32778900D+06 0.32778900D+06 0.32778900D+06 0.10817169D+01  1  2  4  3  6  4        1 -.145934310826D-03 0.100000000000D+01
-.373281805249D-03 0.000000000000D+00 0.000000000000D+00 0.326739848655D-04 0.000000000000D+00  6 2 -2 25 1 -1 21 2 0.18244007D+00 0.13040280D+00 0.32778900D+06 0.32778900D+06 0.32778900D+06 0.10817169D+01  1  2  5  3  6  4        1 -.456441656943D-03 0.100000000000D+01
0.162788139556D-02 0.000000000000D+00 -.000000000000D+00 0.326739848655D-04 0.000000000000D+00  6 2 -2 25 1 -1 21 2 0.18244007D+00 0.13040280D+00 0.32778900D+06 0.32778900D+06 0.32778900D+06 0.10817169D+01  1  2  6  3  6  4        1 0.199054138468D-02 0.100000000000D+01
  </mgrwgt>
  </event>
  <event>
  5     66 0.18881543E-05 0.31346984E+03 0.75467711E-02 0.85446125E-01
        2 -1    0    0  502    0 0.00000000E+00 0.00000000E+00 0.23089381E+04 0.23089381E+04 0.32000000E+00 0.0000E+00 0.9000E+01
       -2 -1    0    0    0  501 0.00000000E+00 0.00000000E+00 -.70568892E+03 0.70568899E+03 0.32000000E+00 0.0000E+00 0.9000E+01
       25  1    1    2    0    0 0.65828837E+03 -.27018375E+03 0.15999570E+03 0.73997734E+03 0.12500000E+03 0.0000E+00 0.9000E+01
        1  1    1    2  502    0 -.30986927E+03 0.47495501E+02 0.17385131E+04 0.17665511E+04 0.32000000E+00 0.0000E+00 0.9000E+01
       -1  1    1    2    0  501 -.34841910E+03 0.22268825E+03 -.29525963E+03 0.50809869E+03 0.32000000E+00 0.0000E+00 0.9000E+01
#aMCatNLO 1  0  0  2  2 0.10914926D+04 0.00000000D+00  -5  6  0 0.00000000D+00 0.00000000D+00 0.00000000D+00 0.00000000D+00 0.00000000D+00
  <mgrwgt>
 0.1036729065D-02    3    2    0
 0.127647647129610D+04 0.000000000000000D+00 0.000000000000000D+00 0.127647647129610D+04
 0.127647647129610D+04 0.000000000000000D+00 0.000000000000000D+00 -.127647647129610D+04
 0.773315998536936D+03 0.658316440338770D+03 -.270205814209493D+03 -.275682636269051D+03
 0.994172325969181D+03 -.309851226315957D+03 0.474927358633772D+02 0.943459204901664D+03
 0.785464618086082D+03 -.348465214022813D+03 0.222713078346115D+03 -.667776568632613D+03
 0.000000000000000D+00 -.000000000000000D+00 0.000000000000000D+00 0.000000000000000D+00
 0.301193763639938D+04 0.000000000000000D+00 0.000000000000000D+00 0.301193763639938D+04
 0.157168093695842D+04 0.000000000000000D+00 0.000000000000000D+00 -.157168093695842D+04
 0.114515191334720D+04 0.101745182101230D+04 -.429579772127674D+03 -.275682636269051D+03
 0.951901310916086D+03 0.544519199978706D+02 -.114174527888786D+03 0.943459204901664D+03
 0.679441829315128D+03 -.742361110080770D+02 0.101018085661613D+03 -.667776568632613D+03
 0.180712351977938D+04 -.997667630002093D+03 0.442736214354848D+03 0.144025669944095D+04
0.615013475811D-02 0.000000000000D+00 0.000000000000D+00 0.132339521074D-05 0.000000000000D+00  6 2 -2 25 1 -1 21 0 0.35522125D+00 0.10856753D+00 0.52528703D+06 0.52528703D+06 0.52528703D+06 0.10669994D+01  1  2  2  2  6  2       -2 0.236126324768D-02 0.100000000000D+01
0.559784612082D-03 0.000000000000D+00 -.236181368388D-04 0.132339521074D-05 0.000000000000D+00  6 2 -2 25 1 -1 21 2 0.35522125D+00 0.10856753D+00 0.52528703D+06 0.52528703D+06 0.52528703D+06 0.10669994D+01  1  2  3  2  6  2       -2 0.244685960298D-03 0.100000000000D+01
-.359001099948D-02 0.000000000000D+00 0.000000000000D+00 0.132339521074D-05 0.000000000000D+00  6 2 -2 25 1 -1 21 2 0.35522125D+00 0.10856753D+00 0.52528703D+06 0.52528703D+06 0.52528703D+06 0.10669994D+01  1  2 15  2  6  2       -2 -.156922014276D-02 0.100000000000D+01
  </mgrwgt>
  </event>
  <event>
  6     66 0.18881543E-05 0.80786530E+02 0.75467711E-02 0.91700245E-01
        2 -1    0    0  503    0 0.00000000E+00 0.00000000E+00 0.24515316E+04 0.24515316E+04 0.32000000E+00 0.0000E+00 0.9000E+01
       -2 -1    0    0    0  501 0.00000000E+00 0.00000000E+00 -.31933513E+03 0.31933529E+03 0.32000000E+00 0.0000E+00 0.9000E+01
       25  1    1    2    0    0 0.55720168E+03 -.30580667E+03 0.82677935E+03 0.10503240E+04 0.12500000E+03 0.0000E+00 0.9000E+01
        1  1    1    2  502    0 -.49480666E+03 0.22558541E+03 0.10993061E+04 0.12264568E+04 0.32000000E+00 0.0000E+00 0.9000E+01
       -1  1    1    2    0  501 -.69772261E+02 0.59563066E+02 -.12897952E+03 0.15827744E+03 0.32000000E+00 0.0000E+00 0.9000E+01
       21  1    1    2  503  502 0.73772353E+01 0.20658198E+02 0.33509052E+03 0.33580859E+03 0.75000000E+00 0.0000E+00 0.9000E+01
#aMCatNLO 2  0  0  1  4 0.21935924D+02 0.00000000D+00  -5  6  0 0.00000000D+00 0.00000000D+00 0.00000000D+00 0.00000000D+00 0.00000000D+00
  <mgrwgt>
 0.2249129598D-03    3    2    0
 0.821498328075092D+03 0.000000000000000D+00 0.000000000000000D+00 0.821498328075092D+03
 0.821498328075092D+03 0.000000000000000D+00 0.000000000000000D+00 -.821498328075092D+03
 0.650972232711894D+03 0.560091804928911D+03 -.297601680772586D+03 0.766176051225464D+02
 0.615847355539157D+03 -.491994640629917D+03 0.233302129744006D+03 0.287714016295563D+03
 0.376177067899134D+03 -.680971642989945D+02 0.642995510285797D+02 -.364331621418109D+03
 0.000000000000000D+00 0.000000000000000D+00 0.000000000000000D+00 0.000000000000000D+00
 0.951809015494718D+03 0.000000000000000D+00 0.000000000000000D+00 0.951809015494718D+03
 0.822495210382882D+03 0.000000000000000D+00 0.000000000000000D+00 -.822495210382882D+03
 0.652257266638508D+03 0.557166113574036D+03 -.305794385744452D+03 0.766176051225464D+02
 0.615177930082366D+03 -.494758236786672D+03 0.225563333942475D+03 0.287714016295563D+03
 0.375707888003295D+03 -.697851120598767D+02 0.595728535285895D+02 -.364331621418109D+03
 0.131161141153432D+03 0.737723527251223D+01 0.206581982733871D+02 0.129313805111836D+03
-.284121403932D-07 0.000000000000D+00 0.000000000000D+00 0.113025624865D-05 0.000000000000D+00  6 2 -2 25 1 -1 21 2 0.37733653D+00 0.49068886D-01 0.42587536D+06 0.42587536D+06 0.42587536D+06 0.10734707D+01  1  2 13  1  6  1        2 -.611470491438D-07 0.100000000000D+01
-.131668012428D-02 0.000000000000D+00 0.000000000000D+00 0.113025624865D-05 0.000000000000D+00  6 2 -2 25 1 -1 21 2 0.37818331D+00 0.49068886D-01 0.42587536D+06 0.42587536D+06 0.42587536D+06 0.10734707D+01  1  2 13  1  6  1        2 -.281298507951D-02 0.100000000000D+01
0.141280900736D-02 0.000000000000D+00 0.000000000000D+00 0.113025624865D-05 0.154846782304D-07  6 2 -2 25 1 -1 21 2 0.37715823D+00 0.49128431D-01 0.42587536D+06 0.42587536D+06 0.42587536D+06 0.10734707D+01  1  2  1  1  6  1        2 0.303795918635D-02 0.100000000000D+01
  </mgrwgt>
  </event>
  <event>
  6     66 0.18881543E-05 0.36171890E+02 0.75467711E-02 0.93866893E-01
        2 -1    0    0  502    0 0.00000000E+00 0.00000000E+00 0.23253864E+04 0.23253864E+04 0.32000000E+00 0.0000E+00 0.9000E+01
       -2 -1    0    0    0  503 0.00000000E+00 0.00000000E+00 -.35337069E+03 0.35337083E+03 0.32000000E+00 0.0000E+00 0.9000E+01
       25  1    1    2    0    0 0.12178352E+01 -.48280527E+03 0.20116264E+03 0.53776745E+03 0.12500000E+03 0.0000E+00 0.9000E+01
        1  1    1    2  502    0 -.27035706E+01 0.23242788E+02 0.13070539E+04 0.13072633E+04 0.32000000E+00 0.0000E+00 0.9000E+01
       -1  1    1    2    0  501 -.25713088E+02 0.49895289E+03 0.54507021E+03 0.73940299E+03 0.32000000E+00 0.0000E+00 0.9000E+01
       21  1    1    2  501  503 0.27198824E+02 -.39390402E+02 -.81271005E+02 0.94323478E+02 0.75000000E+00 0.0000E+00 0.9000E+01
#aMCatNLO 2  0  0  2  5 0.27968652D+02 0.00000000D+00  -5  6  0 0.00000000D+00 0.00000000D+00 0.00000000D+00 0.00000000D+00 0.00000000D+00
  <mgrwgt>
 0.1229074598D-01    1    2    0
 0.784381958811111D+03 0.000000000000000D+00 0.000000000000000D+00 0.784381958811111D+03
 0.784381958811111D+03 0.000000000000000D+00 0.000000000000000D+00 -.784381958811111D+03
 0.634827950165223D+03 0.121164512933305D+02 -.498675327218748D+03 -.372233308480462D+03
 0.442128714877531D+03 0.496459646240517D+01 0.121320334355274D+02 0.441934347008628D+03
 0.491807252579467D+03 -.170810477557357D+02 0.486543293783220D+03 -.697010385281658D+02
 0.000000000000000D+00 0.000000000000000D+00 -.000000000000000D+00 -.000000000000000D+00
 0.786955099108385D+03 0.000000000000000D+00 0.000000000000000D+00 0.786955099108385D+03
 0.104417964524909D+04 0.000000000000000D+00 0.000000000000000D+00 -.104417964524909D+04
 0.622392006822568D+03 0.122030947564802D+01 -.482895107719157D+03 -.372233308480462D+03
 0.442553043899814D+03 -.270281118060628D+01 0.232362735990692D+02 0.441934347008628D+03
 0.504549010760822D+03 -.257163220257236D+02 0.499049236317709D+03 -.697010385281658D+02
 0.261640682874272D+03 0.271988237306818D+02 -.393904021976204D+02 -.257224546140706D+03
0.565071082046D-02 0.000000000000D+00 0.000000000000D+00 0.747063674803D-05 0.139801916899D-07  6 2 -2 25 1 -1 21 2 0.35775152D+00 0.54364697D-01 0.28611023D+06 0.28611023D+06 0.28611023D+06 0.10860783D+01  1  2  1  2  6  2       -2 0.122907459808D-01 0.100000000000D+01
  </mgrwgt>
  </event>
  <event>
  5     66 0.18881543E-05 0.60504608E+02 0.75467711E-02 0.93729912E-01
        2 -1    0    0  502    0 0.00000000E+00 0.00000000E+00 0.49645743E+04 0.49645743E+04 0.32000000E+00 0.0000E+00 0.9000E+01
       -2 -1    0    0    0  501 0.00000000E+00 0.00000000E+00 -.11806224E+03 0.11806267E+03 0.32000000E+00 0.0000E+00 0.9000E+01
       25  1    1    2    0    0 -.47509452E+03 -.18101438E+03 0.32603640E+04 0.33021326E+04 0.12500000E+03 0.0000E+00 0.9000E+01
        1  1    1    2  502    0 -.52992741E+01 0.60360851E+02 0.10455512E+04 0.10473056E+04 0.32000000E+00 0.0000E+00 0.9000E+01
       -1  1    1    2    0  501 0.48039380E+03 0.12065353E+03 0.54059678E+03 0.73319878E+03 0.32000000E+00 0.0000E+00 0.9000E+01
#aMCatNLO 1  0  0  1  1 0.34412850D+01 0.00000000D+00  -5  6  0 0.00000000D+00 0.00000000D+00 0.00000000D+00 0.00000000D+00 0.00000000D+00
  <mgrwgt>
 0.3296802159D-02   10    2    0
 0.765591186782691D+03 0.000000000000000D+00 0.000000000000000D+00 0.765591186782691D+03
 0.765591186782691D+03 0.000000000000000D+00 0.000000000000000D+00 -.765591186782691D+03
 0.641616503093685D+03 -.475200460304290D+03 -.180967647251784D+03 0.370785612203215D+03
 0.166814694818080D+03 -.529154144683895D+01 0.602727727344691D+02 0.155455250356058D+03
 0.722751175653616D+03 0.480492001751129D+03 0.120694874517315D+03 -.526240862559273D+03
 0.000000000000000D+00 0.000000000000000D+00 -.000000000000000D+00 0.000000000000000D+00
 0.772751679992742D+03 0.000000000000000D+00 0.000000000000000D+00 0.772751679992742D+03
 0.766006696615128D+03 0.000000000000000D+00 0.000000000000000D+00 -.766006696615128D+03
 0.642100875891958D+03 -.476235268228130D+03 -.179962590279171D+03 0.370785612203215D+03
 0.166918025658513D+03 -.556056426233322D+01 0.605340610859357D+02 0.155455250356058D+03
 0.722167339100710D+03 0.479327249171748D+03 0.121826140208568D+03 -.526240862559273D+03
 0.757213595668850D+01 0.246858331871484D+01 -.239761101533309D+01 0.674498337761414D+01
0.154309414568D-02 0.000000000000D+00 0.000000000000D+00 0.219817277035D-05 0.000000000000D+00  6 2 -2 25 1 -1 21 0 0.76378069D+00 0.18163455D-01 0.29135962D+06 0.29135962D+06 0.29135962D+06 0.10854921D+01  1  2  2  1  6  1        2 0.168145264062D-03 0.100000000000D+01
0.268249365694D-03 0.000000000000D+00 -.592588782542D-05 0.219817277035D-05 0.000000000000D+00  6 2 -2 25 1 -1 21 2 0.76378069D+00 0.18163455D-01 0.29135962D+06 0.29135962D+06 0.29135962D+06 0.10854921D+01  1  2  3  1  6  1        2 0.344416753129D-04 0.100000000000D+01
-.101467922278D-02 0.000000000000D+00 0.000000000000D+00 0.219817277035D-05 0.000000000000D+00  6 2 -2 25 1 -1 21 2 0.76378069D+00 0.18163455D-01 0.29135962D+06 0.29135962D+06 0.29135962D+06 0.10854921D+01  1  2 15  1  6  1        2 -.130278974741D-03 0.100000000000D+01
-.708328697752D-02 0.000000000000D+00 0.000000000000D+00 0.219817277035D-05 0.000000000000D+00  6 2 -2 25 1 -1 21 2 0.76378069D+00 0.18163455D-01 0.29135962D+06 0.29135962D+06 0.29135962D+06 0.10854921D+01  1  2  4  1  6  1        2 -.909453297668D-03 0.100000000000D+01
-.182215514264D+00 0.000000000000D+00 -.107016615602D-01 0.219817277035D-05 0.000000000000D+00  6 2 -2 25 1 -1 21 2 0.77097232D+00 0.18163455D-01 0.29135962D+06 0.29135962D+06 0.29135962D+06 0.10854921D+01  1  2  5  1  6  1        2 -.203643043559D-01 0.100000000000D+01
0.185420843602D+00 0.000000000000D+00 0.110180595284D-01 0.219817277035D-05 0.000000000000D+00  6 2 -2 25 1 -1 21 2 0.76378069D+00 0.18163455D-01 0.29135962D+06 0.29135962D+06 0.29135962D+06 0.10854921D+01  1  2  6  1  6  1        2 0.238069695898D-01 0.100000000000D+01
0.619286115512D-02 0.000000000000D+00 0.000000000000D+00 0.219817277035D-05 0.238810954347D-06  6 2 -2 25 1 -1 21 2 0.77092425D+00 0.18173313D-01 0.29323396D+06 0.29323396D+06 0.29323396D+06 0.10852856D+01  1  2 11  1  6  1        2 0.691401330048D-03 0.100000000000D+01
0.111764930349D-09 0.000000000000D+00 0.000000000000D+00 0.219817277035D-05 0.000000000000D+00  6 21 -2 25 1 -1 -2 2 0.77113048D+00 0.18163455D-01 0.29323396D+06 0.29323396D+06 0.29323396D+06 0.10852856D+01  1  2 12  5  6  1        2 0.818966861187D-13 0.100000000000D+01
-.315387963205D-03 0.000000000000D+00 -.185434444072D-04 0.219817277035D-05 0.000000000000D+00  6 21 -2 25 1 -1 -2 2 0.77097232D+00 0.18163455D-01 0.29135962D+06 0.29135962D+06 0.29135962D+06 0.10854921D+01  1  2  5  5  6  1        2 -.232371217240D-06 0.100000000000D+01
0.153904268310D-03 0.000000000000D+00 0.000000000000D+00 0.219817277035D-05 0.185120557471D-08  6 21 -2 25 1 -1 -2 2 0.77092425D+00 0.18173313D-01 0.29323396D+06 0.29323396D+06 0.29323396D+06 0.10852856D+01  1  2 11  5  6  1        2 0.113299432905D-06 0.100000000000D+01
  </mgrwgt>
  </event>
  <event>
  6     66 -.18881543E-05 0.59952051E+02 0.75467711E-02 0.93725069E-01
        2 -1    0    0  502    0 0.00000000E+00 0.00000000E+00 0.19096204E+04 0.19096204E+04 0.32000000E+00 0.0000E+00 0.9000E+01
       -2 -1    0    0    0  501 0.00000000E+00 0.00000000E+00 -.13774061E+04 0.13774062E+04 0.32000000E+00 0.0000E+00 0.9000E+01
       25  1    1    2    0    0 -.12190929E+03 0.46840540E+03 -.21936716E+03 0.54590516E+03 0.12500000E+03 0.0000E+00 0.9000E+01
        1  1    1    2  503    0 0.25378050E+02 0.20774844E+02 0.96929143E+03 0.96984619E+03 0.32000000E+00 0.0000E+00 0.9000E+01
       -1  1    1    2    0  501 0.73833293E+02 -.51260076E+03 -.92666800E+03 0.10615670E+04 0.32000000E+00 0.0000E+00 0.9000E+01
       21  1    1    2  502  503 0.22697949E+02 0.23420514E+02 0.70895796E+03 0.70970816E+03 0.75000000E+00 0.0000E+00 0.9000E+01
#aMCatNLO 2  0  0  4  1 0.53048213D+01 0.00000000D+00  -5  6  0 0.00000000D+00 0.00000000D+00 0.00000000D+00 0.00000000D+00 0.00000000D+00
  <mgrwgt>
 -.1223287156D-01    3    2    0
 0.162182701978668D+04 0.000000000000000D+00 0.000000000000000D+00 0.162182701978668D+04
 0.162182701978668D+04 -.000000000000000D+00 -.000000000000000D+00 -.162182701978668D+04
 0.589290895679575D+03 -.121933565010747D+03 0.468560755963854D+03 -.311804078589725D+03
 0.142651304371032D+04 0.480728470979217D+02 0.441924592027467D+02 0.142501771630994D+04
 0.122785010018347D+04 0.738607179128266D+02 -.512753215166599D+03 -.111321363772022D+04
 0.000000000000000D+00 0.000000000000000D+00 0.000000000000000D+00 0.000000000000000D+00
 0.162182701978668D+04 0.000000000000000D+00 0.000000000000000D+00 0.162182701978668D+04
 0.162182701978668D+04 -.000000000000000D+00 -.000000000000000D+00 -.162182701978668D+04
 0.589287146442626D+03 -.121933317706121D+03 0.468560983306319D+03 -.311796747767975D+03
 0.822012939847804D+03 0.253227848510217D+02 0.207284310894192D+02 0.821361285908454D+03
 0.122783608495693D+04 0.738612331969499D+02 -.512752741475649D+03 -.111319836321394D+04
 0.604517868326003D+03 0.227492996581509D+02 0.234633270799123D+02 0.603633825073462D+03
-.345842483195D-09 0.000000000000D+00 0.000000000000D+00 0.481204510921D-03 0.000000000000D+00  6 2 -2 25 1 -1 21 2 0.29378775D+00 0.21190864D+00 0.29348943D+06 0.29348943D+06 0.29348943D+06 0.10852576D+01  1  2 13  3  6  4        1 -.417734381182D-10 0.100000000000D+01
-.368513413107D+00 0.000000000000D+00 0.000000000000D+00 0.481204510921D-03 0.000000000000D+00  6 2 -2 25 1 -1 21 2 0.29378775D+00 0.21190864D+00 0.29348943D+06 0.29348943D+06 0.29348943D+06 0.10852576D+01  1  2 13  3  6  4        1 -.445118023556D-01 0.100000000000D+01
0.267237414433D+00 0.000000000000D+00 0.000000000000D+00 0.481204510921D-03 0.292375965463D-04  6 2 -2 25 1 -1 21 2 0.29378775D+00 0.21190864D+00 0.29348943D+06 0.29348943D+06 0.29348943D+06 0.10852576D+01  1  2  1  3  6  4        1 0.322789308345D-01 0.100000000000D+01
  </mgrwgt>
  </event>
  <event>
  5     66 -.18881543E-05 0.31076928E+02 0.75467711E-02 0.93785187E-01
        2 -1    0    0  502    0 0.00000000E+00 0.00000000E+00 0.11867253E+04 0.11867253E+04 0.32000000E+00 0.0000E+00 0.9000E+01
       -2 -1    0    0    0  501 0.00000000E+00 0.00000000E+00 -.42734574E+03 0.42734586E+03 0.32000000E+00 0.0000E+00 0.9000E+01
       25  1    1    2    0    0 0.50300081E+03 0.16884713E+03 0.10425945E+03 0.55499027E+03 0.12500000E+03 0.0000E+00 0.9000E+01
        1  1    1    2  502    0 -.47193461E+03 -.16958339E+03 0.78170770E+03 0.92873453E+03 0.32000000E+00 0.0000E+00 0.9000E+01
       -1  1    1    2    0  501 -.31066199E+02 0.73626459E+00 -.12658762E+03 0.13034638E+03 0.32000000E+00 0.0000E+00 0.9000E+01
#aMCatNLO 1  0  0  4  1 0.53048213D+01 0.00000000D+00  -5  6  0 0.00000000D+00 0.00000000D+00 0.00000000D+00 0.00000000D+00 0.00000000D+00
  <mgrwgt>
 -.9538804157D-03    1    2    0
 0.712139115423305D+03 0.000000000000000D+00 0.000000000000000D+00 0.712139115423305D+03
 0.712139115423305D+03 -.000000000000000D+00 -.000000000000000D+00 -.712139115423305D+03
 0.573348394625687D+03 0.502997778079759D+03 0.168845416547857D+03 -.177729688508866D+03
 0.635705166719439D+03 -.471929571006104D+03 -.169581580402561D+03 0.390698895048288D+03
 0.215224669501485D+03 -.310682070736544D+02 0.736163854703992D+00 -.212969206539422D+03
 0.000000000000000D+00 0.000000000000000D+00 -.000000000000000D+00 0.000000000000000D+00
 0.712139115423305D+03 0.000000000000000D+00 0.000000000000000D+00 0.712139115423305D+03
 0.712139115423305D+03 -.000000000000000D+00 -.000000000000000D+00 -.712139115423305D+03
 0.553185697241997D+03 0.486680372043631D+03 0.162981974895371D+03 -.164220909021329D+03
 0.411070971060815D+03 -.280788367365498D+03 0.676018640547483D+01 0.300152521030330D+03
 0.211171732440026D+03 -.372443923067960D+02 -.148316571699932D+01 -.207856094553119D+03
 0.248849830103773D+03 -.168647612371336D+03 -.168258995583846D+03 0.719244825441187D+02
-.152672016798D-03 0.000000000000D+00 0.000000000000D+00 0.944652789421D-05 0.000000000000D+00  6 2 -2 25 1 -1 21 2 0.18257313D+00 0.65745511D-01 0.29033571D+06 0.29033571D+06 0.29033571D+06 0.10856056D+01  1  2 14  3  6  4        1 -.953880415704D-03 0.100000000000D+01
  </mgrwgt>
  </event>
  <event>
  6     66 0.18881543E-05 0.17978043E+02 0.75467711E-02 0.94253463E-01
        2 -1    0    0  502    0 0.00000000E+00 0.00000000E+00 0.32536327E+04 0.32536327E+04 0.32000000E+00 0.0000E+00 0.9000E+01
       -2 -1    0    0    0  501 0.00000000E+00 0.00000000E+00 -.36771768E+03 0.36771782E+03 0.32000000E+00 0.0000E+00 0.9000E+01
       25  1    1    2    0    0 0.30687423E+03 -.39713166E+03 0.55665126E+03 0.75984931E+03 0.12500000E+03 0.0000E+00 0.9000E+01
        1  1    1    2  502    0 -.23144195E+02 -.47942588E+01 0.23669700E+04 0.23670880E+04 0.32000000E+00 0.0000E+00 0.9000E+01
       -1  1    1    2    0  503 -.12544933E+03 0.19875575E+03 -.81810297E+01 0.23517741E+03 0.32000000E+00 0.0000E+00 0.9000E+01
       21  1    1    2  503  501 -.15828071E+03 0.20317017E+03 -.29525199E+02 0.25923580E+03 0.75000000E+00 0.0000E+00 0.9000E+01
#aMCatNLO 2  0  0  5  4 0.43328423D+03 0.00000000D+00  -5  6  0 0.00000000D+00 0.00000000D+00 0.00000000D+00 0.00000000D+00 0.00000000D+00
  <mgrwgt>
 0.1614528356D-01    1    2    0
 0.109380919173250D+04 0.000000000000000D+00 0.000000000000000D+00 0.109380919173250D+04
 0.109380919173250D+04 -.000000000000000D+00 -.000000000000000D+00 -.109380919173250D+04
 0.523591196812564D+03 0.306938233845636D+03 -.397223074263369D+03 -.807805128486654D+02
 0.796050760283109D+03 -.230761915488225D+02 -.488863315277184D+01 0.795701202460330D+03
 0.867976426369322D+03 -.283862042296813D+03 0.402111707416140D+03 -.714920689611665D+03
 0.000000000000000D+00 0.000000000000000D+00 0.000000000000000D+00 -.000000000000000D+00
 0.109380919173250D+04 0.000000000000000D+00 0.000000000000000D+00 0.109380919173250D+04
 0.109380919173250D+04 -.000000000000000D+00 -.000000000000000D+00 -.109380919173250D+04
 0.523535387323527D+03 0.306894358916862D+03 -.397160922161668D+03 -.808910140417154D+02
 0.795884202343163D+03 -.231428941176956D+02 -.479414400007780D+01 0.795533208718892D+03
 0.400029095919638D+03 -.125437080494564D+03 0.198723392422181D+03 -.323724929104175D+03
 0.468169697878668D+03 -.158314384304602D+03 0.203231673739564D+03 -.390917265573002D+03
0.293697322183D-01 0.000000000000D+00 0.000000000000D+00 0.248494231832D-03 0.193569771776D-05  6 2 -2 25 1 -1 21 2 0.50055888D+00 0.56571963D-01 0.26703093D+06 0.26703093D+06 0.26703093D+06 0.10883124D+01  1  2  1  4  6  5       -1 0.161452835638D-01 0.100000000000D+01
  </mgrwgt>
  </event>
  <event>
  6     66 -.18881543E-05 0.43939385E+02 0.75467711E-02 0.93624451E-01
        2 -1    0    0  502    0 0.00000000E+00 0.00000000E+00 0.83771873E+03 0.83771879E+03 0.32000000E+00 0.0000E+00 0.9000E+01
       -2 -1    0    0    0  501 -.00000000E+00 -.00000000E+00 -.15456150E+04 0.15456150E+04 0.32000000E+00 0.0000E+00 0.9000E+01
       25  1    1    2    0    0 -.32299043E+03 0.42728422E+03 -.78272102E+03 0.95664613E+03 0.12500000E+03 0.0000E+00 0.9000E+01
        1  1    1    2  502    0 0.30686021E+03 -.38699466E+03 0.66815263E+03 0.83087670E+03 0.32000000E+00 0.0000E+00 0.9000E+01
       -1  1    1    2    0  503 0.19621245E+02 -.41366392E+02 -.42816608E+03 0.43060709E+03 0.32000000E+00 0.0000E+00 0.9000E+01
       21  1    1    2  503  501 -.34910206E+01 0.10768262E+01 -.16516176E+03 0.16520386E+03 0.75000000E+00 0.0000E+00 0.9000E+01
#aMCatNLO 2  0  0  5  2 0.14619080D+02 0.00000000D+00  -5  6  0 0.00000000D+00 0.00000000D+00 0.00000000D+00 0.00000000D+00 0.00000000D+00
  <mgrwgt>
 -.2587408862D-02    3    2    0
 0.113788871193157D+04 0.000000000000000D+00 0.000000000000000D+00 0.113788871193157D+04
 0.113788871193157D+04 -.000000000000000D+00 -.000000000000000D+00 -.113788871193157D+04
 0.758308770712660D+03 -.323011100076755D+03 0.427321235682500D+03 -.521984274190067D+03
 0.107850402012927D+04 0.306850456742863D+03 -.386956100177180D+03 0.958790224797566D+03
 0.438964633021214D+03 0.161606433338918D+02 -.403651355053196D+02 -.436805950607499D+03
 0.000000000000000D+00 0.000000000000000D+00 0.000000000000000D+00 -.000000000000000D+00
 0.113788871193157D+04 0.000000000000000D+00 0.000000000000000D+00 0.113788871193157D+04
 0.113788871193157D+04 -.000000000000000D+00 -.000000000000000D+00 -.113788871193157D+04
 0.758559454512019D+03 -.322996157523894D+03 0.427283913024080D+03 -.522388156379145D+03
 0.107801868616771D+04 0.306871700483088D+03 -.387009161582913D+03 0.958216027845628D+03
 0.317431771672479D+03 0.196171645439359D+02 -.413489595066334D+02 -.314115201908637D+03
 0.121767511510942D+03 -.349270750312983D+01 0.107420806546667D+01 -.121712669557845D+03
-.112025031349D-08 0.000000000000D+00 0.000000000000D+00 0.115192828072D-03 0.000000000000D+00  6 2 -2 25 1 -1 21 2 0.12887981D+00 0.23778692D+00 0.29885401D+06 0.29885401D+06 0.29885401D+06 0.10846749D+01  1  2 13  4  6  5       -1 -.377773954345D-09 0.100000000000D+01
-.215831751644D-01 0.000000000000D+00 0.000000000000D+00 0.115192828072D-03 0.000000000000D+00  6 2 -2 25 1 -1 21 2 0.12887981D+00 0.23778692D+00 0.29885401D+06 0.29885401D+06 0.29885401D+06 0.10846749D+01  1  2 13  4  6  5       -1 -.727833889532D-02 0.100000000000D+01
0.139104779543D-01 0.000000000000D+00 0.000000000000D+00 0.115192828072D-03 0.186299043027D-04  6 2 -2 25 1 -1 21 2 0.12887981D+00 0.23778692D+00 0.29885401D+06 0.29885401D+06 0.29885401D+06 0.10846749D+01  1  2  1  4  6  5       -1 0.469093041111D-02 0.100000000000D+01
  </mgrwgt>
  </event>
  <event>
  5     66 0.18881543E-05 0.13034714E+02 0.75467711E-02 0.95441798E-01
        2 -1    0    0  502    0 0.00000000E+00 0.00000000E+00 0.18017524E+04 0.18017524E+04 0.32000000E+00 0.0000E+00 0.9000E+01
       -2 -1    0    0    0  501 0.00000000E+00 0.00000000E+00 -.35212319E+03 0.35212333E+03 0.32000000E+00 0.0000E+00 0.9000E+01
       25  1    1    2    0    0 0.45371885E+03 0.45839342E+02 0.50388235E+02 0.47552709E+03 0.12500000E+03 0.0000E+00 0.9000E+01
        1  1    1    2  502    0 -.11629728E+02 0.58917549E+01 0.11837525E+04 0.11838244E+04 0.32000000E+00 0.0000E+00 0.9000E+01
       -1  1    1    2    0  501 -.44208912E+03 -.51731097E+02 0.21548840E+03 0.49452426E+03 0.32000000E+00 0.0000E+00 0.9000E+01
#aMCatNLO 1  0  0  1  4 0.57524295D+02 0.00000000D+00  -5  6  0 0.00000000D+00 0.00000000D+00 0.00000000D+00 0.00000000D+00 0.00000000D+00
  <mgrwgt>
 0.1309387342D-01    7    2    0
 0.796516773369430D+03 0.000000000000000D+00 0.000000000000000D+00 0.796516773369430D+03
 0.796516773369430D+03 0.000000000000000D+00 0.000000000000000D+00 -.796516773369430D+03
 0.597121670473089D+03 0.453796187638940D+03 0.458482321957033D+02 -.364549378051129D+03
 0.523317306573500D+03 -.116276890939679D+02 0.589072202159142D+01 0.523154947983617D+03
 0.472594569692272D+03 -.442168498544972D+03 -.517389542172947D+02 -.158605569932488D+03
 0.000000000000000D+00 0.000000000000000D+00 -.000000000000000D+00 0.000000000000000D+00
 0.979845372036345D+03 0.000000000000000D+00 0.000000000000000D+00 0.979845372036345D+03
 0.804149208096759D+03 0.000000000000000D+00 0.000000000000000D+00 -.804149208096759D+03
 0.586605899324704D+03 0.437260287558444D+03 0.662470603829875D+02 -.364549378051129D+03
 0.524360766704793D+03 -.262630666743143D+02 0.239450493496603D+02 0.523154947983617D+03
 0.483635544177919D+03 -.455526407932535D+03 -.352605226102001D+02 -.158605569932488D+03
 0.189392369925688D+03 0.445291870484054D+02 -.549315871224476D+02 0.175696163939585D+03
0.453975295593D-03 0.000000000000D+00 0.000000000000D+00 0.181099501843D-04 0.000000000000D+00  6 2 -2 25 1 -1 21 0 0.27719269D+00 0.54172811D-01 0.21675772D+06 0.21675772D+06 0.21675772D+06 0.10951516D+01  1  2  2  1  6  1        2 0.166384116491D-02 0.100000000000D+01
0.425769193249D-03 0.000000000000D+00 -.174338466952D-05 0.181099501843D-04 0.000000000000D+00  6 2 -2 25 1 -1 21 2 0.27719269D+00 0.54172811D-01 0.21675772D+06 0.21675772D+06 0.21675772D+06 0.10951516D+01  1  2  3  1  6  1        2 0.187155397504D-02 0.100000000000D+01
-.284736631556D-03 0.000000000000D+00 0.000000000000D+00 0.181099501843D-04 0.000000000000D+00  6 2 -2 25 1 -1 21 2 0.27719269D+00 0.54172811D-01 0.21675772D+06 0.21675772D+06 0.21675772D+06 0.10951516D+01  1  2 15  1  6  1        2 -.125161703354D-02 0.100000000000D+01
-.477041292549D-04 0.000000000000D+00 0.000000000000D+00 0.181099501843D-04 0.000000000000D+00  6 2 -2 25 1 -1 21 2 0.27719269D+00 0.54172811D-01 0.21675772D+06 0.21675772D+06 0.21675772D+06 0.10951516D+01  1  2  4  1  6  1        2 -.209693078194D-03 0.100000000000D+01
-.618796931793D-02 0.000000000000D+00 -.484716871118D-03 0.181099501843D-04 0.000000000000D+00  6 2 -2 25 1 -1 21 2 0.34199943D+00 0.54172811D-01 0.21675772D+06 0.21675772D+06 0.21675772D+06 0.10951516D+01  1  2  5  1  6  1        2 -.160011002133D-01 0.100000000000D+01
0.616377412212D-02 0.000000000000D+00 0.474212353177D-03 0.181099501843D-04 0.000000000000D+00  6 2 -2 25 1 -1 21 2 0.27719269D+00 0.54172811D-01 0.21675772D+06 0.21675772D+06 0.21675772D+06 0.10951516D+01  1  2  6  1  6  1        2 0.270941067188D-01 0.100000000000D+01
-.177791276408D-03 0.000000000000D+00 -.144025102100D-04 0.181099501843D-04 0.000000000000D+00  6 21 -2 25 1 -1 -2 2 0.34199943D+00 0.54172811D-01 0.21675772D+06 0.21675772D+06 0.21675772D+06 0.10951516D+01  1  2  5  5  6  1        2 -.732181178534D-04 0.100000000000D+01
  </mgrwgt>
  </event>
  <event>
  6     66 0.18881543E-05 0.40114577E+02 0.75467711E-02 0.95067635E-01
        2 -1    0    0  502    0 0.00000000E+00 0.00000000E+00 0.16167893E+04 0.16167893E+04 0.32000000E+00 0.0000E+00 0.9000E+01
       21 -1    0    0  503  501 0.00000000E+00 0.00000000E+00 -.10794836E+04 0.10794838E+04 0.75000000E+00 0.0000E+00 0.9000E+01
       25  1    1    2    0    0 0.44725669E+03 -.65547142E+02 -.27473699E+03 0.54354429E+03 0.12500000E+03 0.0000E+00 0.9000E+01
        1  1    1    2  502    0 -.42694111E+03 0.13915316E+02 0.14498634E+04 0.15114815E+04 0.32000000E+00 0.0000E+00 0.9000E+01
        2  1    1    2  503    0 -.16834360E+02 0.30843563E+01 -.13643164E+03 0.13750128E+03 0.32000000E+00 0.0000E+00 0.9000E+01
       -1  1    1    2    0  501 -.34812243E+01 0.48547470E+02 -.50138908E+03 0.50374605E+03 0.32000000E+00 0.0000E+00 0.9000E+01
#aMCatNLO 2  0  0  2  5 0.24347153D+01 0.00000000D+00  -5  6  0 0.00000000D+00 0.00000000D+00 0.00000000D+00 0.00000000D+00 0.00000000D+00
  <mgrwgt>
 0.5233436698D-02    1    2    0
 0.123421011415225D+04 0.000000000000000D+00 0.000000000000000D+00 0.123421011415225D+04
 0.123421011415225D+04 0.000000000000000D+00 0.000000000000000D+00 -.123421011415225D+04
 0.635298111387530D+03 0.442913809356039D+03 -.647511247888399D+02 -.433143555478855D+03
 0.117400632115993D+04 -.434937766787388D+03 0.153804103757505D+02 0.109035930964162D+04
 0.000000000000000D+00 -.000000000000000D+00 0.000000000000000D+00 -.000000000000000D+00
 0.659115795757046D+03 -.797604256865145D+01 0.493707144130894D+02 -.657215754162763D+03
 0.123464805045874D+04 0.000000000000000D+00 0.000000000000000D+00 0.123464805045874D+04
 0.141359914629727D+04 0.000000000000000D+00 0.000000000000000D+00 -.141359914629727D+04
 0.638414914048082D+03 0.447257050015453D+03 -.655468842709564D+02 -.433143555478855D+03
 0.117104909240659D+04 -.426941350155551D+03 0.139153236221657D+02 0.109035930964162D+04
 0.179767637909958D+03 -.168343602199322D+02 0.308435631844186D+01 -.178951095838534D+03
 0.659015552391376D+03 -.348133963996939D+01 0.485472043303489D+02 -.657215754162763D+03
0.165136933864D-02 0.000000000000D+00 0.000000000000D+00 0.404068526150D-03 0.186962088761D-06  6 2 21 25 1 2 -1 2 0.24873680D+00 0.16607440D+00 0.23133874D+06 0.23133874D+06 0.23133874D+06 0.10930028D+01  1  2  1  6  5  2       -2 0.523343669838D-02 0.100000000000D+01
  </mgrwgt>
  </event>
  <event>
  6     66 0.18881543E-05 0.34027165E+02 0.75467711E-02 0.94378657E-01
        2 -1    0    0  502    0 0.00000000E+00 0.00000000E+00 0.13093240E+04 0.13093240E+04 0.32000000E+00 0.0000E+00 0.9000E+01
       21 -1    0    0  503  501 0.00000000E+00 0.00000000E+00 -.10162893E+04 0.10162896E+04 0.75000000E+00 0.0000E+00 0.9000E+01
       25  1    1    2    0    0 -.28370915E+03 0.35211617E+03 -.65009440E+03 0.80170095E+03 0.12500000E+03 0.0000E+00 0.9000E+01
        1  1    1    2  502    0 -.10753650E+02 -.21271206E+02 0.97686012E+03 0.97715091E+03 0.32000000E+00 0.0000E+00 0.9000E+01
        2  1    1    2  503    0 -.88651790E+01 0.45080307E+02 -.43995783E+02 0.63612552E+02 0.32000000E+00 0.0000E+00 0.9000E+01
       -1  1    1    2    0  501 0.30332798E+03 -.37592527E+03 0.10264782E+02 0.48314919E+03 0.32000000E+00 0.0000E+00 0.9000E+01
#aMCatNLO 2  0  0  2  5 0.56345573D+02 0.00000000D+00  -5  6  0 0.00000000D+00 0.00000000D+00 0.00000000D+00 0.00000000D+00 0.00000000D+00
  <mgrwgt>
 0.9874321166D-03    1    2    0
 0.111814001466727D+04 0.000000000000000D+00 0.000000000000000D+00 0.111814001466727D+04
 0.111814001466727D+04 0.000000000000000D+00 0.000000000000000D+00 -.111814001466727D+04
 0.917136569080692D+03 -.287363137456706D+03 0.370561710440904D+03 -.778216507362349D+03
 0.840715578485323D+03 -.140856889188524D+02 -.432158182774932D+01 0.840586462659314D+03
 0.000000000000000D+00 -.000000000000000D+00 0.000000000000000D+00 -.000000000000000D+00
 0.478427881768535D+03 0.301448826375558D+03 -.366240128613155D+03 -.623699552969654D+02
 0.112681679765006D+04 0.000000000000000D+00 0.000000000000000D+00 0.112681679765006D+04
 0.118089424665308D+04 0.000000000000000D+00 0.000000000000000D+00 -.118089424665308D+04
 0.908720912776645D+03 -.283744439105810D+03 0.352160273544442D+03 -.778216507362349D+03
 0.840924264370189D+03 -.107528179874634D+02 -.212695581941209D+02 0.840586462659314D+03
 0.709591145948062D+02 -.886517898276812D+01 0.450803067315272D+02 -.540774490030155D+02
 0.487106752561495D+03 0.303362436076042D+03 -.375971022081849D+03 -.623699552969654D+02
0.178624567794D-03 0.000000000000D+00 0.000000000000D+00 0.142426366251D-04 0.336803747619D-09  6 2 21 25 1 2 -1 2 0.20143442D+00 0.15635217D+00 0.26116112D+06 0.26116112D+06 0.26116112D+06 0.10890350D+01  1  2  1  6  5  2       -2 0.987432116585D-03 0.100000000000D+01
  </mgrwgt>
  </event>
  <event>
  5     66 0.18881543E-05 0.72489888E+02 0.75467711E-02 0.93851133E-01
        4 -1    0    0  502    0 0.00000000E+00 0.00000000E+00 0.19835439E+04 0.19835446E+04 0.15500000E+01 0.0000E+00 0.9000E+01
       -4 -1    0    0    0  501 0.00000000E+00 0.00000000E+00 -.16195970E+03 0.16196712E+03 0.15500000E+01 0.0000E+00 0.9000E+01
       25  1    1    2    0    0 -.29460461E+03 -.43057964E+03 0.80682727E+03 0.96890966E+03 0.12500000E+03 0.0000E+00 0.9000E+01
        3  1    1    2  502    0 0.24242314E+03 0.38029053E+03 0.10074204E+04 0.11037599E+04 0.50000000E+00 0.0000E+00 0.9000E+01
       -3  1    1    2    0  501 0.52181464E+02 0.50289112E+02 0.73366265E+01 0.72842131E+02 0.50000000E+00 0.0000E+00 0.9000E+01
#aMCatNLO 1  0  0  5  4 0.31225795D+02 0.00000000D+00  -5  6  0 0.00000000D+00 0.00000000D+00 0.00000000D+00 0.00000000D+00 0.00000000D+00
  <mgrwgt>
 0.1924721635D-04    7    2    0
 0.566800492888352D+03 0.000000000000000D+00 0.000000000000000D+00 0.566800492888352D+03
 0.566800492888352D+03 -.000000000000000D+00 -.000000000000000D+00 -.566800492888352D+03
 0.537301834678206D+03 -.294600754125367D+03 -.430567194813325D+03 -.298420503302971D+02
 0.470174538823239D+03 0.242405834022022D+03 0.380263376161970D+03 0.133053648351458D+03
 0.126124612275260D+03 0.521949201033448D+02 0.503038186513546D+02 -.103211598021161D+03
 0.000000000000000D+00 0.000000000000000D+00 0.000000000000000D+00 -.000000000000000D+00
 0.566800492888352D+03 0.000000000000000D+00 0.000000000000000D+00 0.566800492888352D+03
 0.566800492888352D+03 -.000000000000000D+00 -.000000000000000D+00 -.566800492888352D+03
 0.531058991118106D+03 -.289350999279028D+03 -.425507646580826D+03 -.402230526546061D+02
 0.473705909189565D+03 0.247043912128851D+03 0.384733409634860D+03 0.123882191585072D+03
 0.335127206745699D+02 0.320123199316388D+02 -.936886408293699D+01 -.324626021778946D+01
 0.953233647944638D+02 0.102947672185385D+02 0.501431010289035D+02 -.804128787126770D+02
0.981904641863D-03 0.000000000000D+00 0.000000000000D+00 0.134939839753D-06 0.000000000000D+00  6 4 -4 25 3 -3 21 0 0.30516122D+00 0.24917495D-01 0.28085644D+06 0.28085644D+06 0.28085644D+06 0.10866769D+01  1  2  2  4  6  5       -3 0.428001765086D-04 0.100000000000D+01
0.133696963981D-03 0.000000000000D+00 -.377077236618D-05 0.134939839753D-06 0.000000000000D+00  6 4 -4 25 3 -3 21 2 0.30516122D+00 0.24917495D-01 0.28085644D+06 0.28085644D+06 0.28085644D+06 0.10866769D+01  1  2  3  4  6  5       -3 0.688174669148D-05 0.100000000000D+01
-.655173802347D-03 0.000000000000D+00 0.000000000000D+00 0.134939839753D-06 0.000000000000D+00  6 4 -4 25 3 -3 21 2 0.30516122D+00 0.24917495D-01 0.28085644D+06 0.28085644D+06 0.28085644D+06 0.10866769D+01  1  2 15  4  6  5       -3 -.337235791479D-04 0.100000000000D+01
0.101904388407D-05 0.000000000000D+00 0.000000000000D+00 0.134939839753D-06 0.000000000000D+00  6 4 -4 25 3 -3 21 2 0.30516122D+00 0.24917495D-01 0.28691987D+06 0.28691987D+06 0.28691987D+06 0.10859872D+01  1  2 12  4  6  5       -3 0.523672057432D-07 0.100000000000D+01
-.334488450719D-03 0.000000000000D+00 0.000000000000D+00 0.134939839753D-06 0.000000000000D+00  6 4 -4 25 3 -3 21 2 0.30516122D+00 0.24917495D-01 0.28085644D+06 0.28085644D+06 0.28085644D+06 0.10866769D+01  1  2  4  4  6  5       -3 -.172170311167D-04 0.100000000000D+01
-.194566999624D-03 0.000000000000D+00 0.000000000000D+00 0.134939839753D-06 0.000000000000D+00  6 4 -4 25 3 -3 21 2 0.30516122D+00 0.24917495D-01 0.28085644D+06 0.28085644D+06 0.28085644D+06 0.10866769D+01  1  2  5  4  6  5       -3 -.100148931290D-04 0.100000000000D+01
0.591933513770D-03 0.000000000000D+00 -.000000000000D+00 0.134939839753D-06 0.000000000000D+00  6 4 -4 25 3 -3 21 2 0.30516122D+00 0.24917495D-01 0.28085644D+06 0.28085644D+06 0.28085644D+06 0.10866769D+01  1  2  6  4  6  5       -3 0.304684293395D-04 0.100000000000D+01
  </mgrwgt>
  </event>
  <event>
  6     66 0.18881543E-05 0.43646213E+02 0.75467711E-02 0.94671107E-01
        2 -1    0    0  502    0 0.00000000E+00 0.00000000E+00 0.32688930E+04 0.32688930E+04 0.32000000E+00 0.0000E+00 0.9000E+01
       -2 -1    0    0    0  501 0.00000000E+00 0.00000000E+00 -.16328538E+03 0.16328569E+03 0.32000000E+00 0.0000E+00 0.9000E+01
       25  1    1    2    0    0 -.34297483E+03 0.31862032E+03 0.94800578E+03 0.10646552E+04 0.12500000E+03 0.0000E+00 0.9000E+01
        1  1    1    2  503    0 0.29354782E+03 -.32282455E+03 0.20916688E+04 0.21366947E+04 0.32000000E+00 0.0000E+00 0.9000E+01
       -1  1    1    2    0  501 0.38153871E+02 0.29091730E+02 -.74031679E+02 0.88220397E+02 0.32000000E+00 0.0000E+00 0.9000E+01
       21  1    1    2  502  503 0.11273132E+02 -.24887499E+02 0.13996472E+03 0.14260840E+03 0.75000000E+00 0.0000E+00 0.9000E+01
#aMCatNLO 2  0  0  4  1 0.82991952D+01 0.00000000D+00  -5  6  0 0.00000000D+00 0.00000000D+00 0.00000000D+00 0.00000000D+00 0.00000000D+00
  <mgrwgt>
 0.3480039500D-02    6    2    0
 0.730590853172453D+03 0.000000000000000D+00 0.000000000000000D+00 0.730590853172453D+03
 0.730590853172453D+03 -.000000000000000D+00 -.000000000000000D+00 -.730590853172453D+03
 0.486006904114805D+03 -.343094503432815D+03 0.318708436550133D+03 -.358999308246808D+02
 0.610174487932919D+03 0.305037530150253D+03 -.347959095943467D+03 0.397730409290311D+03
 0.365000314297182D+03 0.380569732825627D+02 0.292506593933345D+02 -.361830478465630D+03
 0.000000000000000D+00 0.000000000000000D+00 0.000000000000000D+00 0.000000000000000D+00
 0.730590853172453D+03 0.000000000000000D+00 0.000000000000000D+00 0.730590853172453D+03
 0.730590853172453D+03 -.000000000000000D+00 -.000000000000000D+00 -.730590853172453D+03
 0.485750326488302D+03 -.342928972574732D+03 0.318519613988854D+03 -.356840994943425D+02
 0.573303835799716D+03 0.293584893838236D+03 -.322853311152353D+03 0.371821109850719D+03
 0.364841268889068D+03 0.381812957982330D+02 0.291088435645192D+02 -.361668377608673D+03
 0.372862751678197D+02 0.111627829382632D+02 -.247751464010198D+02 0.255313672522962D+02
-.229444228053D-07 0.000000000000D+00 0.000000000000D+00 0.158684282867D-04 0.000000000000D+00  6 2 -2 25 1 -1 21 2 0.50290663D+00 0.25120853D-01 0.24800507D+06 0.24800507D+06 0.24800507D+06 0.10907210D+01  1  2 13  3  6  4        1 -.565545439973D-07 0.100000000000D+01
-.173765486796D-01 0.000000000000D+00 0.000000000000D+00 0.158684282867D-04 0.000000000000D+00  6 2 -2 25 1 -1 21 2 0.50290663D+00 0.25120853D-01 0.24800507D+06 0.24800507D+06 0.24800507D+06 0.10907210D+01  1  2 13  3  6  4        1 -.428305734758D-01 0.100000000000D+01
-.186882956683D-01 0.000000000000D+00 0.000000000000D+00 0.158684282867D-04 0.000000000000D+00  6 2 -2 25 1 -1 21 2 0.50290663D+00 0.25120853D-01 0.24771187D+06 0.24771187D+06 0.24771187D+06 0.10907596D+01  1  2  8  3  6  4        1 -.460707353808D-01 0.100000000000D+01
-.140818841832D-01 0.000000000000D+00 0.000000000000D+00 0.158684282867D-04 0.000000000000D+00  6 2 -2 25 1 -1 21 2 0.50290663D+00 0.25120853D-01 0.24771187D+06 0.24771187D+06 0.24771187D+06 0.10907596D+01  1  2  9  3  6  4        1 -.347149237889D-01 0.100000000000D+01
0.149686334319D-01 0.000000000000D+00 0.000000000000D+00 0.158684282867D-04 0.000000000000D+00  6 2 -2 25 1 -1 21 2 0.50290663D+00 0.25120853D-01 0.24771187D+06 0.24771187D+06 0.24771187D+06 0.10907596D+01  1  2 10  3  6  4        1 0.369009545920D-01 0.100000000000D+01
0.365926529036D-01 0.000000000000D+00 0.000000000000D+00 0.158684282867D-04 0.140592034821D-05  6 2 -2 25 1 -1 21 2 0.50290663D+00 0.25120853D-01 0.24800507D+06 0.24800507D+06 0.24800507D+06 0.10907210D+01  1  2  1  3  6  4        1 0.901953741079D-01 0.100000000000D+01
  </mgrwgt>
  </event>
  <event>
  5     66 0.18881543E-05 0.11136080E+02 0.75467711E-02 0.91795076E-01
        2 -1    0    0  502    0 0.00000000E+00 0.00000000E+00 0.17508357E+04 0.17508357E+04 0.32000000E+00 0.0000E+00 0.9000E+01
       -2 -1    0    0    0  501 0.00000000E+00 0.00000000E+00 -.88034827E+03 0.88034833E+03 0.32000000E+00 0.0000E+00 0.9000E+01
       25  1    1    2    0    0 -.28458654E+03 -.45864924E+03 -.40212386E+02 0.55550937E+03 0.12500000E+03 0.0000E+00 0.9000E+01
        1  1    1    2  502    0 0.27356345E+03 0.45707260E+03 0.14456196E+04 0.15406389E+04 0.32000000E+00 0.0000E+00 0.9000E+01
       -1  1    1    2    0  501 0.11023094E+02 0.15766426E+01 -.53491976E+03 0.53503574E+03 0.32000000E+00 0.0000E+00 0.9000E+01
#aMCatNLO 1  0  0  4  2 0.17336479D+00 0.00000000D+00  -5  6  0 0.00000000D+00 0.00000000D+00 0.00000000D+00 0.00000000D+00 0.00000000D+00
  <mgrwgt>
 0.3882472004D-02    6    2    0
 0.124150928173530D+04 0.000000000000000D+00 0.000000000000000D+00 0.124150928173530D+04
 0.124150928173530D+04 -.000000000000000D+00 -.000000000000000D+00 -.124150928173530D+04
 0.602728080813339D+03 -.284583822033046D+03 -.458643583542383D+03 -.237306238673567D+03
 0.112575682193899D+04 0.273559945054298D+03 0.457066745383556D+03 0.991757716818249D+03
 0.754533660718272D+03 0.110238769787479D+02 0.157683815882609D+01 -.754451478144681D+03
 0.000000000000000D+00 0.000000000000000D+00 0.000000000000000D+00 0.000000000000000D+00
 0.124150928173530D+04 0.000000000000000D+00 0.000000000000000D+00 0.124150928173530D+04
 0.124150928173530D+04 -.000000000000000D+00 -.000000000000000D+00 -.124150928173530D+04
 0.576234050502827D+03 -.276092772974354D+03 -.444456652201325D+03 -.206522991417946D+03
 0.938569553609489D+03 0.421863466307211D+03 0.299267459630082D+03 0.783187723578797D+03
 0.716624555655607D+03 0.216193628357735D+02 0.192798839591422D+02 -.716038855784862D+03
 0.251590403702677D+03 -.167390056168631D+03 0.125909308612101D+03 0.139374123624011D+03
0.484556455100D-02 0.000000000000D+00 0.000000000000D+00 0.483006774229D-03 0.000000000000D+00  6 2 -2 25 1 -1 21 0 0.26935934D+00 0.13543820D+00 0.30132374D+06 0.30132374D+06 0.30132374D+06 0.10844104D+01  1  2  2  3  6  4        1 0.223284042506D-02 0.100000000000D+01
0.530852327845D-02 0.000000000000D+00 -.186082437423D-04 0.483006774229D-03 0.000000000000D+00  6 2 -2 25 1 -1 21 2 0.26935934D+00 0.13543820D+00 0.30132374D+06 0.30132374D+06 0.30132374D+06 0.10844104D+01  1  2  3  3  6  4        1 0.287656638297D-02 0.100000000000D+01
-.343173947202D-02 0.000000000000D+00 0.000000000000D+00 0.483006774229D-03 0.000000000000D+00  6 2 -2 25 1 -1 21 2 0.26935934D+00 0.13543820D+00 0.30132374D+06 0.30132374D+06 0.30132374D+06 0.10844104D+01  1  2 15  3  6  4        1 -.185958050527D-02 0.100000000000D+01
-.585741159254D-03 0.000000000000D+00 0.000000000000D+00 0.483006774229D-03 0.000000000000D+00  6 2 -2 25 1 -1 21 2 0.26935934D+00 0.13543820D+00 0.30132374D+06 0.30132374D+06 0.30132374D+06 0.10844104D+01  1  2  4  3  6  4        1 -.317399630642D-03 0.100000000000D+01
-.707867685317D-02 0.000000000000D+00 0.000000000000D+00 0.483006774229D-03 0.000000000000D+00  6 2 -2 25 1 -1 21 2 0.26935934D+00 0.13543820D+00 0.30132374D+06 0.30132374D+06 0.30132374D+06 0.10844104D+01  1  2  5  3  6  4        1 -.383577179636D-02 0.100000000000D+01
0.883192607059D-02 0.000000000000D+00 -.000000000000D+00 0.483006774229D-03 0.000000000000D+00  6 2 -2 25 1 -1 21 2 0.26935934D+00 0.13543820D+00 0.30132374D+06 0.30132374D+06 0.30132374D+06 0.10844104D+01  1  2  6  3  6  4        1 0.478581712823D-02 0.100000000000D+01
  </mgrwgt>
  </event>
  <event>
  6     66 -.18881543E-05 0.14019303E+03 0.75467711E-02 0.93810026E-01
        2 -1    0    0  503    0 0.00000000E+00 0.00000000E+00 0.32503362E+04 0.32503362E+04 0.32000000E+00 0.0000E+00 0.9000E+01
       -2 -1    0    0    0  501 0.00000000E+00 0.00000000E+00 -.79848104E+03 0.79848111E+03 0.32000000E+00 0.0000E+00 0.9000E+01
       25  1    1    2    0    0 -.33331404E+03 -.35273430E+03 0.18882232E+03 0.53553581E+03 0.12500000E+03 0.0000E+00 0.9000E+01
        1  1    1    2  502    0 0.20436820E+03 0.33805392E+03 0.20023040E+04 0.20408989E+04 0.32000000E+00 0.0000E+00 0.9000E+01
       -1  1    1    2    0  501 0.15029886E+03 0.29397524E+02 -.59594884E+03 0.61531219E+03 0.32000000E+00 0.0000E+00 0.9000E+01
       21  1    1    2  503  502 -.21353018E+02 -.14717146E+02 0.85667763E+03 0.85707040E+03 0.75000000E+00 0.0000E+00 0.9000E+01
#aMCatNLO 2  0  0  1  4 0.25933488D+02 0.00000000D+00  -5  6  0 0.00000000D+00 0.00000000D+00 0.00000000D+00 0.00000000D+00 0.00000000D+00
  <mgrwgt>
 -.1099622536D-01    3    2    0
 0.138220697741093D+04 0.000000000000000D+00 0.000000000000000D+00 0.138220697741093D+04
 0.138220697741093D+04 0.000000000000000D+00 0.000000000000000D+00 -.138220697741093D+04
 0.513804570684515D+03 -.337272940152273D+03 -.355452382583338D+03 -.909434132478413D+02
 0.119757082491758D+04 0.195100179803754D+03 0.331661255755224D+03 0.113406905079240D+04
 0.105303855921976D+04 0.142172760348520D+03 0.237911268281142D+02 -.104312563754456D+04
 0.000000000000000D+00 -.000000000000000D+00 -.000000000000000D+00 0.000000000000000D+00
 0.187712768126379D+04 0.000000000000000D+00 0.000000000000000D+00 0.187712768126379D+04
 0.138260756356835D+04 0.000000000000000D+00 0.000000000000000D+00 -.138260756356835D+04
 0.509329647409208D+03 -.333321555976718D+03 -.352728969093950D+03 -.909434132478413D+02
 0.120089621630170D+04 0.204363152876751D+03 0.338045576969777D+03 0.113406905079240D+04
 0.105430973189959D+04 0.150311421476897D+03 0.294005382439182D+02 -.104312563754456D+04
 0.495199649221633D+03 -.213530183769299D+02 -.147171461197457D+02 0.494520117695441D+03
-.244536892568D-08 0.000000000000D+00 0.000000000000D+00 0.123445524026D-03 0.000000000000D+00  6 2 -2 25 1 -1 21 2 0.50009107D+00 0.12280763D+00 0.28904376D+06 0.28904376D+06 0.28904376D+06 0.10857493D+01  1  2 13  1  6  1        2 -.226296729357D-09 0.100000000000D+01
-.343224563559D+00 0.000000000000D+00 0.000000000000D+00 0.123445524026D-03 0.000000000000D+00  6 2 -2 25 1 -1 21 2 0.50269098D+00 0.12280763D+00 0.28904376D+06 0.28904376D+06 0.28904376D+06 0.10857493D+01  1  2 13  1  6  1        2 -.309459200200D-01 0.100000000000D+01
0.215653380558D+00 0.000000000000D+00 0.000000000000D+00 0.123445524026D-03 0.745348126619D-06  6 2 -2 25 1 -1 21 2 0.50005163D+00 0.12284322D+00 0.28904376D+06 0.28904376D+06 0.28904376D+06 0.10857493D+01  1  2  1  1  6  1        2 0.199496948899D-01 0.100000000000D+01
  </mgrwgt>
  </event>
  <event>
  5     66 0.18881543E-05 0.82504805E+02 0.75467711E-02 0.85483705E-01
        2 -1    0    0  502    0 0.00000000E+00 0.00000000E+00 0.25490619E+04 0.25490620E+04 0.32000000E+00 0.0000E+00 0.9000E+01
       -2 -1    0    0    0  501 0.00000000E+00 0.00000000E+00 -.84487935E+03 0.84487941E+03 0.32000000E+00 0.0000E+00 0.9000E+01
       25  1    1    2    0    0 -.33901609E+03 -.41119053E+03 -.14600378E+03 0.56652596E+03 0.12500000E+03 0.0000E+00 0.9000E+01
        1  1    1    2  502    0 0.26701270E+03 0.45146868E+03 0.23056398E+04 0.23645496E+04 0.32000000E+00 0.0000E+00 0.9000E+01
       -1  1    1    2    0  501 0.72003397E+02 -.40278158E+02 -.45545344E+03 0.46286581E+03 0.32000000E+00 0.0000E+00 0.9000E+01
#aMCatNLO 1  0  0  1  4 0.25933488D+02 0.00000000D+00  -5  6  0 0.00000000D+00 0.00000000D+00 0.00000000D+00 0.00000000D+00 0.00000000D+00
  <mgrwgt>
 0.2782988862D-01    4    2    0
 0.146753191782012D+04 0.000000000000000D+00 0.000000000000000D+00 0.146753191782012D+04
 0.146753191782012D+04 0.000000000000000D+00 0.000000000000000D+00 -.146753191782012D+04
 0.739863399230402D+03 -.339017005327418D+03 -.411189419643149D+03 -.497758556725170D+03
 0.139550801412928D+04 0.267012287780736D+03 0.451467994005117D+03 0.129318355466737D+04
 0.799692422280565D+03 0.720047175466814D+02 -.402785743619678D+02 -.795424997942199D+03
 0.000000000000000D+00 0.000000000000000D+00 -.000000000000000D+00 -.000000000000000D+00
 0.189404952606651D+04 0.000000000000000D+00 0.000000000000000D+00 0.189404952606651D+04
 0.220025404789394D+04 0.000000000000000D+00 0.000000000000000D+00 -.220025404789394D+04
 0.823938864211297D+03 -.565886293275485D+03 -.308641173934407D+03 -.497758556725170D+03
 0.144935437344196D+04 -.145707350287870D+03 0.638023323888157D+03 0.129318355466737D+04
 0.814430939255225D+03 -.162164925414459D+03 0.655695388890607D+02 -.795424997942199D+03
 0.100657939705197D+04 0.873758568977814D+03 -.394951688842810D+03 -.306204521827429D+03
0.273007729305D+00 0.000000000000D+00 0.000000000000D+00 0.136684999333D-03 0.000000000000D+00  6 2 -2 25 1 -1 21 0 0.39216338D+00 0.12998144D+00 0.33316630D+06 0.33316630D+06 0.33316630D+06 0.10811986D+01  1  2  2  1  6  1        2 0.498561742307D-01 0.100000000000D+01
0.686237512663D-01 0.000000000000D+00 -.104842156512D-02 0.136684999333D-03 0.000000000000D+00  6 2 -2 25 1 -1 21 2 0.39216338D+00 0.12998144D+00 0.33316630D+06 0.33316630D+06 0.33316630D+06 0.10811986D+01  1  2  3  1  6  1        2 0.146497236340D-01 0.100000000000D+01
-.170996282983D+00 0.000000000000D+00 0.000000000000D+00 0.136684999333D-03 0.000000000000D+00  6 2 -2 25 1 -1 21 2 0.39216338D+00 0.12998144D+00 0.33316630D+06 0.33316630D+06 0.33316630D+06 0.10811986D+01  1  2 15  1  6  1        2 -.365041001392D-01 0.100000000000D+01
-.805274396358D-03 0.000000000000D+00 0.000000000000D+00 0.136684999333D-03 0.000000000000D+00  6 2 -2 25 1 -1 21 2 0.39216338D+00 0.12998144D+00 0.33316630D+06 0.33316630D+06 0.33316630D+06 0.10811986D+01  1  2  4  1  6  1        2 -.171909100545D-03 0.100000000000D+01
  </mgrwgt>
  </event>
  <event>
  6     66 0.18881543E-05 0.76007715E+02 0.75467711E-02 0.93058275E-01
        2 -1    0    0  502    0 0.00000000E+00 0.00000000E+00 0.14723641E+04 0.14723641E+04 0.32000000E+00 0.0000E+00 0.9000E+01
       -2 -1    0    0    0  503 0.00000000E+00 0.00000000E+00 -.13606550E+04 0.13606550E+04 0.32000000E+00 0.0000E+00 0.9000E+01
       25  1    1    2    0    0 -.47969762E+03 0.11478692E+03 0.87998903E+03 0.10165095E+04 0.12500000E+03 0.0000E+00 0.9000E+01
        1  1    1    2  502    0 -.66648617E+01 0.91684619E+02 0.42385429E+03 0.43370849E+03 0.32000000E+00 0.0000E+00 0.9000E+01
       -1  1    1    2    0  501 0.46472367E+03 -.22965395E+03 -.61297920E+03 0.80277807E+03 0.32000000E+00 0.0000E+00 0.9000E+01
       21  1    1    2  501  503 0.21638813E+02 0.23182404E+02 -.57915505E+03 0.58002310E+03 0.75000000E+00 0.0000E+00 0.9000E+01
#aMCatNLO 2  0  0  2  5 0.31712176D+02 0.00000000D+00  -5  6  0 0.00000000D+00 0.00000000D+00 0.00000000D+00 0.00000000D+00 0.00000000D+00
  <mgrwgt>
 0.9547420311D-03    3    2    0
 0.107211150012285D+04 0.000000000000000D+00 0.000000000000000D+00 0.107211150012285D+04
 0.107211150012285D+04 0.000000000000000D+00 0.000000000000000D+00 -.107211150012285D+04
 0.781145382636724D+03 -.471871110136077D+03 0.123338390505991D+03 0.597233962246800D+03
 0.319850249265820D+03 -.343749579987553D+01 0.950747542568875D+02 0.305373798288304D+03
 0.104322736834315D+04 0.475308605935953D+03 -.218413144762879D+03 -.902607760535104D+03
 0.000000000000000D+00 0.000000000000000D+00 0.000000000000000D+00 -.000000000000000D+00
 0.107254473549463D+04 0.000000000000000D+00 0.000000000000000D+00 0.107254473549463D+04
 0.186787451588417D+04 0.000000000000000D+00 0.000000000000000D+00 -.186787451588417D+04
 0.784659300239749D+03 -.479771478408585D+03 0.114874454502997D+03 0.597233962246800D+03
 0.318892011398470D+03 -.666031097321642D+01 0.916220416192305D+02 0.305373798288304D+03
 0.104090618080502D+04 0.464792976019000D+03 -.229678900431253D+03 -.902607760535104D+03
 0.795961758935548D+03 0.216388133628023D+02 0.231824043090252D+02 -.795329780389540D+03
-.256627705981D-07 0.000000000000D+00 0.000000000000D+00 0.526186828683D-05 0.000000000000D+00  6 2 -2 25 1 -1 21 2 0.22642602D+00 0.20933946D+00 0.33116738D+06 0.33116738D+06 0.33116738D+06 0.10813902D+01  1  2 13  2  6  2       -2 -.550178362183D-08 0.100000000000D+01
-.256906062645D-01 0.000000000000D+00 0.000000000000D+00 0.526186828683D-05 0.000000000000D+00  6 2 -2 25 1 -1 21 2 0.22642602D+00 0.20977796D+00 0.33116738D+06 0.33116738D+06 0.33116738D+06 0.10813902D+01  1  2 13  2  6  2       -2 -.547055632505D-02 0.100000000000D+01
0.299895052336D-01 0.000000000000D+00 0.000000000000D+00 0.526186828683D-05 0.438914862775D-07  6 2 -2 25 1 -1 21 2 0.22651752D+00 0.20933151D+00 0.33116738D+06 0.33116738D+06 0.33116738D+06 0.10813902D+01  1  2  1  2  6  2       -2 0.642530385796D-02 0.100000000000D+01
  </mgrwgt>
  </event>
  <event>
  5     66 -.18881543E-05 0.30280796E+02 0.75467711E-02 0.93285694E-01
        2 -1    0    0  502    0 0.00000000E+00 0.00000000E+00 0.60782458E+03 0.60782466E+03 0.32000000E+00 0.0000E+00 0.9000E+01
       -2 -1    0    0    0  501 0.00000000E+00 0.00000000E+00 -.10423304E+04 0.10423304E+04 0.32000000E+00 0.0000E+00 0.9000E+01
       25  1    1    2    0    0 0.32254278E+03 -.41252842E+03 0.43245147E+02 0.54010062E+03 0.12500000E+03 0.0000E+00 0.9000E+01
        1  1    1    2  502    0 0.75424458E+00 0.30289328E+02 0.23616478E+03 0.23810065E+03 0.32000000E+00 0.0000E+00 0.9000E+01
       -1  1    1    2    0  501 -.32329702E+03 0.38223909E+03 -.71391572E+03 0.87195381E+03 0.32000000E+00 0.0000E+00 0.9000E+01
#aMCatNLO 1  0  0  2  5 0.72747889D+02 0.00000000D+00  -5  6  0 0.00000000D+00 0.00000000D+00 0.00000000D+00 0.00000000D+00 0.00000000D+00
  <mgrwgt>
 -.5584803460D-02    7    4    0
 0.795961132823904D+03 0.000000000000000D+00 0.000000000000000D+00 0.795961132823904D+03
 0.795961132823904D+03 0.000000000000000D+00 0.000000000000000D+00 -.795961132823904D+03
 0.571793416915174D+03 0.322605816262013D+03 -.412589705858107D+03 0.192400451042535D+03
 0.311085923206608D+03 0.753798454707994D+00 0.302714119012474D+02 0.309608664327571D+03
 0.709042925526026D+03 -.323359614716721D+03 0.382318293956860D+03 -.502009115370106D+03
 0.000000000000000D+00 -.000000000000000D+00 0.000000000000000D+00 -.000000000000000D+00
 0.804158556215945D+03 0.000000000000000D+00 0.000000000000000D+00 0.804158556215945D+03
 0.976391301843816D+03 0.000000000000000D+00 0.000000000000000D+00 -.976391301843816D+03
 0.596324138412222D+03 0.339020861767433D+03 -.433617803806734D+03 0.192400451042535D+03
 0.310341331697975D+03 0.948644408702849D+01 0.190846669332570D+02 0.309608664327571D+03
 0.686918150294356D+03 -.303742783791718D+03 0.357188626055760D+03 -.502009115370106D+03
 0.186966237655209D+03 -.447645220627436D+02 0.573445108177170D+02 -.172232745627871D+03
 0.795961132823904D+03 0.000000000000000D+00 0.000000000000000D+00 0.795961132823904D+03
 0.795961132823904D+03 0.000000000000000D+00 0.000000000000000D+00 -.795961132823904D+03
 0.571793416915174D+03 0.322605816262013D+03 -.412589705858107D+03 0.192400451042535D+03
 0.311085923206608D+03 0.753798454707994D+00 0.302714119012474D+02 0.309608664327571D+03
 0.000000000000000D+00 -.000000000000000D+00 0.000000000000000D+00 -.000000000000000D+00
 0.709042925526026D+03 -.323359614716721D+03 0.382318293956860D+03 -.502009115370106D+03
 0.804158556215945D+03 0.000000000000000D+00 0.000000000000000D+00 0.804158556215945D+03
 0.976391301843816D+03 0.000000000000000D+00 0.000000000000000D+00 -.976391301843816D+03
 0.596324138412222D+03 0.339020861767433D+03 -.433617803806734D+03 0.192400451042535D+03
 0.310341331697975D+03 0.948644408702849D+01 0.190846669332570D+02 0.309608664327571D+03
 0.186966237655209D+03 -.447645220627436D+02 0.573445108177170D+02 -.172232745627871D+03
 0.686918150294356D+03 -.303742783791718D+03 0.357188626055760D+03 -.502009115370106D+03
0.272588269639D-03 0.000000000000D+00 0.000000000000D+00 0.272227458775D-04 0.000000000000D+00  6 2 -2 25 1 -1 21 0 0.93511484D-01 0.16035853D+00 0.28593631D+06 0.28593631D+06 0.28593631D+06 0.10860980D+01  1  2  2  2  6  2       -2 0.399708848682D-03 0.100000000000D+01
0.125487653075D-03 0.000000000000D+00 -.104681072956D-05 0.272227458775D-04 0.000000000000D+00  6 2 -2 25 1 -1 21 2 0.93511484D-01 0.16035853D+00 0.28593631D+06 0.28593631D+06 0.28593631D+06 0.10860980D+01  1  2  3  2  6  2       -2 0.217057899073D-03 0.100000000000D+01
-.169788762647D-03 0.000000000000D+00 0.000000000000D+00 0.272227458775D-04 0.000000000000D+00  6 2 -2 25 1 -1 21 2 0.93511484D-01 0.16035853D+00 0.28593631D+06 0.28593631D+06 0.28593631D+06 0.10860980D+01  1  2 15  2  6  2       -2 -.293686201020D-03 0.100000000000D+01
-.473247122129D-02 0.000000000000D+00 0.000000000000D+00 0.272227458775D-04 0.000000000000D+00  6 2 -2 25 1 -1 21 2 0.93511484D-01 0.16035853D+00 0.28593631D+06 0.28593631D+06 0.28593631D+06 0.10860980D+01  1  2  4  2  6  2       -2 -.818582733479D-02 0.100000000000D+01
-.392736959533D-02 0.000000000000D+00 -.322894021012D-03 0.272227458775D-04 0.000000000000D+00  6 2 -2 25 1 -1 21 2 0.93511484D-01 0.19750468D+00 0.28593631D+06 0.28593631D+06 0.28593631D+06 0.10860980D+01  1  2  5  2  6  2       -2 -.366568184265D-02 0.100000000000D+01
0.391621937361D-02 0.000000000000D+00 0.316010205462D-03 0.272227458775D-04 0.000000000000D+00  6 2 -2 25 1 -1 21 2 0.93511484D-01 0.16035853D+00 0.28593631D+06 0.28593631D+06 0.28593631D+06 0.10860980D+01  1  2  6  2  6  2       -2 0.677394411893D-02 0.100000000000D+01
-.111967969579D-03 0.000000000000D+00 -.953352657951D-05 0.272227458775D-04 0.000000000000D+00  6 2 21 25 1 2 -1 2 0.93511484D-01 0.19750468D+00 0.28593631D+06 0.28593631D+06 0.28593631D+06 0.10860980D+01  3  4  5  6  5  2       -2 -.830318948269D-03 0.100000000000D+01
  </mgrwgt>
  </event>
  <event>
  5     66 0.18881543E-05 0.73864739E+02 0.75467711E-02 0.94677468E-01
        2 -1    0    0  502    0 0.00000000E+00 0.00000000E+00 0.16645665E+04 0.16645666E+04 0.32000000E+00 0.0000E+00 0.9000E+01
       -2 -1    0    0    0  501 0.00000000E+00 0.00000000E+00 -.90739119E+03 0.90739125E+03 0.32000000E+00 0.0000E+00 0.9000E+01
       25  1    1    2    0    0 -.29939257E+03 -.34261239E+03 0.91795124E+02 0.48069794E+03 0.12500000E+03 0.0000E+00 0.9000E+01
        1  1    1    2  502    0 0.59851549E+02 0.43293852E+02 0.13256802E+04 0.13277367E+04 0.32000000E+00 0.0000E+00 0.9000E+01
       -1  1    1    2    0  501 0.23954103E+03 0.29931854E+03 -.66029999E+03 0.76352319E+03 0.32000000E+00 0.0000E+00 0.9000E+01
#aMCatNLO 1  0  0  5  2 0.17394900D+03 0.00000000D+00  -5  6  0 0.00000000D+00 0.00000000D+00 0.00000000D+00 0.00000000D+00 0.00000000D+00
  <mgrwgt>
 0.4631753082D-04    6    2    0
 0.122898865833350D+04 0.000000000000000D+00 0.000000000000000D+00 0.122898865833350D+04
 0.122898865833350D+04 -.000000000000000D+00 -.000000000000000D+00 -.122898865833350D+04
 0.474742057109783D+03 -.299416119953168D+03 -.342642701927578D+03 -.519710180464809D+02
 0.980881793932480D+03 0.598484455484358D+02 0.432916070611061D+02 0.978096669042331D+03
 0.100235346562474D+04 0.239567674404732D+03 0.299351094866472D+03 -.926125650995850D+03
 0.000000000000000D+00 0.000000000000000D+00 0.000000000000000D+00 -.000000000000000D+00
 0.122898865833350D+04 0.000000000000000D+00 0.000000000000000D+00 0.122898865833350D+04
 0.122898865833350D+04 -.000000000000000D+00 -.000000000000000D+00 -.122898865833350D+04
 0.473269517709414D+03 -.298060230907959D+03 -.340948454691554D+03 -.572126418498289D+02
 0.970461672854297D+03 0.626393452592979D+02 0.467789677252066D+02 0.967307551445357D+03
 0.791554186459423D+03 0.134473099804622D+03 0.316672203128660D+03 -.712877080074831D+03
 0.222691939643872D+03 0.100947785844038D+03 -.225027161623123D+02 -.197217829520696D+03
0.193994696567D-02 0.000000000000D+00 0.000000000000D+00 0.430501035691D-03 0.000000000000D+00  6 2 -2 25 1 -1 21 0 0.25608717D+00 0.13959865D+00 0.21583653D+06 0.21583653D+06 0.21583653D+06 0.10952926D+01  1  2  2  4  6  5       -1 0.939799672064D-03 0.100000000000D+01
0.628796950715D-03 0.000000000000D+00 -.744990714794D-05 0.430501035691D-03 0.000000000000D+00  6 2 -2 25 1 -1 21 2 0.25608717D+00 0.13959865D+00 0.21583653D+06 0.21583653D+06 0.21583653D+06 0.10952926D+01  1  2  3  4  6  5       -1 0.365440079964D-03 0.100000000000D+01
-.124698933782D-02 0.000000000000D+00 0.000000000000D+00 0.430501035691D-03 0.000000000000D+00  6 2 -2 25 1 -1 21 2 0.25608717D+00 0.13959865D+00 0.21583653D+06 0.21583653D+06 0.21583653D+06 0.10952926D+01  1  2 15  4  6  5       -1 -.724717069332D-03 0.100000000000D+01
-.374735778036D-02 0.000000000000D+00 0.000000000000D+00 0.430501035691D-03 0.000000000000D+00  6 2 -2 25 1 -1 21 2 0.25608717D+00 0.13959865D+00 0.21583653D+06 0.21583653D+06 0.21583653D+06 0.10952926D+01  1  2  4  4  6  5       -1 -.217786477074D-02 0.100000000000D+01
-.114924542262D-01 0.000000000000D+00 0.000000000000D+00 0.430501035691D-03 0.000000000000D+00  6 2 -2 25 1 -1 21 2 0.25608717D+00 0.13959865D+00 0.21583653D+06 0.21583653D+06 0.21583653D+06 0.10952926D+01  1  2  5  4  6  5       -1 -.667910902974D-02 0.100000000000D+01
0.143206282908D-01 0.000000000000D+00 -.000000000000D+00 0.430501035691D-03 0.000000000000D+00  6 2 -2 25 1 -1 21 2 0.25608717D+00 0.13959865D+00 0.21583653D+06 0.21583653D+06 0.21583653D+06 0.10952926D+01  1  2  6  4  6  5       -1 0.832276864860D-02 0.100000000000D+01
  </mgrwgt>
  </event>
  <event>
  5     66 0.18881543E-05 0.29373674E+02 0.75467711E-02 0.90038753E-01
        2 -1    0    0  502    0 0.00000000E+00 0.00000000E+00 0.45842377E+04 0.45842377E+04 0.32000000E+00 0.0000E+00 0.9000E+01
       -2 -1    0    0    0  501 0.00000000E+00 0.00000000E+00 -.17098597E+03 0.17098627E+03 0.32000000E+00 0.0000E+00 0.9000E+01
       25  1    1    2    0    0 -.23393062E+03 0.60290601E+03 0.20052199E+04 0.21106281E+04 0.12500000E+03 0.0000E+00 0.9000E+01
        1  1    1    2  502    0 -.25738901E+02 -.14190842E+02 0.16501569E+04 0.16504186E+04 0.32000000E+00 0.0000E+00 0.9000E+01
       -1  1    1    2    0  501 0.25966952E+03 -.58871517E+03 0.75787494E+03 0.99417722E+03 0.32000000E+00 0.0000E+00 0.9000E+01
#aMCatNLO 1  0  0  4  1 0.16712047D+01 0.00000000D+00  -5  6  0 0.00000000D+00 0.00000000D+00 0.00000000D+00 0.00000000D+00 0.00000000D+00
  <mgrwgt>
 0.2965915540D-02    4    2    0
 0.885347996884289D+03 0.000000000000000D+00 0.000000000000000D+00 0.885347996884289D+03
 0.885347996884289D+03 -.000000000000000D+00 -.000000000000000D+00 -.885347996884289D+03
 0.670474028068215D+03 -.233985990644413D+03 0.603004125059735D+03 0.124687624314175D+03
 0.319199797669849D+03 -.257231299130543D+02 -.141821466361845D+02 0.317845399741350D+03
 0.781022168030515D+03 0.259709120557467D+03 -.588821978423551D+03 -.442533024055525D+03
 0.000000000000000D+00 0.000000000000000D+00 0.000000000000000D+00 0.000000000000000D+00
 0.885347996884289D+03 0.000000000000000D+00 0.000000000000000D+00 0.885347996884289D+03
 0.885347996884289D+03 -.000000000000000D+00 -.000000000000000D+00 -.885347996884289D+03
 0.681561210480585D+03 -.238224076970320D+03 0.600667505762862D+03 0.177055133515020D+03
 0.124844127220453D+03 -.115307079322803D+03 -.441093858313092D+02 0.185659807461419D+02
 0.749464178218985D+03 0.254911661829254D+03 -.591467001148023D+03 -.383253683152389D+03
 0.214826477848556D+03 0.986194944638697D+02 0.349088812164699D+02 0.187632568891227D+03
0.304210559644D-01 0.000000000000D+00 0.000000000000D+00 0.106310727040D-04 0.000000000000D+00  6 2 -2 25 1 -1 21 0 0.70526736D+00 0.26305558D-01 0.44335915D+06 0.44335915D+06 0.44335915D+06 0.10722203D+01  1  2  2  3  6  4        1 0.462067655824D-02 0.100000000000D+01
0.160135769689D-01 0.000000000000D+00 -.116824864951D-03 0.106310727040D-04 0.000000000000D+00  6 2 -2 25 1 -1 21 2 0.70526736D+00 0.26305558D-01 0.44335915D+06 0.44335915D+06 0.44335915D+06 0.10722203D+01  1  2  3  3  6  4        1 0.279632528441D-02 0.100000000000D+01
-.207519946238D-01 0.000000000000D+00 0.000000000000D+00 0.106310727040D-04 0.000000000000D+00  6 2 -2 25 1 -1 21 2 0.70526736D+00 0.26305558D-01 0.44335915D+06 0.44335915D+06 0.44335915D+06 0.10722203D+01  1  2 15  3  6  4        1 -.362375797620D-02 0.100000000000D+01
-.473781999321D-02 0.000000000000D+00 0.000000000000D+00 0.106310727040D-04 0.000000000000D+00  6 2 -2 25 1 -1 21 2 0.70526736D+00 0.26305558D-01 0.44335915D+06 0.44335915D+06 0.44335915D+06 0.10722203D+01  1  2  4  3  6  4        1 -.827328326813D-03 0.100000000000D+01
  </mgrwgt>
  </event>
  <event>
  5     66 0.18881543E-05 0.30509284E+03 0.75467711E-02 0.92109752E-01
        2 -1    0    0  502    0 0.00000000E+00 0.00000000E+00 0.13378268E+04 0.13378268E+04 0.32000000E+00 0.0000E+00 0.9000E+01
       -2 -1    0    0    0  501 0.00000000E+00 0.00000000E+00 -.81538760E+03 0.81538767E+03 0.32000000E+00 0.0000E+00 0.9000E+01
       25  1    1    2    0    0 0.60370761E+02 0.53396340E+03 -.25953239E+03 0.60970780E+03 0.12500000E+03 0.0000E+00 0.9000E+01
        1  1    1    2  502    0 0.19946661E+03 -.23087696E+03 0.10295102E+04 0.10737702E+04 0.32000000E+00 0.0000E+00 0.9000E+01
       -1  1    1    2    0  501 -.25983737E+03 -.30308645E+03 -.24753865E+03 0.46973646E+03 0.32000000E+00 0.0000E+00 0.9000E+01
#aMCatNLO 1  0  0  4  1 0.16712047D+01 0.00000000D+00  -5  6  0 0.00000000D+00 0.00000000D+00 0.00000000D+00 0.00000000D+00 0.00000000D+00
  <mgrwgt>
 0.1291350079D-03    1    2    0
 0.104443643872854D+04 0.000000000000000D+00 0.000000000000000D+00 0.104443643872854D+04
 0.104443643872854D+04 -.000000000000000D+00 -.000000000000000D+00 -.104443643872854D+04
 0.693400914402472D+03 0.603982883998595D+02 0.534001083105173D+03 -.419969901415629D+03
 0.849314886483025D+03 0.199456477442502D+03 -.230865224015513D+03 0.792624840859892D+03
 0.546157076571586D+03 -.259854765842362D+03 -.303135859089660D+03 -.372654939444263D+03
 0.000000000000000D+00 -.000000000000000D+00 0.000000000000000D+00 0.000000000000000D+00
 0.104443643872854D+04 0.000000000000000D+00 0.000000000000000D+00 0.104443643872854D+04
 0.104443643872854D+04 -.000000000000000D+00 -.000000000000000D+00 -.104443643872854D+04
 0.629907143210717D+03 0.809927410724514D+02 0.510163587373276D+03 -.338129115989569D+03
 0.620473740911458D+03 0.346595303838817D+03 -.319058005346366D+03 0.403808553329341D+03
 0.507523198109775D+03 -.243456491514532D+03 -.322116397223617D+03 -.307489446971250D+03
 0.330968795225133D+03 -.184131553396736D+03 0.131010815196708D+03 0.241810009631478D+03
0.119132504296D-03 0.000000000000D+00 0.000000000000D+00 0.388711173890D-06 0.000000000000D+00  6 2 -2 25 1 -1 21 2 0.20581951D+00 0.12544425D+00 0.39445549D+06 0.39445549D+06 0.39445549D+06 0.10758649D+01  1  2 14  3  6  4        1 0.129135007915D-03 0.100000000000D+01
  </mgrwgt>
  </event>
  <event>
  5     66 0.18881543E-05 0.18583499E+03 0.75467711E-02 0.94188662E-01
        2 -1    0    0  502    0 0.00000000E+00 0.00000000E+00 0.17287218E+04 0.17287218E+04 0.32000000E+00 0.0000E+00 0.9000E+01
       -2 -1    0    0    0  501 0.00000000E+00 0.00000000E+00 -.97917002E+03 0.97917007E+03 0.32000000E+00 0.0000E+00 0.9000E+01
       25  1    1    2    0    0 -.25235375E+03 0.44317327E+03 0.53269342E+03 0.74797877E+03 0.12500000E+03 0.0000E+00 0.9000E+01
        1  1    1    2  502    0 0.77587462E+02 -.16889160E+03 0.10495928E+04 0.10659218E+04 0.32000000E+00 0.0000E+00 0.9000E+01
       -1  1    1    2    0  501 0.17476629E+03 -.27428167E+03 -.83273445E+03 0.89399130E+03 0.32000000E+00 0.0000E+00 0.9000E+01
#aMCatNLO 1  0  0  5  2 0.22634071D+02 0.00000000D+00  -5  6  0 0.00000000D+00 0.00000000D+00 0.00000000D+00 0.00000000D+00 0.00000000D+00
  <mgrwgt>
 0.6008911439D-02    8    2    0
 0.130104291787219D+04 0.000000000000000D+00 0.000000000000000D+00 0.130104291787219D+04
 0.130104291787219D+04 -.000000000000000D+00 -.000000000000000D+00 -.130104291787219D+04
 0.625027526417979D+03 -.252363890409085D+03 0.443183217416263D+03 0.339021402566766D+03
 0.806809162972760D+03 0.775767426337910D+02 -.168868266656428D+03 0.785115522057480D+03
 0.117024914635365D+04 0.174787147775295D+03 -.274314950759836D+03 -.112413692462425D+04
 0.000000000000000D+00 0.000000000000000D+00 0.000000000000000D+00 0.000000000000000D+00
 0.130104291787219D+04 0.000000000000000D+00 0.000000000000000D+00 0.130104291787219D+04
 0.130104291787219D+04 -.000000000000000D+00 -.000000000000000D+00 -.130104291787219D+04
 0.624620519842432D+03 -.252282550692102D+03 0.443055561002487D+03 0.338498269255971D+03
 0.806196732156840D+03 0.776817333496935D+02 -.169033041489301D+03 0.784440278242412D+03
 0.104354352281666D+04 0.133668216838914D+03 -.242256972698649D+03 -.100619453934048D+04
 0.127725060928460D+03 0.409326005034944D+02 -.317655468145372D+02 -.116744008157908D+03
0.252740084955D-03 0.000000000000D+00 0.000000000000D+00 0.490740602058D-04 0.000000000000D+00  6 2 -2 25 1 -1 21 0 0.26595721D+00 0.15064155D+00 0.26842612D+06 0.26842612D+06 0.26842612D+06 0.10881432D+01  1  2  2  4  6  5       -1 0.904460213899D-04 0.100000000000D+01
0.286503716917D-04 0.000000000000D+00 -.970588474220D-06 0.490740602058D-04 0.000000000000D+00  6 2 -2 25 1 -1 21 2 0.26595721D+00 0.15064155D+00 0.26842612D+06 0.26842612D+06 0.26842612D+06 0.10881432D+01  1  2  3  4  6  5       -1 0.121399734394D-04 0.100000000000D+01
-.171009628901D-03 0.000000000000D+00 0.000000000000D+00 0.490740602058D-04 0.000000000000D+00  6 2 -2 25 1 -1 21 2 0.26595721D+00 0.15064155D+00 0.26842612D+06 0.26842612D+06 0.26842612D+06 0.10881432D+01  1  2 15  4  6  5       -1 -.724616202221D-04 0.100000000000D+01
0.782337609693D-09 0.000000000000D+00 0.000000000000D+00 0.490740602058D-04 0.000000000000D+00  6 2 -2 25 1 -1 21 2 0.26595721D+00 0.15064155D+00 0.27012718D+06 0.27012718D+06 0.27012718D+06 0.10879382D+01  1  2 12  4  6  5       -1 0.331222452987D-09 0.100000000000D+01
0.231187116639D-01 0.000000000000D+00 0.000000000000D+00 0.490740602058D-04 0.000000000000D+00  6 2 -2 25 1 -1 21 2 0.26595721D+00 0.15064155D+00 0.27012718D+06 0.27012718D+06 0.27012718D+06 0.10879382D+01  1  2 12  4  6  5       -1 0.978789245506D-02 0.100000000000D+01
-.122538213468D-01 0.000000000000D+00 0.000000000000D+00 0.490740602058D-04 0.000000000000D+00  6 2 -2 25 1 -1 21 2 0.26595721D+00 0.15064155D+00 0.26842612D+06 0.26842612D+06 0.26842612D+06 0.10881432D+01  1  2  4  4  6  5       -1 -.519229095112D-02 0.100000000000D+01
-.283705814615D-01 0.000000000000D+00 0.000000000000D+00 0.490740602058D-04 0.000000000000D+00  6 2 -2 25 1 -1 21 2 0.26595721D+00 0.15064155D+00 0.26842612D+06 0.26842612D+06 0.26842612D+06 0.10881432D+01  1  2  5  4  6  5       -1 -.120214183994D-01 0.100000000000D+01
0.316349025182D-01 0.000000000000D+00 -.000000000000D+00 0.490740602058D-04 0.000000000000D+00  6 2 -2 25 1 -1 21 2 0.26595721D+00 0.15064155D+00 0.26842612D+06 0.26842612D+06 0.26842612D+06 0.10881432D+01  1  2  6  4  6  5       -1 0.134046036282D-01 0.100000000000D+01
  </mgrwgt>
  </event>
  <event>
  5     66 -.18881543E-05 0.54506259E+02 0.75467711E-02 0.94531335E-01
        2 -1    0    0  502    0 0.00000000E+00 0.00000000E+00 0.10624504E+04 0.10624504E+04 0.32000000E+00 0.0000E+00 0.9000E+01
       -2 -1    0    0    0  501 -.00000000E+00 -.00000000E+00 -.14360244E+04 0.14360244E+04 0.32000000E+00 0.0000E+00 0.9000E+01
       25  1    1    2    0    0 -.24655680E+03 0.42124092E+03 0.41849964E+03 0.65498176E+03 0.12500000E+03 0.0000E+00 0.9000E+01
        1  1    1    2  502    0 0.26307445E+03 -.36930478E+03 0.42721776E+03 0.62298419E+03 0.32000000E+00 0.0000E+00 0.9000E+01
       -1  1    1    2    0  501 -.16517650E+02 -.51936138E+02 -.12192914E+04 0.12205089E+04 0.32000000E+00 0.0000E+00 0.9000E+01
#aMCatNLO 1  0  0  4  5 0.52564197D+02 0.00000000D+00  -5  6  0 0.00000000D+00 0.00000000D+00 0.00000000D+00 0.00000000D+00 0.00000000D+00
  <mgrwgt>
 -.3699116240D-01    6    2    0
 0.123519420712512D+04 0.000000000000000D+00 0.000000000000000D+00 0.123519420712512D+04
 0.123519420712512D+04 -.000000000000000D+00 -.000000000000000D+00 -.123519420712512D+04
 0.725778771954231D+03 -.246505499873817D+03 0.421178078545638D+03 0.522469033057420D+03
 0.694540764712661D+03 0.263025064761005D+03 -.369235454046575D+03 0.526184253498844D+03
 0.105006887758336D+04 -.165195648871882D+02 -.519426244990632D+02 -.104865328655627D+04
 0.000000000000000D+00 0.000000000000000D+00 0.000000000000000D+00 0.000000000000000D+00
 0.123519420712512D+04 0.000000000000000D+00 0.000000000000000D+00 0.123519420712512D+04
 0.123519420712512D+04 -.000000000000000D+00 -.000000000000000D+00 -.123519420712512D+04
 0.726017927537104D+03 -.245680099781306D+03 0.420019379171472D+03 0.524120254137475D+03
 0.408767970780675D+03 0.181958887185382D+03 -.241272282493246D+03 0.275263333938445D+03
 0.104775233332699D+04 -.153268759782213D+02 -.536169251260352D+02 -.104626730055226D+04
 0.287850182605481D+03 0.790480885741450D+02 -.125130171552191D+03 0.246883712476344D+03
0.372978363985D-02 0.000000000000D+00 0.000000000000D+00 0.110847786248D-03 0.000000000000D+00  6 2 -2 25 1 -1 21 0 0.16345391D+00 0.22092684D+00 0.25584013D+06 0.25584013D+06 0.25584013D+06 0.10897055D+01  1  2  2  3  6  4        1 0.100121515635D-02 0.100000000000D+01
0.166006827773D-02 0.000000000000D+00 -.143233512516D-04 0.110847786248D-03 0.000000000000D+00  6 2 -2 25 1 -1 21 2 0.16345391D+00 0.22092684D+00 0.25584013D+06 0.25584013D+06 0.25584013D+06 0.10897055D+01  1  2  3  3  6  4        1 0.529161181088D-03 0.100000000000D+01
-.248915017740D-02 0.000000000000D+00 0.000000000000D+00 0.110847786248D-03 0.000000000000D+00  6 2 -2 25 1 -1 21 2 0.16345391D+00 0.22092684D+00 0.25584013D+06 0.25584013D+06 0.25584013D+06 0.10897055D+01  1  2 15  3  6  4        1 -.793438237120D-03 0.100000000000D+01
-.137061174270D+00 0.000000000000D+00 0.000000000000D+00 0.110847786248D-03 0.000000000000D+00  6 2 -2 25 1 -1 21 2 0.16345391D+00 0.22092684D+00 0.25584013D+06 0.25584013D+06 0.25584013D+06 0.10897055D+01  1  2  4  3  6  4        1 -.436894396640D-01 0.100000000000D+01
-.382179173305D-01 0.000000000000D+00 0.000000000000D+00 0.110847786248D-03 0.000000000000D+00  6 2 -2 25 1 -1 21 2 0.16345391D+00 0.22092684D+00 0.25584013D+06 0.25584013D+06 0.25584013D+06 0.10897055D+01  1  2  5  3  6  4        1 -.121822930687D-01 0.100000000000D+01
0.569196482860D-01 0.000000000000D+00 -.000000000000D+00 0.110847786248D-03 0.000000000000D+00  6 2 -2 25 1 -1 21 2 0.16345391D+00 0.22092684D+00 0.25584013D+06 0.25584013D+06 0.25584013D+06 0.10897055D+01  1  2  6  3  6  4        1 0.181436322338D-01 0.100000000000D+01
  </mgrwgt>
  </event>
  <event>
  5     66 0.18881543E-05 0.16345577E+03 0.75467711E-02 0.86705545E-01
        2 -1    0    0  502    0 0.00000000E+00 0.00000000E+00 0.19207936E+04 0.19207936E+04 0.32000000E+00 0.0000E+00 0.9000E+01
       -2 -1    0    0    0  501 0.00000000E+00 0.00000000E+00 -.20152552E+04 0.20152552E+04 0.32000000E+00 0.0000E+00 0.9000E+01
       25  1    1    2    0    0 0.58603944E+03 0.79912280E+01 -.26134418E+03 0.65378274E+03 0.12500000E+03 0.0000E+00 0.9000E+01
        1  1    1    2  502    0 -.15114175E+03 0.62248064E+02 0.16894036E+04 0.16972929E+04 0.32000000E+00 0.0000E+00 0.9000E+01
       -1  1    1    2    0  501 -.43489770E+03 -.70239292E+02 -.15225210E+04 0.15849731E+04 0.32000000E+00 0.0000E+00 0.9000E+01
#aMCatNLO 1  0  0  1  4 0.90867512D+01 0.00000000D+00  -5  6  0 0.00000000D+00 0.00000000D+00 0.00000000D+00 0.00000000D+00 0.00000000D+00
  <mgrwgt>
 0.4806459800D-02    4    2    0
 0.196745756477470D+04 0.000000000000000D+00 0.000000000000000D+00 0.196745756477470D+04
 0.196745756477470D+04 0.000000000000000D+00 0.000000000000000D+00 -.196745756477470D+04
 0.647706174318230D+03 0.586065666995532D+03 0.799593436730794D+01 -.245685545469475D+03
 0.173830974111052D+04 -.151139316340910D+03 0.622470622422088D+02 0.173060768700995D+04
 0.154889921412066D+04 -.434926350654622D+03 -.702429966095167D+02 -.148492214154048D+04
 0.000000000000000D+00 -.000000000000000D+00 -.000000000000000D+00 -.000000000000000D+00
 0.226689464015483D+04 0.000000000000000D+00 0.000000000000000D+00 0.226689464015483D+04
 0.246469289943899D+04 0.000000000000000D+00 0.000000000000000D+00 -.246469289943899D+04
 0.681885923526662D+03 0.611292975253594D+03 0.123704987194470D+03 -.245685545469475D+03
 0.177125180084840D+04 -.845498781115883D+02 0.367670088234107D+03 0.173060768700995D+04
 0.154471217839438D+04 -.376229034119628D+03 0.198981560774242D+03 -.148492214154048D+04
 0.733737636824378D+03 -.150514063022378D+03 -.690356636202819D+03 -.197798259284168D+03
0.425728889053D+00 0.000000000000D+00 0.000000000000D+00 0.227021289789D-03 0.000000000000D+00  6 2 -2 25 1 -1 21 0 0.29550671D+00 0.31003926D+00 0.36199421D+06 0.36199421D+06 0.36199421D+06 0.10785673D+01  1  2  2  1  6  1        2 0.976164521412D-02 0.100000000000D+01
0.883313661387D-01 0.000000000000D+00 -.163491103095D-02 0.227021289789D-03 0.000000000000D+00  6 2 -2 25 1 -1 21 2 0.29550671D+00 0.31003926D+00 0.36199421D+06 0.36199421D+06 0.36199421D+06 0.10785673D+01  1  2  3  1  6  1        2 0.235613052737D-02 0.100000000000D+01
-.270612016954D+00 0.000000000000D+00 0.000000000000D+00 0.227021289789D-03 0.000000000000D+00  6 2 -2 25 1 -1 21 2 0.29550671D+00 0.31003926D+00 0.36199421D+06 0.36199421D+06 0.36199421D+06 0.10785673D+01  1  2 15  1  6  1        2 -.721824264798D-02 0.100000000000D+01
-.348931907634D-02 0.000000000000D+00 0.000000000000D+00 0.227021289789D-03 0.000000000000D+00  6 2 -2 25 1 -1 21 2 0.29550671D+00 0.31003926D+00 0.36199421D+06 0.36199421D+06 0.36199421D+06 0.10785673D+01  1  2  4  1  6  1        2 -.930732938352D-04 0.100000000000D+01
  </mgrwgt>
  </event>
  <event>
  5     66 0.18881543E-05 0.16624349E+03 0.75467711E-02 0.90183524E-01
        2 -1    0    0  502    0 0.00000000E+00 0.00000000E+00 0.19056064E+04 0.19056064E+04 0.32000000E+00 0.0000E+00 0.9000E+01
       -2 -1    0    0    0  501 0.00000000E+00 0.00000000E+00 -.51602309E+04 0.51602309E+04 0.32000000E+00 0.0000E+00 0.9000E+01
       25  1    1    2    0    0 0.70109312E+03 -.15458243E+03 -.13702009E+03 0.74150307E+03 0.12500000E+03 0.0000E+00 0.9000E+01
        1  1    1    2  502    0 -.13941009E+03 -.90569046E+02 0.15790937E+04 0.15878208E+04 0.32000000E+00 0.0000E+00 0.9000E+01
       -1  1    1    2    0  501 -.56168304E+03 0.24515147E+03 -.46966981E+04 0.47365135E+04 0.32000000E+00 0.0000E+00 0.9000E+01
#aMCatNLO 1  0  0  1  1 0.15036582D+01 0.00000000D+00  -5  6  0 0.00000000D+00 0.00000000D+00 0.00000000D+00 0.00000000D+00 0.00000000D+00
  <mgrwgt>
 0.1718144671D-02   10    2    0
 0.313582033046882D+04 0.000000000000000D+00 0.000000000000000D+00 0.313582033046882D+04
 0.313582033046882D+04 0.000000000000000D+00 0.000000000000000D+00 -.313582033046882D+04
 0.764336011586137D+03 0.701117000956523D+03 -.154595050622228D+03 0.230477460720662D+03
 0.260830259473099D+04 -.139407500506740D+03 -.905673649772937D+02 0.260299933286276D+04
 0.289900205462051D+04 -.561709500449783D+03 0.245162415599522D+03 -.283347679358342D+04
 0.000000000000000D+00 -.000000000000000D+00 -.000000000000000D+00 0.000000000000000D+00
 0.315087538177107D+04 0.000000000000000D+00 0.000000000000000D+00 0.315087538177107D+04
 0.313585796615909D+04 0.000000000000000D+00 0.000000000000000D+00 -.313585796615909D+04
 0.764376170610820D+03 0.701197102000103D+03 -.154430225163583D+03 0.230477460720662D+03
 0.260826853051176D+04 -.139134164037059D+03 -.900049152642044D+02 0.260299933286276D+04
 0.289899614006996D+04 -.561405698523248D+03 0.245787554669382D+03 -.283347679358342D+04
 0.150925067376182D+02 -.657239439796196D+00 -.135241424159518D+01 0.150174156119805D+02
0.276402219052D+00 0.000000000000D+00 0.000000000000D+00 0.536766111541D-03 0.000000000000D+00  6 2 -2 25 1 -1 21 0 0.29317022D+00 0.79388168D+00 0.56842757D+06 0.56842757D+06 0.56842757D+06 0.10645956D+01  1  2  2  1  6  1        2 0.203235510006D-04 0.100000000000D+01
0.698690991688D-01 0.000000000000D+00 -.106145729953D-02 0.536766111541D-03 0.000000000000D+00  6 2 -2 25 1 -1 21 2 0.29317022D+00 0.79388168D+00 0.56842757D+06 0.56842757D+06 0.56842757D+06 0.10645956D+01  1  2  3  1  6  1        2 0.582254071354D-05 0.100000000000D+01
-.176308459239D+00 0.000000000000D+00 0.000000000000D+00 0.536766111541D-03 0.000000000000D+00  6 2 -2 25 1 -1 21 2 0.29317022D+00 0.79388168D+00 0.56842757D+06 0.56842757D+06 0.56842757D+06 0.10645956D+01  1  2 15  1  6  1        2 -.146926637708D-04 0.100000000000D+01
-.341313604242D+03 0.000000000000D+00 0.000000000000D+00 0.536766111541D-03 0.000000000000D+00  6 2 -2 25 1 -1 21 2 0.29317022D+00 0.79388168D+00 0.56842757D+06 0.56842757D+06 0.56842757D+06 0.10645956D+01  1  2  4  1  6  1        2 -.284433659576D-01 0.100000000000D+01
-.231732759795D+04 0.000000000000D+00 -.111876965120D+02 0.536766111541D-03 0.000000000000D+00  6 2 -2 25 1 -1 21 2 0.29457897D+00 0.79388168D+00 0.56842757D+06 0.56842757D+06 0.56842757D+06 0.10645956D+01  1  2  5  1  6  1        2 -.190879667418D+00 0.100000000000D+01
0.231735473101D+04 0.000000000000D+00 0.111875679671D+02 0.536766111541D-03 0.000000000000D+00  6 2 -2 25 1 -1 21 2 0.29317022D+00 0.79388168D+00 0.56842757D+06 0.56842757D+06 0.56842757D+06 0.10645956D+01  1  2  6  1  6  1        2 0.193116734429D+00 0.100000000000D+01
0.338969203354D+03 0.000000000000D+00 0.000000000000D+00 0.536766111541D-03 0.184052865510D-02  6 2 -2 25 1 -1 21 2 0.29457772D+00 0.79389121D+00 0.56916855D+06 0.56916855D+06 0.56916855D+06 0.10645561D+01  1  2 11  1  6  1        2 0.279143070485D-01 0.100000000000D+01
0.193058609713D-13 0.000000000000D+00 0.000000000000D+00 0.536766111541D-03 0.000000000000D+00  6 21 -2 25 1 -1 -2 2 0.29457948D+00 0.79388168D+00 0.56916855D+06 0.56916855D+06 0.56916855D+06 0.10645561D+01  1  2 12  5  6  1        2 0.334902309133D-18 0.100000000000D+01
-.206826879044D+01 0.000000000000D+00 -.998386497533D-02 0.536766111541D-03 0.000000000000D+00  6 21 -2 25 1 -1 -2 2 0.29457897D+00 0.79388168D+00 0.56842757D+06 0.56842757D+06 0.56842757D+06 0.10645956D+01  1  2  5  5  6  1        2 -.358894246744D-04 0.100000000000D+01
0.199297597704D+01 0.000000000000D+00 0.000000000000D+00 0.536766111541D-03 0.127709085823D-05  6 21 -2 25 1 -1 -2 2 0.29457772D+00 0.79389121D+00 0.56916855D+06 0.56916855D+06 0.56916855D+06 0.10645561D+01  1  2 11  5  6  1        2 0.345725655545D-04 0.100000000000D+01
  </mgrwgt>
  </event>
  <event>
  6     66 0.18881543E-05 0.20246964E+03 0.75467711E-02 0.92173143E-01
        2 -1    0    0  502    0 0.00000000E+00 0.00000000E+00 0.37134126E+04 0.37134126E+04 0.32000000E+00 0.0000E+00 0.9000E+01
       -2 -1    0    0    0  501 0.00000000E+00 0.00000000E+00 -.23197702E+03 0.23197724E+03 0.32000000E+00 0.0000E+00 0.9000E+01
       25  1    1    2    0    0 -.49542910E+03 0.12591229E+03 0.78086609E+03 0.94163728E+03 0.12500000E+03 0.0000E+00 0.9000E+01
        1  1    1    2  503    0 -.73999846E+01 -.18179842E+03 0.20298658E+04 0.20380041E+04 0.32000000E+00 0.0000E+00 0.9000E+01
       -1  1    1    2    0  501 0.50862897E+03 0.80386263E+02 0.30359234E+03 0.59777403E+03 0.32000000E+00 0.0000E+00 0.9000E+01
       21  1    1    2  502  503 -.57998765E+01 -.24500134E+02 0.36711132E+03 0.36797442E+03 0.75000000E+00 0.0000E+00 0.9000E+01
#aMCatNLO 2  0  0  4  1 0.79880568D+01 0.00000000D+00  -5  6  0 0.00000000D+00 0.00000000D+00 0.00000000D+00 0.00000000D+00 0.00000000D+00
  <mgrwgt>
 0.1181159928D-02    3    2    0
 0.928130825817196D+03 0.000000000000000D+00 0.000000000000000D+00 0.928130825817196D+03
 0.928130825817196D+03 -.000000000000000D+00 -.000000000000000D+00 -.928130825817196D+03
 0.537111942564003D+03 -.495715457882776D+03 0.125870440241661D+03 -.106240556918328D+03
 0.617758055148923D+03 -.131983611367015D+02 -.206275110349270D+03 0.582152382813195D+03
 0.701391653921466D+03 0.508913819019478D+03 0.804046701076089D+02 -.475911825894867D+03
 0.000000000000000D+00 0.000000000000000D+00 0.000000000000000D+00 0.000000000000000D+00
 0.928130825817196D+03 0.000000000000000D+00 0.000000000000000D+00 0.928130825817196D+03
 0.928130825817196D+03 -.000000000000000D+00 -.000000000000000D+00 -.928130825817196D+03
 0.537083349361160D+03 -.495717953059356D+03 0.125831443519347D+03 -.106130499845622D+03
 0.524643199404044D+03 -.739559375578679D+01 -.181806336631134D+03 0.492079513731956D+03
 0.701285948923354D+03 0.508910560833253D+03 0.803537484275516D+02 -.475768114046491D+03
 0.932491539458329D+02 -.579701401811045D+01 -.243788553157649D+02 0.898191001601579D+02
-.328721902181D-07 0.000000000000D+00 0.000000000000D+00 0.641631356351D-06 0.000000000000D+00  6 2 -2 25 1 -1 21 2 0.57129426D+00 0.35688790D-01 0.38982756D+06 0.38982756D+06 0.38982756D+06 0.10762350D+01  1  2 13  3  6  4        1 -.197342985201D-07 0.100000000000D+01
-.342656180000D-02 0.000000000000D+00 0.000000000000D+00 0.641631356351D-06 0.000000000000D+00  6 2 -2 25 1 -1 21 2 0.57129426D+00 0.35688790D-01 0.38982756D+06 0.38982756D+06 0.38982756D+06 0.10762350D+01  1  2 13  3  6  4        1 -.205708208093D-02 0.100000000000D+01
0.539409880199D-02 0.000000000000D+00 0.000000000000D+00 0.641631356351D-06 0.710975608457D-07  6 2 -2 25 1 -1 21 2 0.57129426D+00 0.35688790D-01 0.38982756D+06 0.38982756D+06 0.38982756D+06 0.10762350D+01  1  2  1  3  6  4        1 0.323826174341D-02 0.100000000000D+01
  </mgrwgt>
  </event>
  <event>
  5     66 0.18881543E-05 0.29644772E+02 0.75467711E-02 0.93530282E-01
        2 -1    0    0  502    0 0.00000000E+00 0.00000000E+00 0.25312007E+04 0.25312007E+04 0.32000000E+00 0.0000E+00 0.9000E+01
       -2 -1    0    0    0  501 0.00000000E+00 0.00000000E+00 -.27347441E+03 0.27347460E+03 0.32000000E+00 0.0000E+00 0.9000E+01
       25  1    1    2    0    0 -.37515700E+03 -.30608244E+03 0.48642482E+03 0.69761260E+03 0.12500000E+03 0.0000E+00 0.9000E+01
        1  1    1    2  502    0 0.36255166E+03 0.27925473E+03 0.19106014E+04 0.19646436E+04 0.32000000E+00 0.0000E+00 0.9000E+01
       -1  1    1    2    0  501 0.12605339E+02 0.26827705E+02 -.13929992E+03 0.14241906E+03 0.32000000E+00 0.0000E+00 0.9000E+01
#aMCatNLO 1  0  0  5  4 0.45456402D+02 0.00000000D+00  -5  6  0 0.00000000D+00 0.00000000D+00 0.00000000D+00 0.00000000D+00 0.00000000D+00
  <mgrwgt>
 0.4603851090D-02    6    2    0
 0.831996934059602D+03 0.000000000000000D+00 0.000000000000000D+00 0.831996934059602D+03
 0.831996934059602D+03 -.000000000000000D+00 -.000000000000000D+00 -.831996934059602D+03
 0.515819986432807D+03 -.375147957659066D+03 -.306077202630972D+03 -.126593895182078D+03
 0.719075766804880D+03 0.362541125457337D+03 0.279246617536158D+03 0.554666762437383D+03
 0.429098114881516D+03 0.126068322017288D+02 0.268305850948146D+02 -.428072867255305D+03
 0.000000000000000D+00 0.000000000000000D+00 0.000000000000000D+00 0.000000000000000D+00
 0.831996934059602D+03 0.000000000000000D+00 0.000000000000000D+00 0.831996934059602D+03
 0.831996934059602D+03 -.000000000000000D+00 -.000000000000000D+00 -.831996934059602D+03
 0.517268884614577D+03 -.374927804331154D+03 -.305608659661261D+03 -.134069339037217D+03
 0.711531694623981D+03 0.362845990800868D+03 0.279895449487846D+03 0.544314869143042D+03
 0.165573551482722D+03 0.106469206866016D+02 -.590760844566307D+02 -.154308976653232D+03
 0.269619737397923D+03 0.143489284368431D+01 0.847892946300447D+02 -.255936553452592D+03
0.112811125791D-02 0.000000000000D+00 0.000000000000D+00 0.724426605835D-04 0.000000000000D+00  6 2 -2 25 1 -1 21 0 0.38941550D+00 0.42073002D-01 0.24369406D+06 0.24369406D+06 0.24369406D+06 0.10912948D+01  1  2  2  4  6  5       -1 0.264734608192D-02 0.100000000000D+01
0.588157120046D-03 0.000000000000D+00 -.433224426889D-05 0.724426605835D-04 0.000000000000D+00  6 2 -2 25 1 -1 21 2 0.38941550D+00 0.42073002D-01 0.24369406D+06 0.24369406D+06 0.24369406D+06 0.10912948D+01  1  2  3  4  6  5       -1 0.164375198808D-02 0.100000000000D+01
-.763535420750D-03 0.000000000000D+00 0.000000000000D+00 0.724426605835D-04 0.000000000000D+00  6 2 -2 25 1 -1 21 2 0.38941550D+00 0.42073002D-01 0.24369406D+06 0.24369406D+06 0.24369406D+06 0.10912948D+01  1  2 15  4  6  5       -1 -.213389045725D-02 0.100000000000D+01
-.507483713384D-04 0.000000000000D+00 0.000000000000D+00 0.724426605835D-04 0.000000000000D+00  6 2 -2 25 1 -1 21 2 0.38941550D+00 0.42073002D-01 0.24369406D+06 0.24369406D+06 0.24369406D+06 0.10912948D+01  1  2  4  4  6  5       -1 -.141829000171D-03 0.100000000000D+01
-.122307024292D-02 0.000000000000D+00 0.000000000000D+00 0.724426605835D-04 0.000000000000D+00  6 2 -2 25 1 -1 21 2 0.38941550D+00 0.42073002D-01 0.24369406D+06 0.24369406D+06 0.24369406D+06 0.10912948D+01  1  2  5  4  6  5       -1 -.341817530528D-02 0.100000000000D+01
0.214926137667D-02 0.000000000000D+00 -.000000000000D+00 0.724426605835D-04 0.000000000000D+00  6 2 -2 25 1 -1 21 2 0.38941550D+00 0.42073002D-01 0.24369406D+06 0.24369406D+06 0.24369406D+06 0.10912948D+01  1  2  6  4  6  5       -1 0.600664778237D-02 0.100000000000D+01
  </mgrwgt>
  </event>
  <event>
  5     66 0.18881543E-05 0.11822953E+02 0.75467711E-02 0.93986463E-01
        2 -1    0    0  502    0 0.00000000E+00 0.00000000E+00 0.26957576E+04 0.26957576E+04 0.32000000E+00 0.0000E+00 0.9000E+01
       -2 -1    0    0    0  501 0.00000000E+00 0.00000000E+00 -.18933743E+03 0.18933770E+03 0.32000000E+00 0.0000E+00 0.9000E+01
       25  1    1    2    0    0 0.25286778E+03 0.39178295E+03 0.43503967E+03 0.64986191E+03 0.12500000E+03 0.0000E+00 0.9000E+01
        1  1    1    2  502    0 -.25091575E+03 -.38012190E+03 0.21286103E+04 0.21767942E+04 0.32000000E+00 0.0000E+00 0.9000E+01
       -1  1    1    2    0  501 -.19520345E+01 -.11661042E+02 -.57229753E+02 0.58439176E+02 0.32000000E+00 0.0000E+00 0.9000E+01
#aMCatNLO 1  0  0  5  1 0.20768495D+03 0.00000000D+00  -5  6  0 0.00000000D+00 0.00000000D+00 0.00000000D+00 0.00000000D+00 0.00000000D+00
  <mgrwgt>
 0.1530753067D-01    6    2    0
 0.714428600258965D+03 0.000000000000000D+00 0.000000000000000D+00 0.714428600258965D+03
 0.714428600258965D+03 -.000000000000000D+00 -.000000000000000D+00 -.714428600258965D+03
 0.549067131812433D+03 0.252869646585308D+03 0.391785308457596D+03 -.261554830101338D+03
 0.661419345719216D+03 -.250917541878408D+03 -.380124626452683D+03 0.479605261056988D+03
 0.218370722986281D+03 -.195210470690058D+01 -.116606820049127D+02 -.218050430955649D+03
 0.000000000000000D+00 0.000000000000000D+00 -.000000000000000D+00 0.000000000000000D+00
 0.714428600258965D+03 0.000000000000000D+00 0.000000000000000D+00 0.714428600258965D+03
 0.714428600258965D+03 -.000000000000000D+00 -.000000000000000D+00 -.714428600258965D+03
 0.557447337136789D+03 0.252702091313217D+03 0.390784435533517D+03 -.280270782764766D+03
 0.646333839394728D+03 -.251115569962910D+03 -.381307525358290D+03 0.457485490014787D+03
 0.625604949902968D+02 -.265524531296472D+02 0.493583855228356D+02 -.277944696802794D+02
 0.162515528996116D+03 0.249659317793402D+02 -.588352956980625D+02 -.149420237569742D+03
0.316777334544D-02 0.000000000000D+00 0.000000000000D+00 0.375244183583D-04 0.000000000000D+00  6 2 -2 25 1 -1 21 0 0.41473196D+00 0.29128857D-01 0.22565413D+06 0.22565413D+06 0.22565413D+06 0.10938225D+01  1  2  2  4  6  5       -1 0.117047414284D-01 0.100000000000D+01
0.223795838745D-02 0.000000000000D+00 -.121650837404D-04 0.375244183583D-04 0.000000000000D+00  6 2 -2 25 1 -1 21 2 0.41473196D+00 0.29128857D-01 0.22565413D+06 0.22565413D+06 0.22565413D+06 0.10938225D+01  1  2  3  4  6  5       -1 0.989357837645D-02 0.100000000000D+01
-.205358831424D-02 0.000000000000D+00 0.000000000000D+00 0.375244183583D-04 0.000000000000D+00  6 2 -2 25 1 -1 21 2 0.41473196D+00 0.29128857D-01 0.22565413D+06 0.22565413D+06 0.22565413D+06 0.10938225D+01  1  2 15  4  6  5       -1 -.907851417337D-02 0.100000000000D+01
-.393408455660D-03 0.000000000000D+00 0.000000000000D+00 0.375244183583D-04 0.000000000000D+00  6 2 -2 25 1 -1 21 2 0.41473196D+00 0.29128857D-01 0.22565413D+06 0.22565413D+06 0.22565413D+06 0.10938225D+01  1  2  4  4  6  5       -1 -.173918219921D-02 0.100000000000D+01
-.654427734924D-03 0.000000000000D+00 0.000000000000D+00 0.375244183583D-04 0.000000000000D+00  6 2 -2 25 1 -1 21 2 0.41473196D+00 0.29128857D-01 0.22565413D+06 0.22565413D+06 0.22565413D+06 0.10938225D+01  1  2  5  4  6  5       -1 -.289309762125D-02 0.100000000000D+01
0.167842831808D-02 0.000000000000D+00 -.000000000000D+00 0.375244183583D-04 0.000000000000D+00  6 2 -2 25 1 -1 21 2 0.41473196D+00 0.29128857D-01 0.22565413D+06 0.22565413D+06 0.22565413D+06 0.10938225D+01  1  2  6  4  6  5       -1 0.742000486126D-02 0.100000000000D+01
  </mgrwgt>
  </event>
  <event>
  5     66 0.18881543E-05 0.23601559E+03 0.75467711E-02 0.92622519E-01
        2 -1    0    0  502    0 0.00000000E+00 0.00000000E+00 0.26198910E+04 0.26198910E+04 0.32000000E+00 0.0000E+00 0.9000E+01
       -2 -1    0    0    0  501 0.00000000E+00 0.00000000E+00 -.75397984E+03 0.75397991E+03 0.32000000E+00 0.0000E+00 0.9000E+01
       25  1    1    2    0    0 -.57870257E+03 -.99032346E+02 0.68168851E+03 0.90831068E+03 0.12500000E+03 0.0000E+00 0.9000E+01
        1  1    1    2  502    0 0.35709439E+03 0.17909105E+02 0.17848111E+04 0.18202713E+04 0.32000000E+00 0.0000E+00 0.9000E+01
       -1  1    1    2    0  501 0.22160818E+03 0.81123241E+02 -.60058844E+03 0.64528888E+03 0.32000000E+00 0.0000E+00 0.9000E+01
#aMCatNLO 1  0  0  5  4 0.11330264D+03 0.00000000D+00  -5  6  0 0.00000000D+00 0.00000000D+00 0.00000000D+00 0.00000000D+00 0.00000000D+00
  <mgrwgt>
 0.4347527403D-03    7    2    0
 0.140546971708315D+04 0.000000000000000D+00 0.000000000000000D+00 0.140546971708315D+04
 0.140546971708315D+04 -.000000000000000D+00 -.000000000000000D+00 -.140546971708315D+04
 0.637742343454605D+03 -.578697848137054D+03 -.990392649117000D+02 0.215384124768435D+03
 0.999961762586385D+03 0.357065222220416D+03 0.179076424209866D+02 0.933866837433730D+03
 0.117323532812530D+04 0.221632625916638D+03 0.811316224907135D+02 -.114925096220216D+04
 0.000000000000000D+00 0.000000000000000D+00 0.000000000000000D+00 0.000000000000000D+00
 0.140546971708315D+04 0.000000000000000D+00 0.000000000000000D+00 0.140546971708315D+04
 0.140546971708315D+04 -.000000000000000D+00 -.000000000000000D+00 -.140546971708315D+04
 0.635157776499242D+03 -.577740587254895D+03 -.986888466093620D+02 0.210420356526511D+03
 0.993256893589294D+03 0.358564185272768D+03 0.184563581346050D+02 0.926094133739512D+03
 0.666315285245414D+03 0.152449592572500D+02 0.232024572506797D+02 -.665736657054765D+03
 0.516209478832339D+03 0.203931442724877D+03 0.570300312240774D+02 -.470777833211257D+03
0.729592948216D-03 0.000000000000D+00 0.000000000000D+00 0.220899923020D-04 0.000000000000D+00  6 2 -2 25 1 -1 21 0 0.40306016D+00 0.11599691D+00 0.35628981D+06 0.35628981D+06 0.35628981D+06 0.10790694D+01  1  2  2  4  6  5       -1 0.161540675891D-03 0.100000000000D+01
0.915884875737D-04 0.000000000000D+00 -.280182902738D-05 0.220899923020D-04 0.000000000000D+00  6 2 -2 25 1 -1 21 2 0.40306016D+00 0.11599691D+00 0.35628981D+06 0.35628981D+06 0.35628981D+06 0.10790694D+01  1  2  3  4  6  5       -1 0.236124432048D-04 0.100000000000D+01
-.491808577924D-03 0.000000000000D+00 0.000000000000D+00 0.220899923020D-04 0.000000000000D+00  6 2 -2 25 1 -1 21 2 0.40306016D+00 0.11599691D+00 0.35628981D+06 0.35628981D+06 0.35628981D+06 0.10790694D+01  1  2 15  4  6  5       -1 -.126793251221D-03 0.100000000000D+01
0.169055192606D-09 0.000000000000D+00 0.000000000000D+00 0.220899923020D-04 0.000000000000D+00  6 2 -2 25 1 -1 21 2 0.40306016D+00 0.11599691D+00 0.35870953D+06 0.35870953D+06 0.35870953D+06 0.10788554D+01  1  2 12  4  6  5       -1 0.435422299309D-10 0.100000000000D+01
-.578822039045D-03 0.000000000000D+00 0.000000000000D+00 0.220899923020D-04 0.000000000000D+00  6 2 -2 25 1 -1 21 2 0.40306016D+00 0.11599691D+00 0.35628981D+06 0.35628981D+06 0.35628981D+06 0.10790694D+01  1  2  4  4  6  5       -1 -.149226206096D-03 0.100000000000D+01
-.390184349580D-02 0.000000000000D+00 0.000000000000D+00 0.220899923020D-04 0.000000000000D+00  6 2 -2 25 1 -1 21 2 0.40306016D+00 0.11599691D+00 0.35628981D+06 0.35628981D+06 0.35628981D+06 0.10790694D+01  1  2  5  4  6  5       -1 -.100593492020D-02 0.100000000000D+01
0.594062669309D-02 0.000000000000D+00 -.000000000000D+00 0.220899923020D-04 0.000000000000D+00  6 2 -2 25 1 -1 21 2 0.40306016D+00 0.11599691D+00 0.35628981D+06 0.35628981D+06 0.35628981D+06 0.10790694D+01  1  2  6  4  6  5       -1 0.153155395517D-02 0.100000000000D+01
  </mgrwgt>
  </event>
  <event>
  5     66 0.18881543E-05 0.29240916E+02 0.75467711E-02 0.90583677E-01
        2 -1    0    0  502    0 0.00000000E+00 0.00000000E+00 0.10093058E+04 0.10093058E+04 0.32000000E+00 0.0000E+00 0.9000E+01
       -2 -1    0    0    0  501 0.00000000E+00 0.00000000E+00 -.10698546E+04 0.10698546E+04 0.32000000E+00 0.0000E+00 0.9000E+01
       25  1    1    2    0    0 0.49346137E+03 -.49683556E+03 -.46475850E+03 0.84969121E+03 0.12500000E+03 0.0000E+00 0.9000E+01
        1  1    1    2  502    0 -.48119047E+03 0.52337900E+03 0.66114982E+03 0.97087025E+03 0.32000000E+00 0.0000E+00 0.9000E+01
       -1  1    1    2    0  501 -.12270895E+02 -.26543447E+02 -.25694012E+03 0.25859903E+03 0.32000000E+00 0.0000E+00 0.9000E+01
#aMCatNLO 1  0  0  1  4 0.27311913D+02 0.00000000D+00  -5  6  0 0.00000000D+00 0.00000000D+00 0.00000000D+00 0.00000000D+00 0.00000000D+00
  <mgrwgt>
 0.4506792051D-02    5    2    0
 0.103913932833251D+04 0.000000000000000D+00 0.000000000000000D+00 0.103913932833251D+04
 0.103913932833251D+04 0.000000000000000D+00 0.000000000000000D+00 -.103913932833251D+04
 0.836526983821506D+03 0.493463098268575D+03 -.496839608011778D+03 -.440223771756351D+03
 0.990548766114295D+03 -.481192713433025D+03 0.523381439131957D+03 0.689719000580437D+03
 0.251202906729217D+03 -.122703848355494D+02 -.265418311201792D+02 -.249495228824086D+03
 0.000000000000000D+00 -.000000000000000D+00 0.000000000000000D+00 0.000000000000000D+00
 0.455536825885347D+04 0.000000000000000D+00 0.000000000000000D+00 0.455536825885347D+04
 0.412861359959183D+04 0.000000000000000D+00 0.000000000000000D+00 -.412861359959183D+04
 0.318416911790365D+04 0.179654909709742D+04 -.258880712759958D+04 -.440223771756351D+03
 0.810911665370811D+03 0.102650931130210D+03 -.413918126700060D+03 0.689719000580437D+03
 0.585114388137177D+03 0.258775555953463D+03 -.461677581912027D+03 -.249495228824086D+03
 0.410378668703366D+04 -.215797558418109D+04 0.346440283621167D+04 0.426754659261640D+03
0.820271891223D-02 0.000000000000D+00 0.000000000000D+00 0.113937068120D-04 0.000000000000D+00  6 2 -2 25 1 -1 21 0 0.15527782D+00 0.16459302D+00 0.52673575D+06 0.52673575D+06 0.52673575D+06 0.10669152D+01  1  2  2  1  6  1        2 0.562259276102D-02 0.100000000000D+01
0.373178969148D-02 0.000000000000D+00 -.315006004484D-04 0.113937068120D-04 0.000000000000D+00  6 2 -2 25 1 -1 21 2 0.15527782D+00 0.16459302D+00 0.52673575D+06 0.52673575D+06 0.52673575D+06 0.10669152D+01  1  2  3  1  6  1        2 0.291176128707D-02 0.100000000000D+01
-.516436243846D-02 0.000000000000D+00 0.000000000000D+00 0.113937068120D-04 0.000000000000D+00  6 2 -2 25 1 -1 21 2 0.15527782D+00 0.16459302D+00 0.52673575D+06 0.52673575D+06 0.52673575D+06 0.10669152D+01  1  2 15  1  6  1        2 -.402953860317D-02 0.100000000000D+01
0.151732985994D-01 0.000000000000D+00 -.658709663336D-02 0.113937068120D-04 0.000000000000D+00  6 2 -2 25 1 -1 21 2 0.85375769D+00 0.16459302D+00 0.52673575D+06 0.52673575D+06 0.52673575D+06 0.10669152D+01  1  2  5  1  6  1        2 0.197528828374D-05 0.100000000000D+01
0.285700059113D-02 0.000000000000D+00 -.137404001622D-02 0.113937068120D-04 0.000000000000D+00  6 21 -2 25 1 -1 -2 2 0.85375769D+00 0.16459302D+00 0.52673575D+06 0.52673575D+06 0.52673575D+06 0.10669152D+01  1  2  5  5  6  1        2 0.131738027319D-08 0.100000000000D+01
  </mgrwgt>
  </event>
  <event>
  5     66 -.18881543E-05 0.10812990E+02 0.75467711E-02 0.93605767E-01
        2 -1    0    0  502    0 0.00000000E+00 0.00000000E+00 0.76337236E+03 0.76337243E+03 0.32000000E+00 0.0000E+00 0.9000E+01
       -2 -1    0    0    0  501 -.00000000E+00 -.00000000E+00 -.21325412E+04 0.21325412E+04 0.32000000E+00 0.0000E+00 0.9000E+01
       25  1    1    2    0    0 0.51530124E+03 0.13917321E+03 0.21817727E+03 0.59002616E+03 0.12500000E+03 0.0000E+00 0.9000E+01
        1  1    1    2  502    0 0.48636550E+01 -.96614094E+01 0.32227504E+03 0.32245667E+03 0.32000000E+00 0.0000E+00 0.9000E+01
       -1  1    1    2    0  501 -.52016489E+03 -.12951180E+03 -.19096211E+04 0.19834308E+04 0.32000000E+00 0.0000E+00 0.9000E+01
#aMCatNLO 1  0  0  4  1 0.73098006D+01 0.00000000D+00  -5  6  0 0.00000000D+00 0.00000000D+00 0.00000000D+00 0.00000000D+00 0.00000000D+00
  <mgrwgt>
 -.5682081140D-02    1    2    0
 0.127590091226686D+04 0.000000000000000D+00 0.000000000000000D+00 0.127590091226686D+04
 0.127590091226686D+04 -.000000000000000D+00 -.000000000000000D+00 -.127590091226686D+04
 0.786816613372724D+03 0.515365978325920D+03 0.139186147069671D+03 0.564340772873438D+03
 0.538678794580389D+03 0.486204982168255D+01 -.965822073166780D+01 0.538570258159890D+03
 0.122630641658061D+04 -.520228028147603D+03 -.129527926338002D+03 -.110291103103333D+04
 0.000000000000000D+00 0.000000000000000D+00 0.000000000000000D+00 0.000000000000000D+00
 0.127590091226686D+04 0.000000000000000D+00 0.000000000000000D+00 0.127590091226686D+04
 0.127590091226686D+04 -.000000000000000D+00 -.000000000000000D+00 -.127590091226686D+04
 0.791681686190678D+03 0.515426806740993D+03 0.139065314441236D+03 0.571078748914593D+03
 0.386343180465298D+02 0.332934432802220D+02 -.853638656744909D+01 0.176433349976186D+02
 0.121691491863826D+04 -.520133877091796D+03 -.129714952738894D+03 -.109248189922844D+04
 0.504570901658248D+03 -.285863729294201D+02 -.813975134891779D+00 0.503759815316225D+03
-.572005411738D-01 0.000000000000D+00 0.000000000000D+00 0.436715846874D-03 0.000000000000D+00  6 2 -2 25 1 -1 21 2 0.11744191D+00 0.32808327D+00 0.29986225D+06 0.29986225D+06 0.29986225D+06 0.10845666D+01  1  2 14  3  6  4        1 -.568208113977D-02 0.100000000000D+01
  </mgrwgt>
  </event>
  <event>
  6     66 0.18881543E-05 0.16119641E+02 0.75467711E-02 0.94526476E-01
        2 -1    0    0  502    0 0.00000000E+00 0.00000000E+00 0.91580616E+03 0.91580621E+03 0.32000000E+00 0.0000E+00 0.9000E+01
       21 -1    0    0  503  501 0.00000000E+00 0.00000000E+00 -.53650826E+03 0.53650879E+03 0.75000000E+00 0.0000E+00 0.9000E+01
       25  1    1    2    0    0 -.26857274E+03 0.38061011E+03 0.19730549E+03 0.52110443E+03 0.12500000E+03 0.0000E+00 0.9000E+01
        1  1    1    2  502    0 0.27697858E+03 -.40660739E+03 0.44513094E+03 0.66346692E+03 0.32000000E+00 0.0000E+00 0.9000E+01
        2  1    1    2  503    0 -.15439176E+02 0.15989140E+02 -.24411158E+03 0.24512157E+03 0.32000000E+00 0.0000E+00 0.9000E+01
       -1  1    1    2    0  501 0.70333358E+01 0.10008136E+02 -.19026959E+02 0.22622072E+02 0.32000000E+00 0.0000E+00 0.9000E+01
#aMCatNLO 2  0  0  2  4 0.22226578D+02 0.00000000D+00  -5  6  0 0.00000000D+00 0.00000000D+00 0.00000000D+00 0.00000000D+00 0.00000000D+00
  <mgrwgt>
 0.3621601591D-01    1    2    0
 0.516764595323518D+03 0.000000000000000D+00 0.000000000000000D+00 0.516764595323518D+03
 0.516764595323518D+03 0.000000000000000D+00 0.000000000000000D+00 -.516764595323518D+03
 0.499602245138597D+03 -.275965790576150D+03 0.388299901483776D+03 -.839253971506638D+02
 0.496054561413691D+03 0.269508707368630D+03 -.398878560355216D+03 0.119712483228649D+03
 0.000000000000000D+00 -.000000000000000D+00 0.000000000000000D+00 -.000000000000000D+00
 0.378723840947492D+02 0.645708320751936D+01 0.105786588714397D+02 -.357870860779848D+02
 0.517169200510168D+03 0.000000000000000D+00 0.000000000000000D+00 0.517169200510168D+03
 0.950052477378343D+03 0.000000000000000D+00 0.000000000000000D+00 -.950052477378343D+03
 0.489588133856336D+03 -.268578230096151D+03 0.380649186055155D+03 -.839253971506638D+02
 0.506366083844206D+03 0.276995075312046D+03 -.406631602903441D+03 0.119712483228649D+03
 0.433453517865499D+03 -.154391758477616D+02 0.159891402829742D+02 -.432883276868176D+03
 0.378139423224709D+02 0.702233063186681D+01 0.999327656531152D+01 -.357870860779848D+02
0.673143854190D-03 0.000000000000D+00 0.000000000000D+00 0.511101180824D-06 0.320271408317D-08  6 2 21 25 1 2 -1 2 0.14089328D+00 0.82539768D-01 0.25441603D+06 0.25441603D+06 0.25441603D+06 0.10898875D+01  1  2  1  6  5  2       -2 0.362160159074D-01 0.100000000000D+01
  </mgrwgt>
  </event>
  <event>
  5     66 0.18881543E-05 0.20392636E+02 0.75467711E-02 0.92649106E-01
        2 -1    0    0  502    0 0.00000000E+00 0.00000000E+00 0.97384871E+03 0.97384876E+03 0.32000000E+00 0.0000E+00 0.9000E+01
       -2 -1    0    0    0  501 -.00000000E+00 -.00000000E+00 -.11650101E+04 0.11650102E+04 0.32000000E+00 0.0000E+00 0.9000E+01
       25  1    1    2    0    0 0.55479075E+03 0.79559090E+02 -.22565749E+03 0.61698358E+03 0.12500000E+03 0.0000E+00 0.9000E+01
        1  1    1    2  502    0 0.14783183E+02 -.14050481E+02 0.66750841E+03 0.66781999E+03 0.32000000E+00 0.0000E+00 0.9000E+01
       -1  1    1    2    0  501 -.56957394E+03 -.65508609E+02 -.63301234E+03 0.85405537E+03 0.32000000E+00 0.0000E+00 0.9000E+01
#aMCatNLO 1  0  0  5  2 0.73169897D+01 0.00000000D+00  -5  6  0 0.00000000D+00 0.00000000D+00 0.00000000D+00 0.00000000D+00 0.00000000D+00
  <mgrwgt>
 0.2546478619D-02    4    2    0
 0.106514962346562D+04 0.000000000000000D+00 0.000000000000000D+00 0.106514962346562D+04
 0.106514962346562D+04 -.000000000000000D+00 -.000000000000000D+00 -.106514962346562D+04
 0.599269345197880D+03 0.554866783564411D+03 0.795673767081794D+02 -.171145064651480D+03
 0.730314985086027D+03 0.147814250521073D+02 -.140488101887756D+02 0.730030217077973D+03
 0.800714916647335D+03 -.569648208616518D+03 -.655185665194038D+02 -.558885152426493D+03
 0.000000000000000D+00 0.000000000000000D+00 0.000000000000000D+00 0.000000000000000D+00
 0.106514962346562D+04 0.000000000000000D+00 0.000000000000000D+00 0.106514962346562D+04
 0.106514962346562D+04 -.000000000000000D+00 -.000000000000000D+00 -.106514962346562D+04
 0.581373770883435D+03 0.526138501822857D+03 0.762631692871756D+02 -.199330548037926D+03
 0.696487387152100D+03 -.199365858191402D+02 -.180419313296524D+02 0.695968175796660D+03
 0.717421795348939D+03 -.484395586417705D+03 0.721270358376678D+02 -.524263902058890D+03
 0.135016293546769D+03 -.218063295860107D+02 -.130348273795191D+03 0.276262743001563D+02
0.379104794355D-02 0.000000000000D+00 0.000000000000D+00 0.830750237905D-04 0.000000000000D+00  6 2 -2 25 1 -1 21 0 0.14982289D+00 0.17923234D+00 0.34111866D+06 0.34111866D+06 0.34111866D+06 0.10804487D+01  1  2  2  4  6  5       -1 0.218642960381D-02 0.100000000000D+01
0.325465168225D-02 0.000000000000D+00 -.145586223091D-04 0.830750237905D-04 0.000000000000D+00  6 2 -2 25 1 -1 21 2 0.14982289D+00 0.17923234D+00 0.34111866D+06 0.34111866D+06 0.34111866D+06 0.10804487D+01  1  2  3  4  6  5       -1 0.219123533109D-02 0.100000000000D+01
-.250306616594D-02 0.000000000000D+00 0.000000000000D+00 0.830750237905D-04 0.000000000000D+00  6 2 -2 25 1 -1 21 2 0.14982289D+00 0.17923234D+00 0.34111866D+06 0.34111866D+06 0.34111866D+06 0.10804487D+01  1  2 15  4  6  5       -1 -.168522089438D-02 0.100000000000D+01
-.216803095770D-03 0.000000000000D+00 0.000000000000D+00 0.830750237905D-04 0.000000000000D+00  6 2 -2 25 1 -1 21 2 0.14982289D+00 0.17923234D+00 0.34111866D+06 0.34111866D+06 0.34111866D+06 0.10804487D+01  1  2  4  4  6  5       -1 -.145965421102D-03 0.100000000000D+01
  </mgrwgt>
  </event>
  <event>
  5     66 0.18881543E-05 0.10442765E+02 0.75467711E-02 0.94160825E-01
        2 -1    0    0  502    0 0.00000000E+00 0.00000000E+00 0.20010355E+04 0.20010356E+04 0.32000000E+00 0.0000E+00 0.9000E+01
       -2 -1    0    0    0  501 0.00000000E+00 0.00000000E+00 -.34394499E+03 0.34394514E+03 0.32000000E+00 0.0000E+00 0.9000E+01
       25  1    1    2    0    0 -.40627611E+03 0.25857588E+03 -.82870601E+01 0.49760973E+03 0.12500000E+03 0.0000E+00 0.9000E+01
        1  1    1    2  502    0 0.41672170E+03 -.25892900E+03 0.17216219E+04 0.17901629E+04 0.32000000E+00 0.0000E+00 0.9000E+01
       -1  1    1    2    0  501 -.10445585E+02 0.35312276E+00 -.56244314E+02 0.57208043E+02 0.32000000E+00 0.0000E+00 0.9000E+01
#aMCatNLO 1  0  0  5  4 0.53480369D+02 0.00000000D+00  -5  6  0 0.00000000D+00 0.00000000D+00 0.00000000D+00 0.00000000D+00 0.00000000D+00
  <mgrwgt>
 0.1333695534D-01    6    2    0
 0.829606146990559D+03 0.000000000000000D+00 0.000000000000000D+00 0.829606146990559D+03
 0.829606146990559D+03 -.000000000000000D+00 -.000000000000000D+00 -.829606146990559D+03
 0.711677960955010D+03 -.406294256766662D+03 0.258582285895946D+03 -.508842508491904D+03
 0.810652310751535D+03 0.416731069580107D+03 -.258934824165584D+03 0.645325608826863D+03
 0.136882022274573D+03 -.104368128134451D+02 0.352538269638266D+00 -.136483100334958D+03
 0.000000000000000D+00 0.000000000000000D+00 0.000000000000000D+00 0.000000000000000D+00
 0.829606146990559D+03 0.000000000000000D+00 0.000000000000000D+00 0.829606146990559D+03
 0.829606146990559D+03 -.000000000000000D+00 -.000000000000000D+00 -.829606146990559D+03
 0.716855826225586D+03 -.406814135886135D+03 0.258599846552487D+03 -.515641012526947D+03
 0.804237106375409D+03 0.416143370993096D+03 -.258914972679634D+03 0.637640223771915D+03
 0.103606092970276D+03 -.819208108641163D+01 -.261782017534887D+02 -.999090289262823D+02
 0.345132684098464D+02 -.113715402054869D+01 0.264933278806355D+02 -.220901823186861D+02
0.244276327267D-02 0.000000000000D+00 0.000000000000D+00 0.343140956739D-04 0.000000000000D+00  6 2 -2 25 1 -1 21 0 0.30785163D+00 0.52914628D-01 0.24931335D+06 0.24931335D+06 0.24931335D+06 0.10905490D+01  1  2  2  4  6  5       -1 0.725934450430D-02 0.100000000000D+01
0.142610702066D-02 0.000000000000D+00 -.938085416139D-05 0.343140956739D-04 0.000000000000D+00  6 2 -2 25 1 -1 21 2 0.30785163D+00 0.52914628D-01 0.24931335D+06 0.24931335D+06 0.24931335D+06 0.10905490D+01  1  2  3  4  6  5       -1 0.504032446344D-02 0.100000000000D+01
-.185806867751D-02 0.000000000000D+00 0.000000000000D+00 0.343140956739D-04 0.000000000000D+00  6 2 -2 25 1 -1 21 2 0.30785163D+00 0.52914628D-01 0.24931335D+06 0.24931335D+06 0.24931335D+06 0.10905490D+01  1  2 15  4  6  5       -1 -.656701697300D-02 0.100000000000D+01
-.142624898738D-03 0.000000000000D+00 0.000000000000D+00 0.343140956739D-04 0.000000000000D+00  6 2 -2 25 1 -1 21 2 0.30785163D+00 0.52914628D-01 0.24931335D+06 0.24931335D+06 0.24931335D+06 0.10905490D+01  1  2  4  4  6  5       -1 -.504082621983D-03 0.100000000000D+01
-.357806832692D-02 0.000000000000D+00 0.000000000000D+00 0.343140956739D-04 0.000000000000D+00  6 2 -2 25 1 -1 21 2 0.30785163D+00 0.52914628D-01 0.24931335D+06 0.24931335D+06 0.24931335D+06 0.10905490D+01  1  2  5  4  6  5       -1 -.126460532475D-01 0.100000000000D+01
0.587225122002D-02 0.000000000000D+00 -.000000000000D+00 0.343140956739D-04 0.000000000000D+00  6 2 -2 25 1 -1 21 2 0.30785163D+00 0.52914628D-01 0.24931335D+06 0.24931335D+06 0.24931335D+06 0.10905490D+01  1  2  6  4  6  5       -1 0.207544392187D-01 0.100000000000D+01
  </mgrwgt>
  </event>
  <event>
  5     66 0.18881543E-05 0.26408108E+02 0.75467711E-02 0.93095149E-01
        2 -1    0    0  502    0 0.00000000E+00 0.00000000E+00 0.13100115E+04 0.13100115E+04 0.32000000E+00 0.0000E+00 0.9000E+01
       -2 -1    0    0    0  501 0.00000000E+00 0.00000000E+00 -.75185172E+03 0.75185179E+03 0.32000000E+00 0.0000E+00 0.9000E+01
       25  1    1    2    0    0 -.36055622E+02 -.44882180E+03 0.12113866E+03 0.48274278E+03 0.12500000E+03 0.0000E+00 0.9000E+01
        1  1    1    2  502    0 -.25658022E+02 -.62623613E+01 0.91551510E+03 0.91589604E+03 0.32000000E+00 0.0000E+00 0.9000E+01
       -1  1    1    2    0  501 0.61713645E+02 0.45508417E+03 -.47849397E+03 0.66322451E+03 0.32000000E+00 0.0000E+00 0.9000E+01
#aMCatNLO 1  0  0  2  5 0.82370752D+02 0.00000000D+00  -5  6  0 0.00000000D+00 0.00000000D+00 0.00000000D+00 0.00000000D+00 0.00000000D+00
  <mgrwgt>
 0.3977272175D-02    7    4    0
 0.992438671602042D+03 0.000000000000000D+00 0.000000000000000D+00 0.992438671602042D+03
 0.992438671602042D+03 0.000000000000000D+00 0.000000000000000D+00 -.992438671602042D+03
 0.467462498632155D+03 -.360657244344411D+02 -.448885760914418D+03 -.985011658410286D+01
 0.693890495910643D+03 -.256550220123555D+02 -.626162899805787D+01 0.693387793491459D+03
 0.823524348661286D+03 0.617207464467966D+02 0.455147389912476D+03 -.683537676907356D+03
 0.000000000000000D+00 0.000000000000000D+00 0.000000000000000D+00 -.000000000000000D+00
 0.103288357980168D+04 0.000000000000000D+00 0.000000000000000D+00 0.103288357980168D+04
 0.120796020533860D+04 0.000000000000000D+00 0.000000000000000D+00 -.120796020533860D+04
 0.509194374881013D+03 -.384949183884318D+02 -.492011207059365D+03 -.985011658410286D+01
 0.697292187839577D+03 -.291152470472813D+02 -.676909554410699D+02 0.693387793491459D+03
 0.786170661173817D+03 0.577170257013575D+02 0.384069391754614D+03 -.683537676907356D+03
 0.248186561245872D+03 0.989313973435559D+01 0.175632770745821D+03 -.175076625536916D+03
 0.992438671602042D+03 0.000000000000000D+00 0.000000000000000D+00 0.992438671602042D+03
 0.992438671602042D+03 0.000000000000000D+00 0.000000000000000D+00 -.992438671602042D+03
 0.467462498632155D+03 -.360657244344411D+02 -.448885760914418D+03 -.985011658410286D+01
 0.693890495910643D+03 -.256550220123555D+02 -.626162899805787D+01 0.693387793491459D+03
 0.000000000000000D+00 0.000000000000000D+00 0.000000000000000D+00 -.000000000000000D+00
 0.823524348661286D+03 0.617207464467966D+02 0.455147389912476D+03 -.683537676907356D+03
 0.103288357980168D+04 0.000000000000000D+00 0.000000000000000D+00 0.103288357980168D+04
 0.120796020533860D+04 0.000000000000000D+00 0.000000000000000D+00 -.120796020533860D+04
 0.509194374881013D+03 -.384949183884318D+02 -.492011207059365D+03 -.985011658410286D+01
 0.697292187839577D+03 -.291152470472813D+02 -.676909554410699D+02 0.693387793491459D+03
 0.248186561245872D+03 0.989313973435559D+01 0.175632770745821D+03 -.175076625536916D+03
 0.786170661173817D+03 0.577170257013575D+02 0.384069391754614D+03 -.683537676907356D+03
0.134960131029D-02 0.000000000000D+00 0.000000000000D+00 0.229557691676D-03 0.000000000000D+00  6 2 -2 25 1 -1 21 0 0.20154024D+00 0.11566950D+00 0.22709037D+06 0.22709037D+06 0.22709037D+06 0.10936133D+01  1  2  2  2  6  2       -2 0.166513735780D-02 0.100000000000D+01
0.890921346928D-03 0.000000000000D+00 -.518282438970D-05 0.229557691676D-03 0.000000000000D+00  6 2 -2 25 1 -1 21 2 0.20154024D+00 0.11566950D+00 0.22709037D+06 0.22709037D+06 0.22709037D+06 0.10936133D+01  1  2  3  2  6  2       -2 0.131465399999D-02 0.100000000000D+01
-.887445160721D-03 0.000000000000D+00 0.000000000000D+00 0.229557691676D-03 0.000000000000D+00  6 2 -2 25 1 -1 21 2 0.20154024D+00 0.11566950D+00 0.22709037D+06 0.22709037D+06 0.22709037D+06 0.10936133D+01  1  2 15  2  6  2       -2 -.130952449880D-02 0.100000000000D+01
-.546989566907D-03 0.000000000000D+00 0.000000000000D+00 0.229557691676D-03 0.000000000000D+00  6 2 -2 25 1 -1 21 2 0.20154024D+00 0.11566950D+00 0.22709037D+06 0.22709037D+06 0.22709037D+06 0.10936133D+01  1  2  4  2  6  2       -2 -.807144227225D-03 0.100000000000D+01
-.617297596596D-02 0.000000000000D+00 -.161389756117D-02 0.229557691676D-03 0.000000000000D+00  6 2 -2 25 1 -1 21 2 0.20154024D+00 0.14398530D+00 0.22709037D+06 0.22709037D+06 0.22709037D+06 0.10936133D+01  1  2  5  2  6  2       -2 -.513546568004D-02 0.100000000000D+01
0.641001828045D-02 0.000000000000D+00 0.157596288363D-02 0.229557691676D-03 0.000000000000D+00  6 2 -2 25 1 -1 21 2 0.20154024D+00 0.11566950D+00 0.22709037D+06 0.22709037D+06 0.22709037D+06 0.10936133D+01  1  2  6  2  6  2       -2 0.945869823574D-02 0.100000000000D+01
-.167564580903D-03 0.000000000000D+00 -.494805307483D-04 0.229557691676D-03 0.000000000000D+00  6 2 21 25 1 2 -1 2 0.20154024D+00 0.14398530D+00 0.22709037D+06 0.22709037D+06 0.22709037D+06 0.10936133D+01  3  4  5  6  5  2       -2 -.120908301281D-02 0.100000000000D+01
  </mgrwgt>
  </event>
  <event>
  5     66 -.18881543E-05 0.76669532E+02 0.75467711E-02 0.92854205E-01
        2 -1    0    0  502    0 0.00000000E+00 0.00000000E+00 0.21016560E+04 0.21016560E+04 0.32000000E+00 0.0000E+00 0.9000E+01
       -2 -1    0    0    0  501 0.00000000E+00 0.00000000E+00 -.77368584E+03 0.77368591E+03 0.32000000E+00 0.0000E+00 0.9000E+01
       25  1    1    2    0    0 -.26773565E+03 -.47433987E+03 0.34558983E+03 0.65706774E+03 0.12500000E+03 0.0000E+00 0.9000E+01
        1  1    1    2  502    0 0.32599035E+03 0.42450575E+03 0.15529392E+04 0.16425880E+04 0.32000000E+00 0.0000E+00 0.9000E+01
       -1  1    1    2    0  501 -.58254702E+02 0.49834119E+02 -.57055891E+03 0.57568622E+03 0.32000000E+00 0.0000E+00 0.9000E+01
#aMCatNLO 1  0  0  4  1 0.28202220D+02 0.00000000D+00  -5  6  0 0.00000000D+00 0.00000000D+00 0.00000000D+00 0.00000000D+00 0.00000000D+00
  <mgrwgt>
 -.2255521990D-02    8    2    0
 0.127515552675702D+04 0.000000000000000D+00 0.000000000000000D+00 0.127515552675702D+04
 0.127515552675702D+04 -.000000000000000D+00 -.000000000000000D+00 -.127515552675702D+04
 0.560845486843027D+03 -.267716185519040D+03 -.474326975779451D+03 0.475880675300725D+02
 0.104325747867333D+04 0.325976396578493D+03 0.424487584028621D+03 0.895508708325650D+03
 0.946208087997689D+03 -.582602110594534D+02 0.498393917508296D+02 -.943096775855722D+03
 0.000000000000000D+00 0.000000000000000D+00 0.000000000000000D+00 0.000000000000000D+00
 0.127515552675702D+04 0.000000000000000D+00 0.000000000000000D+00 0.127515552675702D+04
 0.127515552675702D+04 -.000000000000000D+00 -.000000000000000D+00 -.127515552675702D+04
 0.560639131382613D+03 -.267562694219677D+03 -.474127098881861D+03 0.480097324011296D+02
 0.815448670523273D+03 0.247053648800548D+03 0.357106174733285D+03 0.690214610711675D+03
 0.945501082399194D+03 -.580013034526431D+02 0.501765421263018D+02 -.942385515718535D+03
 0.228722169208964D+03 0.785103488717731D+02 0.668443820222742D+02 0.204161172605730D+03
0.122255863665D-03 0.000000000000D+00 0.000000000000D+00 0.982034017781D-04 0.000000000000D+00  6 2 -2 25 1 -1 21 0 0.32333170D+00 0.11902860D+00 0.34263636D+06 0.34263636D+06 0.34263636D+06 0.10803077D+01  1  2  2  3  6  4        1 0.502410475074D-04 0.100000000000D+01
0.435680019649D-04 0.000000000000D+00 -.469494707182D-06 0.982034017781D-04 0.000000000000D+00  6 2 -2 25 1 -1 21 2 0.32333170D+00 0.11902860D+00 0.34263636D+06 0.34263636D+06 0.34263636D+06 0.10803077D+01  1  2  3  3  6  4        1 0.208954431946D-04 0.100000000000D+01
-.792790927316D-04 0.000000000000D+00 0.000000000000D+00 0.982034017781D-04 0.000000000000D+00  6 2 -2 25 1 -1 21 2 0.32333170D+00 0.11902860D+00 0.34263636D+06 0.34263636D+06 0.34263636D+06 0.10803077D+01  1  2 15  3  6  4        1 -.380226703999D-04 0.100000000000D+01
0.133039126979D-09 0.000000000000D+00 0.000000000000D+00 0.982034017781D-04 0.000000000000D+00  6 2 -2 25 1 -1 21 2 0.32333170D+00 0.11902860D+00 0.34375942D+06 0.34375942D+06 0.34375942D+06 0.10802038D+01  1  2 12  3  6  4        1 0.637786846207D-10 0.100000000000D+01
0.966761676228D-02 0.000000000000D+00 0.000000000000D+00 0.982034017781D-04 0.000000000000D+00  6 2 -2 25 1 -1 21 2 0.32333170D+00 0.11902860D+00 0.34375942D+06 0.34375942D+06 0.34375942D+06 0.10802038D+01  1  2 12  3  6  4        1 0.463463564829D-02 0.100000000000D+01
-.168397255358D-01 0.000000000000D+00 0.000000000000D+00 0.982034017781D-04 0.000000000000D+00  6 2 -2 25 1 -1 21 2 0.32333170D+00 0.11902860D+00 0.34263636D+06 0.34263636D+06 0.34263636D+06 0.10803077D+01  1  2  4  3  6  4        1 -.807642105389D-02 0.100000000000D+01
-.991274748005D-02 0.000000000000D+00 0.000000000000D+00 0.982034017781D-04 0.000000000000D+00  6 2 -2 25 1 -1 21 2 0.32333170D+00 0.11902860D+00 0.34263636D+06 0.34263636D+06 0.34263636D+06 0.10803077D+01  1  2  5  3  6  4        1 -.475420589723D-02 0.100000000000D+01
0.123171195993D-01 0.000000000000D+00 -.000000000000D+00 0.982034017781D-04 0.000000000000D+00  6 2 -2 25 1 -1 21 2 0.32333170D+00 0.11902860D+00 0.34263636D+06 0.34263636D+06 0.34263636D+06 0.10803077D+01  1  2  6  3  6  4        1 0.590735542833D-02 0.100000000000D+01
  </mgrwgt>
  </event>
  <event>
  5     66 0.18881543E-05 0.96234557E+02 0.75467711E-02 0.94936052E-01
        2 -1    0    0  502    0 0.00000000E+00 0.00000000E+00 0.17903943E+04 0.17903943E+04 0.32000000E+00 0.0000E+00 0.9000E+01
       -2 -1    0    0    0  501 0.00000000E+00 0.00000000E+00 -.31861919E+03 0.31861935E+03 0.32000000E+00 0.0000E+00 0.9000E+01
       25  1    1    2    0    0 -.43573098E+03 -.15152471E+03 0.43715689E+03 0.64772863E+03 0.12500000E+03 0.0000E+00 0.9000E+01
        1  1    1    2  502    0 0.89606871E+02 0.35155241E+02 0.10879924E+04 0.10922421E+04 0.32000000E+00 0.0000E+00 0.9000E+01
       -1  1    1    2    0  501 0.34612411E+03 0.11636947E+03 -.53374208E+02 0.36904290E+03 0.32000000E+00 0.0000E+00 0.9000E+01
#aMCatNLO 1  0  0  4  5 0.59296801D+02 0.00000000D+00  -5  6  0 0.00000000D+00 0.00000000D+00 0.00000000D+00 0.00000000D+00 0.00000000D+00
  <mgrwgt>
 0.2170790928D-02    7    2    0
 0.755284167448141D+03 0.000000000000000D+00 0.000000000000000D+00 0.755284167448141D+03
 0.755284167448141D+03 -.000000000000000D+00 -.000000000000000D+00 -.755284167448141D+03
 0.478459493048494D+03 -.435784001703476D+03 -.151541860472571D+03 -.206362514047015D+02
 0.464801462334169D+03 0.895865956407023D+02 0.351472866038732D+02 0.454729930303556D+03
 0.567307379513620D+03 0.346197406062774D+03 0.116394573868698D+03 -.434093678898854D+03
 0.000000000000000D+00 0.000000000000000D+00 0.000000000000000D+00 0.000000000000000D+00
 0.755284167448141D+03 0.000000000000000D+00 0.000000000000000D+00 0.755284167448141D+03
 0.755284167448141D+03 -.000000000000000D+00 -.000000000000000D+00 -.755284167448141D+03
 0.476797766275440D+03 -.434419381135056D+03 -.151006482273625D+03 -.137096145397733D+02
 0.361466519577446D+03 0.491161151939737D+02 -.284018283131527D+02 0.356985977528746D+03
 0.562193718756501D+03 0.347810940443913D+03 0.117027607805678D+03 -.425903587831876D+03
 0.110110330286896D+03 0.374923254971695D+02 0.623807027810999D+02 0.826272248429036D+02
0.375978420624D-03 0.000000000000D+00 0.000000000000D+00 0.130061303195D-04 0.000000000000D+00  6 2 -2 25 1 -1 21 0 0.27544529D+00 0.49018351D-01 0.22065986D+06 0.22065986D+06 0.22065986D+06 0.10945614D+01  1  2  2  3  6  4        1 0.170396786096D-02 0.100000000000D+01
0.715287890915D-04 0.000000000000D+00 -.144385613259D-05 0.130061303195D-04 0.000000000000D+00  6 2 -2 25 1 -1 21 2 0.27544529D+00 0.49018351D-01 0.22065986D+06 0.22065986D+06 0.22065986D+06 0.10945614D+01  1  2  3  3  6  4        1 0.388382461771D-03 0.100000000000D+01
-.228684041361D-03 0.000000000000D+00 0.000000000000D+00 0.130061303195D-04 0.000000000000D+00  6 2 -2 25 1 -1 21 2 0.27544529D+00 0.49018351D-01 0.22065986D+06 0.22065986D+06 0.22065986D+06 0.10945614D+01  1  2 15  3  6  4        1 -.124169403788D-02 0.100000000000D+01
0.198348397382D-08 0.000000000000D+00 0.000000000000D+00 0.130061303195D-04 0.000000000000D+00  6 2 -2 25 1 -1 21 2 0.27544529D+00 0.49018351D-01 0.23672570D+06 0.23672570D+06 0.23672570D+06 0.10922461D+01  1  2 12  3  6  4        1 0.106875877446D-07 0.100000000000D+01
-.112436492095D-03 0.000000000000D+00 0.000000000000D+00 0.130061303195D-04 0.000000000000D+00  6 2 -2 25 1 -1 21 2 0.27544529D+00 0.49018351D-01 0.22065986D+06 0.22065986D+06 0.22065986D+06 0.10945614D+01  1  2  4  3  6  4        1 -.610500501228D-03 0.100000000000D+01
-.134702830745D-02 0.000000000000D+00 0.000000000000D+00 0.130061303195D-04 0.000000000000D+00  6 2 -2 25 1 -1 21 2 0.27544529D+00 0.49018351D-01 0.22065986D+06 0.22065986D+06 0.22065986D+06 0.10945614D+01  1  2  5  3  6  4        1 -.731400848202D-02 0.100000000000D+01
0.170259335790D-02 0.000000000000D+00 -.000000000000D+00 0.130061303195D-04 0.000000000000D+00  6 2 -2 25 1 -1 21 2 0.27544529D+00 0.49018351D-01 0.22065986D+06 0.22065986D+06 0.22065986D+06 0.10945614D+01  1  2  6  3  6  4        1 0.924463293918D-02 0.100000000000D+01
  </mgrwgt>
  </event>
  <event>
  5     66 0.18881543E-05 0.80404493E+02 0.75467711E-02 0.93215809E-01
        2 -1    0    0  502    0 0.00000000E+00 0.00000000E+00 0.55134876E+04 0.55134876E+04 0.32000000E+00 0.0000E+00 0.9000E+01
       -2 -1    0    0    0  501 0.00000000E+00 0.00000000E+00 -.22728735E+03 0.22728758E+03 0.32000000E+00 0.0000E+00 0.9000E+01
       25  1    1    2    0    0 -.39511126E+03 -.38334003E+03 0.27851382E+04 0.28417745E+04 0.12500000E+03 0.0000E+00 0.9000E+01
        1  1    1    2  502    0 0.80132234E+02 0.69455201E+01 0.23956606E+04 0.23970105E+04 0.32000000E+00 0.0000E+00 0.9000E+01
       -1  1    1    2    0  501 0.31497903E+03 0.37639451E+03 0.10540145E+03 0.50199022E+03 0.32000000E+00 0.0000E+00 0.9000E+01
#aMCatNLO 1  0  0  5  2 0.23671975D+02 0.00000000D+00  -5  6  0 0.00000000D+00 0.00000000D+00 0.00000000D+00 0.00000000D+00 0.00000000D+00
  <mgrwgt>
 0.3727244992D-03    8    2    0
 0.111944033429155D+04 0.000000000000000D+00 0.000000000000000D+00 0.111944033429155D+04
 0.111944033429155D+04 -.000000000000000D+00 -.000000000000000D+00 -.111944033429155D+04
 0.710847553215500D+03 -.395130428580423D+03 -.383389835182867D+03 0.431929881578907D+03
 0.489696534000562D+03 0.801041578197888D+02 0.694308658431597D+01 0.483050528268865D+03
 0.103833658136703D+04 0.315026270760634D+03 0.376446748598551D+03 -.914980409847772D+03
 0.000000000000000D+00 0.000000000000000D+00 0.000000000000000D+00 0.000000000000000D+00
 0.111944033429155D+04 0.000000000000000D+00 0.000000000000000D+00 0.111944033429155D+04
 0.111944033429155D+04 -.000000000000000D+00 -.000000000000000D+00 -.111944033429155D+04
 0.709518416665877D+03 -.394682081555083D+03 -.382854074214344D+03 0.430627676705617D+03
 0.488867671292609D+03 0.804130474720686D+02 0.731220026171092D+01 0.482153371406491D+03
 0.974141192340819D+03 0.278913967228344D+03 0.340197536879842D+03 -.869151136109841D+03
 0.663533882837866D+02 0.353550668546710D+02 0.353443370727915D+02 -.436299120022673D+02
0.312213977312D-02 0.000000000000D+00 0.000000000000D+00 0.328567656376D-04 0.000000000000D+00  6 2 -2 25 1 -1 21 0 0.84822888D+00 0.34967303D-01 0.32253665D+06 0.32253665D+06 0.32253665D+06 0.10822321D+01  1  2  2  4  6  5       -1 0.151144006748D-04 0.100000000000D+01
0.667394430997D-03 0.000000000000D+00 -.119898388071D-04 0.328567656376D-04 0.000000000000D+00  6 2 -2 25 1 -1 21 2 0.84822888D+00 0.34967303D-01 0.32253665D+06 0.32253665D+06 0.32253665D+06 0.10822321D+01  1  2  3  4  6  5       -1 0.378409481304D-05 0.100000000000D+01
-.230742887782D-02 0.000000000000D+00 0.000000000000D+00 0.328567656376D-04 0.000000000000D+00  6 2 -2 25 1 -1 21 2 0.84822888D+00 0.34967303D-01 0.32253665D+06 0.32253665D+06 0.32253665D+06 0.10822321D+01  1  2 15  4  6  5       -1 -.130830124473D-04 0.100000000000D+01
0.119985138620D-07 0.000000000000D+00 0.000000000000D+00 0.328567656376D-04 0.000000000000D+00  6 2 -2 25 1 -1 21 2 0.84822888D+00 0.34967303D-01 0.32179984D+06 0.32179984D+06 0.32179984D+06 0.10823051D+01  1  2 12  4  6  5       -1 0.680609127575D-10 0.100000000000D+01
0.893839810885D-01 0.000000000000D+00 0.000000000000D+00 0.328567656376D-04 0.000000000000D+00  6 2 -2 25 1 -1 21 2 0.84822888D+00 0.34967303D-01 0.32179984D+06 0.32179984D+06 0.32179984D+06 0.10823051D+01  1  2 12  4  6  5       -1 0.507025737415D-03 0.100000000000D+01
-.353480196767D-01 0.000000000000D+00 0.000000000000D+00 0.328567656376D-04 0.000000000000D+00  6 2 -2 25 1 -1 21 2 0.84822888D+00 0.34967303D-01 0.32253665D+06 0.32253665D+06 0.32253665D+06 0.10822321D+01  1  2  4  4  6  5       -1 -.200421597330D-03 0.100000000000D+01
-.161293707595D+00 0.000000000000D+00 0.000000000000D+00 0.328567656376D-04 0.000000000000D+00  6 2 -2 25 1 -1 21 2 0.84822888D+00 0.34967303D-01 0.32253665D+06 0.32253665D+06 0.32253665D+06 0.10822321D+01  1  2  5  4  6  5       -1 -.914527682487D-03 0.100000000000D+01
0.171929565059D+00 0.000000000000D+00 -.000000000000D+00 0.328567656376D-04 0.000000000000D+00  6 2 -2 25 1 -1 21 2 0.84822888D+00 0.34967303D-01 0.32253665D+06 0.32253665D+06 0.32253665D+06 0.10822321D+01  1  2  6  4  6  5       -1 0.974832490549D-03 0.100000000000D+01
  </mgrwgt>
  </event>
  <event>
  5     66 0.18881543E-05 0.13050063E+03 0.75467711E-02 0.93636413E-01
        2 -1    0    0  502    0 0.00000000E+00 0.00000000E+00 0.35261730E+04 0.35261730E+04 0.32000000E+00 0.0000E+00 0.9000E+01
       -2 -1    0    0    0  501 0.00000000E+00 0.00000000E+00 -.49485821E+03 0.49485832E+03 0.32000000E+00 0.0000E+00 0.9000E+01
       25  1    1    2    0    0 0.14637780E+02 -.46082359E+03 0.26887581E+04 0.27308639E+04 0.12500000E+03 0.0000E+00 0.9000E+01
        1  1    1    2  502    0 -.13029926E+03 0.91110803E+01 0.69405475E+03 0.70623863E+03 0.32000000E+00 0.0000E+00 0.9000E+01
       -1  1    1    2    0  501 0.11566148E+03 0.45171251E+03 -.35149809E+03 0.58392875E+03 0.32000000E+00 0.0000E+00 0.9000E+01
#aMCatNLO 1  0  0  5  2 0.48094864D+02 0.00000000D+00  -5  6  0 0.00000000D+00 0.00000000D+00 0.00000000D+00 0.00000000D+00 0.00000000D+00
  <mgrwgt>
 0.5689252892D-03    8    2    0
 0.132096778739574D+04 0.000000000000000D+00 0.000000000000000D+00 0.132096778739574D+04
 0.132096778739574D+04 -.000000000000000D+00 -.000000000000000D+00 -.132096778739574D+04
 0.107156441380310D+04 0.145128073819201D+02 -.460870135310460D+03 0.959173284516409D+03
 0.278300041679279D+03 -.130182755651139D+03 0.910293408371743D+01 0.245805817508113D+03
 0.129207111930910D+04 0.115669948269219D+03 0.451767201226743D+03 -.120497910202452D+04
 0.000000000000000D+00 0.000000000000000D+00 0.000000000000000D+00 0.000000000000000D+00
 0.132096778739574D+04 0.000000000000000D+00 0.000000000000000D+00 0.132096778739574D+04
 0.132096778739574D+04 -.000000000000000D+00 -.000000000000000D+00 -.132096778739574D+04
 0.106806987769816D+04 0.148307695437589D+02 -.459628284007686D+03 0.955860948287482D+03
 0.277512391437314D+03 -.130100158674864D+03 0.942552958375474D+01 0.244945372493742D+03
 0.114313946604095D+04 0.147749151213351D+03 0.383830766940572D+03 -.106658894119803D+04
 0.153213839615059D+03 -.324797620822454D+02 0.663719874833595D+02 -.134217379583191D+03
0.243582013202D-03 0.000000000000D+00 0.000000000000D+00 0.240433590193D-05 0.000000000000D+00  6 2 -2 25 1 -1 21 0 0.54248816D+00 0.76132042D-01 0.28868175D+06 0.28868175D+06 0.28868175D+06 0.10857897D+01  1  2  2  4  6  5       -1 0.387093813911D-04 0.100000000000D+01
0.791758532171D-05 0.000000000000D+00 -.935419067313D-06 0.240433590193D-05 0.000000000000D+00  6 2 -2 25 1 -1 21 2 0.54248816D+00 0.76132042D-01 0.28868175D+06 0.28868175D+06 0.28868175D+06 0.10857897D+01  1  2  3  4  6  5       -1 0.148338954590D-05 0.100000000000D+01
-.179606549663D-03 0.000000000000D+00 0.000000000000D+00 0.240433590193D-05 0.000000000000D+00  6 2 -2 25 1 -1 21 2 0.54248816D+00 0.76132042D-01 0.28868175D+06 0.28868175D+06 0.28868175D+06 0.10857897D+01  1  2 15  4  6  5       -1 -.336499661602D-04 0.100000000000D+01
0.101516412286D-07 0.000000000000D+00 0.000000000000D+00 0.240433590193D-05 0.000000000000D+00  6 2 -2 25 1 -1 21 2 0.54248816D+00 0.76132042D-01 0.29821054D+06 0.29821054D+06 0.29821054D+06 0.10847441D+01  1  2 12  4  6  5       -1 0.189240740277D-08 0.100000000000D+01
0.510190952732D-02 0.000000000000D+00 0.000000000000D+00 0.240433590193D-05 0.000000000000D+00  6 2 -2 25 1 -1 21 2 0.54248816D+00 0.76132042D-01 0.29821054D+06 0.29821054D+06 0.29821054D+06 0.10847441D+01  1  2 12  4  6  5       -1 0.951067038362D-03 0.100000000000D+01
-.303941370760D-02 0.000000000000D+00 0.000000000000D+00 0.240433590193D-05 0.000000000000D+00  6 2 -2 25 1 -1 21 2 0.54248816D+00 0.76132042D-01 0.28868175D+06 0.28868175D+06 0.28868175D+06 0.10857897D+01  1  2  4  4  6  5       -1 -.569445649947D-03 0.100000000000D+01
-.768429273872D-02 0.000000000000D+00 0.000000000000D+00 0.240433590193D-05 0.000000000000D+00  6 2 -2 25 1 -1 21 2 0.54248816D+00 0.76132042D-01 0.28868175D+06 0.28868175D+06 0.28868175D+06 0.10857897D+01  1  2  5  4  6  5       -1 -.143968129842D-02 0.100000000000D+01
0.864909421065D-02 0.000000000000D+00 -.000000000000D+00 0.240433590193D-05 0.000000000000D+00  6 2 -2 25 1 -1 21 2 0.54248816D+00 0.76132042D-01 0.28868175D+06 0.28868175D+06 0.28868175D+06 0.10857897D+01  1  2  6  4  6  5       -1 0.162044050203D-02 0.100000000000D+01
  </mgrwgt>
  </event>
  <event>
  5     66 0.18881543E-05 0.13585044E+03 0.75467711E-02 0.89959631E-01
        2 -1    0    0  502    0 0.00000000E+00 0.00000000E+00 0.24618314E+04 0.24618314E+04 0.32000000E+00 0.0000E+00 0.9000E+01
       -2 -1    0    0    0  501 0.00000000E+00 0.00000000E+00 -.49787624E+03 0.49787634E+03 0.32000000E+00 0.0000E+00 0.9000E+01
       25  1    1    2    0    0 0.52046283E+03 0.37236339E+03 0.10191540E+04 0.12098909E+04 0.12500000E+03 0.0000E+00 0.9000E+01
        1  1    1    2  502    0 -.60912629E+02 -.12147293E+03 0.11714381E+04 0.11792936E+04 0.32000000E+00 0.0000E+00 0.9000E+01
       -1  1    1    2    0  501 -.45955020E+03 -.25089046E+03 -.22663697E+03 0.57052329E+03 0.32000000E+00 0.0000E+00 0.9000E+01
#aMCatNLO 1  0  0  4  1 0.64531508D+01 0.00000000D+00  -5  6  0 0.00000000D+00 0.00000000D+00 0.00000000D+00 0.00000000D+00 0.00000000D+00
  <mgrwgt>
 0.2756172774D-02    6    2    0
 0.110710774423709D+04 0.000000000000000D+00 0.000000000000000D+00 0.110710774423709D+04
 0.110710774423709D+04 -.000000000000000D+00 -.000000000000000D+00 -.110710774423709D+04
 0.713382120280862D+03 0.520512153702701D+03 0.372369832919442D+03 0.289304087277972D+03
 0.537151096029049D+03 -.608950166943099D+02 -.121437803526743D+03 0.519688326578161D+03
 0.963682272164276D+03 -.459617137008391D+03 -.250932029392699D+03 -.808992413856133D+03
 0.000000000000000D+00 0.000000000000000D+00 0.000000000000000D+00 0.000000000000000D+00
 0.110710774423709D+04 0.000000000000000D+00 0.000000000000000D+00 0.110710774423709D+04
 0.110710774423709D+04 -.000000000000000D+00 -.000000000000000D+00 -.110710774423709D+04
 0.722567007925254D+03 0.515769236988835D+03 0.362911433541156D+03 0.329780937173622D+03
 0.274245813864189D+03 -.199882796237717D+03 -.486764542242698D+02 0.181351142798647D+03
 0.926020201269625D+03 -.465858793672566D+03 -.263379239637676D+03 -.755725064851800D+03
 0.291382465415119D+03 0.149972352921448D+03 -.508557396792102D+02 0.244592984879531D+03
0.517499568798D-02 0.000000000000D+00 0.000000000000D+00 0.464798351800D-05 0.000000000000D+00  6 2 -2 25 1 -1 21 0 0.37874330D+00 0.76596354D-01 0.43006870D+06 0.43006870D+06 0.43006870D+06 0.10731657D+01  1  2  2  3  6  4        1 0.374769651361D-02 0.100000000000D+01
0.791132980146D-03 0.000000000000D+00 -.198733460495D-04 0.464798351800D-05 0.000000000000D+00  6 2 -2 25 1 -1 21 2 0.37874330D+00 0.76596354D-01 0.43006870D+06 0.43006870D+06 0.43006870D+06 0.10731657D+01  1  2  3  3  6  4        1 0.659838289404D-03 0.100000000000D+01
-.314671151746D-02 0.000000000000D+00 0.000000000000D+00 0.464798351800D-05 0.000000000000D+00  6 2 -2 25 1 -1 21 2 0.37874330D+00 0.76596354D-01 0.43006870D+06 0.43006870D+06 0.43006870D+06 0.10731657D+01  1  2 15  3  6  4        1 -.262449018943D-02 0.100000000000D+01
-.206140526723D-03 0.000000000000D+00 0.000000000000D+00 0.464798351800D-05 0.000000000000D+00  6 2 -2 25 1 -1 21 2 0.37874330D+00 0.76596354D-01 0.43006870D+06 0.43006870D+06 0.43006870D+06 0.10731657D+01  1  2  4  3  6  4        1 -.171929897935D-03 0.100000000000D+01
-.201667671579D-02 0.000000000000D+00 0.000000000000D+00 0.464798351800D-05 0.000000000000D+00  6 2 -2 25 1 -1 21 2 0.37874330D+00 0.76596354D-01 0.43006870D+06 0.43006870D+06 0.43006870D+06 0.10731657D+01  1  2  5  3  6  4        1 -.168199348001D-02 0.100000000000D+01
0.338957854426D-02 0.000000000000D+00 -.000000000000D+00 0.464798351800D-05 0.000000000000D+00  6 2 -2 25 1 -1 21 2 0.37874330D+00 0.76596354D-01 0.43006870D+06 0.43006870D+06 0.43006870D+06 0.10731657D+01  1  2  6  3  6  4        1 0.282705153820D-02 0.100000000000D+01
  </mgrwgt>
  </event>
  <event>
  5     66 0.18881543E-05 0.93627679E+02 0.75467711E-02 0.90236594E-01
        2 -1    0    0  502    0 0.00000000E+00 0.00000000E+00 0.14577843E+04 0.14577844E+04 0.32000000E+00 0.0000E+00 0.9000E+01
       -2 -1    0    0    0  501 0.00000000E+00 0.00000000E+00 -.13106838E+04 0.13106839E+04 0.32000000E+00 0.0000E+00 0.9000E+01
       25  1    1    2    0    0 0.38737132E+03 -.38983761E+03 -.37021505E+02 0.56482342E+03 0.12500000E+03 0.0000E+00 0.9000E+01
        1  1    1    2  502    0 -.48588818E+02 -.80039581E+02 0.11086687E+04 0.11126156E+04 0.32000000E+00 0.0000E+00 0.9000E+01
       -1  1    1    2    0  501 -.33878251E+03 0.46987719E+03 -.92454663E+03 0.10910292E+04 0.32000000E+00 0.0000E+00 0.9000E+01
#aMCatNLO 1  0  0  5  1 0.35957153D+03 0.00000000D+00  -5  6  0 0.00000000D+00 0.00000000D+00 0.00000000D+00 0.00000000D+00 0.00000000D+00
  <mgrwgt>
 0.2416287193D-02    6    2    0
 0.138227871568243D+04 0.000000000000000D+00 0.000000000000000D+00 0.138227871568243D+04
 0.138227871568243D+04 -.000000000000000D+00 -.000000000000000D+00 -.138227871568243D+04
 0.567642574655723D+03 0.387404042881300D+03 -.389886321393547D+03 -.670809698141707D+02
 0.105513374653270D+04 -.485858651934698D+02 -.800347175626177D+02 0.105097149379049D+04
 0.114178111017643D+04 -.338818177687830D+03 0.469921038956164D+03 -.983890523976315D+03
 0.000000000000000D+00 0.000000000000000D+00 0.000000000000000D+00 -.000000000000000D+00
 0.138227871568243D+04 0.000000000000000D+00 0.000000000000000D+00 0.138227871568243D+04
 0.138227871568243D+04 -.000000000000000D+00 -.000000000000000D+00 -.138227871568243D+04
 0.550780309189075D+03 0.372922149920831D+03 -.369800781023555D+03 -.109134785669864D+03
 0.978353961188703D+03 -.749164703205899D+02 -.435157049107023D+02 0.974510327946532D+03
 0.634674667744330D+03 -.482931986991167D+03 0.745512229265514D+02 -.405007092502458D+03
 0.600748493242749D+03 0.184926307390927D+03 0.338765263007706D+03 -.460368449774210D+03
0.136151098022D-01 0.000000000000D+00 0.000000000000D+00 0.677946697141D-04 0.000000000000D+00  6 2 -2 25 1 -1 21 0 0.22427452D+00 0.20164367D+00 0.38230907D+06 0.38230907D+06 0.38230907D+06 0.10768467D+01  1  2  2  4  6  5       -1 0.283419159965D-02 0.100000000000D+01
0.432040154511D-02 0.000000000000D+00 -.522856065812D-04 0.677946697141D-04 0.000000000000D+00  6 2 -2 25 1 -1 21 2 0.22427452D+00 0.20164367D+00 0.38230907D+06 0.38230907D+06 0.38230907D+06 0.10768467D+01  1  2  3  4  6  5       -1 0.104289345362D-02 0.100000000000D+01
-.911647342498D-02 0.000000000000D+00 0.000000000000D+00 0.677946697141D-04 0.000000000000D+00  6 2 -2 25 1 -1 21 2 0.22427452D+00 0.20164367D+00 0.38230907D+06 0.38230907D+06 0.38230907D+06 0.10768467D+01  1  2 15  4  6  5       -1 -.220060805824D-02 0.100000000000D+01
-.954194734611D-03 0.000000000000D+00 0.000000000000D+00 0.677946697141D-04 0.000000000000D+00  6 2 -2 25 1 -1 21 2 0.22427452D+00 0.20164367D+00 0.38230907D+06 0.38230907D+06 0.38230907D+06 0.10768467D+01  1  2  4  4  6  5       -1 -.230331239310D-03 0.100000000000D+01
-.634639173655D-02 0.000000000000D+00 0.000000000000D+00 0.677946697141D-04 0.000000000000D+00  6 2 -2 25 1 -1 21 2 0.22427452D+00 0.20164367D+00 0.38230907D+06 0.38230907D+06 0.38230907D+06 0.10768467D+01  1  2  5  4  6  5       -1 -.153194334532D-02 0.100000000000D+01
0.103654030255D-01 0.000000000000D+00 -.000000000000D+00 0.677946697141D-04 0.000000000000D+00  6 2 -2 25 1 -1 21 2 0.22427452D+00 0.20164367D+00 0.38230907D+06 0.38230907D+06 0.38230907D+06 0.10768467D+01  1  2  6  4  6  5       -1 0.250208478230D-02 0.100000000000D+01
  </mgrwgt>
  </event>
  <event>
  5     66 0.18881543E-05 0.23018650E+03 0.75467711E-02 0.91802893E-01
        2 -1    0    0  502    0 0.00000000E+00 0.00000000E+00 0.18078559E+04 0.18078559E+04 0.32000000E+00 0.0000E+00 0.9000E+01
       -2 -1    0    0    0  501 0.00000000E+00 0.00000000E+00 -.87532260E+03 0.87532266E+03 0.32000000E+00 0.0000E+00 0.9000E+01
       25  1    1    2    0    0 0.38611511E+01 -.52526506E+03 0.15264552E+03 0.56110957E+03 0.12500000E+03 0.0000E+00 0.9000E+01
        1  1    1    2  502    0 -.12478193E+03 0.32942690E+03 0.14088993E+04 0.14522706E+04 0.32000000E+00 0.0000E+00 0.9000E+01
       -1  1    1    2    0  501 0.12092078E+03 0.19583816E+03 -.62901147E+03 0.66979844E+03 0.32000000E+00 0.0000E+00 0.9000E+01
#aMCatNLO 1  0  0  2  2 0.24597094D+03 0.00000000D+00  -5  6  0 0.00000000D+00 0.00000000D+00 0.00000000D+00 0.00000000D+00 0.00000000D+00
  <mgrwgt>
 0.1377359986D-02    7    4    0
 0.125795757092062D+04 0.000000000000000D+00 0.000000000000000D+00 0.125795757092062D+04
 0.125795757092062D+04 0.000000000000000D+00 0.000000000000000D+00 -.125795757092062D+04
 0.541835216402738D+03 0.384448699576874D+01 -.525272782873275D+03 -.451012774376384D+02
 0.102656169599785D+04 -.124776441963546D+03 0.329412411932202D+03 0.964234005875079D+03
 0.947518229440657D+03 0.120931954967777D+03 0.195860370941073D+03 -.919132728437441D+03
 0.000000000000000D+00 -.000000000000000D+00 0.000000000000000D+00 -.000000000000000D+00
 0.135158595280744D+04 0.000000000000000D+00 0.000000000000000D+00 0.135158595280744D+04
 0.143655920051035D+04 0.000000000000000D+00 0.000000000000000D+00 -.143655920051035D+04
 0.588895093899931D+03 0.317612078183479D+02 -.572825917771553D+03 -.451012774376384D+02
 0.997507052639268D+03 -.748039934790930D+02 0.244289714353178D+03 0.964234005875079D+03
 0.941508196886820D+03 0.167570329202339D+03 0.116416910675542D+03 -.919132728437441D+03
 0.260234809891765D+03 -.124527543541594D+03 0.212119292742833D+03 -.849732477029077D+02
 0.125795757092062D+04 0.000000000000000D+00 0.000000000000000D+00 0.125795757092062D+04
 0.125795757092062D+04 0.000000000000000D+00 0.000000000000000D+00 -.125795757092062D+04
 0.541835216402738D+03 0.384448699576874D+01 -.525272782873275D+03 -.451012774376384D+02
 0.102656169599785D+04 -.124776441963546D+03 0.329412411932202D+03 0.964234005875079D+03
 0.000000000000000D+00 -.000000000000000D+00 0.000000000000000D+00 -.000000000000000D+00
 0.947518229440657D+03 0.120931954967777D+03 0.195860370941073D+03 -.919132728437441D+03
 0.135158595280744D+04 0.000000000000000D+00 0.000000000000000D+00 0.135158595280744D+04
 0.143655920051035D+04 0.000000000000000D+00 0.000000000000000D+00 -.143655920051035D+04
 0.588895093899931D+03 0.317612078183479D+02 -.572825917771553D+03 -.451012774376384D+02
 0.997507052639268D+03 -.748039934790930D+02 0.244289714353178D+03 0.964234005875079D+03
 0.260234809891765D+03 -.124527543541594D+03 0.212119292742833D+03 -.849732477029077D+02
 0.941508196886820D+03 0.167570329202339D+03 0.116416910675542D+03 -.919132728437441D+03
0.193730313170D-02 0.000000000000D+00 0.000000000000D+00 0.182694532069D-04 0.000000000000D+00  6 2 -2 25 1 -1 21 0 0.27813169D+00 0.13466502D+00 0.31494190D+06 0.31494190D+06 0.31494190D+06 0.10829936D+01  1  2  2  2  6  2       -2 0.841239512620D-03 0.100000000000D+01
0.217387403499D-03 0.000000000000D+00 -.743975412936D-05 0.182694532069D-04 0.000000000000D+00  6 2 -2 25 1 -1 21 2 0.27813169D+00 0.13466502D+00 0.31494190D+06 0.31494190D+06 0.31494190D+06 0.10829936D+01  1  2  3  2  6  2       -2 0.110715444480D-03 0.100000000000D+01
-.135133336140D-02 0.000000000000D+00 0.000000000000D+00 0.182694532069D-04 0.000000000000D+00  6 2 -2 25 1 -1 21 2 0.27813169D+00 0.13466502D+00 0.31494190D+06 0.31494190D+06 0.31494190D+06 0.10829936D+01  1  2 15  2  6  2       -2 -.688234328853D-03 0.100000000000D+01
-.747066368472D-04 0.000000000000D+00 0.000000000000D+00 0.182694532069D-04 0.000000000000D+00  6 2 -2 25 1 -1 21 2 0.27813169D+00 0.13466502D+00 0.31494190D+06 0.31494190D+06 0.31494190D+06 0.10829936D+01  1  2  4  2  6  2       -2 -.380481038506D-04 0.100000000000D+01
-.659059486971D-02 0.000000000000D+00 -.264336674561D-02 0.182694532069D-04 0.000000000000D+00  6 2 -2 25 1 -1 21 2 0.27813169D+00 0.16175226D+00 0.31494190D+06 0.31494190D+06 0.31494190D+06 0.10829936D+01  1  2  5  2  6  2       -2 -.202813825666D-02 0.100000000000D+01
0.700093171010D-02 0.000000000000D+00 0.259958448127D-02 0.182694532069D-04 0.000000000000D+00  6 2 -2 25 1 -1 21 2 0.27813169D+00 0.13466502D+00 0.31494190D+06 0.31494190D+06 0.31494190D+06 0.10829936D+01  1  2  6  2  6  2       -2 0.356557580422D-02 0.100000000000D+01
-.150118675313D-03 0.000000000000D+00 -.707048450330D-04 0.182694532069D-04 0.000000000000D+00  6 2 21 25 1 2 -1 2 0.27813169D+00 0.16175226D+00 0.31494190D+06 0.31494190D+06 0.31494190D+06 0.10829936D+01  3  4  5  6  5  2       -2 -.385750085633D-03 0.100000000000D+01
  </mgrwgt>
  </event>
  <event>
  5     66 0.18881543E-05 0.19844988E+03 0.75467711E-02 0.91703893E-01
        2 -1    0    0  502    0 0.00000000E+00 0.00000000E+00 0.16590473E+04 0.16590473E+04 0.32000000E+00 0.0000E+00 0.9000E+01
       -2 -1    0    0    0  501 0.00000000E+00 0.00000000E+00 -.39135220E+03 0.39135233E+03 0.32000000E+00 0.0000E+00 0.9000E+01
       25  1    1    2    0    0 -.13098146E+03 -.50468203E+03 0.60227519E+03 0.80636251E+03 0.12500000E+03 0.0000E+00 0.9000E+01
        1  1    1    2  502    0 0.25578393E+03 0.35043352E+03 0.86181573E+03 0.96486036E+03 0.32000000E+00 0.0000E+00 0.9000E+01
       -1  1    1    2    0  501 -.12480247E+03 0.15424852E+03 -.19639582E+03 0.27917679E+03 0.32000000E+00 0.0000E+00 0.9000E+01
#aMCatNLO 1  0  0  5  2 0.18149385D+03 0.00000000D+00  -5  6  0 0.00000000D+00 0.00000000D+00 0.00000000D+00 0.00000000D+00 0.00000000D+00
  <mgrwgt>
 0.1107271049D-02    4    2    0
 0.805774149065982D+03 0.000000000000000D+00 0.000000000000000D+00 0.805774149065982D+03
 0.805774149065982D+03 -.000000000000000D+00 -.000000000000000D+00 -.805774149065982D+03
 0.552178120456206D+03 -.130926087794703D+03 -.504661176526535D+03 0.132102737110839D+03
 0.549592842299289D+03 0.255745168128352D+03 0.350380415161707D+03 0.337461502925478D+03
 0.509777335376469D+03 -.124819080333649D+03 0.154280761364827D+03 -.469564240036317D+03
 0.000000000000000D+00 0.000000000000000D+00 -.000000000000000D+00 0.000000000000000D+00
 0.805774149065982D+03 0.000000000000000D+00 0.000000000000000D+00 0.805774149065982D+03
 0.805774149065982D+03 -.000000000000000D+00 -.000000000000000D+00 -.805774149065982D+03
 0.520796244033034D+03 -.151502748193941D+03 -.479227702539593D+03 0.546941880570713D+02
 0.514228818925079D+03 0.235344031090202D+03 0.375596936117802D+03 0.260713265527888D+03
 0.181680746387742D+03 0.729497351996894D+02 0.160894578307589D+03 0.424165582470466D+02
 0.394842488786109D+03 -.156791018095951D+03 -.572638118857990D+02 -.357824011832006D+03
0.848588342129D-03 0.000000000000D+00 0.000000000000D+00 0.458097961867D-06 0.000000000000D+00  6 2 -2 25 1 -1 21 0 0.25523806D+00 0.60208043D-01 0.34127859D+06 0.34127859D+06 0.34127859D+06 0.10804338D+01  1  2  2  4  6  5       -1 0.292711262562D-02 0.100000000000D+01
0.696515933541D-04 0.000000000000D+00 -.325880267222D-05 0.458097961867D-06 0.000000000000D+00  6 2 -2 25 1 -1 21 2 0.25523806D+00 0.60208043D-01 0.34127859D+06 0.34127859D+06 0.34127859D+06 0.10804338D+01  1  2  3  4  6  5       -1 0.280459233853D-03 0.100000000000D+01
-.492214716910D-03 0.000000000000D+00 0.000000000000D+00 0.458097961867D-06 0.000000000000D+00  6 2 -2 25 1 -1 21 2 0.25523806D+00 0.60208043D-01 0.34127859D+06 0.34127859D+06 0.34127859D+06 0.10804338D+01  1  2 15  4  6  5       -1 -.198195268404D-02 0.100000000000D+01
-.293915642021D-04 0.000000000000D+00 0.000000000000D+00 0.458097961867D-06 0.000000000000D+00  6 2 -2 25 1 -1 21 2 0.25523806D+00 0.60208043D-01 0.34127859D+06 0.34127859D+06 0.34127859D+06 0.10804338D+01  1  2  4  4  6  5       -1 -.118348126452D-03 0.100000000000D+01
  </mgrwgt>
  </event>
  <event>
  5     66 0.18881543E-05 0.58443973E+02 0.75467711E-02 0.86609663E-01
        2 -1    0    0  502    0 0.00000000E+00 0.00000000E+00 0.13668500E+04 0.13668501E+04 0.32000000E+00 0.0000E+00 0.9000E+01
       -2 -1    0    0    0  501 0.00000000E+00 0.00000000E+00 -.60892717E+03 0.60892725E+03 0.32000000E+00 0.0000E+00 0.9000E+01
       25  1    1    2    0    0 0.48902848E+02 0.45693709E+03 0.49103504E+03 0.68404927E+03 0.12500000E+03 0.0000E+00 0.9000E+01
        1  1    1    2  502    0 -.30777831E+02 -.49704371E+02 0.69681993E+03 0.69926813E+03 0.32000000E+00 0.0000E+00 0.9000E+01
       -1  1    1    2    0  501 -.18125017E+02 -.40723272E+03 -.42993212E+03 0.59245990E+03 0.32000000E+00 0.0000E+00 0.9000E+01
#aMCatNLO 1  0  0  1  4 0.38614627D+01 0.00000000D+00  -5  6  0 0.00000000D+00 0.00000000D+00 0.00000000D+00 0.00000000D+00 0.00000000D+00
  <mgrwgt>
 0.1226328968D-01    3    2    0
 0.912311477275163D+03 0.000000000000000D+00 0.000000000000000D+00 0.912311477275163D+03
 0.912311477275163D+03 0.000000000000000D+00 0.000000000000000D+00 -.912311477275163D+03
 0.536858798523243D+03 0.488981336450806D+02 0.456991857940873D+03 0.247709070995788D+03
 0.467603321534239D+03 -.307683683985941D+02 -.496890887028329D+02 0.463936599418308D+03
 0.820160834492843D+03 -.181297652464866D+02 -.407302769238040D+03 -.711645670414096D+03
 0.000000000000000D+00 -.000000000000000D+00 -.000000000000000D+00 -.000000000000000D+00
 0.131236126622931D+04 0.000000000000000D+00 0.000000000000000D+00 0.131236126622931D+04
 0.180591330885009D+04 0.000000000000000D+00 0.000000000000000D+00 -.180591330885009D+04
 0.783592882291179D+03 0.284108401840012D+03 0.675511241451772D+03 0.247709070995788D+03
 0.497233427645381D+03 0.141096694016181D+03 0.109980162874288D+03 0.463936599418308D+03
 0.773080638388743D+03 0.265672178876627D+03 -.143639850331876D+03 -.711645670414096D+03
 0.106436762675409D+04 -.690877274732820D+03 -.641851553994185D+03 -.493552042620778D+03
0.117475085301D-01 0.000000000000D+00 0.000000000000D+00 0.824265536494D-04 0.000000000000D+00  6 2 -2 25 1 -1 21 0 0.21028463D+00 0.93681112D-01 0.22205099D+06 0.22205099D+06 0.22205099D+06 0.10943537D+01  1  2  2  1  6  1        2 0.225607522199D-01 0.100000000000D+01
0.332801704508D-02 0.000000000000D+00 -.451135259456D-04 0.824265536494D-04 0.000000000000D+00  6 2 -2 25 1 -1 21 2 0.21028463D+00 0.93681112D-01 0.22205099D+06 0.22205099D+06 0.22205099D+06 0.10943537D+01  1  2  3  1  6  1        2 0.765435866154D-02 0.100000000000D+01
-.780522178066D-02 0.000000000000D+00 0.000000000000D+00 0.824265536494D-04 0.000000000000D+00  6 2 -2 25 1 -1 21 2 0.21028463D+00 0.93681112D-01 0.22205099D+06 0.22205099D+06 0.22205099D+06 0.10943537D+01  1  2 15  1  6  1        2 -.179518211995D-01 0.100000000000D+01
  </mgrwgt>
  </event>
  <event>
  5     66 0.18881543E-05 0.40304922E+02 0.75467711E-02 0.94000613E-01
        2 -1    0    0  502    0 0.00000000E+00 0.00000000E+00 0.26882843E+04 0.26882843E+04 0.32000000E+00 0.0000E+00 0.9000E+01
       -2 -1    0    0    0  501 0.00000000E+00 0.00000000E+00 -.46921217E+03 0.46921228E+03 0.32000000E+00 0.0000E+00 0.9000E+01
       25  1    1    2    0    0 -.94717994E+02 -.47096524E+03 0.72223434E+03 0.87637161E+03 0.12500000E+03 0.0000E+00 0.9000E+01
        1  1    1    2  502    0 -.21959669E+00 -.40310133E+02 0.17162447E+04 0.17167181E+04 0.32000000E+00 0.0000E+00 0.9000E+01
       -1  1    1    2    0  501 0.94937591E+02 0.51127537E+03 -.21940693E+03 0.56440691E+03 0.32000000E+00 0.0000E+00 0.9000E+01
#aMCatNLO 1  0  0  4  1 0.17909990D+01 0.00000000D+00  -5  6  0 0.00000000D+00 0.00000000D+00 0.00000000D+00 0.00000000D+00 0.00000000D+00
  <mgrwgt>
 0.1317893892D-01    9    2    0
 0.112310992730931D+04 0.000000000000000D+00 0.000000000000000D+00 0.112310992730931D+04
 0.112310992730931D+04 -.000000000000000D+00 -.000000000000000D+00 -.112310992730931D+04
 0.518493706709219D+03 -.947303448758859D+02 -.471035500907072D+03 0.149540772172626D+03
 0.717573660582016D+03 -.219565047532639D+00 -.403043238615685D+02 0.716440836099064D+03
 0.101015248732739D+04 0.949499099234185D+02 0.511339824768641D+03 -.865981608271690D+03
 0.000000000000000D+00 0.000000000000000D+00 -.000000000000000D+00 0.000000000000000D+00
 0.112310992730931D+04 0.000000000000000D+00 0.000000000000000D+00 0.112310992730931D+04
 0.112310992730931D+04 -.000000000000000D+00 -.000000000000000D+00 -.112310992730931D+04
 0.518494923930988D+03 -.947303459744121D+02 -.471035702557362D+03 0.149544356664041D+03
 0.592734496736104D+03 -.181301563995541D+01 -.325548962533825D+02 0.591837034431965D+03
 0.101014630151760D+04 0.949499077832300D+02 0.511339431906245D+03 -.865974624835758D+03
 0.124844132433937D+03 0.159345383113747D+01 -.774883309549925D+01 0.124593233739752D+03
0.230121197661D-04 0.000000000000D+00 0.000000000000D+00 0.192377702120D-03 0.000000000000D+00  6 2 -2 25 1 -1 21 0 0.41358221D+00 0.72186498D-01 0.27923105D+06 0.27923105D+06 0.27923105D+06 0.10868646D+01  1  2  2  3  6  4        1 0.144362674798D-04 0.100000000000D+01
0.114896738428D-04 0.000000000000D+00 -.883725991320D-07 0.192377702120D-03 0.000000000000D+00  6 2 -2 25 1 -1 21 2 0.41358221D+00 0.72186498D-01 0.27923105D+06 0.27923105D+06 0.27923105D+06 0.10868646D+01  1  2  3  3  6  4        1 0.851445541159D-05 0.100000000000D+01
-.157440633206D-04 0.000000000000D+00 0.000000000000D+00 0.192377702120D-03 0.000000000000D+00  6 2 -2 25 1 -1 21 2 0.41358221D+00 0.72186498D-01 0.27923105D+06 0.27923105D+06 0.27923105D+06 0.10868646D+01  1  2 15  3  6  4        1 -.116671828090D-04 0.100000000000D+01
0.144603835852D-11 0.000000000000D+00 0.000000000000D+00 0.192377702120D-03 0.000000000000D+00  6 2 -2 25 1 -1 21 2 0.41358221D+00 0.72186498D-01 0.27934266D+06 0.27934266D+06 0.27934266D+06 0.10868517D+01  1  2 12  3  6  4        1 0.107153266842D-11 0.100000000000D+01
0.120973673264D-03 0.000000000000D+00 0.000000000000D+00 0.192377702120D-03 0.000000000000D+00  6 2 -2 25 1 -1 21 2 0.41358221D+00 0.72186498D-01 0.27934266D+06 0.27934266D+06 0.27934266D+06 0.10868517D+01  1  2 12  3  6  4        1 0.896430182211D-04 0.100000000000D+01
-.177875753573D+00 0.000000000000D+00 0.000000000000D+00 0.192377702120D-03 0.000000000000D+00  6 2 -2 25 1 -1 21 2 0.41358221D+00 0.72186498D-01 0.27923105D+06 0.27923105D+06 0.27923105D+06 0.10868646D+01  1  2  4  3  6  4        1 -.131815332038D+00 0.100000000000D+01
-.203498130811D+00 0.000000000000D+00 0.000000000000D+00 0.192377702120D-03 0.000000000000D+00  6 2 -2 25 1 -1 21 2 0.41358221D+00 0.72186498D-01 0.27923105D+06 0.27923105D+06 0.27923105D+06 0.10868646D+01  1  2  5  3  6  4        1 -.150802867412D+00 0.100000000000D+01
0.241927388687D+00 0.000000000000D+00 -.000000000000D+00 0.192377702120D-03 0.000000000000D+00  6 2 -2 25 1 -1 21 2 0.41358221D+00 0.72186498D-01 0.27923105D+06 0.27923105D+06 0.27923105D+06 0.10868646D+01  1  2  6  3  6  4        1 0.179280978032D+00 0.100000000000D+01
0.157102903651D+00 0.000000000000D+00 0.000000000000D+00 0.192377702120D-03 0.204384638008D-03  6 2 -2 25 1 -1 21 2 0.41358221D+00 0.72186498D-01 0.27934266D+06 0.27934266D+06 0.27934266D+06 0.10868517D+01  1  2 11  3  6  4        1 0.116415233783D+00 0.100000000000D+01
  </mgrwgt>
  </event>
  <event>
  5     66 0.18881543E-05 0.88050370E+02 0.75467711E-02 0.94804283E-01
        2 -1    0    0  502    0 0.00000000E+00 0.00000000E+00 0.27289749E+04 0.27289749E+04 0.32000000E+00 0.0000E+00 0.9000E+01
       -2 -1    0    0    0  501 0.00000000E+00 0.00000000E+00 -.10839354E+04 0.10839354E+04 0.32000000E+00 0.0000E+00 0.9000E+01
       25  1    1    2    0    0 -.44557042E+03 0.15679129E+03 -.49768172E+02 0.49113988E+03 0.12500000E+03 0.0000E+00 0.9000E+01
        1  1    1    2  502    0 0.85194247E+02 0.22248902E+02 0.24576890E+04 0.24592658E+04 0.32000000E+00 0.0000E+00 0.9000E+01
       -1  1    1    2    0  501 0.36037618E+03 -.17904019E+03 -.76288127E+03 0.86250467E+03 0.32000000E+00 0.0000E+00 0.9000E+01
#aMCatNLO 1  0  0  1  4 0.63957803D+01 0.00000000D+00  -5  6  0 0.00000000D+00 0.00000000D+00 0.00000000D+00 0.00000000D+00 0.00000000D+00
  <mgrwgt>
 0.5962520731D-01   13    2    0
 0.171989317766559D+04 0.000000000000000D+00 0.000000000000000D+00 0.171989317766559D+04
 0.171989317766559D+04 0.000000000000000D+00 0.000000000000000D+00 -.171989317766559D+04
 0.568223959755735D+03 -.445593022903706D+03 0.156802486303492D+03 -.290022941625429D+03
 0.155064675401857D+04 0.851931165032704D+02 0.222486065076458D+02 0.154814485373859D+04
 0.132091564155686D+04 0.360399906400436D+03 -.179051092811138D+03 -.125812191211316D+04
 0.000000000000000D+00 0.000000000000000D+00 -.000000000000000D+00 0.000000000000000D+00
 0.184025325960972D+04 0.000000000000000D+00 0.000000000000000D+00 0.184025325960972D+04
 0.171998111865596D+04 0.000000000000000D+00 0.000000000000000D+00 -.171998111865596D+04
 0.568738351161162D+03 -.445891169061939D+03 0.157816573163363D+03 -.290022941625429D+03
 0.155064444224135D+04 0.843798634632632D+02 0.250147304332708D+02 0.154814485373859D+04
 0.132040950793315D+04 0.359707270471871D+03 -.176695224810038D+03 -.125812191211316D+04
 0.120442076930011D+03 0.180403512680483D+01 -.613607878659529D+01 0.120272140953758D+03
0.193762677193D-02 0.000000000000D+00 0.000000000000D+00 0.105630469283D-02 0.000000000000D+00  6 2 -2 25 1 -1 21 0 0.41984230D+00 0.16675929D+00 0.23966570D+06 0.23966570D+06 0.23966570D+06 0.10918411D+01  1  2  2  1  6  1        2 0.144022039312D-03 0.100000000000D+01
0.608819361610D-03 0.000000000000D+00 -.744099699305D-05 0.105630469283D-02 0.000000000000D+00  6 2 -2 25 1 -1 21 2 0.41984230D+00 0.16675929D+00 0.23966570D+06 0.23966570D+06 0.23966570D+06 0.10918411D+01  1  2  3  1  6  1        2 0.539468551985D-04 0.100000000000D+01
-.121596571389D-02 0.000000000000D+00 0.000000000000D+00 0.105630469283D-02 0.000000000000D+00  6 2 -2 25 1 -1 21 2 0.41984230D+00 0.16675929D+00 0.23966570D+06 0.23966570D+06 0.23966570D+06 0.10918411D+01  1  2 15  1  6  1        2 -.107745466767D-03 0.100000000000D+01
0.677125968762D-09 0.000000000000D+00 0.000000000000D+00 0.105630469283D-02 0.000000000000D+00  6 2 -2 25 1 -1 21 2 0.44923366D+00 0.16675929D+00 0.24226180D+06 0.24226180D+06 0.24226180D+06 0.10914879D+01  1  2 12  1  6  1        2 0.458101646443D-10 0.100000000000D+01
0.138767060784D+01 0.000000000000D+00 0.000000000000D+00 0.105630469283D-02 0.000000000000D+00  6 2 -2 25 1 -1 21 2 0.46399314D+00 0.16675929D+00 0.24226180D+06 0.24226180D+06 0.24226180D+06 0.10914879D+01  1  2 12  1  6  1        2 0.817442179282D-01 0.100000000000D+01
-.952516006273D+00 0.000000000000D+00 0.000000000000D+00 0.105630469283D-02 0.000000000000D+00  6 2 -2 25 1 -1 21 2 0.41984230D+00 0.16675929D+00 0.23966570D+06 0.23966570D+06 0.23966570D+06 0.10918411D+01  1  2  4  1  6  1        2 -.844014601125D-01 0.100000000000D+01
-.253744104474D+01 0.000000000000D+00 -.471664230246D-02 0.105630469283D-02 0.000000000000D+00  6 2 -2 25 1 -1 21 2 0.44922945D+00 0.16675929D+00 0.23966570D+06 0.23966570D+06 0.23966570D+06 0.10918411D+01  1  2  5  1  6  1        2 -.171970259557D+00 0.100000000000D+01
0.253197409932D+01 0.000000000000D+00 0.470586846334D-02 0.105630469283D-02 0.000000000000D+00  6 2 -2 25 1 -1 21 2 0.41984230D+00 0.16675929D+00 0.23966570D+06 0.23966570D+06 0.23966570D+06 0.10918411D+01  1  2  6  1  6  1        2 0.224355611393D+00 0.100000000000D+01
0.145659620436D+00 0.000000000000D+00 0.000000000000D+00 0.105630469283D-02 0.882254430609D-04  6 2 -2 25 1 -1 21 2 0.44922334D+00 0.16676782D+00 0.24226180D+06 0.24226180D+06 0.24226180D+06 0.10914879D+01  1  2 11  1  6  1        2 0.985393042581D-02 0.100000000000D+01
0.995180166307D-11 0.000000000000D+00 0.000000000000D+00 0.105630469283D-02 0.000000000000D+00  6 21 -2 25 1 -1 -2 2 0.44923366D+00 0.16675929D+00 0.24226180D+06 0.24226180D+06 0.24226180D+06 0.10914879D+01  1  2 12  5  6  1        2 0.500768499543D-13 0.100000000000D+01
0.288163254847D-01 0.000000000000D+00 0.000000000000D+00 0.105630469283D-02 0.000000000000D+00  6 21 -2 25 1 -1 -2 2 0.46399314D+00 0.16675929D+00 0.24226180D+06 0.24226180D+06 0.24226180D+06 0.10914879D+01  1  2 12  5  6  1        2 0.112696824322D-03 0.100000000000D+01
-.360219487912D-01 0.000000000000D+00 -.542089433427D-04 0.105630469283D-02 0.000000000000D+00  6 21 -2 25 1 -1 -2 2 0.44922945D+00 0.16675929D+00 0.23966570D+06 0.23966570D+06 0.23966570D+06 0.10918411D+01  1  2  5  5  6  1        2 -.181695092090D-03 0.100000000000D+01
0.436043169405D-02 0.000000000000D+00 0.000000000000D+00 0.105630469283D-02 0.190444229407D-05  6 21 -2 25 1 -1 -2 2 0.44922334D+00 0.16676782D+00 0.24226180D+06 0.24226180D+06 0.24226180D+06 0.10914879D+01  1  2 11  5  6  1        2 0.219420234951D-04 0.100000000000D+01
  </mgrwgt>
  </event>
  <event>
  5     66 0.18881543E-05 0.12586683E+03 0.75467711E-02 0.94823201E-01
        2 -1    0    0  502    0 0.00000000E+00 0.00000000E+00 0.10511005E+04 0.10511005E+04 0.32000000E+00 0.0000E+00 0.9000E+01
       -2 -1    0    0    0  501 0.00000000E+00 0.00000000E+00 -.27874074E+03 0.27874092E+03 0.32000000E+00 0.0000E+00 0.9000E+01
       25  1    1    2    0    0 -.41791348E+03 0.21236362E+03 0.44054491E+03 0.65532800E+03 0.12500000E+03 0.0000E+00 0.9000E+01
        1  1    1    2  502    0 0.29212109E+03 -.21547091E+03 0.39266501E+03 0.53474139E+03 0.32000000E+00 0.0000E+00 0.9000E+01
       -1  1    1    2    0  501 0.12579239E+03 0.31072916E+01 -.60850173E+02 0.13977205E+03 0.32000000E+00 0.0000E+00 0.9000E+01
#aMCatNLO 1  0  0  5  2 0.33269469D+02 0.00000000D+00  -5  6  0 0.00000000D+00 0.00000000D+00 0.00000000D+00 0.00000000D+00 0.00000000D+00
  <mgrwgt>
 0.7056282179D-02    8    2    0
 0.541280588886286D+03 0.000000000000000D+00 0.000000000000000D+00 0.541280588886286D+03
 0.541280588886286D+03 -.000000000000000D+00 -.000000000000000D+00 -.541280588886286D+03
 0.490694995750286D+03 -.417896866312386D+03 0.212329638891624D+03 0.737218585550720D+02
 0.376670387550672D+03 0.292068276442018D+03 -.215431953033775D+03 0.100825474785966D+03
 0.215195794471615D+03 0.125828589870368D+03 0.310231414215108D+01 -.174547333341039D+03
 0.000000000000000D+00 0.000000000000000D+00 0.000000000000000D+00 -.000000000000000D+00
 0.541280588886286D+03 0.000000000000000D+00 0.000000000000000D+00 0.541280588886286D+03
 0.541280588886286D+03 -.000000000000000D+00 -.000000000000000D+00 -.541280588886286D+03
 0.487799652289802D+03 -.415124082765107D+03 0.212398002096049D+03 0.698754991974090D+02
 0.377520611485191D+03 0.294205445406428D+03 -.215379260958712D+03 0.978608294377088D+02
 0.107517605481419D+03 0.721776423274188D+02 -.282331463157910D+02 -.745205534441633D+02
 0.109723308516161D+03 0.487409950312601D+02 0.312144051784544D+02 -.932157751909549D+02
0.522289833983D-03 0.000000000000D+00 0.000000000000D+00 0.111598463221D-06 0.000000000000D+00  6 2 -2 25 1 -1 21 0 0.16170778D+00 0.42883208D-01 0.23712887D+06 0.23712887D+06 0.23712887D+06 0.10921903D+01  1  2  2  4  6  5       -1 0.792835759064D-02 0.100000000000D+01
0.352498965030D-04 0.000000000000D+00 -.200573048457D-05 0.111598463221D-06 0.000000000000D+00  6 2 -2 25 1 -1 21 2 0.16170778D+00 0.42883208D-01 0.23712887D+06 0.23712887D+06 0.23712887D+06 0.10921903D+01  1  2  3  4  6  5       -1 0.638301849208D-03 0.100000000000D+01
-.340598535528D-03 0.000000000000D+00 0.000000000000D+00 0.111598463221D-06 0.000000000000D+00  6 2 -2 25 1 -1 21 2 0.16170778D+00 0.42883208D-01 0.23712887D+06 0.23712887D+06 0.23712887D+06 0.10921903D+01  1  2 15  4  6  5       -1 -.616752662086D-02 0.100000000000D+01
0.304742007049D-05 0.000000000000D+00 0.000000000000D+00 0.111598463221D-06 0.000000000000D+00  6 2 -2 25 1 -1 21 2 0.16170778D+00 0.42883208D-01 0.24145813D+06 0.24145813D+06 0.24145813D+06 0.10915968D+01  1  2 12  4  6  5       -1 0.550936220517D-04 0.100000000000D+01
0.882322115712D-03 0.000000000000D+00 0.000000000000D+00 0.111598463221D-06 0.000000000000D+00  6 2 -2 25 1 -1 21 2 0.16170778D+00 0.42883208D-01 0.24145813D+06 0.24145813D+06 0.24145813D+06 0.10915968D+01  1  2 12  4  6  5       -1 0.159513030848D-01 0.100000000000D+01
-.136422066143D-02 0.000000000000D+00 0.000000000000D+00 0.111598463221D-06 0.000000000000D+00  6 2 -2 25 1 -1 21 2 0.16170778D+00 0.42883208D-01 0.23712887D+06 0.23712887D+06 0.23712887D+06 0.10921903D+01  1  2  4  4  6  5       -1 -.247031809255D-01 0.100000000000D+01
-.920556406886D-03 0.000000000000D+00 0.000000000000D+00 0.111598463221D-06 0.000000000000D+00  6 2 -2 25 1 -1 21 2 0.16170778D+00 0.42883208D-01 0.23712887D+06 0.23712887D+06 0.23712887D+06 0.10921903D+01  1  2  5  4  6  5       -1 -.166693498452D-01 0.100000000000D+01
0.165802062878D-02 0.000000000000D+00 -.000000000000D+00 0.111598463221D-06 0.000000000000D+00  6 2 -2 25 1 -1 21 2 0.16170778D+00 0.42883208D-01 0.23712887D+06 0.23712887D+06 0.23712887D+06 0.10921903D+01  1  2  6  4  6  5       -1 0.300232834240D-01 0.100000000000D+01
  </mgrwgt>
  </event>
  <event>
  6     66 -.18881543E-05 0.98277726E+02 0.75467711E-02 0.94622995E-01
        2 -1    0    0  503    0 0.00000000E+00 0.00000000E+00 0.11180131E+04 0.11180132E+04 0.32000000E+00 0.0000E+00 0.9000E+01
       -2 -1    0    0    0  501 0.00000000E+00 0.00000000E+00 -.64686023E+03 0.64686031E+03 0.32000000E+00 0.0000E+00 0.9000E+01
       25  1    1    2    0    0 -.36501829E+03 0.27797091E+03 -.12186920E+03 0.49090048E+03 0.12500000E+03 0.0000E+00 0.9000E+01
        1  1    1    2  502    0 0.33178012E+03 -.19679843E+03 0.70851404E+03 0.80672171E+03 0.32000000E+00 0.0000E+00 0.9000E+01
       -1  1    1    2    0  501 0.54989135E+02 -.97368936E+02 -.27948693E+03 0.30102750E+03 0.32000000E+00 0.0000E+00 0.9000E+01
       21  1    1    2  503  502 -.21750963E+02 0.16196453E+02 0.16399500E+03 0.16622380E+03 0.75000000E+00 0.0000E+00 0.9000E+01
#aMCatNLO 2  0  0  1  4 0.27118803D+02 0.00000000D+00  -5  6  0 0.00000000D+00 0.00000000D+00 0.00000000D+00 0.00000000D+00 0.00000000D+00
  <mgrwgt>
 -.1709523545D-02    3    2    0
 0.784314897057080D+03 0.000000000000000D+00 0.000000000000000D+00 0.784314897057080D+03
 0.784314897057080D+03 0.000000000000000D+00 0.000000000000000D+00 -.784314897057080D+03
 0.532067633004598D+03 -.372337941588264D+03 0.283428271939014D+03 -.220235869037253D+03
 0.676771808568209D+03 0.322341529113851D+03 -.189771631777174D+03 0.564005981576310D+03
 0.359790352541354D+03 0.499964124744128D+02 -.936566401618400D+02 -.343770112539057D+03
 0.000000000000000D+00 -.000000000000000D+00 0.000000000000000D+00 0.000000000000000D+00
 0.920349247699949D+03 0.000000000000000D+00 0.000000000000000D+00 0.920349247699949D+03
 0.785784813687599D+03 0.000000000000000D+00 0.000000000000000D+00 -.785784813687599D+03
 0.524057760487415D+03 -.365016255923879D+03 0.277976314148892D+03 -.220235869037253D+03
 0.683302031034944D+03 0.331770365116934D+03 -.196792640087985D+03 0.564005981576310D+03
 0.361504402875879D+03 0.549968541862370D+02 -.973801265821111D+02 -.343770112539057D+03
 0.137269866989310D+03 -.217509633792913D+02 0.161964525212035D+02 0.134564434012350D+03
-.301398524895D-08 0.000000000000D+00 0.000000000000D+00 0.803133610240D-05 0.000000000000D+00  6 2 -2 25 1 -1 21 2 0.17212431D+00 0.99330679D-01 0.25011735D+06 0.25011735D+06 0.25011735D+06 0.10904438D+01  1  2 13  1  6  1        2 -.825211761995D-08 0.100000000000D+01
-.128730546765D-02 0.000000000000D+00 0.000000000000D+00 0.803133610240D-05 0.000000000000D+00  6 2 -2 25 1 -1 21 2 0.17401523D+00 0.99330679D-01 0.25011735D+06 0.25011735D+06 0.25011735D+06 0.10904438D+01  1  2 13  1  6  1        2 -.346612602625D-02 0.100000000000D+01
0.643777243584D-03 0.000000000000D+00 0.000000000000D+00 0.803133610240D-05 0.331647873530D-07  6 2 -2 25 1 -1 21 2 0.17200181D+00 0.99516838D-01 0.25011735D+06 0.25011735D+06 0.25011735D+06 0.10904438D+01  1  2  1  1  6  1        2 0.175661073305D-02 0.100000000000D+01
  </mgrwgt>
  </event>
  <event>
  5     66 -.18881543E-05 0.93940632E+02 0.75467711E-02 0.85310388E-01
        2 -1    0    0  502    0 0.00000000E+00 0.00000000E+00 0.15566788E+04 0.15566789E+04 0.32000000E+00 0.0000E+00 0.9000E+01
       -2 -1    0    0    0  501 0.00000000E+00 0.00000000E+00 -.16615720E+04 0.16615720E+04 0.32000000E+00 0.0000E+00 0.9000E+01
       25  1    1    2    0    0 0.69049271E+03 -.10246312E+04 -.26953794E+03 0.12707970E+04 0.12500000E+03 0.0000E+00 0.9000E+01
        1  1    1    2  502    0 -.68462811E+03 0.93088166E+03 0.73495614E+03 0.13694586E+04 0.32000000E+00 0.0000E+00 0.9000E+01
       -1  1    1    2    0  501 -.58646001E+01 0.93749549E+02 -.57031138E+03 0.57799528E+03 0.32000000E+00 0.0000E+00 0.9000E+01
#aMCatNLO 1  0  0  2  2 0.20125292D+02 0.00000000D+00  -5  6  0 0.00000000D+00 0.00000000D+00 0.00000000D+00 0.00000000D+00 0.00000000D+00
  <mgrwgt>
 -.4921534707D-04    1    2    0
 0.160827052687909D+04 0.000000000000000D+00 0.000000000000000D+00 0.160827052687909D+04
 0.160827052687909D+04 0.000000000000000D+00 0.000000000000000D+00 -.160827052687909D+04
 0.126264937371494D+04 0.690478298207689D+03 -.102461805857523D+04 -.228157828461941D+03
 0.139412254696540D+04 -.684612707361238D+03 0.930860726928051D+03 0.779988092178195D+03
 0.559769133077850D+03 -.586559084645103D+01 0.937573316471789D+02 -.551830263716254D+03
 0.000000000000000D+00 0.000000000000000D+00 -.000000000000000D+00 0.000000000000000D+00
 0.371458670252027D+04 0.000000000000000D+00 0.000000000000000D+00 0.371458670252027D+04
 0.184606635220275D+04 0.000000000000000D+00 0.000000000000000D+00 -.184606635220275D+04
 0.105156148482422D+04 0.312481834406549D+03 -.969770934212386D+03 -.228157828461941D+03
 0.174747008740485D+04 -.119775130150182D+04 0.100531691629338D+04 0.779988092178195D+03
 0.597658535408223D+03 -.194916456362443D+03 0.121188530943567D+03 -.551830263716254D+03
 0.216396294708572D+04 0.108018592345772D+04 -.156734513024564D+03 0.186852035031751D+04
-.637792738194D-03 0.000000000000D+00 0.000000000000D+00 0.780091048666D-06 0.000000000000D+00  6 2 -2 25 1 -1 21 2 0.23948906D+00 0.25562647D+00 0.15516589D+07 0.15516589D+07 0.15516589D+07 0.10353946D+01  1  2 14  2  6  2       -2 -.492153470735D-04 0.100000000000D+01
  </mgrwgt>
  </event>
  <event>
  5     66 0.18881543E-05 0.61383300E+02 0.75467711E-02 0.91989888E-01
        2 -1    0    0  502    0 0.00000000E+00 0.00000000E+00 0.33036282E+03 0.33036298E+03 0.32000000E+00 0.0000E+00 0.9000E+01
       -2 -1    0    0    0  501 0.00000000E+00 0.00000000E+00 -.16645481E+04 0.16645481E+04 0.32000000E+00 0.0000E+00 0.9000E+01
       25  1    1    2    0    0 0.30037080E+03 -.39314823E+03 -.33799743E+03 0.61209102E+03 0.12500000E+03 0.0000E+00 0.9000E+01
        1  1    1    2  502    0 -.61410475E+02 0.52702297E+00 0.14233672E+03 0.15502054E+03 0.32000000E+00 0.0000E+00 0.9000E+01
       -1  1    1    2    0  501 -.23896033E+03 0.39262121E+03 -.11385246E+04 0.12277996E+04 0.32000000E+00 0.0000E+00 0.9000E+01
#aMCatNLO 1  0  0  1  1 0.22061124D+03 0.00000000D+00  -5  6  0 0.00000000D+00 0.00000000D+00 0.00000000D+00 0.00000000D+00 0.00000000D+00
  <mgrwgt>
 0.2206611280D-02    7    2    0
 0.741555797780427D+03 0.000000000000000D+00 0.000000000000000D+00 0.741555797780427D+03
 0.741555797780427D+03 0.000000000000000D+00 0.000000000000000D+00 -.741555797780427D+03
 0.519360201505222D+03 0.300400510356676D+03 -.393228411491014D+03 0.961299572518700D+02
 0.336398335716861D+03 -.613810392068081D+02 0.526770348585386D+00 0.330750556782549D+03
 0.627353058338771D+03 -.239019471149868D+03 0.392701641142429D+03 -.426880514034419D+03
 0.000000000000000D+00 -.000000000000000D+00 -.000000000000000D+00 0.000000000000000D+00
 0.921666460003557D+03 0.000000000000000D+00 0.000000000000000D+00 0.921666460003557D+03
 0.820475023259138D+03 0.000000000000000D+00 0.000000000000000D+00 -.820475023259138D+03
 0.505454157305619D+03 0.346192167820596D+03 -.332819649954691D+03 0.961299572518700D+02
 0.334646492945080D+03 -.313968233604585D+02 0.400822144017502D+02 0.330750556782549D+03
 0.659329016029057D+03 -.181526809861646D+03 0.468546470925786D+03 -.426880514034419D+03
 0.242711816982939D+03 -.133268534598491D+03 -.175809035372845D+03 0.101191436744420D+03
0.226944392883D-02 0.000000000000D+00 0.000000000000D+00 0.954677167186D-05 0.000000000000D+00  6 2 -2 25 1 -1 21 0 0.50825064D-01 0.25608434D+00 0.26599399D+06 0.26599399D+06 0.26599399D+06 0.10884388D+01  1  2  2  1  6  1        2 0.147429739617D-02 0.100000000000D+01
0.599678199788D-03 0.000000000000D+00 -.871526224503D-05 0.954677167186D-05 0.000000000000D+00  6 2 -2 25 1 -1 21 2 0.50825064D-01 0.25608434D+00 0.26599399D+06 0.26599399D+06 0.26599399D+06 0.10884388D+01  1  2  3  1  6  1        2 0.461521497942D-03 0.100000000000D+01
-.148862992590D-02 0.000000000000D+00 0.000000000000D+00 0.954677167186D-05 0.000000000000D+00  6 2 -2 25 1 -1 21 2 0.50825064D-01 0.25608434D+00 0.26599399D+06 0.26599399D+06 0.26599399D+06 0.10884388D+01  1  2 15  1  6  1        2 -.114567231813D-02 0.100000000000D+01
-.774732279928D-04 0.000000000000D+00 0.000000000000D+00 0.954677167186D-05 0.000000000000D+00  6 2 -2 25 1 -1 21 2 0.50825064D-01 0.25608434D+00 0.26599399D+06 0.26599399D+06 0.26599399D+06 0.10884388D+01  1  2  4  1  6  1        2 -.596245790597D-04 0.100000000000D+01
-.564788844497D-02 0.000000000000D+00 -.231305188612D-02 0.954677167186D-05 0.000000000000D+00  6 2 -2 25 1 -1 21 2 0.69384463D-01 0.25608434D+00 0.26599399D+06 0.26599399D+06 0.26599399D+06 0.10884388D+01  1  2  5  1  6  1        2 -.307786350829D-02 0.100000000000D+01
0.617405613371D-02 0.000000000000D+00 0.220534719551D-02 0.954677167186D-05 0.000000000000D+00  6 2 -2 25 1 -1 21 2 0.50825064D-01 0.25608434D+00 0.26599399D+06 0.26599399D+06 0.26599399D+06 0.10884388D+01  1  2  6  1  6  1        2 0.475164786083D-02 0.100000000000D+01
-.169315848398D-03 0.000000000000D+00 -.918242076156D-04 0.954677167186D-05 0.000000000000D+00  6 21 -2 25 1 -1 -2 2 0.69384463D-01 0.25608434D+00 0.26599399D+06 0.26599399D+06 0.26599399D+06 0.10884388D+01  1  2  5  5  6  1        2 -.197695069253D-03 0.100000000000D+01
  </mgrwgt>
  </event>
  <event>
  5     66 -.18881543E-05 0.76645799E+02 0.75467711E-02 0.93308071E-01
        2 -1    0    0  502    0 0.00000000E+00 0.00000000E+00 0.18241742E+04 0.18241742E+04 0.32000000E+00 0.0000E+00 0.9000E+01
       -2 -1    0    0    0  501 0.00000000E+00 0.00000000E+00 -.37906368E+03 0.37906382E+03 0.32000000E+00 0.0000E+00 0.9000E+01
       25  1    1    2    0    0 -.11092326E+03 -.46749983E+03 0.28926071E+03 0.57459274E+03 0.12500000E+03 0.0000E+00 0.9000E+01
        1  1    1    2  502    0 0.14164518E+02 -.75344043E+02 0.10674557E+04 0.10702052E+04 0.32000000E+00 0.0000E+00 0.9000E+01
       -1  1    1    2    0  501 0.96758744E+02 0.54284388E+03 0.88394098E+02 0.55844010E+03 0.32000000E+00 0.0000E+00 0.9000E+01
#aMCatNLO 1  0  0  1  4 0.45941129D+00 0.00000000D+00  -5  6  0 0.00000000D+00 0.00000000D+00 0.00000000D+00 0.00000000D+00 0.00000000D+00
  <mgrwgt>
 -.2363885787D-01    9    2    0
 0.831551777049384D+03 0.000000000000000D+00 0.000000000000000D+00 0.831551777049384D+03
 0.831551777049384D+03 0.000000000000000D+00 0.000000000000000D+00 -.831551777049384D+03
 0.509944840856529D+03 -.110939291869025D+03 -.467599422672769D+03 -.116025833984860D+03
 0.490127199784206D+03 0.141611676545675D+02 -.753262225632763D+02 0.484097194263005D+03
 0.663031513458033D+03 0.967781242144576D+02 0.542925645236046D+03 -.368071360278145D+03
 0.000000000000000D+00 0.000000000000000D+00 -.000000000000000D+00 0.000000000000000D+00
 0.864448486074683D+03 0.000000000000000D+00 0.000000000000000D+00 0.864448486074683D+03
 0.831553412727786D+03 0.000000000000000D+00 0.000000000000000D+00 -.831553412727786D+03
 0.509875735458909D+03 -.111039367544722D+03 -.467500299800064D+03 -.116025833984860D+03
 0.490109796321277D+03 0.140649763420885D+02 -.752309470714468D+02 0.484097194263005D+03
 0.663118085771854D+03 0.966479882667224D+02 0.543054542182201D+03 -.368071360278145D+03
 0.328982812504272D+02 0.326402935911570D+00 -.323295310689990D+00 0.328950733468969D+02
0.994272054086D-05 0.000000000000D+00 0.000000000000D+00 0.518730175944D-05 0.000000000000D+00  6 2 -2 25 1 -1 21 0 0.28064219D+00 0.58317502D-01 0.31623723D+06 0.31623723D+06 0.31623723D+06 0.10828623D+01  1  2  2  1  6  1        2 0.298929880163D-04 0.100000000000D+01
0.269690416826D-05 0.000000000000D+00 -.381826648554D-07 0.518730175944D-05 0.000000000000D+00  6 2 -2 25 1 -1 21 2 0.28064219D+00 0.58317502D-01 0.31623723D+06 0.31623723D+06 0.31623723D+06 0.10828623D+01  1  2  3  1  6  1        2 0.950771309068D-05 0.100000000000D+01
-.669869216701D-05 0.000000000000D+00 0.000000000000D+00 0.518730175944D-05 0.000000000000D+00  6 2 -2 25 1 -1 21 2 0.28064219D+00 0.58317502D-01 0.31623723D+06 0.31623723D+06 0.31623723D+06 0.10828623D+01  1  2 15  1  6  1        2 -.236156864438D-04 0.100000000000D+01
-.589719847225D+00 0.000000000000D+00 0.000000000000D+00 0.518730175944D-05 0.000000000000D+00  6 2 -2 25 1 -1 21 2 0.28064219D+00 0.58317502D-01 0.31623723D+06 0.31623723D+06 0.31623723D+06 0.10828623D+01  1  2  4  1  6  1        2 -.207900865640D+01 0.100000000000D+01
-.508386382029D+00 0.000000000000D+00 -.515073356529D-04 0.518730175944D-05 0.000000000000D+00  6 2 -2 25 1 -1 21 2 0.29174477D+00 0.58317502D-01 0.31623723D+06 0.31623723D+06 0.31623723D+06 0.10828623D+01  1  2  5  1  6  1        2 -.163689330182D+01 0.100000000000D+01
0.508006007965D+00 0.000000000000D+00 0.514685916867D-04 0.518730175944D-05 0.000000000000D+00  6 2 -2 25 1 -1 21 2 0.28064219D+00 0.58317502D-01 0.31623723D+06 0.31623723D+06 0.31623723D+06 0.10828623D+01  1  2  6  1  6  1        2 0.179093325929D+01 0.100000000000D+01
0.590556255631D+00 0.000000000000D+00 0.000000000000D+00 0.518730175944D-05 0.179126560170D-03  6 2 -2 25 1 -1 21 2 0.29174458D+00 0.58317617D-01 0.31645160D+06 0.31645160D+06 0.31645160D+06 0.10828406D+01  1  2 11  1  6  1        2 0.190131201003D+01 0.100000000000D+01
-.349232646953D-02 0.000000000000D+00 -.353829024668D-06 0.518730175944D-05 0.000000000000D+00  6 21 -2 25 1 -1 -2 2 0.29174477D+00 0.58317502D-01 0.31623723D+06 0.31623723D+06 0.31623723D+06 0.10828623D+01  1  2  5  5  6  1        2 -.248889421508D-02 0.100000000000D+01
0.349558627535D-02 0.000000000000D+00 0.000000000000D+00 0.518730175944D-05 0.105809165845D-05  6 21 -2 25 1 -1 -2 2 0.29174458D+00 0.58317617D-01 0.31645160D+06 0.31645160D+06 0.31645160D+06 0.10828406D+01  1  2 11  5  6  1        2 0.249094022137D-02 0.100000000000D+01
  </mgrwgt>
  </event>
  <event>
  5     66 0.18881543E-05 0.74620991E+02 0.75467711E-02 0.91749771E-01
        2 -1    0    0  502    0 0.00000000E+00 0.00000000E+00 0.16542448E+04 0.16542448E+04 0.32000000E+00 0.0000E+00 0.9000E+01
       -2 -1    0    0    0  501 0.00000000E+00 0.00000000E+00 -.41543136E+03 0.41543148E+03 0.32000000E+00 0.0000E+00 0.9000E+01
       25  1    1    2    0    0 -.47056538E+03 -.53753911E+02 0.32760503E+03 0.58929730E+03 0.12500000E+03 0.0000E+00 0.9000E+01
        1  1    1    2  502    0 0.47262201E+03 0.12833803E+03 0.11394574E+04 0.12402442E+04 0.32000000E+00 0.0000E+00 0.9000E+01
       -1  1    1    2    0  501 -.20566301E+01 -.74584120E+02 -.22824904E+03 0.24013485E+03 0.32000000E+00 0.0000E+00 0.9000E+01
#aMCatNLO 1  0  0  5  2 0.15376934D+03 0.00000000D+00  -5  6  0 0.00000000D+00 0.00000000D+00 0.00000000D+00 0.00000000D+00 0.00000000D+00
  <mgrwgt>
 0.1331675389D-01    4    2    0
 0.828990546066539D+03 0.000000000000000D+00 0.000000000000000D+00 0.828990546066539D+03
 0.828990546066539D+03 -.000000000000000D+00 -.000000000000000D+00 -.828990546066539D+03
 0.490821533214615D+03 -.470546479346080D+03 -.537400196349923D+02 -.312857560526443D+02
 0.696799578512155D+03 0.472602321419786D+03 0.128332685552537D+03 0.495688834070548D+03
 0.470359980406307D+03 -.205584207370657D+01 -.745926659175445D+02 -.464403078017904D+03
 0.000000000000000D+00 0.000000000000000D+00 0.000000000000000D+00 0.000000000000000D+00
 0.828990546066539D+03 0.000000000000000D+00 0.000000000000000D+00 0.828990546066539D+03
 0.828990546066539D+03 -.000000000000000D+00 -.000000000000000D+00 -.828990546066539D+03
 0.516104404113630D+03 -.471085780611586D+03 -.733076311949207D+02 -.153110856766092D+03
 0.590694368759745D+03 0.471912750231524D+03 0.103312790332813D+03 0.339918609092003D+03
 0.339472455228476D+03 0.696758689399696D+02 0.130456425769667D+03 -.305561683006416D+03
 0.211709864031226D+03 -.705028385599068D+02 -.160461584907559D+03 0.118753930680505D+03
0.103244786323D-01 0.000000000000D+00 0.000000000000D+00 0.124642442414D-04 0.000000000000D+00  6 2 -2 25 1 -1 21 0 0.25449921D+00 0.63912529D-01 0.27781379D+06 0.27781379D+06 0.27781379D+06 0.10870292D+01  1  2  2  4  6  5       -1 0.319468923891D-01 0.100000000000D+01
0.269678690554D-02 0.000000000000D+00 -.396487164459D-04 0.124642442414D-04 0.000000000000D+00  6 2 -2 25 1 -1 21 2 0.25449921D+00 0.63912529D-01 0.27781379D+06 0.27781379D+06 0.27781379D+06 0.10870292D+01  1  2  3  4  6  5       -1 0.986028667335D-02 0.100000000000D+01
-.701554169249D-02 0.000000000000D+00 0.000000000000D+00 0.124642442414D-04 0.000000000000D+00  6 2 -2 25 1 -1 21 2 0.25449921D+00 0.63912529D-01 0.27781379D+06 0.27781379D+06 0.27781379D+06 0.10870292D+01  1  2 15  4  6  5       -1 -.256509893735D-01 0.100000000000D+01
-.776585260515D-03 0.000000000000D+00 0.000000000000D+00 0.124642442414D-04 0.000000000000D+00  6 2 -2 25 1 -1 21 2 0.25449921D+00 0.63912529D-01 0.27781379D+06 0.27781379D+06 0.27781379D+06 0.10870292D+01  1  2  4  4  6  5       -1 -.283943580386D-02 0.100000000000D+01
  </mgrwgt>
  </event>
  <event>
  5     66 0.18881543E-05 0.17725395E+03 0.75467711E-02 0.89820443E-01
        2 -1    0    0  502    0 0.00000000E+00 0.00000000E+00 0.27192470E+04 0.27192471E+04 0.32000000E+00 0.0000E+00 0.9000E+01
       -2 -1    0    0    0  501 0.00000000E+00 0.00000000E+00 -.38492775E+03 0.38492789E+03 0.32000000E+00 0.0000E+00 0.9000E+01
       25  1    1    2    0    0 0.38709132E+03 0.41334113E+03 0.31383330E+03 0.65939891E+03 0.12500000E+03 0.0000E+00 0.9000E+01
        1  1    1    2  502    0 -.50470676E+03 -.28074513E+03 0.21493812E+04 0.22256205E+04 0.32000000E+00 0.0000E+00 0.9000E+01
       -1  1    1    2    0  501 0.11761544E+03 -.13259600E+03 -.12889521E+03 0.21915559E+03 0.32000000E+00 0.0000E+00 0.9000E+01
#aMCatNLO 1  0  0  5  1 0.21085156D+03 0.00000000D+00  -5  6  0 0.00000000D+00 0.00000000D+00 0.00000000D+00 0.00000000D+00 0.00000000D+00
  <mgrwgt>
 0.6265583083D-03    4    2    0
 0.102309036153783D+04 0.000000000000000D+00 0.000000000000000D+00 0.102309036153783D+04
 0.102309036153783D+04 -.000000000000000D+00 -.000000000000000D+00 -.102309036153783D+04
 0.642301247157424D+03 0.387080265821532D+03 0.413348098955440D+03 -.276112493381661D+03
 0.924331124919403D+03 -.504700193176710D+03 -.280741474520307D+03 0.721699361220670D+03
 0.479548350998829D+03 0.117619927355178D+03 -.132606624435133D+03 -.445586867839009D+03
 0.000000000000000D+00 0.000000000000000D+00 0.000000000000000D+00 0.000000000000000D+00
 0.102309036153783D+04 0.000000000000000D+00 0.000000000000000D+00 0.102309036153783D+04
 0.102309036153783D+04 -.000000000000000D+00 -.000000000000000D+00 -.102309036153783D+04
 0.672546823312457D+03 0.404909387251138D+03 0.393247256669721D+03 -.343655660196836D+03
 0.850505410020807D+03 -.480633704576364D+03 -.307874426283332D+03 0.630526789391673D+03
 0.269836628403983D+03 -.163110251406370D+03 -.617880566129080D+02 -.205886104374676D+03
 0.253291861338409D+03 0.238834568731596D+03 -.235847737734815D+02 -.809850248201606D+02
0.238077942092D-02 0.000000000000D+00 0.000000000000D+00 0.781619669785D-06 0.000000000000D+00  6 2 -2 25 1 -1 21 0 0.41834571D+00 0.59219666D-01 0.44536023D+06 0.44536023D+06 0.44536023D+06 0.10720806D+01  1  2  2  4  6  5       -1 0.210746481252D-02 0.100000000000D+01
0.226083785334D-03 0.000000000000D+00 -.914281984995D-05 0.781619669785D-06 0.000000000000D+00  6 2 -2 25 1 -1 21 2 0.41834571D+00 0.59219666D-01 0.44536023D+06 0.44536023D+06 0.44536023D+06 0.10720806D+01  1  2  3  4  6  5       -1 0.230019940950D-03 0.100000000000D+01
-.150447254700D-02 0.000000000000D+00 0.000000000000D+00 0.781619669785D-06 0.000000000000D+00  6 2 -2 25 1 -1 21 2 0.41834571D+00 0.59219666D-01 0.44536023D+06 0.44536023D+06 0.44536023D+06 0.10720806D+01  1  2 15  4  6  5       -1 -.153066565968D-02 0.100000000000D+01
-.177176120300D-03 0.000000000000D+00 0.000000000000D+00 0.781619669785D-06 0.000000000000D+00  6 2 -2 25 1 -1 21 2 0.41834571D+00 0.59219666D-01 0.44536023D+06 0.44536023D+06 0.44536023D+06 0.10720806D+01  1  2  4  4  6  5       -1 -.180260785482D-03 0.100000000000D+01
  </mgrwgt>
  </event>
  <event>
  5     66 0.18881543E-05 0.41041783E+02 0.75467711E-02 0.91024157E-01
        2 -1    0    0  502    0 0.00000000E+00 0.00000000E+00 0.14678125E+04 0.14678125E+04 0.32000000E+00 0.0000E+00 0.9000E+01
       -2 -1    0    0    0  501 0.00000000E+00 0.00000000E+00 -.65952802E+03 0.65952810E+03 0.32000000E+00 0.0000E+00 0.9000E+01
       25  1    1    2    0    0 -.32776878E+03 0.40125431E+03 0.29731766E+03 0.61029516E+03 0.12500000E+03 0.0000E+00 0.9000E+01
        1  1    1    2  502    0 0.31158445E+03 -.36354435E+03 0.95648978E+03 0.10696365E+04 0.32000000E+00 0.0000E+00 0.9000E+01
       -1  1    1    2    0  501 0.16184325E+02 -.37709960E+02 -.44552298E+03 0.44740898E+03 0.32000000E+00 0.0000E+00 0.9000E+01
#aMCatNLO 1  0  0  5  5 0.43408908D+03 0.00000000D+00  -5  6  0 0.00000000D+00 0.00000000D+00 0.00000000D+00 0.00000000D+00 0.00000000D+00
  <mgrwgt>
 0.7770009146D-02    6    2    0
 0.983902218334674D+03 0.000000000000000D+00 0.000000000000000D+00 0.983902218334674D+03
 0.983902218334674D+03 -.000000000000000D+00 -.000000000000000D+00 -.983902218334674D+03
 0.537635806588622D+03 -.327748665877618D+03 0.401233275904906D+03 0.708514703323623D+02
 0.763417985145992D+03 0.311562087926326D+03 -.363518257353849D+03 0.594634813967174D+03
 0.666750644934733D+03 0.161865779512922D+02 -.377150185510568D+02 -.665486284299536D+03
 0.000000000000000D+00 0.000000000000000D+00 0.000000000000000D+00 -.000000000000000D+00
 0.983902218334674D+03 0.000000000000000D+00 0.000000000000000D+00 0.983902218334674D+03
 0.983902218334674D+03 -.000000000000000D+00 -.000000000000000D+00 -.983902218334674D+03
 0.532672969706347D+03 -.326998180236913D+03 0.399484630827072D+03 0.399964062196094D+02
 0.732005756543248D+03 0.312610658273280D+03 -.365961445173194D+03 0.551524455117946D+03
 0.405711636562681D+03 0.134634595997979D+03 -.156893669356525D+03 -.349084279392062D+03
 0.297414073857073D+03 -.120247074034346D+03 0.123370483702647D+03 -.242436581945493D+03
0.474342017965D-02 0.000000000000D+00 0.000000000000D+00 0.956733387698D-04 0.000000000000D+00  6 2 -2 25 1 -1 21 0 0.22581731D+00 0.10146586D+00 0.27707284D+06 0.27707284D+06 0.27707284D+06 0.10871156D+01  1  2  2  4  6  5       -1 0.653704235239D-02 0.100000000000D+01
0.241004329933D-02 0.000000000000D+00 -.182159824611D-04 0.956733387698D-04 0.000000000000D+00  6 2 -2 25 1 -1 21 2 0.22581731D+00 0.10146586D+00 0.27707284D+06 0.27707284D+06 0.27707284D+06 0.10871156D+01  1  2  3  4  6  5       -1 0.392523826661D-02 0.100000000000D+01
-.321500379076D-02 0.000000000000D+00 0.000000000000D+00 0.956733387698D-04 0.000000000000D+00  6 2 -2 25 1 -1 21 2 0.22581731D+00 0.10146586D+00 0.27707284D+06 0.27707284D+06 0.27707284D+06 0.10871156D+01  1  2 15  4  6  5       -1 -.523627766783D-02 0.100000000000D+01
-.127736675127D-03 0.000000000000D+00 0.000000000000D+00 0.956733387698D-04 0.000000000000D+00  6 2 -2 25 1 -1 21 2 0.22581731D+00 0.10146586D+00 0.27707284D+06 0.27707284D+06 0.27707284D+06 0.10871156D+01  1  2  4  4  6  5       -1 -.208044762265D-03 0.100000000000D+01
-.318572381635D-02 0.000000000000D+00 0.000000000000D+00 0.956733387698D-04 0.000000000000D+00  6 2 -2 25 1 -1 21 2 0.22581731D+00 0.10146586D+00 0.27707284D+06 0.27707284D+06 0.27707284D+06 0.10871156D+01  1  2  5  4  6  5       -1 -.518858936446D-02 0.100000000000D+01
0.487544594741D-02 0.000000000000D+00 -.000000000000D+00 0.956733387698D-04 0.000000000000D+00  6 2 -2 25 1 -1 21 2 0.22581731D+00 0.10146586D+00 0.27707284D+06 0.27707284D+06 0.27707284D+06 0.10871156D+01  1  2  6  4  6  5       -1 0.794064032163D-02 0.100000000000D+01
  </mgrwgt>
  </event>
  <event>
  6     66 0.18881543E-05 0.79775227E+02 0.75467711E-02 0.92994781E-01
        2 -1    0    0  503    0 0.00000000E+00 0.00000000E+00 0.70683974E+03 0.70683982E+03 0.32000000E+00 0.0000E+00 0.9000E+01
       -2 -1    0    0    0  501 0.00000000E+00 0.00000000E+00 -.68643668E+03 0.68643676E+03 0.32000000E+00 0.0000E+00 0.9000E+01
       25  1    1    2    0    0 -.54967254E+03 0.13846670E+03 -.22073063E+03 0.62101525E+03 0.12500000E+03 0.0000E+00 0.9000E+01
        1  1    1    2  502    0 0.38942443E+03 -.12406373E+03 0.20300738E+03 0.45634997E+03 0.32000000E+00 0.0000E+00 0.9000E+01
       -1  1    1    2    0  501 0.10416531E+03 -.33174898E+02 -.11081064E+03 0.15566016E+03 0.32000000E+00 0.0000E+00 0.9000E+01
       21  1    1    2  503  502 0.56082799E+02 0.18771922E+02 0.14893695E+03 0.16025119E+03 0.75000000E+00 0.0000E+00 0.9000E+01
#aMCatNLO 2  0  0  1  4 0.59141063D+02 0.00000000D+00  -5  6  0 0.00000000D+00 0.00000000D+00 0.00000000D+00 0.00000000D+00 0.00000000D+00
  <mgrwgt>
 0.6678129113D-03    3    2    0
 0.612440400187835D+03 0.000000000000000D+00 0.000000000000000D+00 0.612440400187835D+03
 0.612440400187835D+03 0.000000000000000D+00 0.000000000000000D+00 -.612440400187835D+03
 0.578921851755668D+03 -.522669655112285D+03 0.147505179480814D+03 -.156793380253597D+03
 0.496585051321781D+03 0.411746516773297D+03 -.116576272629591D+03 0.251935491308994D+03
 0.149373897298221D+03 0.110923138338989D+03 -.309289068512227D+02 -.951421110553966D+02
 0.000000000000000D+00 0.000000000000000D+00 0.000000000000000D+00 0.000000000000000D+00
 0.784797370831546D+03 0.000000000000000D+00 0.000000000000000D+00 0.784797370831546D+03
 0.618248238065352D+03 0.000000000000000D+00 0.000000000000000D+00 -.618248238065352D+03
 0.601266801734130D+03 -.549672181489424D+03 0.138466947943897D+03 -.156793380253597D+03
 0.480097776729815D+03 0.389400170916999D+03 -.124055996749933D+03 0.251935491308994D+03
 0.144943148215775D+03 0.104189211723754D+03 -.331828732783280D+02 -.951421110553966D+02
 0.176737882217178D+03 0.560827988486712D+02 0.187719220843631D+02 0.166549132766193D+03
-.185000970787D-05 0.000000000000D+00 0.000000000000D+00 0.659289335708D-07 0.000000000000D+00  6 2 -2 25 1 -1 21 2 0.10906832D+00 0.10461346D+00 0.33502901D+06 0.33502901D+06 0.33502901D+06 0.10810212D+01  1  2 13  1  6  1        2 -.805013292987D-05 0.100000000000D+01
-.243177308659D-03 0.000000000000D+00 0.000000000000D+00 0.659289335708D-07 0.000000000000D+00  6 2 -2 25 1 -1 21 2 0.11083698D+00 0.10461346D+00 0.33502901D+06 0.33502901D+06 0.33502901D+06 0.10810212D+01  1  2 13  1  6  1        2 -.103734279286D-02 0.100000000000D+01
0.401488792837D-03 0.000000000000D+00 0.000000000000D+00 0.659289335708D-07 0.234499520990D-09  6 2 -2 25 1 -1 21 2 0.10874445D+00 0.10560552D+00 0.33502901D+06 0.33502901D+06 0.33502901D+06 0.10810212D+01  1  2  1  1  6  1        2 0.171320583712D-02 0.100000000000D+01
  </mgrwgt>
  </event>
  <event>
  6     66 0.18881543E-05 0.24147343E+02 0.75467711E-02 0.94638566E-01
        2 -1    0    0  502    0 0.00000000E+00 0.00000000E+00 0.26947541E+04 0.26947541E+04 0.32000000E+00 0.0000E+00 0.9000E+01
       -2 -1    0    0    0  503 0.00000000E+00 0.00000000E+00 -.13052287E+03 0.13052326E+03 0.32000000E+00 0.0000E+00 0.9000E+01
       25  1    1    2    0    0 0.24697099E+03 -.41396060E+03 0.14092239E+04 0.14946221E+04 0.12500000E+03 0.0000E+00 0.9000E+01
        1  1    1    2  502    0 -.26933230E+02 -.37647026E+01 0.57138885E+03 0.57203575E+03 0.32000000E+00 0.0000E+00 0.9000E+01
       -1  1    1    2    0  501 -.22121696E+03 0.41185315E+03 0.58797005E+03 0.75117830E+03 0.32000000E+00 0.0000E+00 0.9000E+01
       21  1    1    2  501  503 0.11792029E+01 0.58721507E+01 -.43516357E+01 0.74412301E+01 0.75000000E+00 0.0000E+00 0.9000E+01
#aMCatNLO 2  0  0  2  5 0.59893800D+01 0.00000000D+00  -5  6  0 0.00000000D+00 0.00000000D+00 0.00000000D+00 0.00000000D+00 0.00000000D+00
  <mgrwgt>
 0.7278312986D-02    6    2    0
 0.579341595679423D+03 0.000000000000000D+00 0.000000000000000D+00 0.579341595679423D+03
 0.579341595679423D+03 0.000000000000000D+00 0.000000000000000D+00 -.579341595679423D+03
 0.509133000521592D+03 0.247517267360306D+03 -.411494443224633D+03 0.114012884244964D+03
 0.124199473794957D+03 -.267542827299035D+02 -.312781233436236D+01 0.121243286150424D+03
 0.525350717042298D+03 -.220762984630402D+03 0.414622255558996D+03 -.235256170395388D+03
 0.000000000000000D+00 0.000000000000000D+00 0.000000000000000D+00 -.000000000000000D+00
 0.579676577417987D+03 0.000000000000000D+00 0.000000000000000D+00 0.579676577417987D+03
 0.606754659735544D+03 0.000000000000000D+00 0.000000000000000D+00 -.606754659735544D+03
 0.510973335833322D+03 0.246998184876647D+03 -.414079350881469D+03 0.114012884244964D+03
 0.124244212770690D+03 -.268807036345443D+02 -.375735845598601D+01 0.121243286150424D+03
 0.523481122583028D+03 -.221296684125102D+03 0.411964558653918D+03 -.235256170395388D+03
 0.277325659664916D+02 0.117920288299927D+01 0.587215068353627D+01 -.270780823175567D+02
-.231670592593D-06 0.000000000000D+00 0.000000000000D+00 0.272701058175D-05 0.000000000000D+00  6 2 -2 25 1 -1 21 2 0.41433439D+00 0.20085699D-01 0.24943153D+06 0.24943153D+06 0.24943153D+06 0.10905335D+01  1  2 13  2  6  2       -2 -.192240888801D-05 0.100000000000D+01
-.411983136272D-02 0.000000000000D+00 0.000000000000D+00 0.272701058175D-05 0.000000000000D+00  6 2 -2 25 1 -1 21 2 0.41433439D+00 0.20102655D-01 0.24943153D+06 0.24943153D+06 0.24943153D+06 0.10905335D+01  1  2 13  2  6  2       -2 -.341382770130D-01 0.100000000000D+01
-.764873573266D-02 0.000000000000D+00 0.000000000000D+00 0.272701058175D-05 0.000000000000D+00  6 2 -2 25 1 -1 21 2 0.41433439D+00 0.19173073D-01 0.24644835D+06 0.24644835D+06 0.24644835D+06 0.10909269D+01  1  2  8  2  6  2       -2 -.686752565465D-01 0.100000000000D+01
-.530901801584D-02 0.000000000000D+00 0.000000000000D+00 0.272701058175D-05 0.000000000000D+00  6 2 -2 25 1 -1 21 2 0.41433439D+00 0.20086778D-01 0.24644835D+06 0.24644835D+06 0.24644835D+06 0.10909269D+01  1  2  9  2  6  2       -2 -.441090594468D-01 0.100000000000D+01
0.530326992545D-02 0.000000000000D+00 0.000000000000D+00 0.272701058175D-05 0.000000000000D+00  6 2 -2 25 1 -1 21 2 0.41433439D+00 0.19173073D-01 0.24644835D+06 0.24644835D+06 0.24644835D+06 0.10909269D+01  1  2 10  2  6  2       -2 0.476161597675D-01 0.100000000000D+01
0.128664949476D-01 0.000000000000D+00 0.000000000000D+00 0.272701058175D-05 0.629956430223D-06  6 2 -2 25 1 -1 21 2 0.41457396D+00 0.20080297D-01 0.24943153D+06 0.24943153D+06 0.24943153D+06 0.10905335D+01  1  2  1  2  6  2       -2 0.106586668634D+00 0.100000000000D+01
  </mgrwgt>
  </event>
  <event>
  5     66 0.18881543E-05 0.61009104E+02 0.75467711E-02 0.91358972E-01
        2 -1    0    0  502    0 0.00000000E+00 0.00000000E+00 0.29637583E+04 0.29637583E+04 0.32000000E+00 0.0000E+00 0.9000E+01
       -2 -1    0    0    0  501 0.00000000E+00 0.00000000E+00 -.34600751E+03 0.34600766E+03 0.32000000E+00 0.0000E+00 0.9000E+01
       25  1    1    2    0    0 -.47465200E+03 -.26325228E+03 0.85114484E+03 0.10171867E+04 0.12500000E+03 0.0000E+00 0.9000E+01
        1  1    1    2  502    0 0.46314043E+03 0.32315815E+03 0.19860665E+04 0.20647980E+04 0.32000000E+00 0.0000E+00 0.9000E+01
       -1  1    1    2    0  501 0.11511567E+02 -.59905876E+02 -.21946063E+03 0.22778125E+03 0.32000000E+00 0.0000E+00 0.9000E+01
#aMCatNLO 1  0  0  1  5 0.11283567D+03 0.00000000D+00  -5  6  0 0.00000000D+00 0.00000000D+00 0.00000000D+00 0.00000000D+00 0.00000000D+00
  <mgrwgt>
 0.1677808012D-01    6    2    0
 0.101266129539898D+04 0.000000000000000D+00 0.000000000000000D+00 0.101266129539898D+04
 0.101266129539898D+04 0.000000000000000D+00 0.000000000000000D+00 -.101266129539898D+04
 0.562144569647389D+03 -.474626240339890D+03 -.263226032440717D+03 0.763118929812889D+02
 0.807216256527000D+03 0.463112850748147D+03 0.323138907914274D+03 0.576806569367373D+03
 0.655961764623580D+03 0.115133895917429D+02 -.599128754735564D+02 -.653118462348661D+03
 0.000000000000000D+00 -.000000000000000D+00 0.000000000000000D+00 0.000000000000000D+00
 0.202126329337623D+04 0.000000000000000D+00 0.000000000000000D+00 0.202126329337623D+04
 0.101876570463430D+04 0.000000000000000D+00 0.000000000000000D+00 -.101876570463430D+04
 0.537985725189928D+03 -.440826571760129D+03 -.271389147034212D+03 0.763118929812889D+02
 0.832515590124725D+03 0.513490877093385D+03 0.310971877309230D+03 0.576806569367373D+03
 0.658871841682017D+03 0.519094593474927D+02 -.696691174841795D+02 -.653118462348661D+03
 0.101065584101385D+04 -.124573764680749D+03 0.300863872091617D+02 0.100249758874193D+04
0.945382121225D-03 0.000000000000D+00 0.000000000000D+00 0.278916079487D-04 0.000000000000D+00  6 2 -2 25 1 -1 21 0 0.45596282D+00 0.53231938D-01 0.34966841D+06 0.34966841D+06 0.34966841D+06 0.10796634D+01  1  2  2  1  6  1        2 0.748975094961D-03 0.100000000000D+01
0.368129647795D-03 0.000000000000D+00 -.363051627033D-05 0.278916079487D-04 0.000000000000D+00  6 2 -2 25 1 -1 21 2 0.45596282D+00 0.53231938D-01 0.34966841D+06 0.34966841D+06 0.34966841D+06 0.10796634D+01  1  2  3  1  6  1        2 0.339967589032D-03 0.100000000000D+01
-.588938124669D-03 0.000000000000D+00 0.000000000000D+00 0.278916079487D-04 0.000000000000D+00  6 2 -2 25 1 -1 21 2 0.45596282D+00 0.53231938D-01 0.34966841D+06 0.34966841D+06 0.34966841D+06 0.10796634D+01  1  2 15  1  6  1        2 -.543884133027D-03 0.100000000000D+01
-.216421781696D-01 0.000000000000D+00 -.352377192380D-03 0.278916079487D-04 0.000000000000D+00  6 2 -2 25 1 -1 21 2 0.91026318D+00 0.53231938D-01 0.34966841D+06 0.34966841D+06 0.34966841D+06 0.10796634D+01  1  2  5  1  6  1        2 -.577898555572D-05 0.100000000000D+01
0.175839829792D-01 0.000000000000D+00 0.282210250999D-03 0.278916079487D-04 0.000000000000D+00  6 2 -2 25 1 -1 21 2 0.45596282D+00 0.53231938D-01 0.34966841D+06 0.34966841D+06 0.34966841D+06 0.10796634D+01  1  2  6  1  6  1        2 0.162388015603D-01 0.100000000000D+01
-.159790889344D-02 0.000000000000D+00 -.263608348910D-04 0.278916079487D-04 0.000000000000D+00  6 21 -2 25 1 -1 -2 2 0.91026318D+00 0.53231938D-01 0.34966841D+06 0.34966841D+06 0.34966841D+06 0.10796634D+01  1  2  5  5  6  1        2 -.100366022778D-08 0.100000000000D+01
  </mgrwgt>
  </event>
  <event>
  6     66 0.18881543E-05 0.23865934E+02 0.75467711E-02 0.94690567E-01
        2 -1    0    0  502    0 0.00000000E+00 0.00000000E+00 0.41223934E+04 0.41223934E+04 0.32000000E+00 0.0000E+00 0.9000E+01
       -2 -1    0    0    0  501 0.00000000E+00 0.00000000E+00 -.20187850E+04 0.20187851E+04 0.32000000E+00 0.0000E+00 0.9000E+01
       25  1    1    2    0    0 0.46334040E+03 0.16015748E+02 0.32666832E+03 0.58075643E+03 0.12500000E+03 0.0000E+00 0.9000E+01
        1  1    1    2  502    0 0.12821344E+02 -.32420762E+02 0.36321138E+04 0.36322812E+04 0.32000000E+00 0.0000E+00 0.9000E+01
       -1  1    1    2    0  503 -.43697121E+03 0.29371012E+02 -.13072173E+04 0.13786310E+04 0.32000000E+00 0.0000E+00 0.9000E+01
       21  1    1    2  503  501 -.39190533E+02 -.12965998E+02 -.54795660E+03 0.54950979E+03 0.75000000E+00 0.0000E+00 0.9000E+01
#aMCatNLO 2  0  0  5  4 0.10018993D+03 0.00000000D+00  -5  6  0 0.00000000D+00 0.00000000D+00 0.00000000D+00 0.00000000D+00 0.00000000D+00
  <mgrwgt>
 0.3437613399D-01    1    2    0
 0.288482688621591D+04 0.000000000000000D+00 0.000000000000000D+00 0.288482688621591D+04
 0.288482688621591D+04 -.000000000000000D+00 -.000000000000000D+00 -.288482688621591D+04
 0.499402100612181D+03 0.463489104910664D+03 0.160104850739963D+02 0.136744184858682D+03
 0.254580837518614D+04 0.135168398849022D+02 -.324445109756730D+02 0.254556573906764D+04
 0.272444329663351D+04 -.477005944795565D+03 0.164340259016767D+02 -.268230992392632D+04
 0.000000000000000D+00 0.000000000000000D+00 0.000000000000000D+00 -.000000000000000D+00
 0.288482688621591D+04 0.000000000000000D+00 0.000000000000000D+00 0.288482688621591D+04
 0.288482688621591D+04 -.000000000000000D+00 -.000000000000000D+00 -.288482688621591D+04
 0.499065821911092D+03 0.463352577213653D+03 0.160151887883493D+02 0.135976459423435D+03
 0.254189288755670D+04 0.128211619158715D+02 -.324205431616720D+02 0.254165378798915D+04
 0.194385930591590D+04 -.436964597942325D+03 0.293725428359460D+02 -.189388177959140D+04
 0.784835757048136D+03 -.392091411871988D+02 -.129671884626233D+02 -.783748467821187D+03
0.337113184449D+02 0.000000000000D+00 0.000000000000D+00 0.298507018505D-01 0.111717354186D-03  6 2 -2 25 1 -1 21 2 0.63421437D+00 0.31058232D+00 0.24715640D+06 0.24715640D+06 0.24715640D+06 0.10908331D+01  1  2  1  4  6  5       -1 0.343761339869D-01 0.100000000000D+01
  </mgrwgt>
  </event>
  <event>
  5     66 0.18881543E-05 0.52650390E+02 0.75467711E-02 0.94546794E-01
        2 -1    0    0  502    0 0.00000000E+00 0.00000000E+00 0.15843315E+04 0.15843315E+04 0.32000000E+00 0.0000E+00 0.9000E+01
       -2 -1    0    0    0  501 0.00000000E+00 0.00000000E+00 -.79081610E+03 0.79081616E+03 0.32000000E+00 0.0000E+00 0.9000E+01
       25  1    1    2    0    0 0.30825657E+02 0.44948251E+03 0.52757748E+03 0.70494520E+03 0.12500000E+03 0.0000E+00 0.9000E+01
        1  1    1    2  502    0 0.62579235E+01 -.48684808E+03 0.90570076E+03 0.10282773E+04 0.32000000E+00 0.0000E+00 0.9000E+01
       -1  1    1    2    0  501 -.37083581E+02 0.37365572E+02 -.63976284E+03 0.64192520E+03 0.32000000E+00 0.0000E+00 0.9000E+01
#aMCatNLO 1  0  0  1  4 0.31468808D+02 0.00000000D+00  -5  6  0 0.00000000D+00 0.00000000D+00 0.00000000D+00 0.00000000D+00 0.00000000D+00
  <mgrwgt>
 0.1223042703D-01   11    2    0
 0.111933684398768D+04 0.000000000000000D+00 0.000000000000000D+00 0.111933684398768D+04
 0.111933684398768D+04 0.000000000000000D+00 0.000000000000000D+00 -.111933684398768D+04
 0.560940419104321D+03 0.308310654207727D+02 0.449423092610935D+03 0.309995940324989D+03
 0.769843502176504D+03 0.625721771314507D+01 -.486793171682672D+03 0.596365888589379D+03
 0.907889766694530D+03 -.370882831339177D+02 0.373700790717378D+02 -.906361828914368D+03
 0.000000000000000D+00 -.000000000000000D+00 0.000000000000000D+00 0.000000000000000D+00
 0.124490244279971D+04 0.000000000000000D+00 0.000000000000000D+00 0.124490244279971D+04
 0.112142081532667D+04 0.000000000000000D+00 0.000000000000000D+00 -.112142081532667D+04
 0.554725731741897D+03 0.313937641445010D+02 0.441602293938164D+03 0.309995940324989D+03
 0.776751028698555D+03 0.703725999370416D+01 -.497634770170901D+03 0.596365888589379D+03
 0.907418093521577D+03 -.361727122748907D+02 0.246448052135318D+02 -.906361828914368D+03
 0.127428404164353D+03 -.225831186331452D+01 0.313876710192059D+02 0.123481627473044D+03
0.552093318050D-03 0.000000000000D+00 0.000000000000D+00 0.102349718703D-03 0.000000000000D+00  6 2 -2 25 1 -1 21 0 0.24374332D+00 0.12166402D+00 0.25350431D+06 0.25350431D+06 0.25350431D+06 0.10900046D+01  1  2  2  1  6  1        2 0.419800536838D-03 0.100000000000D+01
0.246831661323D-03 0.000000000000D+00 -.212018371082D-05 0.102349718703D-03 0.000000000000D+00  6 2 -2 25 1 -1 21 2 0.24374332D+00 0.12166402D+00 0.25350431D+06 0.25350431D+06 0.25350431D+06 0.10900046D+01  1  2  3  1  6  1        2 0.222991359330D-03 0.100000000000D+01
-.435403698413D-03 0.000000000000D+00 0.000000000000D+00 0.102349718703D-03 0.000000000000D+00  6 2 -2 25 1 -1 21 2 0.24374332D+00 0.12166402D+00 0.25350431D+06 0.25350431D+06 0.25350431D+06 0.10900046D+01  1  2 15  1  6  1        2 -.393350115807D-03 0.100000000000D+01
0.795572647140D-09 0.000000000000D+00 0.000000000000D+00 0.102349718703D-03 0.000000000000D+00  6 2 -2 25 1 -1 21 2 0.27129806D+00 0.12166402D+00 0.26674576D+06 0.26674576D+06 0.26674576D+06 0.10883471D+01  1  2 12  1  6  1        2 0.570682798903D-09 0.100000000000D+01
0.299274925098D-01 0.000000000000D+00 0.000000000000D+00 0.102349718703D-03 0.000000000000D+00  6 2 -2 25 1 -1 21 2 0.27410874D+00 0.12166402D+00 0.26674576D+06 0.26674576D+06 0.26674576D+06 0.10883471D+01  1  2 12  1  6  1        2 0.209826900210D-01 0.100000000000D+01
-.169909005706D-01 0.000000000000D+00 0.000000000000D+00 0.102349718703D-03 0.000000000000D+00  6 2 -2 25 1 -1 21 2 0.24374332D+00 0.12166402D+00 0.25350431D+06 0.25350431D+06 0.25350431D+06 0.10900046D+01  1  2  4  1  6  1        2 -.153498298969D-01 0.100000000000D+01
-.354854334341D-01 0.000000000000D+00 -.113348565215D-02 0.102349718703D-03 0.000000000000D+00  6 2 -2 25 1 -1 21 2 0.27126342D+00 0.12166402D+00 0.25350431D+06 0.25350431D+06 0.25350431D+06 0.10900046D+01  1  2  5  1  6  1        2 -.256275201676D-01 0.100000000000D+01
0.354103386132D-01 0.000000000000D+00 0.112703086391D-02 0.102349718703D-03 0.000000000000D+00  6 2 -2 25 1 -1 21 2 0.24374332D+00 0.12166402D+00 0.25350431D+06 0.25350431D+06 0.25350431D+06 0.10900046D+01  1  2  6  1  6  1        2 0.319902215922D-01 0.100000000000D+01
0.137071077054D-10 0.000000000000D+00 0.000000000000D+00 0.102349718703D-03 0.000000000000D+00  6 21 -2 25 1 -1 -2 2 0.27129806D+00 0.12166402D+00 0.26674576D+06 0.26674576D+06 0.26674576D+06 0.10883471D+01  1  2 12  5  6  1        2 0.254387793598D-11 0.100000000000D+01
0.557493561071D-03 0.000000000000D+00 0.000000000000D+00 0.102349718703D-03 0.000000000000D+00  6 21 -2 25 1 -1 -2 2 0.27410874D+00 0.12166402D+00 0.26674576D+06 0.26674576D+06 0.26674576D+06 0.10883471D+01  1  2 12  5  6  1        2 0.990751128736D-04 0.100000000000D+01
-.606524237505D-03 0.000000000000D+00 -.195091658105D-04 0.102349718703D-03 0.000000000000D+00  6 21 -2 25 1 -1 -2 2 0.27126342D+00 0.12166402D+00 0.25350431D+06 0.25350431D+06 0.25350431D+06 0.10900046D+01  1  2  5  5  6  1        2 -.113651988176D-03 0.100000000000D+01
  </mgrwgt>
  </event>
  <event>
  5     66 0.18881543E-05 0.10351374E+03 0.75467711E-02 0.94004766E-01
        2 -1    0    0  502    0 0.00000000E+00 0.00000000E+00 0.12637192E+04 0.12637192E+04 0.32000000E+00 0.0000E+00 0.9000E+01
       -2 -1    0    0    0  501 0.00000000E+00 0.00000000E+00 -.66759172E+03 0.66759179E+03 0.32000000E+00 0.0000E+00 0.9000E+01
       25  1    1    2    0    0 -.11284311E+03 0.44814617E+03 0.55480907E+03 0.73280739E+03 0.12500000E+03 0.0000E+00 0.9000E+01
        1  1    1    2  502    0 0.12247052E+02 -.47248178E+03 0.52352562E+03 0.70531425E+03 0.32000000E+00 0.0000E+00 0.9000E+01
       -1  1    1    2    0  501 0.10059606E+03 0.24335602E+02 -.48220726E+03 0.49318934E+03 0.32000000E+00 0.0000E+00 0.9000E+01
#aMCatNLO 1  0  0  5  2 0.12502870D+02 0.00000000D+00  -5  6  0 0.00000000D+00 0.00000000D+00 0.00000000D+00 0.00000000D+00 0.00000000D+00
  <mgrwgt>
 0.5336538773D-02    8    2    0
 0.918503429246331D+03 0.000000000000000D+00 0.000000000000000D+00 0.918503429246331D+03
 0.918503429246331D+03 -.000000000000000D+00 -.000000000000000D+00 -.918503429246331D+03
 0.590404659851600D+03 -.112856673696626D+03 0.448055916581183D+03 0.345632650646915D+03
 0.571526348470598D+03 0.122447756539141D+02 -.472393948920797D+03 0.321459778958948D+03
 0.675075850170464D+03 0.100611898042712D+03 0.243380323396143D+02 -.667092429605863D+03
 0.000000000000000D+00 0.000000000000000D+00 0.000000000000000D+00 0.000000000000000D+00
 0.918503429246331D+03 0.000000000000000D+00 0.000000000000000D+00 0.918503429246331D+03
 0.918503429246331D+03 -.000000000000000D+00 -.000000000000000D+00 -.918503429246331D+03
 0.590241014534947D+03 -.112814584142268D+03 0.448066098050324D+03 0.345353582031529D+03
 0.571367172821910D+03 0.122855193588496D+02 -.472384093012822D+03 0.321189633800718D+03
 0.569600420546398D+03 0.784857383032151D+02 0.986677427474183D+01 -.564080911514513D+03
 0.105798250589407D+03 0.220433264802031D+02 0.144512206877559D+02 -.102462304317734D+03
0.297758957954D-04 0.000000000000D+00 0.000000000000D+00 0.523813483469D-05 0.000000000000D+00  6 2 -2 25 1 -1 21 0 0.19441834D+00 0.10270643D+00 0.27811211D+06 0.27811211D+06 0.27811211D+06 0.10869945D+01  1  2  2  4  6  5       -1 0.518163888739D-04 0.100000000000D+01
0.639744072630D-05 0.000000000000D+00 -.114347280028D-06 0.523813483469D-05 0.000000000000D+00  6 2 -2 25 1 -1 21 2 0.19441834D+00 0.10270643D+00 0.27811211D+06 0.27811211D+06 0.27811211D+06 0.10869945D+01  1  2  3  4  6  5       -1 0.131541640315D-04 0.100000000000D+01
-.201662967399D-04 0.000000000000D+00 0.000000000000D+00 0.523813483469D-05 0.000000000000D+00  6 2 -2 25 1 -1 21 2 0.19441834D+00 0.10270643D+00 0.27811211D+06 0.27811211D+06 0.27811211D+06 0.10869945D+01  1  2 15  4  6  5       -1 -.414651399791D-04 0.100000000000D+01
0.646171272498D-08 0.000000000000D+00 0.000000000000D+00 0.523813483469D-05 0.000000000000D+00  6 2 -2 25 1 -1 21 2 0.19441834D+00 0.10270643D+00 0.27913540D+06 0.27913540D+06 0.27913540D+06 0.10868757D+01  1  2 12  4  6  5       -1 0.132808490910D-07 0.100000000000D+01
0.338873575526D-02 0.000000000000D+00 0.000000000000D+00 0.523813483469D-05 0.000000000000D+00  6 2 -2 25 1 -1 21 2 0.19441834D+00 0.10270643D+00 0.27913540D+06 0.27913540D+06 0.27913540D+06 0.10868757D+01  1  2 12  4  6  5       -1 0.696491628310D-02 0.100000000000D+01
-.156184387530D-02 0.000000000000D+00 0.000000000000D+00 0.523813483469D-05 0.000000000000D+00  6 2 -2 25 1 -1 21 2 0.19441834D+00 0.10270643D+00 0.27811211D+06 0.27811211D+06 0.27811211D+06 0.10869945D+01  1  2  4  4  6  5       -1 -.321140146602D-02 0.100000000000D+01
-.449255388264D-02 0.000000000000D+00 0.000000000000D+00 0.523813483469D-05 0.000000000000D+00  6 2 -2 25 1 -1 21 2 0.19441834D+00 0.10270643D+00 0.27811211D+06 0.27811211D+06 0.27811211D+06 0.10869945D+01  1  2  5  4  6  5       -1 -.923741121187D-02 0.100000000000D+01
0.525100895858D-02 0.000000000000D+00 -.000000000000D+00 0.523813483469D-05 0.000000000000D+00  6 2 -2 25 1 -1 21 2 0.19441834D+00 0.10270643D+00 0.27811211D+06 0.27811211D+06 0.27811211D+06 0.10869945D+01  1  2  6  4  6  5       -1 0.107969164744D-01 0.100000000000D+01
  </mgrwgt>
  </event>
  <event>
  5     66 0.18881543E-05 0.11141068E+03 0.75467711E-02 0.94768779E-01
        2 -1    0    0  502    0 0.00000000E+00 0.00000000E+00 0.25564313E+04 0.25564313E+04 0.32000000E+00 0.0000E+00 0.9000E+01
       -2 -1    0    0    0  501 0.00000000E+00 0.00000000E+00 -.45895468E+03 0.45895479E+03 0.32000000E+00 0.0000E+00 0.9000E+01
       25  1    1    2    0    0 0.41457555E+03 -.18947178E+03 -.64532251E+02 0.47703444E+03 0.12500000E+03 0.0000E+00 0.9000E+01
        1  1    1    2  502    0 -.10769073E+03 -.28564079E+02 0.21590123E+04 0.21618852E+04 0.32000000E+00 0.0000E+00 0.9000E+01
       -1  1    1    2    0  501 -.30688482E+03 0.21803586E+03 0.29965248E+01 0.37646648E+03 0.32000000E+00 0.0000E+00 0.9000E+01
#aMCatNLO 1  0  0  1  2 0.26109087D+02 0.00000000D+00  -5  6  0 0.00000000D+00 0.00000000D+00 0.00000000D+00 0.00000000D+00 0.00000000D+00
  <mgrwgt>
 0.4009685446D-02    9    2    0
 0.108318341466992D+04 0.000000000000000D+00 0.000000000000000D+00 0.108318341466992D+04
 0.108318341466992D+04 0.000000000000000D+00 0.000000000000000D+00 -.108318341466992D+04
 0.726470758584430D+03 0.414609818172346D+03 -.189493120482569D+03 -.551657338429491D+03
 0.918760126467619D+03 -.107686994639527D+03 -.285630868800383D+02 0.911980170420489D+03
 0.521135944287798D+03 -.306922823532818D+03 0.218056207362607D+03 -.360322831990998D+03
 0.000000000000000D+00 -.000000000000000D+00 0.000000000000000D+00 0.000000000000000D+00
 0.120125056007990D+04 0.000000000000000D+00 0.000000000000000D+00 0.120125056007990D+04
 0.108470646629072D+04 0.000000000000000D+00 0.000000000000000D+00 -.108470646629072D+04
 0.730209808269783D+03 0.417260858093798D+03 -.197860863621664D+03 -.551657338429491D+03
 0.918763039166160D+03 -.104342852224551D+03 -.391185389208154D+02 0.911980170420489D+03
 0.517551309758368D+03 -.305032497376874D+03 0.212089581362728D+03 -.360322831990998D+03
 0.119432869176303D+03 -.788550849237373D+01 0.248898211797519D+02 0.116544093789178D+03
0.297180808638D-03 0.000000000000D+00 0.000000000000D+00 0.168760674084D-04 0.000000000000D+00  6 2 -2 25 1 -1 21 0 0.39329713D+00 0.70608423D-01 0.23068610D+06 0.23068610D+06 0.23068610D+06 0.10930958D+01  1  2  2  1  6  1        2 0.237241551839D-03 0.100000000000D+01
0.597953697292D-04 0.000000000000D+00 -.114125255467D-05 0.168760674084D-04 0.000000000000D+00  6 2 -2 25 1 -1 21 2 0.39329713D+00 0.70608423D-01 0.23068610D+06 0.23068610D+06 0.23068610D+06 0.10930958D+01  1  2  3  1  6  1        2 0.570366473243D-04 0.100000000000D+01
-.193559769761D-03 0.000000000000D+00 0.000000000000D+00 0.168760674084D-04 0.000000000000D+00  6 2 -2 25 1 -1 21 2 0.39329713D+00 0.70608423D-01 0.23068610D+06 0.23068610D+06 0.23068610D+06 0.10930958D+01  1  2 15  1  6  1        2 -.184629685777D-03 0.100000000000D+01
0.497533025543D-08 0.000000000000D+00 0.000000000000D+00 0.168760674084D-04 0.000000000000D+00  6 2 -2 25 1 -1 21 2 0.43642552D+00 0.70608423D-01 0.24377820D+06 0.24377820D+06 0.24377820D+06 0.10912835D+01  1  2 12  1  6  1        2 0.320666757761D-08 0.100000000000D+01
-.218713941338D-02 0.000000000000D+00 0.000000000000D+00 0.168760674084D-04 0.000000000000D+00  6 2 -2 25 1 -1 21 2 0.39329713D+00 0.70608423D-01 0.23068610D+06 0.23068610D+06 0.23068610D+06 0.10930958D+01  1  2  4  1  6  1        2 -.208623343137D-02 0.100000000000D+01
-.199236922876D-01 0.000000000000D+00 -.503321529516D-03 0.168760674084D-04 0.000000000000D+00  6 2 -2 25 1 -1 21 2 0.43633178D+00 0.70608423D-01 0.23068610D+06 0.23068610D+06 0.23068610D+06 0.10930958D+01  1  2  5  1  6  1        2 -.129506285743D-01 0.100000000000D+01
0.198714318052D-01 0.000000000000D+00 0.500620202507D-03 0.168760674084D-04 0.000000000000D+00  6 2 -2 25 1 -1 21 2 0.39329713D+00 0.70608423D-01 0.23068610D+06 0.23068610D+06 0.23068610D+06 0.10930958D+01  1  2  6  1  6  1        2 0.189546423550D-01 0.100000000000D+01
0.836257578776D-10 0.000000000000D+00 0.000000000000D+00 0.168760674084D-04 0.000000000000D+00  6 21 -2 25 1 -1 -2 2 0.43642552D+00 0.70608423D-01 0.24377820D+06 0.24377820D+06 0.24377820D+06 0.10912835D+01  1  2 12  5  6  1        2 0.440886800498D-11 0.100000000000D+01
-.332502991918D-03 0.000000000000D+00 -.844469120886D-05 0.168760674084D-04 0.000000000000D+00  6 21 -2 25 1 -1 -2 2 0.43633178D+00 0.70608423D-01 0.23068610D+06 0.23068610D+06 0.23068610D+06 0.10930958D+01  1  2  5  5  6  1        2 -.177466282018D-04 0.100000000000D+01
  </mgrwgt>
  </event>
  <event>
  5     66 0.18881543E-05 0.62552824E+02 0.75467711E-02 0.93413894E-01
        2 -1    0    0  502    0 0.00000000E+00 0.00000000E+00 0.25239206E+04 0.25239206E+04 0.32000000E+00 0.0000E+00 0.9000E+01
       -2 -1    0    0    0  501 0.00000000E+00 0.00000000E+00 -.21004101E+04 0.21004101E+04 0.32000000E+00 0.0000E+00 0.9000E+01
       25  1    1    2    0    0 0.35889347E+03 -.34390772E+03 0.66720108E+03 0.84134376E+03 0.12500000E+03 0.0000E+00 0.9000E+01
        1  1    1    2  502    0 -.35177684E+03 0.40605035E+03 0.17283667E+04 0.18099380E+04 0.32000000E+00 0.0000E+00 0.9000E+01
       -1  1    1    2    0  501 -.71166305E+01 -.62142628E+02 -.19720573E+04 0.19730490E+04 0.32000000E+00 0.0000E+00 0.9000E+01
#aMCatNLO 1  0  0  1  4 0.21236225D+01 0.00000000D+00  -5  6  0 0.00000000D+00 0.00000000D+00 0.00000000D+00 0.00000000D+00 0.00000000D+00
  <mgrwgt>
 0.1718567842D-01   13    2    0
 0.230244836438118D+04 0.000000000000000D+00 0.000000000000000D+00 0.230244836438118D+04
 0.230244836438118D+04 0.000000000000000D+00 0.000000000000000D+00 -.230244836438118D+04
 0.783591283924381D+03 0.358876349849285D+03 -.343883401466187D+03 0.592741319596633D+03
 0.165853620606214D+04 -.351759225215055D+03 0.406030021529277D+03 0.156912313599412D+04
 0.216276923877584D+04 -.711712463422998D+01 -.621466200630900D+02 -.216186445559075D+04
 0.000000000000000D+00 0.000000000000000D+00 -.000000000000000D+00 0.000000000000000D+00
 0.238453483381723D+04 0.000000000000000D+00 0.000000000000000D+00 0.238453483381723D+04
 0.230246234408031D+04 0.000000000000000D+00 0.000000000000000D+00 -.230246234408031D+04
 0.783365446006481D+03 0.358576980309229D+03 -.343681101069129D+03 0.592741319596633D+03
 0.165877563094955D+04 -.352393002842669D+03 0.406458299789278D+03 0.156912313599412D+04
 0.216275614147769D+04 -.794352304003965D+01 -.615881773918956D+02 -.216186445559075D+04
 0.820999594638255D+02 0.175954557347951D+01 -.118902132825331D+01 0.820724897369246D+02
0.473599595379D-02 0.000000000000D+00 0.000000000000D+00 0.187971847765D-02 0.000000000000D+00  6 2 -2 25 1 -1 21 0 0.38829548D+00 0.32314002D+00 0.30929143D+06 0.30929143D+06 0.30929143D+06 0.10835732D+01  1  2  2  1  6  1        2 0.416182417893D-04 0.100000000000D+01
0.222304784109D-02 0.000000000000D+00 -.181874714789D-04 0.187971847765D-02 0.000000000000D+00  6 2 -2 25 1 -1 21 2 0.38829548D+00 0.32314002D+00 0.30929143D+06 0.30929143D+06 0.30929143D+06 0.10835732D+01  1  2  3  1  6  1        2 0.229370578668D-04 0.100000000000D+01
-.305540534714D-02 0.000000000000D+00 0.000000000000D+00 0.187971847765D-02 0.000000000000D+00  6 2 -2 25 1 -1 21 2 0.38829548D+00 0.32314002D+00 0.30929143D+06 0.30929143D+06 0.30929143D+06 0.10835732D+01  1  2 15  1  6  1        2 -.315251916573D-04 0.100000000000D+01
0.143813422262D-11 0.000000000000D+00 0.000000000000D+00 0.187971847765D-02 0.000000000000D+00  6 2 -2 25 1 -1 21 2 0.40214008D+00 0.32314002D+00 0.31043953D+06 0.31043953D+06 0.31043953D+06 0.10834545D+01  1  2 12  1  6  1        2 0.131343424996D-13 0.100000000000D+01
0.258090397932D-01 0.000000000000D+00 0.000000000000D+00 0.187971847765D-02 0.000000000000D+00  6 2 -2 25 1 -1 21 2 0.40220064D+00 0.32314002D+00 0.31043953D+06 0.31043953D+06 0.31043953D+06 0.10834545D+01  1  2 12  1  6  1        2 0.235585518644D-03 0.100000000000D+01
-.572708742747D+02 0.000000000000D+00 0.000000000000D+00 0.187971847765D-02 0.000000000000D+00  6 2 -2 25 1 -1 21 2 0.38829548D+00 0.32314002D+00 0.30929143D+06 0.30929143D+06 0.30929143D+06 0.10835732D+01  1  2  4  1  6  1        2 -.590911870197D+00 0.100000000000D+01
-.665251555024D+02 0.000000000000D+00 -.230591213684D-01 0.187971847765D-02 0.000000000000D+00  6 2 -2 25 1 -1 21 2 0.40213964D+00 0.32314002D+00 0.30929143D+06 0.30929143D+06 0.30929143D+06 0.10835732D+01  1  2  5  1  6  1        2 -.607971556828D+00 0.100000000000D+01
0.664851747967D+02 0.000000000000D+00 0.230449784149D-01 0.187971847765D-02 0.000000000000D+00  6 2 -2 25 1 -1 21 2 0.38829548D+00 0.32314002D+00 0.30929143D+06 0.30929143D+06 0.30929143D+06 0.10835732D+01  1  2  6  1  6  1        2 0.685983573275D+00 0.100000000000D+01
0.580125983134D+02 0.000000000000D+00 0.000000000000D+00 0.187971847765D-02 0.228153878743D-02  6 2 -2 25 1 -1 21 2 0.40213892D+00 0.32314198D+00 0.31043953D+06 0.31043953D+06 0.31043953D+06 0.10834545D+01  1  2 11  1  6  1        2 0.529813276782D+00 0.100000000000D+01
0.415004709978D-13 0.000000000000D+00 0.000000000000D+00 0.187971847765D-02 0.000000000000D+00  6 21 -2 25 1 -1 -2 2 0.40214008D+00 0.32314002D+00 0.31043953D+06 0.31043953D+06 0.31043953D+06 0.10834545D+01  1  2 12  5  6  1        2 0.390948294516D-16 0.100000000000D+01
0.747812803347D-03 0.000000000000D+00 0.000000000000D+00 0.187971847765D-02 0.000000000000D+00  6 21 -2 25 1 -1 -2 2 0.40220064D+00 0.32314002D+00 0.31043953D+06 0.31043953D+06 0.31043953D+06 0.10834545D+01  1  2 12  5  6  1        2 0.703789073680D-06 0.100000000000D+01
-.415480128515D+00 0.000000000000D+00 -.143815063940D-03 0.187971847765D-02 0.000000000000D+00  6 21 -2 25 1 -1 -2 2 0.40213964D+00 0.32314002D+00 0.30929143D+06 0.30929143D+06 0.30929143D+06 0.10835732D+01  1  2  5  5  6  1        2 -.391734689182D-03 0.100000000000D+01
0.418960823418D+00 0.000000000000D+00 0.000000000000D+00 0.187971847765D-02 0.164659152017D-04  6 21 -2 25 1 -1 -2 2 0.40213892D+00 0.32314198D+00 0.31043953D+06 0.31043953D+06 0.31043953D+06 0.10834545D+01  1  2 11  5  6  1        2 0.394670657492D-03 0.100000000000D+01
  </mgrwgt>
  </event>
  <event>
  6     66 0.18881543E-05 0.10441702E+03 0.75467711E-02 0.91312556E-01
        2 -1    0    0  502    0 0.00000000E+00 0.00000000E+00 0.15659573E+04 0.15659574E+04 0.32000000E+00 0.0000E+00 0.9000E+01
       -2 -1    0    0    0  501 -.00000000E+00 -.00000000E+00 -.27979897E+04 0.27979897E+04 0.32000000E+00 0.0000E+00 0.9000E+01
       25  1    1    2    0    0 -.64703466E+03 -.37546119E+02 -.84296589E+03 0.10706447E+04 0.12500000E+03 0.0000E+00 0.9000E+01
        1  1    1    2  503    0 0.52080355E+03 0.12724424E+03 0.10385495E+04 0.11687654E+04 0.32000000E+00 0.0000E+00 0.9000E+01
       -1  1    1    2    0  501 0.34265096E+02 -.93124741E+01 -.17651880E+04 0.17655452E+04 0.32000000E+00 0.0000E+00 0.9000E+01
       21  1    1    2  502  503 0.91966017E+02 -.80385645E+02 0.33757213E+03 0.35899179E+03 0.75000000E+00 0.0000E+00 0.9000E+01
#aMCatNLO 2  0  0  4  1 0.43248413D+02 0.00000000D+00  -5  6  0 0.00000000D+00 0.00000000D+00 0.00000000D+00 0.00000000D+00 0.00000000D+00
  <mgrwgt>
 0.4607228759D-02    1    2    0
 0.209321105510938D+04 0.000000000000000D+00 0.000000000000000D+00 0.209321105510938D+04
 0.209321105510938D+04 -.000000000000000D+00 -.000000000000000D+00 -.209321105510938D+04
 0.870580934172905D+03 -.648041579638817D+03 -.376205536353121D+02 -.566491807486010D+03
 0.198999862510889D+04 0.615310762706807D+03 0.470529184413009D+02 0.189189672448011D+04
 0.132584255093696D+04 0.327308169320104D+02 -.943236480598870D+01 -.132540491699410D+04
 0.000000000000000D+00 0.000000000000000D+00 0.000000000000000D+00 0.000000000000000D+00
 0.209321105510938D+04 0.000000000000000D+00 0.000000000000000D+00 0.209321105510938D+04
 0.209321105510938D+04 -.000000000000000D+00 -.000000000000000D+00 -.209321105510938D+04
 0.867799191815292D+03 -.647028826147513D+03 -.375431082039697D+02 -.563377893137307D+03
 0.152380495677957D+04 0.520762901880702D+03 0.127256740095745D+03 0.142639169530357D+04
 0.132114091881589D+04 0.342729087394008D+02 -.931444078378740D+01 -.132066344550348D+04
 0.473677042807997D+03 0.919930155274108D+02 -.803991911079880D+02 0.457649643337219D+03
0.817269625180D+00 0.000000000000D+00 0.000000000000D+00 0.188961562289D-02 0.846046344891D-06  6 2 -2 25 1 -1 21 2 0.24091652D+00 0.43045995D+00 0.45821960D+06 0.45821960D+06 0.45821960D+06 0.10711991D+01  1  2  1  3  6  4        1 0.460722875870D-02 0.100000000000D+01
  </mgrwgt>
  </event>
</LesHouchesEvents>
