<event>
 5    0  0.1829809E+000  0.2299882E+03  0.7546771E-02  0.1126648E+00
         21   -1    0    0  502  501  0.00000000000E+00  0.00000000000E+00  0.18859597055E+03  0.18859597055E+03  0.00000000000E+00 0.  1.
         21   -1    0    0  503  502 -0.00000000000E+00 -0.00000000000E+00 -0.43910713915E+03  0.43910713915E+03  0.00000000000E+00 0.  1.
         25    1    1    2    0    0 -0.10006225888E+03 -0.19131718834E+03  0.36966722380E+02  0.25220281674E+03  0.12500000000E+03 0.  0.
         21    1    1    2  503  504  0.75781260191E+02  0.13967127172E+03 -0.12164060545E+03  0.20011821615E+03  0.00000000000E+00 0.  1.
         21    1    1    2  504  501  0.24280998688E+02  0.51645916625E+02 -0.16583728552E+03  0.17538207682E+03  0.00000000000E+00 0.  1.
<mgrwt>
<rscale>  4 0.22998820E+03</rscale>
<asrwt>0</asrwt>
<pdfrwt beam="1">  1       21 0.29014765E-01 0.22998820E+03</pdfrwt>
<pdfrwt beam="2">  1       21 0.67554944E-01 0.22998820E+03</pdfrwt>
<totfact> 0.22310424E+04</totfact>
</mgrwt>
</event>
<event>
 5    0  0.1829809E+000  0.4934218E+03  0.7546771E-02  0.1015974E+00
         21   -1    0    0  502  501  0.00000000000E+00  0.00000000000E+00  0.17712584337E+04  0.17712584337E+04  0.00000000000E+00 0. -1.
         21   -1    0    0  503  502 -0.00000000000E+00 -0.00000000000E+00 -0.15381155812E+03  0.15381155812E+03  0.00000000000E+00 0. -1.
         25    1    1    2    0    0 -0.46634319308E+03  0.59784554693E+02  0.11355199797E+04  0.12353464255E+04  0.12500000000E+03 0.  0.
         21    1    1    2  503  504  0.15224143285E+03 -0.51798247455E+02  0.80158286969E+02  0.17968267386E+03  0.00000000000E+00 0. -1.
         21    1    1    2  504  501  0.31410176022E+03 -0.79863072383E+01  0.40176860890E+03  0.51004089245E+03  0.00000000000E+00 0. -1.
<mgrwt>
<rscale>  4 0.49168033E+03</rscale>
<asrwt>0</asrwt>
<pdfrwt beam="1">  1       21 0.27250128E+00 0.49342179E+03</pdfrwt>
<pdfrwt beam="2">  1       21 0.23663318E-01 0.49342179E+03</pdfrwt>
<totfact> 0.65412028E+02</totfact>
</mgrwt>
</event>
<event>
 5    0  0.1829809E+000  0.3126720E+03  0.7546771E-02  0.1079072E+00
         21   -1    0    0  502  501  0.00000000000E+00  0.00000000000E+00  0.96616876224E+03  0.96616876224E+03  0.00000000000E+00 0. -1.
         21   -1    0    0  503  502 -0.00000000000E+00 -0.00000000000E+00 -0.24013032062E+03  0.24013032062E+03  0.00000000000E+00 0. -1.
         25    1    1    2    0    0 -0.28919018574E+03  0.95888392947E+02  0.76650810769E+03  0.83425729040E+03  0.12500000000E+03 0.  0.
         21    1    1    2  503  504  0.26749156507E+03 -0.96533835183E+02 -0.10562923160E+03  0.30336125871E+03  0.00000000000E+00 0. -1.
         21    1    1    2  504  501  0.21698620670E+02  0.64544223637E+00  0.65159565532E+02  0.68680533741E+02  0.00000000000E+00 0.  1.
<mgrwt>
<rscale>  4 0.31267199E+03</rscale>
<asrwt>0</asrwt>
<pdfrwt beam="1">  1       21 0.14864135E+00 0.31267199E+03</pdfrwt>
<pdfrwt beam="2">  1       21 0.36943127E-01 0.31267199E+03</pdfrwt>
<totfact> 0.19765831E+03</totfact>
</mgrwt>
</event>
<event>
 5    0  0.1829809E+000  0.2394337E+03  0.7546771E-02  0.1120171E+00
         21   -1    0    0  502  501  0.00000000000E+00  0.00000000000E+00  0.22323584021E+03  0.22323584021E+03  0.00000000000E+00 0. -1.
         21   -1    0    0  503  502 -0.00000000000E+00 -0.00000000000E+00 -0.47116657821E+03  0.47116657821E+03  0.00000000000E+00 0.  1.
         25    1    1    2    0    0  0.56595818018E+02  0.26417338709E+03 -0.76348522895E+02  0.30731866525E+03  0.12500000000E+03 0.  0.
         21    1    1    2  503  504  0.78635013421E+02 -0.14888831060E+03 -0.97396551346E+02  0.19451807778E+03  0.00000000000E+00 0.  1.
         21    1    1    2  504  501 -0.13523083144E+03 -0.11528507649E+03 -0.74185663757E+02  0.19256567539E+03  0.00000000000E+00 0.  1.
<mgrwt>
<rscale>  4 0.23943372E+03</rscale>
<asrwt>0</asrwt>
<pdfrwt beam="1">  1       21 0.34343976E-01 0.23943372E+03</pdfrwt>
<pdfrwt beam="2">  1       21 0.72487165E-01 0.23943372E+03</pdfrwt>
<totfact> 0.13622011E+04</totfact>
</mgrwt>
</event>
<event>
 5    0  0.1829809E+000  0.2423590E+03  0.7546771E-02  0.1118231E+00
         21   -1    0    0  502  501  0.00000000000E+00  0.00000000000E+00  0.74276299054E+03  0.74276299054E+03  0.00000000000E+00 0. -1.
         21   -1    0    0  503  502 -0.00000000000E+00 -0.00000000000E+00 -0.86344341684E+02  0.86344341684E+02  0.00000000000E+00 0.  1.
         25    1    1    2    0    0 -0.33432369088E+02  0.20492715845E+03  0.52643943873E+03  0.57954839852E+03  0.12500000000E+03 0.  0.
         21    1    1    2  503  504 -0.20237314389E+01 -0.73819537968E+02  0.67544554063E+02  0.10007840156E+03  0.00000000000E+00 0.  1.
         21    1    1    2  504  501  0.35456100527E+02 -0.13110762048E+03  0.62434656055E+02  0.14948053214E+03  0.00000000000E+00 0.  1.
<mgrwt>
<rscale>  4 0.24235896E+03</rscale>
<asrwt>0</asrwt>
<pdfrwt beam="1">  1       21 0.11427123E+00 0.24235896E+03</pdfrwt>
<pdfrwt beam="2">  1       21 0.13283745E-01 0.24235896E+03</pdfrwt>
<totfact> 0.28329395E+04</totfact>
</mgrwt>
</event>
<event>
 5    0  0.1829809E+000  0.2705418E+03  0.7546771E-02  0.1100970E+00
         21   -1    0    0  502  501  0.00000000000E+00  0.00000000000E+00  0.12968172249E+03  0.12968172249E+03  0.00000000000E+00 0. -1.
         21   -1    0    0  503  502 -0.00000000000E+00 -0.00000000000E+00 -0.58470777566E+03  0.58470777566E+03  0.00000000000E+00 0. -1.
         25    1    1    2    0    0  0.86154241072E+02  0.22393147861E+03 -0.34575813935E+03  0.43902340632E+03  0.12500000000E+03 0.  0.
         21    1    1    2  503  504  0.10479920796E+02 -0.42687877664E+02 -0.28719461865E+01  0.44049196522E+02  0.00000000000E+00 0. -1.
         21    1    1    2  504  501 -0.96634161868E+02 -0.18124360095E+03 -0.10639596764E+03  0.23131689531E+03  0.00000000000E+00 0. -1.
<mgrwt>
<rscale>  4 0.27054179E+03</rscale>
<asrwt>0</asrwt>
<pdfrwt beam="1">  1       21 0.19951034E-01 0.27054179E+03</pdfrwt>
<pdfrwt beam="2">  1       21 0.89955044E-01 0.27054179E+03</pdfrwt>
<totfact> 0.23425155E+04</totfact>
</mgrwt>
</event>
<event>
 5    0  0.1829809E+000  0.2760502E+03  0.7546771E-02  0.1097866E+00
         21   -1    0    0  502  501  0.00000000000E+00  0.00000000000E+00  0.15483743418E+03  0.15483743418E+03  0.00000000000E+00 0.  1.
         21   -1    0    0  503  502 -0.00000000000E+00 -0.00000000000E+00 -0.64626586945E+03  0.64626586945E+03  0.00000000000E+00 0.  1.
         25    1    1    2    0    0  0.23126625085E+03  0.84229562303E+02 -0.47456526621E+03  0.54901356071E+03  0.12500000000E+03 0.  0.
         21    1    1    2  503  504 -0.15354867385E+03 -0.40896945134E+02 -0.31270147204E+02  0.16194930524E+03  0.00000000000E+00 0.  1.
         21    1    1    2  504  501 -0.77717577004E+02 -0.43332617169E+02  0.14406978140E+02  0.90140437681E+02  0.00000000000E+00 0.  1.
<mgrwt>
<rscale>  4 0.27605017E+03</rscale>
<asrwt>0</asrwt>
<pdfrwt beam="1">  1       21 0.23821143E-01 0.27605017E+03</pdfrwt>
<pdfrwt beam="2">  1       21 0.99425520E-01 0.27605017E+03</pdfrwt>
<totfact> 0.13172010E+04</totfact>
</mgrwt>
</event>
<event>
 5    0  0.1829809E+000  0.2431109E+03  0.7546771E-02  0.1117738E+00
         21   -1    0    0  502  501  0.00000000000E+00  0.00000000000E+00  0.11591445895E+04  0.11591445895E+04  0.00000000000E+00 0.  1.
         21   -1    0    0  503  502 -0.00000000000E+00 -0.00000000000E+00 -0.67311335916E+02  0.67311335916E+02  0.00000000000E+00 0. -1.
         25    1    1    2    0    0  0.20148691977E+03  0.26718288112E+02  0.83220544145E+03  0.86573768691E+03  0.12500000000E+03 0.  0.
         21    1    1    2  503  504 -0.20212371615E+03 -0.58695915854E+02  0.18774703367E+03  0.28204282622E+03  0.00000000000E+00 0. -1.
         21    1    1    2  504  501  0.63679638654E+00  0.31977627742E+02  0.71880778427E+02  0.78675412251E+02  0.00000000000E+00 0.  1.
<mgrwt>
<rscale>  4 0.24311092E+03</rscale>
<asrwt>0</asrwt>
<pdfrwt beam="1">  1       21 0.17832992E+00 0.24311092E+03</pdfrwt>
<pdfrwt beam="2">  1       21 0.10355591E-01 0.24311092E+03</pdfrwt>
<totfact> 0.13754846E+04</totfact>
</mgrwt>
</event>
<event>
 5    0  0.1829809E+000  0.2459549E+03  0.7546771E-02  0.1115888E+00
         21   -1    0    0  502  501  0.00000000000E+00  0.00000000000E+00  0.56018445693E+03  0.56018445693E+03  0.00000000000E+00 0.  1.
         21   -1    0    0  503  502 -0.00000000000E+00 -0.00000000000E+00 -0.72083418112E+03  0.72083418112E+03  0.00000000000E+00 0.  1.
         25    1    1    2    0    0  0.13351920468E+03 -0.16444286703E+03  0.51520068471E+03  0.57089892280E+03  0.12500000000E+03 0.  0.
         21    1    1    2  503  504 -0.12453029566E+03  0.13914368194E+03 -0.62887931213E+03  0.65601672843E+03  0.00000000000E+00 0.  1.
         21    1    1    2  504  501 -0.89889090214E+01  0.25299185092E+02 -0.46971096765E+02  0.54102986821E+02  0.00000000000E+00 0.  1.
<mgrwt>
<rscale>  4 0.24595494E+03</rscale>
<asrwt>0</asrwt>
<pdfrwt beam="1">  1       21 0.86182224E-01 0.24595494E+03</pdfrwt>
<pdfrwt beam="2">  1       21 0.11089757E+00 0.24595494E+03</pdfrwt>
<totfact> 0.70656995E+02</totfact>
</mgrwt>
</event>
<event>
 5    0  0.1829809E+000  0.2420645E+03  0.7546771E-02  0.1118425E+00
         21   -1    0    0  502  501  0.00000000000E+00  0.00000000000E+00  0.34468001420E+02  0.34468001420E+02  0.00000000000E+00 0. -1.
         21   -1    0    0  503  502 -0.00000000000E+00 -0.00000000000E+00 -0.26994153582E+04  0.26994153582E+04  0.00000000000E+00 0.  1.
         25    1    1    2    0    0 -0.12467303683E+03 -0.18989606564E+03 -0.60084038636E+03  0.65439900042E+03  0.12500000000E+03 0.  0.
         21    1    1    2  503  504  0.34264443083E+02  0.74693077707E+01 -0.12852258940E+03  0.13322123932E+03  0.00000000000E+00 0. -1.
         21    1    1    2  504  501  0.90408593751E+02  0.18242675787E+03 -0.19355843810E+04  0.19462631199E+04  0.00000000000E+00 0.  1.
<mgrwt>
<rscale>  4 0.24206447E+03</rscale>
<asrwt>0</asrwt>
<pdfrwt beam="1">  1       21 0.53027709E-02 0.24206447E+03</pdfrwt>
<pdfrwt beam="2">  1       21 0.41529456E+00 0.24206447E+03</pdfrwt>
<totfact> 0.15906010E+03</totfact>
</mgrwt>
</event>
<event>
 5    0  0.1829809E+000  0.2794177E+03  0.7546771E-02  0.1096007E+00
         21   -1    0    0  502  501  0.00000000000E+00  0.00000000000E+00  0.96368556156E+03  0.96368556156E+03  0.00000000000E+00 0. -1.
         21   -1    0    0  503  502 -0.00000000000E+00 -0.00000000000E+00 -0.78316307793E+02  0.78316307793E+02  0.00000000000E+00 0. -1.
         25    1    1    2    0    0  0.17477997584E+03  0.17860911304E+03  0.49704429223E+03  0.57019933677E+03  0.12500000000E+03 0.  0.
         21    1    1    2  503  504 -0.54830073816E+02 -0.22134860929E+02  0.15751660404E+03  0.16824912960E+03  0.00000000000E+00 0. -1.
         21    1    1    2  504  501 -0.11994990203E+03 -0.15647425211E+03  0.23080835749E+03  0.30355340298E+03  0.00000000000E+00 0. -1.
<mgrwt>
<rscale>  4 0.27941771E+03</rscale>
<asrwt>0</asrwt>
<pdfrwt beam="1">  1       21 0.14825931E+00 0.27941771E+03</pdfrwt>
<pdfrwt beam="2">  1       21 0.12048663E-01 0.27941771E+03</pdfrwt>
<totfact> 0.17060804E+04</totfact>
</mgrwt>
</event>
<event>
 5    0  0.1829809E+000  0.3211795E+03  0.7546771E-02  0.1075108E+00
         21   -1    0    0  502  501  0.00000000000E+00  0.00000000000E+00  0.18782847413E+03  0.18782847413E+03  0.00000000000E+00 0. -1.
         21   -1    0    0  503  502 -0.00000000000E+00 -0.00000000000E+00 -0.56069454501E+03  0.56069454501E+03  0.00000000000E+00 0. -1.
         25    1    1    2    0    0  0.24652101607E+03 -0.14363451034E+03 -0.26108408569E+03  0.40643988943E+03  0.12500000000E+03 0.  0.
         21    1    1    2  503  504 -0.26678487456E+03  0.14268928980E+03 -0.10011085842E+03  0.31867944190E+03  0.00000000000E+00 0. -1.
         21    1    1    2  504  501  0.20263858492E+02  0.94522054498E+00 -0.11671126777E+02  0.23403687809E+02  0.00000000000E+00 0.  1.
<mgrwt>
<rscale>  4 0.32117954E+03</rscale>
<asrwt>0</asrwt>
<pdfrwt beam="1">  1       21 0.28896689E-01 0.32117954E+03</pdfrwt>
<pdfrwt beam="2">  1       21 0.86260698E-01 0.32117954E+03</pdfrwt>
<totfact> 0.12408611E+04</totfact>
</mgrwt>
</event>
<event>
 5    0  0.1829809E+000  0.2416279E+03  0.7546771E-02  0.1118713E+00
         21   -1    0    0  502  501  0.00000000000E+00  0.00000000000E+00  0.37685623670E+02  0.37685623670E+02  0.00000000000E+00 0.  1.
         21   -1    0    0  503  502 -0.00000000000E+00 -0.00000000000E+00 -0.14018598735E+04  0.14018598735E+04  0.00000000000E+00 0.  1.
         25    1    1    2    0    0  0.15135321379E+02  0.20622793305E+03 -0.79633932439E+03  0.83219009721E+03  0.12500000000E+03 0.  0.
         21    1    1    2  503  504  0.15066397089E+02 -0.45995641379E+02 -0.86067027700E+02  0.98742739501E+02  0.00000000000E+00 0.  1.
         21    1    1    2  504  501 -0.30201718467E+02 -0.16023229167E+03 -0.48176789779E+03  0.50861266051E+03  0.00000000000E+00 0.  1.
<mgrwt>
<rscale>  4 0.24162789E+03</rscale>
<asrwt>0</asrwt>
<pdfrwt beam="1">  1       21 0.57977883E-02 0.24162789E+03</pdfrwt>
<pdfrwt beam="2">  1       21 0.21567075E+00 0.24162789E+03</pdfrwt>
<totfact> 0.21590634E+04</totfact>
</mgrwt>
</event>
<event>
 5    0  0.1829809E+000  0.6998134E+03  0.7546771E-02  0.9717551E-01
         21   -1    0    0  502  501  0.00000000000E+00  0.00000000000E+00  0.21310557373E+04  0.21310557373E+04  0.00000000000E+00 0.  1.
         21   -1    0    0  503  502 -0.00000000000E+00 -0.00000000000E+00 -0.26813508518E+03  0.26813508518E+03  0.00000000000E+00 0.  1.
         25    1    1    2    0    0  0.20451229689E+03 -0.64707005838E+03  0.12404045450E+04  0.14194200841E+04  0.12500000000E+03 0.  0.
         21    1    1    2  503  504  0.18074248580E+02 -0.23034997366E+02 -0.10850253670E+02  0.31225271337E+02  0.00000000000E+00 0. -1.
         21    1    1    2  504  501 -0.22258654547E+03  0.67010505575E+03  0.63336636077E+03  0.94854546698E+03  0.00000000000E+00 0.  1.
<mgrwt>
<rscale>  4 0.69981344E+03</rscale>
<asrwt>0</asrwt>
<pdfrwt beam="1">  1       21 0.32785472E+00 0.69981344E+03</pdfrwt>
<pdfrwt beam="2">  1       21 0.41251553E-01 0.69981344E+03</pdfrwt>
<totfact> 0.89856303E+01</totfact>
</mgrwt>
</event>
<event>
 5    0  0.1829809E+000  0.3142214E+03  0.7546771E-02  0.1078340E+00
         21   -1    0    0  502  501  0.00000000000E+00  0.00000000000E+00  0.35678837020E+03  0.35678837020E+03  0.00000000000E+00 0.  1.
         21   -1    0    0  503  502 -0.00000000000E+00 -0.00000000000E+00 -0.27664702470E+03  0.27664702470E+03  0.00000000000E+00 0.  1.
         25    1    1    2    0    0 -0.48350724489E+02 -0.28420464734E+03  0.10909988145E+03  0.33262269655E+03  0.12500000000E+03 0.  0.
         21    1    1    2  503  504  0.28036188751E+02  0.27088419483E+03 -0.37840484963E+02  0.27494758990E+03  0.00000000000E+00 0.  1.
         21    1    1    2  504  501  0.20314535738E+02  0.13320452506E+02  0.88819490110E+01  0.25865108456E+02  0.00000000000E+00 0. -1.
<mgrwt>
<rscale>  4 0.31422138E+03</rscale>
<asrwt>0</asrwt>
<pdfrwt beam="1">  1       21 0.54890519E-01 0.31422138E+03</pdfrwt>
<pdfrwt beam="2">  1       21 0.42561080E-01 0.31422138E+03</pdfrwt>
<totfact> 0.15647273E+04</totfact>
</mgrwt>
</event>
<event>
 5    0  0.1829809E+000  0.2665220E+03  0.7546771E-02  0.1103287E+00
         21   -1    0    0  502  501  0.00000000000E+00  0.00000000000E+00  0.13430590184E+03  0.13430590184E+03  0.00000000000E+00 0. -1.
         21   -1    0    0  503  502 -0.00000000000E+00 -0.00000000000E+00 -0.61860999752E+03  0.61860999752E+03  0.00000000000E+00 0.  1.
         25    1    1    2    0    0 -0.22590747708E+03  0.66142254097E+02 -0.72773124033E+02  0.27627868821E+03  0.12500000000E+03 0.  0.
         21    1    1    2  503  504  0.20651285459E+02  0.74713467860E+01 -0.29846910703E+02  0.37055832097E+02  0.00000000000E+00 0.  1.
         21    1    1    2  504  501  0.20525619162E+03 -0.73613600883E+02 -0.38168406094E+03  0.43958137906E+03  0.00000000000E+00 0.  1.
<mgrwt>
<rscale>  4 0.26652202E+03</rscale>
<asrwt>0</asrwt>
<pdfrwt beam="1">  1       21 0.20662446E-01 0.26652202E+03</pdfrwt>
<pdfrwt beam="2">  1       21 0.95170771E-01 0.26652202E+03</pdfrwt>
<totfact> 0.19242586E+04</totfact>
</mgrwt>
</event>
<event>
 5    0  0.1829809E+000  0.2638433E+03  0.7546771E-02  0.1104856E+00
         21   -1    0    0  502  501  0.00000000000E+00  0.00000000000E+00  0.22555911195E+03  0.22555911195E+03  0.00000000000E+00 0. -1.
         21   -1    0    0  503  502 -0.00000000000E+00 -0.00000000000E+00 -0.67521669729E+03  0.67521669729E+03  0.00000000000E+00 0. -1.
         25    1    1    2    0    0  0.57246469979E+02 -0.25216337610E+03  0.55444727927E+02  0.29251093044E+03  0.12500000000E+03 0.  0.
         21    1    1    2  503  504 -0.54138444245E+02  0.18307498498E+03 -0.14018703064E+03  0.23685401586E+03  0.00000000000E+00 0. -1.
         21    1    1    2  504  501 -0.31080257343E+01  0.69088391121E+02 -0.36491528263E+03  0.37141086294E+03  0.00000000000E+00 0. -1.
<mgrwt>
<rscale>  4 0.26384329E+03</rscale>
<asrwt>0</asrwt>
<pdfrwt beam="1">  1       21 0.34701402E-01 0.26384329E+03</pdfrwt>
<pdfrwt beam="2">  1       21 0.10387949E+00 0.26384329E+03</pdfrwt>
<totfact> 0.57167454E+03</totfact>
</mgrwt>
</event>
<event>
 5    0  0.1829809E+000  0.2130609E+03  0.7546771E-02  0.1139165E+00
         21   -1    0    0  502  501  0.00000000000E+00  0.00000000000E+00  0.70105449481E+02  0.70105449481E+02  0.00000000000E+00 0. -1.
         21   -1    0    0  503  502 -0.00000000000E+00 -0.00000000000E+00 -0.13488071405E+04  0.13488071405E+04  0.00000000000E+00 0. -1.
         25    1    1    2    0    0 -0.23607007058E+03 -0.36076594895E+02 -0.30706986328E+03  0.40859209471E+03  0.12500000000E+03 0.  0.
         21    1    1    2  503  504  0.74561737920E+02  0.56759756844E+02 -0.18930563258E+03  0.21122912982E+03  0.00000000000E+00 0. -1.
         21    1    1    2  504  501  0.16150833266E+03 -0.20683161949E+02 -0.78232619518E+03  0.79909136547E+03  0.00000000000E+00 0. -1.
<mgrwt>
<rscale>  4 0.21306087E+03</rscale>
<asrwt>0</asrwt>
<pdfrwt beam="1">  1       21 0.10785455E-01 0.21306087E+03</pdfrwt>
<pdfrwt beam="2">  1       21 0.20750877E+00 0.21306087E+03</pdfrwt>
<totfact> 0.83902914E+03</totfact>
</mgrwt>
</event>
<event>
 5    0  0.1829809E+000  0.2383940E+03  0.7546771E-02  0.1120867E+00
         21   -1    0    0  502  501  0.00000000000E+00  0.00000000000E+00  0.15042091204E+03  0.15042091204E+03  0.00000000000E+00 0.  1.
         21   -1    0    0  503  502 -0.00000000000E+00 -0.00000000000E+00 -0.41476838544E+03  0.41476838544E+03  0.00000000000E+00 0.  1.
         25    1    1    2    0    0  0.42144000810E+02  0.19857138868E+03 -0.10971726318E+02  0.23864637434E+03  0.12500000000E+03 0.  0.
         21    1    1    2  503  504  0.46809625147E+01 -0.30509987740E+02 -0.29304062118E+02  0.42561706011E+02  0.00000000000E+00 0.  1.
         21    1    1    2  504  501 -0.46824963325E+02 -0.16806140094E+03 -0.22407168496E+03  0.28398121712E+03  0.00000000000E+00 0.  1.
<mgrwt>
<rscale>  4 0.23839403E+03</rscale>
<asrwt>0</asrwt>
<pdfrwt beam="1">  1       21 0.23141680E-01 0.23839403E+03</pdfrwt>
<pdfrwt beam="2">  1       21 0.63810518E-01 0.23839403E+03</pdfrwt>
<totfact> 0.38923356E+04</totfact>
</mgrwt>
</event>
<event>
 5    0  0.1829809E+000  0.4192452E+03  0.7546771E-02  0.1037312E+00
         21   -1    0    0  502  501  0.00000000000E+00  0.00000000000E+00  0.30447609649E+03  0.30447609649E+03  0.00000000000E+00 0. -1.
         21   -1    0    0  503  502 -0.00000000000E+00 -0.00000000000E+00 -0.65257024586E+03  0.65257024586E+03  0.00000000000E+00 0. -1.
         25    1    1    2    0    0  0.33446803161E+02 -0.39877671462E+03  0.27239509183E+01  0.41925407174E+03  0.12500000000E+03 0.  0.
         21    1    1    2  503  504 -0.33886219769E+02  0.81289600625E+02 -0.99467541291E+02  0.13285355408E+03  0.00000000000E+00 0.  1.
         21    1    1    2  504  501  0.43941660782E+00  0.31748711399E+03 -0.25135055900E+03  0.40493871654E+03  0.00000000000E+00 0. -1.
<mgrwt>
<rscale>  4 0.41924522E+03</rscale>
<asrwt>0</asrwt>
<pdfrwt beam="1">  1       21 0.46842477E-01 0.41924522E+03</pdfrwt>
<pdfrwt beam="2">  1       21 0.10039542E+00 0.41924522E+03</pdfrwt>
<totfact> 0.31218999E+03</totfact>
</mgrwt>
</event>
<event>
 5    0  0.1829809E+000  0.2672673E+03  0.7546771E-02  0.1102854E+00
         21   -1    0    0  502  501  0.00000000000E+00  0.00000000000E+00  0.87144865996E+02  0.87144865996E+02  0.00000000000E+00 0. -1.
         21   -1    0    0  503  502 -0.00000000000E+00 -0.00000000000E+00 -0.95744547536E+03  0.95744547536E+03  0.00000000000E+00 0. -1.
         25    1    1    2    0    0 -0.22895744933E+03  0.84799329104E+02 -0.58980132312E+03  0.65046371195E+03  0.12500000000E+03 0.  0.
         21    1    1    2  503  504  0.19278233118E+03 -0.11882319803E+03 -0.21843410587E+03  0.31463858348E+03  0.00000000000E+00 0. -1.
         21    1    1    2  504  501  0.36175118151E+02  0.34023868927E+02 -0.62065180377E+02  0.79488045926E+02  0.00000000000E+00 0. -1.
<mgrwt>
<rscale>  4 0.26726729E+03</rscale>
<asrwt>0</asrwt>
<pdfrwt beam="1">  1       21 0.13406902E-01 0.26726729E+03</pdfrwt>
<pdfrwt beam="2">  1       21 0.14729931E+00 0.26726729E+03</pdfrwt>
<totfact> 0.14393930E+04</totfact>
</mgrwt>
</event>
<event>
 5    0  0.1829809E+000  0.4031976E+03  0.7546771E-02  0.1042678E+00
         21   -1    0    0  502  501  0.00000000000E+00  0.00000000000E+00  0.24740079807E+03  0.24740079807E+03  0.00000000000E+00 0.  1.
         21   -1    0    0  503  502 -0.00000000000E+00 -0.00000000000E+00 -0.86244611259E+03  0.86244611259E+03  0.00000000000E+00 0.  1.
         25    1    1    2    0    0  0.32288473926E+03  0.20661263176E+03 -0.35104550422E+02  0.40472294710E+03  0.12500000000E+03 0.  0.
         21    1    1    2  503  504 -0.29016939710E+03 -0.16192007052E+03 -0.41807360968E+03  0.53404300516E+03  0.00000000000E+00 0.  1.
         21    1    1    2  504  501 -0.32715342155E+02 -0.44692561242E+02 -0.16186715442E+03  0.17108095839E+03  0.00000000000E+00 0. -1.
<mgrwt>
<rscale>  4 0.40319764E+03</rscale>
<asrwt>0</asrwt>
<pdfrwt beam="1">  1       21 0.38061661E-01 0.40319764E+03</pdfrwt>
<pdfrwt beam="2">  1       21 0.13268402E+00 0.40319764E+03</pdfrwt>
<totfact> 0.23991753E+03</totfact>
</mgrwt>
</event>
<event>
 5    0  0.1829809E+000  0.3267169E+03  0.7546771E-02  0.1072599E+00
         21   -1    0    0  502  501  0.00000000000E+00  0.00000000000E+00  0.53084612221E+03  0.53084612221E+03  0.00000000000E+00 0.  1.
         21   -1    0    0  503  502 -0.00000000000E+00 -0.00000000000E+00 -0.56041679242E+03  0.56041679242E+03  0.00000000000E+00 0. -1.
         25    1    1    2    0    0  0.15589500984E+03  0.26461261282E+03  0.42004879129E+03  0.53515332011E+03  0.12500000000E+03 0.  0.
         21    1    1    2  503  504 -0.38883624753E+02 -0.22099291773E+02 -0.13383626726E+03  0.14111152116E+03  0.00000000000E+00 0. -1.
         21    1    1    2  504  501 -0.11701138509E+03 -0.24251332105E+03 -0.31578319425E+03  0.41499807336E+03  0.00000000000E+00 0. -1.
<mgrwt>
<rscale>  4 0.32671691E+03</rscale>
<asrwt>0</asrwt>
<pdfrwt beam="1">  1       21 0.81668634E-01 0.32671691E+03</pdfrwt>
<pdfrwt beam="2">  1       21 0.86217968E-01 0.32671691E+03</pdfrwt>
<totfact> 0.13799238E+03</totfact>
</mgrwt>
</event>
<event>
 5    0  0.1829809E+000  0.2415647E+03  0.7546771E-02  0.1118755E+00
         21   -1    0    0  502  501  0.00000000000E+00  0.00000000000E+00  0.70641394085E+03  0.70641394085E+03  0.00000000000E+00 0. -1.
         21   -1    0    0  503  502 -0.00000000000E+00 -0.00000000000E+00 -0.10711004605E+03  0.10711004605E+03  0.00000000000E+00 0. -1.
         25    1    1    2    0    0  0.93795085885E+02  0.18252347048E+03  0.51053160711E+03  0.56425159040E+03  0.12500000000E+03 0.  0.
         21    1    1    2  503  504  0.20866690176E+02 -0.48182097255E+01  0.70639294140E+01  0.22550676323E+02  0.00000000000E+00 0. -1.
         21    1    1    2  504  501 -0.11466177606E+03 -0.17770526075E+03  0.81708358284E+02  0.22672172018E+03  0.00000000000E+00 0. -1.
<mgrwt>
<rscale>  4 0.24156471E+03</rscale>
<asrwt>0</asrwt>
<pdfrwt beam="1">  1       21 0.10867906E+00 0.24156471E+03</pdfrwt>
<pdfrwt beam="2">  1       21 0.16478469E-01 0.24156471E+03</pdfrwt>
<totfact> 0.21601185E+04</totfact>
</mgrwt>
</event>
<event>
 5    0  0.1829809E+000  0.2622731E+03  0.7546771E-02  0.1105785E+00
         21   -1    0    0  502  501  0.00000000000E+00  0.00000000000E+00  0.18203384890E+04  0.18203384890E+04  0.00000000000E+00 0.  1.
         21   -1    0    0  503  502 -0.00000000000E+00 -0.00000000000E+00 -0.85944152731E+02  0.85944152731E+02  0.00000000000E+00 0. -1.
         25    1    1    2    0    0 -0.13819892271E+01 -0.23056516037E+03  0.16082578275E+04  0.16295031275E+04  0.12500000000E+03 0.  0.
         21    1    1    2  503  504  0.11381850310E+02  0.82591919384E+02  0.92833028542E+02  0.12477556993E+03  0.00000000000E+00 0. -1.
         21    1    1    2  504  501 -0.99998610834E+01  0.14797324099E+03  0.33303480259E+02  0.15200394425E+03  0.00000000000E+00 0. -1.
<mgrwt>
<rscale>  4 0.26227315E+03</rscale>
<asrwt>0</asrwt>
<pdfrwt beam="1">  1       21 0.28005205E+00 0.26227315E+03</pdfrwt>
<pdfrwt beam="2">  1       21 0.13222179E-01 0.26227315E+03</pdfrwt>
<totfact> 0.20386409E+03</totfact>
</mgrwt>
</event>
<event>
 5    0  0.1829809E+000  0.2617846E+03  0.7546771E-02  0.1106076E+00
         21   -1    0    0  502  501  0.00000000000E+00  0.00000000000E+00  0.12565441938E+03  0.12565441938E+03  0.00000000000E+00 0. -1.
         21   -1    0    0  503  502 -0.00000000000E+00 -0.00000000000E+00 -0.17823360744E+04  0.17823360744E+04  0.00000000000E+00 0. -1.
         25    1    1    2    0    0  0.19632807644E+03 -0.12854929776E+03 -0.41165845627E+02  0.26905252721E+03  0.12500000000E+03 0.  0.
         21    1    1    2  503  504 -0.14666815990E+03  0.11279033476E+03 -0.15096550518E+04  0.15209508816E+04  0.00000000000E+00 0. -1.
         21    1    1    2  504  501 -0.49659916543E+02  0.15758963005E+02 -0.10586075752E+03  0.11798708493E+03  0.00000000000E+00 0. -1.
<mgrwt>
<rscale>  4 0.26178461E+03</rscale>
<asrwt>0</asrwt>
<pdfrwt beam="1">  1       21 0.19331450E-01 0.26178461E+03</pdfrwt>
<pdfrwt beam="2">  1       21 0.27420554E+00 0.26178461E+03</pdfrwt>
<totfact> 0.10956529E+03</totfact>
</mgrwt>
</event>
<event>
 5    0  0.1829809E+000  0.2516114E+03  0.7546771E-02  0.1112291E+00
         21   -1    0    0  502  501  0.00000000000E+00  0.00000000000E+00  0.26220061084E+04  0.26220061084E+04  0.00000000000E+00 0. -1.
         21   -1    0    0  503  502 -0.00000000000E+00 -0.00000000000E+00 -0.25103441523E+03  0.25103441523E+03  0.00000000000E+00 0.  1.
         25    1    1    2    0    0  0.18503531870E+03  0.11595348743E+03  0.25546037191E+04  0.25669648307E+04  0.12500000000E+03 0.  0.
         21    1    1    2  503  504 -0.79351788628E+02 -0.11196599164E+03 -0.84766082469E+02  0.16130213384E+03  0.00000000000E+00 0.  1.
         21    1    1    2  504  501 -0.10568353007E+03 -0.39874957842E+01 -0.98865943436E+02  0.14477355913E+03  0.00000000000E+00 0.  1.
<mgrwt>
<rscale>  4 0.25161137E+03</rscale>
<asrwt>0</asrwt>
<pdfrwt beam="1">  1       21 0.40338554E+00 0.25161137E+03</pdfrwt>
<pdfrwt beam="2">  1       21 0.38620681E-01 0.25161137E+03</pdfrwt>
<totfact> 0.48632377E+01</totfact>
</mgrwt>
</event>
<event>
 5    0  0.1829809E+000  0.2474803E+03  0.7546771E-02  0.1114908E+00
         21   -1    0    0  502  501  0.00000000000E+00  0.00000000000E+00  0.11059240238E+04  0.11059240238E+04  0.00000000000E+00 0.  1.
         21   -1    0    0  503  502 -0.00000000000E+00 -0.00000000000E+00 -0.60016237941E+02  0.60016237941E+02  0.00000000000E+00 0.  1.
         25    1    1    2    0    0 -0.66149971535E+02 -0.20309027060E+03  0.78716702144E+03  0.82515355927E+03  0.12500000000E+03 0.  0.
         21    1    1    2  503  504  0.26905178104E+02  0.16213322293E+03  0.20386763540E+03  0.26186462791E+03  0.00000000000E+00 0.  1.
         21    1    1    2  504  501  0.39244793432E+02  0.40957047668E+02  0.54873129055E+02  0.78922074590E+02  0.00000000000E+00 0. -1.
<mgrwt>
<rscale>  4 0.24748026E+03</rscale>
<asrwt>0</asrwt>
<pdfrwt beam="1">  1       21 0.17014214E+00 0.24748026E+03</pdfrwt>
<pdfrwt beam="2">  1       21 0.92332682E-02 0.24748026E+03</pdfrwt>
<totfact> 0.19189760E+04</totfact>
</mgrwt>
</event>
<event>
 5    0  0.1829809E+000  0.2723670E+03  0.7546771E-02  0.1099933E+00
         21   -1    0    0  502  501  0.00000000000E+00  0.00000000000E+00  0.87597066938E+03  0.87597066938E+03  0.00000000000E+00 0.  1.
         21   -1    0    0  503  502 -0.00000000000E+00 -0.00000000000E+00 -0.87897704573E+02  0.87897704573E+02  0.00000000000E+00 0.  1.
         25    1    1    2    0    0  0.22648213630E+03 -0.85232659286E+02  0.25992945288E+03  0.37649314038E+03  0.12500000000E+03 0.  0.
         21    1    1    2  503  504 -0.12643164932E+03  0.52626911332E+02  0.39246610019E+03  0.41567318117E+03  0.00000000000E+00 0.  1.
         21    1    1    2  504  501 -0.10005048699E+03  0.32605747954E+02  0.13567741174E+03  0.17170205241E+03  0.00000000000E+00 0.  1.
<mgrwt>
<rscale>  4 0.27236697E+03</rscale>
<asrwt>0</asrwt>
<pdfrwt beam="1">  1       21 0.13476471E+00 0.27236697E+03</pdfrwt>
<pdfrwt beam="2">  1       21 0.13522724E-01 0.27236697E+03</pdfrwt>
<totfact> 0.17839270E+04</totfact>
</mgrwt>
</event>
<event>
 5    0  0.1829809E+000  0.3033376E+03  0.7546771E-02  0.1083584E+00
         21   -1    0    0  502  501  0.00000000000E+00  0.00000000000E+00  0.27125597278E+03  0.27125597278E+03  0.00000000000E+00 0. -1.
         21   -1    0    0  503  502 -0.00000000000E+00 -0.00000000000E+00 -0.32433264670E+03  0.32433264670E+03  0.00000000000E+00 0. -1.
         25    1    1    2    0    0  0.39988326827E+02  0.27347688803E+03 -0.69228528381E+02  0.31113704973E+03  0.12500000000E+03 0.  0.
         21    1    1    2  503  504 -0.13692225850E+02 -0.44827546970E+02 -0.20919839742E+02  0.51328605192E+02  0.00000000000E+00 0. -1.
         21    1    1    2  504  501 -0.26296100977E+02 -0.22864934106E+03  0.37071694193E+02  0.23312296456E+03  0.00000000000E+00 0. -1.
<mgrwt>
<rscale>  4 0.30333756E+03</rscale>
<asrwt>0</asrwt>
<pdfrwt beam="1">  1       21 0.41731689E-01 0.30333756E+03</pdfrwt>
<pdfrwt beam="2">  1       21 0.49897330E-01 0.30333756E+03</pdfrwt>
<totfact> 0.20038533E+04</totfact>
</mgrwt>
</event>
<event>
 5    0  0.1829809E+000  0.4650785E+03  0.7546771E-02  0.1023319E+00
         21   -1    0    0  502  501  0.00000000000E+00  0.00000000000E+00  0.62223527183E+03  0.62223527183E+03  0.00000000000E+00 0.  1.
         21   -1    0    0  503  502 -0.00000000000E+00 -0.00000000000E+00 -0.35573449849E+03  0.35573449849E+03  0.00000000000E+00 0.  1.
         25    1    1    2    0    0  0.73255878353E+02  0.44193504932E+03  0.22815805156E+03  0.51802906098E+03  0.12500000000E+03 0.  0.
         21    1    1    2  503  504 -0.63525162559E+02 -0.30851669264E+03 -0.16364788382E+02  0.31541370010E+03  0.00000000000E+00 0.  1.
         21    1    1    2  504  501 -0.97307157937E+01 -0.13341835668E+03  0.54707510159E+02  0.14452700923E+03  0.00000000000E+00 0.  1.
<mgrwt>
<rscale>  4 0.46507850E+03</rscale>
<asrwt>0</asrwt>
<pdfrwt beam="1">  1       21 0.95728503E-01 0.46507850E+03</pdfrwt>
<pdfrwt beam="2">  1       21 0.54728384E-01 0.46507850E+03</pdfrwt>
<totfact> 0.24719103E+03</totfact>
</mgrwt>
</event>
<event>
 5    0  0.1829809E+000  0.3327765E+03  0.7546771E-02  0.1069915E+00
         21   -1    0    0  502  501  0.00000000000E+00  0.00000000000E+00  0.21308795910E+04  0.21308795910E+04  0.00000000000E+00 0.  1.
         21   -1    0    0  503  502 -0.00000000000E+00 -0.00000000000E+00 -0.35511656181E+03  0.35511656181E+03  0.00000000000E+00 0.  1.
         25    1    1    2    0    0 -0.30444009302E+03  0.51024443150E+02  0.20222052664E+04  0.20494453893E+04  0.12500000000E+03 0.  0.
         21    1    1    2  503  504  0.29093578707E+03 -0.95761533378E+02 -0.17982487690E+03  0.35517726536E+03  0.00000000000E+00 0.  1.
         21    1    1    2  504  501  0.13504305947E+02  0.44737090229E+02 -0.66617360287E+02  0.81373498222E+02  0.00000000000E+00 0. -1.
<mgrwt>
<rscale>  4 0.33277651E+03</rscale>
<asrwt>0</asrwt>
<pdfrwt beam="1">  1       21 0.32782762E+00 0.33277651E+03</pdfrwt>
<pdfrwt beam="2">  1       21 0.54633318E-01 0.33277651E+03</pdfrwt>
<totfact> 0.62178276E+01</totfact>
</mgrwt>
</event>
<event>
 5    0  0.1829809E+000  0.4368240E+03  0.7546771E-02  0.1032453E+00
         21   -1    0    0  502  501  0.00000000000E+00  0.00000000000E+00  0.47391513230E+03  0.47391513230E+03  0.00000000000E+00 0. -1.
         21   -1    0    0  503  502 -0.00000000000E+00 -0.00000000000E+00 -0.99542038940E+03  0.99542038940E+03  0.00000000000E+00 0.  1.
         25    1    1    2    0    0  0.27605275852E+03 -0.30159400003E+03  0.31133877070E+03  0.52888646842E+03  0.12500000000E+03 0.  0.
         21    1    1    2  503  504 -0.18543277851E+03  0.91495346217E+02 -0.43081594971E+03  0.47786932968E+03  0.00000000000E+00 0.  1.
         21    1    1    2  504  501 -0.90619980005E+02  0.21009865381E+03 -0.40202807809E+03  0.46257972360E+03  0.00000000000E+00 0.  1.
<mgrwt>
<rscale>  4 0.43448389E+03</rscale>
<asrwt>0</asrwt>
<pdfrwt beam="1">  1       21 0.72910021E-01 0.43682405E+03</pdfrwt>
<pdfrwt beam="2">  1       21 0.15314160E+00 0.43682405E+03</pdfrwt>
<totfact> 0.39949354E+02</totfact>
</mgrwt>
</event>
<event>
 5    0  0.1829809E+000  0.2517256E+03  0.7546771E-02  0.1112219E+00
         21   -1    0    0  502  501  0.00000000000E+00  0.00000000000E+00  0.19316096121E+03  0.19316096121E+03  0.00000000000E+00 0.  1.
         21   -1    0    0  503  502 -0.00000000000E+00 -0.00000000000E+00 -0.42393613972E+03  0.42393613972E+03  0.00000000000E+00 0.  1.
         25    1    1    2    0    0 -0.62137274214E+02  0.21883606023E+03 -0.24725727772E+03  0.35848489994E+03  0.12500000000E+03 0.  0.
         21    1    1    2  503  504  0.93630646310E+02 -0.17918307556E+03  0.34039391205E+02  0.20501695698E+03  0.00000000000E+00 0.  1.
         21    1    1    2  504  501 -0.31493372096E+02 -0.39652984670E+02 -0.17557291995E+02  0.53595244019E+02  0.00000000000E+00 0.  1.
<mgrwt>
<rscale>  4 0.25172555E+03</rscale>
<asrwt>0</asrwt>
<pdfrwt beam="1">  1       21 0.29717071E-01 0.25172555E+03</pdfrwt>
<pdfrwt beam="2">  1       21 0.65220945E-01 0.25172555E+03</pdfrwt>
<totfact> 0.22757810E+04</totfact>
</mgrwt>
</event>
<event>
 5    0  0.1829809E+000  0.2669911E+03  0.7546771E-02  0.1103014E+00
         21   -1    0    0  502  501  0.00000000000E+00  0.00000000000E+00  0.97354920683E+02  0.97354920683E+02  0.00000000000E+00 0. -1.
         21   -1    0    0  503  502 -0.00000000000E+00 -0.00000000000E+00 -0.70393930001E+03  0.70393930001E+03  0.00000000000E+00 0. -1.
         25    1    1    2    0    0  0.29129954013E+02  0.23411683871E+03 -0.21878998901E+03  0.34518590307E+03  0.12500000000E+03 0.  0.
         21    1    1    2  503  504 -0.18066165503E+02 -0.42254158317E+02 -0.99897485552E+02  0.10996048313E+03  0.00000000000E+00 0. -1.
         21    1    1    2  504  501 -0.11063788510E+02 -0.19186268040E+03 -0.28789690477E+03  0.34614783449E+03  0.00000000000E+00 0. -1.
<mgrwt>
<rscale>  4 0.26699110E+03</rscale>
<asrwt>0</asrwt>
<pdfrwt beam="1">  1       21 0.14977680E-01 0.26699110E+03</pdfrwt>
<pdfrwt beam="2">  1       21 0.10829835E+00 0.26699110E+03</pdfrwt>
<totfact> 0.25655449E+04</totfact>
</mgrwt>
</event>
<event>
 5    0  0.1829809E+000  0.3704781E+03  0.7546771E-02  0.1054510E+00
         21   -1    0    0  502  501  0.00000000000E+00  0.00000000000E+00  0.12991562983E+03  0.12991562983E+03  0.00000000000E+00 0.  1.
         21   -1    0    0  503  502 -0.00000000000E+00 -0.00000000000E+00 -0.10189228487E+04  0.10189228487E+04  0.00000000000E+00 0.  1.
         25    1    1    2    0    0  0.34834883039E+03 -0.16795739845E+02 -0.43399219870E+03  0.57061653766E+03  0.12500000000E+03 0.  0.
         21    1    1    2  503  504 -0.23425372786E+03  0.40306017279E+02 -0.33703162678E+03  0.41241932725E+03  0.00000000000E+00 0.  1.
         21    1    1    2  504  501 -0.11409510253E+03 -0.23510277434E+02 -0.11798339337E+03  0.16580261360E+03  0.00000000000E+00 0. -1.
<mgrwt>
<rscale>  4 0.37047808E+03</rscale>
<asrwt>0</asrwt>
<pdfrwt beam="1">  1       21 0.19987019E-01 0.37047808E+03</pdfrwt>
<pdfrwt beam="2">  1       21 0.15675737E+00 0.37047808E+03</pdfrwt>
<totfact> 0.55229822E+03</totfact>
</mgrwt>
</event>
<event>
 5    0  0.1829809E+000  0.2850874E+03  0.7546771E-02  0.1092942E+00
         21   -1    0    0  502  501  0.00000000000E+00  0.00000000000E+00  0.29386678851E+03  0.29386678851E+03  0.00000000000E+00 0.  1.
         21   -1    0    0  503  502 -0.00000000000E+00 -0.00000000000E+00 -0.63677603068E+03  0.63677603068E+03  0.00000000000E+00 0.  1.
         25    1    1    2    0    0  0.22529364946E+03 -0.12203528468E+03  0.18194493699E+03  0.33819934845E+03  0.12500000000E+03 0.  0.
         21    1    1    2  503  504 -0.56812065182E+02  0.59954337382E+02 -0.90962813026E+02  0.12286727259E+03  0.00000000000E+00 0.  1.
         21    1    1    2  504  501 -0.16848158428E+03  0.62080947297E+02 -0.43389136613E+03  0.46957619814E+03  0.00000000000E+00 0.  1.
<mgrwt>
<rscale>  4 0.28508742E+03</rscale>
<asrwt>0</asrwt>
<pdfrwt beam="1">  1       21 0.45210275E-01 0.28508742E+03</pdfrwt>
<pdfrwt beam="2">  1       21 0.97965543E-01 0.28508742E+03</pdfrwt>
<totfact> 0.37949441E+03</totfact>
</mgrwt>
</event>
<event>
 5    0  0.1829809E+000  0.2715097E+03  0.7546771E-02  0.1100419E+00
         21   -1    0    0  502  501  0.00000000000E+00  0.00000000000E+00  0.71929826614E+03  0.71929826614E+03  0.00000000000E+00 0. -1.
         21   -1    0    0  503  502 -0.00000000000E+00 -0.00000000000E+00 -0.16361756922E+03  0.16361756922E+03  0.00000000000E+00 0. -1.
         25    1    1    2    0    0  0.15649223735E+03  0.18861076455E+03  0.53821648862E+03  0.60445498549E+03  0.12500000000E+03 0.  0.
         21    1    1    2  503  504 -0.38713303448E+02  0.69402698112E+01  0.30555785656E+02  0.49805052414E+02  0.00000000000E+00 0.  1.
         21    1    1    2  504  501 -0.11777893390E+03 -0.19555103436E+03 -0.13091577359E+02  0.22865579745E+03  0.00000000000E+00 0. -1.
<mgrwt>
<rscale>  4 0.27150970E+03</rscale>
<asrwt>0</asrwt>
<pdfrwt beam="1">  1       21 0.11066127E+00 0.27150970E+03</pdfrwt>
<pdfrwt beam="2">  1       21 0.25171934E-01 0.27150970E+03</pdfrwt>
<totfact> 0.91597393E+03</totfact>
</mgrwt>
</event>
<event>
 5    0  0.1829809E+000  0.3245338E+03  0.7546771E-02  0.1073587E+00
         21   -1    0    0  502  501  0.00000000000E+00  0.00000000000E+00  0.20073665060E+03  0.20073665060E+03  0.00000000000E+00 0.  1.
         21   -1    0    0  503  502 -0.00000000000E+00 -0.00000000000E+00 -0.70647596016E+03  0.70647596016E+03  0.00000000000E+00 0.  1.
         25    1    1    2    0    0  0.13123123650E+02  0.29914910522E+03 -0.22695186967E+02  0.32527292392E+03  0.12500000000E+03 0.  0.
         21    1    1    2  503  504 -0.51239971078E+02 -0.48346865683E+02 -0.93356934769E+02  0.11695499702E+03  0.00000000000E+00 0. -1.
         21    1    1    2  504  501  0.38116847428E+02 -0.25080223953E+03 -0.38968718782E+03  0.46498468982E+03  0.00000000000E+00 0.  1.
<mgrwt>
<rscale>  4 0.32452039E+03</rscale>
<asrwt>0</asrwt>
<pdfrwt beam="1">  1       21 0.30882562E-01 0.32453378E+03</pdfrwt>
<pdfrwt beam="2">  1       21 0.10868861E+00 0.32453378E+03</pdfrwt>
<totfact> 0.62560774E+03</totfact>
</mgrwt>
</event>
<event>
 5    0  0.1829809E+000  0.2839276E+03  0.7546771E-02  0.1093563E+00
         21   -1    0    0  502  501  0.00000000000E+00  0.00000000000E+00  0.58665342381E+03  0.58665342381E+03  0.00000000000E+00 0.  1.
         21   -1    0    0  503  502 -0.00000000000E+00 -0.00000000000E+00 -0.15076410614E+03  0.15076410614E+03  0.00000000000E+00 0.  1.
         25    1    1    2    0    0  0.23709873200E+03  0.93670152482E+02  0.37225292065E+03  0.46817426575E+03  0.12500000000E+03 0.  0.
         21    1    1    2  503  504 -0.21197410412E+03 -0.98158066691E+02  0.68125380842E+02  0.24332918935E+03  0.00000000000E+00 0.  1.
         21    1    1    2  504  501 -0.25124627872E+02  0.44879142086E+01 -0.44889838197E+01  0.25914074851E+02  0.00000000000E+00 0. -1.
<mgrwt>
<rscale>  4 0.28392764E+03</rscale>
<asrwt>0</asrwt>
<pdfrwt beam="1">  1       21 0.90254372E-01 0.28392764E+03</pdfrwt>
<pdfrwt beam="2">  1       21 0.23194478E-01 0.28392764E+03</pdfrwt>
<totfact> 0.17363375E+04</totfact>
</mgrwt>
</event>
<event>
 5    0  0.1829809E+000  0.2974777E+03  0.7546771E-02  0.1086508E+00
         21   -1    0    0  502  501  0.00000000000E+00  0.00000000000E+00  0.98673881473E+02  0.98673881473E+02  0.00000000000E+00 0. -1.
         21   -1    0    0  503  502 -0.00000000000E+00 -0.00000000000E+00 -0.14270095389E+04  0.14270095389E+04  0.00000000000E+00 0.  1.
         25    1    1    2    0    0 -0.16669435990E+03  0.21232284390E+03 -0.19786584440E+03  0.35727285377E+03  0.12500000000E+03 0.  0.
         21    1    1    2  503  504  0.10892258051E+03 -0.84595927264E+02 -0.75777839160E+03  0.77022638895E+03  0.00000000000E+00 0.  1.
         21    1    1    2  504  501  0.57771779389E+02 -0.12772691664E+03 -0.37269142142E+03  0.39818417764E+03  0.00000000000E+00 0.  1.
<mgrwt>
<rscale>  4 0.29747773E+03</rscale>
<asrwt>0</asrwt>
<pdfrwt beam="1">  1       21 0.15180597E-01 0.29747773E+03</pdfrwt>
<pdfrwt beam="2">  1       21 0.21953993E+00 0.29747773E+03</pdfrwt>
<totfact> 0.35687963E+03</totfact>
</mgrwt>
</event>
<event>
 5    0  0.1829809E+000  0.2603596E+03  0.7546771E-02  0.1106927E+00
         21   -1    0    0  502  501  0.00000000000E+00  0.00000000000E+00  0.95736942456E+03  0.95736942456E+03  0.00000000000E+00 0.  1.
         21   -1    0    0  503  502 -0.00000000000E+00 -0.00000000000E+00 -0.64384750829E+02  0.64384750829E+02  0.00000000000E+00 0.  1.
         25    1    1    2    0    0  0.16961625467E+03  0.15294582228E+03  0.40871119175E+03  0.48459461064E+03  0.12500000000E+03 0.  0.
         21    1    1    2  503  504 -0.15257430628E+03 -0.14193349174E+03  0.40672148707E+03  0.45699715870E+03  0.00000000000E+00 0.  1.
         21    1    1    2  504  501 -0.17041948388E+02 -0.11012330535E+02  0.77551994910E+02  0.80162406046E+02  0.00000000000E+00 0.  1.
<mgrwt>
<rscale>  4 0.26035956E+03</rscale>
<asrwt>0</asrwt>
<pdfrwt beam="1">  1       21 0.14728759E+00 0.26035956E+03</pdfrwt>
<pdfrwt beam="2">  1       21 0.99053470E-02 0.26035956E+03</pdfrwt>
<totfact> 0.24891578E+04</totfact>
</mgrwt>
</event>
<event>
 5    0  0.1829809E+000  0.2760363E+03  0.7546771E-02  0.1097874E+00
         21   -1    0    0  502  501  0.00000000000E+00  0.00000000000E+00  0.29649237594E+03  0.29649237594E+03  0.00000000000E+00 0.  1.
         21   -1    0    0  503  502 -0.00000000000E+00 -0.00000000000E+00 -0.94533424427E+03  0.94533424427E+03  0.00000000000E+00 0.  1.
         25    1    1    2    0    0  0.56707930735E+02 -0.24328437624E+03  0.20506067961E+03  0.34652266802E+03  0.12500000000E+03 0.  0.
         21    1    1    2  503  504 -0.63359151525E+02  0.19521290401E+03 -0.78252157666E+03  0.80898855239E+03  0.00000000000E+00 0.  1.
         21    1    1    2  504  501  0.66512207895E+01  0.48071472231E+02 -0.71380971289E+02  0.86315399800E+02  0.00000000000E+00 0. -1.
<mgrwt>
<rscale>  4 0.27603627E+03</rscale>
<asrwt>0</asrwt>
<pdfrwt beam="1">  1       21 0.45614212E-01 0.27603627E+03</pdfrwt>
<pdfrwt beam="2">  1       21 0.14543604E+00 0.27603627E+03</pdfrwt>
<totfact> 0.13922622E+03</totfact>
</mgrwt>
</event>
<event>
 5    0  0.1829809E+000  0.3382767E+03  0.7546771E-02  0.1067546E+00
         21   -1    0    0  502  501  0.00000000000E+00  0.00000000000E+00  0.16703236156E+04  0.16703236156E+04  0.00000000000E+00 0. -1.
         21   -1    0    0  503  502 -0.00000000000E+00 -0.00000000000E+00 -0.68570312140E+02  0.68570312140E+02  0.00000000000E+00 0. -1.
         25    1    1    2    0    0 -0.30043969715E+03  0.91944128561E+02  0.83194304048E+03  0.89803783717E+03  0.12500000000E+03 0.  0.
         21    1    1    2  503  504  0.16894073513E+03  0.13739770350E+02  0.37700995167E+03  0.41335971857E+03  0.00000000000E+00 0. -1.
         21    1    1    2  504  501  0.13149896202E+03 -0.10568389891E+03  0.39280031128E+03  0.42749637196E+03  0.00000000000E+00 0. -1.
<mgrwt>
<rscale>  4 0.33824402E+03</rscale>
<asrwt>0</asrwt>
<pdfrwt beam="1">  1       21 0.25697283E+00 0.33827670E+03</pdfrwt>
<pdfrwt beam="2">  1       21 0.10549280E-01 0.33827670E+03</pdfrwt>
<totfact> 0.39730449E+03</totfact>
</mgrwt>
</event>
<event>
 5    0  0.1829809E+000  0.2426299E+03  0.7546771E-02  0.1118053E+00
         21   -1    0    0  502  501  0.00000000000E+00  0.00000000000E+00  0.12407382194E+04  0.12407382194E+04  0.00000000000E+00 0.  1.
         21   -1    0    0  503  502 -0.00000000000E+00 -0.00000000000E+00 -0.25290449004E+03  0.25290449004E+03  0.00000000000E+00 0. -1.
         25    1    1    2    0    0 -0.18639104448E+03 -0.92209771017E+02  0.11799918956E+04  0.12046784371E+04  0.12500000000E+03 0.  0.
         21    1    1    2  503  504  0.11465531621E+02  0.23353324163E+02 -0.36906453524E+02  0.45154429202E+02  0.00000000000E+00 0. -1.
         21    1    1    2  504  501  0.17492551286E+03  0.68856446855E+02 -0.15525171265E+03  0.24380984313E+03  0.00000000000E+00 0. -1.
<mgrwt>
<rscale>  4 0.24262989E+03</rscale>
<asrwt>0</asrwt>
<pdfrwt beam="1">  1       21 0.19088280E+00 0.24262989E+03</pdfrwt>
<pdfrwt beam="2">  1       21 0.38908384E-01 0.24262989E+03</pdfrwt>
<totfact> 0.93184715E+02</totfact>
</mgrwt>
</event>
<event>
 5    0  0.1829809E+000  0.3452466E+03  0.7546771E-02  0.1064583E+00
         21   -1    0    0  502  501  0.00000000000E+00  0.00000000000E+00  0.71748818060E+02  0.71748818060E+02  0.00000000000E+00 0. -1.
         21   -1    0    0  503  502 -0.00000000000E+00 -0.00000000000E+00 -0.21280472942E+04  0.21280472942E+04  0.00000000000E+00 0. -1.
         25    1    1    2    0    0 -0.23386096692E+03  0.22822729238E+03 -0.61636240521E+03  0.70873567950E+03  0.12500000000E+03 0.  0.
         21    1    1    2  503  504  0.25877025151E+03 -0.18224895616E+03 -0.10226090386E+04  0.10704699767E+04  0.00000000000E+00 0. -1.
         21    1    1    2  504  501 -0.24909284595E+02 -0.45978336220E+02 -0.41732703226E+03  0.42059045604E+03  0.00000000000E+00 0.  1.
<mgrwt>
<rscale>  4 0.34524661E+03</rscale>
<asrwt>0</asrwt>
<pdfrwt beam="1">  1       21 0.11038281E-01 0.34524661E+03</pdfrwt>
<pdfrwt beam="2">  1       21 0.32739187E+00 0.34524661E+03</pdfrwt>
<totfact> 0.13874803E+03</totfact>
</mgrwt>
</event>
<event>
 5    0  0.1829809E+000  0.2545761E+03  0.7546771E-02  0.1110447E+00
         21   -1    0    0  502  501  0.00000000000E+00  0.00000000000E+00  0.34749143590E+03  0.34749143590E+03  0.00000000000E+00 0. -1.
         21   -1    0    0  503  502 -0.00000000000E+00 -0.00000000000E+00 -0.31249875052E+03  0.31249875052E+03  0.00000000000E+00 0.  1.
         25    1    1    2    0    0 -0.15534113438E+03 -0.16382996894E+03  0.23113766863E+03  0.34644010826E+03  0.12500000000E+03 0.  0.
         21    1    1    2  503  504 -0.24194982508E+01  0.26821436302E+02 -0.55461577314E+02  0.61654115639E+02  0.00000000000E+00 0.  1.
         21    1    1    2  504  501  0.15776063263E+03  0.13700853264E+03 -0.14068340595E+03  0.25189596252E+03  0.00000000000E+00 0.  1.
<mgrwt>
<rscale>  4 0.25457609E+03</rscale>
<asrwt>0</asrwt>
<pdfrwt beam="1">  1       21 0.53460221E-01 0.25457609E+03</pdfrwt>
<pdfrwt beam="2">  1       21 0.48076731E-01 0.25457609E+03</pdfrwt>
<totfact> 0.13204487E+04</totfact>
</mgrwt>
</event>
<event>
 5    0  0.1829809E+000  0.2396104E+03  0.7546771E-02  0.1120053E+00
         21   -1    0    0  502  501  0.00000000000E+00  0.00000000000E+00  0.14055835389E+03  0.14055835389E+03  0.00000000000E+00 0.  1.
         21   -1    0    0  503  502 -0.00000000000E+00 -0.00000000000E+00 -0.74421335100E+03  0.74421335100E+03  0.00000000000E+00 0.  1.
         25    1    1    2    0    0 -0.21976755000E+03 -0.22790433696E+02 -0.22836803514E+02  0.25487977459E+03  0.12500000000E+03 0.  0.
         21    1    1    2  503  504  0.21021096711E+02 -0.13400057873E+02 -0.15003350423E+02  0.29095507932E+02  0.00000000000E+00 0.  1.
         21    1    1    2  504  501  0.19874645329E+03  0.36190491569E+02 -0.56581484317E+03  0.60079642237E+03  0.00000000000E+00 0.  1.
<mgrwt>
<rscale>  4 0.23961042E+03</rscale>
<asrwt>0</asrwt>
<pdfrwt beam="1">  1       21 0.21624362E-01 0.23961042E+03</pdfrwt>
<pdfrwt beam="2">  1       21 0.11449436E+00 0.23961042E+03</pdfrwt>
<totfact> 0.11461323E+04</totfact>
</mgrwt>
</event>
<event>
 5    0  0.1829809E+000  0.2696183E+03  0.7546771E-02  0.1101498E+00
         21   -1    0    0  502  501  0.00000000000E+00  0.00000000000E+00  0.44403802700E+03  0.44403802700E+03  0.00000000000E+00 0. -1.
         21   -1    0    0  503  502 -0.00000000000E+00 -0.00000000000E+00 -0.43292182153E+03  0.43292182153E+03  0.00000000000E+00 0. -1.
         25    1    1    2    0    0  0.35831739624E+02  0.23576169589E+03  0.35027570786E+03  0.44179810132E+03  0.12500000000E+03 0.  0.
         21    1    1    2  503  504  0.24407200194E+02  0.15516760205E-01 -0.11398474965E+02  0.26937648257E+02  0.00000000000E+00 0. -1.
         21    1    1    2  504  501 -0.60238939819E+02 -0.23577721265E+03 -0.32776102742E+03  0.40822409896E+03  0.00000000000E+00 0. -1.
<mgrwt>
<rscale>  4 0.26961832E+03</rscale>
<asrwt>0</asrwt>
<pdfrwt beam="1">  1       21 0.68313543E-01 0.26961832E+03</pdfrwt>
<pdfrwt beam="2">  1       21 0.66603357E-01 0.26961832E+03</pdfrwt>
<totfact> 0.38277220E+03</totfact>
</mgrwt>
</event>
<event>
 5    0  0.1829809E+000  0.5560013E+03  0.7546771E-02  0.1000114E+00
         21   -1    0    0  502  501  0.00000000000E+00  0.00000000000E+00  0.32422701412E+03  0.32422701412E+03  0.00000000000E+00 0.  1.
         21   -1    0    0  503  502 -0.00000000000E+00 -0.00000000000E+00 -0.10488612194E+04  0.10488612194E+04  0.00000000000E+00 0.  1.
         25    1    1    2    0    0 -0.36236064550E+03 -0.40274953766E+03 -0.58272549044E+03  0.80542313395E+03  0.12500000000E+03 0.  0.
         21    1    1    2  503  504  0.30593310397E+03  0.36605362993E+03 -0.97217076922E+02  0.48686906262E+03  0.00000000000E+00 0.  1.
         21    1    1    2  504  501  0.56427541535E+02  0.36695907726E+02 -0.44691637905E+02  0.80796036946E+02  0.00000000000E+00 0.  1.
<mgrwt>
<rscale>  4 0.55600128E+03</rscale>
<asrwt>0</asrwt>
<pdfrwt beam="1">  1       21 0.49881078E-01 0.55600128E+03</pdfrwt>
<pdfrwt beam="2">  1       21 0.16136327E+00 0.55600128E+03</pdfrwt>
<totfact> 0.75745029E+02</totfact>
</mgrwt>
</event>
<event>
 5    0  0.1829809E+000  0.2366063E+03  0.7546771E-02  0.1122074E+00
         21   -1    0    0  502  501  0.00000000000E+00  0.00000000000E+00  0.12340117596E+03  0.12340117596E+03  0.00000000000E+00 0.  1.
         21   -1    0    0  503  502 -0.00000000000E+00 -0.00000000000E+00 -0.44508186978E+03  0.44508186978E+03  0.00000000000E+00 0.  1.
         25    1    1    2    0    0  0.57758333113E+02  0.19240980097E+03 -0.22974846434E+03  0.32979829203E+03  0.12500000000E+03 0.  0.
         21    1    1    2  503  504  0.19391971220E+02 -0.89841319368E+02 -0.37009536677E+02  0.99081870282E+02  0.00000000000E+00 0.  1.
         21    1    1    2  504  501 -0.77150304333E+02 -0.10256848160E+03 -0.54922692803E+02  0.13960288343E+03  0.00000000000E+00 0.  1.
<mgrwt>
<rscale>  4 0.23660633E+03</rscale>
<asrwt>0</asrwt>
<pdfrwt beam="1">  1       21 0.18984796E-01 0.23660633E+03</pdfrwt>
<pdfrwt beam="2">  1       21 0.68474136E-01 0.23660633E+03</pdfrwt>
<totfact> 0.48468050E+04</totfact>
</mgrwt>
</event>
<event>
 5    0  0.1829809E+000  0.3298054E+03  0.7546771E-02  0.1071223E+00
         21   -1    0    0  502  501  0.00000000000E+00  0.00000000000E+00  0.36579065870E+04  0.36579065870E+04  0.00000000000E+00 0. -1.
         21   -1    0    0  503  502 -0.00000000000E+00 -0.00000000000E+00 -0.50059491384E+02  0.50059491384E+02  0.00000000000E+00 0. -1.
         25    1    1    2    0    0 -0.15799693876E+03  0.26111986353E+03  0.30611217865E+04  0.30788371518E+04  0.12500000000E+03 0.  0.
         21    1    1    2  503  504  0.66428283349E+02 -0.87808703219E+02  0.25399113279E+03  0.27682951563E+03  0.00000000000E+00 0. -1.
         21    1    1    2  504  501  0.91568655410E+02 -0.17331116031E+03  0.29273417638E+03  0.35229941096E+03  0.00000000000E+00 0. -1.
<mgrwt>
<rscale>  4 0.32980542E+03</rscale>
<asrwt>0</asrwt>
<pdfrwt beam="1">  1       21 0.56275465E+00 0.32980542E+03</pdfrwt>
<pdfrwt beam="2">  1       21 0.77014631E-02 0.32980542E+03</pdfrwt>
<totfact> 0.70225039E+01</totfact>
</mgrwt>
</event>
<event>
 5    0  0.1829809E+000  0.2971796E+03  0.7546771E-02  0.1086659E+00
         21   -1    0    0  502  501  0.00000000000E+00  0.00000000000E+00  0.18735785726E+03  0.18735785726E+03  0.00000000000E+00 0.  1.
         21   -1    0    0  503  502 -0.00000000000E+00 -0.00000000000E+00 -0.69726916577E+03  0.69726916577E+03  0.00000000000E+00 0.  1.
         25    1    1    2    0    0  0.18344100321E+03 -0.19758574839E+03  0.82448193824E+01  0.29729397348E+03  0.12500000000E+03 0.  0.
         21    1    1    2  503  504 -0.17713658560E+03  0.16212447618E+03 -0.43945436511E+03  0.50078124441E+03  0.00000000000E+00 0.  1.
         21    1    1    2  504  501 -0.63044176038E+01  0.35461272206E+02 -0.78701762783E+02  0.86551805140E+02  0.00000000000E+00 0. -1.
<mgrwt>
<rscale>  4 0.29717963E+03</rscale>
<asrwt>0</asrwt>
<pdfrwt beam="1">  1       21 0.28824286E-01 0.29717963E+03</pdfrwt>
<pdfrwt beam="2">  1       21 0.10727218E+00 0.29717963E+03</pdfrwt>
<totfact> 0.74976373E+03</totfact>
</mgrwt>
</event>
<event>
 5    0  0.1829809E+000  0.2591253E+03  0.7546771E-02  0.1107670E+00
         21   -1    0    0  502  501  0.00000000000E+00  0.00000000000E+00  0.10072872425E+04  0.10072872425E+04  0.00000000000E+00 0. -1.
         21   -1    0    0  503  502 -0.00000000000E+00 -0.00000000000E+00 -0.72061048780E+02  0.72061048780E+02  0.00000000000E+00 0. -1.
         25    1    1    2    0    0  0.24149840932E+03 -0.39836200072E+02  0.39876344645E+03  0.48429917485E+03  0.12500000000E+03 0.  0.
         21    1    1    2  503  504 -0.26145422356E+02  0.68304067740E+01  0.17460930421E+02  0.32173306607E+02  0.00000000000E+00 0. -1.
         21    1    1    2  504  501 -0.21535298696E+03  0.33005793298E+02  0.51900181683E+03  0.56287580980E+03  0.00000000000E+00 0. -1.
<mgrwt>
<rscale>  4 0.25912530E+03</rscale>
<asrwt>0</asrwt>
<pdfrwt beam="1">  1       21 0.15496726E+00 0.25912530E+03</pdfrwt>
<pdfrwt beam="2">  1       21 0.11086316E-01 0.25912530E+03</pdfrwt>
<totfact> 0.17789158E+04</totfact>
</mgrwt>
</event>
<event>
 5    0  0.1829809E+000  0.2607966E+03  0.7546771E-02  0.1106666E+00
         21   -1    0    0  502  501  0.00000000000E+00  0.00000000000E+00  0.11547823022E+03  0.11547823022E+03  0.00000000000E+00 0. -1.
         21   -1    0    0  503  502 -0.00000000000E+00 -0.00000000000E+00 -0.58824816329E+03  0.58824816329E+03  0.00000000000E+00 0. -1.
         25    1    1    2    0    0 -0.21227311930E+03  0.85615405721E+02 -0.15280257581E+03  0.30226396088E+03  0.12500000000E+03 0.  0.
         21    1    1    2  503  504  0.36543729939E+02 -0.20715775415E+02 -0.17124617794E+02  0.45363422309E+02  0.00000000000E+00 0.  1.
         21    1    1    2  504  501  0.17572938936E+03 -0.64899630305E+02 -0.30284273947E+03  0.35609901032E+03  0.00000000000E+00 0. -1.
<mgrwt>
<rscale>  4 0.26079662E+03</rscale>
<asrwt>0</asrwt>
<pdfrwt beam="1">  1       21 0.17765882E-01 0.26079662E+03</pdfrwt>
<pdfrwt beam="2">  1       21 0.90499717E-01 0.26079662E+03</pdfrwt>
<totfact> 0.28819077E+04</totfact>
</mgrwt>
</event>
<event>
 5    0  0.1829809E+000  0.2424780E+03  0.7546771E-02  0.1118153E+00
         21   -1    0    0  502  501  0.00000000000E+00  0.00000000000E+00  0.34829877563E+03  0.34829877563E+03  0.00000000000E+00 0.  1.
         21   -1    0    0  503  502 -0.00000000000E+00 -0.00000000000E+00 -0.41778231767E+03  0.41778231767E+03  0.00000000000E+00 0.  1.
         25    1    1    2    0    0  0.16074347509E+03  0.13165152706E+03  0.26744726263E+03  0.36100363939E+03  0.12500000000E+03 0.  0.
         21    1    1    2  503  504 -0.11978087406E+03 -0.95302289121E+02 -0.16698648436E+03  0.22652697425E+03  0.00000000000E+00 0.  1.
         21    1    1    2  504  501 -0.40962601038E+02 -0.36349237940E+02 -0.16994432031E+03  0.17855047966E+03  0.00000000000E+00 0.  1.
<mgrwt>
<rscale>  4 0.24247802E+03</rscale>
<asrwt>0</asrwt>
<pdfrwt beam="1">  1       21 0.53584427E-01 0.24247802E+03</pdfrwt>
<pdfrwt beam="2">  1       21 0.64274203E-01 0.24247802E+03</pdfrwt>
<totfact> 0.71177624E+03</totfact>
</mgrwt>
</event>
<event>
 5    0  0.1829809E+000  0.3198985E+03  0.7546771E-02  0.1075696E+00
         21   -1    0    0  502  501  0.00000000000E+00  0.00000000000E+00  0.11694263708E+04  0.11694263708E+04  0.00000000000E+00 0. -1.
         21   -1    0    0  503  502 -0.00000000000E+00 -0.00000000000E+00 -0.99316183376E+03  0.99316183376E+03  0.00000000000E+00 0.  1.
         25    1    1    2    0    0 -0.27683236650E+03  0.90570137240E+02  0.10388671653E+04  0.10861441414E+04  0.12500000000E+03 0.  0.
         21    1    1    2  503  504 -0.99804178394E+02  0.91580260812E+02 -0.21654180801E+02  0.13717405637E+03  0.00000000000E+00 0. -1.
         21    1    1    2  504  501  0.37663654489E+03 -0.18215039805E+03 -0.84094844740E+03  0.93927000678E+03  0.00000000000E+00 0.  1.
<mgrwt>
<rscale>  4 0.31989851E+03</rscale>
<asrwt>0</asrwt>
<pdfrwt beam="1">  1       21 0.17991175E+00 0.31989851E+03</pdfrwt>
<pdfrwt beam="2">  1       21 0.15279413E+00 0.31989851E+03</pdfrwt>
<totfact> 0.44599571E+01</totfact>
</mgrwt>
</event>
<event>
 5    0  0.1829809E+000  0.2427321E+03  0.7546771E-02  0.1117986E+00
         21   -1    0    0  502  501  0.00000000000E+00  0.00000000000E+00  0.30422799349E+03  0.30422799349E+03  0.00000000000E+00 0. -1.
         21   -1    0    0  503  502 -0.00000000000E+00 -0.00000000000E+00 -0.19517565106E+03  0.19517565106E+03  0.00000000000E+00 0.  1.
         25    1    1    2    0    0 -0.18801243763E+03  0.89135921084E+02  0.14687299416E+03  0.28370859265E+03  0.12500000000E+03 0.  0.
         21    1    1    2  503  504  0.12995132858E+03 -0.60126883540E+02 -0.57583158042E+01  0.14330299413E+03  0.00000000000E+00 0.  1.
         21    1    1    2  504  501  0.58061109046E+02 -0.29009037544E+02 -0.32062335928E+02  0.72392057769E+02  0.00000000000E+00 0.  1.
<mgrwt>
<rscale>  4 0.24273213E+03</rscale>
<asrwt>0</asrwt>
<pdfrwt beam="1">  1       21 0.46804307E-01 0.24273213E+03</pdfrwt>
<pdfrwt beam="2">  1       21 0.30027023E-01 0.24273213E+03</pdfrwt>
<totfact> 0.45424243E+04</totfact>
</mgrwt>
</event>
<event>
 5    0  0.1829809E+000  0.2775712E+03  0.7546771E-02  0.1097023E+00
         21   -1    0    0  502  501  0.00000000000E+00  0.00000000000E+00  0.43180368730E+03  0.43180368730E+03  0.00000000000E+00 0. -1.
         21   -1    0    0  503  502 -0.00000000000E+00 -0.00000000000E+00 -0.18541348425E+03  0.18541348425E+03  0.00000000000E+00 0. -1.
         25    1    1    2    0    0  0.20659487226E+03 -0.13689172579E+03  0.23096563580E+03  0.36109681632E+03  0.12500000000E+03 0.  0.
         21    1    1    2  503  504 -0.15267990643E+03  0.68758992068E+02  0.22477190456E+02  0.16895022021E+03  0.00000000000E+00 0. -1.
         21    1    1    2  504  501 -0.53914965833E+02  0.68132733723E+02 -0.70526232056E+01  0.87170135020E+02  0.00000000000E+00 0. -1.
<mgrwt>
<rscale>  4 0.27757123E+03</rscale>
<asrwt>0</asrwt>
<pdfrwt beam="1">  1       21 0.66431336E-01 0.27757123E+03</pdfrwt>
<pdfrwt beam="2">  1       21 0.28525151E-01 0.27757123E+03</pdfrwt>
<totfact> 0.23408657E+04</totfact>
</mgrwt>
</event>
<event>
 5    0  0.1829809E+000  0.2722512E+03  0.7546771E-02  0.1099998E+00
         21   -1    0    0  502  501  0.00000000000E+00  0.00000000000E+00  0.26687124105E+03  0.26687124105E+03  0.00000000000E+00 0. -1.
         21   -1    0    0  503  502 -0.00000000000E+00 -0.00000000000E+00 -0.46588060277E+03  0.46588060277E+03  0.00000000000E+00 0. -1.
         25    1    1    2    0    0 -0.19063025385E+02 -0.24110647597E+03  0.13373274814E+03  0.30332355598E+03  0.12500000000E+03 0.  0.
         21    1    1    2  503  504  0.71376149722E+02  0.12348124614E+03 -0.18075506621E+03  0.23024892369E+03  0.00000000000E+00 0. -1.
         21    1    1    2  504  501 -0.52313124337E+02  0.11762522983E+03 -0.15198704364E+03  0.19917936415E+03  0.00000000000E+00 0. -1.
<mgrwt>
<rscale>  4 0.27225123E+03</rscale>
<asrwt>0</asrwt>
<pdfrwt beam="1">  1       21 0.41057115E-01 0.27225123E+03</pdfrwt>
<pdfrwt beam="2">  1       21 0.71673938E-01 0.27225123E+03</pdfrwt>
<totfact> 0.95790908E+03</totfact>
</mgrwt>
</event>
<event>
 5    0  0.1829809E+000  0.2421674E+03  0.7546771E-02  0.1118357E+00
         21   -1    0    0  502  501  0.00000000000E+00  0.00000000000E+00  0.17417810460E+03  0.17417810460E+03  0.00000000000E+00 0. -1.
         21   -1    0    0  503  502 -0.00000000000E+00 -0.00000000000E+00 -0.38057032952E+03  0.38057032952E+03  0.00000000000E+00 0. -1.
         25    1    1    2    0    0  0.36423656965E+02 -0.20418958926E+03  0.20772645928E+02  0.24305672994E+03  0.12500000000E+03 0.  0.
         21    1    1    2  503  504  0.91120097836E-02  0.20359626461E+02 -0.48562853179E+01  0.20930790233E+02  0.00000000000E+00 0.  1.
         21    1    1    2  504  501 -0.36432768974E+02  0.18382996280E+03 -0.22230858553E+03  0.29076091395E+03  0.00000000000E+00 0. -1.
<mgrwt>
<rscale>  4 0.24216744E+03</rscale>
<asrwt>0</asrwt>
<pdfrwt beam="1">  1       21 0.26796632E-01 0.24216744E+03</pdfrwt>
<pdfrwt beam="2">  1       21 0.58549281E-01 0.24216744E+03</pdfrwt>
<totfact> 0.35339403E+04</totfact>
</mgrwt>
</event>
<event>
 5    0  0.1829809E+000  0.2419851E+03  0.7546771E-02  0.1118477E+00
         21   -1    0    0  502  501  0.00000000000E+00  0.00000000000E+00  0.46540923802E+02  0.46540923802E+02  0.00000000000E+00 0.  1.
         21   -1    0    0  503  502 -0.00000000000E+00 -0.00000000000E+00 -0.12172151079E+04  0.12172151079E+04  0.00000000000E+00 0.  1.
         25    1    1    2    0    0 -0.44251787111E+02 -0.20241924058E+03 -0.42303273061E+03  0.48735352752E+03  0.12500000000E+03 0.  0.
         21    1    1    2  503  504 -0.41550136735E+01  0.27129432409E+02 -0.91587723657E+02  0.95611617318E+02  0.00000000000E+00 0. -1.
         21    1    1    2  504  501  0.48406800785E+02  0.17528980817E+03 -0.65605372985E+03  0.68079088688E+03  0.00000000000E+00 0.  1.
<mgrwt>
<rscale>  4 0.24198506E+03</rscale>
<asrwt>0</asrwt>
<pdfrwt beam="1">  1       21 0.71601427E-02 0.24198506E+03</pdfrwt>
<pdfrwt beam="2">  1       21 0.18726385E+00 0.24198506E+03</pdfrwt>
<totfact> 0.22892493E+04</totfact>
</mgrwt>
</event>
<event>
 5    0  0.1829809E+000  0.2428371E+03  0.7546771E-02  0.1117917E+00
         21   -1    0    0  502  501  0.00000000000E+00  0.00000000000E+00  0.36115049029E+03  0.36115049029E+03  0.00000000000E+00 0.  1.
         21   -1    0    0  503  502 -0.00000000000E+00 -0.00000000000E+00 -0.14459144436E+03  0.14459144436E+03  0.00000000000E+00 0. -1.
         25    1    1    2    0    0  0.98980227393E+01  0.20795883697E+03  0.12602583683E+03  0.27359159395E+03  0.12500000000E+03 0.  0.
         21    1    1    2  503  504  0.24209255893E+01 -0.38970619111E+02  0.38669908655E+02  0.54953906777E+02  0.00000000000E+00 0. -1.
         21    1    1    2  504  501 -0.12318948329E+02 -0.16898821786E+03  0.51863300450E+02  0.17719643393E+03  0.00000000000E+00 0. -1.
<mgrwt>
<rscale>  4 0.24283708E+03</rscale>
<asrwt>0</asrwt>
<pdfrwt beam="1">  1       21 0.55561614E-01 0.24283708E+03</pdfrwt>
<pdfrwt beam="2">  1       21 0.22244838E-01 0.24283708E+03</pdfrwt>
<totfact> 0.56451544E+04</totfact>
</mgrwt>
</event>
<event>
 5    0  0.1829809E+000  0.3107222E+03  0.7546771E-02  0.1080000E+00
         21   -1    0    0  502  501  0.00000000000E+00  0.00000000000E+00  0.72258565173E+02  0.72258565173E+02  0.00000000000E+00 0. -1.
         21   -1    0    0  503  502 -0.00000000000E+00 -0.00000000000E+00 -0.12858119176E+04  0.12858119176E+04  0.00000000000E+00 0. -1.
         25    1    1    2    0    0 -0.90346613739E+02 -0.26974204317E+03 -0.50747918492E+03  0.59504907662E+03  0.12500000000E+03 0.  0.
         21    1    1    2  503  504 -0.41245122172E+01  0.19603783643E+02 -0.30853399228E+02  0.36786576058E+02  0.00000000000E+00 0. -1.
         21    1    1    2  504  501  0.94471125957E+02  0.25013825953E+03 -0.67522076830E+03  0.72623483011E+03  0.00000000000E+00 0. -1.
<mgrwt>
<rscale>  4 0.31072219E+03</rscale>
<asrwt>0</asrwt>
<pdfrwt beam="1">  1       21 0.11116703E-01 0.31072219E+03</pdfrwt>
<pdfrwt beam="2">  1       21 0.19781720E+00 0.31072219E+03</pdfrwt>
<totfact> 0.86088901E+03</totfact>
</mgrwt>
</event>
<event>
 5    0  0.1829809E+000  0.2112447E+03  0.7546771E-02  0.1140584E+00
         21   -1    0    0  502  501  0.00000000000E+00  0.00000000000E+00  0.39579474245E+03  0.39579474245E+03  0.00000000000E+00 0.  1.
         21   -1    0    0  503  502 -0.00000000000E+00 -0.00000000000E+00 -0.19388725208E+03  0.19388725208E+03  0.00000000000E+00 0.  1.
         25    1    1    2    0    0 -0.10685790337E+03  0.17947114351E+03 -0.16891433234E+02  0.24400578555E+03  0.12500000000E+03 0.  0.
         21    1    1    2  503  504  0.76961897906E+02 -0.14368577103E+03  0.24341322368E+03  0.29294834354E+03  0.00000000000E+00 0.  1.
         21    1    1    2  504  501  0.29896005463E+02 -0.35785372479E+02 -0.24614300065E+02  0.52727865439E+02  0.00000000000E+00 0.  1.
<mgrwt>
<rscale>  4 0.21124473E+03</rscale>
<asrwt>0</asrwt>
<pdfrwt beam="1">  1       21 0.60891499E-01 0.21124473E+03</pdfrwt>
<pdfrwt beam="2">  1       21 0.29828808E-01 0.21124473E+03</pdfrwt>
<totfact> 0.26770498E+04</totfact>
</mgrwt>
</event>
<event>
 5    0  0.1829809E+000  0.2474253E+03  0.7546771E-02  0.1114943E+00
         21   -1    0    0  502  501  0.00000000000E+00  0.00000000000E+00  0.20768396688E+03  0.20768396688E+03  0.00000000000E+00 0.  1.
         21   -1    0    0  503  502 -0.00000000000E+00 -0.00000000000E+00 -0.41616530059E+03  0.41616530059E+03  0.00000000000E+00 0.  1.
         25    1    1    2    0    0 -0.15618147171E+03  0.14560770161E+03  0.83142208611E+02  0.26102084539E+03  0.12500000000E+03 0.  0.
         21    1    1    2  503  504  0.14578624133E+03 -0.12273852085E+03 -0.26218191774E+03  0.32412610301E+03  0.00000000000E+00 0.  1.
         21    1    1    2  504  501  0.10395230380E+02 -0.22869180758E+02 -0.29441624586E+02  0.38702319071E+02  0.00000000000E+00 0.  1.
<mgrwt>
<rscale>  4 0.24742525E+03</rscale>
<asrwt>0</asrwt>
<pdfrwt beam="1">  1       21 0.31951380E-01 0.24742525E+03</pdfrwt>
<pdfrwt beam="2">  1       21 0.64025430E-01 0.24742525E+03</pdfrwt>
<totfact> 0.20590623E+04</totfact>
</mgrwt>
</event>
<event>
 5    0  0.1829809E+000  0.3146210E+03  0.7546771E-02  0.1078152E+00
         21   -1    0    0  502  501  0.00000000000E+00  0.00000000000E+00  0.56293985241E+03  0.56293985241E+03  0.00000000000E+00 0. -1.
         21   -1    0    0  503  502 -0.00000000000E+00 -0.00000000000E+00 -0.48934951771E+03  0.48934951771E+03  0.00000000000E+00 0.  1.
         25    1    1    2    0    0  0.17138760040E+03 -0.23235239764E+03  0.46640793714E+03  0.56260351055E+03  0.12500000000E+03 0.  0.
         21    1    1    2  503  504 -0.16148281782E+03  0.19852381447E+03 -0.32932700299E+03  0.41706675756E+03  0.00000000000E+00 0.  1.
         21    1    1    2  504  501 -0.99047825741E+01  0.33828583178E+02 -0.63490599456E+02  0.72619102011E+02  0.00000000000E+00 0. -1.
<mgrwt>
<rscale>  4 0.31462096E+03</rscale>
<asrwt>0</asrwt>
<pdfrwt beam="1">  1       21 0.86606131E-01 0.31462096E+03</pdfrwt>
<pdfrwt beam="2">  1       21 0.75284541E-01 0.31462096E+03</pdfrwt>
<totfact> 0.16556337E+03</totfact>
</mgrwt>
</event>
<event>
 5    0  0.1829809E+000  0.2485298E+03  0.7546771E-02  0.1114237E+00
         21   -1    0    0  502  501  0.00000000000E+00  0.00000000000E+00  0.12476200788E+04  0.12476200788E+04  0.00000000000E+00 0.  1.
         21   -1    0    0  503  502 -0.00000000000E+00 -0.00000000000E+00 -0.19611312974E+03  0.19611312974E+03  0.00000000000E+00 0. -1.
         25    1    1    2    0    0 -0.20158969724E+03 -0.80686728952E+02  0.11529141837E+04  0.11798240840E+04  0.12500000000E+03 0.  0.
         21    1    1    2  503  504  0.33544985877E+02  0.35108122665E+01  0.23189024433E+02  0.40930706498E+02  0.00000000000E+00 0. -1.
         21    1    1    2  504  501  0.16804471136E+03  0.77175916685E+02 -0.12459625907E+03  0.22297841802E+03  0.00000000000E+00 0. -1.
<mgrwt>
<rscale>  4 0.24852979E+03</rscale>
<asrwt>0</asrwt>
<pdfrwt beam="1">  1       21 0.19194155E+00 0.24852979E+03</pdfrwt>
<pdfrwt beam="2">  1       21 0.30171251E-01 0.24852979E+03</pdfrwt>
<totfact> 0.15139441E+03</totfact>
</mgrwt>
</event>
<event>
 5    0  0.1829809E+000  0.2375295E+03  0.7546771E-02  0.1121450E+00
         21   -1    0    0  502  501  0.00000000000E+00  0.00000000000E+00  0.12435259309E+04  0.12435259309E+04  0.00000000000E+00 0.  1.
         21   -1    0    0  503  502 -0.00000000000E+00 -0.00000000000E+00 -0.56879511356E+03  0.56879511356E+03  0.00000000000E+00 0.  1.
         25    1    1    2    0    0  0.20034489012E+03  0.61093477485E+02  0.11805793972E+04  0.12055136669E+04  0.12500000000E+03 0.  0.
         21    1    1    2  503  504 -0.69640023604E+02 -0.96654199552E+01 -0.45031260597E+03  0.45576813877E+03  0.00000000000E+00 0.  1.
         21    1    1    2  504  501 -0.13070486651E+03 -0.51428057530E+02 -0.55535973955E+02  0.15103923873E+03  0.00000000000E+00 0.  1.
<mgrwt>
<rscale>  4 0.23752954E+03</rscale>
<asrwt>0</asrwt>
<pdfrwt beam="1">  1       21 0.19131168E+00 0.23752954E+03</pdfrwt>
<pdfrwt beam="2">  1       21 0.87506941E-01 0.23752954E+03</pdfrwt>
<totfact> 0.16214978E+02</totfact>
</mgrwt>
</event>
<event>
 5    0  0.1829809E+000  0.5249062E+03  0.7546771E-02  0.1007475E+00
         21   -1    0    0  502  501  0.00000000000E+00  0.00000000000E+00  0.24925963843E+03  0.24925963843E+03  0.00000000000E+00 0.  1.
         21   -1    0    0  503  502 -0.00000000000E+00 -0.00000000000E+00 -0.20918509649E+04  0.20918509649E+04  0.00000000000E+00 0.  1.
         25    1    1    2    0    0  0.29769158106E+03 -0.41386144168E+03 -0.11351356722E+03  0.53703994292E+03  0.12500000000E+03 0.  0.
         21    1    1    2  503  504 -0.28514705221E+03  0.39328462732E+03 -0.16873384654E+04  0.17558737815E+04  0.00000000000E+00 0.  1.
         21    1    1    2  504  501 -0.12544528853E+02  0.20576814362E+02 -0.41739293835E+02  0.48196878979E+02  0.00000000000E+00 0. -1.
<mgrwt>
<rscale>  4 0.52490625E+03</rscale>
<asrwt>0</asrwt>
<pdfrwt beam="1">  1       21 0.38347638E-01 0.52490625E+03</pdfrwt>
<pdfrwt beam="2">  1       21 0.32182321E+00 0.52490625E+03</pdfrwt>
<totfact> 0.12359017E+02</totfact>
</mgrwt>
</event>
<event>
 5    0  0.1829809E+000  0.2640802E+03  0.7546771E-02  0.1104716E+00
         21   -1    0    0  502  501  0.00000000000E+00  0.00000000000E+00  0.21475569403E+03  0.21475569403E+03  0.00000000000E+00 0. -1.
         21   -1    0    0  503  502 -0.00000000000E+00 -0.00000000000E+00 -0.79243198425E+03  0.79243198425E+03  0.00000000000E+00 0. -1.
         25    1    1    2    0    0 -0.15757081696E+03 -0.17112802647E+03  0.10544392789E+03  0.28435327628E+03  0.12500000000E+03 0.  0.
         21    1    1    2  503  504  0.15035700858E+03  0.14389955474E+03 -0.60363895548E+03  0.63850943647E+03  0.00000000000E+00 0. -1.
         21    1    1    2  504  501  0.72138083836E+01  0.27228471729E+02 -0.79481262625E+02  0.84324965535E+02  0.00000000000E+00 0. -1.
<mgrwt>
<rscale>  4 0.26408022E+03</rscale>
<asrwt>0</asrwt>
<pdfrwt beam="1">  1       21 0.33039338E-01 0.26408022E+03</pdfrwt>
<pdfrwt beam="2">  1       21 0.12191261E+00 0.26408022E+03</pdfrwt>
<totfact> 0.42526727E+03</totfact>
</mgrwt>
</event>
<event>
 5    0  0.1829809E+000  0.4326566E+03  0.7546771E-02  0.1033024E+00
         21   -1    0    0  502  501  0.00000000000E+00  0.00000000000E+00  0.30899108484E+04  0.30899108484E+04  0.00000000000E+00 0. -1.
         21   -1    0    0  503  502 -0.00000000000E+00 -0.00000000000E+00 -0.34456486455E+03  0.34456486455E+03  0.00000000000E+00 0.  1.
         25    1    1    2    0    0  0.33140948699E+03  0.23974279321E+03  0.27863470009E+04  0.28189827003E+04  0.12500000000E+03 0.  0.
         21    1    1    2  503  504  0.50368404218E+02  0.92186328758E+02  0.16508190849E+02  0.10633821382E+03  0.00000000000E+00 0.  1.
         21    1    1    2  504  501 -0.38177789121E+03 -0.33192912196E+03 -0.57509207896E+02  0.50915479888E+03  0.00000000000E+00 0.  1.
<mgrwt>
<rscale>  4 0.43265656E+03</rscale>
<asrwt>0</asrwt>
<pdfrwt beam="1">  1       21 0.47537088E+00 0.43265656E+03</pdfrwt>
<pdfrwt beam="2">  1       21 0.53009981E-01 0.43265656E+03</pdfrwt>
<totfact> 0.68352034E+00</totfact>
</mgrwt>
</event>
<event>
 5    0  0.1829809E+000  0.2245274E+03  0.7546771E-02  0.1130552E+00
         21   -1    0    0  502  501  0.00000000000E+00  0.00000000000E+00  0.12489846522E+03  0.12489846522E+03  0.00000000000E+00 0.  1.
         21   -1    0    0  503  502 -0.00000000000E+00 -0.00000000000E+00 -0.74416325284E+03  0.74416325284E+03  0.00000000000E+00 0.  1.
         25    1    1    2    0    0 -0.98989734635E+02  0.19365394414E+03 -0.11638407244E+03  0.27653403038E+03  0.12500000000E+03 0.  0.
         21    1    1    2  503  504  0.14120798918E+03 -0.91824911996E+02 -0.15982867596E+03  0.23219973370E+03  0.00000000000E+00 0.  1.
         21    1    1    2  504  501 -0.42218254546E+02 -0.10182903214E+03 -0.34305203922E+03  0.36032795397E+03  0.00000000000E+00 0.  1.
<mgrwt>
<rscale>  4 0.22452741E+03</rscale>
<asrwt>0</asrwt>
<pdfrwt beam="1">  1       21 0.19215148E-01 0.22452741E+03</pdfrwt>
<pdfrwt beam="2">  1       21 0.11448666E+00 0.22452741E+03</pdfrwt>
<totfact> 0.14441347E+04</totfact>
</mgrwt>
</event>
<event>
 5    0  0.1829809E+000  0.2640715E+03  0.7546771E-02  0.1104721E+00
         21   -1    0    0  502  501  0.00000000000E+00  0.00000000000E+00  0.88639108176E+02  0.88639108176E+02  0.00000000000E+00 0. -1.
         21   -1    0    0  503  502 -0.00000000000E+00 -0.00000000000E+00 -0.33176593017E+04  0.33176593017E+04  0.00000000000E+00 0. -1.
         25    1    1    2    0    0 -0.12101481054E+03 -0.20281863873E+03 -0.13405176539E+03  0.29895628508E+03  0.12500000000E+03 0.  0.
         21    1    1    2  503  504  0.47238938508E+02  0.19716426710E+03 -0.23292084982E+04  0.23380157171E+04  0.00000000000E+00 0. -1.
         21    1    1    2  504  501  0.73775872036E+02  0.56543716302E+01 -0.76575992991E+03  0.76932640763E+03  0.00000000000E+00 0. -1.
<mgrwt>
<rscale>  4 0.26407150E+03</rscale>
<asrwt>0</asrwt>
<pdfrwt beam="1">  1       21 0.13636785E-01 0.26407150E+03</pdfrwt>
<pdfrwt beam="2">  1       21 0.51040916E+00 0.26407150E+03</pdfrwt>
<totfact> 0.66420153E+01</totfact>
</mgrwt>
</event>
<event>
 5    0  0.1829809E+000  0.2480075E+03  0.7546771E-02  0.1114571E+00
         21   -1    0    0  502  501  0.00000000000E+00  0.00000000000E+00  0.23407433630E+03  0.23407433630E+03  0.00000000000E+00 0.  1.
         21   -1    0    0  503  502 -0.00000000000E+00 -0.00000000000E+00 -0.14812729065E+04  0.14812729065E+04  0.00000000000E+00 0. -1.
         25    1    1    2    0    0 -0.19120263072E+03  0.96562312292E+02  0.15756537599E+03  0.29382745593E+03  0.12500000000E+03 0.  0.
         21    1    1    2  503  504  0.16379016120E+03 -0.78471637877E+02 -0.12636078057E+04  0.12765930054E+04  0.00000000000E+00 0. -1.
         21    1    1    2  504  501  0.27412469513E+02 -0.18090674414E+02 -0.14115614052E+03  0.14492678148E+03  0.00000000000E+00 0. -1.
<mgrwt>
<rscale>  4 0.24800751E+03</rscale>
<asrwt>0</asrwt>
<pdfrwt beam="1">  1       21 0.36011436E-01 0.24800751E+03</pdfrwt>
<pdfrwt beam="2">  1       21 0.22788814E+00 0.24800751E+03</pdfrwt>
<totfact> 0.62999718E+02</totfact>
</mgrwt>
</event>
<event>
 5    0  0.1829809E+000  0.2368279E+03  0.7546771E-02  0.1121924E+00
         21   -1    0    0  502  501  0.00000000000E+00  0.00000000000E+00  0.72729647519E+03  0.72729647519E+03  0.00000000000E+00 0. -1.
         21   -1    0    0  503  502 -0.00000000000E+00 -0.00000000000E+00 -0.23767720665E+03  0.23767720665E+03  0.00000000000E+00 0. -1.
         25    1    1    2    0    0 -0.19226806039E+03  0.59122483203E+02  0.64913085935E+03  0.69098360880E+03  0.12500000000E+03 0.  0.
         21    1    1    2  503  504  0.95471696651E+02 -0.78253223254E+02 -0.78146349935E+02  0.14610018419E+03  0.00000000000E+00 0. -1.
         21    1    1    2  504  501  0.96796363737E+02  0.19130740051E+02 -0.81365240875E+02  0.12788988885E+03  0.00000000000E+00 0. -1.
<mgrwt>
<rscale>  4 0.23682794E+03</rscale>
<asrwt>0</asrwt>
<pdfrwt beam="1">  1       21 0.11189176E+00 0.23682794E+03</pdfrwt>
<pdfrwt beam="2">  1       21 0.36565724E-01 0.23682794E+03</pdfrwt>
<totfact> 0.43710092E+03</totfact>
</mgrwt>
</event>
<event>
 5    0  0.1829809E+000  0.3592942E+03  0.7546771E-02  0.1058864E+00
         21   -1    0    0  502  501  0.00000000000E+00  0.00000000000E+00  0.99458851533E+03  0.99458851533E+03  0.00000000000E+00 0. -1.
         21   -1    0    0  503  502 -0.00000000000E+00 -0.00000000000E+00 -0.23266065676E+03  0.23266065676E+03  0.00000000000E+00 0. -1.
         25    1    1    2    0    0 -0.11632355083E+03 -0.32780066943E+03  0.77063166981E+03  0.85468275862E+03  0.12500000000E+03 0.  0.
         21    1    1    2  503  504 -0.11000632790E+01  0.60800584817E+02  0.45428376288E+02  0.75905590213E+02  0.00000000000E+00 0.  1.
         21    1    1    2  504  501  0.11742361411E+03  0.26700008461E+03 -0.54132187528E+02  0.29666082326E+03  0.00000000000E+00 0. -1.
<mgrwt>
<rscale>  4 0.35929423E+03</rscale>
<asrwt>0</asrwt>
<pdfrwt beam="1">  1       21 0.15301361E+00 0.35929423E+03</pdfrwt>
<pdfrwt beam="2">  1       21 0.35793948E-01 0.35929423E+03</pdfrwt>
<totfact> 0.18995183E+03</totfact>
</mgrwt>
</event>
<event>
 5    0  0.1829809E+000  0.3610583E+03  0.7546771E-02  0.1059939E+00
         21   -1    0    0  502  501  0.00000000000E+00  0.00000000000E+00  0.85713707355E+02  0.85713707355E+02  0.00000000000E+00 0.  1.
         21   -1    0    0  503  502 -0.00000000000E+00 -0.00000000000E+00 -0.14964690972E+04  0.14964690972E+04  0.00000000000E+00 0.  1.
         25    1    1    2    0    0  0.20044598429E+03 -0.24943644831E+03 -0.83069835729E+03  0.89893375460E+03  0.12500000000E+03 0.  0.
         21    1    1    2  503  504 -0.15065437971E+03  0.55288060293E+02 -0.24823604057E+03  0.29559202218E+03  0.00000000000E+00 0.  1.
         21    1    1    2  504  501 -0.49791604583E+02  0.19414838802E+03 -0.33182099198E+03  0.38765702777E+03  0.00000000000E+00 0.  1.
<mgrwt>
<rscale>  4 0.35659762E+03</rscale>
<asrwt>0</asrwt>
<pdfrwt beam="1">  1       21 0.13186726E-01 0.36105831E+03</pdfrwt>
<pdfrwt beam="2">  1       21 0.23022598E+00 0.36105831E+03</pdfrwt>
<totfact> 0.38162123E+03</totfact>
</mgrwt>
</event>
<event>
 5    0  0.1829809E+000  0.3915777E+03  0.7546771E-02  0.1046736E+00
         21   -1    0    0  502  501  0.00000000000E+00  0.00000000000E+00  0.43282210742E+03  0.43282210742E+03  0.00000000000E+00 0. -1.
         21   -1    0    0  503  502 -0.00000000000E+00 -0.00000000000E+00 -0.34426673807E+03  0.34426673807E+03  0.00000000000E+00 0.  1.
         25    1    1    2    0    0  0.36866708254E+03  0.42339991582E+02  0.43559514991E+02  0.39399305068E+03  0.12500000000E+03 0.  0.
         21    1    1    2  503  504 -0.32147509353E+03 -0.72338354872E+01  0.35375846387E+02  0.32349654503E+03  0.00000000000E+00 0.  1.
         21    1    1    2  504  501 -0.47191989007E+02 -0.35106156095E+02  0.96200079648E+01  0.59599249789E+02  0.00000000000E+00 0. -1.
<mgrwt>
<rscale>  4 0.39157770E+03</rscale>
<asrwt>0</asrwt>
<pdfrwt beam="1">  1       21 0.66588017E-01 0.39157770E+03</pdfrwt>
<pdfrwt beam="2">  1       21 0.52964114E-01 0.39157770E+03</pdfrwt>
<totfact> 0.62966651E+03</totfact>
</mgrwt>
</event>
<event>
 5    0  0.1829809E+000  0.2913095E+03  0.7546771E-02  0.1089667E+00
         21   -1    0    0  502  501  0.00000000000E+00  0.00000000000E+00  0.20705580647E+03  0.20705580647E+03  0.00000000000E+00 0. -1.
         21   -1    0    0  503  502 -0.00000000000E+00 -0.00000000000E+00 -0.44531268377E+03  0.44531268377E+03  0.00000000000E+00 0. -1.
         25    1    1    2    0    0  0.16561057236E+03  0.20447341006E+03 -0.19723835050E+02  0.29197648324E+03  0.12500000000E+03 0.  0.
         21    1    1    2  503  504 -0.87305795347E+02 -0.92714710256E+02 -0.17641508802E+03  0.21757895735E+03  0.00000000000E+00 0. -1.
         21    1    1    2  504  501 -0.78304777008E+02 -0.11175869980E+03 -0.42117954228E+02  0.14281304965E+03  0.00000000000E+00 0. -1.
<mgrwt>
<rscale>  4 0.29130952E+03</rscale>
<asrwt>0</asrwt>
<pdfrwt beam="1">  1       21 0.31854740E-01 0.29130952E+03</pdfrwt>
<pdfrwt beam="2">  1       21 0.68509644E-01 0.29130952E+03</pdfrwt>
<totfact> 0.17494364E+04</totfact>
</mgrwt>
</event>
<event>
 5    0  0.1829809E+000  0.2406402E+03  0.7546771E-02  0.1119367E+00
         21   -1    0    0  502  501  0.00000000000E+00  0.00000000000E+00  0.76224451623E+03  0.76224451623E+03  0.00000000000E+00 0.  1.
         21   -1    0    0  503  502 -0.00000000000E+00 -0.00000000000E+00 -0.69317020780E+02  0.69317020780E+02  0.00000000000E+00 0.  1.
         25    1    1    2    0    0 -0.19108141063E+02  0.20473783284E+03  0.29486454323E+03  0.38059532328E+03  0.12500000000E+03 0.  0.
         21    1    1    2  503  504 -0.28830775249E+00 -0.36644524924E+02  0.11995067392E+03  0.12542355641E+03  0.00000000000E+00 0. -1.
         21    1    1    2  504  501  0.19396448816E+02 -0.16809330792E+03  0.27811227830E+03  0.32554265731E+03  0.00000000000E+00 0.  1.
<mgrwt>
<rscale>  4 0.24064019E+03</rscale>
<asrwt>0</asrwt>
<pdfrwt beam="1">  1       21 0.11726838E+00 0.24064019E+03</pdfrwt>
<pdfrwt beam="2">  1       21 0.10664158E-01 0.24064019E+03</pdfrwt>
<totfact> 0.39484401E+04</totfact>
</mgrwt>
</event>
<event>
 5    0  0.1829809E+000  0.2538575E+03  0.7546771E-02  0.1110891E+00
         21   -1    0    0  502  501  0.00000000000E+00  0.00000000000E+00  0.79071150573E+03  0.79071150573E+03  0.00000000000E+00 0.  1.
         21   -1    0    0  503  502 -0.00000000000E+00 -0.00000000000E+00 -0.86212767797E+02  0.86212767797E+02  0.00000000000E+00 0.  1.
         25    1    1    2    0    0  0.20314878577E+03  0.99218127865E+02  0.23528036154E+03  0.34942168591E+03  0.12500000000E+03 0.  0.
         21    1    1    2  503  504 -0.18105256119E+03 -0.11421925927E+03  0.40927883036E+03  0.46188226863E+03  0.00000000000E+00 0.  1.
         21    1    1    2  504  501 -0.22096224588E+02  0.15001131405E+02  0.59939546032E+02  0.65620318980E+02  0.00000000000E+00 0. -1.
<mgrwt>
<rscale>  4 0.25385754E+03</rscale>
<asrwt>0</asrwt>
<pdfrwt beam="1">  1       21 0.12164792E+00 0.25385754E+03</pdfrwt>
<pdfrwt beam="2">  1       21 0.13263503E-01 0.25385754E+03</pdfrwt>
<totfact> 0.24190419E+04</totfact>
</mgrwt>
</event>
<event>
 5    0  0.1829809E+000  0.2517166E+03  0.7546771E-02  0.1112225E+00
         21   -1    0    0  502  501  0.00000000000E+00  0.00000000000E+00  0.57391238708E+03  0.57391238708E+03  0.00000000000E+00 0. -1.
         21   -1    0    0  503  502 -0.00000000000E+00 -0.00000000000E+00 -0.14248041647E+03  0.14248041647E+03  0.00000000000E+00 0. -1.
         25    1    1    2    0    0 -0.17379626628E+03  0.14397878262E+03  0.37265316884E+03  0.45324432292E+03  0.12500000000E+03 0.  0.
         21    1    1    2  503  504  0.44308864397E+02  0.15346715691E+02  0.30410933830E+02  0.55889373257E+02  0.00000000000E+00 0.  1.
         21    1    1    2  504  501  0.12948740188E+03 -0.15932549831E+03  0.28367867945E+02  0.20725910737E+03  0.00000000000E+00 0. -1.
<mgrwt>
<rscale>  4 0.25171656E+03</rscale>
<asrwt>0</asrwt>
<pdfrwt beam="1">  1       21 0.88294212E-01 0.25171656E+03</pdfrwt>
<pdfrwt beam="2">  1       21 0.21920064E-01 0.25171656E+03</pdfrwt>
<totfact> 0.20658353E+04</totfact>
</mgrwt>
</event>
<event>
 5    0  0.1829809E+000  0.3444644E+03  0.7546771E-02  0.1064910E+00
         21   -1    0    0  502  501  0.00000000000E+00  0.00000000000E+00  0.23861464752E+03  0.23861464752E+03  0.00000000000E+00 0. -1.
         21   -1    0    0  503  502 -0.00000000000E+00 -0.00000000000E+00 -0.68262849100E+03  0.68262849100E+03  0.00000000000E+00 0. -1.
         25    1    1    2    0    0  0.54014764843E+02 -0.31640663009E+03  0.27265992967E+02  0.34554187121E+03  0.12500000000E+03 0.  0.
         21    1    1    2  503  504 -0.59598405992E+02  0.13073093526E+03 -0.18133474838E+03  0.23135435678E+03  0.00000000000E+00 0. -1.
         21    1    1    2  504  501  0.55836411489E+01  0.18567569483E+03 -0.28994508807E+03  0.34434691054E+03  0.00000000000E+00 0. -1.
<mgrwt>
<rscale>  4 0.34446444E+03</rscale>
<asrwt>0</asrwt>
<pdfrwt beam="1">  1       21 0.36709946E-01 0.34446444E+03</pdfrwt>
<pdfrwt beam="2">  1       21 0.10501977E+00 0.34446444E+03</pdfrwt>
<totfact> 0.47709426E+03</totfact>
</mgrwt>
</event>
<event>
 5    0  0.1829809E+000  0.2336064E+03  0.7546771E-02  0.1124127E+00
         21   -1    0    0  502  501  0.00000000000E+00  0.00000000000E+00  0.10582022599E+03  0.10582022599E+03  0.00000000000E+00 0. -1.
         21   -1    0    0  503  502 -0.00000000000E+00 -0.00000000000E+00 -0.19040946731E+04  0.19040946731E+04  0.00000000000E+00 0.  1.
         25    1    1    2    0    0  0.16586502628E+03 -0.12000023330E+03 -0.50129386516E+02  0.24504942017E+03  0.12500000000E+03 0.  0.
         21    1    1    2  503  504 -0.56639968199E+02  0.58996083920E+02 -0.28847992874E+03  0.29984878389E+03  0.00000000000E+00 0. -1.
         21    1    1    2  504  501 -0.10922505808E+03  0.61004149383E+02 -0.14596651319E+04  0.14650166950E+04  0.00000000000E+00 0.  1.
<mgrwt>
<rscale>  4 0.23360643E+03</rscale>
<asrwt>0</asrwt>
<pdfrwt beam="1">  1       21 0.16280035E-01 0.23360643E+03</pdfrwt>
<pdfrwt beam="2">  1       21 0.29293763E+00 0.23360643E+03</pdfrwt>
<totfact> 0.12050476E+03</totfact>
</mgrwt>
</event>
<event>
 5    0  0.1829809E+000  0.2760603E+03  0.7546771E-02  0.1097860E+00
         21   -1    0    0  502  501  0.00000000000E+00  0.00000000000E+00  0.42910348929E+03  0.42910348929E+03  0.00000000000E+00 0.  1.
         21   -1    0    0  503  502 -0.00000000000E+00 -0.00000000000E+00 -0.53545714326E+03  0.53545714326E+03  0.00000000000E+00 0.  1.
         25    1    1    2    0    0  0.12199718899E+03  0.21377786278E+03  0.34955371948E+03  0.44541788417E+03  0.12500000000E+03 0.  0.
         21    1    1    2  503  504 -0.45673480904E+01 -0.22390515029E+02 -0.56478172819E+02  0.60926019374E+02  0.00000000000E+00 0.  1.
         21    1    1    2  504  501 -0.11742984090E+03 -0.19138734775E+03 -0.39942920064E+03  0.45821672900E+03  0.00000000000E+00 0.  1.
<mgrwt>
<rscale>  4 0.27606030E+03</rscale>
<asrwt>0</asrwt>
<pdfrwt beam="1">  1       21 0.66015921E-01 0.27606030E+03</pdfrwt>
<pdfrwt beam="2">  1       21 0.82378022E-01 0.27606030E+03</pdfrwt>
<totfact> 0.25495228E+03</totfact>
</mgrwt>
</event>
<event>
 5    0  0.1829809E+000  0.4380568E+03  0.7546771E-02  0.1031345E+00
         21   -1    0    0  502  501  0.00000000000E+00  0.00000000000E+00  0.82478229682E+03  0.82478229682E+03  0.00000000000E+00 0. -1.
         21   -1    0    0  503  502 -0.00000000000E+00 -0.00000000000E+00 -0.30516698708E+03  0.30516698708E+03  0.00000000000E+00 0.  1.
         25    1    1    2    0    0  0.38496457743E+03 -0.16754412204E+03  0.54491309164E+03  0.69915952124E+03  0.12500000000E+03 0.  0.
         21    1    1    2  503  504 -0.11271960242E+03  0.13826625624E+02  0.18604138778E+02  0.11507822699E+03  0.00000000000E+00 0.  1.
         21    1    1    2  504  501 -0.27224497500E+03  0.15371749642E+03 -0.43901920676E+02  0.31571153568E+03  0.00000000000E+00 0.  1.
<mgrwt>
<rscale>  4 0.43805680E+03</rscale>
<asrwt>0</asrwt>
<pdfrwt beam="1">  1       21 0.12688958E+00 0.43805680E+03</pdfrwt>
<pdfrwt beam="2">  1       21 0.46948768E-01 0.43805680E+03</pdfrwt>
<totfact> 0.17179869E+03</totfact>
</mgrwt>
</event>
<event>
 5    0  0.1829809E+000  0.4069272E+03  0.7546771E-02  0.1041407E+00
         21   -1    0    0  502  501  0.00000000000E+00  0.00000000000E+00  0.11536182210E+04  0.11536182210E+04  0.00000000000E+00 0. -1.
         21   -1    0    0  503  502 -0.00000000000E+00 -0.00000000000E+00 -0.44060022358E+03  0.44060022358E+03  0.00000000000E+00 0.  1.
         25    1    1    2    0    0  0.40590738045E+03 -0.21357332322E+03  0.88692238226E+03  0.10062955222E+04  0.12500000000E+03 0.  0.
         21    1    1    2  503  504 -0.23913209858E+03  0.63464165180E+01 -0.21146363668E+03  0.31928248811E+03  0.00000000000E+00 0.  1.
         21    1    1    2  504  501 -0.16677528186E+03  0.20722690670E+03  0.37559251829E+02  0.26864043422E+03  0.00000000000E+00 0. -1.
<mgrwt>
<rscale>  4 0.40692723E+03</rscale>
<asrwt>0</asrwt>
<pdfrwt beam="1">  1       21 0.17747972E+00 0.40692723E+03</pdfrwt>
<pdfrwt beam="2">  1       21 0.67784650E-01 0.40692723E+03</pdfrwt>
<totfact> 0.31583065E+02</totfact>
</mgrwt>
</event>
<event>
 5    0  0.1829809E+000  0.2400897E+03  0.7546771E-02  0.1119733E+00
         21   -1    0    0  502  501  0.00000000000E+00  0.00000000000E+00  0.28404850533E+03  0.28404850533E+03  0.00000000000E+00 0. -1.
         21   -1    0    0  503  502 -0.00000000000E+00 -0.00000000000E+00 -0.14091319450E+04  0.14091319450E+04  0.00000000000E+00 0.  1.
         25    1    1    2    0    0 -0.14956917884E+03 -0.17610418821E+03  0.20315421905E+03  0.33208471974E+03  0.12500000000E+03 0.  0.
         21    1    1    2  503  504  0.13905221492E+03  0.14956820150E+03 -0.13129069893E+04  0.13286951975E+04  0.00000000000E+00 0.  1.
         21    1    1    2  504  501  0.10516963916E+02  0.26535986711E+02 -0.15330669510E+02  0.32400533149E+02  0.00000000000E+00 0. -1.
<mgrwt>
<rscale>  4 0.24008972E+03</rscale>
<asrwt>0</asrwt>
<pdfrwt beam="1">  1       21 0.43699770E-01 0.24008972E+03</pdfrwt>
<pdfrwt beam="2">  1       21 0.21678953E+00 0.24008972E+03</pdfrwt>
<totfact> 0.50209273E+02</totfact>
</mgrwt>
</event>
<event>
 5    0  0.1829809E+000  0.2261444E+03  0.7546771E-02  0.1129383E+00
         21   -1    0    0  502  501  0.00000000000E+00  0.00000000000E+00  0.11486193808E+03  0.11486193808E+03  0.00000000000E+00 0.  1.
         21   -1    0    0  503  502 -0.00000000000E+00 -0.00000000000E+00 -0.46556301855E+03  0.46556301855E+03  0.00000000000E+00 0.  1.
         25    1    1    2    0    0  0.19310023693E+03  0.63254133120E+02 -0.14604085427E+03  0.27971721072E+03  0.12500000000E+03 0.  0.
         21    1    1    2  503  504 -0.16025567411E+03 -0.84114459100E+02 -0.17527237345E+03  0.25194747113E+03  0.00000000000E+00 0.  1.
         21    1    1    2  504  501 -0.32844562818E+02  0.20860325980E+02 -0.29387852756E+02  0.48760274777E+02  0.00000000000E+00 0.  1.
<mgrwt>
<rscale>  4 0.22614444E+03</rscale>
<asrwt>0</asrwt>
<pdfrwt beam="1">  1       21 0.17671067E-01 0.22614444E+03</pdfrwt>
<pdfrwt beam="2">  1       21 0.71625080E-01 0.22614444E+03</pdfrwt>
<totfact> 0.50356959E+04</totfact>
</mgrwt>
</event>
<event>
 5    0  0.1829809E+000  0.2397040E+03  0.7546771E-02  0.1119990E+00
         21   -1    0    0  502  501  0.00000000000E+00  0.00000000000E+00  0.22158113186E+03  0.22158113186E+03  0.00000000000E+00 0.  1.
         21   -1    0    0  503  502 -0.00000000000E+00 -0.00000000000E+00 -0.47446088890E+03  0.47446088890E+03  0.00000000000E+00 0.  1.
         25    1    1    2    0    0  0.20099987705E+03  0.37842649526E+02  0.11719634649E+03  0.26682016477E+03  0.12500000000E+03 0.  0.
         21    1    1    2  503  504 -0.16733905938E+03 -0.56048210045E+02 -0.27525487844E+03  0.32696943397E+03  0.00000000000E+00 0.  1.
         21    1    1    2  504  501 -0.33660817669E+02  0.18205560518E+02 -0.94821225092E+02  0.10225242201E+03  0.00000000000E+00 0.  1.
<mgrwt>
<rscale>  4 0.23970402E+03</rscale>
<asrwt>0</asrwt>
<pdfrwt beam="1">  1       21 0.34089405E-01 0.23970402E+03</pdfrwt>
<pdfrwt beam="2">  1       21 0.72993982E-01 0.23970402E+03</pdfrwt>
<totfact> 0.13609751E+04</totfact>
</mgrwt>
</event>
<event>
 5    0  0.1829809E+000  0.3679268E+03  0.7546771E-02  0.1055489E+00
         21   -1    0    0  502  501  0.00000000000E+00  0.00000000000E+00  0.11883331601E+04  0.11883331601E+04  0.00000000000E+00 0. -1.
         21   -1    0    0  503  502 -0.00000000000E+00 -0.00000000000E+00 -0.21003837215E+03  0.21003837215E+03  0.00000000000E+00 0.  1.
         25    1    1    2    0    0 -0.19251019806E+03  0.28754997422E+03  0.98333698170E+03  0.10499151316E+04  0.12500000000E+03 0.  0.
         21    1    1    2  503  504  0.18697488484E+03 -0.26140700665E+03 -0.85388666917E+01  0.32150605427E+03  0.00000000000E+00 0.  1.
         21    1    1    2  504  501  0.55353132201E+01 -0.26142967564E+02  0.34966729034E+01  0.26950346322E+02  0.00000000000E+00 0.  1.
<mgrwt>
<rscale>  4 0.36792685E+03</rscale>
<asrwt>0</asrwt>
<pdfrwt beam="1">  1       21 0.18282048E+00 0.36792685E+03</pdfrwt>
<pdfrwt beam="2">  1       21 0.32313596E-01 0.36792685E+03</pdfrwt>
<totfact> 0.14076476E+03</totfact>
</mgrwt>
</event>
<event>
 5    0  0.1829809E+000  0.2534326E+03  0.7546771E-02  0.1111155E+00
         21   -1    0    0  502  501  0.00000000000E+00  0.00000000000E+00  0.20258417662E+03  0.20258417662E+03  0.00000000000E+00 0. -1.
         21   -1    0    0  503  502 -0.00000000000E+00 -0.00000000000E+00 -0.47821207265E+03  0.47821207265E+03  0.00000000000E+00 0. -1.
         25    1    1    2    0    0 -0.21250848467E+03 -0.58678914878E+02 -0.36051800838E+03  0.44068277193E+03  0.12500000000E+03 0.  0.
         21    1    1    2  503  504  0.15589215662E+03  0.52353830103E+02  0.80170648461E+02  0.18294977698E+03  0.00000000000E+00 0. -1.
         21    1    1    2  504  501  0.56616328055E+02  0.63250847754E+01  0.47194638924E+01  0.57163700364E+02  0.00000000000E+00 0.  1.
<mgrwt>
<rscale>  4 0.25343258E+03</rscale>
<asrwt>0</asrwt>
<pdfrwt beam="1">  1       21 0.31166797E-01 0.25343258E+03</pdfrwt>
<pdfrwt beam="2">  1       21 0.73571087E-01 0.25343258E+03</pdfrwt>
<totfact> 0.15854758E+04</totfact>
</mgrwt>
</event>
<event>
 5    0  0.1829809E+000  0.2540165E+03  0.7546771E-02  0.1110792E+00
         21   -1    0    0  502  501  0.00000000000E+00  0.00000000000E+00  0.18327917519E+03  0.18327917519E+03  0.00000000000E+00 0.  1.
         21   -1    0    0  503  502 -0.00000000000E+00 -0.00000000000E+00 -0.21717413961E+04  0.21717413961E+04  0.00000000000E+00 0. -1.
         25    1    1    2    0    0 -0.19723699986E+03 -0.10950857803E+03  0.79525396877E+02  0.26989600131E+03  0.12500000000E+03 0.  0.
         21    1    1    2  503  504  0.12961877464E+03  0.53666357738E+02 -0.17389902936E+04  0.17446398901E+04  0.00000000000E+00 0. -1.
         21    1    1    2  504  501  0.67618225218E+02  0.55842220291E+02 -0.32899732414E+03  0.34048467989E+03  0.00000000000E+00 0.  1.
<mgrwt>
<rscale>  4 0.25401648E+03</rscale>
<asrwt>0</asrwt>
<pdfrwt beam="1">  1       21 0.28196797E-01 0.25401648E+03</pdfrwt>
<pdfrwt beam="2">  1       21 0.33411405E+00 0.25401648E+03</pdfrwt>
<totfact> 0.23917893E+02</totfact>
</mgrwt>
</event>
<event>
 5    0  0.1829809E+000  0.2613018E+03  0.7546771E-02  0.1106364E+00
         21   -1    0    0  502  501  0.00000000000E+00  0.00000000000E+00  0.13316166688E+03  0.13316166688E+03  0.00000000000E+00 0.  1.
         21   -1    0    0  503  502 -0.00000000000E+00 -0.00000000000E+00 -0.70504597687E+03  0.70504597687E+03  0.00000000000E+00 0.  1.
         25    1    1    2    0    0 -0.20922997326E+03  0.77959967822E+02 -0.62835001307E+02  0.26349226873E+03  0.12500000000E+03 0.  0.
         21    1    1    2  503  504  0.20733314053E+03 -0.10250140068E+03 -0.49501206700E+03  0.54637946043E+03  0.00000000000E+00 0.  1.
         21    1    1    2  504  501  0.18968327278E+01  0.24541432855E+02 -0.14037241682E+02  0.28335914578E+02  0.00000000000E+00 0.  1.
<mgrwt>
<rscale>  4 0.26130179E+03</rscale>
<asrwt>0</asrwt>
<pdfrwt beam="1">  1       21 0.20486410E-01 0.26130179E+03</pdfrwt>
<pdfrwt beam="2">  1       21 0.10846861E+00 0.26130179E+03</pdfrwt>
<totfact> 0.14317295E+04</totfact>
</mgrwt>
</event>
<event>
 5    0  0.1829809E+000  0.2802294E+03  0.7546771E-02  0.1095564E+00
         21   -1    0    0  502  501  0.00000000000E+00  0.00000000000E+00  0.34474717129E+03  0.34474717129E+03  0.00000000000E+00 0. -1.
         21   -1    0    0  503  502 -0.00000000000E+00 -0.00000000000E+00 -0.20893674270E+03  0.20893674270E+03  0.00000000000E+00 0. -1.
         25    1    1    2    0    0  0.21902422053E+03 -0.12219625718E+03  0.85085100113E+02  0.29286175699E+03  0.12500000000E+03 0.  0.
         21    1    1    2  503  504 -0.26215732499E+02  0.35848742770E+02  0.52316800783E+01  0.44718759655E+02  0.00000000000E+00 0.  1.
         21    1    1    2  504  501 -0.19280848803E+03  0.86347514410E+02  0.45493648399E+02  0.21610339735E+03  0.00000000000E+00 0. -1.
<mgrwt>
<rscale>  4 0.28022943E+03</rscale>
<asrwt>0</asrwt>
<pdfrwt beam="1">  1       21 0.53038026E-01 0.28022943E+03</pdfrwt>
<pdfrwt beam="2">  1       21 0.32144114E-01 0.28022943E+03</pdfrwt>
<totfact> 0.30085130E+04</totfact>
</mgrwt>
</event>
<event>
 5    0  0.1829809E+000  0.3434471E+03  0.7546771E-02  0.1065337E+00
         21   -1    0    0  502  501  0.00000000000E+00  0.00000000000E+00  0.24672804937E+03  0.24672804937E+03  0.00000000000E+00 0.  1.
         21   -1    0    0  503  502 -0.00000000000E+00 -0.00000000000E+00 -0.19145974953E+04  0.19145974953E+04  0.00000000000E+00 0.  1.
         25    1    1    2    0    0  0.30643879660E+03  0.88473336218E+02  0.10031933948E+03  0.35696111435E+03  0.12500000000E+03 0.  0.
         21    1    1    2  503  504 -0.31346879788E+03 -0.11213899054E+03 -0.16856604907E+04  0.17182226661E+04  0.00000000000E+00 0.  1.
         21    1    1    2  504  501  0.70300012817E+01  0.23665654319E+02 -0.82528294779E+02  0.86141764270E+02  0.00000000000E+00 0.  1.
<mgrwt>
<rscale>  4 0.34344713E+03</rscale>
<asrwt>0</asrwt>
<pdfrwt beam="1">  1       21 0.37958160E-01 0.34344713E+03</pdfrwt>
<pdfrwt beam="2">  1       21 0.29455347E+00 0.34344713E+03</pdfrwt>
<totfact> 0.20758705E+02</totfact>
</mgrwt>
</event>
<event>
 5    0  0.1829809E+000  0.2941228E+03  0.7546771E-02  0.1088216E+00
         21   -1    0    0  502  501  0.00000000000E+00  0.00000000000E+00  0.18658690273E+03  0.18658690273E+03  0.00000000000E+00 0. -1.
         21   -1    0    0  503  502 -0.00000000000E+00 -0.00000000000E+00 -0.84144618841E+03  0.84144618841E+03  0.00000000000E+00 0. -1.
         25    1    1    2    0    0  0.23168031767E+03  0.17284001897E+03 -0.54291389336E+02  0.31956532463E+03  0.12500000000E+03 0.  0.
         21    1    1    2  503  504 -0.13188112446E+03  0.28955648690E+02 -0.13300208121E+03  0.18952734416E+03  0.00000000000E+00 0. -1.
         21    1    1    2  504  501 -0.99799193208E+02 -0.20179566766E+03 -0.46756581514E+03  0.51894042234E+03  0.00000000000E+00 0. -1.
<mgrwt>
<rscale>  4 0.29412284E+03</rscale>
<asrwt>0</asrwt>
<pdfrwt beam="1">  1       21 0.28705677E-01 0.29412284E+03</pdfrwt>
<pdfrwt beam="2">  1       21 0.12945326E+00 0.29412284E+03</pdfrwt>
<totfact> 0.47357925E+03</totfact>
</mgrwt>
</event>
<event>
 5    0  0.1829809E+000  0.2991407E+03  0.7546771E-02  0.1085671E+00
         21   -1    0    0  502  501  0.00000000000E+00  0.00000000000E+00  0.53422439441E+03  0.53422439441E+03  0.00000000000E+00 0.  1.
         21   -1    0    0  503  502 -0.00000000000E+00 -0.00000000000E+00 -0.13345180346E+04  0.13345180346E+04  0.00000000000E+00 0. -1.
         25    1    1    2    0    0  0.31874474458E+02  0.26972215217E+03  0.47325428922E+03  0.55978624827E+03  0.12500000000E+03 0.  0.
         21    1    1    2  503  504  0.22469159647E+02  0.24407293797E+01 -0.61019910935E+02  0.65071113604E+02  0.00000000000E+00 0.  1.
         21    1    1    2  504  501 -0.54343634105E+02 -0.27216288155E+03 -0.12125280185E+04  0.12438850671E+04  0.00000000000E+00 0. -1.
<mgrwt>
<rscale>  4 0.29914070E+03</rscale>
<asrwt>0</asrwt>
<pdfrwt beam="1">  1       21 0.82188370E-01 0.29914070E+03</pdfrwt>
<pdfrwt beam="2">  1       21 0.20531046E+00 0.29914070E+03</pdfrwt>
<totfact> 0.14280244E+02</totfact>
</mgrwt>
</event>
<event>
 5    0  0.1829809E+000  0.3837391E+03  0.7546771E-02  0.1049560E+00
         21   -1    0    0  502  501  0.00000000000E+00  0.00000000000E+00  0.98663705737E+03  0.98663705737E+03  0.00000000000E+00 0. -1.
         21   -1    0    0  503  502 -0.00000000000E+00 -0.00000000000E+00 -0.20605324518E+03  0.20605324518E+03  0.00000000000E+00 0.  1.
         25    1    1    2    0    0 -0.18017924355E+03 -0.31490649455E+03  0.71338197393E+03  0.81004290062E+03  0.12500000000E+03 0.  0.
         21    1    1    2  503  504  0.18320401102E+03  0.27792229721E+03  0.37232401297E+02  0.33494889856E+03  0.00000000000E+00 0.  1.
         21    1    1    2  504  501 -0.30247674698E+01  0.36984197343E+02  0.29969436971E+02  0.47698503370E+02  0.00000000000E+00 0. -1.
<mgrwt>
<rscale>  4 0.38373905E+03</rscale>
<asrwt>0</asrwt>
<pdfrwt beam="1">  1       21 0.15179031E+00 0.38373905E+03</pdfrwt>
<pdfrwt beam="2">  1       21 0.31700500E-01 0.38373905E+03</pdfrwt>
<totfact> 0.24476223E+03</totfact>
</mgrwt>
</event>
<event>
 5    0  0.1829809E+000  0.2670945E+03  0.7546771E-02  0.1102954E+00
         21   -1    0    0  502  501  0.00000000000E+00  0.00000000000E+00  0.17965167574E+04  0.17965167574E+04  0.00000000000E+00 0. -1.
         21   -1    0    0  503  502 -0.00000000000E+00 -0.00000000000E+00 -0.36991572967E+02  0.36991572967E+02  0.00000000000E+00 0. -1.
         25    1    1    2    0    0  0.22256822402E+03  0.78599387717E+02  0.77182234573E+03  0.81673080722E+03  0.12500000000E+03 0.  0.
         21    1    1    2  503  504 -0.19070414983E+03 -0.77837159968E+02  0.90502719457E+03  0.92817073814E+03  0.00000000000E+00 0. -1.
         21    1    1    2  504  501 -0.31864074192E+02 -0.76222774941E+00  0.82675644089E+02  0.88606784959E+02  0.00000000000E+00 0. -1.
<mgrwt>
<rscale>  4 0.26709451E+03</rscale>
<asrwt>0</asrwt>
<pdfrwt beam="1">  1       21 0.27638713E+00 0.26709451E+03</pdfrwt>
<pdfrwt beam="2">  1       21 0.56910126E-02 0.26709451E+03</pdfrwt>
<totfact> 0.94393850E+03</totfact>
</mgrwt>
</event>
<event>
 5    0  0.1829809E+000  0.2477015E+03  0.7546771E-02  0.1114766E+00
         21   -1    0    0  502  501  0.00000000000E+00  0.00000000000E+00  0.61024114733E+03  0.61024114733E+03  0.00000000000E+00 0. -1.
         21   -1    0    0  503  502 -0.00000000000E+00 -0.00000000000E+00 -0.17016576638E+03  0.17016576638E+03  0.00000000000E+00 0. -1.
         25    1    1    2    0    0  0.17745975818E+03 -0.11932759774E+03  0.48309002852E+03  0.54289227017E+03  0.12500000000E+03 0.  0.
         21    1    1    2  503  504 -0.52991260762E+02 -0.10163760092E+02 -0.11185127808E+02  0.55104290399E+02  0.00000000000E+00 0. -1.
         21    1    1    2  504  501 -0.12446849742E+03  0.12949135783E+03 -0.31829519762E+02  0.18241035314E+03  0.00000000000E+00 0. -1.
<mgrwt>
<rscale>  4 0.24770152E+03</rscale>
<asrwt>0</asrwt>
<pdfrwt beam="1">  1       21 0.93883253E-01 0.24770152E+03</pdfrwt>
<pdfrwt beam="2">  1       21 0.26179349E-01 0.24770152E+03</pdfrwt>
<totfact> 0.12769774E+04</totfact>
</mgrwt>
</event>
<event>
 5    0  0.1829809E+000  0.2943536E+03  0.7546771E-02  0.1088098E+00
         21   -1    0    0  502  501  0.00000000000E+00  0.00000000000E+00  0.21193955545E+03  0.21193955545E+03  0.00000000000E+00 0. -1.
         21   -1    0    0  503  502 -0.00000000000E+00 -0.00000000000E+00 -0.33675937618E+04  0.33675937618E+04  0.00000000000E+00 0.  1.
         25    1    1    2    0    0  0.11003760425E+03  0.24271543093E+03  0.10132686460E+03  0.31130561873E+03  0.12500000000E+03 0.  0.
         21    1    1    2  503  504 -0.93629160206E+02 -0.18911538268E+03 -0.23226258847E+04  0.23321925409E+04  0.00000000000E+00 0.  1.
         21    1    1    2  504  501 -0.16408444049E+02 -0.53600048258E+02 -0.93435518631E+03  0.93603515767E+03  0.00000000000E+00 0.  1.
<mgrwt>
<rscale>  4 0.29435362E+03</rscale>
<asrwt>0</asrwt>
<pdfrwt beam="1">  1       21 0.32606087E-01 0.29435362E+03</pdfrwt>
<pdfrwt beam="2">  1       21 0.51809132E+00 0.29435362E+03</pdfrwt>
<totfact> 0.10746571E+01</totfact>
</mgrwt>
</event>
<event>
 5    0  0.1829809E+000  0.2378642E+03  0.7546771E-02  0.1121224E+00
         21   -1    0    0  502  501  0.00000000000E+00  0.00000000000E+00  0.15496891333E+03  0.15496891333E+03  0.00000000000E+00 0.  1.
         21   -1    0    0  503  502 -0.00000000000E+00 -0.00000000000E+00 -0.33194032259E+03  0.33194032259E+03  0.00000000000E+00 0.  1.
         25    1    1    2    0    0  0.16190482776E+03  0.12141326810E+03 -0.12054894464E+03  0.26666721392E+03  0.12500000000E+03 0.  0.
         21    1    1    2  503  504 -0.27012704572E+02 -0.81142136591E+01 -0.31574441198E+02  0.42337595688E+02  0.00000000000E+00 0.  1.
         21    1    1    2  504  501 -0.13489212319E+03 -0.11329905444E+03 -0.24848023424E+02  0.17790442632E+03  0.00000000000E+00 0.  1.
<mgrwt>
<rscale>  4 0.23786415E+03</rscale>
<asrwt>0</asrwt>
<pdfrwt beam="1">  1       21 0.23841372E-01 0.23786415E+03</pdfrwt>
<pdfrwt beam="2">  1       21 0.51067741E-01 0.23786415E+03</pdfrwt>
<totfact> 0.59261761E+04</totfact>
</mgrwt>
</event>
<event>
 5    0  0.1829809E+000  0.3068237E+03  0.7546771E-02  0.1081878E+00
         21   -1    0    0  502  501  0.00000000000E+00  0.00000000000E+00  0.64496373123E+03  0.64496373123E+03  0.00000000000E+00 0.  1.
         21   -1    0    0  503  502 -0.00000000000E+00 -0.00000000000E+00 -0.13476992136E+03  0.13476992136E+03  0.00000000000E+00 0.  1.
         25    1    1    2    0    0  0.27312728932E+03  0.62588305422E+02  0.25054672616E+03  0.39612431652E+03  0.12500000000E+03 0.  0.
         21    1    1    2  503  504 -0.24740564944E+03 -0.48666213200E+02  0.22210250609E+03  0.33601708126E+03  0.00000000000E+00 0.  1.
         21    1    1    2  504  501 -0.25721639879E+02 -0.13922092222E+02  0.37544577615E+02  0.47592254813E+02  0.00000000000E+00 0. -1.
<mgrwt>
<rscale>  4 0.30682375E+03</rscale>
<asrwt>0</asrwt>
<pdfrwt beam="1">  1       21 0.99225188E-01 0.30682375E+03</pdfrwt>
<pdfrwt beam="2">  1       21 0.20733834E-01 0.30682375E+03</pdfrwt>
<totfact> 0.17007521E+04</totfact>
</mgrwt>
</event>
<event>
 5    0  0.1829809E+000  0.2427152E+03  0.7546771E-02  0.1117997E+00
         21   -1    0    0  502  501  0.00000000000E+00  0.00000000000E+00  0.63442640317E+03  0.63442640317E+03  0.00000000000E+00 0.  1.
         21   -1    0    0  503  502 -0.00000000000E+00 -0.00000000000E+00 -0.23280047000E+03  0.23280047000E+03  0.00000000000E+00 0.  1.
         25    1    1    2    0    0 -0.20209675856E+03  0.87566193892E+02  0.31393898593E+03  0.40335297820E+03  0.12500000000E+03 0.  0.
         21    1    1    2  503  504  0.51898675569E+02 -0.21771132353E+03 -0.40408243484E+02  0.22743025098E+03  0.00000000000E+00 0.  1.
         21    1    1    2  504  501  0.15019808299E+03  0.13014512964E+03  0.12809519073E+03  0.23644364400E+03  0.00000000000E+00 0.  1.
<mgrwt>
<rscale>  4 0.24271515E+03</rscale>
<asrwt>0</asrwt>
<pdfrwt beam="1">  1       21 0.97604062E-01 0.24271515E+03</pdfrwt>
<pdfrwt beam="2">  1       21 0.35815457E-01 0.24271515E+03</pdfrwt>
<totfact> 0.63107223E+03</totfact>
</mgrwt>
</event>
<event>
 5    0  0.1829809E+000  0.3134736E+03  0.7546771E-02  0.1078693E+00
         21   -1    0    0  502  501  0.00000000000E+00  0.00000000000E+00  0.48487853136E+03  0.48487853136E+03  0.00000000000E+00 0. -1.
         21   -1    0    0  503  502 -0.00000000000E+00 -0.00000000000E+00 -0.23537189466E+03  0.23537189466E+03  0.00000000000E+00 0. -1.
         25    1    1    2    0    0  0.10804305699E+03 -0.27519278138E+03  0.25983648510E+03  0.41297017819E+03  0.12500000000E+03 0.  0.
         21    1    1    2  503  504 -0.91954198070E+02  0.25772921464E+03  0.13055269403E+02  0.27395321258E+03  0.00000000000E+00 0. -1.
         21    1    1    2  504  501 -0.16088858917E+02  0.17463566732E+02 -0.23385117798E+02  0.33327035252E+02  0.00000000000E+00 0. -1.
<mgrwt>
<rscale>  4 0.31347356E+03</rscale>
<asrwt>0</asrwt>
<pdfrwt beam="1">  1       21 0.74596697E-01 0.31347356E+03</pdfrwt>
<pdfrwt beam="2">  1       21 0.36211061E-01 0.31347356E+03</pdfrwt>
<totfact> 0.11085839E+04</totfact>
</mgrwt>
</event>
<event>
 5    0  0.1829809E+000  0.2808868E+03  0.7546771E-02  0.1095206E+00
         21   -1    0    0  502  501  0.00000000000E+00  0.00000000000E+00  0.28290031104E+03  0.28290031104E+03  0.00000000000E+00 0. -1.
         21   -1    0    0  503  502 -0.00000000000E+00 -0.00000000000E+00 -0.26825949668E+03  0.26825949668E+03  0.00000000000E+00 0. -1.
         25    1    1    2    0    0 -0.70170866964E+02 -0.24155417295E+03  0.61110225813E+02  0.28745752510E+03  0.12500000000E+03 0.  0.
         21    1    1    2  503  504  0.28187013531E+02  0.11348988363E+03 -0.53825928165E+02  0.12873108389E+03  0.00000000000E+00 0. -1.
         21    1    1    2  504  501  0.41983853433E+02  0.12806428932E+03  0.73565167158E+01  0.13497119873E+03  0.00000000000E+00 0. -1.
<mgrwt>
<rscale>  4 0.28088675E+03</rscale>
<asrwt>0</asrwt>
<pdfrwt beam="1">  1       21 0.43523125E-01 0.28088675E+03</pdfrwt>
<pdfrwt beam="2">  1       21 0.41270692E-01 0.28088675E+03</pdfrwt>
<totfact> 0.27501988E+04</totfact>
</mgrwt>
</event>
<event>
 5    0  0.1829809E+000  0.1772978E+03  0.7546771E-02  0.1170444E+00
         21   -1    0    0  502  501  0.00000000000E+00  0.00000000000E+00  0.12893096055E+03  0.12893096055E+03  0.00000000000E+00 0. -1.
         21   -1    0    0  503  502 -0.00000000000E+00 -0.00000000000E+00 -0.74933781283E+03  0.74933781283E+03  0.00000000000E+00 0. -1.
         25    1    1    2    0    0  0.11732178897E+03  0.20035767078E+03 -0.86827705494E+02  0.27761781076E+03  0.12500000000E+03 0.  0.
         21    1    1    2  503  504 -0.59766091824E+02 -0.10060582106E+03 -0.43040411021E+03  0.44602826710E+03  0.00000000000E+00 0. -1.
         21    1    1    2  504  501 -0.57555697150E+02 -0.99751849723E+02 -0.10317503657E+03  0.15462269552E+03  0.00000000000E+00 0. -1.
<mgrwt>
<rscale>  4 0.17729781E+03</rscale>
<asrwt>0</asrwt>
<pdfrwt beam="1">  1       21 0.19835532E-01 0.17729781E+03</pdfrwt>
<pdfrwt beam="2">  1       21 0.11528274E+00 0.17729781E+03</pdfrwt>
<totfact> 0.13805588E+04</totfact>
</mgrwt>
</event>
<event>
 5    0  0.1829809E+000  0.3017090E+03  0.7546771E-02  0.1084389E+00
         21   -1    0    0  502  501  0.00000000000E+00  0.00000000000E+00  0.11625728279E+04  0.11625728279E+04  0.00000000000E+00 0. -1.
         21   -1    0    0  503  502 -0.00000000000E+00 -0.00000000000E+00 -0.91953818829E+02  0.91953818829E+02  0.00000000000E+00 0. -1.
         25    1    1    2    0    0 -0.71752320425E+01 -0.27450286417E+03  0.82693269923E+03  0.88025337003E+03  0.12500000000E+03 0.  0.
         21    1    1    2  503  504  0.95122255613E+01  0.20589198788E+03  0.22045449315E+03  0.30179823833E+03  0.00000000000E+00 0. -1.
         21    1    1    2  504  501 -0.23369935188E+01  0.68610876285E+02  0.23231816730E+02  0.72475038405E+02  0.00000000000E+00 0.  1.
<mgrwt>
<rscale>  4 0.30170898E+03</rscale>
<asrwt>0</asrwt>
<pdfrwt beam="1">  1       21 0.17885735E+00 0.30170898E+03</pdfrwt>
<pdfrwt beam="2">  1       21 0.14146742E-01 0.30170898E+03</pdfrwt>
<totfact> 0.75078514E+03</totfact>
</mgrwt>
</event>
<event>
 5    0  0.1829809E+000  0.2469089E+03  0.7546771E-02  0.1115274E+00
         21   -1    0    0  502  501  0.00000000000E+00  0.00000000000E+00  0.19500556297E+02  0.19500556297E+02  0.00000000000E+00 0.  1.
         21   -1    0    0  503  502 -0.00000000000E+00 -0.00000000000E+00 -0.35517151314E+04  0.35517151314E+04  0.00000000000E+00 0.  1.
         25    1    1    2    0    0  0.10348510677E+03 -0.18609092718E+03 -0.10236276175E+04  0.10529850425E+04  0.12500000000E+03 0.  0.
         21    1    1    2  503  504 -0.16680254430E+01  0.21402724558E+02 -0.12847558233E+03  0.13025680090E+03  0.00000000000E+00 0. -1.
         21    1    1    2  504  501 -0.10181708133E+03  0.16468820262E+03 -0.23801113753E+04  0.23879738443E+04  0.00000000000E+00 0.  1.
<mgrwt>
<rscale>  4 0.24690889E+03</rscale>
<asrwt>0</asrwt>
<pdfrwt beam="1">  1       21 0.30000859E-02 0.24690889E+03</pdfrwt>
<pdfrwt beam="2">  1       21 0.54641766E+00 0.24690889E+03</pdfrwt>
<totfact> 0.51118759E+02</totfact>
</mgrwt>
</event>
<event>
 5    0  0.1829809E+000  0.2300270E+03  0.7546771E-02  0.1126621E+00
         21   -1    0    0  502  501  0.00000000000E+00  0.00000000000E+00  0.32372947780E+03  0.32372947780E+03  0.00000000000E+00 0.  1.
         21   -1    0    0  503  502 -0.00000000000E+00 -0.00000000000E+00 -0.56251029071E+03  0.56251029071E+03  0.00000000000E+00 0. -1.
         25    1    1    2    0    0  0.19193210078E+03 -0.58297227010E+02  0.23314612092E+03  0.33199188497E+03  0.12500000000E+03 0.  0.
         21    1    1    2  503  504 -0.10778418276E+03  0.70193835879E+02 -0.44779654594E+03  0.46590380038E+03  0.00000000000E+00 0. -1.
         21    1    1    2  504  501 -0.84147918021E+02 -0.11896608870E+02 -0.24130387890E+02  0.88344083161E+02  0.00000000000E+00 0.  1.
<mgrwt>
<rscale>  4 0.23002705E+03</rscale>
<asrwt>0</asrwt>
<pdfrwt beam="1">  1       21 0.49804535E-01 0.23002705E+03</pdfrwt>
<pdfrwt beam="2">  1       21 0.86540044E-01 0.23002705E+03</pdfrwt>
<totfact> 0.42941443E+03</totfact>
</mgrwt>
</event>
<event>
 5    0  0.1829809E+000  0.3605936E+03  0.7546771E-02  0.1058349E+00
         21   -1    0    0  502  501  0.00000000000E+00  0.00000000000E+00  0.14359372268E+04  0.14359372268E+04  0.00000000000E+00 0.  1.
         21   -1    0    0  503  502 -0.00000000000E+00 -0.00000000000E+00 -0.98717249990E+02  0.98717249990E+02  0.00000000000E+00 0.  1.
         25    1    1    2    0    0  0.28087029068E+03  0.18845327754E+03  0.41209194223E+03  0.54758335151E+03  0.12500000000E+03 0.  0.
         21    1    1    2  503  504 -0.21872686067E+02 -0.17307731073E+02  0.14091955703E+03  0.14365337972E+03  0.00000000000E+00 0. -1.
         21    1    1    2  504  501 -0.25899760461E+03 -0.17114554647E+03  0.78420847757E+03  0.84341774559E+03  0.00000000000E+00 0.  1.
<mgrwt>
<rscale>  4 0.36059362E+03</rscale>
<asrwt>0</asrwt>
<pdfrwt beam="1">  1       21 0.22091340E+00 0.36059362E+03</pdfrwt>
<pdfrwt beam="2">  1       21 0.15187270E-01 0.36059362E+03</pdfrwt>
<totfact> 0.33679621E+03</totfact>
</mgrwt>
</event>
<event>
 5    0  0.1829809E+000  0.2963200E+03  0.7546771E-02  0.1087095E+00
         21   -1    0    0  502  501  0.00000000000E+00  0.00000000000E+00  0.24991573672E+03  0.24991573672E+03  0.00000000000E+00 0. -1.
         21   -1    0    0  503  502 -0.00000000000E+00 -0.00000000000E+00 -0.63791338079E+03  0.63791338079E+03  0.00000000000E+00 0. -1.
         25    1    1    2    0    0 -0.23743871406E+03  0.12571145713E+03  0.11204042189E+03  0.31679420690E+03  0.12500000000E+03 0.  0.
         21    1    1    2  503  504  0.22061295715E+03 -0.93936410837E+02 -0.43224908167E+03  0.49430091518E+03  0.00000000000E+00 0. -1.
         21    1    1    2  504  501  0.16825756917E+02 -0.31775046295E+02 -0.67788984292E+02  0.76733995427E+02  0.00000000000E+00 0. -1.
<mgrwt>
<rscale>  4 0.29631995E+03</rscale>
<asrwt>0</asrwt>
<pdfrwt beam="1">  1       21 0.38448575E-01 0.29631995E+03</pdfrwt>
<pdfrwt beam="2">  1       21 0.98140520E-01 0.29631995E+03</pdfrwt>
<totfact> 0.52375140E+03</totfact>
</mgrwt>
</event>
<event>
 5    0  0.1829809E+000  0.2763760E+03  0.7546771E-02  0.1097685E+00
         21   -1    0    0  502  501  0.00000000000E+00  0.00000000000E+00  0.49313085992E+03  0.49313085992E+03  0.00000000000E+00 0. -1.
         21   -1    0    0  503  502 -0.00000000000E+00 -0.00000000000E+00 -0.16872927929E+03  0.16872927929E+03  0.00000000000E+00 0. -1.
         25    1    1    2    0    0  0.21336146455E+03  0.12343253775E+03  0.45253550395E+02  0.28005640459E+03  0.12500000000E+03 0.  0.
         21    1    1    2  503  504 -0.20207747667E+03 -0.91385124345E+02  0.26346161837E+03  0.34438143371E+03  0.00000000000E+00 0. -1.
         21    1    1    2  504  501 -0.11283987878E+02 -0.32047413410E+02  0.15686411859E+02  0.37422300914E+02  0.00000000000E+00 0.  1.
<mgrwt>
<rscale>  4 0.27637602E+03</rscale>
<asrwt>0</asrwt>
<pdfrwt beam="1">  1       21 0.75866286E-01 0.27637602E+03</pdfrwt>
<pdfrwt beam="2">  1       21 0.25958351E-01 0.27637602E+03</pdfrwt>
<totfact> 0.20916387E+04</totfact>
</mgrwt>
</event>
<event>
 5    0  0.1829809E+000  0.7840636E+03  0.7546771E-02  0.9608832E-01
         21   -1    0    0  502  501  0.00000000000E+00  0.00000000000E+00  0.83307415738E+03  0.83307415738E+03  0.00000000000E+00 0.  1.
         21   -1    0    0  503  502 -0.00000000000E+00 -0.00000000000E+00 -0.73323381240E+03  0.73323381240E+03  0.00000000000E+00 0.  1.
         25    1    1    2    0    0 -0.52359312815E+03  0.47595215201E+03  0.26352012335E+03  0.76534179962E+03  0.12500000000E+03 0.  0.
         21    1    1    2  503  504  0.36352821950E+02 -0.23934307906E+03 -0.39954882801E+02  0.24536305716E+03  0.00000000000E+00 0.  1.
         21    1    1    2  504  501  0.48724030620E+03 -0.23660907294E+03 -0.12372489557E+03  0.55560311299E+03  0.00000000000E+00 0.  1.
<mgrwt>
<rscale>  4 0.76714381E+03</rscale>
<asrwt>0</asrwt>
<pdfrwt beam="1">  1       21 0.12816526E+00 0.78406360E+03</pdfrwt>
<pdfrwt beam="2">  1       21 0.11280520E+00 0.78406360E+03</pdfrwt>
<totfact> 0.19967668E+02</totfact>
</mgrwt>
</event>
<event>
 5    0  0.1829809E+000  0.5816590E+03  0.7546771E-02  0.9944206E-01
         21   -1    0    0  502  501  0.00000000000E+00  0.00000000000E+00  0.62578127051E+03  0.62578127051E+03  0.00000000000E+00 0.  1.
         21   -1    0    0  503  502 -0.00000000000E+00 -0.00000000000E+00 -0.57556353297E+03  0.57556353297E+03  0.00000000000E+00 0.  1.
         25    1    1    2    0    0 -0.30341899549E+03 -0.49827169367E+03 -0.11688800464E+02  0.59674064349E+03  0.12500000000E+03 0.  0.
         21    1    1    2  503  504  0.11206443808E+02  0.28732665346E+02  0.40819864559E+02  0.51160646823E+02  0.00000000000E+00 0.  1.
         21    1    1    2  504  501  0.29221255168E+03  0.46953902832E+03  0.21086673441E+02  0.55344351317E+03  0.00000000000E+00 0.  1.
<mgrwt>
<rscale>  4 0.58165902E+03</rscale>
<asrwt>0</asrwt>
<pdfrwt beam="1">  1       21 0.96274042E-01 0.58165902E+03</pdfrwt>
<pdfrwt beam="2">  1       21 0.88548236E-01 0.58165902E+03</pdfrwt>
<totfact> 0.79004662E+02</totfact>
</mgrwt>
</event>
<event>
 5    0  0.1829809E+000  0.4322921E+03  0.7546771E-02  0.1033138E+00
         21   -1    0    0  502  501  0.00000000000E+00  0.00000000000E+00  0.19607922529E+03  0.19607922529E+03  0.00000000000E+00 0.  1.
         21   -1    0    0  503  502 -0.00000000000E+00 -0.00000000000E+00 -0.10205353056E+04  0.10205353056E+04  0.00000000000E+00 0.  1.
         25    1    1    2    0    0  0.22933180345E+03 -0.34446820085E+03 -0.23440202874E+03  0.49175271077E+03  0.12500000000E+03 0.  0.
         21    1    1    2  503  504 -0.15344250741E+03  0.27894138043E+03 -0.41393261426E+03  0.52220025463E+03  0.00000000000E+00 0.  1.
         21    1    1    2  504  501 -0.75889296038E+02  0.65526820427E+02 -0.17612143732E+03  0.20266156551E+03  0.00000000000E+00 0.  1.
<mgrwt>
<rscale>  4 0.43229205E+03</rscale>
<asrwt>0</asrwt>
<pdfrwt beam="1">  1       21 0.30166035E-01 0.43229205E+03</pdfrwt>
<pdfrwt beam="2">  1       21 0.15700543E+00 0.43229205E+03</pdfrwt>
<totfact> 0.24118014E+03</totfact>
</mgrwt>
</event>
<event>
 5    0  0.1829809E+000  0.2528627E+03  0.7546771E-02  0.1111509E+00
         21   -1    0    0  502  501  0.00000000000E+00  0.00000000000E+00  0.14665929651E+04  0.14665929651E+04  0.00000000000E+00 0. -1.
         21   -1    0    0  503  502 -0.00000000000E+00 -0.00000000000E+00 -0.15824447726E+03  0.15824447726E+03  0.00000000000E+00 0. -1.
         25    1    1    2    0    0 -0.25184024327E+03  0.80441644506E+02  0.12496312047E+04  0.12833929695E+04  0.12500000000E+03 0.  0.
         21    1    1    2  503  504  0.58446073313E+02  0.17792712207E+02  0.10328393159E+03  0.12000039424E+03  0.00000000000E+00 0. -1.
         21    1    1    2  504  501  0.19339416995E+03 -0.98234356713E+02 -0.44566648459E+02  0.22144407864E+03  0.00000000000E+00 0. -1.
<mgrwt>
<rscale>  4 0.25286272E+03</rscale>
<asrwt>0</asrwt>
<pdfrwt beam="1">  1       21 0.22562968E+00 0.25286272E+03</pdfrwt>
<pdfrwt beam="2">  1       21 0.24345305E-01 0.25286272E+03</pdfrwt>
<totfact> 0.13941578E+03</totfact>
</mgrwt>
</event>
<event>
 5    0  0.1829809E+000  0.3366732E+03  0.7546771E-02  0.1068222E+00
         21   -1    0    0  502  501  0.00000000000E+00  0.00000000000E+00  0.28934268914E+04  0.28934268914E+04  0.00000000000E+00 0.  1.
         21   -1    0    0  503  502 -0.00000000000E+00 -0.00000000000E+00 -0.37985755952E+02  0.37985755952E+02  0.00000000000E+00 0.  1.
         25    1    1    2    0    0 -0.23521384171E+03 -0.20590846565E+03  0.16761243960E+04  0.17096028306E+04  0.12500000000E+03 0.  0.
         21    1    1    2  503  504  0.29011861878E+02  0.42560906354E+02  0.28454260223E+03  0.28916709937E+03  0.00000000000E+00 0.  1.
         21    1    1    2  504  501  0.20620197984E+03  0.16334755930E+03  0.89477413718E+03  0.93264271733E+03  0.00000000000E+00 0.  1.
<mgrwt>
<rscale>  4 0.33667321E+03</rscale>
<asrwt>0</asrwt>
<pdfrwt beam="1">  1       21 0.44514243E+00 0.33667321E+03</pdfrwt>
<pdfrwt beam="2">  1       21 0.58439647E-02 0.33667321E+03</pdfrwt>
<totfact> 0.77960221E+02</totfact>
</mgrwt>
</event>
<event>
 5    0  0.1829809E+000  0.2472433E+03  0.7546771E-02  0.1115059E+00
         21   -1    0    0  502  501  0.00000000000E+00  0.00000000000E+00  0.19577385443E+03  0.19577385443E+03  0.00000000000E+00 0.  1.
         21   -1    0    0  503  502 -0.00000000000E+00 -0.00000000000E+00 -0.13249929147E+04  0.13249929147E+04  0.00000000000E+00 0. -1.
         25    1    1    2    0    0  0.13016058648E+03 -0.17140758168E+03  0.96492090704E+02  0.26694205532E+03  0.12500000000E+03 0.  0.
         21    1    1    2  503  504 -0.50836068483E+02 -0.40875695661E+01 -0.10551976295E+03  0.11719826985E+03  0.00000000000E+00 0. -1.
         21    1    1    2  504  501 -0.79324517998E+02  0.17549515125E+03 -0.11201913880E+04  0.11366264439E+04  0.00000000000E+00 0. -1.
<mgrwt>
<rscale>  4 0.24724331E+03</rscale>
<asrwt>0</asrwt>
<pdfrwt beam="1">  1       21 0.30119055E-01 0.24724331E+03</pdfrwt>
<pdfrwt beam="2">  1       21 0.20384506E+00 0.24724331E+03</pdfrwt>
<totfact> 0.12713425E+03</totfact>
</mgrwt>
</event>
<event>
 5    0  0.1829809E+000  0.2610190E+03  0.7546771E-02  0.1106533E+00
         21   -1    0    0  502  501  0.00000000000E+00  0.00000000000E+00  0.54773443881E+03  0.54773443881E+03  0.00000000000E+00 0. -1.
         21   -1    0    0  503  502 -0.00000000000E+00 -0.00000000000E+00 -0.12560953397E+03  0.12560953397E+03  0.00000000000E+00 0. -1.
         25    1    1    2    0    0  0.15069400084E+03  0.17261881052E+03  0.33267954506E+03  0.42285531253E+03  0.12500000000E+03 0.  0.
         21    1    1    2  503  504 -0.31297372791E+02 -0.69035863220E+02  0.32587895348E+02  0.82507253484E+02  0.00000000000E+00 0.  1.
         21    1    1    2  504  501 -0.11939662805E+03 -0.10358294730E+03  0.56857464434E+02  0.16798140677E+03  0.00000000000E+00 0. -1.
<mgrwt>
<rscale>  4 0.26101903E+03</rscale>
<asrwt>0</asrwt>
<pdfrwt beam="1">  1       21 0.84266836E-01 0.26101903E+03</pdfrwt>
<pdfrwt beam="2">  1       21 0.19324544E-01 0.26101903E+03</pdfrwt>
<totfact> 0.29062716E+04</totfact>
</mgrwt>
</event>
<event>
 5    0  0.1829809E+000  0.2563137E+03  0.7546771E-02  0.1109378E+00
         21   -1    0    0  502  501  0.00000000000E+00  0.00000000000E+00  0.12073859576E+03  0.12073859576E+03  0.00000000000E+00 0.  1.
         21   -1    0    0  503  502 -0.00000000000E+00 -0.00000000000E+00 -0.91074038602E+03  0.91074038602E+03  0.00000000000E+00 0.  1.
         25    1    1    2    0    0 -0.67148831148E+02  0.21345427787E+03 -0.54756713374E+02  0.26209729477E+03  0.12500000000E+03 0.  0.
         21    1    1    2  503  504  0.46260155316E+02 -0.17657031647E+03 -0.63035642516E+03  0.65625170581E+03  0.00000000000E+00 0.  1.
         21    1    1    2  504  501  0.20888675832E+02 -0.36883961398E+02 -0.10488865172E+03  0.11312998120E+03  0.00000000000E+00 0.  1.
<mgrwt>
<rscale>  4 0.25631366E+03</rscale>
<asrwt>0</asrwt>
<pdfrwt beam="1">  1       21 0.18575168E-01 0.25631366E+03</pdfrwt>
<pdfrwt beam="2">  1       21 0.14011391E+00 0.25631366E+03</pdfrwt>
<totfact> 0.90614389E+03</totfact>
</mgrwt>
</event>
<event>
 5    0  0.1829809E+000  0.3949770E+03  0.7546771E-02  0.1045533E+00
         21   -1    0    0  502  501  0.00000000000E+00  0.00000000000E+00  0.97704365167E+03  0.97704365167E+03  0.00000000000E+00 0.  1.
         21   -1    0    0  503  502 -0.00000000000E+00 -0.00000000000E+00 -0.95530542858E+03  0.95530542858E+03  0.00000000000E+00 0.  1.
         25    1    1    2    0    0  0.23283864558E+03 -0.28902231932E+03  0.84404040374E+03  0.93047135318E+03  0.12500000000E+03 0.  0.
         21    1    1    2  503  504 -0.47139939908E+02 -0.10325290098E+03 -0.31182070962E+03  0.33183654175E+03  0.00000000000E+00 0.  1.
         21    1    1    2  504  501 -0.18569870567E+03  0.39227522031E+03 -0.51048147103E+03  0.67004118531E+03  0.00000000000E+00 0.  1.
<mgrwt>
<rscale>  4 0.39497697E+03</rscale>
<asrwt>0</asrwt>
<pdfrwt beam="1">  1       21 0.15031441E+00 0.39497697E+03</pdfrwt>
<pdfrwt beam="2">  1       21 0.14697007E+00 0.39497697E+03</pdfrwt>
<totfact> 0.77119338E+01</totfact>
</mgrwt>
</event>
<event>
 5    0  0.1829809E+000  0.3860372E+03  0.7546771E-02  0.1048725E+00
         21   -1    0    0  502  501  0.00000000000E+00  0.00000000000E+00  0.21831780601E+03  0.21831780601E+03  0.00000000000E+00 0.  1.
         21   -1    0    0  503  502 -0.00000000000E+00 -0.00000000000E+00 -0.80768886195E+03  0.80768886195E+03  0.00000000000E+00 0. -1.
         25    1    1    2    0    0  0.12641184736E+03  0.34705176099E+03 -0.10798547616E+03  0.40461184241E+03  0.12500000000E+03 0.  0.
         21    1    1    2  503  504  0.25199245602E+02 -0.22468117502E+02 -0.54444651281E+02  0.64062768721E+02  0.00000000000E+00 0. -1.
         21    1    1    2  504  501 -0.15161109297E+03 -0.32458364349E+03 -0.42694092850E+03  0.55733205682E+03  0.00000000000E+00 0. -1.
<mgrwt>
<rscale>  4 0.38603723E+03</rscale>
<asrwt>0</asrwt>
<pdfrwt beam="1">  1       21 0.33587355E-01 0.38603723E+03</pdfrwt>
<pdfrwt beam="2">  1       21 0.12425983E+00 0.38603723E+03</pdfrwt>
<totfact> 0.36860714E+03</totfact>
</mgrwt>
</event>
<event>
 5    0  0.1829809E+000  0.2506858E+03  0.7546771E-02  0.1112872E+00
         21   -1    0    0  502  501  0.00000000000E+00  0.00000000000E+00  0.15648321827E+03  0.15648321827E+03  0.00000000000E+00 0.  1.
         21   -1    0    0  503  502 -0.00000000000E+00 -0.00000000000E+00 -0.37187645285E+03  0.37187645285E+03  0.00000000000E+00 0.  1.
         25    1    1    2    0    0 -0.91627058723E+02  0.19703513391E+03 -0.74779385440E+02  0.26160144948E+03  0.12500000000E+03 0.  0.
         21    1    1    2  503  504  0.19149812075E+00 -0.26107461698E+02  0.18759028641E+01  0.26175470185E+02  0.00000000000E+00 0. -1.
         21    1    1    2  504  501  0.91435560602E+02 -0.17092767221E+03 -0.14248975200E+03  0.24058275145E+03  0.00000000000E+00 0.  1.
<mgrwt>
<rscale>  4 0.25068578E+03</rscale>
<asrwt>0</asrwt>
<pdfrwt beam="1">  1       21 0.24074341E-01 0.25068578E+03</pdfrwt>
<pdfrwt beam="2">  1       21 0.57211762E-01 0.25068578E+03</pdfrwt>
<totfact> 0.45472564E+04</totfact>
</mgrwt>
</event>
<event>
 5    0  0.1829809E+000  0.2571299E+03  0.7546771E-02  0.1108880E+00
         21   -1    0    0  502  501  0.00000000000E+00  0.00000000000E+00  0.30741179610E+03  0.30741179610E+03  0.00000000000E+00 0. -1.
         21   -1    0    0  503  502 -0.00000000000E+00 -0.00000000000E+00 -0.27448716956E+03  0.27448716956E+03  0.00000000000E+00 0. -1.
         25    1    1    2    0    0  0.21828694240E+03  0.53306462152E+02  0.17341427348E+03  0.31014235180E+03  0.12500000000E+03 0.  0.
         21    1    1    2  503  504 -0.22494466090E+02  0.29389442124E+01 -0.36658854393E+02  0.43110439607E+02  0.00000000000E+00 0. -1.
         21    1    1    2  504  501 -0.19579247631E+03 -0.56245406364E+02 -0.10383079255E+03  0.22864617425E+03  0.00000000000E+00 0. -1.
<mgrwt>
<rscale>  4 0.25712987E+03</rscale>
<asrwt>0</asrwt>
<pdfrwt beam="1">  1       21 0.47294122E-01 0.25712987E+03</pdfrwt>
<pdfrwt beam="2">  1       21 0.42228795E-01 0.25712987E+03</pdfrwt>
<totfact> 0.22312815E+04</totfact>
</mgrwt>
</event>
<event>
 5    0  0.1829809E+000  0.3493961E+03  0.7546771E-02  0.1062863E+00
         21   -1    0    0  502  501  0.00000000000E+00  0.00000000000E+00  0.74226263721E+03  0.74226263721E+03  0.00000000000E+00 0. -1.
         21   -1    0    0  503  502 -0.00000000000E+00 -0.00000000000E+00 -0.19747187888E+03  0.19747187888E+03  0.00000000000E+00 0. -1.
         25    1    1    2    0    0  0.32702844089E+03 -0.57988731110E+02  0.16674001224E+03  0.39209377166E+03  0.12500000000E+03 0.  0.
         21    1    1    2  503  504 -0.32431857960E+03  0.84019310667E+01  0.37779657684E+03  0.49797930377E+03  0.00000000000E+00 0. -1.
         21    1    1    2  504  501 -0.27098612991E+01  0.49586800044E+02  0.25416925525E+00  0.49661440664E+02  0.00000000000E+00 0. -1.
<mgrwt>
<rscale>  4 0.34939613E+03</rscale>
<asrwt>0</asrwt>
<pdfrwt beam="1">  1       21 0.11419425E+00 0.34939613E+03</pdfrwt>
<pdfrwt beam="2">  1       21 0.30380289E-01 0.34939613E+03</pdfrwt>
<totfact> 0.56573323E+03</totfact>
</mgrwt>
</event>
<event>
 5    0  0.1829809E+000  0.2514497E+03  0.7546771E-02  0.1112392E+00
         21   -1    0    0  502  501  0.00000000000E+00  0.00000000000E+00  0.43640028487E+03  0.43640028487E+03  0.00000000000E+00 0. -1.
         21   -1    0    0  503  502 -0.00000000000E+00 -0.00000000000E+00 -0.58610870101E+03  0.58610870101E+03  0.00000000000E+00 0.  1.
         25    1    1    2    0    0 -0.17301113701E+03  0.13292511393E+03  0.37387794106E+03  0.45056814607E+03  0.12500000000E+03 0.  0.
         21    1    1    2  503  504  0.43845709026E+02 -0.78037982475E+02 -0.18970565280E+03  0.20976321797E+03  0.00000000000E+00 0.  1.
         21    1    1    2  504  501  0.12916542799E+03 -0.54887131453E+02 -0.33388070440E+03  0.36217762183E+03  0.00000000000E+00 0.  1.
<mgrwt>
<rscale>  4 0.25144968E+03</rscale>
<asrwt>0</asrwt>
<pdfrwt beam="1">  1       21 0.67138506E-01 0.25144968E+03</pdfrwt>
<pdfrwt beam="2">  1       21 0.90170569E-01 0.25144968E+03</pdfrwt>
<totfact> 0.20256419E+03</totfact>
</mgrwt>
</event>
<event>
 5    0  0.1829809E+000  0.3784060E+03  0.7546771E-02  0.1051998E+00
         21   -1    0    0  502  501  0.00000000000E+00  0.00000000000E+00  0.14469270365E+04  0.14469270365E+04  0.00000000000E+00 0. -1.
         21   -1    0    0  503  502 -0.00000000000E+00 -0.00000000000E+00 -0.10617975436E+03  0.10617975436E+03  0.00000000000E+00 0.  1.
         25    1    1    2    0    0 -0.24318582489E+03 -0.25420537646E+03  0.88641359339E+03  0.96182835132E+03  0.12500000000E+03 0.  0.
         21    1    1    2  503  504  0.11126951605E+03  0.33352641612E+02  0.18800861679E+03  0.22099896808E+03  0.00000000000E+00 0.  1.
         21    1    1    2  504  501  0.13191630885E+03  0.22085273485E+03  0.26632507192E+03  0.37027947143E+03  0.00000000000E+00 0.  1.
<mgrwt>
<rscale>  4 0.37713375E+03</rscale>
<asrwt>0</asrwt>
<pdfrwt beam="1">  1       21 0.22260415E+00 0.37840599E+03</pdfrwt>
<pdfrwt beam="2">  1       21 0.16335348E-01 0.37840599E+03</pdfrwt>
<totfact> 0.28439500E+03</totfact>
</mgrwt>
</event>
<event>
 5    0  0.1829809E+000  0.2289883E+03  0.7546771E-02  0.1127354E+00
         21   -1    0    0  502  501  0.00000000000E+00  0.00000000000E+00  0.34918720793E+03  0.34918720793E+03  0.00000000000E+00 0.  1.
         21   -1    0    0  503  502 -0.00000000000E+00 -0.00000000000E+00 -0.16171562868E+03  0.16171562868E+03  0.00000000000E+00 0.  1.
         25    1    1    2    0    0 -0.10047913935E+03 -0.18180428284E+03  0.10199184172E+03  0.26301366976E+03  0.12500000000E+03 0.  0.
         21    1    1    2  503  504  0.85723858248E+02  0.16127777642E+03  0.27585191517E+02  0.18471611687E+03  0.00000000000E+00 0.  1.
         21    1    1    2  504  501  0.14755281099E+02  0.20526506424E+02  0.57894546010E+02  0.63173049981E+02  0.00000000000E+00 0.  1.
<mgrwt>
<rscale>  4 0.22898830E+03</rscale>
<asrwt>0</asrwt>
<pdfrwt beam="1">  1       21 0.53721109E-01 0.22898830E+03</pdfrwt>
<pdfrwt beam="2">  1       21 0.24879327E-01 0.22898830E+03</pdfrwt>
<totfact> 0.49267551E+04</totfact>
</mgrwt>
</event>
<event>
 5    0  0.1829809E+000  0.2236238E+03  0.7546771E-02  0.1131210E+00
         21   -1    0    0  502  501  0.00000000000E+00  0.00000000000E+00  0.85612421803E+02  0.85612421803E+02  0.00000000000E+00 0.  1.
         21   -1    0    0  503  502 -0.00000000000E+00 -0.00000000000E+00 -0.14950443151E+04  0.14950443151E+04  0.00000000000E+00 0.  1.
         25    1    1    2    0    0 -0.20807332667E+03 -0.59570510461E+02 -0.16395087621E+03  0.29891143303E+03  0.12500000000E+03 0.  0.
         21    1    1    2  503  504  0.13001748160E+03 -0.67293067959E+02 -0.75826627971E+03  0.77226980613E+03  0.00000000000E+00 0.  1.
         21    1    1    2  504  501  0.78055845062E+02  0.12686357842E+03 -0.48721473736E+03  0.50947549772E+03  0.00000000000E+00 0.  1.
<mgrwt>
<rscale>  4 0.22362384E+03</rscale>
<asrwt>0</asrwt>
<pdfrwt beam="1">  1       21 0.13171142E-01 0.22362384E+03</pdfrwt>
<pdfrwt beam="2">  1       21 0.23000681E+00 0.22362384E+03</pdfrwt>
<totfact> 0.42145977E+03</totfact>
</mgrwt>
</event>
<event>
 5    0  0.1829809E+000  0.2480997E+03  0.7546771E-02  0.1114512E+00
         21   -1    0    0  502  501  0.00000000000E+00  0.00000000000E+00  0.53371891423E+02  0.53371891423E+02  0.00000000000E+00 0. -1.
         21   -1    0    0  503  502 -0.00000000000E+00 -0.00000000000E+00 -0.13138270911E+04  0.13138270911E+04  0.00000000000E+00 0. -1.
         25    1    1    2    0    0 -0.64778050247E+02  0.21227426318E+03 -0.40089747077E+03  0.47497404211E+03  0.12500000000E+03 0.  0.
         21    1    1    2  503  504 -0.21324290883E+02 -0.28366281077E+02 -0.15328212222E+03  0.15733651921E+03  0.00000000000E+00 0. -1.
         21    1    1    2  504  501  0.86102341130E+02 -0.18390798211E+03 -0.70627560668E+03  0.73488842120E+03  0.00000000000E+00 0. -1.
<mgrwt>
<rscale>  4 0.24809974E+03</rscale>
<asrwt>0</asrwt>
<pdfrwt beam="1">  1       21 0.82110595E-02 0.24809974E+03</pdfrwt>
<pdfrwt beam="2">  1       21 0.20212726E+00 0.24809974E+03</pdfrwt>
<totfact> 0.14333458E+04</totfact>
</mgrwt>
</event>
<event>
 5    0  0.1829809E+000  0.3807101E+03  0.7546771E-02  0.1050672E+00
         21   -1    0    0  502  501  0.00000000000E+00  0.00000000000E+00  0.10010995829E+04  0.10010995829E+04  0.00000000000E+00 0. -1.
         21   -1    0    0  503  502 -0.00000000000E+00 -0.00000000000E+00 -0.42186956034E+03  0.42186956034E+03  0.00000000000E+00 0. -1.
         25    1    1    2    0    0  0.37989102265E+03  0.90324468762E+02  0.77789924001E+03  0.87933379689E+03  0.12500000000E+03 0.  0.
         21    1    1    2  503  504 -0.34718566820E+03 -0.80462122987E+02 -0.28142541645E+03  0.45410605200E+03  0.00000000000E+00 0. -1.
         21    1    1    2  504  501 -0.32705354447E+02 -0.98623457750E+01  0.82756199026E+02  0.89529294373E+02  0.00000000000E+00 0. -1.
<mgrwt>
<rscale>  4 0.38071013E+03</rscale>
<asrwt>0</asrwt>
<pdfrwt beam="1">  1       21 0.15401532E+00 0.38071013E+03</pdfrwt>
<pdfrwt beam="2">  1       21 0.64903009E-01 0.38071013E+03</pdfrwt>
<totfact> 0.52565988E+02</totfact>
</mgrwt>
</event>
<event>
 5    0  0.1829809E+000  0.3168544E+03  0.7546771E-02  0.1077106E+00
         21   -1    0    0  502  501  0.00000000000E+00  0.00000000000E+00  0.44571640444E+03  0.44571640444E+03  0.00000000000E+00 0.  1.
         21   -1    0    0  503  502 -0.00000000000E+00 -0.00000000000E+00 -0.21359494560E+03  0.21359494560E+03  0.00000000000E+00 0.  1.
         25    1    1    2    0    0 -0.74827461723E+02 -0.28137621562E+03  0.12792876880E+03  0.34170527305E+03  0.12500000000E+03 0.  0.
         21    1    1    2  503  504  0.86183779452E+02  0.20116157524E+03  0.80742637863E+02  0.23326593571E+03  0.00000000000E+00 0.  1.
         21    1    1    2  504  501 -0.11356317728E+02  0.80214640382E+02  0.23450052172E+02  0.84340141278E+02  0.00000000000E+00 0.  1.
<mgrwt>
<rscale>  4 0.31685442E+03</rscale>
<asrwt>0</asrwt>
<pdfrwt beam="1">  1       21 0.68571754E-01 0.31685442E+03</pdfrwt>
<pdfrwt beam="2">  1       21 0.32860761E-01 0.31685442E+03</pdfrwt>
<totfact> 0.16243289E+04</totfact>
</mgrwt>
</event>
<event>
 5    0  0.1829809E+000  0.2362302E+03  0.7546771E-02  0.1122330E+00
         21   -1    0    0  502  501  0.00000000000E+00  0.00000000000E+00  0.32252643799E+03  0.32252643799E+03  0.00000000000E+00 0. -1.
         21   -1    0    0  503  502 -0.00000000000E+00 -0.00000000000E+00 -0.24096460491E+03  0.24096460491E+03  0.00000000000E+00 0. -1.
         25    1    1    2    0    0 -0.54505165268E+02 -0.19289601509E+03  0.21499932796E+03  0.31942040746E+03  0.12500000000E+03 0.  0.
         21    1    1    2  503  504  0.26130267693E+02  0.14266511995E+03 -0.10893479650E+03  0.18139161290E+03  0.00000000000E+00 0. -1.
         21    1    1    2  504  501  0.28374897575E+02  0.50230895133E+02 -0.24502698380E+02  0.62679022536E+02  0.00000000000E+00 0. -1.
<mgrwt>
<rscale>  4 0.23623015E+03</rscale>
<asrwt>0</asrwt>
<pdfrwt beam="1">  1       21 0.49619452E-01 0.23623015E+03</pdfrwt>
<pdfrwt beam="2">  1       21 0.37071478E-01 0.23623015E+03</pdfrwt>
<totfact> 0.26549725E+04</totfact>
</mgrwt>
</event>
<event>
 5    0  0.1829809E+000  0.2767191E+03  0.7546771E-02  0.1097495E+00
         21   -1    0    0  502  501  0.00000000000E+00  0.00000000000E+00  0.17456661015E+03  0.17456661015E+03  0.00000000000E+00 0. -1.
         21   -1    0    0  503  502 -0.00000000000E+00 -0.00000000000E+00 -0.47997721664E+03  0.47997721664E+03  0.00000000000E+00 0. -1.
         25    1    1    2    0    0  0.24590588212E+03  0.21880083793E+02 -0.22836896389E+02  0.27765980041E+03  0.12500000000E+03 0.  0.
         21    1    1    2  503  504 -0.22025377815E+03 -0.86901224502E+01 -0.24607967502E+03  0.33036714648E+03  0.00000000000E+00 0. -1.
         21    1    1    2  504  501 -0.25652103973E+02 -0.13189961343E+02 -0.36494035076E+02  0.46516879889E+02  0.00000000000E+00 0.  1.
<mgrwt>
<rscale>  4 0.27671906E+03</rscale>
<asrwt>0</asrwt>
<pdfrwt beam="1">  1       21 0.26856402E-01 0.27671906E+03</pdfrwt>
<pdfrwt beam="2">  1       21 0.73842648E-01 0.27671906E+03</pdfrwt>
<totfact> 0.20810131E+04</totfact>
</mgrwt>
</event>
<event>
 5    0  0.1829809E+000  0.4884026E+03  0.7546771E-02  0.1016851E+00
         21   -1    0    0  502  501  0.00000000000E+00  0.00000000000E+00  0.13669621113E+04  0.13669621113E+04  0.00000000000E+00 0. -1.
         21   -1    0    0  503  502 -0.00000000000E+00 -0.00000000000E+00 -0.55035137994E+03  0.55035137994E+03  0.00000000000E+00 0. -1.
         25    1    1    2    0    0 -0.67880443663E+01 -0.47776613865E+03  0.11871946669E+04  0.12858315356E+04  0.12500000000E+03 0.  0.
         21    1    1    2  503  504  0.20927991988E+02  0.41704507378E+03 -0.38446777527E+03  0.56760905968E+03  0.00000000000E+00 0. -1.
         21    1    1    2  504  501 -0.14139947621E+02  0.60721064873E+02  0.13883839756E+02  0.63872896008E+02  0.00000000000E+00 0. -1.
<mgrwt>
<rscale>  4 0.48840256E+03</rscale>
<asrwt>0</asrwt>
<pdfrwt beam="1">  1       21 0.21030186E+00 0.48840256E+03</pdfrwt>
<pdfrwt beam="2">  1       21 0.84669443E-01 0.48840256E+03</pdfrwt>
<totfact> 0.10884370E+02</totfact>
</mgrwt>
</event>
<event>
 5    0  0.1829809E+000  0.3481695E+03  0.7546771E-02  0.1063369E+00
         21   -1    0    0  502  501  0.00000000000E+00  0.00000000000E+00  0.49552308403E+03  0.49552308403E+03  0.00000000000E+00 0. -1.
         21   -1    0    0  503  502 -0.00000000000E+00 -0.00000000000E+00 -0.97592951284E+03  0.97592951284E+03  0.00000000000E+00 0.  1.
         25    1    1    2    0    0 -0.32346272205E+03  0.31126467820E+02  0.39765305745E+03  0.52853565978E+03  0.12500000000E+03 0.  0.
         21    1    1    2  503  504  0.42607250556E+02 -0.18898746636E+02 -0.49617480748E+02  0.68076683381E+02  0.00000000000E+00 0.  1.
         21    1    1    2  504  501  0.28085547149E+03 -0.12227721184E+02 -0.82844200551E+03  0.87484025371E+03  0.00000000000E+00 0.  1.
<mgrwt>
<rscale>  4 0.34816948E+03</rscale>
<asrwt>0</asrwt>
<pdfrwt beam="1">  1       21 0.76234321E-01 0.34816948E+03</pdfrwt>
<pdfrwt beam="2">  1       21 0.15014300E+00 0.34816948E+03</pdfrwt>
<totfact> 0.40014312E+02</totfact>
</mgrwt>
</event>
<event>
 5    0  0.1829809E+000  0.3698692E+03  0.7546771E-02  0.1054743E+00
         21   -1    0    0  502  501  0.00000000000E+00  0.00000000000E+00  0.13282267689E+03  0.13282267689E+03  0.00000000000E+00 0. -1.
         21   -1    0    0  503  502 -0.00000000000E+00 -0.00000000000E+00 -0.14341158797E+04  0.14341158797E+04  0.00000000000E+00 0. -1.
         25    1    1    2    0    0 -0.27709872111E+03 -0.21077420337E+03 -0.25416452700E+03  0.44881407379E+03  0.12500000000E+03 0.  0.
         21    1    1    2  503  504  0.23145413395E+02 -0.29244218610E+02 -0.16814707465E+03  0.17223348454E+03  0.00000000000E+00 0.  1.
         21    1    1    2  504  501  0.25395330772E+03  0.24001842198E+03 -0.87898160116E+03  0.94589099825E+03  0.00000000000E+00 0. -1.
<mgrwt>
<rscale>  4 0.36986915E+03</rscale>
<asrwt>0</asrwt>
<pdfrwt beam="1">  1       21 0.20434258E-01 0.36986915E+03</pdfrwt>
<pdfrwt beam="2">  1       21 0.22063321E+00 0.36986915E+03</pdfrwt>
<totfact> 0.19300968E+03</totfact>
</mgrwt>
</event>
<event>
 5    0  0.1829809E+000  0.2551361E+03  0.7546771E-02  0.1110101E+00
         21   -1    0    0  502  501  0.00000000000E+00  0.00000000000E+00  0.22106158187E+03  0.22106158187E+03  0.00000000000E+00 0. -1.
         21   -1    0    0  503  502 -0.00000000000E+00 -0.00000000000E+00 -0.89212323679E+03  0.89212323679E+03  0.00000000000E+00 0.  1.
         25    1    1    2    0    0 -0.17923162213E+03  0.13170216686E+03  0.12398730000E+03  0.28366756192E+03  0.12500000000E+03 0.  0.
         21    1    1    2  503  504  0.56826802412E+02 -0.80162587145E+02 -0.25241961802E+03  0.27087079837E+03  0.00000000000E+00 0. -1.
         21    1    1    2  504  501  0.12240481972E+03 -0.51539579716E+02 -0.54262933691E+03  0.55864645836E+03  0.00000000000E+00 0.  1.
<mgrwt>
<rscale>  4 0.25513611E+03</rscale>
<asrwt>0</asrwt>
<pdfrwt beam="1">  1       21 0.34009474E-01 0.25513611E+03</pdfrwt>
<pdfrwt beam="2">  1       21 0.13724973E+00 0.25513611E+03</pdfrwt>
<totfact> 0.29861379E+03</totfact>
</mgrwt>
</event>
<event>
 5    0  0.1829809E+000  0.2904837E+03  0.7546771E-02  0.1090097E+00
         21   -1    0    0  502  501  0.00000000000E+00  0.00000000000E+00  0.11579240370E+04  0.11579240370E+04  0.00000000000E+00 0. -1.
         21   -1    0    0  503  502 -0.00000000000E+00 -0.00000000000E+00 -0.89150821435E+02  0.89150821435E+02  0.00000000000E+00 0. -1.
         25    1    1    2    0    0  0.59810991892E+02  0.25530060396E+03  0.86051147516E+03  0.90821844950E+03  0.12500000000E+03 0.  0.
         21    1    1    2  503  504 -0.66344498066E+02 -0.19761028493E+03  0.17332826021E+03  0.27109795816E+03  0.00000000000E+00 0. -1.
         21    1    1    2  504  501  0.65335061735E+01 -0.57690319029E+02  0.34933480203E+02  0.67758450776E+02  0.00000000000E+00 0.  1.
<mgrwt>
<rscale>  4 0.29048365E+03</rscale>
<asrwt>0</asrwt>
<pdfrwt beam="1">  1       21 0.17814215E+00 0.29048365E+03</pdfrwt>
<pdfrwt beam="2">  1       21 0.13715512E-01 0.29048365E+03</pdfrwt>
<totfact> 0.80859793E+03</totfact>
</mgrwt>
</event>
<event>
 5    0  0.1829809E+000  0.3312152E+03  0.7546771E-02  0.1070600E+00
         21   -1    0    0  502  501  0.00000000000E+00  0.00000000000E+00  0.28540313060E+03  0.28540313060E+03  0.00000000000E+00 0.  1.
         21   -1    0    0  503  502 -0.00000000000E+00 -0.00000000000E+00 -0.16840442147E+04  0.16840442147E+04  0.00000000000E+00 0.  1.
         25    1    1    2    0    0 -0.71525251480E+02  0.28692276305E+03  0.15175823303E+03  0.35510011947E+03  0.12500000000E+03 0.  0.
         21    1    1    2  503  504  0.52826734982E+02 -0.30284466070E+03 -0.15584665385E+04  0.15884972471E+04  0.00000000000E+00 0.  1.
         21    1    1    2  504  501  0.18698516498E+02  0.15921897649E+02  0.80672212939E+01  0.25849978789E+02  0.00000000000E+00 0. -1.
<mgrwt>
<rscale>  4 0.33121522E+03</rscale>
<asrwt>0</asrwt>
<pdfrwt beam="1">  1       21 0.43908174E-01 0.33121522E+03</pdfrwt>
<pdfrwt beam="2">  1       21 0.25908372E+00 0.33121522E+03</pdfrwt>
<totfact> 0.25294557E+02</totfact>
</mgrwt>
</event>
<event>
 5    0  0.1829809E+000  0.2464116E+03  0.7546771E-02  0.1115594E+00
         21   -1    0    0  502  501  0.00000000000E+00  0.00000000000E+00  0.50387494010E+03  0.50387494010E+03  0.00000000000E+00 0.  1.
         21   -1    0    0  503  502 -0.00000000000E+00 -0.00000000000E+00 -0.10971674984E+03  0.10971674984E+03  0.00000000000E+00 0.  1.
         25    1    1    2    0    0  0.72356888444E+02 -0.19964504788E+03  0.25483376716E+03  0.35448400998E+03  0.12500000000E+03 0.  0.
         21    1    1    2  503  504 -0.73257722138E+02  0.15695649608E+03  0.94957692495E+02  0.19753227301E+03  0.00000000000E+00 0.  1.
         21    1    1    2  504  501  0.90083369404E+00  0.42688551796E+02  0.44366730608E+02  0.61575406946E+02  0.00000000000E+00 0.  1.
<mgrwt>
<rscale>  4 0.24641158E+03</rscale>
<asrwt>0</asrwt>
<pdfrwt beam="1">  1       21 0.77519220E-01 0.24641158E+03</pdfrwt>
<pdfrwt beam="2">  1       21 0.16879500E-01 0.24641158E+03</pdfrwt>
<totfact> 0.45511460E+04</totfact>
</mgrwt>
</event>
<event>
 5    0  0.1829809E+000  0.5280814E+03  0.7546771E-02  0.1007141E+00
         21   -1    0    0  502  501  0.00000000000E+00  0.00000000000E+00  0.21461923611E+04  0.21461923611E+04  0.00000000000E+00 0.  1.
         21   -1    0    0  503  502 -0.00000000000E+00 -0.00000000000E+00 -0.40381766157E+03  0.40381766157E+03  0.00000000000E+00 0.  1.
         25    1    1    2    0    0 -0.71150668271E+02 -0.50060860819E+03  0.19226901333E+04  0.19919924058E+04  0.12500000000E+03 0.  0.
         21    1    1    2  503  504  0.61018187829E+02  0.62899404258E+02 -0.51451588481E+02  0.10162096368E+03  0.00000000000E+00 0.  1.
         21    1    1    2  504  501  0.10132480442E+02  0.43770920393E+03 -0.12886384532E+03  0.45639665314E+03  0.00000000000E+00 0.  1.
<mgrwt>
<rscale>  4 0.52626705E+03</rscale>
<asrwt>0</asrwt>
<pdfrwt beam="1">  1       21 0.33018343E+00 0.52808144E+03</pdfrwt>
<pdfrwt beam="2">  1       21 0.62125795E-01 0.52808144E+03</pdfrwt>
<totfact> 0.39276412E+01</totfact>
</mgrwt>
</event>
<event>
 5    0  0.1829809E+000  0.2606998E+03  0.7546771E-02  0.1106724E+00
         21   -1    0    0  502  501  0.00000000000E+00  0.00000000000E+00  0.35061117424E+03  0.35061117424E+03  0.00000000000E+00 0.  1.
         21   -1    0    0  503  502 -0.00000000000E+00 -0.00000000000E+00 -0.20071174968E+03  0.20071174968E+03  0.00000000000E+00 0.  1.
         25    1    1    2    0    0 -0.65928563155E+02  0.21907258134E+03  0.18102682316E+03  0.31738790468E+03  0.12500000000E+03 0.  0.
         21    1    1    2  503  504  0.50691885802E+02 -0.19919425758E+03 -0.19953465880E+02  0.20650946792E+03  0.00000000000E+00 0.  1.
         21    1    1    2  504  501  0.15236677353E+02 -0.19878323753E+02 -0.11173932722E+02  0.27425551306E+02  0.00000000000E+00 0.  1.
<mgrwt>
<rscale>  4 0.26069977E+03</rscale>
<asrwt>0</asrwt>
<pdfrwt beam="1">  1       21 0.53940181E-01 0.26069977E+03</pdfrwt>
<pdfrwt beam="2">  1       21 0.30878731E-01 0.26069977E+03</pdfrwt>
<totfact> 0.31674557E+04</totfact>
</mgrwt>
</event>
<event>
 5    0  0.1829809E+000  0.2699313E+03  0.7546771E-02  0.1101319E+00
         21   -1    0    0  502  501  0.00000000000E+00  0.00000000000E+00  0.29571486356E+04  0.29571486356E+04  0.00000000000E+00 0.  1.
         21   -1    0    0  503  502 -0.00000000000E+00 -0.00000000000E+00 -0.26584469207E+02  0.26584469207E+02  0.00000000000E+00 0. -1.
         25    1    1    2    0    0  0.15805984975E+03  0.17020481176E+03  0.18618312839E+04  0.18804237086E+04  0.12500000000E+03 0.  0.
         21    1    1    2  503  504  0.33519961848E+01  0.22456092050E+02  0.89553727215E+02  0.92387131175E+02  0.00000000000E+00 0. -1.
         21    1    1    2  504  501 -0.16141184594E+03 -0.19266090381E+03  0.97917915529E+03  0.10109222651E+04  0.00000000000E+00 0. -1.
<mgrwt>
<rscale>  4 0.26993126E+03</rscale>
<asrwt>0</asrwt>
<pdfrwt beam="1">  1       21 0.45494568E+00 0.26993126E+03</pdfrwt>
<pdfrwt beam="2">  1       21 0.40899207E-02 0.26993126E+03</pdfrwt>
<totfact> 0.13164793E+03</totfact>
</mgrwt>
</event>
<event>
 5    0  0.1829809E+000  0.3042750E+03  0.7546771E-02  0.1083123E+00
         21   -1    0    0  502  501  0.00000000000E+00  0.00000000000E+00  0.10949019999E+03  0.10949019999E+03  0.00000000000E+00 0.  1.
         21   -1    0    0  503  502 -0.00000000000E+00 -0.00000000000E+00 -0.78297687948E+03  0.78297687948E+03  0.00000000000E+00 0.  1.
         25    1    1    2    0    0 -0.25728602792E+03  0.10374103701E+03 -0.34456468454E+03  0.45968263482E+03  0.12500000000E+03 0.  0.
         21    1    1    2  503  504  0.22533284082E+03 -0.93315403485E+02 -0.26232083266E+03  0.35818273678E+03  0.00000000000E+00 0.  1.
         21    1    1    2  504  501  0.31953187097E+02 -0.10425633529E+02 -0.66601162280E+02  0.74601707871E+02  0.00000000000E+00 0.  1.
<mgrwt>
<rscale>  4 0.30427504E+03</rscale>
<asrwt>0</asrwt>
<pdfrwt beam="1">  1       21 0.16844646E-01 0.30427504E+03</pdfrwt>
<pdfrwt beam="2">  1       21 0.12045798E+00 0.30427504E+03</pdfrwt>
<totfact> 0.15621956E+04</totfact>
</mgrwt>
</event>
<event>
 5    0  0.1829809E+000  0.2743034E+03  0.7546771E-02  0.1098842E+00
         21   -1    0    0  502  501  0.00000000000E+00  0.00000000000E+00  0.63605483850E+03  0.63605483850E+03  0.00000000000E+00 0. -1.
         21   -1    0    0  503  502 -0.00000000000E+00 -0.00000000000E+00 -0.15579785534E+03  0.15579785534E+03  0.00000000000E+00 0. -1.
         25    1    1    2    0    0  0.24343346928E+03 -0.18907242450E+02  0.47007954458E+03  0.54425831736E+03  0.12500000000E+03 0.  0.
         21    1    1    2  503  504 -0.21819950212E+03  0.26309942605E+02  0.16969193401E+02  0.22043409294E+03  0.00000000000E+00 0. -1.
         21    1    1    2  504  501 -0.25233967158E+02 -0.74027001546E+01 -0.67917548196E+01  0.27160283534E+02  0.00000000000E+00 0. -1.
<mgrwt>
<rscale>  4 0.27430337E+03</rscale>
<asrwt>0</asrwt>
<pdfrwt beam="1">  1       21 0.97854589E-01 0.27430337E+03</pdfrwt>
<pdfrwt beam="2">  1       21 0.23968901E-01 0.27430337E+03</pdfrwt>
<totfact> 0.13532340E+04</totfact>
</mgrwt>
</event>
<event>
 5    0  0.1829809E+000  0.2809536E+03  0.7546771E-02  0.1095169E+00
         21   -1    0    0  502  501  0.00000000000E+00  0.00000000000E+00  0.11085992642E+03  0.11085992642E+03  0.00000000000E+00 0.  1.
         21   -1    0    0  503  502 -0.00000000000E+00 -0.00000000000E+00 -0.10383210108E+04  0.10383210108E+04  0.00000000000E+00 0. -1.
         25    1    1    2    0    0 -0.23203046942E+03 -0.97322973524E+02 -0.12701991175E+03  0.30833254434E+03  0.12500000000E+03 0.  0.
         21    1    1    2  503  504  0.17005228704E+03  0.45050614031E+02 -0.57236580430E+03  0.59879040748E+03  0.00000000000E+00 0. -1.
         21    1    1    2  504  501  0.61978182383E+02  0.52272359493E+02 -0.22807536830E+03  0.24205798538E+03  0.00000000000E+00 0. -1.
<mgrwt>
<rscale>  4 0.28095355E+03</rscale>
<asrwt>0</asrwt>
<pdfrwt beam="1">  1       21 0.17055373E-01 0.28095355E+03</pdfrwt>
<pdfrwt beam="2">  1       21 0.15974169E+00 0.28095355E+03</pdfrwt>
<totfact> 0.73805464E+03</totfact>
</mgrwt>
</event>
<event>
 5    0  0.1829809E+000  0.2604465E+03  0.7546771E-02  0.1106875E+00
         21   -1    0    0  502  501  0.00000000000E+00  0.00000000000E+00  0.11488536022E+03  0.11488536022E+03  0.00000000000E+00 0.  1.
         21   -1    0    0  503  502 -0.00000000000E+00 -0.00000000000E+00 -0.68693761406E+03  0.68693761406E+03  0.00000000000E+00 0. -1.
         25    1    1    2    0    0 -0.19965477313E+03  0.11110970587E+03 -0.10860433699E+03  0.28218309160E+03  0.12500000000E+03 0.  0.
         21    1    1    2  503  504  0.54597774183E+02 -0.44376541613E+02 -0.19488553663E+03  0.20719692753E+03  0.00000000000E+00 0. -1.
         21    1    1    2  504  501  0.14505699894E+03 -0.66733164255E+02 -0.26856238022E+03  0.31244295515E+03  0.00000000000E+00 0. -1.
<mgrwt>
<rscale>  4 0.26044653E+03</rscale>
<asrwt>0</asrwt>
<pdfrwt beam="1">  1       21 0.17674671E-01 0.26044653E+03</pdfrwt>
<pdfrwt beam="2">  1       21 0.10568271E+00 0.26044653E+03</pdfrwt>
<totfact> 0.20116560E+04</totfact>
</mgrwt>
</event>
<event>
 5    0  0.1829809E+000  0.2619934E+03  0.7546771E-02  0.1105951E+00
         21   -1    0    0  502  501  0.00000000000E+00  0.00000000000E+00  0.36684341191E+03  0.36684341191E+03  0.00000000000E+00 0. -1.
         21   -1    0    0  503  502 -0.00000000000E+00 -0.00000000000E+00 -0.42527440664E+03  0.42527440664E+03  0.00000000000E+00 0.  1.
         25    1    1    2    0    0  0.22822696966E+03  0.43740075651E+02  0.27164865477E+03  0.37870666159E+03  0.12500000000E+03 0.  0.
         21    1    1    2  503  504 -0.11874263510E+02 -0.23850147293E+02 -0.14673231094E+02  0.30415972293E+02  0.00000000000E+00 0. -1.
         21    1    1    2  504  501 -0.21635270615E+03 -0.19889928358E+02 -0.31540641840E+03  0.38299518466E+03  0.00000000000E+00 0.  1.
<mgrwt>
<rscale>  4 0.26199343E+03</rscale>
<asrwt>0</asrwt>
<pdfrwt beam="1">  1       21 0.56437449E-01 0.26199343E+03</pdfrwt>
<pdfrwt beam="2">  1       21 0.65426831E-01 0.26199343E+03</pdfrwt>
<totfact> 0.60605068E+03</totfact>
</mgrwt>
</event>
<event>
 5    0  0.1829809E+000  0.3634987E+03  0.7546771E-02  0.1057207E+00
         21   -1    0    0  502  501  0.00000000000E+00  0.00000000000E+00  0.95938149480E+03  0.95938149480E+03  0.00000000000E+00 0. -1.
         21   -1    0    0  503  502 -0.00000000000E+00 -0.00000000000E+00 -0.15702258553E+03  0.15702258553E+03  0.00000000000E+00 0. -1.
         25    1    1    2    0    0 -0.34127231837E+03  0.62880635710E+01  0.61922202979E+03  0.71803012277E+03  0.12500000000E+03 0.  0.
         21    1    1    2  503  504  0.29623669479E+03 -0.25210472916E+02  0.12520562953E+03  0.32259602749E+03  0.00000000000E+00 0. -1.
         21    1    1    2  504  501  0.45035623574E+02  0.18922409345E+02  0.57931249948E+02  0.75777930076E+02  0.00000000000E+00 0.  1.
<mgrwt>
<rscale>  4 0.36349874E+03</rscale>
<asrwt>0</asrwt>
<pdfrwt beam="1">  1       21 0.14759715E+00 0.36349874E+03</pdfrwt>
<pdfrwt beam="2">  1       21 0.24157321E-01 0.36349874E+03</pdfrwt>
<totfact> 0.45389666E+03</totfact>
</mgrwt>
</event>
<event>
 5    0  0.1829809E+000  0.2748656E+03  0.7546771E-02  0.1098527E+00
         21   -1    0    0  502  501  0.00000000000E+00  0.00000000000E+00  0.11021143180E+04  0.11021143180E+04  0.00000000000E+00 0. -1.
         21   -1    0    0  503  502 -0.00000000000E+00 -0.00000000000E+00 -0.64957780072E+02  0.64957780072E+02  0.00000000000E+00 0. -1.
         25    1    1    2    0    0  0.77236669058E+02 -0.23229415055E+03  0.60074332580E+03  0.66063879611E+03  0.12500000000E+03 0.  0.
         21    1    1    2  503  504  0.70138057844E+01  0.98069885749E+02  0.17541238868E+03  0.20108804555E+03  0.00000000000E+00 0. -1.
         21    1    1    2  504  501 -0.84250474842E+02  0.13422426480E+03  0.26100082343E+03  0.30534525639E+03  0.00000000000E+00 0. -1.
<mgrwt>
<rscale>  4 0.27486556E+03</rscale>
<asrwt>0</asrwt>
<pdfrwt beam="1">  1       21 0.16955603E+00 0.27486556E+03</pdfrwt>
<pdfrwt beam="2">  1       21 0.99935055E-02 0.27486556E+03</pdfrwt>
<totfact> 0.16586287E+04</totfact>
</mgrwt>
</event>
<event>
 5    0  0.1829809E+000  0.2748175E+03  0.7546771E-02  0.1098554E+00
         21   -1    0    0  502  501  0.00000000000E+00  0.00000000000E+00  0.16743718674E+03  0.16743718674E+03  0.00000000000E+00 0. -1.
         21   -1    0    0  503  502 -0.00000000000E+00 -0.00000000000E+00 -0.51803369024E+03  0.51803369024E+03  0.00000000000E+00 0. -1.
         25    1    1    2    0    0  0.36038220454E+02 -0.25405240385E+03 -0.23216893226E+03  0.36792497923E+03  0.12500000000E+03 0.  0.
         21    1    1    2  503  504  0.18547691460E+02  0.21131363771E+02 -0.67264290517E+02  0.72904294606E+02  0.00000000000E+00 0. -1.
         21    1    1    2  504  501 -0.54585911914E+02  0.23292104008E+03 -0.51163280723E+02  0.24464160314E+03  0.00000000000E+00 0. -1.
<mgrwt>
<rscale>  4 0.27481751E+03</rscale>
<asrwt>0</asrwt>
<pdfrwt beam="1">  1       21 0.25759567E-01 0.27481751E+03</pdfrwt>
<pdfrwt beam="2">  1       21 0.79697491E-01 0.27481751E+03</pdfrwt>
<totfact> 0.18996759E+04</totfact>
</mgrwt>
</event>
<event>
 5    0  0.1829809E+000  0.1988896E+03  0.7546771E-02  0.1150679E+00
         21   -1    0    0  502  501  0.00000000000E+00  0.00000000000E+00  0.65396039360E+03  0.65396039360E+03  0.00000000000E+00 0. -1.
         21   -1    0    0  503  502 -0.00000000000E+00 -0.00000000000E+00 -0.24266281358E+03  0.24266281358E+03  0.00000000000E+00 0.  1.
         25    1    1    2    0    0  0.23991454584E+02  0.28198540885E+03  0.44852712162E+03  0.54487883014E+03  0.12500000000E+03 0.  0.
         21    1    1    2  503  504  0.21521660784E+02 -0.14317661017E+03  0.79118848370E+02  0.16499247180E+03  0.00000000000E+00 0. -1.
         21    1    1    2  504  501 -0.45513115368E+02 -0.13880879868E+03 -0.11634838998E+03  0.18675190525E+03  0.00000000000E+00 0.  1.
<mgrwt>
<rscale>  4 0.19888956E+03</rscale>
<asrwt>0</asrwt>
<pdfrwt beam="1">  1       21 0.10060929E+00 0.19888956E+03</pdfrwt>
<pdfrwt beam="2">  1       21 0.37332741E-01 0.19888956E+03</pdfrwt>
<totfact> 0.55723237E+03</totfact>
</mgrwt>
</event>
<event>
 5    0  0.1829809E+000  0.2459247E+03  0.7546771E-02  0.1115908E+00
         21   -1    0    0  502  501  0.00000000000E+00  0.00000000000E+00  0.70244538464E+03  0.70244538464E+03  0.00000000000E+00 0. -1.
         21   -1    0    0  503  502 -0.00000000000E+00 -0.00000000000E+00 -0.97228754103E+02  0.97228754103E+02  0.00000000000E+00 0. -1.
         25    1    1    2    0    0  0.15613151641E+03  0.17367982261E+03  0.38363846089E+03  0.46620295996E+03  0.12500000000E+03 0.  0.
         21    1    1    2  503  504 -0.12692910047E+03 -0.15708157121E+03  0.14138264665E+03  0.24652519006E+03  0.00000000000E+00 0. -1.
         21    1    1    2  504  501 -0.29202415945E+02 -0.16598251397E+02  0.80195522993E+02  0.86945988720E+02  0.00000000000E+00 0. -1.
<mgrwt>
<rscale>  4 0.24592472E+03</rscale>
<asrwt>0</asrwt>
<pdfrwt beam="1">  1       21 0.10806852E+00 0.24592472E+03</pdfrwt>
<pdfrwt beam="2">  1       21 0.14958270E-01 0.24592472E+03</pdfrwt>
<totfact> 0.26105549E+04</totfact>
</mgrwt>
</event>
<event>
 5    0  0.1829809E+000  0.3073123E+03  0.7546771E-02  0.1081641E+00
         21   -1    0    0  502  501  0.00000000000E+00  0.00000000000E+00  0.13381985117E+03  0.13381985117E+03  0.00000000000E+00 0.  1.
         21   -1    0    0  503  502 -0.00000000000E+00 -0.00000000000E+00 -0.88299945001E+03  0.88299945001E+03  0.00000000000E+00 0.  1.
         25    1    1    2    0    0  0.12378730669E+03  0.28090179205E+03 -0.30714481321E+03  0.45187614493E+03  0.12500000000E+03 0.  0.
         21    1    1    2  503  504 -0.35927754260E+02 -0.25834280347E+03 -0.31821065379E+03  0.41144845098E+03  0.00000000000E+00 0.  1.
         21    1    1    2  504  501 -0.87859552429E+02 -0.22558988588E+02 -0.12382413185E+03  0.15349470527E+03  0.00000000000E+00 0.  1.
<mgrwt>
<rscale>  4 0.30731231E+03</rscale>
<asrwt>0</asrwt>
<pdfrwt beam="1">  1       21 0.20587669E-01 0.30731231E+03</pdfrwt>
<pdfrwt beam="2">  1       21 0.13584607E+00 0.30731231E+03</pdfrwt>
<totfact> 0.78771517E+03</totfact>
</mgrwt>
</event>
<event>
 5    0  0.1829809E+000  0.2768668E+03  0.7546771E-02  0.1097413E+00
         21   -1    0    0  502  501  0.00000000000E+00  0.00000000000E+00  0.93240430636E+03  0.93240430636E+03  0.00000000000E+00 0.  1.
         21   -1    0    0  503  502 -0.00000000000E+00 -0.00000000000E+00 -0.10439386803E+03  0.10439386803E+03  0.00000000000E+00 0.  1.
         25    1    1    2    0    0 -0.13247212342E+03  0.20069328176E+03  0.66285501285E+03  0.71612039832E+03  0.12500000000E+03 0.  0.
         21    1    1    2  503  504 -0.21246162484E+02 -0.45249412569E+01  0.30382239044E+02  0.37349095879E+02  0.00000000000E+00 0. -1.
         21    1    1    2  504  501  0.15371828591E+03 -0.19616834050E+03  0.13477318644E+03  0.28332868019E+03  0.00000000000E+00 0.  1.
<mgrwt>
<rscale>  4 0.27686681E+03</rscale>
<asrwt>0</asrwt>
<pdfrwt beam="1">  1       21 0.14344681E+00 0.27686681E+03</pdfrwt>
<pdfrwt beam="2">  1       21 0.16060596E-01 0.27686681E+03</pdfrwt>
<totfact> 0.11032759E+04</totfact>
</mgrwt>
</event>
<event>
 5    0  0.1829809E+000  0.2850254E+03  0.7546771E-02  0.1092975E+00
         21   -1    0    0  502  501  0.00000000000E+00  0.00000000000E+00  0.33716118197E+03  0.33716118197E+03  0.00000000000E+00 0. -1.
         21   -1    0    0  503  502 -0.00000000000E+00 -0.00000000000E+00 -0.24688540589E+03  0.24688540589E+03  0.00000000000E+00 0. -1.
         25    1    1    2    0    0  0.23811707436E+03 -0.94418013723E+02  0.13236109045E+03  0.31425938440E+03  0.12500000000E+03 0.  0.
         21    1    1    2  503  504 -0.20654873412E+03  0.52479104666E+02 -0.24939046955E+02  0.21456558917E+03  0.00000000000E+00 0. -1.
         21    1    1    2  504  501 -0.31568340235E+02  0.41938909057E+02 -0.17146267420E+02  0.55221614288E+02  0.00000000000E+00 0.  1.
<mgrwt>
<rscale>  4 0.28502544E+03</rscale>
<asrwt>0</asrwt>
<pdfrwt beam="1">  1       21 0.51870951E-01 0.28502544E+03</pdfrwt>
<pdfrwt beam="2">  1       21 0.37982370E-01 0.28502544E+03</pdfrwt>
<totfact> 0.22533867E+04</totfact>
</mgrwt>
</event>
<event>
 5    0  0.1829809E+000  0.2508171E+03  0.7546771E-02  0.1112790E+00
         21   -1    0    0  502  501  0.00000000000E+00  0.00000000000E+00  0.42904208716E+03  0.42904208716E+03  0.00000000000E+00 0. -1.
         21   -1    0    0  503  502 -0.00000000000E+00 -0.00000000000E+00 -0.44419859704E+03  0.44419859704E+03  0.00000000000E+00 0.  1.
         25    1    1    2    0    0  0.74494055978E+02 -0.21055724521E+03  0.34837452811E+03  0.43228871107E+03  0.12500000000E+03 0.  0.
         21    1    1    2  503  504 -0.52175872644E+02  0.38605877170E+02 -0.47330304441E+02  0.80329902008E+02  0.00000000000E+00 0.  1.
         21    1    1    2  504  501 -0.22318183334E+02  0.17195136804E+03 -0.31620073355E+03  0.36062207112E+03  0.00000000000E+00 0.  1.
<mgrwt>
<rscale>  4 0.25081705E+03</rscale>
<asrwt>0</asrwt>
<pdfrwt beam="1">  1       21 0.66006475E-01 0.25081705E+03</pdfrwt>
<pdfrwt beam="2">  1       21 0.68338246E-01 0.25081705E+03</pdfrwt>
<totfact> 0.39466702E+03</totfact>
</mgrwt>
</event>
<event>
 5    0  0.1829809E+000  0.2342109E+03  0.7546771E-02  0.1123711E+00
         21   -1    0    0  502  501  0.00000000000E+00  0.00000000000E+00  0.64757764357E+03  0.64757764357E+03  0.00000000000E+00 0.  1.
         21   -1    0    0  503  502 -0.00000000000E+00 -0.00000000000E+00 -0.14063211908E+03  0.14063211908E+03  0.00000000000E+00 0. -1.
         25    1    1    2    0    0  0.20337085039E+03 -0.96460805839E+01  0.51556396979E+03  0.56822878896E+03  0.12500000000E+03 0.  0.
         21    1    1    2  503  504 -0.17892170848E+03  0.29183316394E+02  0.13298861424E+02  0.18177321980E+03  0.00000000000E+00 0. -1.
         21    1    1    2  504  501 -0.24449141915E+02 -0.19537235810E+02 -0.21917306728E+02  0.38207753895E+02  0.00000000000E+00 0. -1.
<mgrwt>
<rscale>  4 0.23421093E+03</rscale>
<asrwt>0</asrwt>
<pdfrwt beam="1">  1       21 0.99627328E-01 0.23421093E+03</pdfrwt>
<pdfrwt beam="2">  1       21 0.21635711E-01 0.23421093E+03</pdfrwt>
<totfact> 0.16086654E+04</totfact>
</mgrwt>
</event>
<event>
 5    0  0.1829809E+000  0.4401382E+03  0.7546771E-02  0.1030704E+00
         21   -1    0    0  502  501  0.00000000000E+00  0.00000000000E+00  0.61868480776E+03  0.61868480776E+03  0.00000000000E+00 0.  1.
         21   -1    0    0  503  502 -0.00000000000E+00 -0.00000000000E+00 -0.35036855943E+03  0.35036855943E+03  0.00000000000E+00 0.  1.
         25    1    1    2    0    0 -0.32827821964E+03 -0.26519809611E+03 -0.42847808279E+02  0.44221889867E+03  0.12500000000E+03 0.  0.
         21    1    1    2  503  504  0.31023565536E+03  0.25112804152E+03  0.27747720449E+03  0.48611218264E+03  0.00000000000E+00 0.  1.
         21    1    1    2  504  501  0.18042564277E+02  0.14070054589E+02  0.33686852117E+02  0.40722285881E+02  0.00000000000E+00 0.  1.
<mgrwt>
<rscale>  4 0.44013818E+03</rscale>
<asrwt>0</asrwt>
<pdfrwt beam="1">  1       21 0.95182278E-01 0.44013818E+03</pdfrwt>
<pdfrwt beam="2">  1       21 0.53902855E-01 0.44013818E+03</pdfrwt>
<totfact> 0.26130779E+03</totfact>
</mgrwt>
</event>
<event>
 5    0  0.1829809E+000  0.3022951E+03  0.7546771E-02  0.1084099E+00
         21   -1    0    0  502  501  0.00000000000E+00  0.00000000000E+00  0.26317178673E+03  0.26317178673E+03  0.00000000000E+00 0. -1.
         21   -1    0    0  503  502 -0.00000000000E+00 -0.00000000000E+00 -0.37253505254E+03  0.37253505254E+03  0.00000000000E+00 0. -1.
         25    1    1    2    0    0  0.21984152573E+03  0.18472077981E+03 -0.41579036708E+02  0.31592068502E+03  0.12500000000E+03 0.  0.
         21    1    1    2  503  504  0.62769484147E+01 -0.44557849577E+02 -0.21043432925E+02  0.49675226317E+02  0.00000000000E+00 0. -1.
         21    1    1    2  504  501 -0.22611847414E+03 -0.14016293024E+03 -0.46740796175E+02  0.27011092793E+03  0.00000000000E+00 0. -1.
<mgrwt>
<rscale>  4 0.30229514E+03</rscale>
<asrwt>0</asrwt>
<pdfrwt beam="1">  1       21 0.40487967E-01 0.30229514E+03</pdfrwt>
<pdfrwt beam="2">  1       21 0.57313085E-01 0.30229514E+03</pdfrwt>
<totfact> 0.15878399E+04</totfact>
</mgrwt>
</event>
<event>
 5    0  0.1829809E+000  0.2803602E+03  0.7546771E-02  0.1095492E+00
         21   -1    0    0  502  501  0.00000000000E+00  0.00000000000E+00  0.24894456944E+03  0.24894456944E+03  0.00000000000E+00 0. -1.
         21   -1    0    0  503  502 -0.00000000000E+00 -0.00000000000E+00 -0.74249410748E+03  0.74249410748E+03  0.00000000000E+00 0.  1.
         25    1    1    2    0    0  0.35966617417E+02 -0.24836109173E+03  0.13529182269E+03  0.31129681454E+03  0.12500000000E+03 0.  0.
         21    1    1    2  503  504 -0.29124228961E+02  0.60877998296E+02 -0.11793014645E+03  0.13587446718E+03  0.00000000000E+00 0. -1.
         21    1    1    2  504  501 -0.68423884557E+01  0.18748309344E+03 -0.51091121428E+03  0.54426739520E+03  0.00000000000E+00 0.  1.
<mgrwt>
<rscale>  4 0.28036018E+03</rscale>
<asrwt>0</asrwt>
<pdfrwt beam="1">  1       21 0.38299165E-01 0.28036018E+03</pdfrwt>
<pdfrwt beam="2">  1       21 0.11422986E+00 0.28036018E+03</pdfrwt>
<totfact> 0.36814448E+03</totfact>
</mgrwt>
</event>
<event>
 5    0  0.1829809E+000  0.4403989E+03  0.7546771E-02  0.1030624E+00
         21   -1    0    0  502  501  0.00000000000E+00  0.00000000000E+00  0.36532766263E+03  0.36532766263E+03  0.00000000000E+00 0.  1.
         21   -1    0    0  503  502 -0.00000000000E+00 -0.00000000000E+00 -0.66916286982E+03  0.66916286982E+03  0.00000000000E+00 0.  1.
         25    1    1    2    0    0  0.42169137332E+03  0.22418964570E+02  0.88127205507E+02  0.44912985723E+03  0.12500000000E+03 0.  0.
         21    1    1    2  503  504 -0.38176552834E+03  0.73218796115E+01 -0.36723088517E+03  0.52977075379E+03  0.00000000000E+00 0.  1.
         21    1    1    2  504  501 -0.39925844985E+02 -0.29740844182E+02 -0.24731527524E+02  0.55589921425E+02  0.00000000000E+00 0. -1.
<mgrwt>
<rscale>  4 0.44039894E+03</rscale>
<asrwt>0</asrwt>
<pdfrwt beam="1">  1       21 0.56204256E-01 0.44039894E+03</pdfrwt>
<pdfrwt beam="2">  1       21 0.10294813E+00 0.44039894E+03</pdfrwt>
<totfact> 0.19743303E+03</totfact>
</mgrwt>
</event>
<event>
 5    0  0.1829809E+000  0.2718527E+03  0.7546771E-02  0.1100224E+00
         21   -1    0    0  502  501  0.00000000000E+00  0.00000000000E+00  0.24140575478E+03  0.24140575478E+03  0.00000000000E+00 0.  1.
         21   -1    0    0  503  502 -0.00000000000E+00 -0.00000000000E+00 -0.29832307098E+03  0.29832307098E+03  0.00000000000E+00 0. -1.
         25    1    1    2    0    0  0.13683902905E+03 -0.19888179651E+03  0.37981638072E+02  0.27449315781E+03  0.12500000000E+03 0.  0.
         21    1    1    2  503  504 -0.27832571391E+02  0.10285560887E+02 -0.82062231752E+01  0.30786147726E+02  0.00000000000E+00 0. -1.
         21    1    1    2  504  501 -0.10900645766E+03  0.18859623562E+03 -0.86692731102E+02  0.23444952022E+03  0.00000000000E+00 0. -1.
<mgrwt>
<rscale>  4 0.27185270E+03</rscale>
<asrwt>0</asrwt>
<pdfrwt beam="1">  1       21 0.37139347E-01 0.27185270E+03</pdfrwt>
<pdfrwt beam="2">  1       21 0.45895857E-01 0.27185270E+03</pdfrwt>
<totfact> 0.30640460E+04</totfact>
</mgrwt>
</event>
<event>
 5    0  0.1829809E+000  0.3027912E+03  0.7546771E-02  0.1083854E+00
         21   -1    0    0  502  501  0.00000000000E+00  0.00000000000E+00  0.30519835976E+03  0.30519835976E+03  0.00000000000E+00 0.  1.
         21   -1    0    0  503  502 -0.00000000000E+00 -0.00000000000E+00 -0.34291935529E+03  0.34291935529E+03  0.00000000000E+00 0.  1.
         25    1    1    2    0    0 -0.84539017826E+02  0.26250835423E+03  0.10871464402E+03  0.32171626536E+03  0.12500000000E+03 0.  0.
         21    1    1    2  503  504  0.69168060926E+02 -0.95679209608E+02 -0.93810312476E+02  0.15079491547E+03  0.00000000000E+00 0.  1.
         21    1    1    2  504  501  0.15370956900E+02 -0.16682914462E+03 -0.52625327071E+02  0.17560653422E+03  0.00000000000E+00 0.  1.
<mgrwt>
<rscale>  4 0.30279115E+03</rscale>
<asrwt>0</asrwt>
<pdfrwt beam="1">  1       21 0.46953594E-01 0.30279115E+03</pdfrwt>
<pdfrwt beam="2">  1       21 0.52756824E-01 0.30279115E+03</pdfrwt>
<totfact> 0.13953105E+04</totfact>
</mgrwt>
</event>
<event>
 5    0  0.1829809E+000  0.2564180E+03  0.7546771E-02  0.1109315E+00
         21   -1    0    0  502  501  0.00000000000E+00  0.00000000000E+00  0.96813412404E+02  0.96813412404E+02  0.00000000000E+00 0.  1.
         21   -1    0    0  503  502 -0.00000000000E+00 -0.00000000000E+00 -0.87631285618E+03  0.87631285618E+03  0.00000000000E+00 0. -1.
         25    1    1    2    0    0  0.55996065612E+02 -0.21677095805E+03 -0.13606965299E+03  0.29028461565E+03  0.12500000000E+03 0.  0.
         21    1    1    2  503  504 -0.50447892497E+02  0.11612091517E+03 -0.39282039398E+03  0.41271893429E+03  0.00000000000E+00 0. -1.
         21    1    1    2  504  501 -0.55481731146E+01  0.10065004289E+03 -0.25060939681E+03  0.27012271864E+03  0.00000000000E+00 0. -1.
<mgrwt>
<rscale>  4 0.25641803E+03</rscale>
<asrwt>0</asrwt>
<pdfrwt beam="1">  1       21 0.14894371E-01 0.25641803E+03</pdfrwt>
<pdfrwt beam="2">  1       21 0.13481736E+00 0.25641803E+03</pdfrwt>
<totfact> 0.15061727E+04</totfact>
</mgrwt>
</event>
<event>
 5    0  0.1829809E+000  0.2822347E+03  0.7546771E-02  0.1094475E+00
         21   -1    0    0  502  501  0.00000000000E+00  0.00000000000E+00  0.11537420054E+03  0.11537420054E+03  0.00000000000E+00 0. -1.
         21   -1    0    0  503  502 -0.00000000000E+00 -0.00000000000E+00 -0.95643748814E+03  0.95643748814E+03  0.00000000000E+00 0. -1.
         25    1    1    2    0    0 -0.19634947029E+03  0.15961924627E+03 -0.12270196402E+03  0.30775345691E+03  0.12500000000E+03 0.  0.
         21    1    1    2  503  504  0.19298437387E+02 -0.95704551949E+01 -0.12650461914E+03  0.12832553122E+03  0.00000000000E+00 0. -1.
         21    1    1    2  504  501  0.17705103291E+03 -0.15004879108E+03 -0.59185670445E+03  0.63573270056E+03  0.00000000000E+00 0. -1.
<mgrwt>
<rscale>  4 0.28223469E+03</rscale>
<asrwt>0</asrwt>
<pdfrwt beam="1">  1       21 0.17749876E-01 0.28223469E+03</pdfrwt>
<pdfrwt beam="2">  1       21 0.14714423E+00 0.28223469E+03</pdfrwt>
<totfact> 0.85434272E+03</totfact>
</mgrwt>
</event>
<event>
 5    0  0.1829809E+000  0.2548530E+03  0.7546771E-02  0.1110276E+00
         21   -1    0    0  502  501  0.00000000000E+00  0.00000000000E+00  0.68999557120E+03  0.68999557120E+03  0.00000000000E+00 0. -1.
         21   -1    0    0  503  502 -0.00000000000E+00 -0.00000000000E+00 -0.20071012471E+03  0.20071012471E+03  0.00000000000E+00 0. -1.
         25    1    1    2    0    0 -0.95102563462E+02 -0.20070020470E+03  0.58600444472E+03  0.63902369203E+03  0.12500000000E+03 0.  0.
         21    1    1    2  503  504  0.10063553847E+03  0.14752164714E+03 -0.68869023529E+02  0.19139772825E+03  0.00000000000E+00 0. -1.
         21    1    1    2  504  501 -0.55329750063E+01  0.53178557566E+02 -0.27849974705E+02  0.60284275630E+02  0.00000000000E+00 0.  1.
<mgrwt>
<rscale>  4 0.25485304E+03</rscale>
<asrwt>0</asrwt>
<pdfrwt beam="1">  1       21 0.10615316E+00 0.25485304E+03</pdfrwt>
<pdfrwt beam="2">  1       21 0.30878481E-01 0.25485304E+03</pdfrwt>
<totfact> 0.68734761E+03</totfact>
</mgrwt>
</event>
<event>
 5    0  0.1829809E+000  0.2989881E+03  0.7546771E-02  0.1085748E+00
         21   -1    0    0  502  501  0.00000000000E+00  0.00000000000E+00  0.10328608741E+04  0.10328608741E+04  0.00000000000E+00 0.  1.
         21   -1    0    0  503  502 -0.00000000000E+00 -0.00000000000E+00 -0.22447689805E+03  0.22447689805E+03  0.00000000000E+00 0. -1.
         25    1    1    2    0    0 -0.24472698495E+03  0.11780326178E+03  0.91274377890E+03  0.96046609080E+03  0.12500000000E+03 0.  0.
         21    1    1    2  503  504  0.14619430668E+02 -0.18390830591E+02 -0.24138201963E+02  0.33683871465E+02  0.00000000000E+00 0.  1.
         21    1    1    2  504  501  0.23010755428E+03 -0.99412431186E+02 -0.80221600911E+02  0.26318780987E+03  0.00000000000E+00 0. -1.
<mgrwt>
<rscale>  4 0.29898814E+03</rscale>
<asrwt>0</asrwt>
<pdfrwt beam="1">  1       21 0.15890167E+00 0.29898814E+03</pdfrwt>
<pdfrwt beam="2">  1       21 0.34534908E-01 0.29898814E+03</pdfrwt>
<totfact> 0.19057206E+03</totfact>
</mgrwt>
</event>
<event>
 5    0  0.1829809E+000  0.2825825E+03  0.7546771E-02  0.1094287E+00
         21   -1    0    0  502  501  0.00000000000E+00  0.00000000000E+00  0.23672449261E+04  0.23672449261E+04  0.00000000000E+00 0.  1.
         21   -1    0    0  503  502 -0.00000000000E+00 -0.00000000000E+00 -0.13135631007E+03  0.13135631007E+03  0.00000000000E+00 0.  1.
         25    1    1    2    0    0  0.12658000532E+02 -0.25311586078E+03  0.22177922031E+04  0.22357225052E+04  0.12500000000E+03 0.  0.
         21    1    1    2  503  504 -0.12071207769E+02  0.16179698246E+03 -0.20886419790E+02  0.16358551318E+03  0.00000000000E+00 0.  1.
         21    1    1    2  504  501 -0.58679276347E+00  0.91318878317E+02  0.38982832738E+02  0.99293217850E+02  0.00000000000E+00 0.  1.
<mgrwt>
<rscale>  4 0.28258249E+03</rscale>
<asrwt>0</asrwt>
<pdfrwt beam="1">  1       21 0.36419149E+00 0.28258249E+03</pdfrwt>
<pdfrwt beam="2">  1       21 0.20208665E-01 0.28258249E+03</pdfrwt>
<totfact> 0.28913360E+02</totfact>
</mgrwt>
</event>
<event>
 5    0  0.1829809E+000  0.2359621E+03  0.7546771E-02  0.1122512E+00
         21   -1    0    0  502  501  0.00000000000E+00  0.00000000000E+00  0.12425511873E+03  0.12425511873E+03  0.00000000000E+00 0.  1.
         21   -1    0    0  503  502 -0.00000000000E+00 -0.00000000000E+00 -0.44546363731E+03  0.44546363731E+03  0.00000000000E+00 0. -1.
         25    1    1    2    0    0  0.31188924899E+02  0.19768748760E+03 -0.98501538778E+02  0.25569639210E+03  0.12500000000E+03 0.  0.
         21    1    1    2  503  504 -0.51681187055E+02 -0.82351021857E+02 -0.62590833920E+02  0.11562979022E+03  0.00000000000E+00 0. -1.
         21    1    1    2  504  501  0.20492262155E+02 -0.11533646574E+03 -0.16011614588E+03  0.19839257372E+03  0.00000000000E+00 0. -1.
<mgrwt>
<rscale>  4 0.23596206E+03</rscale>
<asrwt>0</asrwt>
<pdfrwt beam="1">  1       21 0.19116172E-01 0.23596206E+03</pdfrwt>
<pdfrwt beam="2">  1       21 0.68532868E-01 0.23596206E+03</pdfrwt>
<totfact> 0.47770062E+04</totfact>
</mgrwt>
</event>
<event>
 5    0  0.1829809E+000  0.2368091E+03  0.7546771E-02  0.1121937E+00
         21   -1    0    0  502  501  0.00000000000E+00  0.00000000000E+00  0.19000116084E+03  0.19000116084E+03  0.00000000000E+00 0.  1.
         21   -1    0    0  503  502 -0.00000000000E+00 -0.00000000000E+00 -0.12168392907E+04  0.12168392907E+04  0.00000000000E+00 0. -1.
         25    1    1    2    0    0 -0.34327221235E+02 -0.19888567302E+03  0.99982793588E+02  0.25759547369E+03  0.12500000000E+03 0.  0.
         21    1    1    2  503  504  0.33573009333E+01  0.19445625653E+03 -0.98447829170E+03  0.10035048650E+04  0.00000000000E+00 0. -1.
         21    1    1    2  504  501  0.30969920302E+02  0.44294164944E+01 -0.14234263176E+03  0.14574011291E+03  0.00000000000E+00 0. -1.
<mgrwt>
<rscale>  4 0.23680907E+03</rscale>
<asrwt>0</asrwt>
<pdfrwt beam="1">  1       21 0.29230947E-01 0.23680907E+03</pdfrwt>
<pdfrwt beam="2">  1       21 0.18720605E+00 0.23680907E+03</pdfrwt>
<totfact> 0.17492186E+03</totfact>
</mgrwt>
</event>
<event>
 5    0  0.1829809E+000  0.1986064E+03  0.7546771E-02  0.1150920E+00
         21   -1    0    0  502  501  0.00000000000E+00  0.00000000000E+00  0.18815120888E+03  0.18815120888E+03  0.00000000000E+00 0.  1.
         21   -1    0    0  503  502 -0.00000000000E+00 -0.00000000000E+00 -0.30940588596E+03  0.30940588596E+03  0.00000000000E+00 0.  1.
         25    1    1    2    0    0 -0.12305600560E+03  0.15816505334E+03 -0.10541660527E+03  0.25864381933E+03  0.12500000000E+03 0.  0.
         21    1    1    2  503  504  0.15012864911E+02 -0.83231722660E+02  0.42983118330E+02  0.94870723784E+02  0.00000000000E+00 0.  1.
         21    1    1    2  504  501  0.10804314069E+03 -0.74933330680E+02 -0.58821190139E+02  0.14404255172E+03  0.00000000000E+00 0.  1.
<mgrwt>
<rscale>  4 0.19860640E+03</rscale>
<asrwt>0</asrwt>
<pdfrwt beam="1">  1       21 0.28946340E-01 0.19860640E+03</pdfrwt>
<pdfrwt beam="2">  1       21 0.47600905E-01 0.19860640E+03</pdfrwt>
<totfact> 0.48069673E+04</totfact>
</mgrwt>
</event>
<event>
 5    0  0.1829809E+000  0.2429621E+03  0.7546771E-02  0.1117835E+00
         21   -1    0    0  502  501  0.00000000000E+00  0.00000000000E+00  0.94518692938E+03  0.94518692938E+03  0.00000000000E+00 0. -1.
         21   -1    0    0  503  502 -0.00000000000E+00 -0.00000000000E+00 -0.18751823453E+03  0.18751823453E+03  0.00000000000E+00 0.  1.
         25    1    1    2    0    0 -0.19354978351E+03 -0.10001029723E+03  0.81216516638E+03  0.85011813045E+03  0.12500000000E+03 0.  0.
         21    1    1    2  503  504  0.10004714103E+03  0.10613204795E+03 -0.10155928660E+03  0.17772937497E+03  0.00000000000E+00 0.  1.
         21    1    1    2  504  501  0.93502642480E+02 -0.61217507232E+01  0.47062815079E+02  0.10485765850E+03  0.00000000000E+00 0. -1.
<mgrwt>
<rscale>  4 0.24296212E+03</rscale>
<asrwt>0</asrwt>
<pdfrwt beam="1">  1       21 0.14541337E+00 0.24296212E+03</pdfrwt>
<pdfrwt beam="2">  1       21 0.28848960E-01 0.24296212E+03</pdfrwt>
<totfact> 0.35812010E+03</totfact>
</mgrwt>
</event>
<event>
 5    0  0.1829809E+000  0.3619505E+03  0.7546771E-02  0.1057814E+00
         21   -1    0    0  502  501  0.00000000000E+00  0.00000000000E+00  0.13820173916E+03  0.13820173916E+03  0.00000000000E+00 0. -1.
         21   -1    0    0  503  502 -0.00000000000E+00 -0.00000000000E+00 -0.99589001198E+03  0.99589001198E+03  0.00000000000E+00 0. -1.
         25    1    1    2    0    0 -0.33877609880E+03 -0.24777604439E+02 -0.27381206968E+03  0.45385154434E+03  0.12500000000E+03 0.  0.
         21    1    1    2  503  504  0.99203038089E+02  0.21598380699E+02 -0.11298231345E+03  0.15189712297E+03  0.00000000000E+00 0. -1.
         21    1    1    2  504  501  0.23957306071E+03  0.31792237403E+01 -0.47089388969E+03  0.52834308383E+03  0.00000000000E+00 0. -1.
<mgrwt>
<rscale>  4 0.36195051E+03</rscale>
<asrwt>0</asrwt>
<pdfrwt beam="1">  1       21 0.21261806E-01 0.36195051E+03</pdfrwt>
<pdfrwt beam="2">  1       21 0.15321385E+00 0.36195051E+03</pdfrwt>
<totfact> 0.52463826E+03</totfact>
</mgrwt>
</event>
<event>
 5    0  0.1829809E+000  0.2243124E+03  0.7546771E-02  0.1130708E+00
         21   -1    0    0  502  501  0.00000000000E+00  0.00000000000E+00  0.17152064547E+03  0.17152064547E+03  0.00000000000E+00 0. -1.
         21   -1    0    0  503  502 -0.00000000000E+00 -0.00000000000E+00 -0.44427337020E+03  0.44427337020E+03  0.00000000000E+00 0. -1.
         25    1    1    2    0    0  0.16880968866E+03  0.17496470919E+03 -0.12329956833E+03  0.29989522170E+03  0.12500000000E+03 0.  0.
         21    1    1    2  503  504 -0.81916023685E+02 -0.13954607683E+03 -0.30954549946E+02  0.16474685629E+03  0.00000000000E+00 0. -1.
         21    1    1    2  504  501 -0.86893664975E+02 -0.35418632364E+02 -0.11849860646E+03  0.15115193768E+03  0.00000000000E+00 0. -1.
<mgrwt>
<rscale>  4 0.22431243E+03</rscale>
<asrwt>0</asrwt>
<pdfrwt beam="1">  1       21 0.26387791E-01 0.22431243E+03</pdfrwt>
<pdfrwt beam="2">  1       21 0.68349750E-01 0.22431243E+03</pdfrwt>
<totfact> 0.26211700E+04</totfact>
</mgrwt>
</event>
<event>
 5    0  0.1829809E+000  0.2885178E+03  0.7546771E-02  0.1091126E+00
         21   -1    0    0  502  501  0.00000000000E+00  0.00000000000E+00  0.65232081091E+02  0.65232081091E+02  0.00000000000E+00 0.  1.
         21   -1    0    0  503  502 -0.00000000000E+00 -0.00000000000E+00 -0.13717550914E+04  0.13717550914E+04  0.00000000000E+00 0.  1.
         25    1    1    2    0    0  0.26415645984E+03 -0.31843559347E+02 -0.85160704210E+03  0.90091742224E+03  0.12500000000E+03 0.  0.
         21    1    1    2  503  504 -0.69806367434E+01  0.21982599347E+02 -0.64101876334E+02  0.68124991838E+02  0.00000000000E+00 0.  1.
         21    1    1    2  504  501 -0.25717582310E+03  0.98609599996E+01 -0.39081409191E+03  0.46794475844E+03  0.00000000000E+00 0.  1.
<mgrwt>
<rscale>  4 0.28851783E+03</rscale>
<asrwt>0</asrwt>
<pdfrwt beam="1">  1       21 0.10035706E-01 0.28851783E+03</pdfrwt>
<pdfrwt beam="2">  1       21 0.21103923E+00 0.28851783E+03</pdfrwt>
<totfact> 0.85940956E+03</totfact>
</mgrwt>
</event>
<event>
 5    0  0.1829809E+000  0.2394505E+03  0.7546771E-02  0.1120159E+00
         21   -1    0    0  502  501  0.00000000000E+00  0.00000000000E+00  0.45174354129E+03  0.45174354129E+03  0.00000000000E+00 0.  1.
         21   -1    0    0  503  502 -0.00000000000E+00 -0.00000000000E+00 -0.28880287047E+03  0.28880287047E+03  0.00000000000E+00 0. -1.
         25    1    1    2    0    0 -0.20267675888E+03 -0.10147545780E+03  0.33749277983E+03  0.42532518567E+03  0.12500000000E+03 0.  0.
         21    1    1    2  503  504  0.18487986758E+02  0.19157080410E+02  0.21262193389E+02  0.34071692824E+02  0.00000000000E+00 0.  1.
         21    1    1    2  504  501  0.18418877212E+03  0.82318377391E+02 -0.19581430240E+03  0.28114953327E+03  0.00000000000E+00 0. -1.
<mgrwt>
<rscale>  4 0.23945053E+03</rscale>
<asrwt>0</asrwt>
<pdfrwt beam="1">  1       21 0.69499006E-01 0.23945053E+03</pdfrwt>
<pdfrwt beam="2">  1       21 0.44431211E-01 0.23945053E+03</pdfrwt>
<totfact> 0.88805071E+03</totfact>
</mgrwt>
</event>
<event>
 5    0  0.1829809E+000  0.4335245E+03  0.7546771E-02  0.1032752E+00
         21   -1    0    0  502  501  0.00000000000E+00  0.00000000000E+00  0.31796624948E+03  0.31796624948E+03  0.00000000000E+00 0.  1.
         21   -1    0    0  503  502 -0.00000000000E+00 -0.00000000000E+00 -0.98030923486E+03  0.98030923486E+03  0.00000000000E+00 0.  1.
         25    1    1    2    0    0 -0.11541897921E+03  0.39874423755E+03  0.79039287126E+02  0.44067075766E+03  0.12500000000E+03 0.  0.
         21    1    1    2  503  504  0.13076091719E+03 -0.28497599383E+03 -0.58339541345E+03  0.66231408180E+03  0.00000000000E+00 0.  1.
         21    1    1    2  504  501 -0.15341937976E+02 -0.11376824372E+03 -0.15798685906E+03  0.19529064488E+03  0.00000000000E+00 0.  1.
<mgrwt>
<rscale>  4 0.43352452E+03</rscale>
<asrwt>0</asrwt>
<pdfrwt beam="1">  1       21 0.48917885E-01 0.43352452E+03</pdfrwt>
<pdfrwt beam="2">  1       21 0.15081680E+00 0.43352452E+03</pdfrwt>
<totfact> 0.99942192E+02</totfact>
</mgrwt>
</event>
<event>
 5    0  0.1829809E+000  0.2902211E+03  0.7546771E-02  0.1090234E+00
         21   -1    0    0  502  501  0.00000000000E+00  0.00000000000E+00  0.15724404093E+04  0.15724404093E+04  0.00000000000E+00 0. -1.
         21   -1    0    0  503  502 -0.00000000000E+00 -0.00000000000E+00 -0.15847069711E+03  0.15847069711E+03  0.00000000000E+00 0. -1.
         25    1    1    2    0    0 -0.57612267607E+02 -0.25700693086E+03  0.14055166723E+04  0.14354350741E+04  0.12500000000E+03 0.  0.
         21    1    1    2  503  504 -0.27353644040E+02  0.21363758441E+02  0.27468055927E+02  0.44262016599E+02  0.00000000000E+00 0.  1.
         21    1    1    2  504  501  0.84965911647E+02  0.23564317242E+03 -0.19015016037E+02  0.25121401570E+03  0.00000000000E+00 0. -1.
<mgrwt>
<rscale>  4 0.29022108E+03</rscale>
<asrwt>0</asrwt>
<pdfrwt beam="1">  1       21 0.24191390E+00 0.29022108E+03</pdfrwt>
<pdfrwt beam="2">  1       21 0.24380108E-01 0.29022108E+03</pdfrwt>
<totfact> 0.10717640E+03</totfact>
</mgrwt>
</event>
<event>
 5    0  0.1829809E+000  0.2533165E+03  0.7546771E-02  0.1111227E+00
         21   -1    0    0  502  501  0.00000000000E+00  0.00000000000E+00  0.75911015043E+03  0.75911015043E+03  0.00000000000E+00 0. -1.
         21   -1    0    0  503  502 -0.00000000000E+00 -0.00000000000E+00 -0.24162302469E+03  0.24162302469E+03  0.00000000000E+00 0. -1.
         25    1    1    2    0    0  0.16654459127E+03  0.14424682703E+03  0.67754456852E+03  0.72335046161E+03  0.12500000000E+03 0.  0.
         21    1    1    2  503  504 -0.48668788979E+02 -0.39867362928E+02 -0.76794437588E+02  0.99274585327E+02  0.00000000000E+00 0. -1.
         21    1    1    2  504  501 -0.11787580229E+03 -0.10437946410E+03 -0.83263005194E+02  0.17810812818E+03  0.00000000000E+00 0. -1.
<mgrwt>
<rscale>  4 0.25331650E+03</rscale>
<asrwt>0</asrwt>
<pdfrwt beam="1">  1       21 0.11678618E+00 0.25331650E+03</pdfrwt>
<pdfrwt beam="2">  1       21 0.37172773E-01 0.25331650E+03</pdfrwt>
<totfact> 0.37654945E+03</totfact>
</mgrwt>
</event>
<event>
 5    0  0.1829809E+000  0.3305341E+03  0.7546771E-02  0.1070901E+00
         21   -1    0    0  502  501  0.00000000000E+00  0.00000000000E+00  0.13609430059E+03  0.13609430059E+03  0.00000000000E+00 0.  1.
         21   -1    0    0  503  502 -0.00000000000E+00 -0.00000000000E+00 -0.88488341810E+03  0.88488341810E+03  0.00000000000E+00 0.  1.
         25    1    1    2    0    0  0.33358366758E+02  0.30416283583E+03 -0.57999454739E+03  0.66756758934E+03  0.12500000000E+03 0.  0.
         21    1    1    2  503  504 -0.31061568715E+02 -0.26910319382E+03 -0.16699896057E+03  0.31822948136E+03  0.00000000000E+00 0.  1.
         21    1    1    2  504  501 -0.22967980438E+01 -0.35059642010E+02 -0.17956095440E+01  0.35180647987E+02  0.00000000000E+00 0. -1.
<mgrwt>
<rscale>  4 0.33053413E+03</rscale>
<asrwt>0</asrwt>
<pdfrwt beam="1">  1       21 0.20937585E-01 0.33053413E+03</pdfrwt>
<pdfrwt beam="2">  1       21 0.13613591E+00 0.33053413E+03</pdfrwt>
<totfact> 0.75041542E+03</totfact>
</mgrwt>
</event>
<event>
 5    0  0.1829809E+000  0.2390865E+03  0.7546771E-02  0.1120403E+00
         21   -1    0    0  502  501  0.00000000000E+00  0.00000000000E+00  0.51646362896E+03  0.51646362896E+03  0.00000000000E+00 0. -1.
         21   -1    0    0  503  502 -0.00000000000E+00 -0.00000000000E+00 -0.23574001819E+03  0.23574001819E+03  0.00000000000E+00 0. -1.
         25    1    1    2    0    0 -0.16799296462E+03 -0.11539369938E+03  0.43212290842E+03  0.49385478635E+03  0.12500000000E+03 0.  0.
         21    1    1    2  503  504  0.14160462326E+03  0.11404328555E+03 -0.12274802743E+03  0.21937369611E+03  0.00000000000E+00 0. -1.
         21    1    1    2  504  501  0.26388341363E+02  0.13504138238E+01 -0.28651270217E+02  0.38975164687E+02  0.00000000000E+00 0.  1.
<mgrwt>
<rscale>  4 0.23908647E+03</rscale>
<asrwt>0</asrwt>
<pdfrwt beam="1">  1       21 0.79455942E-01 0.23908647E+03</pdfrwt>
<pdfrwt beam="2">  1       21 0.36267695E-01 0.23908647E+03</pdfrwt>
<totfact> 0.99385190E+03</totfact>
</mgrwt>
</event>
<event>
 5    0  0.1829809E+000  0.2448181E+03  0.7546771E-02  0.1116624E+00
         21   -1    0    0  502  501  0.00000000000E+00  0.00000000000E+00  0.53624126167E+03  0.53624126167E+03  0.00000000000E+00 0.  1.
         21   -1    0    0  503  502 -0.00000000000E+00 -0.00000000000E+00 -0.20048942775E+03  0.20048942775E+03  0.00000000000E+00 0.  1.
         25    1    1    2    0    0 -0.15654588782E+03 -0.14072769770E+03  0.41913353501E+03  0.48539552951E+03  0.12500000000E+03 0.  0.
         21    1    1    2  503  504  0.37508949231E+02  0.93000059259E+02 -0.36974539012E+01  0.10034741382E+03  0.00000000000E+00 0.  1.
         21    1    1    2  504  501  0.11903693859E+03  0.47727638436E+02 -0.79684247197E+02  0.15098774610E+03  0.00000000000E+00 0.  1.
<mgrwt>
<rscale>  4 0.24481810E+03</rscale>
<asrwt>0</asrwt>
<pdfrwt beam="1">  1       21 0.82498655E-01 0.24481810E+03</pdfrwt>
<pdfrwt beam="2">  1       21 0.30844528E-01 0.24481810E+03</pdfrwt>
<totfact> 0.12541751E+04</totfact>
</mgrwt>
</event>
<event>
 5    0  0.1829809E+000  0.2547964E+03  0.7546771E-02  0.1110311E+00
         21   -1    0    0  502  501  0.00000000000E+00  0.00000000000E+00  0.64924531962E+03  0.64924531962E+03  0.00000000000E+00 0.  1.
         21   -1    0    0  503  502 -0.00000000000E+00 -0.00000000000E+00 -0.16570304020E+03  0.16570304020E+03  0.00000000000E+00 0.  1.
         25    1    1    2    0    0  0.95889441924E+01  0.22182028235E+03  0.52611827324E+03  0.58456960488E+03  0.12500000000E+03 0.  0.
         21    1    1    2  503  504 -0.26004502995E+02 -0.14696494959E+03 -0.35548794655E+02  0.15342309926E+03  0.00000000000E+00 0.  1.
         21    1    1    2  504  501  0.16415558803E+02 -0.74855332759E+02 -0.70271991583E+01  0.76955655681E+02  0.00000000000E+00 0.  1.
<mgrwt>
<rscale>  4 0.25479636E+03</rscale>
<asrwt>0</asrwt>
<pdfrwt beam="1">  1       21 0.99883894E-01 0.25479636E+03</pdfrwt>
<pdfrwt beam="2">  1       21 0.25492776E-01 0.25479636E+03</pdfrwt>
<totfact> 0.11561795E+04</totfact>
</mgrwt>
</event>
<event>
 5    0  0.1829809E+000  0.2570818E+03  0.7546771E-02  0.1108909E+00
         21   -1    0    0  502  501  0.00000000000E+00  0.00000000000E+00  0.99909271941E+03  0.99909271941E+03  0.00000000000E+00 0.  1.
         21   -1    0    0  503  502 -0.00000000000E+00 -0.00000000000E+00 -0.61198138761E+02  0.61198138761E+02  0.00000000000E+00 0.  1.
         25    1    1    2    0    0 -0.89411812382E+02  0.20608631666E+03  0.58184900647E+03  0.63611265389E+03  0.12500000000E+03 0.  0.
         21    1    1    2  503  504  0.37943938342E+02 -0.10541956652E+03  0.13136853467E+03  0.17265781002E+03  0.00000000000E+00 0.  1.
         21    1    1    2  504  501  0.51467874041E+02 -0.10066675015E+03  0.22467703952E+03  0.25152039426E+03  0.00000000000E+00 0.  1.
<mgrwt>
<rscale>  4 0.25708178E+03</rscale>
<asrwt>0</asrwt>
<pdfrwt beam="1">  1       21 0.15370656E+00 0.25708178E+03</pdfrwt>
<pdfrwt beam="2">  1       21 0.94150990E-02 0.25708178E+03</pdfrwt>
<totfact> 0.24351342E+04</totfact>
</mgrwt>
</event>
<event>
 5    0  0.1829809E+000  0.2449964E+03  0.7546771E-02  0.1116508E+00
         21   -1    0    0  502  501  0.00000000000E+00  0.00000000000E+00  0.99807577145E+03  0.99807577145E+03  0.00000000000E+00 0.  1.
         21   -1    0    0  503  502 -0.00000000000E+00 -0.00000000000E+00 -0.10704767405E+03  0.10704767405E+03  0.00000000000E+00 0.  1.
         25    1    1    2    0    0  0.10134771605E+03  0.19215939563E+03  0.82716676780E+03  0.86430692155E+03  0.12500000000E+03 0.  0.
         21    1    1    2  503  504  0.26937807290E+01 -0.34345326652E+02 -0.12919941305E+02  0.36793787529E+02  0.00000000000E+00 0.  1.
         21    1    1    2  504  501 -0.10404149678E+03 -0.15781406898E+03  0.76781270901E+02  0.20402273643E+03  0.00000000000E+00 0.  1.
<mgrwt>
<rscale>  4 0.24499644E+03</rscale>
<asrwt>0</asrwt>
<pdfrwt beam="1">  1       21 0.15355011E+00 0.24499644E+03</pdfrwt>
<pdfrwt beam="2">  1       21 0.16468874E-01 0.24499644E+03</pdfrwt>
<totfact> 0.89548679E+03</totfact>
</mgrwt>
</event>
<event>
 5    0  0.1829809E+000  0.2833541E+03  0.7546771E-02  0.1093871E+00
         21   -1    0    0  502  501  0.00000000000E+00  0.00000000000E+00  0.30644467071E+03  0.30644467071E+03  0.00000000000E+00 0. -1.
         21   -1    0    0  503  502 -0.00000000000E+00 -0.00000000000E+00 -0.50130555917E+03  0.50130555917E+03  0.00000000000E+00 0. -1.
         25    1    1    2    0    0 -0.87959394069E+02  0.23859520794E+03  0.19259147268E+03  0.34260911197E+03  0.12500000000E+03 0.  0.
         21    1    1    2  503  504  0.87378592766E+02 -0.20822864799E+03 -0.32573513036E+03  0.39635534999E+03  0.00000000000E+00 0. -1.
         21    1    1    2  504  501  0.58080130348E+00 -0.30366559956E+02 -0.61717230781E+02  0.68785767925E+02  0.00000000000E+00 0. -1.
<mgrwt>
<rscale>  4 0.28335407E+03</rscale>
<asrwt>0</asrwt>
<pdfrwt beam="1">  1       21 0.47145335E-01 0.28335407E+03</pdfrwt>
<pdfrwt beam="2">  1       21 0.77123931E-01 0.28335407E+03</pdfrwt>
<totfact> 0.60694346E+03</totfact>
</mgrwt>
</event>
<event>
 5    0  0.1829809E+000  0.4298525E+03  0.7546771E-02  0.1033907E+00
         21   -1    0    0  502  501  0.00000000000E+00  0.00000000000E+00  0.48587709408E+03  0.48587709408E+03  0.00000000000E+00 0. -1.
         21   -1    0    0  503  502 -0.00000000000E+00 -0.00000000000E+00 -0.68963552860E+03  0.68963552860E+03  0.00000000000E+00 0. -1.
         25    1    1    2    0    0  0.47852453391E+03  0.19181151237E+02  0.84717830456E+02  0.50215112955E+03  0.12500000000E+03 0.  0.
         21    1    1    2  503  504 -0.36443917021E+03 -0.15488337139E+03 -0.29835036047E+03  0.49580006566E+03  0.00000000000E+00 0. -1.
         21    1    1    2  504  501 -0.11408536370E+03  0.13570222015E+03  0.98740955011E+01  0.17756142748E+03  0.00000000000E+00 0. -1.
<mgrwt>
<rscale>  4 0.42985245E+03</rscale>
<asrwt>0</asrwt>
<pdfrwt beam="1">  1       21 0.74750323E-01 0.42985245E+03</pdfrwt>
<pdfrwt beam="2">  1       21 0.10609777E+00 0.42985245E+03</pdfrwt>
<totfact> 0.97765221E+02</totfact>
</mgrwt>
</event>
<event>
 5    0  0.1829809E+000  0.2412968E+03  0.7546771E-02  0.1118932E+00
         21   -1    0    0  502  501  0.00000000000E+00  0.00000000000E+00  0.15819046042E+03  0.15819046042E+03  0.00000000000E+00 0. -1.
         21   -1    0    0  503  502 -0.00000000000E+00 -0.00000000000E+00 -0.50555328823E+03  0.50555328823E+03  0.00000000000E+00 0. -1.
         25    1    1    2    0    0 -0.19783932370E+03 -0.58810914788E+02  0.16621602706E+02  0.24186855806E+03  0.12500000000E+03 0.  0.
         21    1    1    2  503  504  0.21733848144E+02  0.54402941538E+01 -0.13875885619E+02  0.26353313973E+02  0.00000000000E+00 0. -1.
         21    1    1    2  504  501  0.17610547556E+03  0.53370620635E+02 -0.35010854490E+03  0.39552187662E+03  0.00000000000E+00 0. -1.
<mgrwt>
<rscale>  4 0.24129675E+03</rscale>
<asrwt>0</asrwt>
<pdfrwt beam="1">  1       21 0.24336994E-01 0.24129675E+03</pdfrwt>
<pdfrwt beam="2">  1       21 0.77777429E-01 0.24129675E+03</pdfrwt>
<totfact> 0.22750239E+04</totfact>
</mgrwt>
</event>
<event>
 5    0  0.1829809E+000  0.2431207E+03  0.7546771E-02  0.1117731E+00
         21   -1    0    0  502  501  0.00000000000E+00  0.00000000000E+00  0.78491779588E+02  0.78491779588E+02  0.00000000000E+00 0.  1.
         21   -1    0    0  503  502 -0.00000000000E+00 -0.00000000000E+00 -0.69693637673E+03  0.69693637673E+03  0.00000000000E+00 0.  1.
         25    1    1    2    0    0 -0.18451246325E+03 -0.97148405129E+02 -0.24722987088E+03  0.34674236944E+03  0.12500000000E+03 0.  0.
         21    1    1    2  503  504  0.34675604591E+02 -0.17441162291E+01 -0.54239041979E+02  0.64399636412E+02  0.00000000000E+00 0.  1.
         21    1    1    2  504  501  0.14983685865E+03  0.98892521359E+02 -0.31697568428E+03  0.36428615046E+03  0.00000000000E+00 0.  1.
<mgrwt>
<rscale>  4 0.24312067E+03</rscale>
<asrwt>0</asrwt>
<pdfrwt beam="1">  1       21 0.12075658E-01 0.24312067E+03</pdfrwt>
<pdfrwt beam="2">  1       21 0.10722098E+00 0.24312067E+03</pdfrwt>
<totfact> 0.39296432E+04</totfact>
</mgrwt>
</event>
<event>
 5    0  0.1829809E+000  0.2421587E+03  0.7546771E-02  0.1118363E+00
         21   -1    0    0  502  501  0.00000000000E+00  0.00000000000E+00  0.46998238119E+03  0.46998238119E+03  0.00000000000E+00 0.  1.
         21   -1    0    0  503  502 -0.00000000000E+00 -0.00000000000E+00 -0.11584343267E+03  0.11584343267E+03  0.00000000000E+00 0.  1.
         25    1    1    2    0    0  0.43509378783E+02  0.20278749304E+03  0.22809409658E+03  0.33266762732E+03  0.12500000000E+03 0.  0.
         21    1    1    2  503  504 -0.45071801206E+02 -0.16716769819E+03  0.13106700532E+03  0.21715217353E+03  0.00000000000E+00 0.  1.
         21    1    1    2  504  501  0.15624224232E+01 -0.35619794843E+02 -0.50221533817E+01  0.36006013013E+02  0.00000000000E+00 0.  1.
<mgrwt>
<rscale>  4 0.24215869E+03</rscale>
<asrwt>0</asrwt>
<pdfrwt beam="1">  1       21 0.72304980E-01 0.24215869E+03</pdfrwt>
<pdfrwt beam="2">  1       21 0.17822067E-01 0.24215869E+03</pdfrwt>
<totfact> 0.48204003E+04</totfact>
</mgrwt>
</event>
<event>
 5    0  0.1829809E+000  0.2058411E+03  0.7546771E-02  0.1144902E+00
         21   -1    0    0  502  501  0.00000000000E+00  0.00000000000E+00  0.10654390948E+04  0.10654390948E+04  0.00000000000E+00 0. -1.
         21   -1    0    0  503  502 -0.00000000000E+00 -0.00000000000E+00 -0.63979957861E+02  0.63979957861E+02  0.00000000000E+00 0. -1.
         25    1    1    2    0    0 -0.20972547783E+03 -0.49081037497E+02  0.41731400484E+03  0.48597294464E+03  0.12500000000E+03 0.  0.
         21    1    1    2  503  504  0.85969374202E+02 -0.35195314739E+02  0.99163159500E+02  0.13587779687E+03  0.00000000000E+00 0. -1.
         21    1    1    2  504  501  0.12375610363E+03  0.84276352236E+02  0.48498197263E+03  0.50756831117E+03  0.00000000000E+00 0. -1.
<mgrwt>
<rscale>  4 0.20584106E+03</rscale>
<asrwt>0</asrwt>
<pdfrwt beam="1">  1       21 0.16391369E+00 0.20584106E+03</pdfrwt>
<pdfrwt beam="2">  1       21 0.98430712E-02 0.20584106E+03</pdfrwt>
<totfact> 0.19492689E+04</totfact>
</mgrwt>
</event>
<event>
 5    0  0.1829809E+000  0.2770570E+03  0.7546771E-02  0.1097307E+00
         21   -1    0    0  502  501  0.00000000000E+00  0.00000000000E+00  0.13176799847E+03  0.13176799847E+03  0.00000000000E+00 0.  1.
         21   -1    0    0  503  502 -0.00000000000E+00 -0.00000000000E+00 -0.86670184690E+03  0.86670184690E+03  0.00000000000E+00 0.  1.
         25    1    1    2    0    0 -0.19270219363E+02  0.24650406835E+03 -0.69337958954E+02  0.28560173252E+03  0.12500000000E+03 0.  0.
         21    1    1    2  503  504  0.14767088825E+02 -0.30855249106E+02 -0.15229689493E+03  0.15609118334E+03  0.00000000000E+00 0.  1.
         21    1    1    2  504  501  0.45031305381E+01 -0.21564881925E+03 -0.51329899455E+03  0.55677692951E+03  0.00000000000E+00 0.  1.
<mgrwt>
<rscale>  4 0.27705703E+03</rscale>
<asrwt>0</asrwt>
<pdfrwt beam="1">  1       21 0.20271999E-01 0.27705703E+03</pdfrwt>
<pdfrwt beam="2">  1       21 0.13333875E+00 0.27705703E+03</pdfrwt>
<totfact> 0.86421354E+03</totfact>
</mgrwt>
</event>
<event>
 5    0  0.1829809E+000  0.2631419E+03  0.7546771E-02  0.1105270E+00
         21   -1    0    0  502  501  0.00000000000E+00  0.00000000000E+00  0.15544312216E+04  0.15544312216E+04  0.00000000000E+00 0.  1.
         21   -1    0    0  503  502 -0.00000000000E+00 -0.00000000000E+00 -0.86829496171E+02  0.86829496171E+02  0.00000000000E+00 0.  1.
         25    1    1    2    0    0 -0.25264333172E+03  0.69421351345E+02  0.10264192305E+04  0.10666814959E+04  0.12500000000E+03 0.  0.
         21    1    1    2  503  504  0.10791121854E+03  0.80499597945E+02  0.77271169386E+02  0.15522838006E+03  0.00000000000E+00 0.  1.
         21    1    1    2  504  501  0.14473211318E+03 -0.14992094929E+03  0.36391132558E+03  0.41935084179E+03  0.00000000000E+00 0.  1.
<mgrwt>
<rscale>  4 0.26314195E+03</rscale>
<asrwt>0</asrwt>
<pdfrwt beam="1">  1       21 0.23914324E+00 0.26314195E+03</pdfrwt>
<pdfrwt beam="2">  1       21 0.13358385E-01 0.26314195E+03</pdfrwt>
<totfact> 0.34990730E+03</totfact>
</mgrwt>
</event>
<event>
 5    0  0.1829809E+000  0.2438301E+03  0.7546771E-02  0.1117267E+00
         21   -1    0    0  502  501  0.00000000000E+00  0.00000000000E+00  0.87832225741E+02  0.87832225741E+02  0.00000000000E+00 0. -1.
         21   -1    0    0  503  502 -0.00000000000E+00 -0.00000000000E+00 -0.64796987257E+03  0.64796987257E+03  0.00000000000E+00 0. -1.
         25    1    1    2    0    0  0.19923428800E+03  0.64294676258E+02 -0.39823037585E+03  0.46694811185E+03  0.12500000000E+03 0.  0.
         21    1    1    2  503  504 -0.32175661032E+02  0.48150003529E+01 -0.36112465632E+02  0.48606250270E+02  0.00000000000E+00 0. -1.
         21    1    1    2  504  501 -0.16705862697E+03 -0.69109676611E+02 -0.12579480535E+03  0.22024773619E+03  0.00000000000E+00 0. -1.
<mgrwt>
<rscale>  4 0.24383008E+03</rscale>
<asrwt>0</asrwt>
<pdfrwt beam="1">  1       21 0.13512650E-01 0.24383008E+03</pdfrwt>
<pdfrwt beam="2">  1       21 0.99687673E-01 0.24383008E+03</pdfrwt>
<totfact> 0.38213902E+04</totfact>
</mgrwt>
</event>
<event>
 5    0  0.1829809E+000  0.3148063E+03  0.7546771E-02  0.1078065E+00
         21   -1    0    0  502  501  0.00000000000E+00  0.00000000000E+00  0.30482707674E+03  0.30482707674E+03  0.00000000000E+00 0.  1.
         21   -1    0    0  503  502 -0.00000000000E+00 -0.00000000000E+00 -0.34610713997E+03  0.34610713997E+03  0.00000000000E+00 0.  1.
         25    1    1    2    0    0 -0.18263227681E+03  0.22388270617E+03  0.87671024908E+02  0.32678620421E+03  0.12500000000E+03 0.  0.
         21    1    1    2  503  504  0.82786618624E+02 -0.14092343376E+03 -0.98442427661E+02  0.19079819174E+03  0.00000000000E+00 0.  1.
         21    1    1    2  504  501  0.99845658181E+02 -0.82959272403E+02 -0.30508660471E+02  0.13334982077E+03  0.00000000000E+00 0.  1.
<mgrwt>
<rscale>  4 0.31480631E+03</rscale>
<asrwt>0</asrwt>
<pdfrwt beam="1">  1       21 0.46896474E-01 0.31480631E+03</pdfrwt>
<pdfrwt beam="2">  1       21 0.53247252E-01 0.31480631E+03</pdfrwt>
<totfact> 0.13647949E+04</totfact>
</mgrwt>
</event>
<event>
 5    0  0.1829809E+000  0.2551941E+03  0.7546771E-02  0.1110066E+00
         21   -1    0    0  502  501  0.00000000000E+00  0.00000000000E+00  0.73864812295E+02  0.73864812295E+02  0.00000000000E+00 0.  1.
         21   -1    0    0  503  502 -0.00000000000E+00 -0.00000000000E+00 -0.80796846726E+03  0.80796846726E+03  0.00000000000E+00 0.  1.
         25    1    1    2    0    0  0.22186492288E+03  0.16582669965E+02 -0.42233913052E+03  0.49345148709E+03  0.12500000000E+03 0.  0.
         21    1    1    2  503  504 -0.20732479890E+03  0.24106018946E+00 -0.29484533834E+03  0.36044056915E+03  0.00000000000E+00 0.  1.
         21    1    1    2  504  501 -0.14540123974E+02 -0.16823730155E+02 -0.16919186106E+02  0.27941223309E+02  0.00000000000E+00 0. -1.
<mgrwt>
<rscale>  4 0.25519410E+03</rscale>
<asrwt>0</asrwt>
<pdfrwt beam="1">  1       21 0.11363817E-01 0.25519410E+03</pdfrwt>
<pdfrwt beam="2">  1       21 0.12430284E+00 0.25519410E+03</pdfrwt>
<totfact> 0.30259026E+04</totfact>
</mgrwt>
</event>
<event>
 5    0  0.1829809E+000  0.2322890E+03  0.7546771E-02  0.1125039E+00
         21   -1    0    0  502  501  0.00000000000E+00  0.00000000000E+00  0.53934330258E+03  0.53934330258E+03  0.00000000000E+00 0.  1.
         21   -1    0    0  503  502 -0.00000000000E+00 -0.00000000000E+00 -0.19523492257E+03  0.19523492257E+03  0.00000000000E+00 0.  1.
         25    1    1    2    0    0 -0.22350837633E+03  0.31739364848E+02  0.36513395073E+03  0.44711428466E+03  0.12500000000E+03 0.  0.
         21    1    1    2  503  504  0.32225505235E+02 -0.25050038049E+02  0.65688951177E+02  0.77337092657E+02  0.00000000000E+00 0.  1.
         21    1    1    2  504  501  0.19128287110E+03 -0.66893267990E+01 -0.86714521907E+02  0.21012684783E+03  0.00000000000E+00 0.  1.
<mgrwt>
<rscale>  4 0.23228897E+03</rscale>
<asrwt>0</asrwt>
<pdfrwt beam="1">  1       21 0.82975892E-01 0.23228897E+03</pdfrwt>
<pdfrwt beam="2">  1       21 0.30036142E-01 0.23228897E+03</pdfrwt>
<totfact> 0.13130138E+04</totfact>
</mgrwt>
</event>
<event>
 5    0  0.1829809E+000  0.2473450E+03  0.7546771E-02  0.1114994E+00
         21   -1    0    0  502  501  0.00000000000E+00  0.00000000000E+00  0.13498354730E+03  0.13498354730E+03  0.00000000000E+00 0. -1.
         21   -1    0    0  503  502 -0.00000000000E+00 -0.00000000000E+00 -0.20300966400E+04  0.20300966400E+04  0.00000000000E+00 0.  1.
         25    1    1    2    0    0  0.21252707759E+03  0.90686001535E+02 -0.22849785372E+02  0.26370214689E+03  0.12500000000E+03 0.  0.
         21    1    1    2  503  504 -0.63931325415E+02 -0.38420814128E+02 -0.14292314701E+04  0.14311764281E+04  0.00000000000E+00 0.  1.
         21    1    1    2  504  501 -0.14859575218E+03 -0.52265187407E+02 -0.44303183719E+03  0.47020161223E+03  0.00000000000E+00 0. -1.
<mgrwt>
<rscale>  4 0.24734499E+03</rscale>
<asrwt>0</asrwt>
<pdfrwt beam="1">  1       21 0.20766700E-01 0.24734499E+03</pdfrwt>
<pdfrwt beam="2">  1       21 0.31232256E+00 0.24734499E+03</pdfrwt>
<totfact> 0.58155049E+02</totfact>
</mgrwt>
</event>
<event>
 5    0  0.1829809E+000  0.3663251E+03  0.7546771E-02  0.1056107E+00
         21   -1    0    0  502  501  0.00000000000E+00  0.00000000000E+00  0.64479314820E+03  0.64479314820E+03  0.00000000000E+00 0. -1.
         21   -1    0    0  503  502 -0.00000000000E+00 -0.00000000000E+00 -0.24012546276E+03  0.24012546276E+03  0.00000000000E+00 0. -1.
         25    1    1    2    0    0 -0.10387976701E+03 -0.31730525859E+03  0.23842936636E+03  0.42889065724E+03  0.12500000000E+03 0.  0.
         21    1    1    2  503  504  0.16511802696E+03  0.31289099104E+03  0.10435761493E+03  0.36885667527E+03  0.00000000000E+00 0. -1.
         21    1    1    2  504  501 -0.61238259951E+02  0.44142675480E+01  0.61880704145E+02  0.87171278442E+02  0.00000000000E+00 0. -1.
<mgrwt>
<rscale>  4 0.36632514E+03</rscale>
<asrwt>0</asrwt>
<pdfrwt beam="1">  1       21 0.99198945E-01 0.36632514E+03</pdfrwt>
<pdfrwt beam="2">  1       21 0.36942379E-01 0.36632514E+03</pdfrwt>
<totfact> 0.53600082E+03</totfact>
</mgrwt>
</event>
<event>
 5    0  0.1829809E+000  0.3018243E+03  0.7546771E-02  0.1084332E+00
         21   -1    0    0  502  501  0.00000000000E+00  0.00000000000E+00  0.44591707703E+03  0.44591707703E+03  0.00000000000E+00 0. -1.
         21   -1    0    0  503  502 -0.00000000000E+00 -0.00000000000E+00 -0.20298835697E+03  0.20298835697E+03  0.00000000000E+00 0.  1.
         25    1    1    2    0    0 -0.31249784122E+02 -0.27294017324E+03  0.19659468824E+03  0.36020460661E+03  0.12500000000E+03 0.  0.
         21    1    1    2  503  504 -0.33043400425E+01  0.22915928025E+03  0.36929115329E+02  0.23213929858E+03  0.00000000000E+00 0.  1.
         21    1    1    2  504  501  0.34554124164E+02  0.43780892994E+02  0.94049164910E+01  0.56561528818E+02  0.00000000000E+00 0.  1.
<mgrwt>
<rscale>  4 0.30182427E+03</rscale>
<asrwt>0</asrwt>
<pdfrwt beam="1">  1       21 0.68602627E-01 0.30182427E+03</pdfrwt>
<pdfrwt beam="2">  1       21 0.31228978E-01 0.30182427E+03</pdfrwt>
<totfact> 0.18062192E+04</totfact>
</mgrwt>
</event>
<event>
 5    0  0.1829809E+000  0.2975974E+03  0.7546771E-02  0.1086448E+00
         21   -1    0    0  502  501  0.00000000000E+00  0.00000000000E+00  0.29621843696E+03  0.29621843696E+03  0.00000000000E+00 0.  1.
         21   -1    0    0  503  502 -0.00000000000E+00 -0.00000000000E+00 -0.29153113899E+03  0.29153113899E+03  0.00000000000E+00 0.  1.
         25    1    1    2    0    0 -0.26862849358E+03 -0.27892074036E+02  0.70027105739E+02  0.30572541748E+03  0.12500000000E+03 0.  0.
         21    1    1    2  503  504  0.23506796553E+03  0.28956372494E+02 -0.72498239999E+02  0.24769217737E+03  0.00000000000E+00 0.  1.
         21    1    1    2  504  501  0.33560528049E+02 -0.10642984580E+01  0.71584322333E+01  0.34331981099E+02  0.00000000000E+00 0.  1.
<mgrwt>
<rscale>  4 0.29759744E+03</rscale>
<asrwt>0</asrwt>
<pdfrwt beam="1">  1       21 0.45572067E-01 0.29759744E+03</pdfrwt>
<pdfrwt beam="2">  1       21 0.44850944E-01 0.29759744E+03</pdfrwt>
<totfact> 0.20924177E+04</totfact>
</mgrwt>
</event>
<event>
 5    0  0.1829809E+000  0.2969272E+03  0.7546771E-02  0.1086787E+00
         21   -1    0    0  502  501  0.00000000000E+00  0.00000000000E+00  0.20672875858E+04  0.20672875858E+04  0.00000000000E+00 0. -1.
         21   -1    0    0  503  502 -0.00000000000E+00 -0.00000000000E+00 -0.51911415439E+02  0.51911415439E+02  0.00000000000E+00 0.  1.
         25    1    1    2    0    0  0.14285524667E+03 -0.22832676655E+03  0.15306337832E+04  0.15591682116E+04  0.12500000000E+03 0.  0.
         21    1    1    2  503  504 -0.15326738632E+02  0.86018386317E+02  0.18439489705E+03  0.20404791045E+03  0.00000000000E+00 0.  1.
         21    1    1    2  504  501 -0.12752850804E+03  0.14230838023E+03  0.30034749008E+03  0.35598287915E+03  0.00000000000E+00 0.  1.
<mgrwt>
<rscale>  4 0.29692715E+03</rscale>
<asrwt>0</asrwt>
<pdfrwt beam="1">  1       21 0.31804418E+00 0.29692715E+03</pdfrwt>
<pdfrwt beam="2">  1       21 0.79863732E-02 0.29692715E+03</pdfrwt>
<totfact> 0.29111954E+03</totfact>
</mgrwt>
</event>
<event>
 5    0  0.1829809E+000  0.2599168E+03  0.7546771E-02  0.1107193E+00
         21   -1    0    0  502  501  0.00000000000E+00  0.00000000000E+00  0.24276976861E+03  0.24276976861E+03  0.00000000000E+00 0.  1.
         21   -1    0    0  503  502 -0.00000000000E+00 -0.00000000000E+00 -0.28543284689E+03  0.28543284689E+03  0.00000000000E+00 0.  1.
         25    1    1    2    0    0  0.15710596305E+03 -0.16507411014E+03  0.66941560174E+02  0.26839880391E+03  0.12500000000E+03 0.  0.
         21    1    1    2  503  504 -0.98222238009E+02  0.11730944805E+03 -0.10137604592E+03  0.18353805416E+03  0.00000000000E+00 0.  1.
         21    1    1    2  504  501 -0.58883725036E+02  0.47764662095E+02 -0.82285925395E+01  0.76265757416E+02  0.00000000000E+00 0.  1.
<mgrwt>
<rscale>  4 0.25991680E+03</rscale>
<asrwt>0</asrwt>
<pdfrwt beam="1">  1       21 0.37349195E-01 0.25991680E+03</pdfrwt>
<pdfrwt beam="2">  1       21 0.43912746E-01 0.25991680E+03</pdfrwt>
<totfact> 0.33356466E+04</totfact>
</mgrwt>
</event>
<event>
 5    0  0.1829809E+000  0.2402159E+03  0.7546771E-02  0.1119649E+00
         21   -1    0    0  502  501  0.00000000000E+00  0.00000000000E+00  0.83172928463E+02  0.83172928463E+02  0.00000000000E+00 0.  1.
         21   -1    0    0  503  502 -0.00000000000E+00 -0.00000000000E+00 -0.60432247832E+03  0.60432247832E+03  0.00000000000E+00 0.  1.
         25    1    1    2    0    0  0.45429571979E+02  0.20003703979E+03 -0.28682333309E+03  0.37412736829E+03  0.12500000000E+03 0.  0.
         21    1    1    2  503  504 -0.84488288453E+01 -0.19243489008E+02 -0.11188455138E+02  0.23809160137E+02  0.00000000000E+00 0. -1.
         21    1    1    2  504  501 -0.36980743134E+02 -0.18079355079E+03 -0.22313776163E+03  0.28955887835E+03  0.00000000000E+00 0.  1.
<mgrwt>
<rscale>  4 0.24021587E+03</rscale>
<asrwt>0</asrwt>
<pdfrwt beam="1">  1       21 0.12795835E-01 0.24021587E+03</pdfrwt>
<pdfrwt beam="2">  1       21 0.92972688E-01 0.24021587E+03</pdfrwt>
<totfact> 0.49816993E+04</totfact>
</mgrwt>
</event>
<event>
 5    0  0.1829809E+000  0.3721691E+03  0.7546771E-02  0.1053867E+00
         21   -1    0    0  502  501  0.00000000000E+00  0.00000000000E+00  0.44994150493E+03  0.44994150493E+03  0.00000000000E+00 0.  1.
         21   -1    0    0  503  502 -0.00000000000E+00 -0.00000000000E+00 -0.47289134695E+03  0.47289134695E+03  0.00000000000E+00 0.  1.
         25    1    1    2    0    0 -0.35216021489E+02 -0.34877595467E+03  0.26824314686E+03  0.45876379604E+03  0.12500000000E+03 0.  0.
         21    1    1    2  503  504 -0.28461798780E+02  0.12770354779E+03 -0.94622650686E+02  0.16146738411E+03  0.00000000000E+00 0.  1.
         21    1    1    2  504  501  0.63677820269E+02  0.22107240687E+03 -0.19657033819E+03  0.30260167173E+03  0.00000000000E+00 0.  1.
<mgrwt>
<rscale>  4 0.37216909E+03</rscale>
<asrwt>0</asrwt>
<pdfrwt beam="1">  1       21 0.69221770E-01 0.37216909E+03</pdfrwt>
<pdfrwt beam="2">  1       21 0.72752515E-01 0.37216909E+03</pdfrwt>
<totfact> 0.28976546E+03</totfact>
</mgrwt>
</event>
<event>
 5    0  0.1829809E+000  0.2354566E+03  0.7546771E-02  0.1122857E+00
         21   -1    0    0  502  501  0.00000000000E+00  0.00000000000E+00  0.68992455259E+03  0.68992455259E+03  0.00000000000E+00 0.  1.
         21   -1    0    0  503  502 -0.00000000000E+00 -0.00000000000E+00 -0.10192154050E+03  0.10192154050E+03  0.00000000000E+00 0. -1.
         25    1    1    2    0    0 -0.37640641804E+02  0.20190207199E+03  0.49253563429E+03  0.54808540907E+03  0.12500000000E+03 0.  0.
         21    1    1    2  503  504  0.62386689186E+02 -0.17673754936E+03  0.69307578968E+02  0.19982942938E+03  0.00000000000E+00 0. -1.
         21    1    1    2  504  501 -0.24746047382E+02 -0.25164522626E+02  0.26159798831E+02  0.43931254648E+02  0.00000000000E+00 0. -1.
<mgrwt>
<rscale>  4 0.23545660E+03</rscale>
<asrwt>0</asrwt>
<pdfrwt beam="1">  1       21 0.10614224E+00 0.23545660E+03</pdfrwt>
<pdfrwt beam="2">  1       21 0.15680237E-01 0.23545660E+03</pdfrwt>
<totfact> 0.25142090E+04</totfact>
</mgrwt>
</event>
<event>
 5    0  0.1829809E+000  0.2745491E+03  0.7546771E-02  0.1098704E+00
         21   -1    0    0  502  501  0.00000000000E+00  0.00000000000E+00  0.58802874138E+03  0.58802874138E+03  0.00000000000E+00 0. -1.
         21   -1    0    0  503  502 -0.00000000000E+00 -0.00000000000E+00 -0.20538133815E+03  0.20538133815E+03  0.00000000000E+00 0. -1.
         25    1    1    2    0    0  0.17466324798E+03 -0.17101154771E+03  0.45675839254E+03  0.53292159724E+03  0.12500000000E+03 0.  0.
         21    1    1    2  503  504 -0.16606482577E+03  0.14052201226E+03 -0.70102851556E+02  0.22855715277E+03  0.00000000000E+00 0. -1.
         21    1    1    2  504  501 -0.85984222107E+01  0.30489535451E+02 -0.40081377531E+01  0.31931329518E+02  0.00000000000E+00 0. -1.
<mgrwt>
<rscale>  4 0.27454908E+03</rscale>
<asrwt>0</asrwt>
<pdfrwt beam="1">  1       21 0.90465959E-01 0.27454908E+03</pdfrwt>
<pdfrwt beam="2">  1       21 0.31597129E-01 0.27454908E+03</pdfrwt>
<totfact> 0.95115446E+03</totfact>
</mgrwt>
</event>
<event>
 5    0  0.1829809E+000  0.2543576E+03  0.7546771E-02  0.1110581E+00
         21   -1    0    0  502  501  0.00000000000E+00  0.00000000000E+00  0.34540349274E+03  0.34540349274E+03  0.00000000000E+00 0.  1.
         21   -1    0    0  503  502 -0.00000000000E+00 -0.00000000000E+00 -0.37040801960E+03  0.37040801960E+03  0.00000000000E+00 0.  1.
         25    1    1    2    0    0 -0.23220484580E+03  0.86944964827E+02  0.19416908623E+03  0.33882908872E+03  0.12500000000E+03 0.  0.
         21    1    1    2  503  504  0.65251803175E+02 -0.18002129041E+02 -0.17979092427E+03  0.19211103799E+03  0.00000000000E+00 0.  1.
         21    1    1    2  504  501  0.16695304262E+03 -0.68942835786E+02 -0.39382688822E+02  0.18487138563E+03  0.00000000000E+00 0.  1.
<mgrwt>
<rscale>  4 0.25435758E+03</rscale>
<asrwt>0</asrwt>
<pdfrwt beam="1">  1       21 0.53138999E-01 0.25435758E+03</pdfrwt>
<pdfrwt beam="2">  1       21 0.56985849E-01 0.25435758E+03</pdfrwt>
<totfact> 0.93371563E+03</totfact>
</mgrwt>
</event>
<event>
 5    0  0.1829809E+000  0.4091575E+03  0.7546771E-02  0.1040654E+00
         21   -1    0    0  502  501  0.00000000000E+00  0.00000000000E+00  0.57683846902E+03  0.57683846902E+03  0.00000000000E+00 0. -1.
         21   -1    0    0  503  502 -0.00000000000E+00 -0.00000000000E+00 -0.46894551431E+03  0.46894551431E+03  0.00000000000E+00 0.  1.
         25    1    1    2    0    0  0.51525369325E+02  0.38617351270E+03  0.38321337205E+03  0.56059105783E+03  0.12500000000E+03 0.  0.
         21    1    1    2  503  504  0.53273769570E+01 -0.30387484592E+02  0.14129005836E+01  0.30883271412E+02  0.00000000000E+00 0. -1.
         21    1    1    2  504  501 -0.56852746282E+02 -0.35578602811E+03 -0.27673331792E+03  0.45430965409E+03  0.00000000000E+00 0.  1.
<mgrwt>
<rscale>  4 0.40915748E+03</rscale>
<asrwt>0</asrwt>
<pdfrwt beam="1">  1       21 0.88744380E-01 0.40915748E+03</pdfrwt>
<pdfrwt beam="2">  1       21 0.72145464E-01 0.40915748E+03</pdfrwt>
<totfact> 0.16433757E+03</totfact>
</mgrwt>
</event>
<event>
 5    0  0.1829809E+000  0.2739435E+03  0.7546771E-02  0.1099044E+00
         21   -1    0    0  502  501  0.00000000000E+00  0.00000000000E+00  0.21853913614E+04  0.21853913614E+04  0.00000000000E+00 0. -1.
         21   -1    0    0  503  502 -0.00000000000E+00 -0.00000000000E+00 -0.67502352829E+02  0.67502352829E+02  0.00000000000E+00 0.  1.
         25    1    1    2    0    0 -0.20502663098E+03  0.13184882480E+03  0.19098375038E+04  0.19293844414E+04  0.12500000000E+03 0.  0.
         21    1    1    2  503  504  0.42316630920E+02 -0.29063315947E+02  0.69337318800E+02  0.86273039616E+02  0.00000000000E+00 0. -1.
         21    1    1    2  504  501  0.16271000006E+03 -0.10278550885E+03  0.13871418605E+03  0.23723623323E+03  0.00000000000E+00 0.  1.
<mgrwt>
<rscale>  4 0.27394348E+03</rscale>
<asrwt>0</asrwt>
<pdfrwt beam="1">  1       21 0.33621400E+00 0.27394348E+03</pdfrwt>
<pdfrwt beam="2">  1       21 0.10384979E-01 0.27394348E+03</pdfrwt>
<totfact> 0.14556870E+03</totfact>
</mgrwt>
</event>
<event>
 5    0  0.1829809E+000  0.2568827E+03  0.7546771E-02  0.1109031E+00
         21   -1    0    0  502  501  0.00000000000E+00  0.00000000000E+00  0.28047728323E+03  0.28047728323E+03  0.00000000000E+00 0.  1.
         21   -1    0    0  503  502 -0.00000000000E+00 -0.00000000000E+00 -0.13074547857E+04  0.13074547857E+04  0.00000000000E+00 0.  1.
         25    1    1    2    0    0  0.15912227486E+03 -0.15825243235E+03  0.20814525842E+03  0.33062543657E+03  0.12500000000E+03 0.  0.
         21    1    1    2  503  504 -0.13451038133E+03  0.16142975737E+03 -0.11198107233E+04  0.11393544950E+04  0.00000000000E+00 0.  1.
         21    1    1    2  504  501 -0.24611893531E+02 -0.31773250204E+01 -0.11531203759E+03  0.11795213737E+03  0.00000000000E+00 0.  1.
<mgrwt>
<rscale>  4 0.25688272E+03</rscale>
<asrwt>0</asrwt>
<pdfrwt beam="1">  1       21 0.43150351E-01 0.25688272E+03</pdfrwt>
<pdfrwt beam="2">  1       21 0.20114689E+00 0.25688272E+03</pdfrwt>
<totfact> 0.63784810E+02</totfact>
</mgrwt>
</event>
<event>
 5    0  0.1829809E+000  0.3189745E+03  0.7546771E-02  0.1076122E+00
         21   -1    0    0  502  501  0.00000000000E+00  0.00000000000E+00  0.35005249778E+03  0.35005249778E+03  0.00000000000E+00 0. -1.
         21   -1    0    0  503  502 -0.00000000000E+00 -0.00000000000E+00 -0.67903065278E+03  0.67903065278E+03  0.00000000000E+00 0. -1.
         25    1    1    2    0    0  0.22033471921E+03 -0.19383580687E+03  0.23193381420E+03  0.39438306592E+03  0.12500000000E+03 0.  0.
         21    1    1    2  503  504 -0.20351123102E+03  0.16132132617E+03 -0.50514966175E+03  0.56799434169E+03  0.00000000000E+00 0. -1.
         21    1    1    2  504  501 -0.16823488184E+02  0.32514480699E+02 -0.55762307447E+02  0.66705742944E+02  0.00000000000E+00 0. -1.
<mgrwt>
<rscale>  4 0.31897446E+03</rscale>
<asrwt>0</asrwt>
<pdfrwt beam="1">  1       21 0.53854232E-01 0.31897446E+03</pdfrwt>
<pdfrwt beam="2">  1       21 0.10446625E+00 0.31897446E+03</pdfrwt>
<totfact> 0.22074199E+03</totfact>
</mgrwt>
</event>
<event>
 5    0  0.1829809E+000  0.3060480E+03  0.7546771E-02  0.1082256E+00
         21   -1    0    0  502  501  0.00000000000E+00  0.00000000000E+00  0.39631376391E+03  0.39631376391E+03  0.00000000000E+00 0.  1.
         21   -1    0    0  503  502 -0.00000000000E+00 -0.00000000000E+00 -0.22394321051E+03  0.22394321051E+03  0.00000000000E+00 0.  1.
         25    1    1    2    0    0 -0.14903587674E+03  0.23628093261E+03  0.14140830412E+03  0.33713747959E+03  0.12500000000E+03 0.  0.
         21    1    1    2  503  504  0.13109737863E+03 -0.22365349577E+03  0.25380945746E+02  0.26048339921E+03  0.00000000000E+00 0.  1.
         21    1    1    2  504  501  0.17938498116E+02 -0.12627436835E+02  0.55813035421E+01  0.22636095620E+02  0.00000000000E+00 0. -1.
<mgrwt>
<rscale>  4 0.30604799E+03</rscale>
<asrwt>0</asrwt>
<pdfrwt beam="1">  1       21 0.60971348E-01 0.30604799E+03</pdfrwt>
<pdfrwt beam="2">  1       21 0.34452802E-01 0.30604799E+03</pdfrwt>
<totfact> 0.19220789E+04</totfact>
</mgrwt>
</event>
<event>
 5    0  0.1829809E+000  0.2644306E+03  0.7546771E-02  0.1104510E+00
         21   -1    0    0  502  501  0.00000000000E+00  0.00000000000E+00  0.10693062221E+03  0.10693062221E+03  0.00000000000E+00 0.  1.
         21   -1    0    0  503  502 -0.00000000000E+00 -0.00000000000E+00 -0.78654383568E+03  0.78654383568E+03  0.00000000000E+00 0.  1.
         25    1    1    2    0    0  0.93274578071E+02 -0.23265526023E+03 -0.27594647088E+03  0.39319215635E+03  0.12500000000E+03 0.  0.
         21    1    1    2  503  504  0.28228193491E+02  0.42946581757E+02 -0.19570018667E+02  0.54992957941E+02  0.00000000000E+00 0. -1.
         21    1    1    2  504  501 -0.12150277156E+03  0.18970867848E+03 -0.38409672393E+03  0.44528934360E+03  0.00000000000E+00 0.  1.
<mgrwt>
<rscale>  4 0.26443059E+03</rscale>
<asrwt>0</asrwt>
<pdfrwt beam="1">  1       21 0.16450865E-01 0.26443059E+03</pdfrwt>
<pdfrwt beam="2">  1       21 0.12100674E+00 0.26443059E+03</pdfrwt>
<totfact> 0.16438320E+04</totfact>
</mgrwt>
</event>
<event>
 5    0  0.1829809E+000  0.2946131E+03  0.7546771E-02  0.1087965E+00
         21   -1    0    0  502  501  0.00000000000E+00  0.00000000000E+00  0.47216771180E+03  0.47216771180E+03  0.00000000000E+00 0.  1.
         21   -1    0    0  503  502 -0.00000000000E+00 -0.00000000000E+00 -0.80617443254E+03  0.80617443254E+03  0.00000000000E+00 0. -1.
         25    1    1    2    0    0 -0.18176339298E+02 -0.26703910303E+03  0.39731997906E+03  0.49510446132E+03  0.12500000000E+03 0.  0.
         21    1    1    2  503  504  0.69702718104E+00  0.25428460473E+03 -0.70310903570E+03  0.74767871585E+03  0.00000000000E+00 0. -1.
         21    1    1    2  504  501  0.17479312117E+02  0.12754498303E+02 -0.28217664098E+02  0.35558967170E+02  0.00000000000E+00 0.  1.
<mgrwt>
<rscale>  4 0.29461308E+03</rscale>
<asrwt>0</asrwt>
<pdfrwt beam="1">  1       21 0.72641187E-01 0.29461308E+03</pdfrwt>
<pdfrwt beam="2">  1       21 0.12402683E+00 0.29461308E+03</pdfrwt>
<totfact> 0.76096222E+02</totfact>
</mgrwt>
</event>
<event>
 5    0  0.1829809E+000  0.2897205E+03  0.7546771E-02  0.1090495E+00
         21   -1    0    0  502  501  0.00000000000E+00  0.00000000000E+00  0.23785942419E+04  0.23785942419E+04  0.00000000000E+00 0.  1.
         21   -1    0    0  503  502 -0.00000000000E+00 -0.00000000000E+00 -0.13775409897E+03  0.13775409897E+03  0.00000000000E+00 0.  1.
         25    1    1    2    0    0  0.44202883562E+02  0.26862261753E+03  0.21537010671E+04  0.21744344764E+04  0.12500000000E+03 0.  0.
         21    1    1    2  503  504  0.25104290182E+02 -0.12299031932E+03  0.12402925380E+03  0.17646557690E+03  0.00000000000E+00 0.  1.
         21    1    1    2  504  501 -0.69307173744E+02 -0.14563229821E+03 -0.36890178042E+02  0.16544828754E+03  0.00000000000E+00 0.  1.
<mgrwt>
<rscale>  4 0.28972051E+03</rscale>
<asrwt>0</asrwt>
<pdfrwt beam="1">  1       21 0.36593755E+00 0.28972051E+03</pdfrwt>
<pdfrwt beam="2">  1       21 0.21192940E-01 0.28972051E+03</pdfrwt>
<totfact> 0.25594931E+02</totfact>
</mgrwt>
</event>
<event>
 5    0  0.1829809E+000  0.2437645E+03  0.7546771E-02  0.1117310E+00
         21   -1    0    0  502  501  0.00000000000E+00  0.00000000000E+00  0.59995233418E+03  0.59995233418E+03  0.00000000000E+00 0. -1.
         21   -1    0    0  503  502 -0.00000000000E+00 -0.00000000000E+00 -0.89813752238E+02  0.89813752238E+02  0.00000000000E+00 0. -1.
         25    1    1    2    0    0  0.12713849974E+03  0.16622851580E+03  0.23027261781E+03  0.33533057733E+03  0.12500000000E+03 0.  0.
         21    1    1    2  503  504 -0.11948356448E+03 -0.12807549972E+03  0.25060078136E+03  0.30574565807E+03  0.00000000000E+00 0. -1.
         21    1    1    2  504  501 -0.76549352546E+01 -0.38153016073E+02  0.29265182777E+02  0.48689851018E+02  0.00000000000E+00 0. -1.
<mgrwt>
<rscale>  4 0.24376447E+03</rscale>
<asrwt>0</asrwt>
<pdfrwt beam="1">  1       21 0.92300357E-01 0.24376447E+03</pdfrwt>
<pdfrwt beam="2">  1       21 0.13817501E-01 0.24376447E+03</pdfrwt>
<totfact> 0.44016608E+04</totfact>
</mgrwt>
</event>
<event>
 5    0  0.1829809E+000  0.2383586E+03  0.7546771E-02  0.1120891E+00
         21   -1    0    0  502  501  0.00000000000E+00  0.00000000000E+00  0.23522950424E+03  0.23522950424E+03  0.00000000000E+00 0. -1.
         21   -1    0    0  503  502 -0.00000000000E+00 -0.00000000000E+00 -0.24450368840E+03  0.24450368840E+03  0.00000000000E+00 0. -1.
         25    1    1    2    0    0 -0.18355003209E+03 -0.86597910977E+02  0.66761692967E+02  0.24753168709E+03  0.12500000000E+03 0.  0.
         21    1    1    2  503  504  0.42959261291E+02  0.24386034359E+02 -0.59863028534E+02  0.77612879006E+02  0.00000000000E+00 0.  1.
         21    1    1    2  504  501  0.14059077080E+03  0.62211876618E+02 -0.16172848592E+02  0.15458862654E+03  0.00000000000E+00 0. -1.
<mgrwt>
<rscale>  4 0.23835858E+03</rscale>
<asrwt>0</asrwt>
<pdfrwt beam="1">  1       21 0.36189155E-01 0.23835858E+03</pdfrwt>
<pdfrwt beam="2">  1       21 0.37615952E-01 0.23835858E+03</pdfrwt>
<totfact> 0.49152094E+04</totfact>
</mgrwt>
</event>
<event>
 5    0  0.1829809E+000  0.2813078E+03  0.7546771E-02  0.1094977E+00
         21   -1    0    0  502  501  0.00000000000E+00  0.00000000000E+00  0.11284592364E+04  0.11284592364E+04  0.00000000000E+00 0. -1.
         21   -1    0    0  503  502 -0.00000000000E+00 -0.00000000000E+00 -0.17189036678E+03  0.17189036678E+03  0.00000000000E+00 0.  1.
         25    1    1    2    0    0  0.24583966454E+03  0.55425180257E+02  0.99959220231E+03  0.10384212354E+04  0.12500000000E+03 0.  0.
         21    1    1    2  503  504 -0.46783145157E+02  0.83677061189E+01 -0.20259888366E+02  0.51663761507E+02  0.00000000000E+00 0.  1.
         21    1    1    2  504  501 -0.19905651939E+03 -0.63792886376E+02 -0.22763444279E+02  0.21026460629E+03  0.00000000000E+00 0.  1.
<mgrwt>
<rscale>  4 0.28130782E+03</rscale>
<asrwt>0</asrwt>
<pdfrwt beam="1">  1       21 0.17360911E+00 0.28130782E+03</pdfrwt>
<pdfrwt beam="2">  1       21 0.26444672E-01 0.28130782E+03</pdfrwt>
<totfact> 0.25500241E+03</totfact>
</mgrwt>
</event>
<event>
 5    0  0.1892950E+000  0.3084376E+03  0.7546771E-02  0.1081097E+00
         21   -1    0    0  502  501  0.00000000000E+00  0.00000000000E+00  0.15353890562E+03  0.15353890562E+03  0.00000000000E+00 0.  1.
         21   -1    0    0  503  502 -0.00000000000E+00 -0.00000000000E+00 -0.61732146227E+03  0.61732146227E+03  0.00000000000E+00 0.  1.
         25    1    1    2    0    0  0.14755509696E+03 -0.24028372298E+03 -0.34511551382E+03  0.46285904123E+03  0.12500000000E+03 0.  0.
         21    1    1    2  503  504 -0.10087056753E+02  0.20523446924E+02  0.11269260944E+00  0.22868609210E+02  0.00000000000E+00 0. -1.
         21    1    1    2  504  501 -0.13746804021E+03  0.21976027605E+03 -0.11877973544E+03  0.28513271745E+03  0.00000000000E+00 0.  1.
<mgrwt>
<rscale>  4 0.30843763E+03</rscale>
<asrwt>0</asrwt>
<pdfrwt beam="1">  1       21 0.23621370E-01 0.30843763E+03</pdfrwt>
<pdfrwt beam="2">  1       21 0.94972532E-01 0.30843763E+03</pdfrwt>
<totfact> 0.14714417E+04</totfact>
</mgrwt>
</event>
<event>
 5    0  0.1829809E+000  0.2662318E+03  0.7546771E-02  0.1103456E+00
         21   -1    0    0  502  501  0.00000000000E+00  0.00000000000E+00  0.12182985678E+04  0.12182985678E+04  0.00000000000E+00 0. -1.
         21   -1    0    0  503  502 -0.00000000000E+00 -0.00000000000E+00 -0.72979558763E+02  0.72979558763E+02  0.00000000000E+00 0. -1.
         25    1    1    2    0    0 -0.24548927564E+03 -0.39358325626E+02  0.35403244273E+03  0.45030881932E+03  0.12500000000E+03 0.  0.
         21    1    1    2  503  504  0.20019324942E+03  0.87655079163E+02  0.60358195195E+03  0.64192828473E+03  0.00000000000E+00 0. -1.
         21    1    1    2  504  501  0.45296026216E+02 -0.48296753537E+02  0.18770461437E+03  0.19904102252E+03  0.00000000000E+00 0.  1.
<mgrwt>
<rscale>  4 0.26623181E+03</rscale>
<asrwt>0</asrwt>
<pdfrwt beam="1">  1       21 0.18743053E+00 0.26623181E+03</pdfrwt>
<pdfrwt beam="2">  1       21 0.11227625E-01 0.26623181E+03</pdfrwt>
<totfact> 0.10172840E+04</totfact>
</mgrwt>
</event>
<event>
 5    0  0.1829809E+000  0.2449692E+03  0.7546771E-02  0.1116526E+00
         21   -1    0    0  502  501  0.00000000000E+00  0.00000000000E+00  0.82633647527E+03  0.82633647527E+03  0.00000000000E+00 0. -1.
         21   -1    0    0  503  502 -0.00000000000E+00 -0.00000000000E+00 -0.89162534048E+02  0.89162534048E+02  0.00000000000E+00 0. -1.
         25    1    1    2    0    0 -0.11097151403E+03  0.18303939743E+03  0.56741584797E+03  0.61919612601E+03  0.12500000000E+03 0.  0.
         21    1    1    2  503  504 -0.13775173776E+02 -0.19952543719E+02 -0.71478432965E+01  0.25277481623E+02  0.00000000000E+00 0.  1.
         21    1    1    2  504  501  0.12474668781E+03 -0.16308685371E+03  0.17690593655E+03  0.27102540168E+03  0.00000000000E+00 0. -1.
<mgrwt>
<rscale>  4 0.24496919E+03</rscale>
<asrwt>0</asrwt>
<pdfrwt beam="1">  1       21 0.12712868E+00 0.24496919E+03</pdfrwt>
<pdfrwt beam="2">  1       21 0.13717313E-01 0.24496919E+03</pdfrwt>
<totfact> 0.20454538E+04</totfact>
</mgrwt>
</event>
<event>
 5    0  0.1829809E+000  0.3014772E+03  0.7546771E-02  0.1084504E+00
         21   -1    0    0  502  501  0.00000000000E+00  0.00000000000E+00  0.47946473321E+03  0.47946473321E+03  0.00000000000E+00 0. -1.
         21   -1    0    0  503  502 -0.00000000000E+00 -0.00000000000E+00 -0.47781317507E+03  0.47781317507E+03  0.00000000000E+00 0. -1.
         25    1    1    2    0    0 -0.19967784477E+03  0.20668679088E+03  0.34460791561E+03  0.46580069420E+03  0.12500000000E+03 0.  0.
         21    1    1    2  503  504  0.11863964178E+03 -0.20284166272E+03 -0.14151215285E+03  0.27430966833E+03  0.00000000000E+00 0. -1.
         21    1    1    2  504  501  0.81038202987E+02 -0.38451281616E+01 -0.20144420462E+03  0.21716754575E+03  0.00000000000E+00 0. -1.
<mgrwt>
<rscale>  4 0.30147725E+03</rscale>
<asrwt>0</asrwt>
<pdfrwt beam="1">  1       21 0.73763805E-01 0.30147725E+03</pdfrwt>
<pdfrwt beam="2">  1       21 0.73509720E-01 0.30147725E+03</pdfrwt>
<totfact> 0.25415748E+03</totfact>
</mgrwt>
</event>
<event>
 5    0  0.1829809E+000  0.2721704E+03  0.7546771E-02  0.1100044E+00
         21   -1    0    0  502  501  0.00000000000E+00  0.00000000000E+00  0.25246777339E+04  0.25246777339E+04  0.00000000000E+00 0.  1.
         21   -1    0    0  503  502 -0.00000000000E+00 -0.00000000000E+00 -0.27723532962E+02  0.27723532962E+02  0.00000000000E+00 0.  1.
         25    1    1    2    0    0  0.19684043555E+03  0.14037656321E+03  0.14577299962E+04  0.14829205907E+04  0.12500000000E+03 0.  0.
         21    1    1    2  503  504 -0.16142759193E+03 -0.12251789430E+03  0.95659574481E+03  0.97782663129E+03  0.00000000000E+00 0.  1.
         21    1    1    2  504  501 -0.35412843615E+02 -0.17858668914E+02  0.82628459906E+02  0.91654044835E+02  0.00000000000E+00 0. -1.
<mgrwt>
<rscale>  4 0.27217042E+03</rscale>
<asrwt>0</asrwt>
<pdfrwt beam="1">  1       21 0.38841178E+00 0.27217042E+03</pdfrwt>
<pdfrwt beam="2">  1       21 0.42651609E-02 0.27217042E+03</pdfrwt>
<totfact> 0.32959740E+03</totfact>
</mgrwt>
</event>
<event>
 5    0  0.1829809E+000  0.2434824E+03  0.7546771E-02  0.1117494E+00
         21   -1    0    0  502  501  0.00000000000E+00  0.00000000000E+00  0.18901000812E+04  0.18901000812E+04  0.00000000000E+00 0.  1.
         21   -1    0    0  503  502 -0.00000000000E+00 -0.00000000000E+00 -0.19092709804E+03  0.19092709804E+03  0.00000000000E+00 0.  1.
         25    1    1    2    0    0  0.19167238309E+03  0.86817927718E+02  0.18121048285E+04  0.18285580561E+04  0.12500000000E+03 0.  0.
         21    1    1    2  503  504 -0.20642860699E+02 -0.30369864862E+02  0.51883662062E+01  0.37086055782E+02  0.00000000000E+00 0.  1.
         21    1    1    2  504  501 -0.17102952239E+03 -0.56448062856E+02 -0.11812021156E+03  0.21538306736E+03  0.00000000000E+00 0.  1.
<mgrwt>
<rscale>  4 0.24348237E+03</rscale>
<asrwt>0</asrwt>
<pdfrwt beam="1">  1       21 0.29078462E+00 0.24348237E+03</pdfrwt>
<pdfrwt beam="2">  1       21 0.29373401E-01 0.24348237E+03</pdfrwt>
<totfact> 0.40108722E+02</totfact>
</mgrwt>
</event>
<event>
 5    0  0.1829809E+000  0.2615874E+03  0.7546771E-02  0.1106193E+00
         21   -1    0    0  502  501  0.00000000000E+00  0.00000000000E+00  0.44614167932E+02  0.44614167932E+02  0.00000000000E+00 0. -1.
         21   -1    0    0  503  502 -0.00000000000E+00 -0.00000000000E+00 -0.18262238018E+04  0.18262238018E+04  0.00000000000E+00 0. -1.
         25    1    1    2    0    0 -0.10865428270E+03 -0.20247772875E+03 -0.46294643425E+03  0.53173995973E+03  0.12500000000E+03 0.  0.
         21    1    1    2  503  504  0.84415891678E+02  0.15893266982E+03 -0.92989422011E+03  0.94714776930E+03  0.00000000000E+00 0. -1.
         21    1    1    2  504  501  0.24238391025E+02  0.43545058928E+02 -0.38876897947E+03  0.39195024066E+03  0.00000000000E+00 0. -1.
<mgrwt>
<rscale>  4 0.26158743E+03</rscale>
<asrwt>0</asrwt>
<pdfrwt beam="1">  1       21 0.68637199E-02 0.26158743E+03</pdfrwt>
<pdfrwt beam="2">  1       21 0.28095744E+00 0.26158743E+03</pdfrwt>
<totfact> 0.64473012E+03</totfact>
</mgrwt>
</event>
<event>
 5    0  0.1829809E+000  0.4927875E+03  0.7546771E-02  0.1015679E+00
         21   -1    0    0  502  501  0.00000000000E+00  0.00000000000E+00  0.10210280564E+04  0.10210280564E+04  0.00000000000E+00 0. -1.
         21   -1    0    0  503  502 -0.00000000000E+00 -0.00000000000E+00 -0.44103216922E+03  0.44103216922E+03  0.00000000000E+00 0. -1.
         25    1    1    2    0    0  0.17476896557E+03 -0.42794240601E+03  0.77699542819E+03  0.91270246500E+03  0.12500000000E+03 0.  0.
         21    1    1    2  503  504 -0.17075931387E+03  0.44790764667E+03 -0.21192396131E+03  0.52411045458E+03  0.00000000000E+00 0. -1.
         21    1    1    2  504  501 -0.40096517019E+01 -0.19965240667E+02  0.14924420318E+02  0.25247306064E+02  0.00000000000E+00 0.  1.
<mgrwt>
<rscale>  4 0.49278749E+03</rscale>
<asrwt>0</asrwt>
<pdfrwt beam="1">  1       21 0.15708124E+00 0.49278749E+03</pdfrwt>
<pdfrwt beam="2">  1       21 0.67851103E-01 0.49278749E+03</pdfrwt>
<totfact> 0.42690194E+02</totfact>
</mgrwt>
</event>
<event>
 5    0  0.1829809E+000  0.5360246E+03  0.7546771E-02  0.1004781E+00
         21   -1    0    0  502  501  0.00000000000E+00  0.00000000000E+00  0.72373902305E+03  0.72373902305E+03  0.00000000000E+00 0.  1.
         21   -1    0    0  503  502 -0.00000000000E+00 -0.00000000000E+00 -0.79681069997E+03  0.79681069997E+03  0.00000000000E+00 0.  1.
         25    1    1    2    0    0  0.31140596105E+02  0.52051875294E+03 -0.56345819322E+03  0.77783008710E+03  0.12500000000E+03 0.  0.
         21    1    1    2  503  504  0.44883292544E+01 -0.52114538161E+03  0.46923608049E+03  0.70128107996E+03  0.00000000000E+00 0.  1.
         21    1    1    2  504  501 -0.35628925359E+02  0.62662866233E+00  0.21150435798E+02  0.41438555962E+02  0.00000000000E+00 0. -1.
<mgrwt>
<rscale>  4 0.53602465E+03</rscale>
<asrwt>0</asrwt>
<pdfrwt beam="1">  1       21 0.11134447E+00 0.53602465E+03</pdfrwt>
<pdfrwt beam="2">  1       21 0.12258626E+00 0.53602465E+03</pdfrwt>
<totfact> 0.25162302E+02</totfact>
</mgrwt>
</event>
<event>
 5    0  0.1829809E+000  0.2546035E+03  0.7546771E-02  0.1110430E+00
         21   -1    0    0  502  501  0.00000000000E+00  0.00000000000E+00  0.45312752810E+03  0.45312752810E+03  0.00000000000E+00 0. -1.
         21   -1    0    0  503  502 -0.00000000000E+00 -0.00000000000E+00 -0.21871112053E+03  0.21871112053E+03  0.00000000000E+00 0. -1.
         25    1    1    2    0    0 -0.95137603619E+02  0.20036655701E+03  0.33898001669E+03  0.42394619058E+03  0.12500000000E+03 0.  0.
         21    1    1    2  503  504  0.14492900202E+01 -0.29497356271E+02 -0.91433521432E+01  0.30915940176E+02  0.00000000000E+00 0. -1.
         21    1    1    2  504  501  0.93688313599E+02 -0.17086920074E+03 -0.95420256978E+02  0.21697651787E+03  0.00000000000E+00 0. -1.
<mgrwt>
<rscale>  4 0.25460346E+03</rscale>
<asrwt>0</asrwt>
<pdfrwt beam="1">  1       21 0.69711927E-01 0.25460346E+03</pdfrwt>
<pdfrwt beam="2">  1       21 0.33647865E-01 0.25460346E+03</pdfrwt>
<totfact> 0.15354664E+04</totfact>
</mgrwt>
</event>
<event>
 5    0  0.1829809E+000  0.3660787E+03  0.7546771E-02  0.1056203E+00
         21   -1    0    0  502  501  0.00000000000E+00  0.00000000000E+00  0.20962810916E+03  0.20962810916E+03  0.00000000000E+00 0. -1.
         21   -1    0    0  503  502 -0.00000000000E+00 -0.00000000000E+00 -0.73479749666E+03  0.73479749666E+03  0.00000000000E+00 0. -1.
         25    1    1    2    0    0 -0.19910294843E+03  0.29125166947E+03 -0.39909962908E+03  0.54715174584E+03  0.12500000000E+03 0.  0.
         21    1    1    2  503  504  0.16080888260E+03 -0.29022772851E+03 -0.13454143710E+03  0.35804054158E+03  0.00000000000E+00 0. -1.
         21    1    1    2  504  501  0.38294065830E+02 -0.10239409594E+01  0.84716786755E+01  0.39233318397E+02  0.00000000000E+00 0.  1.
<mgrwt>
<rscale>  4 0.36607870E+03</rscale>
<asrwt>0</asrwt>
<pdfrwt beam="1">  1       21 0.32250478E-01 0.36607870E+03</pdfrwt>
<pdfrwt beam="2">  1       21 0.11304577E+00 0.36607870E+03</pdfrwt>
<totfact> 0.51152146E+03</totfact>
</mgrwt>
</event>
<event>
 5    0  0.1829809E+000  0.3213900E+03  0.7546771E-02  0.1075011E+00
         21   -1    0    0  502  501  0.00000000000E+00  0.00000000000E+00  0.89444337318E+03  0.89444337318E+03  0.00000000000E+00 0. -1.
         21   -1    0    0  503  502 -0.00000000000E+00 -0.00000000000E+00 -0.12913296591E+03  0.12913296591E+03  0.00000000000E+00 0. -1.
         25    1    1    2    0    0  0.28992331272E+03 -0.10879649273E+03  0.46861940042E+03  0.57543144382E+03  0.12500000000E+03 0.  0.
         21    1    1    2  503  504 -0.29452491323E+02  0.21549363708E+00 -0.10258072515E+02  0.31188519272E+02  0.00000000000E+00 0. -1.
         21    1    1    2  504  501 -0.26047082139E+03  0.10858099909E+03  0.30694907936E+03  0.41695637599E+03  0.00000000000E+00 0. -1.
<mgrwt>
<rscale>  4 0.32138996E+03</rscale>
<asrwt>0</asrwt>
<pdfrwt beam="1">  1       21 0.13760667E+00 0.32138996E+03</pdfrwt>
<pdfrwt beam="2">  1       21 0.19866611E-01 0.32138996E+03</pdfrwt>
<totfact> 0.80938989E+03</totfact>
</mgrwt>
</event>
<event>
 5    0  0.1829809E+000  0.5591480E+03  0.7546771E-02  0.9993984E-01
         21   -1    0    0  502  501  0.00000000000E+00  0.00000000000E+00  0.10756445481E+04  0.10756445481E+04  0.00000000000E+00 0.  1.
         21   -1    0    0  503  502 -0.00000000000E+00 -0.00000000000E+00 -0.74364673168E+03  0.74364673168E+03  0.00000000000E+00 0.  1.
         25    1    1    2    0    0 -0.34530804239E+03 -0.41220681974E+03  0.80010998039E+03  0.97208697507E+03  0.12500000000E+03 0.  0.
         21    1    1    2  503  504 -0.18707839731E+02 -0.44076664216E+02 -0.19859845160E+03  0.20428920817E+03  0.00000000000E+00 0. -1.
         21    1    1    2  504  501  0.36401588212E+03  0.45628348396E+03 -0.26951371239E+03  0.64291509652E+03  0.00000000000E+00 0.  1.
<mgrwt>
<rscale>  4 0.55914805E+03</rscale>
<asrwt>0</asrwt>
<pdfrwt beam="1">  1       21 0.16548378E+00 0.55914805E+03</pdfrwt>
<pdfrwt beam="2">  1       21 0.11440719E+00 0.55914805E+03</pdfrwt>
<totfact> 0.10373398E+02</totfact>
</mgrwt>
</event>
<event>
 5    0  0.1829809E+000  0.3783381E+03  0.7546771E-02  0.1051550E+00
         21   -1    0    0  502  501  0.00000000000E+00  0.00000000000E+00  0.10397509868E+04  0.10397509868E+04  0.00000000000E+00 0. -1.
         21   -1    0    0  503  502 -0.00000000000E+00 -0.00000000000E+00 -0.13288602767E+03  0.13288602767E+03  0.00000000000E+00 0. -1.
         25    1    1    2    0    0 -0.19158874952E+03 -0.30134440262E+03  0.44998740744E+03  0.58790166251E+03  0.12500000000E+03 0.  0.
         21    1    1    2  503  504  0.13687830688E+03  0.20198578126E+03  0.36360745008E+03  0.43788617753E+03  0.00000000000E+00 0. -1.
         21    1    1    2  504  501  0.54710442645E+02  0.99358621359E+02  0.93270101623E+02  0.14684917443E+03  0.00000000000E+00 0. -1.
<mgrwt>
<rscale>  4 0.37833807E+03</rscale>
<asrwt>0</asrwt>
<pdfrwt beam="1">  1       21 0.15996169E+00 0.37833807E+03</pdfrwt>
<pdfrwt beam="2">  1       21 0.20444005E-01 0.37833807E+03</pdfrwt>
<totfact> 0.49866948E+03</totfact>
</mgrwt>
</event>
<event>
 5    0  0.1829809E+000  0.1884109E+03  0.7546771E-02  0.1159902E+00
         21   -1    0    0  502  501  0.00000000000E+00  0.00000000000E+00  0.23119543906E+03  0.23119543906E+03  0.00000000000E+00 0.  1.
         21   -1    0    0  503  502 -0.00000000000E+00 -0.00000000000E+00 -0.34877972613E+03  0.34877972613E+03  0.00000000000E+00 0.  1.
         25    1    1    2    0    0  0.22283862976E+03 -0.14005627473E+02  0.18232508321E+02  0.25653583935E+03  0.12500000000E+03 0.  0.
         21    1    1    2  503  504 -0.12503029786E+03  0.30612041058E+02 -0.17459887136E+03  0.21692035018E+03  0.00000000000E+00 0.  1.
         21    1    1    2  504  501 -0.97808331898E+02 -0.16606413585E+02  0.38782075962E+02  0.10651897567E+03  0.00000000000E+00 0.  1.
<mgrwt>
<rscale>  4 0.18841092E+03</rscale>
<asrwt>0</asrwt>
<pdfrwt beam="1">  1       21 0.35568529E-01 0.18841092E+03</pdfrwt>
<pdfrwt beam="2">  1       21 0.53658419E-01 0.18841092E+03</pdfrwt>
<totfact> 0.25105058E+04</totfact>
</mgrwt>
</event>
<event>
 5    0  0.1829809E+000  0.2529101E+03  0.7546771E-02  0.1111479E+00
         21   -1    0    0  502  501  0.00000000000E+00  0.00000000000E+00  0.80651037270E+03  0.80651037270E+03  0.00000000000E+00 0.  1.
         21   -1    0    0  503  502 -0.00000000000E+00 -0.00000000000E+00 -0.43636267802E+03  0.43636267802E+03  0.00000000000E+00 0. -1.
         25    1    1    2    0    0 -0.21983944837E+03 -0.30223578327E+01  0.75474273977E+03  0.79599002565E+03  0.12500000000E+03 0.  0.
         21    1    1    2  503  504  0.36375643314E+02  0.18161591546E+02 -0.45328934381E+02  0.60891240143E+02  0.00000000000E+00 0. -1.
         21    1    1    2  504  501  0.18346380506E+03 -0.15139233714E+02 -0.33926611070E+03  0.38599178493E+03  0.00000000000E+00 0. -1.
<mgrwt>
<rscale>  4 0.25291010E+03</rscale>
<asrwt>0</asrwt>
<pdfrwt beam="1">  1       21 0.12407852E+00 0.25291010E+03</pdfrwt>
<pdfrwt beam="2">  1       21 0.67132720E-01 0.25291010E+03</pdfrwt>
<totfact> 0.93427139E+02</totfact>
</mgrwt>
</event>
<event>
 5    0  0.1829809E+000  0.2654552E+03  0.7546771E-02  0.1103909E+00
         21   -1    0    0  502  501  0.00000000000E+00  0.00000000000E+00  0.10695528278E+03  0.10695528278E+03  0.00000000000E+00 0. -1.
         21   -1    0    0  503  502 -0.00000000000E+00 -0.00000000000E+00 -0.71989783122E+03  0.71989783122E+03  0.00000000000E+00 0. -1.
         25    1    1    2    0    0  0.97721358971E+02  0.21281911996E+03 -0.47612202122E+03  0.54512257420E+03  0.12500000000E+03 0.  0.
         21    1    1    2  503  504 -0.43388702121E+02 -0.29739443018E+02 -0.47612261940E+02  0.70950274346E+02  0.00000000000E+00 0. -1.
         21    1    1    2  504  501 -0.54332656851E+02 -0.18307967694E+03 -0.89208265288E+02  0.21078026545E+03  0.00000000000E+00 0. -1.
<mgrwt>
<rscale>  4 0.26545516E+03</rscale>
<asrwt>0</asrwt>
<pdfrwt beam="1">  1       21 0.16454658E-01 0.26545516E+03</pdfrwt>
<pdfrwt beam="2">  1       21 0.11075352E+00 0.26545516E+03</pdfrwt>
<totfact> 0.20440956E+04</totfact>
</mgrwt>
</event>
<event>
 5    0  0.1829809E+000  0.2364645E+03  0.7546771E-02  0.1122171E+00
         21   -1    0    0  502  501  0.00000000000E+00  0.00000000000E+00  0.92853838281E+03  0.92853838281E+03  0.00000000000E+00 0. -1.
         21   -1    0    0  503  502 -0.00000000000E+00 -0.00000000000E+00 -0.59053768580E+02  0.59053768580E+02  0.00000000000E+00 0.  1.
         25    1    1    2    0    0 -0.19783654415E+03 -0.33928728247E+02  0.63042305366E+03  0.67331172824E+03  0.12500000000E+03 0.  0.
         21    1    1    2  503  504  0.35980609506E+02  0.83847488921E+01  0.68082230667E+02  0.77460302136E+02  0.00000000000E+00 0.  1.
         21    1    1    2  504  501  0.16185593465E+03  0.25543979355E+02  0.17097932991E+03  0.23682012102E+03  0.00000000000E+00 0.  1.
<mgrwt>
<rscale>  4 0.23646449E+03</rscale>
<asrwt>0</asrwt>
<pdfrwt beam="1">  1       21 0.14285205E+00 0.23646449E+03</pdfrwt>
<pdfrwt beam="2">  1       21 0.90851959E-02 0.23646449E+03</pdfrwt>
<totfact> 0.31821909E+04</totfact>
</mgrwt>
</event>
<event>
 5    0  0.1829809E+000  0.2552636E+03  0.7546771E-02  0.1110023E+00
         21   -1    0    0  502  501  0.00000000000E+00  0.00000000000E+00  0.57614714793E+03  0.57614714793E+03  0.00000000000E+00 0.  1.
         21   -1    0    0  503  502 -0.00000000000E+00 -0.00000000000E+00 -0.12440059515E+03  0.12440059515E+03  0.00000000000E+00 0.  1.
         25    1    1    2    0    0  0.25218404531E+02 -0.22113012256E+03  0.91531896886E+02  0.27117814658E+03  0.12500000000E+03 0.  0.
         21    1    1    2  503  504  0.17254927486E+02  0.14776409234E+03  0.23635710663E+03  0.27927878788E+03  0.00000000000E+00 0.  1.
         21    1    1    2  504  501 -0.42473332017E+02  0.73366030225E+02  0.12385754927E+03  0.15009080863E+03  0.00000000000E+00 0.  1.
<mgrwt>
<rscale>  4 0.25526359E+03</rscale>
<asrwt>0</asrwt>
<pdfrwt beam="1">  1       21 0.88638021E-01 0.25526359E+03</pdfrwt>
<pdfrwt beam="2">  1       21 0.19138553E-01 0.25526359E+03</pdfrwt>
<totfact> 0.26393254E+04</totfact>
</mgrwt>
</event>
<event>
 5    0  0.1829809E+000  0.2593520E+03  0.7546771E-02  0.1107533E+00
         21   -1    0    0  502  501  0.00000000000E+00  0.00000000000E+00  0.14276754096E+03  0.14276754096E+03  0.00000000000E+00 0.  1.
         21   -1    0    0  503  502 -0.00000000000E+00 -0.00000000000E+00 -0.42326653011E+03  0.42326653011E+03  0.00000000000E+00 0.  1.
         25    1    1    2    0    0  0.18028353779E+03  0.13833397002E+03 -0.14209851878E+03  0.29572864301E+03  0.12500000000E+03 0.  0.
         21    1    1    2  503  504 -0.95254252806E+02 -0.44643152366E+02 -0.71384828992E+02  0.12713055314E+03  0.00000000000E+00 0. -1.
         21    1    1    2  504  501 -0.85029284981E+02 -0.93690817658E+02 -0.67015641387E+02  0.14317487492E+03  0.00000000000E+00 0.  1.
<mgrwt>
<rscale>  4 0.25935196E+03</rscale>
<asrwt>0</asrwt>
<pdfrwt beam="1">  1       21 0.21964238E-01 0.25935196E+03</pdfrwt>
<pdfrwt beam="2">  1       21 0.65117926E-01 0.25935196E+03</pdfrwt>
<totfact> 0.40759190E+04</totfact>
</mgrwt>
</event>
<event>
 5    0  0.1829809E+000  0.3555862E+03  0.7546771E-02  0.1060345E+00
         21   -1    0    0  502  501  0.00000000000E+00  0.00000000000E+00  0.13860177728E+03  0.13860177728E+03  0.00000000000E+00 0.  1.
         21   -1    0    0  503  502 -0.00000000000E+00 -0.00000000000E+00 -0.15240174235E+04  0.15240174235E+04  0.00000000000E+00 0. -1.
         25    1    1    2    0    0 -0.25912910254E+03 -0.21371612950E+03 -0.21135571699E+03  0.41607537165E+03  0.12500000000E+03 0.  0.
         21    1    1    2  503  504 -0.39454634965E+02  0.69532755073E+02 -0.33353018055E+03  0.34297791997E+03  0.00000000000E+00 0.  1.
         21    1    1    2  504  501  0.29858373750E+03  0.14418337442E+03 -0.84052974863E+03  0.90356590911E+03  0.00000000000E+00 0. -1.
<mgrwt>
<rscale>  4 0.35558621E+03</rscale>
<asrwt>0</asrwt>
<pdfrwt beam="1">  1       21 0.21323350E-01 0.35558621E+03</pdfrwt>
<pdfrwt beam="2">  1       21 0.23446422E+00 0.35558621E+03</pdfrwt>
<totfact> 0.14704441E+03</totfact>
</mgrwt>
</event>
<event>
 5    0  0.1829809E+000  0.2284174E+03  0.7546771E-02  0.1127759E+00
         21   -1    0    0  502  501  0.00000000000E+00  0.00000000000E+00  0.55375697348E+03  0.55375697348E+03  0.00000000000E+00 0.  1.
         21   -1    0    0  503  502 -0.00000000000E+00 -0.00000000000E+00 -0.97655794905E+02  0.97655794905E+02  0.00000000000E+00 0.  1.
         25    1    1    2    0    0 -0.70332902424E+01  0.20209365115E+03  0.27043458803E+03  0.36007107272E+03  0.12500000000E+03 0.  0.
         21    1    1    2  503  504  0.10131876132E+01 -0.18239526135E+03  0.19646813698E+03  0.26808354437E+03  0.00000000000E+00 0.  1.
         21    1    1    2  504  501  0.60201026292E+01 -0.19698389800E+02 -0.10801546433E+02  0.23258151297E+02  0.00000000000E+00 0.  1.
<mgrwt>
<rscale>  4 0.22841743E+03</rscale>
<asrwt>0</asrwt>
<pdfrwt beam="1">  1       21 0.85193379E-01 0.22841743E+03</pdfrwt>
<pdfrwt beam="2">  1       21 0.15023969E-01 0.22841743E+03</pdfrwt>
<totfact> 0.45816467E+04</totfact>
</mgrwt>
</event>
<event>
 5    0  0.1829809E+000  0.4303156E+03  0.7546771E-02  0.1033760E+00
         21   -1    0    0  502  501  0.00000000000E+00  0.00000000000E+00  0.11524129017E+03  0.11524129017E+03  0.00000000000E+00 0.  1.
         21   -1    0    0  503  502 -0.00000000000E+00 -0.00000000000E+00 -0.17219625099E+04  0.17219625099E+04  0.00000000000E+00 0.  1.
         25    1    1    2    0    0  0.38654694850E+03  0.14187320403E+03 -0.52761273535E+03  0.68084267487E+03  0.12500000000E+03 0.  0.
         21    1    1    2  503  504 -0.25143499656E+02  0.10165185402E+01 -0.43772699306E+02  0.50490376206E+02  0.00000000000E+00 0.  1.
         21    1    1    2  504  501 -0.36140344884E+03 -0.14288972257E+03 -0.10353357850E+04  0.11058707490E+04  0.00000000000E+00 0.  1.
<mgrwt>
<rscale>  4 0.43031564E+03</rscale>
<asrwt>0</asrwt>
<pdfrwt beam="1">  1       21 0.17729430E-01 0.43031564E+03</pdfrwt>
<pdfrwt beam="2">  1       21 0.26491729E+00 0.43031564E+03</pdfrwt>
<totfact> 0.13028056E+03</totfact>
</mgrwt>
</event>
<event>
 5    0  0.1829809E+000  0.3713587E+03  0.7546771E-02  0.1054175E+00
         21   -1    0    0  502  501  0.00000000000E+00  0.00000000000E+00  0.11638020701E+04  0.11638020701E+04  0.00000000000E+00 0. -1.
         21   -1    0    0  503  502 -0.00000000000E+00 -0.00000000000E+00 -0.31235559147E+03  0.31235559147E+03  0.00000000000E+00 0.  1.
         25    1    1    2    0    0  0.26718070161E+03  0.22560312903E+03  0.10182845858E+04  0.10838868930E+04  0.12500000000E+03 0.  0.
         21    1    1    2  503  504 -0.29902596790E+02 -0.55576216216E+02 -0.30488777116E+02  0.70088848141E+02  0.00000000000E+00 0.  1.
         21    1    1    2  504  501 -0.23727810482E+03 -0.17002691281E+03 -0.13634932999E+03  0.32218192050E+03  0.00000000000E+00 0.  1.
<mgrwt>
<rscale>  4 0.37135872E+03</rscale>
<asrwt>0</asrwt>
<pdfrwt beam="1">  1       21 0.17904647E+00 0.37135872E+03</pdfrwt>
<pdfrwt beam="2">  1       21 0.48054707E-01 0.37135872E+03</pdfrwt>
<totfact> 0.66218410E+02</totfact>
</mgrwt>
</event>
<event>
 5    0  0.1829809E+000  0.2999695E+03  0.7546771E-02  0.1085256E+00
         21   -1    0    0  502  501  0.00000000000E+00  0.00000000000E+00  0.16444886872E+04  0.16444886872E+04  0.00000000000E+00 0.  1.
         21   -1    0    0  503  502 -0.00000000000E+00 -0.00000000000E+00 -0.88942574106E+02  0.88942574106E+02  0.00000000000E+00 0. -1.
         25    1    1    2    0    0  0.27133759467E+03  0.27066475931E+02  0.13412541710E+04  0.13743887498E+04  0.12500000000E+03 0.  0.
         21    1    1    2  503  504 -0.23148840212E+03 -0.38950745994E+02  0.21371378370E+03  0.31745491376E+03  0.00000000000E+00 0. -1.
         21    1    1    2  504  501 -0.39849192550E+02  0.11884270063E+02  0.57815844757E+00  0.41587597778E+02  0.00000000000E+00 0. -1.
<mgrwt>
<rscale>  4 0.29996947E+03</rscale>
<asrwt>0</asrwt>
<pdfrwt beam="1">  1       21 0.25299824E+00 0.29996947E+03</pdfrwt>
<pdfrwt beam="2">  1       21 0.13683474E-01 0.29996947E+03</pdfrwt>
<totfact> 0.26887174E+03</totfact>
</mgrwt>
</event>
<event>
 5    0  0.1829809E+000  0.2873435E+03  0.7546771E-02  0.1091744E+00
         21   -1    0    0  502  501  0.00000000000E+00  0.00000000000E+00  0.20653341249E+03  0.20653341249E+03  0.00000000000E+00 0.  1.
         21   -1    0    0  503  502 -0.00000000000E+00 -0.00000000000E+00 -0.49838668246E+03  0.49838668246E+03  0.00000000000E+00 0. -1.
         25    1    1    2    0    0  0.22382912784E+03 -0.12977590927E+03  0.25800729230E+02  0.28849946746E+03  0.12500000000E+03 0.  0.
         21    1    1    2  503  504 -0.13624946630E+03  0.11797129942E+03 -0.19912491394E+03  0.26857378112E+03  0.00000000000E+00 0. -1.
         21    1    1    2  504  501 -0.87579661541E+02  0.11804609852E+02 -0.11852908526E+03  0.14784684637E+03  0.00000000000E+00 0. -1.
<mgrwt>
<rscale>  4 0.28734346E+03</rscale>
<asrwt>0</asrwt>
<pdfrwt beam="1">  1       21 0.31774371E-01 0.28734346E+03</pdfrwt>
<pdfrwt beam="2">  1       21 0.76674874E-01 0.28734346E+03</pdfrwt>
<totfact> 0.13682250E+04</totfact>
</mgrwt>
</event>
<event>
 5    0  0.1829809E+000  0.2582011E+03  0.7546771E-02  0.1108229E+00
         21   -1    0    0  502  501  0.00000000000E+00  0.00000000000E+00  0.78640222729E+03  0.78640222729E+03  0.00000000000E+00 0.  1.
         21   -1    0    0  503  502 -0.00000000000E+00 -0.00000000000E+00 -0.13095102753E+03  0.13095102753E+03  0.00000000000E+00 0.  1.
         25    1    1    2    0    0 -0.21582466392E+03  0.53974203811E+02  0.46070242187E+03  0.52665474625E+03  0.12500000000E+03 0.  0.
         21    1    1    2  503  504  0.17595851455E+02  0.91183673673E+02  0.58486210860E+02  0.10974840862E+03  0.00000000000E+00 0.  1.
         21    1    1    2  504  501  0.19822881246E+03 -0.14515787748E+03  0.13626256702E+03  0.28095009994E+03  0.00000000000E+00 0.  1.
<mgrwt>
<rscale>  4 0.25820105E+03</rscale>
<asrwt>0</asrwt>
<pdfrwt beam="1">  1       21 0.12098496E+00 0.25820105E+03</pdfrwt>
<pdfrwt beam="2">  1       21 0.20146312E-01 0.25820105E+03</pdfrwt>
<totfact> 0.11307782E+04</totfact>
</mgrwt>
</event>
<event>
 5    0  0.1829809E+000  0.2602879E+03  0.7546771E-02  0.1106970E+00
         21   -1    0    0  502  501  0.00000000000E+00  0.00000000000E+00  0.18019357069E+03  0.18019357069E+03  0.00000000000E+00 0. -1.
         21   -1    0    0  503  502 -0.00000000000E+00 -0.00000000000E+00 -0.42059845878E+03  0.42059845878E+03  0.00000000000E+00 0. -1.
         25    1    1    2    0    0 -0.23649042873E+03 -0.58201998242E+02 -0.16832898149E+03  0.32136403266E+03  0.12500000000E+03 0.  0.
         21    1    1    2  503  504  0.21216915693E+03  0.34301941002E+02 -0.98372179745E+02  0.23636721443E+03  0.00000000000E+00 0. -1.
         21    1    1    2  504  501  0.24321271799E+02  0.23900057240E+02  0.26296273141E+02  0.43060782379E+02  0.00000000000E+00 0. -1.
<mgrwt>
<rscale>  4 0.26028790E+03</rscale>
<asrwt>0</asrwt>
<pdfrwt beam="1">  1       21 0.27722088E-01 0.26028790E+03</pdfrwt>
<pdfrwt beam="2">  1       21 0.64707455E-01 0.26028790E+03</pdfrwt>
<totfact> 0.26417906E+04</totfact>
</mgrwt>
</event>
<event>
 5    0  0.1829809E+000  0.2597635E+03  0.7546771E-02  0.1107285E+00
         21   -1    0    0  502  501  0.00000000000E+00  0.00000000000E+00  0.11111595498E+03  0.11111595498E+03  0.00000000000E+00 0.  1.
         21   -1    0    0  503  502 -0.00000000000E+00 -0.00000000000E+00 -0.55757415867E+03  0.55757415867E+03  0.00000000000E+00 0.  1.
         25    1    1    2    0    0  0.19103045831E+03  0.12393319425E+03 -0.28266366364E+03  0.38389558396E+03  0.12500000000E+03 0.  0.
         21    1    1    2  503  504 -0.13351235121E+03 -0.59781472055E+02 -0.11228038879E+03  0.18440785784E+03  0.00000000000E+00 0.  1.
         21    1    1    2  504  501 -0.57518107099E+02 -0.64151722200E+02 -0.51514151266E+02  0.10038667186E+03  0.00000000000E+00 0. -1.
<mgrwt>
<rscale>  4 0.25976349E+03</rscale>
<asrwt>0</asrwt>
<pdfrwt beam="1">  1       21 0.17094762E-01 0.25976349E+03</pdfrwt>
<pdfrwt beam="2">  1       21 0.85780642E-01 0.25976349E+03</pdfrwt>
<totfact> 0.35073086E+04</totfact>
</mgrwt>
</event>
<event>
 5    0  0.1829809E+000  0.3537737E+03  0.7546771E-02  0.1061077E+00
         21   -1    0    0  502  501  0.00000000000E+00  0.00000000000E+00  0.47907555115E+03  0.47907555115E+03  0.00000000000E+00 0. -1.
         21   -1    0    0  503  502 -0.00000000000E+00 -0.00000000000E+00 -0.27346673048E+03  0.27346673048E+03  0.00000000000E+00 0. -1.
         25    1    1    2    0    0 -0.32554540830E+03 -0.59590404172E+02 -0.14081046721E+01  0.35377649992E+03  0.12500000000E+03 0.  0.
         21    1    1    2  503  504  0.20421897872E+03  0.27486685864E+02  0.82463134478E+02  0.22194836724E+03  0.00000000000E+00 0. -1.
         21    1    1    2  504  501  0.12132642958E+03  0.32103718308E+02  0.12455379086E+03  0.17681741447E+03  0.00000000000E+00 0. -1.
<mgrwt>
<rscale>  4 0.35377370E+03</rscale>
<asrwt>0</asrwt>
<pdfrwt beam="1">  1       21 0.73703931E-01 0.35377370E+03</pdfrwt>
<pdfrwt beam="2">  1       21 0.42071805E-01 0.35377370E+03</pdfrwt>
<totfact> 0.82515373E+03</totfact>
</mgrwt>
</event>
<event>
 5    0  0.1829809E+000  0.2549219E+03  0.7546771E-02  0.1110233E+00
         21   -1    0    0  502  501  0.00000000000E+00  0.00000000000E+00  0.24515416002E+03  0.24515416002E+03  0.00000000000E+00 0. -1.
         21   -1    0    0  503  502 -0.00000000000E+00 -0.00000000000E+00 -0.59234252978E+03  0.59234252978E+03  0.00000000000E+00 0. -1.
         25    1    1    2    0    0  0.19660098752E+03 -0.10348063668E+03  0.14429882571E+03  0.29292890189E+03  0.12500000000E+03 0.  0.
         21    1    1    2  503  504 -0.13991394146E+03  0.32445571531E+02 -0.30026686730E+03  0.33284954218E+03  0.00000000000E+00 0. -1.
         21    1    1    2  504  501 -0.56687046064E+02  0.71035065151E+02 -0.19122032817E+03  0.21171824573E+03  0.00000000000E+00 0. -1.
<mgrwt>
<rscale>  4 0.25492193E+03</rscale>
<asrwt>0</asrwt>
<pdfrwt beam="1">  1       21 0.37716025E-01 0.25492193E+03</pdfrwt>
<pdfrwt beam="2">  1       21 0.91129619E-01 0.25492193E+03</pdfrwt>
<totfact> 0.66369806E+03</totfact>
</mgrwt>
</event>
<event>
 5    0  0.1829809E+000  0.3577137E+03  0.7546771E-02  0.1059493E+00
         21   -1    0    0  502  501  0.00000000000E+00  0.00000000000E+00  0.14407751927E+03  0.14407751927E+03  0.00000000000E+00 0. -1.
         21   -1    0    0  503  502 -0.00000000000E+00 -0.00000000000E+00 -0.17072331390E+04  0.17072331390E+04  0.00000000000E+00 0. -1.
         25    1    1    2    0    0  0.88374482696E+01  0.33504620257E+03 -0.13511384006E+03  0.38238044945E+03  0.12500000000E+03 0.  0.
         21    1    1    2  503  504 -0.42796668835E+02 -0.14792758017E+03 -0.63788219408E+03  0.65620714517E+03  0.00000000000E+00 0. -1.
         21    1    1    2  504  501  0.33959220566E+02 -0.18711862239E+03 -0.79015958563E+03  0.81272306370E+03  0.00000000000E+00 0. -1.
<mgrwt>
<rscale>  4 0.35771365E+03</rscale>
<asrwt>0</asrwt>
<pdfrwt beam="1">  1       21 0.22165773E-01 0.35771365E+03</pdfrwt>
<pdfrwt beam="2">  1       21 0.26265125E+00 0.35771365E+03</pdfrwt>
<totfact> 0.91864167E+02</totfact>
</mgrwt>
</event>
<event>
 5    0  0.1829809E+000  0.3249125E+03  0.7546771E-02  0.1073410E+00
         21   -1    0    0  502  501  0.00000000000E+00  0.00000000000E+00  0.17287174106E+03  0.17287174106E+03  0.00000000000E+00 0. -1.
         21   -1    0    0  503  502 -0.00000000000E+00 -0.00000000000E+00 -0.71531381790E+03  0.71531381790E+03  0.00000000000E+00 0. -1.
         25    1    1    2    0    0  0.27402899465E+03 -0.12186570011E+03 -0.92526897572E+02  0.33783037985E+03  0.12500000000E+03 0.  0.
         21    1    1    2  503  504 -0.16160470365E+03  0.60386397876E+02 -0.34111351669E+03  0.38225780379E+03  0.00000000000E+00 0. -1.
         21    1    1    2  504  501 -0.11242429101E+03  0.61479302236E+02 -0.10880166258E+03  0.16809737533E+03  0.00000000000E+00 0. -1.
<mgrwt>
<rscale>  4 0.32491251E+03</rscale>
<asrwt>0</asrwt>
<pdfrwt beam="1">  1       21 0.26595653E-01 0.32491251E+03</pdfrwt>
<pdfrwt beam="2">  1       21 0.11004828E+00 0.32491251E+03</pdfrwt>
<totfact> 0.81347390E+03</totfact>
</mgrwt>
</event>
<event>
 5    0  0.1829809E+000  0.4462220E+03  0.7546771E-02  0.1028855E+00
         21   -1    0    0  502  501  0.00000000000E+00  0.00000000000E+00  0.60470794302E+03  0.60470794302E+03  0.00000000000E+00 0. -1.
         21   -1    0    0  503  502 -0.00000000000E+00 -0.00000000000E+00 -0.50644153514E+03  0.50644153514E+03  0.00000000000E+00 0. -1.
         25    1    1    2    0    0 -0.43953870612E+03  0.14297081736E+03 -0.18835973741E+03  0.51452824944E+03  0.12500000000E+03 0.  0.
         21    1    1    2  503  504  0.32336840227E+03 -0.19632473697E+03  0.14320675048E+03  0.40449808320E+03  0.00000000000E+00 0. -1.
         21    1    1    2  504  501  0.11617030386E+03  0.53353919611E+02  0.14341939481E+03  0.19212314552E+03  0.00000000000E+00 0. -1.
<mgrwt>
<rscale>  4 0.44622203E+03</rscale>
<asrwt>0</asrwt>
<pdfrwt beam="1">  1       21 0.93031992E-01 0.44622203E+03</pdfrwt>
<pdfrwt beam="2">  1       21 0.77914082E-01 0.44622203E+03</pdfrwt>
<totfact> 0.12144964E+03</totfact>
</mgrwt>
</event>
<event>
 5    0  0.1829809E+000  0.2614975E+03  0.7546771E-02  0.1106247E+00
         21   -1    0    0  502  501  0.00000000000E+00  0.00000000000E+00  0.22973449344E+02  0.22973449344E+02  0.00000000000E+00 0. -1.
         21   -1    0    0  503  502 -0.00000000000E+00 -0.00000000000E+00 -0.26465650845E+04  0.26465650845E+04  0.00000000000E+00 0. -1.
         25    1    1    2    0    0  0.16989845890E+03  0.15456542636E+03 -0.13839983038E+04  0.14084858048E+04  0.12500000000E+03 0.  0.
         21    1    1    2  503  504 -0.15361311199E+03 -0.14008768543E+03 -0.10647436263E+04  0.10848504678E+04  0.00000000000E+00 0. -1.
         21    1    1    2  504  501 -0.16285346914E+02 -0.14477740927E+02 -0.17484970504E+03  0.17620226122E+03  0.00000000000E+00 0. -1.
<mgrwt>
<rscale>  4 0.26149753E+03</rscale>
<asrwt>0</asrwt>
<pdfrwt beam="1">  1       21 0.35343764E-02 0.26149753E+03</pdfrwt>
<pdfrwt beam="2">  1       21 0.40716391E+00 0.26149753E+03</pdfrwt>
<totfact> 0.34866567E+03</totfact>
</mgrwt>
</event>
<event>
 5    0  0.1829809E+000  0.2434285E+03  0.7546771E-02  0.1117530E+00
         21   -1    0    0  502  501  0.00000000000E+00  0.00000000000E+00  0.10722745464E+03  0.10722745464E+03  0.00000000000E+00 0. -1.
         21   -1    0    0  503  502 -0.00000000000E+00 -0.00000000000E+00 -0.55994913410E+03  0.55994913410E+03  0.00000000000E+00 0. -1.
         25    1    1    2    0    0  0.20594359027E+03 -0.34923623267E+02 -0.35691413773E+03  0.43202444786E+03  0.12500000000E+03 0.  0.
         21    1    1    2  503  504 -0.16572460408E+03  0.80069200059E+01 -0.80339408742E+02  0.18434526238E+03  0.00000000000E+00 0. -1.
         21    1    1    2  504  501 -0.40218986187E+02  0.26916703261E+02 -0.15468132988E+02  0.50806878496E+02  0.00000000000E+00 0. -1.
<mgrwt>
<rscale>  4 0.24342847E+03</rscale>
<asrwt>0</asrwt>
<pdfrwt beam="1">  1       21 0.16496532E-01 0.24342847E+03</pdfrwt>
<pdfrwt beam="2">  1       21 0.86146020E-01 0.24342847E+03</pdfrwt>
<totfact> 0.37358201E+04</totfact>
</mgrwt>
</event>
<event>
 5    0  0.1829809E+000  0.2397950E+03  0.7546771E-02  0.1119929E+00
         21   -1    0    0  502  501  0.00000000000E+00  0.00000000000E+00  0.58361707010E+02  0.58361707010E+02  0.00000000000E+00 0. -1.
         21   -1    0    0  503  502 -0.00000000000E+00 -0.00000000000E+00 -0.11750103755E+04  0.11750103755E+04  0.00000000000E+00 0. -1.
         25    1    1    2    0    0 -0.23710290553E+02  0.21198744755E+03 -0.31309478733E+03  0.39894135114E+03  0.12500000000E+03 0.  0.
         21    1    1    2  503  504  0.22872972276E+02 -0.18841319126E+03 -0.59477946353E+03  0.62432788961E+03  0.00000000000E+00 0. -1.
         21    1    1    2  504  501  0.83731827767E+00 -0.23574256285E+02 -0.20877441764E+03  0.21010284177E+03  0.00000000000E+00 0.  1.
<mgrwt>
<rscale>  4 0.23979496E+03</rscale>
<asrwt>0</asrwt>
<pdfrwt beam="1">  1       21 0.89787244E-02 0.23979496E+03</pdfrwt>
<pdfrwt beam="2">  1       21 0.18077082E+00 0.23979496E+03</pdfrwt>
<totfact> 0.17072459E+04</totfact>
</mgrwt>
</event>
<event>
 5    0  0.1829809E+000  0.3768983E+03  0.7546771E-02  0.1052086E+00
         21   -1    0    0  502  501  0.00000000000E+00  0.00000000000E+00  0.13138462899E+03  0.13138462899E+03  0.00000000000E+00 0.  1.
         21   -1    0    0  503  502 -0.00000000000E+00 -0.00000000000E+00 -0.10307957022E+04  0.10307957022E+04  0.00000000000E+00 0.  1.
         25    1    1    2    0    0 -0.35244132765E+03 -0.47036525308E+02 -0.49605457391E+03  0.62299475475E+03  0.12500000000E+03 0.  0.
         21    1    1    2  503  504  0.19131917199E+02  0.12131466015E+02 -0.24197677637E+02  0.33147101327E+02  0.00000000000E+00 0.  1.
         21    1    1    2  504  501  0.33330941046E+03  0.34905059293E+02 -0.37915882169E+03  0.50603847514E+03  0.00000000000E+00 0.  1.
<mgrwt>
<rscale>  4 0.37689829E+03</rscale>
<asrwt>0</asrwt>
<pdfrwt beam="1">  1       21 0.20213019E-01 0.37689829E+03</pdfrwt>
<pdfrwt beam="2">  1       21 0.15858396E+00 0.37689829E+03</pdfrwt>
<totfact> 0.52220863E+03</totfact>
</mgrwt>
</event>
<event>
 5    0  0.1829809E+000  0.2827433E+03  0.7546771E-02  0.1094200E+00
         21   -1    0    0  502  501  0.00000000000E+00  0.00000000000E+00  0.21625072665E+04  0.21625072665E+04  0.00000000000E+00 0. -1.
         21   -1    0    0  503  502 -0.00000000000E+00 -0.00000000000E+00 -0.21047323946E+03  0.21047323946E+03  0.00000000000E+00 0.  1.
         25    1    1    2    0    0 -0.25999046309E+03 -0.23421713438E+01  0.20086369847E+04  0.20292481521E+04  0.12500000000E+03 0.  0.
         21    1    1    2  503  504  0.20050892803E+03  0.56803314617E+02  0.45811871492E+02  0.21337566483E+03  0.00000000000E+00 0.  1.
         21    1    1    2  504  501  0.59481535064E+02 -0.54461143273E+02 -0.10241482914E+03  0.13035668900E+03  0.00000000000E+00 0.  1.
<mgrwt>
<rscale>  4 0.28274327E+03</rscale>
<asrwt>0</asrwt>
<pdfrwt beam="1">  1       21 0.33269341E+00 0.28274327E+03</pdfrwt>
<pdfrwt beam="2">  1       21 0.32380500E-01 0.28274327E+03</pdfrwt>
<totfact> 0.17971601E+02</totfact>
</mgrwt>
</event>
<event>
 5    0  0.1829809E+000  0.2839252E+03  0.7546771E-02  0.1093564E+00
         21   -1    0    0  502  501  0.00000000000E+00  0.00000000000E+00  0.13166658831E+04  0.13166658831E+04  0.00000000000E+00 0. -1.
         21   -1    0    0  503  502 -0.00000000000E+00 -0.00000000000E+00 -0.11349227119E+03  0.11349227119E+03  0.00000000000E+00 0. -1.
         25    1    1    2    0    0  0.56607070240E+02  0.26460441318E+03  0.10628394320E+04  0.11038444248E+04  0.12500000000E+03 0.  0.
         21    1    1    2  503  504 -0.65594480482E+02 -0.24377029825E+03  0.84768023940E+02  0.26629346980E+03  0.00000000000E+00 0. -1.
         21    1    1    2  504  501  0.89874102417E+01 -0.20834114938E+02  0.55566155890E+02  0.60020259651E+02  0.00000000000E+00 0. -1.
<mgrwt>
<rscale>  4 0.28392518E+03</rscale>
<asrwt>0</asrwt>
<pdfrwt beam="1">  1       21 0.20256397E+00 0.28392518E+03</pdfrwt>
<pdfrwt beam="2">  1       21 0.17460350E-01 0.28392518E+03</pdfrwt>
<totfact> 0.35664282E+03</totfact>
</mgrwt>
</event>
<event>
 5    0  0.1829809E+000  0.3701919E+03  0.7546771E-02  0.1054620E+00
         21   -1    0    0  502  501  0.00000000000E+00  0.00000000000E+00  0.25274324212E+04  0.25274324212E+04  0.00000000000E+00 0. -1.
         21   -1    0    0  503  502 -0.00000000000E+00 -0.00000000000E+00 -0.22863831981E+03  0.22863831981E+03  0.00000000000E+00 0.  1.
         25    1    1    2    0    0 -0.13807597749E+03 -0.32672600978E+03  0.23264887765E+04  0.23566904523E+04  0.12500000000E+03 0.  0.
         21    1    1    2  503  504  0.75255165541E+02  0.28754981445E+03  0.38939799959E+02  0.29977415458E+03  0.00000000000E+00 0.  1.
         21    1    1    2  504  501  0.62820811948E+02  0.39176195332E+02 -0.66634475028E+02  0.99606134132E+02  0.00000000000E+00 0. -1.
<mgrwt>
<rscale>  4 0.37019192E+03</rscale>
<asrwt>0</asrwt>
<pdfrwt beam="1">  1       21 0.38883574E+00 0.37019192E+03</pdfrwt>
<pdfrwt beam="2">  1       21 0.35175128E-01 0.37019192E+03</pdfrwt>
<totfact> 0.63414589E+01</totfact>
</mgrwt>
</event>
<event>
 5    0  0.1829809E+000  0.2700808E+03  0.7546771E-02  0.1101233E+00
         21   -1    0    0  502  501  0.00000000000E+00  0.00000000000E+00  0.63756881303E+02  0.63756881303E+02  0.00000000000E+00 0.  1.
         21   -1    0    0  503  502 -0.00000000000E+00 -0.00000000000E+00 -0.10568659578E+04  0.10568659578E+04  0.00000000000E+00 0.  1.
         25    1    1    2    0    0  0.53935424776E+02 -0.23325869378E+03 -0.59312239504E+03  0.65171912951E+03  0.12500000000E+03 0.  0.
         21    1    1    2  503  504 -0.27256619638E+02  0.19923894389E+03 -0.33877470688E+03  0.39396368119E+03  0.00000000000E+00 0.  1.
         21    1    1    2  504  501 -0.26678805138E+02  0.34019749888E+02 -0.61211974599E+02  0.74940028425E+02  0.00000000000E+00 0.  1.
<mgrwt>
<rscale>  4 0.27008082E+03</rscale>
<asrwt>0</asrwt>
<pdfrwt beam="1">  1       21 0.98087519E-02 0.27008082E+03</pdfrwt>
<pdfrwt beam="2">  1       21 0.16259475E+00 0.27008082E+03</pdfrwt>
<totfact> 0.19305375E+04</totfact>
</mgrwt>
</event>
<event>
 5    0  0.1829809E+000  0.2346438E+03  0.7546771E-02  0.1123413E+00
         21   -1    0    0  502  501  0.00000000000E+00  0.00000000000E+00  0.10237237821E+03  0.10237237821E+03  0.00000000000E+00 0.  1.
         21   -1    0    0  503  502 -0.00000000000E+00 -0.00000000000E+00 -0.11869285101E+04  0.11869285101E+04  0.00000000000E+00 0.  1.
         25    1    1    2    0    0  0.49816561576E+02  0.23672558895E+03 -0.15195061504E+03  0.31182476438E+03  0.12500000000E+03 0.  0.
         21    1    1    2  503  504 -0.29338932730E+02 -0.19078151181E+03 -0.89252635904E+03  0.91316025965E+03  0.00000000000E+00 0.  1.
         21    1    1    2  504  501 -0.20477628847E+02 -0.45944077134E+02 -0.40079157797E+02  0.64315864268E+02  0.00000000000E+00 0.  1.
<mgrwt>
<rscale>  4 0.23464376E+03</rscale>
<asrwt>0</asrwt>
<pdfrwt beam="1">  1       21 0.15749597E-01 0.23464376E+03</pdfrwt>
<pdfrwt beam="2">  1       21 0.18260438E+00 0.23464376E+03</pdfrwt>
<totfact> 0.60604392E+03</totfact>
</mgrwt>
</event>
<event>
 5    0  0.1829809E+000  0.2452424E+03  0.7546771E-02  0.1116349E+00
         21   -1    0    0  502  501  0.00000000000E+00  0.00000000000E+00  0.20328822157E+03  0.20328822157E+03  0.00000000000E+00 0. -1.
         21   -1    0    0  503  502 -0.00000000000E+00 -0.00000000000E+00 -0.61346785722E+03  0.61346785722E+03  0.00000000000E+00 0. -1.
         25    1    1    2    0    0  0.16973514309E+03 -0.12533487867E+03  0.98320057795E+02  0.26421711598E+03  0.12500000000E+03 0.  0.
         21    1    1    2  503  504 -0.12986275697E+03  0.98449953687E+02 -0.43676649051E+03  0.46617775178E+03  0.00000000000E+00 0. -1.
         21    1    1    2  504  501 -0.39872386124E+02  0.26884924986E+02 -0.71733202936E+02  0.86361211028E+02  0.00000000000E+00 0.  1.
<mgrwt>
<rscale>  4 0.24524243E+03</rscale>
<asrwt>0</asrwt>
<pdfrwt beam="1">  1       21 0.31275112E-01 0.24524243E+03</pdfrwt>
<pdfrwt beam="2">  1       21 0.94379668E-01 0.24524243E+03</pdfrwt>
<totfact> 0.89285432E+03</totfact>
</mgrwt>
</event>
<event>
 5    0  0.1829809E+000  0.2449761E+03  0.7546771E-02  0.1116522E+00
         21   -1    0    0  502  501  0.00000000000E+00  0.00000000000E+00  0.66153933754E+03  0.66153933754E+03  0.00000000000E+00 0.  1.
         21   -1    0    0  503  502 -0.00000000000E+00 -0.00000000000E+00 -0.19463845279E+03  0.19463845279E+03  0.00000000000E+00 0. -1.
         25    1    1    2    0    0 -0.18734343141E+03 -0.96388430087E+02  0.56764304171E+03  0.61824907080E+03  0.12500000000E+03 0.  0.
         21    1    1    2  503  504  0.13858696226E+02  0.23637448042E+02 -0.11577184960E+02  0.29745984983E+02  0.00000000000E+00 0. -1.
         21    1    1    2  504  501  0.17348473518E+03  0.72750982045E+02 -0.89164972007E+02  0.20818273454E+03  0.00000000000E+00 0. -1.
<mgrwt>
<rscale>  4 0.24497610E+03</rscale>
<asrwt>0</asrwt>
<pdfrwt beam="1">  1       21 0.10177528E+00 0.24497610E+03</pdfrwt>
<pdfrwt beam="2">  1       21 0.29944378E-01 0.24497610E+03</pdfrwt>
<totfact> 0.81299745E+03</totfact>
</mgrwt>
</event>
<event>
 5    0  0.1829809E+000  0.3092737E+03  0.7546771E-02  0.1080695E+00
         21   -1    0    0  502  501  0.00000000000E+00  0.00000000000E+00  0.32994208277E+03  0.32994208277E+03  0.00000000000E+00 0.  1.
         21   -1    0    0  503  502 -0.00000000000E+00 -0.00000000000E+00 -0.46489757597E+03  0.46489757597E+03  0.00000000000E+00 0. -1.
         25    1    1    2    0    0 -0.28114641293E+03  0.31335565724E+02  0.18487471625E+03  0.36031775406E+03  0.12500000000E+03 0.  0.
         21    1    1    2  503  504  0.19196746325E+03 -0.18720329336E+02 -0.15806055133E+03  0.24936939581E+03  0.00000000000E+00 0. -1.
         21    1    1    2  504  501  0.89178949682E+02 -0.12615236388E+02 -0.16176965812E+03  0.18515250887E+03  0.00000000000E+00 0. -1.
<mgrwt>
<rscale>  4 0.30927370E+03</rscale>
<asrwt>0</asrwt>
<pdfrwt beam="1">  1       21 0.50760321E-01 0.30927370E+03</pdfrwt>
<pdfrwt beam="2">  1       21 0.71522703E-01 0.30927370E+03</pdfrwt>
<totfact> 0.60809243E+03</totfact>
</mgrwt>
</event>
<event>
 5    0  0.1829809E+000  0.2533122E+03  0.7546771E-02  0.1111229E+00
         21   -1    0    0  502  501  0.00000000000E+00  0.00000000000E+00  0.26732024332E+04  0.26732024332E+04  0.00000000000E+00 0. -1.
         21   -1    0    0  503  502 -0.00000000000E+00 -0.00000000000E+00 -0.11454013161E+03  0.11454013161E+03  0.00000000000E+00 0. -1.
         25    1    1    2    0    0 -0.21884548245E+03  0.66551614418E+02  0.22714627439E+04  0.22863705867E+04  0.12500000000E+03 0.  0.
         21    1    1    2  503  504  0.14391183617E+03  0.67601947751E+02 -0.17658859072E+02  0.15997648338E+03  0.00000000000E+00 0. -1.
         21    1    1    2  504  501  0.74933646275E+02 -0.13415356217E+03  0.30485841669E+03  0.34139549471E+03  0.00000000000E+00 0. -1.
<mgrwt>
<rscale>  4 0.25331221E+03</rscale>
<asrwt>0</asrwt>
<pdfrwt beam="1">  1       21 0.41126187E+00 0.25331221E+03</pdfrwt>
<pdfrwt beam="2">  1       21 0.17621561E-01 0.25331221E+03</pdfrwt>
<totfact> 0.19724682E+02</totfact>
</mgrwt>
</event>
<event>
 5    0  0.1829809E+000  0.2446193E+03  0.7546771E-02  0.1116753E+00
         21   -1    0    0  502  501  0.00000000000E+00  0.00000000000E+00  0.57188684658E+03  0.57188684658E+03  0.00000000000E+00 0. -1.
         21   -1    0    0  503  502 -0.00000000000E+00 -0.00000000000E+00 -0.98714941435E+02  0.98714941435E+02  0.00000000000E+00 0. -1.
         25    1    1    2    0    0  0.30862669586E+02 -0.20799299466E+03  0.34085598211E+03  0.41954903258E+03  0.12500000000E+03 0.  0.
         21    1    1    2  503  504 -0.15174737490E+02  0.17973547006E+03  0.11902384550E+03  0.21610596395E+03  0.00000000000E+00 0. -1.
         21    1    1    2  504  501 -0.15687932096E+02  0.28257524598E+02  0.13292077535E+02  0.34946791484E+02  0.00000000000E+00 0. -1.
<mgrwt>
<rscale>  4 0.24461928E+03</rscale>
<asrwt>0</asrwt>
<pdfrwt beam="1">  1       21 0.87982590E-01 0.24461928E+03</pdfrwt>
<pdfrwt beam="2">  1       21 0.15186914E-01 0.24461928E+03</pdfrwt>
<totfact> 0.41401828E+04</totfact>
</mgrwt>
</event>
<event>
 5    0  0.1829809E+000  0.3130627E+03  0.7546771E-02  0.1078887E+00
         21   -1    0    0  502  501  0.00000000000E+00  0.00000000000E+00  0.20121498065E+03  0.20121498065E+03  0.00000000000E+00 0. -1.
         21   -1    0    0  503  502 -0.00000000000E+00 -0.00000000000E+00 -0.66119952983E+03  0.66119952983E+03  0.00000000000E+00 0. -1.
         25    1    1    2    0    0 -0.27915626688E+03  0.66745898935E+02  0.26313364084E+01  0.31307372980E+03  0.12500000000E+03 0.  0.
         21    1    1    2  503  504  0.25078073201E+03 -0.81532597289E+02 -0.40148718845E+03  0.48034415002E+03  0.00000000000E+00 0. -1.
         21    1    1    2  504  501  0.28375534868E+02  0.14786698354E+02 -0.61128697137E+02  0.68996630649E+02  0.00000000000E+00 0. -1.
<mgrwt>
<rscale>  4 0.31306267E+03</rscale>
<asrwt>0</asrwt>
<pdfrwt beam="1">  1       21 0.30956150E-01 0.31306267E+03</pdfrwt>
<pdfrwt beam="2">  1       21 0.10172301E+00 0.31306267E+03</pdfrwt>
<totfact> 0.73569985E+03</totfact>
</mgrwt>
</event>
<event>
 5    0  0.1829809E+000  0.2656006E+03  0.7546771E-02  0.1103824E+00
         21   -1    0    0  502  501  0.00000000000E+00  0.00000000000E+00  0.69489521290E+03  0.69489521290E+03  0.00000000000E+00 0. -1.
         21   -1    0    0  503  502 -0.00000000000E+00 -0.00000000000E+00 -0.13630732157E+03  0.13630732157E+03  0.00000000000E+00 0. -1.
         25    1    1    2    0    0 -0.14720715461E+03  0.18234236290E+03  0.51363014339E+03  0.57823836597E+03  0.12500000000E+03 0.  0.
         21    1    1    2  503  504  0.81916807094E+02 -0.68103454628E+02  0.57025126253E+02  0.12083173772E+03  0.00000000000E+00 0. -1.
         21    1    1    2  504  501  0.65290347520E+02 -0.11423890827E+03 -0.12067378319E+02  0.13213243077E+03  0.00000000000E+00 0. -1.
<mgrwt>
<rscale>  4 0.26560061E+03</rscale>
<asrwt>0</asrwt>
<pdfrwt beam="1">  1       21 0.10690695E+00 0.26560061E+03</pdfrwt>
<pdfrwt beam="2">  1       21 0.20970358E-01 0.26560061E+03</pdfrwt>
<totfact> 0.14161368E+04</totfact>
</mgrwt>
</event>
<event>
 5    0  0.1829809E+000  0.3428987E+03  0.7546771E-02  0.1065568E+00
         21   -1    0    0  502  501  0.00000000000E+00  0.00000000000E+00  0.19327353645E+03  0.19327353645E+03  0.00000000000E+00 0.  1.
         21   -1    0    0  503  502 -0.00000000000E+00 -0.00000000000E+00 -0.58150288241E+03  0.58150288241E+03  0.00000000000E+00 0.  1.
         25    1    1    2    0    0  0.12819346364E+03 -0.29243967942E+03 -0.24349934393E+03  0.42056088824E+03  0.12500000000E+03 0.  0.
         21    1    1    2  503  504 -0.10053876129E+03  0.26487216622E+03 -0.11804376549E+03  0.30691959457E+03  0.00000000000E+00 0.  1.
         21    1    1    2  504  501 -0.27654702350E+02  0.27567513204E+02 -0.26686236535E+02  0.47295936049E+02  0.00000000000E+00 0.  1.
<mgrwt>
<rscale>  4 0.34289872E+03</rscale>
<asrwt>0</asrwt>
<pdfrwt beam="1">  1       21 0.29734390E-01 0.34289872E+03</pdfrwt>
<pdfrwt beam="2">  1       21 0.89461983E-01 0.34289872E+03</pdfrwt>
<totfact> 0.10677823E+04</totfact>
</mgrwt>
</event>
<event>
 5    0  0.1829809E+000  0.2391203E+03  0.7546771E-02  0.1120380E+00
         21   -1    0    0  502  501  0.00000000000E+00  0.00000000000E+00  0.44697971540E+02  0.44697971540E+02  0.00000000000E+00 0.  1.
         21   -1    0    0  503  502 -0.00000000000E+00 -0.00000000000E+00 -0.12413734413E+04  0.12413734413E+04  0.00000000000E+00 0.  1.
         25    1    1    2    0    0 -0.32956014668E+02 -0.20116514481E+03 -0.45623718725E+03  0.51510279112E+03  0.12500000000E+03 0.  0.
         21    1    1    2  503  504  0.47030203814E+02  0.18046882129E+03 -0.68854776311E+03  0.71335745431E+03  0.00000000000E+00 0.  1.
         21    1    1    2  504  501 -0.14074189146E+02  0.20696323515E+02 -0.51890519382E+02  0.57611167397E+02  0.00000000000E+00 0.  1.
<mgrwt>
<rscale>  4 0.23912029E+03</rscale>
<asrwt>0</asrwt>
<pdfrwt beam="1">  1       21 0.68766116E-02 0.23912029E+03</pdfrwt>
<pdfrwt beam="2">  1       21 0.19098051E+00 0.23912029E+03</pdfrwt>
<totfact> 0.23232176E+04</totfact>
</mgrwt>
</event>
<event>
 5    0  0.1829809E+000  0.2575299E+03  0.7546771E-02  0.1108636E+00
         21   -1    0    0  502  501  0.00000000000E+00  0.00000000000E+00  0.13435474639E+04  0.13435474639E+04  0.00000000000E+00 0. -1.
         21   -1    0    0  503  502 -0.00000000000E+00 -0.00000000000E+00 -0.58655197748E+02  0.58655197748E+02  0.00000000000E+00 0. -1.
         25    1    1    2    0    0 -0.74836868461E+02 -0.21235835778E+03  0.10236697349E+04  0.10555668407E+04  0.12500000000E+03 0.  0.
         21    1    1    2  503  504  0.15096993265E+02  0.14122663658E+02  0.20313805765E+02  0.28983090572E+02  0.00000000000E+00 0. -1.
         21    1    1    2  504  501  0.59739875196E+02  0.19823569412E+03  0.24090872550E+03  0.31765273040E+03  0.00000000000E+00 0. -1.
<mgrwt>
<rscale>  4 0.25752986E+03</rscale>
<asrwt>0</asrwt>
<pdfrwt beam="1">  1       21 0.20669959E+00 0.25752986E+03</pdfrwt>
<pdfrwt beam="2">  1       21 0.90238776E-02 0.25752986E+03</pdfrwt>
<totfact> 0.11277197E+04</totfact>
</mgrwt>
</event>
<event>
 5    0  0.1829809E+000  0.2670463E+03  0.7546771E-02  0.1102982E+00
         21   -1    0    0  502  501  0.00000000000E+00  0.00000000000E+00  0.94254247421E+03  0.94254247421E+03  0.00000000000E+00 0.  1.
         21   -1    0    0  503  502 -0.00000000000E+00 -0.00000000000E+00 -0.11154949197E+03  0.11154949197E+03  0.00000000000E+00 0.  1.
         25    1    1    2    0    0  0.16627519301E+03 -0.16745525728E+03  0.75234929064E+03  0.79833774690E+03  0.12500000000E+03 0.  0.
         21    1    1    2  503  504 -0.10358311501E+02  0.35324422706E+02  0.24866746076E+02  0.44423693195E+02  0.00000000000E+00 0.  1.
         21    1    1    2  504  501 -0.15591688151E+03  0.13213083458E+03  0.53776945525E+02  0.21133052608E+03  0.00000000000E+00 0.  1.
<mgrwt>
<rscale>  4 0.26704626E+03</rscale>
<asrwt>0</asrwt>
<pdfrwt beam="1">  1       21 0.14500653E+00 0.26704626E+03</pdfrwt>
<pdfrwt beam="2">  1       21 0.17161461E-01 0.26704626E+03</pdfrwt>
<totfact> 0.95354543E+03</totfact>
</mgrwt>
</event>
<event>
 5    0  0.1829809E+000  0.3119144E+03  0.7546771E-02  0.1079432E+00
         21   -1    0    0  502  501  0.00000000000E+00  0.00000000000E+00  0.35003460873E+03  0.35003460873E+03  0.00000000000E+00 0. -1.
         21   -1    0    0  503  502 -0.00000000000E+00 -0.00000000000E+00 -0.42430306542E+03  0.42430306542E+03  0.00000000000E+00 0. -1.
         25    1    1    2    0    0  0.13676732796E+03 -0.25091890932E+03  0.20459662353E+03  0.37302865763E+03  0.12500000000E+03 0.  0.
         21    1    1    2  503  504 -0.11481178513E+03  0.23151879238E+03 -0.25924749496E+03  0.36604912358E+03  0.00000000000E+00 0. -1.
         21    1    1    2  504  501 -0.21955542829E+02  0.19400116939E+02 -0.19617585267E+02  0.35259892936E+02  0.00000000000E+00 0. -1.
<mgrwt>
<rscale>  4 0.31191441E+03</rscale>
<asrwt>0</asrwt>
<pdfrwt beam="1">  1       21 0.53851478E-01 0.31191441E+03</pdfrwt>
<pdfrwt beam="2">  1       21 0.65277395E-01 0.31191441E+03</pdfrwt>
<totfact> 0.65628783E+03</totfact>
</mgrwt>
</event>
<event>
 5    0  0.1829809E+000  0.2359160E+03  0.7546771E-02  0.1122544E+00
         21   -1    0    0  502  501  0.00000000000E+00  0.00000000000E+00  0.74864579619E+03  0.74864579619E+03  0.00000000000E+00 0.  1.
         21   -1    0    0  503  502 -0.00000000000E+00 -0.00000000000E+00 -0.95537626860E+02  0.95537626860E+02  0.00000000000E+00 0.  1.
         25    1    1    2    0    0  0.20310243577E+03 -0.55998135765E+02  0.49285819389E+03  0.55038222165E+03  0.12500000000E+03 0.  0.
         21    1    1    2  503  504 -0.25838375886E+02 -0.31475316700E+02  0.59049685024E+02  0.71729927723E+02  0.00000000000E+00 0.  1.
         21    1    1    2  504  501 -0.17726405988E+03  0.87473452465E+02  0.10120029042E+03  0.22207127368E+03  0.00000000000E+00 0.  1.
<mgrwt>
<rscale>  4 0.23591599E+03</rscale>
<asrwt>0</asrwt>
<pdfrwt beam="1">  1       21 0.11517627E+00 0.23591599E+03</pdfrwt>
<pdfrwt beam="2">  1       21 0.14698097E-01 0.23591599E+03</pdfrwt>
<totfact> 0.23188607E+04</totfact>
</mgrwt>
</event>
<event>
 5    0  0.1829809E+000  0.3113793E+03  0.7546771E-02  0.1079687E+00
         21   -1    0    0  502  501  0.00000000000E+00  0.00000000000E+00  0.55845145045E+03  0.55845145045E+03  0.00000000000E+00 0.  1.
         21   -1    0    0  503  502 -0.00000000000E+00 -0.00000000000E+00 -0.16429556515E+03  0.16429556515E+03  0.00000000000E+00 0.  1.
         25    1    1    2    0    0 -0.26868109366E+03 -0.95616761303E+02  0.22877520195E+03  0.38638735507E+03  0.12500000000E+03 0.  0.
         21    1    1    2  503  504  0.17880300106E+03  0.47393696069E+02  0.73382322063E+02  0.19900161006E+03  0.00000000000E+00 0.  1.
         21    1    1    2  504  501  0.89878092598E+02  0.48223065234E+02  0.91998361287E+02  0.13735805047E+03  0.00000000000E+00 0. -1.
<mgrwt>
<rscale>  4 0.31137934E+03</rscale>
<asrwt>0</asrwt>
<pdfrwt beam="1">  1       21 0.85915607E-01 0.31137934E+03</pdfrwt>
<pdfrwt beam="2">  1       21 0.25276241E-01 0.31137934E+03</pdfrwt>
<totfact> 0.16321541E+04</totfact>
</mgrwt>
</event>
<event>
 5    0  0.1829809E+000  0.2443560E+03  0.7546771E-02  0.1116925E+00
         21   -1    0    0  502  501  0.00000000000E+00  0.00000000000E+00  0.37248097446E+03  0.37248097446E+03  0.00000000000E+00 0. -1.
         21   -1    0    0  503  502 -0.00000000000E+00 -0.00000000000E+00 -0.26820820410E+03  0.26820820410E+03  0.00000000000E+00 0.  1.
         25    1    1    2    0    0  0.47207579773E+02 -0.20458809347E+03  0.27236930929E+03  0.36591649897E+03  0.12500000000E+03 0.  0.
         21    1    1    2  503  504 -0.23532026850E+02  0.21001615724E+02 -0.17017539248E+02  0.35838816843E+02  0.00000000000E+00 0.  1.
         21    1    1    2  504  501 -0.23675552924E+02  0.18358647775E+03 -0.15107899969E+03  0.23893386274E+03  0.00000000000E+00 0.  1.
<mgrwt>
<rscale>  4 0.24435598E+03</rscale>
<asrwt>0</asrwt>
<pdfrwt beam="1">  1       21 0.57304765E-01 0.24435598E+03</pdfrwt>
<pdfrwt beam="2">  1       21 0.41262801E-01 0.24435598E+03</pdfrwt>
<totfact> 0.15692899E+04</totfact>
</mgrwt>
</event>
<event>
 5    0  0.1829809E+000  0.2028142E+03  0.7546771E-02  0.1147386E+00
         21   -1    0    0  502  501  0.00000000000E+00  0.00000000000E+00  0.72494436183E+02  0.72494436183E+02  0.00000000000E+00 0. -1.
         21   -1    0    0  503  502 -0.00000000000E+00 -0.00000000000E+00 -0.14515848070E+04  0.14515848070E+04  0.00000000000E+00 0. -1.
         25    1    1    2    0    0  0.20835705053E+03 -0.32280222790E+02 -0.19804402749E+03  0.31512078654E+03  0.12500000000E+03 0.  0.
         21    1    1    2  503  504 -0.60265619407E+02 -0.13651651295E+02 -0.10527047996E+03  0.12206631975E+03  0.00000000000E+00 0. -1.
         21    1    1    2  504  501 -0.14809143112E+03  0.45931874085E+02 -0.10757758633E+04  0.10868921369E+04  0.00000000000E+00 0. -1.
<mgrwt>
<rscale>  4 0.20281422E+03</rscale>
<asrwt>0</asrwt>
<pdfrwt beam="1">  1       21 0.11152992E-01 0.20281422E+03</pdfrwt>
<pdfrwt beam="2">  1       21 0.22332071E+00 0.20281422E+03</pdfrwt>
<totfact> 0.63588145E+03</totfact>
</mgrwt>
</event>
<event>
 5    0  0.1829809E+000  0.2508242E+03  0.7546771E-02  0.1112785E+00
         21   -1    0    0  502  501  0.00000000000E+00  0.00000000000E+00  0.28671317225E+02  0.28671317225E+02  0.00000000000E+00 0. -1.
         21   -1    0    0  503  502 -0.00000000000E+00 -0.00000000000E+00 -0.22962505681E+04  0.22962505681E+04  0.00000000000E+00 0. -1.
         25    1    1    2    0    0 -0.21728516318E+03 -0.86559428566E+01 -0.74959034587E+03  0.79044193595E+03  0.12500000000E+03 0.  0.
         21    1    1    2  503  504  0.94678104799E+02 -0.10745129381E+02 -0.82240473283E+03  0.82790636301E+03  0.00000000000E+00 0. -1.
         21    1    1    2  504  501  0.12260705838E+03  0.19401072238E+02 -0.69558417220E+03  0.70657358639E+03  0.00000000000E+00 0. -1.
<mgrwt>
<rscale>  4 0.25082418E+03</rscale>
<asrwt>0</asrwt>
<pdfrwt beam="1">  1       21 0.44109727E-02 0.25082418E+03</pdfrwt>
<pdfrwt beam="2">  1       21 0.35326925E+00 0.25082418E+03</pdfrwt>
<totfact> 0.52111425E+03</totfact>
</mgrwt>
</event>
<event>
 5    0  0.1829809E+000  0.2710194E+03  0.7546771E-02  0.1100698E+00
         21   -1    0    0  502  501  0.00000000000E+00  0.00000000000E+00  0.26408811067E+03  0.26408811067E+03  0.00000000000E+00 0.  1.
         21   -1    0    0  503  502 -0.00000000000E+00 -0.00000000000E+00 -0.50491049638E+03  0.50491049638E+03  0.00000000000E+00 0.  1.
         25    1    1    2    0    0 -0.20434420707E+01 -0.24392037449E+03  0.12423550566E+03  0.30093319128E+03  0.12500000000E+03 0.  0.
         21    1    1    2  503  504 -0.19464439937E+02  0.23006217243E+03 -0.21384014787E+03  0.31469838965E+03  0.00000000000E+00 0.  1.
         21    1    1    2  504  501  0.21507882007E+02  0.13858202063E+02 -0.15121774350E+03  0.15336702612E+03  0.00000000000E+00 0.  1.
<mgrwt>
<rscale>  4 0.27101941E+03</rscale>
<asrwt>0</asrwt>
<pdfrwt beam="1">  1       21 0.40628941E-01 0.27101941E+03</pdfrwt>
<pdfrwt beam="2">  1       21 0.77678536E-01 0.27101941E+03</pdfrwt>
<totfact> 0.81706506E+03</totfact>
</mgrwt>
</event>
<event>
 5    0  0.1829809E+000  0.2399662E+03  0.7546771E-02  0.1119815E+00
         21   -1    0    0  502  501  0.00000000000E+00  0.00000000000E+00  0.20674070833E+03  0.20674070833E+03  0.00000000000E+00 0.  1.
         21   -1    0    0  503  502 -0.00000000000E+00 -0.00000000000E+00 -0.43156869711E+03  0.43156869711E+03  0.00000000000E+00 0. -1.
         25    1    1    2    0    0 -0.13316823035E+03  0.15564384850E+03  0.94346550880E+02  0.25784696394E+03  0.12500000000E+03 0.  0.
         21    1    1    2  503  504  0.19519562100E+02 -0.14727510786E+02 -0.24457126115E+02  0.34584156724E+02  0.00000000000E+00 0. -1.
         21    1    1    2  504  501  0.11364866825E+03 -0.14091633771E+03 -0.29471741355E+03  0.34587828478E+03  0.00000000000E+00 0. -1.
<mgrwt>
<rscale>  4 0.23996622E+03</rscale>
<asrwt>0</asrwt>
<pdfrwt beam="1">  1       21 0.31806263E-01 0.23996622E+03</pdfrwt>
<pdfrwt beam="2">  1       21 0.66395184E-01 0.23996622E+03</pdfrwt>
<totfact> 0.19257191E+04</totfact>
</mgrwt>
</event>
<event>
 5    0  0.1829809E+000  0.2890734E+03  0.7546771E-02  0.1090834E+00
         21   -1    0    0  502  501  0.00000000000E+00  0.00000000000E+00  0.16531584782E+03  0.16531584782E+03  0.00000000000E+00 0. -1.
         21   -1    0    0  503  502 -0.00000000000E+00 -0.00000000000E+00 -0.47964920427E+03  0.47964920427E+03  0.00000000000E+00 0. -1.
         25    1    1    2    0    0  0.48572210691E+02  0.25608434201E+03 -0.22306658236E+03  0.36513305800E+03  0.12500000000E+03 0.  0.
         21    1    1    2  503  504  0.24143168301E+01 -0.63896375364E+02 -0.86873727167E+01  0.64529420849E+02  0.00000000000E+00 0.  1.
         21    1    1    2  504  501 -0.50986527521E+02 -0.19218796665E+03 -0.82579401378E+02  0.21530257324E+03  0.00000000000E+00 0. -1.
<mgrwt>
<rscale>  4 0.28907343E+03</rscale>
<asrwt>0</asrwt>
<pdfrwt beam="1">  1       21 0.25433208E-01 0.28907343E+03</pdfrwt>
<pdfrwt beam="2">  1       21 0.73792183E-01 0.28907343E+03</pdfrwt>
<totfact> 0.23038871E+04</totfact>
</mgrwt>
</event>
<event>
 5    0  0.1829809E+000  0.2638660E+03  0.7546771E-02  0.1104842E+00
         21   -1    0    0  502  501  0.00000000000E+00  0.00000000000E+00  0.38316372152E+03  0.38316372152E+03  0.00000000000E+00 0. -1.
         21   -1    0    0  503  502 -0.00000000000E+00 -0.00000000000E+00 -0.45872247288E+03  0.45872247288E+03  0.00000000000E+00 0. -1.
         25    1    1    2    0    0 -0.11652995312E+03 -0.20104985608E+03  0.29900384683E+03  0.39878387006E+03  0.12500000000E+03 0.  0.
         21    1    1    2  503  504  0.11289371982E+03  0.17842044034E+03 -0.35464685510E+03  0.41273870347E+03  0.00000000000E+00 0. -1.
         21    1    1    2  504  501  0.36362333009E+01  0.22629415742E+02 -0.19915743088E+02  0.30363620868E+02  0.00000000000E+00 0. -1.
<mgrwt>
<rscale>  4 0.26386602E+03</rscale>
<asrwt>0</asrwt>
<pdfrwt beam="1">  1       21 0.58948265E-01 0.26386602E+03</pdfrwt>
<pdfrwt beam="2">  1       21 0.70572688E-01 0.26386602E+03</pdfrwt>
<totfact> 0.46633764E+03</totfact>
</mgrwt>
</event>
<event>
 5    0  0.1829809E+000  0.7399443E+03  0.7546771E-02  0.9651260E-01
         21   -1    0    0  502  501  0.00000000000E+00  0.00000000000E+00  0.36834506749E+03  0.36834506749E+03  0.00000000000E+00 0.  1.
         21   -1    0    0  503  502 -0.00000000000E+00 -0.00000000000E+00 -0.16396347315E+04  0.16396347315E+04  0.00000000000E+00 0. -1.
         25    1    1    2    0    0 -0.14758523006E+03  0.72644096037E+03 -0.42409709417E+03  0.86312294276E+03  0.12500000000E+03 0.  0.
         21    1    1    2  503  504  0.94663762431E+02 -0.70662179052E+03 -0.79617441512E+03  0.10687232018E+04  0.00000000000E+00 0. -1.
         21    1    1    2  504  501  0.52921467625E+02 -0.19819169855E+02 -0.51018154739E+02  0.76133654466E+02  0.00000000000E+00 0. -1.
<mgrwt>
<rscale>  4 0.73994426E+03</rscale>
<asrwt>0</asrwt>
<pdfrwt beam="1">  1       21 0.56668473E-01 0.73994426E+03</pdfrwt>
<pdfrwt beam="2">  1       21 0.25225149E+00 0.73994426E+03</pdfrwt>
<totfact> 0.13128900E+02</totfact>
</mgrwt>
</event>
<event>
 5    0  0.1829809E+000  0.2640620E+03  0.7546771E-02  0.1104727E+00
         21   -1    0    0  502  501  0.00000000000E+00  0.00000000000E+00  0.88195472654E+02  0.88195472654E+02  0.00000000000E+00 0. -1.
         21   -1    0    0  503  502 -0.00000000000E+00 -0.00000000000E+00 -0.13876725612E+04  0.13876725612E+04  0.00000000000E+00 0. -1.
         25    1    1    2    0    0 -0.13069171890E+03 -0.19241469016E+03 -0.15513586435E+03  0.30626112190E+03  0.12500000000E+03 0.  0.
         21    1    1    2  503  504  0.64243405229E+02  0.59881041165E+02 -0.31020139539E+03  0.32239395141E+03  0.00000000000E+00 0. -1.
         21    1    1    2  504  501  0.66448313673E+02  0.13253364900E+03 -0.83413982879E+03  0.84721296053E+03  0.00000000000E+00 0. -1.
<mgrwt>
<rscale>  4 0.26406200E+03</rscale>
<asrwt>0</asrwt>
<pdfrwt beam="1">  1       21 0.13568535E-01 0.26406200E+03</pdfrwt>
<pdfrwt beam="2">  1       21 0.21348807E+00 0.26406200E+03</pdfrwt>
<totfact> 0.48948281E+03</totfact>
</mgrwt>
</event>
<event>
 5    0  0.1829809E+000  0.3057050E+03  0.7546771E-02  0.1082423E+00
         21   -1    0    0  502  501  0.00000000000E+00  0.00000000000E+00  0.31199229438E+03  0.31199229438E+03  0.00000000000E+00 0.  1.
         21   -1    0    0  503  502 -0.00000000000E+00 -0.00000000000E+00 -0.29787241791E+03  0.29787241791E+03  0.00000000000E+00 0.  1.
         25    1    1    2    0    0 -0.20807409741E+03 -0.18583794833E+03  0.83975190777E+02  0.31702902977E+03  0.12500000000E+03 0.  0.
         21    1    1    2  503  504  0.18613324759E+03  0.14468071855E+03 -0.70909782211E+02  0.24618345475E+03  0.00000000000E+00 0.  1.
         21    1    1    2  504  501  0.21940849819E+02  0.41157229775E+02  0.10544679073E+01  0.46652227772E+02  0.00000000000E+00 0.  1.
<mgrwt>
<rscale>  4 0.30570504E+03</rscale>
<asrwt>0</asrwt>
<pdfrwt beam="1">  1       21 0.47998815E-01 0.30570504E+03</pdfrwt>
<pdfrwt beam="2">  1       21 0.45826526E-01 0.30570504E+03</pdfrwt>
<totfact> 0.17897571E+04</totfact>
</mgrwt>
</event>
<event>
 5    0  0.1829809E+000  0.2142110E+03  0.7546771E-02  0.1138274E+00
         21   -1    0    0  502  501  0.00000000000E+00  0.00000000000E+00  0.23138906017E+03  0.23138906017E+03  0.00000000000E+00 0. -1.
         21   -1    0    0  503  502 -0.00000000000E+00 -0.00000000000E+00 -0.54847866466E+03  0.54847866466E+03  0.00000000000E+00 0. -1.
         25    1    1    2    0    0  0.14669599380E+03  0.20651436374E+03 -0.35090618318E+03  0.45047535607E+03  0.12500000000E+03 0.  0.
         21    1    1    2  503  504 -0.11961163135E+03 -0.11488583929E+03  0.11679194225E+03  0.20284490675E+03  0.00000000000E+00 0. -1.
         21    1    1    2  504  501 -0.27084362457E+02 -0.91628524458E+02 -0.82975363552E+02  0.12654746201E+03  0.00000000000E+00 0. -1.
<mgrwt>
<rscale>  4 0.21421100E+03</rscale>
<asrwt>0</asrwt>
<pdfrwt beam="1">  1       21 0.35598317E-01 0.21421100E+03</pdfrwt>
<pdfrwt beam="2">  1       21 0.84381332E-01 0.21421100E+03</pdfrwt>
<totfact> 0.91334064E+03</totfact>
</mgrwt>
</event>
<event>
 5    0  0.1829809E+000  0.2416614E+03  0.7546771E-02  0.1118691E+00
         21   -1    0    0  502  501  0.00000000000E+00  0.00000000000E+00  0.57538589366E+03  0.57538589366E+03  0.00000000000E+00 0.  1.
         21   -1    0    0  503  502 -0.00000000000E+00 -0.00000000000E+00 -0.10849347982E+04  0.10849347982E+04  0.00000000000E+00 0. -1.
         25    1    1    2    0    0 -0.76131921365E+02  0.19229966216E+03  0.53844543108E+03  0.59018955579E+03  0.12500000000E+03 0.  0.
         21    1    1    2  503  504  0.47044960250E+02 -0.17777362320E+03 -0.90345590606E+03  0.92198116227E+03  0.00000000000E+00 0. -1.
         21    1    1    2  504  501  0.29086961114E+02 -0.14526038954E+02 -0.14453842952E+03  0.14814997375E+03  0.00000000000E+00 0. -1.
<mgrwt>
<rscale>  4 0.24166139E+03</rscale>
<asrwt>0</asrwt>
<pdfrwt beam="1">  1       21 0.88520906E-01 0.24166139E+03</pdfrwt>
<pdfrwt beam="2">  1       21 0.16691305E+00 0.24166139E+03</pdfrwt>
<totfact> 0.23153446E+02</totfact>
</mgrwt>
</event>
<event>
 5    0  0.1829809E+000  0.2674270E+03  0.7546771E-02  0.1102761E+00
         21   -1    0    0  502  501  0.00000000000E+00  0.00000000000E+00  0.93779879492E+03  0.93779879492E+03  0.00000000000E+00 0.  1.
         21   -1    0    0  503  502 -0.00000000000E+00 -0.00000000000E+00 -0.93783997318E+02  0.93783997318E+02  0.00000000000E+00 0. -1.
         25    1    1    2    0    0 -0.21595921138E+03 -0.96196901867E+02  0.69826133115E+03  0.74772061058E+03  0.12500000000E+03 0.  0.
         21    1    1    2  503  504  0.46078581702E+02 -0.91589354726E+00  0.42116033488E+02  0.62432642339E+02  0.00000000000E+00 0. -1.
         21    1    1    2  504  501  0.16988062967E+03  0.97112795414E+02  0.10363743297E+03  0.22142953932E+03  0.00000000000E+00 0. -1.
<mgrwt>
<rscale>  4 0.26742705E+03</rscale>
<asrwt>0</asrwt>
<pdfrwt beam="1">  1       21 0.14427673E+00 0.26742705E+03</pdfrwt>
<pdfrwt beam="2">  1       21 0.14428308E-01 0.26742705E+03</pdfrwt>
<totfact> 0.13298427E+04</totfact>
</mgrwt>
</event>
<event>
 5    0  0.1829809E+000  0.2585536E+03  0.7546771E-02  0.1108015E+00
         21   -1    0    0  502  501  0.00000000000E+00  0.00000000000E+00  0.55803232625E+03  0.55803232625E+03  0.00000000000E+00 0. -1.
         21   -1    0    0  503  502 -0.00000000000E+00 -0.00000000000E+00 -0.14002822500E+03  0.14002822500E+03  0.00000000000E+00 0. -1.
         25    1    1    2    0    0  0.11487821259E+03  0.20525834510E+03  0.33917028800E+03  0.43126497217E+03  0.12500000000E+03 0.  0.
         21    1    1    2  503  504 -0.12882326838E+03 -0.18252693211E+03  0.52877638854E+02  0.22958127125E+03  0.00000000000E+00 0. -1.
         21    1    1    2  504  501  0.13945055784E+02 -0.22731412990E+02  0.25956174398E+02  0.37214307822E+02  0.00000000000E+00 0. -1.
<mgrwt>
<rscale>  4 0.25855364E+03</rscale>
<asrwt>0</asrwt>
<pdfrwt beam="1">  1       21 0.85851126E-01 0.25855364E+03</pdfrwt>
<pdfrwt beam="2">  1       21 0.21542804E-01 0.25855364E+03</pdfrwt>
<totfact> 0.22709869E+04</totfact>
</mgrwt>
</event>
<event>
 5    0  0.1829809E+000  0.2502208E+03  0.7546771E-02  0.1113165E+00
         21   -1    0    0  502  501  0.00000000000E+00  0.00000000000E+00  0.95604627531E+02  0.95604627531E+02  0.00000000000E+00 0. -1.
         21   -1    0    0  503  502 -0.00000000000E+00 -0.00000000000E+00 -0.70354034684E+03  0.70354034684E+03  0.00000000000E+00 0. -1.
         25    1    1    2    0    0  0.10596564392E+02  0.21650215361E+03 -0.46484213804E+03  0.52790972997E+03  0.12500000000E+03 0.  0.
         21    1    1    2  503  504  0.68461164982E+01 -0.34546488504E+02  0.55284051064E+01  0.35649578428E+02  0.00000000000E+00 0.  1.
         21    1    1    2  504  501 -0.17442680891E+02 -0.18195566510E+03 -0.14862198637E+03  0.23558566597E+03  0.00000000000E+00 0. -1.
<mgrwt>
<rscale>  4 0.25022084E+03</rscale>
<asrwt>0</asrwt>
<pdfrwt beam="1">  1       21 0.14708405E-01 0.25022084E+03</pdfrwt>
<pdfrwt beam="2">  1       21 0.10823697E+00 0.25022084E+03</pdfrwt>
<totfact> 0.26765805E+04</totfact>
</mgrwt>
</event>
<event>
 5    0  0.1829809E+000  0.3127184E+03  0.7546771E-02  0.1079050E+00
         21   -1    0    0  502  501  0.00000000000E+00  0.00000000000E+00  0.16422104018E+03  0.16422104018E+03  0.00000000000E+00 0.  1.
         21   -1    0    0  503  502 -0.00000000000E+00 -0.00000000000E+00 -0.13244669966E+04  0.13244669966E+04  0.00000000000E+00 0.  1.
         25    1    1    2    0    0 -0.20350145219E+03 -0.20187862281E+03 -0.23074521361E+02  0.31356857771E+03  0.12500000000E+03 0.  0.
         21    1    1    2  503  504  0.95760895219E+02  0.14523817375E+03 -0.70336562727E+03  0.72456019887E+03  0.00000000000E+00 0.  1.
         21    1    1    2  504  501  0.10774055697E+03  0.56640449064E+02 -0.43380580782E+03  0.45055926024E+03  0.00000000000E+00 0. -1.
<mgrwt>
<rscale>  4 0.31271843E+03</rscale>
<asrwt>0</asrwt>
<pdfrwt beam="1">  1       21 0.25264775E-01 0.31271843E+03</pdfrwt>
<pdfrwt beam="2">  1       21 0.20376416E+00 0.31271843E+03</pdfrwt>
<totfact> 0.17062912E+03</totfact>
</mgrwt>
</event>
<event>
 5    0  0.1829809E+000  0.4376917E+03  0.7546771E-02  0.1031457E+00
         21   -1    0    0  502  501  0.00000000000E+00  0.00000000000E+00  0.56737566008E+03  0.56737566008E+03  0.00000000000E+00 0.  1.
         21   -1    0    0  503  502 -0.00000000000E+00 -0.00000000000E+00 -0.46999883755E+03  0.46999883755E+03  0.00000000000E+00 0.  1.
         25    1    1    2    0    0 -0.44282222892E+03  0.17511231823E+03  0.71865590848E+02  0.49753945931E+03  0.12500000000E+03 0.  0.
         21    1    1    2  503  504  0.37719388758E+03 -0.67639363149E+02  0.96640356573E+02  0.39520838908E+03  0.00000000000E+00 0.  1.
         21    1    1    2  504  501  0.65628341341E+02 -0.10747295508E+03 -0.71129124893E+02  0.14462664923E+03  0.00000000000E+00 0.  1.
<mgrwt>
<rscale>  4 0.43769170E+03</rscale>
<asrwt>0</asrwt>
<pdfrwt beam="1">  1       21 0.87288563E-01 0.43769170E+03</pdfrwt>
<pdfrwt beam="2">  1       21 0.72307514E-01 0.43769170E+03</pdfrwt>
<totfact> 0.16802850E+03</totfact>
</mgrwt>
</event>
<event>
 5    0  0.1829809E+000  0.2789302E+03  0.7546771E-02  0.1096275E+00
         21   -1    0    0  502  501  0.00000000000E+00  0.00000000000E+00  0.94842808105E+02  0.94842808105E+02  0.00000000000E+00 0.  1.
         21   -1    0    0  503  502 -0.00000000000E+00 -0.00000000000E+00 -0.78166881095E+03  0.78166881095E+03  0.00000000000E+00 0.  1.
         25    1    1    2    0    0  0.90077783608E+02  0.23251460516E+03 -0.29637651840E+03  0.40699028167E+03  0.12500000000E+03 0.  0.
         21    1    1    2  503  504 -0.10399838957E+03 -0.20182537527E+03 -0.33782821592E+03  0.40703445875E+03  0.00000000000E+00 0.  1.
         21    1    1    2  504  501  0.13920605959E+02 -0.30689229890E+02 -0.52621268525E+02  0.62486878644E+02  0.00000000000E+00 0.  1.
<mgrwt>
<rscale>  4 0.27893019E+03</rscale>
<asrwt>0</asrwt>
<pdfrwt beam="1">  1       21 0.14591201E-01 0.27893019E+03</pdfrwt>
<pdfrwt beam="2">  1       21 0.12025674E+00 0.27893019E+03</pdfrwt>
<totfact> 0.20677040E+04</totfact>
</mgrwt>
</event>
<event>
 5    0  0.1829809E+000  0.3512472E+03  0.7546771E-02  0.1062104E+00
         21   -1    0    0  502  501  0.00000000000E+00  0.00000000000E+00  0.68556723120E+03  0.68556723120E+03  0.00000000000E+00 0.  1.
         21   -1    0    0  503  502 -0.00000000000E+00 -0.00000000000E+00 -0.25514427286E+03  0.25514427286E+03  0.00000000000E+00 0.  1.
         25    1    1    2    0    0  0.38200164853E+02 -0.32602203503E+03  0.48721123563E+03  0.60062418204E+03  0.12500000000E+03 0.  0.
         21    1    1    2  503  504 -0.33293044958E+02  0.30152207137E+03 -0.70706569495E+02  0.31148580278E+03  0.00000000000E+00 0.  1.
         21    1    1    2  504  501 -0.49071198953E+01  0.24499963664E+02  0.13918292193E+02  0.28601519239E+02  0.00000000000E+00 0. -1.
<mgrwt>
<rscale>  4 0.35124723E+03</rscale>
<asrwt>0</asrwt>
<pdfrwt beam="1">  1       21 0.10547188E+00 0.35124723E+03</pdfrwt>
<pdfrwt beam="2">  1       21 0.39252965E-01 0.35124723E+03</pdfrwt>
<totfact> 0.41075859E+03</totfact>
</mgrwt>
</event>
<event>
 5    0  0.1829809E+000  0.2039361E+03  0.7546771E-02  0.1146460E+00
         21   -1    0    0  502  501  0.00000000000E+00  0.00000000000E+00  0.80754706730E+03  0.80754706730E+03  0.00000000000E+00 0. -1.
         21   -1    0    0  503  502 -0.00000000000E+00 -0.00000000000E+00 -0.13898680672E+03  0.13898680672E+03  0.00000000000E+00 0. -1.
         25    1    1    2    0    0 -0.27162871249E+03  0.25133412219E+02  0.35583905781E+03  0.46546780868E+03  0.12500000000E+03 0.  0.
         21    1    1    2  503  504  0.14088971019E+03  0.19895417520E+02  0.34938374380E+01  0.14233040777E+03  0.00000000000E+00 0. -1.
         21    1    1    2  504  501  0.13073900230E+03 -0.45028829739E+02  0.30922736534E+03  0.33873565756E+03  0.00000000000E+00 0. -1.
<mgrwt>
<rscale>  4 0.20393614E+03</rscale>
<asrwt>0</asrwt>
<pdfrwt beam="1">  1       21 0.12423801E+00 0.20393614E+03</pdfrwt>
<pdfrwt beam="2">  1       21 0.21382586E-01 0.20393614E+03</pdfrwt>
<totfact> 0.97840564E+03</totfact>
</mgrwt>
</event>
<event>
 5    0  0.1829809E+000  0.2127843E+03  0.7546771E-02  0.1139380E+00
         21   -1    0    0  502  501  0.00000000000E+00  0.00000000000E+00  0.20350964250E+03  0.20350964250E+03  0.00000000000E+00 0.  1.
         21   -1    0    0  503  502 -0.00000000000E+00 -0.00000000000E+00 -0.57134782894E+03  0.57134782894E+03  0.00000000000E+00 0.  1.
         25    1    1    2    0    0 -0.78013960241E+02  0.21804179108E+03 -0.93284302932E+01  0.26332569237E+03  0.12500000000E+03 0.  0.
         21    1    1    2  503  504 -0.22738920036E+02 -0.11441148539E+03 -0.34752523308E+03  0.36657991503E+03  0.00000000000E+00 0.  1.
         21    1    1    2  504  501  0.10075288028E+03 -0.10363030570E+03 -0.10984523064E+02  0.14495186404E+03  0.00000000000E+00 0.  1.
<mgrwt>
<rscale>  4 0.21278429E+03</rscale>
<asrwt>0</asrwt>
<pdfrwt beam="1">  1       21 0.31309176E-01 0.21278429E+03</pdfrwt>
<pdfrwt beam="2">  1       21 0.87899664E-01 0.21278429E+03</pdfrwt>
<totfact> 0.10728735E+04</totfact>
</mgrwt>
</event>
<event>
 5    0  0.1829809E+000  0.2767901E+03  0.7546771E-02  0.1097455E+00
         21   -1    0    0  502  501  0.00000000000E+00  0.00000000000E+00  0.14775754754E+03  0.14775754754E+03  0.00000000000E+00 0.  1.
         21   -1    0    0  503  502 -0.00000000000E+00 -0.00000000000E+00 -0.54591860077E+03  0.54591860077E+03  0.00000000000E+00 0.  1.
         25    1    1    2    0    0 -0.24618537189E+03  0.19506971487E+02 -0.33689502797E+03  0.43601722344E+03  0.12500000000E+03 0.  0.
         21    1    1    2  503  504  0.20021815581E+03 -0.22061807541E+02 -0.64506697033E+02  0.21150684914E+03  0.00000000000E+00 0.  1.
         21    1    1    2  504  501  0.45967216073E+02  0.25548360538E+01  0.32406717703E+01  0.46152075731E+02  0.00000000000E+00 0. -1.
<mgrwt>
<rscale>  4 0.27679010E+03</rscale>
<asrwt>0</asrwt>
<pdfrwt beam="1">  1       21 0.22731931E-01 0.27679010E+03</pdfrwt>
<pdfrwt beam="2">  1       21 0.83987477E-01 0.27679010E+03</pdfrwt>
<totfact> 0.21394644E+04</totfact>
</mgrwt>
</event>
<event>
 5    0  0.1829809E+000  0.2337246E+03  0.7546771E-02  0.1124045E+00
         21   -1    0    0  502  501  0.00000000000E+00  0.00000000000E+00  0.12176893684E+04  0.12176893684E+04  0.00000000000E+00 0.  1.
         21   -1    0    0  503  502 -0.00000000000E+00 -0.00000000000E+00 -0.79595279147E+02  0.79595279147E+02  0.00000000000E+00 0.  1.
         25    1    1    2    0    0  0.10295627460E+03  0.18634675015E+03  0.98534750912E+03  0.10158050106E+04  0.12500000000E+03 0.  0.
         21    1    1    2  503  504 -0.50163006667E+02 -0.13618857013E+03  0.45979020645E+02  0.15224232070E+03  0.00000000000E+00 0.  1.
         21    1    1    2  504  501 -0.52793267934E+02 -0.50158180020E+02  0.10676755953E+03  0.12923731632E+03  0.00000000000E+00 0.  1.
<mgrwt>
<rscale>  4 0.23372455E+03</rscale>
<asrwt>0</asrwt>
<pdfrwt beam="1">  1       21 0.18733681E+00 0.23372455E+03</pdfrwt>
<pdfrwt beam="2">  1       21 0.12245428E-01 0.23372455E+03</pdfrwt>
<totfact> 0.89028948E+03</totfact>
</mgrwt>
</event>
<event>
 5    0  0.1829809E+000  0.3067640E+03  0.7546771E-02  0.1081907E+00
         21   -1    0    0  502  501  0.00000000000E+00  0.00000000000E+00  0.10764324955E+04  0.10764324955E+04  0.00000000000E+00 0.  1.
         21   -1    0    0  503  502 -0.00000000000E+00 -0.00000000000E+00 -0.84921349617E+02  0.84921349617E+02  0.00000000000E+00 0.  1.
         25    1    1    2    0    0  0.27623391167E+03  0.46626110052E+02  0.39645736764E+03  0.50128097157E+03  0.12500000000E+03 0.  0.
         21    1    1    2  503  504 -0.15134230513E+02 -0.16152182176E+02  0.59479137572E+02  0.63464208249E+02  0.00000000000E+00 0.  1.
         21    1    1    2  504  501 -0.26109968116E+03 -0.30473927875E+02  0.53557464062E+03  0.59660866526E+03  0.00000000000E+00 0.  1.
<mgrwt>
<rscale>  4 0.30676403E+03</rscale>
<asrwt>0</asrwt>
<pdfrwt beam="1">  1       21 0.16560499E+00 0.30676403E+03</pdfrwt>
<pdfrwt beam="2">  1       21 0.13064824E-01 0.30676403E+03</pdfrwt>
<totfact> 0.10759789E+04</totfact>
</mgrwt>
</event>
<event>
 5    0  0.1829809E+000  0.3344792E+03  0.7546771E-02  0.1069172E+00
         21   -1    0    0  502  501  0.00000000000E+00  0.00000000000E+00  0.68964016511E+03  0.68964016511E+03  0.00000000000E+00 0. -1.
         21   -1    0    0  503  502 -0.00000000000E+00 -0.00000000000E+00 -0.12215817305E+04  0.12215817305E+04  0.00000000000E+00 0. -1.
         25    1    1    2    0    0  0.27545026068E+03 -0.14372916177E+03  0.62310063647E+03  0.70739686260E+03  0.12500000000E+03 0.  0.
         21    1    1    2  503  504 -0.26901717429E+02 -0.25458187202E+02 -0.94914175699E+02  0.10188484895E+03  0.00000000000E+00 0. -1.
         21    1    1    2  504  501 -0.24854854325E+03  0.16918734897E+03 -0.10601280261E+04  0.11019401840E+04  0.00000000000E+00 0. -1.
<mgrwt>
<rscale>  4 0.33447920E+03</rscale>
<asrwt>0</asrwt>
<pdfrwt beam="1">  1       21 0.10609849E+00 0.33447920E+03</pdfrwt>
<pdfrwt beam="2">  1       21 0.18793565E+00 0.33447920E+03</pdfrwt>
<totfact> 0.98693971E+01</totfact>
</mgrwt>
</event>
<event>
 5    0  0.1829809E+000  0.1985406E+03  0.7546771E-02  0.1150976E+00
         21   -1    0    0  502  501  0.00000000000E+00  0.00000000000E+00  0.20649802917E+03  0.20649802917E+03  0.00000000000E+00 0.  1.
         21   -1    0    0  503  502 -0.00000000000E+00 -0.00000000000E+00 -0.36374300999E+03  0.36374300999E+03  0.00000000000E+00 0.  1.
         25    1    1    2    0    0  0.22678288365E+03  0.44144584776E+02 -0.41394507921E+02  0.26592804660E+03  0.12500000000E+03 0.  0.
         21    1    1    2  503  504 -0.12254134626E+03 -0.36594537327E+02  0.23595691544E+02  0.13004729280E+03  0.00000000000E+00 0.  1.
         21    1    1    2  504  501 -0.10424153739E+03 -0.75500474490E+01 -0.13944616445E+03  0.17426569976E+03  0.00000000000E+00 0.  1.
<mgrwt>
<rscale>  4 0.19854060E+03</rscale>
<asrwt>0</asrwt>
<pdfrwt beam="1">  1       21 0.31768928E-01 0.19854060E+03</pdfrwt>
<pdfrwt beam="2">  1       21 0.55960463E-01 0.19854060E+03</pdfrwt>
<totfact> 0.28551852E+04</totfact>
</mgrwt>
</event>
<event>
 5    0  0.1829809E+000  0.2766631E+03  0.7546771E-02  0.1097526E+00
         21   -1    0    0  502  501  0.00000000000E+00  0.00000000000E+00  0.14067118218E+04  0.14067118218E+04  0.00000000000E+00 0.  1.
         21   -1    0    0  503  502 -0.00000000000E+00 -0.00000000000E+00 -0.80531027312E+02  0.80531027312E+02  0.00000000000E+00 0.  1.
         25    1    1    2    0    0  0.22103318615E+03 -0.10982615616E+03  0.10995944897E+04  0.11338652899E+04  0.12500000000E+03 0.  0.
         21    1    1    2  503  504 -0.17011842340E+03  0.54733398896E+02  0.96208189629E+02  0.20295821906E+03  0.00000000000E+00 0.  1.
         21    1    1    2  504  501 -0.50914762754E+02  0.55092757260E+02  0.13037811524E+03  0.15041934018E+03  0.00000000000E+00 0.  1.
<mgrwt>
<rscale>  4 0.27666307E+03</rscale>
<asrwt>0</asrwt>
<pdfrwt beam="1">  1       21 0.21641719E+00 0.27666307E+03</pdfrwt>
<pdfrwt beam="2">  1       21 0.12389390E-01 0.27666307E+03</pdfrwt>
<totfact> 0.54836069E+03</totfact>
</mgrwt>
</event>
<event>
 5    0  0.1829809E+000  0.2701545E+03  0.7546771E-02  0.1101191E+00
         21   -1    0    0  502  501  0.00000000000E+00  0.00000000000E+00  0.58989272330E+03  0.58989272330E+03  0.00000000000E+00 0. -1.
         21   -1    0    0  503  502 -0.00000000000E+00 -0.00000000000E+00 -0.20846025616E+03  0.20846025616E+03  0.00000000000E+00 0.  1.
         25    1    1    2    0    0  0.22005353750E+03  0.55754155422E+01  0.33266201856E+03  0.41802351994E+03  0.12500000000E+03 0.  0.
         21    1    1    2  503  504  0.67238907225E+02 -0.22581491576E+00 -0.41652893218E+02  0.79095418013E+02  0.00000000000E+00 0.  1.
         21    1    1    2  504  501 -0.28729244473E+03 -0.53496006264E+01  0.90423341791E+02  0.30123404151E+03  0.00000000000E+00 0.  1.
<mgrwt>
<rscale>  4 0.27015450E+03</rscale>
<asrwt>0</asrwt>
<pdfrwt beam="1">  1       21 0.90752726E-01 0.27015450E+03</pdfrwt>
<pdfrwt beam="2">  1       21 0.32070809E-01 0.27015450E+03</pdfrwt>
<totfact> 0.91883102E+03</totfact>
</mgrwt>
</event>
<event>
 5    0  0.1829809E+000  0.2978092E+03  0.7546771E-02  0.1086341E+00
         21   -1    0    0  502  501  0.00000000000E+00  0.00000000000E+00  0.31540313163E+03  0.31540313163E+03  0.00000000000E+00 0.  1.
         21   -1    0    0  503  502 -0.00000000000E+00 -0.00000000000E+00 -0.26951490154E+03  0.26951490154E+03  0.00000000000E+00 0.  1.
         25    1    1    2    0    0 -0.21071116322E+03  0.16931069588E+03 -0.26132002375E+02  0.29895348734E+03  0.12500000000E+03 0.  0.
         21    1    1    2  503  504  0.42959656971E+02 -0.62091746976E+02  0.35982635080E+02  0.83640105194E+02  0.00000000000E+00 0.  1.
         21    1    1    2  504  501  0.16775150625E+03 -0.10721894891E+03  0.36037597389E+02  0.20232444063E+03  0.00000000000E+00 0.  1.
<mgrwt>
<rscale>  4 0.29780918E+03</rscale>
<asrwt>0</asrwt>
<pdfrwt beam="1">  1       21 0.48523559E-01 0.29780918E+03</pdfrwt>
<pdfrwt beam="2">  1       21 0.41463831E-01 0.29780918E+03</pdfrwt>
<totfact> 0.21579785E+04</totfact>
</mgrwt>
</event>
<event>
 5    0  0.1829809E+000  0.2981109E+03  0.7546771E-02  0.1086189E+00
         21   -1    0    0  502  501  0.00000000000E+00  0.00000000000E+00  0.62789700606E+03  0.62789700606E+03  0.00000000000E+00 0. -1.
         21   -1    0    0  503  502 -0.00000000000E+00 -0.00000000000E+00 -0.63803327503E+03  0.63803327503E+03  0.00000000000E+00 0. -1.
         25    1    1    2    0    0  0.10032321008E+03 -0.25135703952E+03  0.55825888196E+03  0.63286893357E+03  0.12500000000E+03 0.  0.
         21    1    1    2  503  504 -0.98147812667E+02  0.22000047023E+03 -0.44836188344E+03  0.50898092160E+03  0.00000000000E+00 0. -1.
         21    1    1    2  504  501 -0.21753974170E+01  0.31356569289E+02 -0.12003326750E+03  0.12408042592E+03  0.00000000000E+00 0. -1.
<mgrwt>
<rscale>  4 0.29811090E+03</rscale>
<asrwt>0</asrwt>
<pdfrwt beam="1">  1       21 0.96599539E-01 0.29811090E+03</pdfrwt>
<pdfrwt beam="2">  1       21 0.98158966E-01 0.29811090E+03</pdfrwt>
<totfact> 0.69844966E+02</totfact>
</mgrwt>
</event>
<event>
 5    0  0.1829809E+000  0.2410247E+03  0.7546771E-02  0.1119112E+00
         21   -1    0    0  502  501  0.00000000000E+00  0.00000000000E+00  0.14622561073E+03  0.14622561073E+03  0.00000000000E+00 0.  1.
         21   -1    0    0  503  502 -0.00000000000E+00 -0.00000000000E+00 -0.14534087812E+04  0.14534087812E+04  0.00000000000E+00 0. -1.
         25    1    1    2    0    0 -0.97518183342E+01  0.23362476519E+03 -0.14740477088E+02  0.26555208630E+03  0.12500000000E+03 0.  0.
         21    1    1    2  503  504  0.67146029218E+02 -0.93170802677E+02 -0.98043311682E+03  0.98713650741E+03  0.00000000000E+00 0. -1.
         21    1    1    2  504  501 -0.57394210884E+02 -0.14045396251E+03 -0.31200957655E+03  0.34694579820E+03  0.00000000000E+00 0. -1.
<mgrwt>
<rscale>  4 0.24102466E+03</rscale>
<asrwt>0</asrwt>
<pdfrwt beam="1">  1       21 0.22496247E-01 0.24102466E+03</pdfrwt>
<pdfrwt beam="2">  1       21 0.22360136E+00 0.24102466E+03</pdfrwt>
<totfact> 0.16856193E+03</totfact>
</mgrwt>
</event>
<event>
 5    0  0.1829809E+000  0.2824509E+03  0.7546771E-02  0.1094358E+00
         21   -1    0    0  502  501  0.00000000000E+00  0.00000000000E+00  0.59581809714E+03  0.59581809714E+03  0.00000000000E+00 0.  1.
         21   -1    0    0  503  502 -0.00000000000E+00 -0.00000000000E+00 -0.40120173688E+03  0.40120173688E+03  0.00000000000E+00 0.  1.
         25    1    1    2    0    0  0.10278437713E+03  0.23450085969E+03  0.50600240926E+03  0.58070536381E+03  0.12500000000E+03 0.  0.
         21    1    1    2  503  504 -0.90859319301E+01 -0.27231479962E+02  0.23421853527E+01  0.28802664672E+02  0.00000000000E+00 0. -1.
         21    1    1    2  504  501 -0.93698445199E+02 -0.20726937973E+03 -0.31372823435E+03  0.38751180554E+03  0.00000000000E+00 0.  1.
<mgrwt>
<rscale>  4 0.28245093E+03</rscale>
<asrwt>0</asrwt>
<pdfrwt beam="1">  1       21 0.91664323E-01 0.28245093E+03</pdfrwt>
<pdfrwt beam="2">  1       21 0.61723344E-01 0.28245093E+03</pdfrwt>
<totfact> 0.22960746E+03</totfact>
</mgrwt>
</event>
<event>
 5    0  0.1829809E+000  0.2180765E+03  0.7546771E-02  0.1135325E+00
         21   -1    0    0  502  501  0.00000000000E+00  0.00000000000E+00  0.92555326775E+03  0.92555326775E+03  0.00000000000E+00 0.  1.
         21   -1    0    0  503  502 -0.00000000000E+00 -0.00000000000E+00 -0.80646245172E+02  0.80646245172E+02  0.00000000000E+00 0. -1.
         25    1    1    2    0    0  0.11232472130E+02  0.20844264867E+03  0.67862392998E+03  0.72092298101E+03  0.12500000000E+03 0.  0.
         21    1    1    2  503  504  0.13856364372E+02 -0.17248506322E+03  0.84700551913E+02  0.19265845261E+03  0.00000000000E+00 0. -1.
         21    1    1    2  504  501 -0.25088836502E+02 -0.35957585445E+02  0.81582540686E+02  0.92618079298E+02  0.00000000000E+00 0. -1.
<mgrwt>
<rscale>  4 0.21807647E+03</rscale>
<asrwt>0</asrwt>
<pdfrwt beam="1">  1       21 0.14239280E+00 0.21807647E+03</pdfrwt>
<pdfrwt beam="2">  1       21 0.12407115E-01 0.21807647E+03</pdfrwt>
<totfact> 0.18618527E+04</totfact>
</mgrwt>
</event>
<event>
 5    0  0.1829809E+000  0.1843106E+03  0.7546771E-02  0.1163695E+00
         21   -1    0    0  502  501  0.00000000000E+00  0.00000000000E+00  0.70859336860E+02  0.70859336860E+02  0.00000000000E+00 0.  1.
         21   -1    0    0  503  502 -0.00000000000E+00 -0.00000000000E+00 -0.18363774931E+04  0.18363774931E+04  0.00000000000E+00 0. -1.
         25    1    1    2    0    0  0.11719196972E+03  0.16510028884E+03 -0.19464842623E+03  0.30741677407E+03  0.12500000000E+03 0.  0.
         21    1    1    2  503  504 -0.54289424365E+02 -0.12039629554E+03 -0.14526576172E+04  0.14586489511E+04  0.00000000000E+00 0. -1.
         21    1    1    2  504  501 -0.62902545353E+02 -0.44703993299E+02 -0.11821211277E+03  0.14117110482E+03  0.00000000000E+00 0. -1.
<mgrwt>
<rscale>  4 0.18431056E+03</rscale>
<asrwt>0</asrwt>
<pdfrwt beam="1">  1       21 0.10901437E-01 0.18431056E+03</pdfrwt>
<pdfrwt beam="2">  1       21 0.28251960E+00 0.18431056E+03</pdfrwt>
<totfact> 0.30273826E+03</totfact>
</mgrwt>
</event>
<event>
 5    0  0.1829809E+000  0.3094753E+03  0.7546771E-02  0.1080598E+00
         21   -1    0    0  502  501  0.00000000000E+00  0.00000000000E+00  0.36587864042E+03  0.36587864042E+03  0.00000000000E+00 0.  1.
         21   -1    0    0  503  502 -0.00000000000E+00 -0.00000000000E+00 -0.73725617509E+03  0.73725617509E+03  0.00000000000E+00 0. -1.
         25    1    1    2    0    0  0.28051574227E+03  0.17023781029E+02  0.21514426747E+03  0.37535442798E+03  0.12500000000E+03 0.  0.
         21    1    1    2  503  504 -0.28496397767E+03 -0.13304358595E+03 -0.43987995449E+03  0.54073971437E+03  0.00000000000E+00 0. -1.
         21    1    1    2  504  501  0.44482354015E+01  0.11601980492E+03 -0.14664184764E+03  0.18704067315E+03  0.00000000000E+00 0. -1.
<mgrwt>
<rscale>  4 0.30947527E+03</rscale>
<asrwt>0</asrwt>
<pdfrwt beam="1">  1       21 0.56289022E-01 0.30947527E+03</pdfrwt>
<pdfrwt beam="2">  1       21 0.11342403E+00 0.30947527E+03</pdfrwt>
<totfact> 0.16500488E+03</totfact>
</mgrwt>
</event>
<event>
 5    0  0.1829809E+000  0.2484542E+03  0.7546771E-02  0.1114286E+00
         21   -1    0    0  502  501  0.00000000000E+00  0.00000000000E+00  0.39597344902E+03  0.39597344902E+03  0.00000000000E+00 0. -1.
         21   -1    0    0  503  502 -0.00000000000E+00 -0.00000000000E+00 -0.26732369031E+03  0.26732369031E+03  0.00000000000E+00 0. -1.
         25    1    1    2    0    0 -0.20580475156E+03 -0.61228118260E+02  0.29733386076E+03  0.38747503530E+03  0.12500000000E+03 0.  0.
         21    1    1    2  503  504  0.16097642787E+03  0.63513213341E+02 -0.12807255854E+03  0.21529031295E+03  0.00000000000E+00 0. -1.
         21    1    1    2  504  501  0.44828323689E+02 -0.22850950803E+01 -0.40611543521E+02  0.60531791081E+02  0.00000000000E+00 0. -1.
<mgrwt>
<rscale>  4 0.24845418E+03</rscale>
<asrwt>0</asrwt>
<pdfrwt beam="1">  1       21 0.60918993E-01 0.24845418E+03</pdfrwt>
<pdfrwt beam="2">  1       21 0.41126721E-01 0.24845418E+03</pdfrwt>
<totfact> 0.13818574E+04</totfact>
</mgrwt>
</event>
<event>
 5    0  0.1829809E+000  0.2512675E+03  0.7546771E-02  0.1112506E+00
         21   -1    0    0  502  501  0.00000000000E+00  0.00000000000E+00  0.73242382334E+03  0.73242382334E+03  0.00000000000E+00 0. -1.
         21   -1    0    0  503  502 -0.00000000000E+00 -0.00000000000E+00 -0.33203909770E+03  0.33203909770E+03  0.00000000000E+00 0.  1.
         25    1    1    2    0    0 -0.17868177854E+03 -0.12717996266E+03  0.66212176312E+03  0.70861283511E+03  0.12500000000E+03 0.  0.
         21    1    1    2  503  504  0.14694803163E+03  0.14132918369E+03 -0.23981129790E+03  0.31476518353E+03  0.00000000000E+00 0.  1.
         21    1    1    2  504  501  0.31733746915E+02 -0.14149221028E+02 -0.21925739579E+02  0.41084902398E+02  0.00000000000E+00 0. -1.
<mgrwt>
<rscale>  4 0.25126750E+03</rscale>
<asrwt>0</asrwt>
<pdfrwt beam="1">  1       21 0.11268059E+00 0.25126750E+03</pdfrwt>
<pdfrwt beam="2">  1       21 0.51082938E-01 0.25126750E+03</pdfrwt>
<totfact> 0.21402640E+03</totfact>
</mgrwt>
</event>
<event>
 5    0  0.1829809E+000  0.2391640E+03  0.7546771E-02  0.1120351E+00
         21   -1    0    0  502  501  0.00000000000E+00  0.00000000000E+00  0.52886288716E+03  0.52886288716E+03  0.00000000000E+00 0.  1.
         21   -1    0    0  503  502 -0.00000000000E+00 -0.00000000000E+00 -0.99621775045E+02  0.99621775045E+02  0.00000000000E+00 0.  1.
         25    1    1    2    0    0 -0.20386252122E+03  0.38086779127E+01  0.26306612619E+03  0.35553230561E+03  0.12500000000E+03 0.  0.
         21    1    1    2  503  504  0.67672285465E+02 -0.20267855786E+02  0.95057597960E+02  0.11843255941E+03  0.00000000000E+00 0.  1.
         21    1    1    2  504  501  0.13619023576E+03  0.16459177873E+02  0.71117387975E+02  0.15451979719E+03  0.00000000000E+00 0.  1.
<mgrwt>
<rscale>  4 0.23916403E+03</rscale>
<asrwt>0</asrwt>
<pdfrwt beam="1">  1       21 0.81363519E-01 0.23916403E+03</pdfrwt>
<pdfrwt beam="2">  1       21 0.15326427E-01 0.23916403E+03</pdfrwt>
<totfact> 0.48851696E+04</totfact>
</mgrwt>
</event>
<event>
 5    0  0.1829809E+000  0.2578797E+03  0.7546771E-02  0.1108424E+00
         21   -1    0    0  502  501  0.00000000000E+00  0.00000000000E+00  0.85089383775E+02  0.85089383775E+02  0.00000000000E+00 0. -1.
         21   -1    0    0  503  502 -0.00000000000E+00 -0.00000000000E+00 -0.74647803013E+03  0.74647803013E+03  0.00000000000E+00 0. -1.
         25    1    1    2    0    0  0.93058118886E+02  0.20546810835E+03 -0.23880398998E+03  0.35146735648E+03  0.12500000000E+03 0.  0.
         21    1    1    2  503  504 -0.16101285394E+02 -0.15362958614E+02 -0.51706593576E+02  0.56292483583E+02  0.00000000000E+00 0. -1.
         21    1    1    2  504  501 -0.76956833493E+02 -0.19010514974E+03 -0.37087806280E+03  0.42380757384E+03  0.00000000000E+00 0. -1.
<mgrwt>
<rscale>  4 0.25787973E+03</rscale>
<asrwt>0</asrwt>
<pdfrwt beam="1">  1       21 0.13090674E-01 0.25787973E+03</pdfrwt>
<pdfrwt beam="2">  1       21 0.11484278E+00 0.25787973E+03</pdfrwt>
<totfact> 0.28526703E+04</totfact>
</mgrwt>
</event>
<event>
 5    0  0.1829809E+000  0.2477246E+03  0.7546771E-02  0.1114751E+00
         21   -1    0    0  502  501  0.00000000000E+00  0.00000000000E+00  0.39963752285E+02  0.39963752285E+02  0.00000000000E+00 0.  1.
         21   -1    0    0  503  502 -0.00000000000E+00 -0.00000000000E+00 -0.19421983792E+04  0.19421983792E+04  0.00000000000E+00 0. -1.
         25    1    1    2    0    0 -0.44537000698E+01 -0.21382847772E+03 -0.45362508532E+03  0.51685894726E+03  0.12500000000E+03 0.  0.
         21    1    1    2  503  504 -0.40017759747E+01  0.12691120744E+03 -0.10211949874E+04  0.10290586334E+04  0.00000000000E+00 0. -1.
         21    1    1    2  504  501  0.84554760445E+01  0.86917270274E+02 -0.42741455424E+03  0.43624455082E+03  0.00000000000E+00 0. -1.
<mgrwt>
<rscale>  4 0.24772455E+03</rscale>
<asrwt>0</asrwt>
<pdfrwt beam="1">  1       21 0.61482693E-02 0.24772455E+03</pdfrwt>
<pdfrwt beam="2">  1       21 0.29879976E+00 0.24772455E+03</pdfrwt>
<totfact> 0.62060807E+03</totfact>
</mgrwt>
</event>
<event>
 5    0  0.1829809E+000  0.2463944E+03  0.7546771E-02  0.1115605E+00
         21   -1    0    0  502  501  0.00000000000E+00  0.00000000000E+00  0.94960441752E+02  0.94960441752E+02  0.00000000000E+00 0.  1.
         21   -1    0    0  503  502 -0.00000000000E+00 -0.00000000000E+00 -0.76854817278E+03  0.76854817278E+03  0.00000000000E+00 0.  1.
         25    1    1    2    0    0  0.27219229157E+02  0.21058089603E+03 -0.13282081168E+03  0.27991350133E+03  0.12500000000E+03 0.  0.
         21    1    1    2  503  504  0.11522135065E+02 -0.16810793574E+02 -0.33678523367E+02  0.39365026524E+02  0.00000000000E+00 0.  1.
         21    1    1    2  504  501 -0.38741364223E+02 -0.19377010246E+03 -0.50708839598E+03  0.54423008668E+03  0.00000000000E+00 0.  1.
<mgrwt>
<rscale>  4 0.24639440E+03</rscale>
<asrwt>0</asrwt>
<pdfrwt beam="1">  1       21 0.14609299E-01 0.24639440E+03</pdfrwt>
<pdfrwt beam="2">  1       21 0.11823818E+00 0.24639440E+03</pdfrwt>
<totfact> 0.21862160E+04</totfact>
</mgrwt>
</event>
<event>
 5    0  0.1829809E+000  0.3762431E+03  0.7546771E-02  0.1052331E+00
         21   -1    0    0  502  501  0.00000000000E+00  0.00000000000E+00  0.45099668822E+03  0.45099668822E+03  0.00000000000E+00 0. -1.
         21   -1    0    0  503  502 -0.00000000000E+00 -0.00000000000E+00 -0.86928586139E+03  0.86928586139E+03  0.00000000000E+00 0. -1.
         25    1    1    2    0    0 -0.22928855196E+03  0.27085172800E+03  0.32267012551E+03  0.49565603852E+03  0.12500000000E+03 0.  0.
         21    1    1    2  503  504  0.11248485237E+01 -0.24122633013E+02 -0.73064601594E+02  0.76951950682E+02  0.00000000000E+00 0.  1.
         21    1    1    2  504  501  0.22816370343E+03 -0.24672909499E+03 -0.66789469709E+03  0.74767456041E+03  0.00000000000E+00 0. -1.
<mgrwt>
<rscale>  4 0.37624314E+03</rscale>
<asrwt>0</asrwt>
<pdfrwt beam="1">  1       21 0.69384106E-01 0.37624314E+03</pdfrwt>
<pdfrwt beam="2">  1       21 0.13373629E+00 0.37624314E+03</pdfrwt>
<totfact> 0.66148581E+02</totfact>
</mgrwt>
</event>
<event>
 5    0  0.1829809E+000  0.3158481E+03  0.7546771E-02  0.1077576E+00
         21   -1    0    0  502  501  0.00000000000E+00  0.00000000000E+00  0.51745328778E+03  0.51745328778E+03  0.00000000000E+00 0. -1.
         21   -1    0    0  503  502 -0.00000000000E+00 -0.00000000000E+00 -0.31240205121E+03  0.31240205121E+03  0.00000000000E+00 0. -1.
         25    1    1    2    0    0 -0.28146174774E+03  0.70102041699E+02  0.37117589903E+03  0.48737209575E+03  0.12500000000E+03 0.  0.
         21    1    1    2  503  504  0.13260500241E+03  0.47732385655E+01 -0.67806393397E+02  0.14901200440E+03  0.00000000000E+00 0. -1.
         21    1    1    2  504  501  0.14885674533E+03 -0.74875280265E+02 -0.98318269066E+02  0.19347123883E+03  0.00000000000E+00 0. -1.
<mgrwt>
<rscale>  4 0.31584808E+03</rscale>
<asrwt>0</asrwt>
<pdfrwt beam="1">  1       21 0.79608198E-01 0.31584808E+03</pdfrwt>
<pdfrwt beam="2">  1       21 0.48061854E-01 0.31584808E+03</pdfrwt>
<totfact> 0.53366780E+03</totfact>
</mgrwt>
</event>
<event>
 5    0  0.1829809E+000  0.2320564E+03  0.7546771E-02  0.1125201E+00
         21   -1    0    0  502  501  0.00000000000E+00  0.00000000000E+00  0.30857171754E+03  0.30857171754E+03  0.00000000000E+00 0.  1.
         21   -1    0    0  503  502 -0.00000000000E+00 -0.00000000000E+00 -0.18836775006E+03  0.18836775006E+03  0.00000000000E+00 0.  1.
         25    1    1    2    0    0  0.20132261927E+03  0.63242818792E+01 -0.19340539983E+02  0.23784417180E+03  0.12500000000E+03 0.  0.
         21    1    1    2  503  504 -0.14861039075E+02  0.14131071202E+02  0.44087456871E+02  0.48623466650E+02  0.00000000000E+00 0. -1.
         21    1    1    2  504  501 -0.18646158020E+03 -0.20455353081E+02  0.95457050586E+02  0.21047182915E+03  0.00000000000E+00 0.  1.
<mgrwt>
<rscale>  4 0.23205638E+03</rscale>
<asrwt>0</asrwt>
<pdfrwt beam="1">  1       21 0.47472572E-01 0.23205638E+03</pdfrwt>
<pdfrwt beam="2">  1       21 0.28979654E-01 0.23205638E+03</pdfrwt>
<totfact> 0.47488881E+04</totfact>
</mgrwt>
</event>
<event>
 5    0  0.1829809E+000  0.2409791E+03  0.7546771E-02  0.1119142E+00
         21   -1    0    0  502  501  0.00000000000E+00  0.00000000000E+00  0.79905626138E+03  0.79905626138E+03  0.00000000000E+00 0. -1.
         21   -1    0    0  503  502 -0.00000000000E+00 -0.00000000000E+00 -0.86708640250E+02  0.86708640250E+02  0.00000000000E+00 0. -1.
         25    1    1    2    0    0  0.14479959089E+03  0.16260275086E+03  0.49919591571E+03  0.55877378104E+03  0.12500000000E+03 0.  0.
         21    1    1    2  503  504 -0.10833441077E+03 -0.15924478421E+03  0.21702906599E+03  0.29016695426E+03  0.00000000000E+00 0. -1.
         21    1    1    2  504  501 -0.36465180115E+02 -0.33579666445E+01 -0.38773605828E+01  0.36824166330E+02  0.00000000000E+00 0. -1.
<mgrwt>
<rscale>  4 0.24097912E+03</rscale>
<asrwt>0</asrwt>
<pdfrwt beam="1">  1       21 0.12293173E+00 0.24097912E+03</pdfrwt>
<pdfrwt beam="2">  1       21 0.13339791E-01 0.24097912E+03</pdfrwt>
<totfact> 0.23467747E+04</totfact>
</mgrwt>
</event>
<event>
 5    0  0.1829809E+000  0.3008952E+03  0.7546771E-02  0.1084794E+00
         21   -1    0    0  502  501  0.00000000000E+00  0.00000000000E+00  0.11288110972E+03  0.11288110972E+03  0.00000000000E+00 0. -1.
         21   -1    0    0  503  502 -0.00000000000E+00 -0.00000000000E+00 -0.17660416549E+04  0.17660416549E+04  0.00000000000E+00 0. -1.
         25    1    1    2    0    0  0.20489317475E+03  0.23876373158E+03 -0.27671765740E+03  0.43724935048E+03  0.12500000000E+03 0.  0.
         21    1    1    2  503  504 -0.27727085072E+01 -0.12942577752E+03 -0.93577320963E+03  0.94468524899E+03  0.00000000000E+00 0. -1.
         21    1    1    2  504  501 -0.20212046624E+03 -0.10933795406E+03 -0.44066967818E+03  0.49698816519E+03  0.00000000000E+00 0. -1.
<mgrwt>
<rscale>  4 0.30089522E+03</rscale>
<asrwt>0</asrwt>
<pdfrwt beam="1">  1       21 0.17366326E-01 0.30089522E+03</pdfrwt>
<pdfrwt beam="2">  1       21 0.27169869E+00 0.30089522E+03</pdfrwt>
<totfact> 0.13393571E+03</totfact>
</mgrwt>
</event>
<event>
 5    0  0.1829809E+000  0.2968905E+03  0.7546771E-02  0.1086805E+00
         21   -1    0    0  502  501  0.00000000000E+00  0.00000000000E+00  0.91655071684E+02  0.91655071684E+02  0.00000000000E+00 0. -1.
         21   -1    0    0  503  502 -0.00000000000E+00 -0.00000000000E+00 -0.15905134724E+04  0.15905134724E+04  0.00000000000E+00 0. -1.
         25    1    1    2    0    0  0.47321314895E+02  0.26510316305E+03 -0.21480389407E+03  0.36644877788E+03  0.12500000000E+03 0.  0.
         21    1    1    2  503  504 -0.59497766469E+02 -0.14685752214E+03 -0.56053477458E+03  0.58250008544E+03  0.00000000000E+00 0. -1.
         21    1    1    2  504  501  0.12176451574E+02 -0.11824564092E+03 -0.72351973203E+03  0.73321968073E+03  0.00000000000E+00 0. -1.
<mgrwt>
<rscale>  4 0.29689054E+03</rscale>
<asrwt>0</asrwt>
<pdfrwt beam="1">  1       21 0.14100781E-01 0.29689054E+03</pdfrwt>
<pdfrwt beam="2">  1       21 0.24469437E+00 0.29689054E+03</pdfrwt>
<totfact> 0.28621463E+03</totfact>
</mgrwt>
</event>
<event>
 5    0  0.1829809E+000  0.3355523E+03  0.7546771E-02  0.1068706E+00
         21   -1    0    0  502  501  0.00000000000E+00  0.00000000000E+00  0.33647929138E+03  0.33647929138E+03  0.00000000000E+00 0. -1.
         21   -1    0    0  503  502 -0.00000000000E+00 -0.00000000000E+00 -0.42597016755E+03  0.42597016755E+03  0.00000000000E+00 0. -1.
         25    1    1    2    0    0 -0.94931596795E+02  0.31896243510E+03  0.43748707018E+02  0.35817313193E+03  0.12500000000E+03 0.  0.
         21    1    1    2  503  504 -0.45652646143E+02 -0.50399537239E+02  0.10469299872E+02  0.68803224442E+02  0.00000000000E+00 0. -1.
         21    1    1    2  504  501  0.14058424294E+03 -0.26856289786E+03 -0.14370888305E+03  0.33547310255E+03  0.00000000000E+00 0. -1.
<mgrwt>
<rscale>  4 0.33555231E+03</rscale>
<asrwt>0</asrwt>
<pdfrwt beam="1">  1       21 0.51766045E-01 0.33555231E+03</pdfrwt>
<pdfrwt beam="2">  1       21 0.65533872E-01 0.33555231E+03</pdfrwt>
<totfact> 0.70025941E+03</totfact>
</mgrwt>
</event>
<event>
 5    0  0.1829809E+000  0.2464189E+03  0.7546771E-02  0.1115589E+00
         21   -1    0    0  502  501  0.00000000000E+00  0.00000000000E+00  0.50083368656E+03  0.50083368656E+03  0.00000000000E+00 0. -1.
         21   -1    0    0  503  502 -0.00000000000E+00 -0.00000000000E+00 -0.18491133249E+03  0.18491133249E+03  0.00000000000E+00 0.  1.
         25    1    1    2    0    0  0.15437760487E+03  0.14582462422E+03  0.37751903100E+03  0.45082467178E+03  0.12500000000E+03 0.  0.
         21    1    1    2  503  504  0.19870946731E+00 -0.37598873752E+02 -0.15536490731E+02  0.40682887522E+02  0.00000000000E+00 0.  1.
         21    1    1    2  504  501 -0.15457631434E+03 -0.10822575047E+03 -0.46060186197E+02  0.19423745976E+03  0.00000000000E+00 0.  1.
<mgrwt>
<rscale>  4 0.24641888E+03</rscale>
<asrwt>0</asrwt>
<pdfrwt beam="1">  1       21 0.77051336E-01 0.24641888E+03</pdfrwt>
<pdfrwt beam="2">  1       21 0.28447898E-01 0.24641888E+03</pdfrwt>
<totfact> 0.17147882E+04</totfact>
</mgrwt>
</event>
<event>
 5    0  0.1829809E+000  0.3953137E+03  0.7546771E-02  0.1045415E+00
         21   -1    0    0  502  501  0.00000000000E+00  0.00000000000E+00  0.59918772357E+03  0.59918772357E+03  0.00000000000E+00 0.  1.
         21   -1    0    0  503  502 -0.00000000000E+00 -0.00000000000E+00 -0.28762767733E+03  0.28762767733E+03  0.00000000000E+00 0.  1.
         25    1    1    2    0    0 -0.35654444092E+03  0.11629282134E+03  0.30618306658E+03  0.50002102847E+03  0.12500000000E+03 0.  0.
         21    1    1    2  503  504  0.32976562495E+03 -0.12165097146E+03 -0.16391064980E+02  0.35187070532E+03  0.00000000000E+00 0.  1.
         21    1    1    2  504  501  0.26778815973E+02  0.53581501205E+01  0.21768044633E+02  0.34923667115E+02  0.00000000000E+00 0.  1.
<mgrwt>
<rscale>  4 0.39531375E+03</rscale>
<asrwt>0</asrwt>
<pdfrwt beam="1">  1       21 0.92182726E-01 0.39531375E+03</pdfrwt>
<pdfrwt beam="2">  1       21 0.44250412E-01 0.39531375E+03</pdfrwt>
<totfact> 0.43560364E+03</totfact>
</mgrwt>
</event>
<event>
 5    0  0.1829809E+000  0.2490857E+03  0.7546771E-02  0.1113884E+00
         21   -1    0    0  502  501  0.00000000000E+00  0.00000000000E+00  0.18170920973E+03  0.18170920973E+03  0.00000000000E+00 0.  1.
         21   -1    0    0  503  502 -0.00000000000E+00 -0.00000000000E+00 -0.39742222885E+03  0.39742222885E+03  0.00000000000E+00 0.  1.
         25    1    1    2    0    0 -0.43131358360E+02  0.21108850431E+03 -0.24851146078E+03  0.35185453936E+03  0.12500000000E+03 0.  0.
         21    1    1    2  503  504  0.24852976771E+02 -0.31901195276E+02 -0.11004310245E+02  0.41910041260E+02  0.00000000000E+00 0.  1.
         21    1    1    2  504  501  0.18278381588E+02 -0.17918730904E+03  0.43802751916E+02  0.18536685796E+03  0.00000000000E+00 0.  1.
<mgrwt>
<rscale>  4 0.24908567E+03</rscale>
<asrwt>0</asrwt>
<pdfrwt beam="1">  1       21 0.27955263E-01 0.24908567E+03</pdfrwt>
<pdfrwt beam="2">  1       21 0.61141881E-01 0.24908567E+03</pdfrwt>
<totfact> 0.29554935E+04</totfact>
</mgrwt>
</event>
<event>
 5    0  0.1829809E+000  0.3450026E+03  0.7546771E-02  0.1064685E+00
         21   -1    0    0  502  501  0.00000000000E+00  0.00000000000E+00  0.10590846109E+04  0.10590846109E+04  0.00000000000E+00 0. -1.
         21   -1    0    0  503  502 -0.00000000000E+00 -0.00000000000E+00 -0.29578604806E+03  0.29578604806E+03  0.00000000000E+00 0. -1.
         25    1    1    2    0    0 -0.55618277792E+02  0.36730708253E+03  0.77639516440E+03  0.86972543771E+03  0.12500000000E+03 0.  0.
         21    1    1    2  503  504  0.53434323742E+02 -0.31080591964E+03 -0.14088635148E+03  0.34540485039E+03  0.00000000000E+00 0. -1.
         21    1    1    2  504  501  0.21839540499E+01 -0.56501162888E+02  0.12778974995E+03  0.13974037089E+03  0.00000000000E+00 0. -1.
<mgrwt>
<rscale>  4 0.34500258E+03</rscale>
<asrwt>0</asrwt>
<pdfrwt beam="1">  1       21 0.16293609E+00 0.34500258E+03</pdfrwt>
<pdfrwt beam="2">  1       21 0.45505546E-01 0.34500258E+03</pdfrwt>
<totfact> 0.98429798E+02</totfact>
</mgrwt>
</event>
<event>
 5    0  0.1829809E+000  0.2542706E+03  0.7546771E-02  0.1110635E+00
         21   -1    0    0  502  501  0.00000000000E+00  0.00000000000E+00  0.35865549691E+03  0.35865549691E+03  0.00000000000E+00 0.  1.
         21   -1    0    0  503  502 -0.00000000000E+00 -0.00000000000E+00 -0.33166777332E+03  0.33166777332E+03  0.00000000000E+00 0.  1.
         25    1    1    2    0    0  0.14315321344E+03  0.17844387267E+03  0.24971526280E+03  0.36099552724E+03  0.12500000000E+03 0.  0.
         21    1    1    2  503  504 -0.17637547460E+02 -0.27763686092E+02 -0.80831003629E+02  0.87267155869E+02  0.00000000000E+00 0.  1.
         21    1    1    2  504  501 -0.12551566598E+03 -0.15068018658E+03 -0.14189653557E+03  0.24206058713E+03  0.00000000000E+00 0.  1.
<mgrwt>
<rscale>  4 0.25427062E+03</rscale>
<asrwt>0</asrwt>
<pdfrwt beam="1">  1       21 0.55177769E-01 0.25427062E+03</pdfrwt>
<pdfrwt beam="2">  1       21 0.51025811E-01 0.25427062E+03</pdfrwt>
<totfact> 0.10898932E+04</totfact>
</mgrwt>
</event>
<event>
 5    0  0.1829809E+000  0.2682422E+03  0.7546771E-02  0.1102290E+00
         21   -1    0    0  502  501  0.00000000000E+00  0.00000000000E+00  0.43916933102E+03  0.43916933102E+03  0.00000000000E+00 0. -1.
         21   -1    0    0  503  502 -0.00000000000E+00 -0.00000000000E+00 -0.18578030375E+03  0.18578030375E+03  0.00000000000E+00 0.  1.
         25    1    1    2    0    0 -0.14853816558E+03  0.18510881507E+03  0.27581035697E+03  0.38474044896E+03  0.12500000000E+03 0.  0.
         21    1    1    2  503  504  0.13592426608E+03 -0.16572356368E+03 -0.28689227302E+02  0.21624702873E+03  0.00000000000E+00 0.  1.
         21    1    1    2  504  501  0.12613899496E+02 -0.19385251390E+02  0.62678975925E+01  0.23962157085E+02  0.00000000000E+00 0.  1.
<mgrwt>
<rscale>  4 0.26824217E+03</rscale>
<asrwt>0</asrwt>
<pdfrwt beam="1">  1       21 0.67564512E-01 0.26824217E+03</pdfrwt>
<pdfrwt beam="2">  1       21 0.28581585E-01 0.26824217E+03</pdfrwt>
<totfact> 0.22554458E+04</totfact>
</mgrwt>
</event>
<event>
 5    0  0.1829809E+000  0.2488428E+03  0.7546771E-02  0.1114038E+00
         21   -1    0    0  502  501  0.00000000000E+00  0.00000000000E+00  0.15230679290E+03  0.15230679290E+03  0.00000000000E+00 0. -1.
         21   -1    0    0  503  502 -0.00000000000E+00 -0.00000000000E+00 -0.48374525538E+03  0.48374525538E+03  0.00000000000E+00 0.  1.
         25    1    1    2    0    0 -0.21295905358E+03 -0.30760264377E+02 -0.12878952431E+02  0.24917588122E+03  0.12500000000E+03 0.  0.
         21    1    1    2  503  504  0.27898749798E+02  0.15772394684E+01 -0.19847475940E+02  0.34274629477E+02  0.00000000000E+00 0.  1.
         21    1    1    2  504  501  0.18506030378E+03  0.29183024908E+02 -0.29871203411E+03  0.35260153758E+03  0.00000000000E+00 0.  1.
<mgrwt>
<rscale>  4 0.24884283E+03</rscale>
<asrwt>0</asrwt>
<pdfrwt beam="1">  1       21 0.23431815E-01 0.24884283E+03</pdfrwt>
<pdfrwt beam="2">  1       21 0.74422346E-01 0.24884283E+03</pdfrwt>
<totfact> 0.26917660E+04</totfact>
</mgrwt>
</event>
<event>
 5    0  0.1829809E+000  0.2635719E+03  0.7546771E-02  0.1105016E+00
         21   -1    0    0  502  501  0.00000000000E+00  0.00000000000E+00  0.20271180809E+03  0.20271180809E+03  0.00000000000E+00 0. -1.
         21   -1    0    0  503  502 -0.00000000000E+00 -0.00000000000E+00 -0.56701506009E+03  0.56701506009E+03  0.00000000000E+00 0. -1.
         25    1    1    2    0    0  0.13455859565E+03 -0.19103146990E+03  0.10277508430E+02  0.26519740823E+03  0.12500000000E+03 0.  0.
         21    1    1    2  503  504  0.65569066442E+02  0.59075600116E+02 -0.51344029143E+02  0.10210503578E+03  0.00000000000E+00 0. -1.
         21    1    1    2  504  501 -0.20012766209E+03  0.13195586978E+03 -0.32323673129E+03  0.40242442416E+03  0.00000000000E+00 0. -1.
<mgrwt>
<rscale>  4 0.26357193E+03</rscale>
<asrwt>0</asrwt>
<pdfrwt beam="1">  1       21 0.31186433E-01 0.26357193E+03</pdfrwt>
<pdfrwt beam="2">  1       21 0.87233085E-01 0.26357193E+03</pdfrwt>
<totfact> 0.10684638E+04</totfact>
</mgrwt>
</event>
<event>
 5    0  0.1829809E+000  0.2496137E+03  0.7546771E-02  0.1113549E+00
         21   -1    0    0  502  501  0.00000000000E+00  0.00000000000E+00  0.17212432067E+03  0.17212432067E+03  0.00000000000E+00 0.  1.
         21   -1    0    0  503  502 -0.00000000000E+00 -0.00000000000E+00 -0.10273851420E+04  0.10273851420E+04  0.00000000000E+00 0.  1.
         25    1    1    2    0    0  0.21754553312E+03 -0.23533739892E+02  0.55235995482E+02  0.25798432334E+03  0.12500000000E+03 0.  0.
         21    1    1    2  503  504 -0.18945308041E+03  0.34861523466E+02 -0.86932025956E+03  0.89040749614E+03  0.00000000000E+00 0.  1.
         21    1    1    2  504  501 -0.28092452710E+02 -0.11327783575E+02 -0.41176557285E+02  0.51117643235E+02  0.00000000000E+00 0. -1.
<mgrwt>
<rscale>  4 0.24961371E+03</rscale>
<asrwt>0</asrwt>
<pdfrwt beam="1">  1       21 0.26480665E-01 0.24961371E+03</pdfrwt>
<pdfrwt beam="2">  1       21 0.15805925E+00 0.24961371E+03</pdfrwt>
<totfact> 0.33696074E+03</totfact>
</mgrwt>
</event>
<event>
 5    0  0.1829809E+000  0.2473151E+03  0.7546771E-02  0.1115013E+00
         21   -1    0    0  502  501  0.00000000000E+00  0.00000000000E+00  0.18950728341E+03  0.18950728341E+03  0.00000000000E+00 0. -1.
         21   -1    0    0  503  502 -0.00000000000E+00 -0.00000000000E+00 -0.48701819210E+03  0.48701819210E+03  0.00000000000E+00 0. -1.
         25    1    1    2    0    0  0.16008782270E+02  0.23500943209E+03 -0.18688669400E+03  0.32563376771E+03  0.12500000000E+03 0.  0.
         21    1    1    2  503  504  0.97039907748E+02 -0.18146200033E+03 -0.49413920096E+02  0.21162924363E+03  0.00000000000E+00 0. -1.
         21    1    1    2  504  501 -0.11304869002E+03 -0.53547431761E+02 -0.61210294588E+02  0.13926246417E+03  0.00000000000E+00 0. -1.
<mgrwt>
<rscale>  4 0.24731506E+03</rscale>
<asrwt>0</asrwt>
<pdfrwt beam="1">  1       21 0.29154968E-01 0.24731506E+03</pdfrwt>
<pdfrwt beam="2">  1       21 0.74925873E-01 0.24731506E+03</pdfrwt>
<totfact> 0.17401065E+04</totfact>
</mgrwt>
</event>
<event>
 5    0  0.1829809E+000  0.3732524E+03  0.7546771E-02  0.1053456E+00
         21   -1    0    0  502  501  0.00000000000E+00  0.00000000000E+00  0.14747699602E+03  0.14747699602E+03  0.00000000000E+00 0.  1.
         21   -1    0    0  503  502 -0.00000000000E+00 -0.00000000000E+00 -0.93325222956E+03  0.93325222956E+03  0.00000000000E+00 0.  1.
         25    1    1    2    0    0  0.19330782373E+03 -0.29381020302E+03 -0.35247551845E+03  0.51337738675E+03  0.12500000000E+03 0.  0.
         21    1    1    2  503  504 -0.11404360880E+03  0.14660830041E+03 -0.15150826431E+03  0.23969708511E+03  0.00000000000E+00 0.  1.
         21    1    1    2  504  501 -0.79264214936E+02  0.14720190261E+03 -0.28179145079E+03  0.32765475373E+03  0.00000000000E+00 0.  1.
<mgrwt>
<rscale>  4 0.37325239E+03</rscale>
<asrwt>0</asrwt>
<pdfrwt beam="1">  1       21 0.22688769E-01 0.37325239E+03</pdfrwt>
<pdfrwt beam="2">  1       21 0.14357727E+00 0.37325239E+03</pdfrwt>
<totfact> 0.54903533E+03</totfact>
</mgrwt>
</event>
<event>
 5    0  0.1829809E+000  0.2549510E+03  0.7546771E-02  0.1110215E+00
         21   -1    0    0  502  501  0.00000000000E+00  0.00000000000E+00  0.84121665431E+03  0.84121665431E+03  0.00000000000E+00 0. -1.
         21   -1    0    0  503  502 -0.00000000000E+00 -0.00000000000E+00 -0.80964413887E+02  0.80964413887E+02  0.00000000000E+00 0. -1.
         25    1    1    2    0    0  0.13424157181E+03 -0.19602459487E+03  0.35709344257E+03  0.44675179700E+03  0.12500000000E+03 0.  0.
         21    1    1    2  503  504 -0.11529009899E+03  0.17911815289E+03  0.39496180764E+03  0.44874263126E+03  0.00000000000E+00 0. -1.
         21    1    1    2  504  501 -0.18951472824E+02  0.16906441977E+02  0.81969902219E+01  0.26686639939E+02  0.00000000000E+00 0. -1.
<mgrwt>
<rscale>  4 0.25495102E+03</rscale>
<asrwt>0</asrwt>
<pdfrwt beam="1">  1       21 0.12941794E+00 0.25495102E+03</pdfrwt>
<pdfrwt beam="2">  1       21 0.12456064E-01 0.25495102E+03</pdfrwt>
<totfact> 0.23163476E+04</totfact>
</mgrwt>
</event>
<event>
 5    0  0.1829809E+000  0.2587580E+03  0.7546771E-02  0.1107892E+00
         21   -1    0    0  502  501  0.00000000000E+00  0.00000000000E+00  0.70367011492E+03  0.70367011492E+03  0.00000000000E+00 0. -1.
         21   -1    0    0  503  502 -0.00000000000E+00 -0.00000000000E+00 -0.21510644951E+03  0.21510644951E+03  0.00000000000E+00 0.  1.
         25    1    1    2    0    0 -0.16618157694E+03  0.15924290410E+03  0.56247954417E+03  0.62046986763E+03  0.12500000000E+03 0.  0.
         21    1    1    2  503  504 -0.28877431860E+02 -0.64260490984E+02 -0.48259406303E+01  0.70615908089E+02  0.00000000000E+00 0.  1.
         21    1    1    2  504  501  0.19505900880E+03 -0.94982413112E+02 -0.69089938134E+02  0.22769078872E+03  0.00000000000E+00 0.  1.
<mgrwt>
<rscale>  4 0.25875804E+03</rscale>
<asrwt>0</asrwt>
<pdfrwt beam="1">  1       21 0.10825694E+00 0.25875804E+03</pdfrwt>
<pdfrwt beam="2">  1       21 0.33093300E-01 0.25875804E+03</pdfrwt>
<totfact> 0.57013464E+03</totfact>
</mgrwt>
</event>
<event>
 5    0  0.1829809E+000  0.2419580E+03  0.7546771E-02  0.1118495E+00
         21   -1    0    0  502  501  0.00000000000E+00  0.00000000000E+00  0.17262309516E+04  0.17262309516E+04  0.00000000000E+00 0. -1.
         21   -1    0    0  503  502 -0.00000000000E+00 -0.00000000000E+00 -0.25803500690E+03  0.25803500690E+03  0.00000000000E+00 0.  1.
         25    1    1    2    0    0 -0.69512270913E+02  0.19445712779E+03  0.16467608640E+04  0.16643592982E+04  0.12500000000E+03 0.  0.
         21    1    1    2  503  504  0.10561971116E+03 -0.19757457622E+03 -0.12904602643E+03  0.25854228569E+03  0.00000000000E+00 0.  1.
         21    1    1    2  504  501 -0.36107440249E+02  0.31174484281E+01 -0.49518892838E+02  0.61364374632E+02  0.00000000000E+00 0.  1.
<mgrwt>
<rscale>  4 0.24195804E+03</rscale>
<asrwt>0</asrwt>
<pdfrwt beam="1">  1       21 0.26557399E+00 0.24195804E+03</pdfrwt>
<pdfrwt beam="2">  1       21 0.39697694E-01 0.24195804E+03</pdfrwt>
<totfact> 0.30979565E+02</totfact>
</mgrwt>
</event>
<event>
 5    0  0.1829809E+000  0.4011333E+03  0.7546771E-02  0.1043388E+00
         21   -1    0    0  502  501  0.00000000000E+00  0.00000000000E+00  0.63094873505E+03  0.63094873505E+03  0.00000000000E+00 0. -1.
         21   -1    0    0  503  502 -0.00000000000E+00 -0.00000000000E+00 -0.54478715263E+03  0.54478715263E+03  0.00000000000E+00 0.  1.
         25    1    1    2    0    0 -0.27708350087E+03  0.28669674458E+03  0.43202687645E+03  0.60103453460E+03  0.12500000000E+03 0.  0.
         21    1    1    2  503  504  0.13086227355E+03 -0.71789173404E+01 -0.44437492264E+02  0.13838772421E+03  0.00000000000E+00 0. -1.
         21    1    1    2  504  501  0.14622122732E+03 -0.27951782724E+03 -0.30142780177E+03  0.43631362887E+03  0.00000000000E+00 0.  1.
<mgrwt>
<rscale>  4 0.40113334E+03</rscale>
<asrwt>0</asrwt>
<pdfrwt beam="1">  1       21 0.97069036E-01 0.40113334E+03</pdfrwt>
<pdfrwt beam="2">  1       21 0.83813408E-01 0.40113334E+03</pdfrwt>
<totfact> 0.94515855E+02</totfact>
</mgrwt>
</event>
<event>
 5    0  0.1829809E+000  0.2750023E+03  0.7546771E-02  0.1098450E+00
         21   -1    0    0  502  501  0.00000000000E+00  0.00000000000E+00  0.19219610488E+03  0.19219610488E+03  0.00000000000E+00 0. -1.
         21   -1    0    0  503  502 -0.00000000000E+00 -0.00000000000E+00 -0.87289659723E+03  0.87289659723E+03  0.00000000000E+00 0. -1.
         25    1    1    2    0    0 -0.24102535412E+02  0.24376282104E+03  0.60352753105E+02  0.28154697644E+03  0.12500000000E+03 0.  0.
         21    1    1    2  503  504  0.79893265052E+01 -0.16255193314E+03 -0.58076246973E+03  0.60313514784E+03  0.00000000000E+00 0. -1.
         21    1    1    2  504  501  0.16113208907E+02 -0.81210887900E+02 -0.16029077572E+03  0.18041057783E+03  0.00000000000E+00 0. -1.
<mgrwt>
<rscale>  4 0.27500226E+03</rscale>
<asrwt>0</asrwt>
<pdfrwt beam="1">  1       21 0.29568631E-01 0.27500226E+03</pdfrwt>
<pdfrwt beam="2">  1       21 0.13429179E+00 0.27500226E+03</pdfrwt>
<totfact> 0.41119908E+03</totfact>
</mgrwt>
</event>
<event>
 5    0  0.1829809E+000  0.3045837E+03  0.7546771E-02  0.1082971E+00
         21   -1    0    0  502  501  0.00000000000E+00  0.00000000000E+00  0.13612337744E+03  0.13612337744E+03  0.00000000000E+00 0.  1.
         21   -1    0    0  503  502 -0.00000000000E+00 -0.00000000000E+00 -0.80097482987E+03  0.80097482987E+03  0.00000000000E+00 0.  1.
         25    1    1    2    0    0  0.25583230270E+03  0.16199845989E+03 -0.30629740059E+03  0.44848273738E+03  0.12500000000E+03 0.  0.
         21    1    1    2  503  504 -0.14090844193E+02 -0.58452149180E+02 -0.28326460183E+02  0.66464983114E+02  0.00000000000E+00 0.  1.
         21    1    1    2  504  501 -0.24174145851E+03 -0.10354631071E+03 -0.33022759166E+03  0.42215048682E+03  0.00000000000E+00 0.  1.
<mgrwt>
<rscale>  4 0.30458365E+03</rscale>
<asrwt>0</asrwt>
<pdfrwt beam="1">  1       21 0.20942058E-01 0.30458365E+03</pdfrwt>
<pdfrwt beam="2">  1       21 0.12322689E+00 0.30458365E+03</pdfrwt>
<totfact> 0.98019790E+03</totfact>
</mgrwt>
</event>
<event>
 5    0  0.1829809E+000  0.3347815E+03  0.7546771E-02  0.1069041E+00
         21   -1    0    0  502  501  0.00000000000E+00  0.00000000000E+00  0.38007609732E+03  0.38007609732E+03  0.00000000000E+00 0. -1.
         21   -1    0    0  503  502 -0.00000000000E+00 -0.00000000000E+00 -0.37844070979E+03  0.37844070979E+03  0.00000000000E+00 0.  1.
         25    1    1    2    0    0 -0.28000104026E+03 -0.16089360825E+03  0.62189876758E+02  0.35182370087E+03  0.12500000000E+03 0.  0.
         21    1    1    2  503  504  0.20464368880E+03  0.22432045915E+03 -0.47470974297E+02  0.30733076833E+03  0.00000000000E+00 0.  1.
         21    1    1    2  504  501  0.75357351457E+02 -0.63426850903E+02 -0.13083514932E+02  0.99362337921E+02  0.00000000000E+00 0.  1.
<mgrwt>
<rscale>  4 0.33478146E+03</rscale>
<asrwt>0</asrwt>
<pdfrwt beam="1">  1       21 0.58473246E-01 0.33478146E+03</pdfrwt>
<pdfrwt beam="2">  1       21 0.58221647E-01 0.33478146E+03</pdfrwt>
<totfact> 0.69874883E+03</totfact>
</mgrwt>
</event>
<event>
 5    0  0.1829809E+000  0.2488365E+03  0.7546771E-02  0.1114042E+00
         21   -1    0    0  502  501  0.00000000000E+00  0.00000000000E+00  0.29345363606E+03  0.29345363606E+03  0.00000000000E+00 0. -1.
         21   -1    0    0  503  502 -0.00000000000E+00 -0.00000000000E+00 -0.23649049012E+03  0.23649049012E+03  0.00000000000E+00 0.  1.
         25    1    1    2    0    0 -0.21377342782E+03 -0.24403376283E+02  0.15021367821E+03  0.29066088890E+03  0.12500000000E+03 0.  0.
         21    1    1    2  503  504  0.18367182433E+03  0.22198590705E+02 -0.96955704333E+02  0.20887442420E+03  0.00000000000E+00 0.  1.
         21    1    1    2  504  501  0.30101603496E+02  0.22047855775E+01  0.37051720631E+01  0.30408813073E+02  0.00000000000E+00 0.  1.
<mgrwt>
<rscale>  4 0.24883650E+03</rscale>
<asrwt>0</asrwt>
<pdfrwt beam="1">  1       21 0.45146713E-01 0.24883650E+03</pdfrwt>
<pdfrwt beam="2">  1       21 0.36383152E-01 0.24883650E+03</pdfrwt>
<totfact> 0.33362578E+04</totfact>
</mgrwt>
</event>
<event>
 5    0  0.1829809E+000  0.2469351E+03  0.7546771E-02  0.1115257E+00
         21   -1    0    0  502  501  0.00000000000E+00  0.00000000000E+00  0.38551401123E+03  0.38551401123E+03  0.00000000000E+00 0.  1.
         21   -1    0    0  503  502 -0.00000000000E+00 -0.00000000000E+00 -0.24206136442E+03  0.24206136442E+03  0.00000000000E+00 0. -1.
         25    1    1    2    0    0  0.10329941784E+03  0.21889305644E+03  0.19687939849E+03  0.33611223934E+03  0.12500000000E+03 0.  0.
         21    1    1    2  503  504 -0.78468444373E+02 -0.38196008697E+02 -0.64823747631E+02  0.10871223528E+03  0.00000000000E+00 0. -1.
         21    1    1    2  504  501 -0.24830973463E+02 -0.18069704775E+03  0.11396995949E+02  0.18275090102E+03  0.00000000000E+00 0. -1.
<mgrwt>
<rscale>  4 0.24693506E+03</rscale>
<asrwt>0</asrwt>
<pdfrwt beam="1">  1       21 0.59309848E-01 0.24693506E+03</pdfrwt>
<pdfrwt beam="2">  1       21 0.37240210E-01 0.24693506E+03</pdfrwt>
<totfact> 0.17917921E+04</totfact>
</mgrwt>
</event>
<event>
 5    0  0.1829809E+000  0.2481324E+03  0.7546771E-02  0.1114491E+00
         21   -1    0    0  502  501  0.00000000000E+00  0.00000000000E+00  0.16344128062E+03  0.16344128062E+03  0.00000000000E+00 0. -1.
         21   -1    0    0  503  502 -0.00000000000E+00 -0.00000000000E+00 -0.11319881337E+04  0.11319881337E+04  0.00000000000E+00 0. -1.
         25    1    1    2    0    0  0.19199316138E+03 -0.95306404661E+02  0.49327495673E+02  0.25298791792E+03  0.12500000000E+03 0.  0.
         21    1    1    2  503  504 -0.15248063718E+03  0.42188803158E+02 -0.75033972374E+03  0.76683762352E+03  0.00000000000E+00 0. -1.
         21    1    1    2  504  501 -0.39512524198E+02  0.53117601503E+02 -0.26753462498E+03  0.27560387284E+03  0.00000000000E+00 0. -1.
<mgrwt>
<rscale>  4 0.24813239E+03</rscale>
<asrwt>0</asrwt>
<pdfrwt beam="1">  1       21 0.25144813E-01 0.24813239E+03</pdfrwt>
<pdfrwt beam="2">  1       21 0.17415201E+00 0.24813239E+03</pdfrwt>
<totfact> 0.28521947E+03</totfact>
</mgrwt>
</event>
<event>
 5    0  0.1829809E+000  0.4137538E+03  0.7546771E-02  0.1039119E+00
         21   -1    0    0  502  501  0.00000000000E+00  0.00000000000E+00  0.65410915741E+03  0.65410915741E+03  0.00000000000E+00 0. -1.
         21   -1    0    0  503  502 -0.00000000000E+00 -0.00000000000E+00 -0.32207622053E+03  0.32207622053E+03  0.00000000000E+00 0. -1.
         25    1    1    2    0    0  0.40403281687E+03  0.11098131118E+03  0.14952671846E+03  0.46210670637E+03  0.12500000000E+03 0.  0.
         21    1    1    2  503  504 -0.36137915785E+03 -0.11088584262E+03  0.23602351016E+03  0.44564297725E+03  0.00000000000E+00 0. -1.
         21    1    1    2  504  501 -0.42653659020E+02 -0.95468560225E-01 -0.53517291745E+02  0.68435694325E+02  0.00000000000E+00 0. -1.
<mgrwt>
<rscale>  4 0.41375380E+03</rscale>
<asrwt>0</asrwt>
<pdfrwt beam="1">  1       21 0.10063218E+00 0.41375380E+03</pdfrwt>
<pdfrwt beam="2">  1       21 0.49550188E-01 0.41375380E+03</pdfrwt>
<totfact> 0.27625162E+03</totfact>
</mgrwt>
</event>
<event>
 5    0  0.1829809E+000  0.2800432E+03  0.7546771E-02  0.1095665E+00
         21   -1    0    0  502  501  0.00000000000E+00  0.00000000000E+00  0.17882135480E+03  0.17882135480E+03  0.00000000000E+00 0. -1.
         21   -1    0    0  503  502 -0.00000000000E+00 -0.00000000000E+00 -0.42023855900E+03  0.42023855900E+03  0.00000000000E+00 0. -1.
         25    1    1    2    0    0  0.15781160821E+03 -0.19466554497E+03 -0.76785994548E+02  0.29037952243E+03  0.12500000000E+03 0.  0.
         21    1    1    2  503  504 -0.13416033459E+03  0.16438668938E+03 -0.10253635472E+03  0.23566010070E+03  0.00000000000E+00 0. -1.
         21    1    1    2  504  501 -0.23651273627E+02  0.30278855593E+02 -0.62094854940E+02  0.73020290675E+02  0.00000000000E+00 0. -1.
<mgrwt>
<rscale>  4 0.28004317E+03</rscale>
<asrwt>0</asrwt>
<pdfrwt beam="1">  1       21 0.27510978E-01 0.28004317E+03</pdfrwt>
<pdfrwt beam="2">  1       21 0.64652085E-01 0.28004317E+03</pdfrwt>
<totfact> 0.26640743E+04</totfact>
</mgrwt>
</event>
<event>
 5    0  0.1829809E+000  0.2847478E+03  0.7546771E-02  0.1093124E+00
         21   -1    0    0  502  501  0.00000000000E+00  0.00000000000E+00  0.16268887344E+04  0.16268887344E+04  0.00000000000E+00 0. -1.
         21   -1    0    0  503  502 -0.00000000000E+00 -0.00000000000E+00 -0.91650838976E+02  0.91650838976E+02  0.00000000000E+00 0. -1.
         25    1    1    2    0    0 -0.20166875498E+03  0.10822104179E+03  0.66517203283E+03  0.71446547424E+03  0.12500000000E+03 0.  0.
         21    1    1    2  503  504  0.37366538148E+02  0.15944653610E+03  0.16625994020E+03  0.23337057176E+03  0.00000000000E+00 0. -1.
         21    1    1    2  504  501  0.16430221683E+03 -0.26766757790E+03  0.70380592238E+03  0.77070352736E+03  0.00000000000E+00 0. -1.
<mgrwt>
<rscale>  4 0.28474778E+03</rscale>
<asrwt>0</asrwt>
<pdfrwt beam="1">  1       21 0.25029055E+00 0.28474778E+03</pdfrwt>
<pdfrwt beam="2">  1       21 0.14100130E-01 0.28474778E+03</pdfrwt>
<totfact> 0.26715471E+03</totfact>
</mgrwt>
</event>
<event>
 5    0  0.1829809E+000  0.2404271E+03  0.7546771E-02  0.1119509E+00
         21   -1    0    0  502  501  0.00000000000E+00  0.00000000000E+00  0.68165058200E+03  0.68165058200E+03  0.00000000000E+00 0. -1.
         21   -1    0    0  503  502 -0.00000000000E+00 -0.00000000000E+00 -0.15982217490E+03  0.15982217490E+03  0.00000000000E+00 0.  1.
         25    1    1    2    0    0  0.13480641939E+03  0.15494329238E+03  0.57140265550E+03  0.61992434157E+03  0.12500000000E+03 0.  0.
         21    1    1    2  503  504 -0.10853952157E+03 -0.15328401724E+03 -0.52621277959E+02  0.19505336854E+03  0.00000000000E+00 0.  1.
         21    1    1    2  504  501 -0.26266897825E+02 -0.16592751456E+01  0.30470295544E+01  0.26495046791E+02  0.00000000000E+00 0. -1.
<mgrwt>
<rscale>  4 0.24042711E+03</rscale>
<asrwt>0</asrwt>
<pdfrwt beam="1">  1       21 0.10486932E+00 0.24042711E+03</pdfrwt>
<pdfrwt beam="2">  1       21 0.24588027E-01 0.24042711E+03</pdfrwt>
<totfact> 0.11109897E+04</totfact>
</mgrwt>
</event>
<event>
 5    0  0.1829809E+000  0.2489256E+03  0.7546771E-02  0.1113986E+00
         21   -1    0    0  502  501  0.00000000000E+00  0.00000000000E+00  0.12271775614E+03  0.12271775614E+03  0.00000000000E+00 0. -1.
         21   -1    0    0  503  502 -0.00000000000E+00 -0.00000000000E+00 -0.20737598638E+04  0.20737598638E+04  0.00000000000E+00 0. -1.
         25    1    1    2    0    0 -0.12475892486E+03 -0.17542564304E+03 -0.16550832996E+02  0.24947520045E+03  0.12500000000E+03 0.  0.
         21    1    1    2  503  504  0.48229591275E+02  0.67769925336E+02 -0.55446821403E+03  0.56067268225E+03  0.00000000000E+00 0. -1.
         21    1    1    2  504  501  0.76529333584E+02  0.10765571771E+03 -0.13800230606E+04  0.13863297372E+04  0.00000000000E+00 0. -1.
<mgrwt>
<rscale>  4 0.24892558E+03</rscale>
<asrwt>0</asrwt>
<pdfrwt beam="1">  1       21 0.18879655E-01 0.24892558E+03</pdfrwt>
<pdfrwt beam="2">  1       21 0.31903998E+00 0.24892558E+03</pdfrwt>
<totfact> 0.63411218E+02</totfact>
</mgrwt>
</event>
<event>
 5    0  0.1829809E+000  0.2352882E+03  0.7546771E-02  0.1122972E+00
         21   -1    0    0  502  501  0.00000000000E+00  0.00000000000E+00  0.11604091828E+04  0.11604091828E+04  0.00000000000E+00 0.  1.
         21   -1    0    0  503  502 -0.00000000000E+00 -0.00000000000E+00 -0.60473189201E+02  0.60473189201E+02  0.00000000000E+00 0.  1.
         25    1    1    2    0    0 -0.21244416469E+03 -0.80338974748E+02  0.49639827510E+03  0.56002064381E+03  0.12500000000E+03 0.  0.
         21    1    1    2  503  504  0.18245013842E+03  0.22962017480E+02  0.31145847200E+03  0.36169280755E+03  0.00000000000E+00 0.  1.
         21    1    1    2  504  501  0.29994026274E+02  0.57376957267E+02  0.29207924646E+03  0.29916892060E+03  0.00000000000E+00 0.  1.
<mgrwt>
<rscale>  4 0.23528822E+03</rscale>
<asrwt>0</asrwt>
<pdfrwt beam="1">  1       21 0.17852447E+00 0.23528822E+03</pdfrwt>
<pdfrwt beam="2">  1       21 0.93035684E-02 0.23528822E+03</pdfrwt>
<totfact> 0.16661364E+04</totfact>
</mgrwt>
</event>
<event>
 5    0  0.1829809E+000  0.2797114E+03  0.7546771E-02  0.1095847E+00
         21   -1    0    0  502  501  0.00000000000E+00  0.00000000000E+00  0.13948419924E+03  0.13948419924E+03  0.00000000000E+00 0.  1.
         21   -1    0    0  503  502 -0.00000000000E+00 -0.00000000000E+00 -0.10202773541E+04  0.10202773541E+04  0.00000000000E+00 0. -1.
         25    1    1    2    0    0 -0.20782424320E+03  0.13936474454E+03 -0.43006579176E+02  0.28299825783E+03  0.12500000000E+03 0.  0.
         21    1    1    2  503  504  0.56240600405E+02 -0.74974962055E+01 -0.15642688706E+03  0.16639888394E+03  0.00000000000E+00 0. -1.
         21    1    1    2  504  501  0.15158364280E+03 -0.13186724834E+03 -0.68135968865E+03  0.71036441159E+03  0.00000000000E+00 0. -1.
<mgrwt>
<rscale>  4 0.27971137E+03</rscale>
<asrwt>0</asrwt>
<pdfrwt beam="1">  1       21 0.21459108E-01 0.27971137E+03</pdfrwt>
<pdfrwt beam="2">  1       21 0.15696575E+00 0.27971137E+03</pdfrwt>
<totfact> 0.50352954E+03</totfact>
</mgrwt>
</event>
<event>
 5    0  0.1829809E+000  0.2469325E+03  0.7546771E-02  0.1115259E+00
         21   -1    0    0  502  501  0.00000000000E+00  0.00000000000E+00  0.54302941805E+03  0.54302941805E+03  0.00000000000E+00 0. -1.
         21   -1    0    0  503  502 -0.00000000000E+00 -0.00000000000E+00 -0.12033942602E+03  0.12033942602E+03  0.00000000000E+00 0. -1.
         25    1    1    2    0    0  0.72367583584E+02  0.20028381355E+03  0.36420282005E+03  0.44002200770E+03  0.12500000000E+03 0.  0.
         21    1    1    2  503  504 -0.47894475320E+02 -0.16998804512E+03  0.47679571136E+02  0.18292937915E+03  0.00000000000E+00 0. -1.
         21    1    1    2  504  501 -0.24473108263E+02 -0.30295768425E+02  0.10807600851E+02  0.40417457227E+02  0.00000000000E+00 0. -1.
<mgrwt>
<rscale>  4 0.24693253E+03</rscale>
<asrwt>0</asrwt>
<pdfrwt beam="1">  1       21 0.83542986E-01 0.24693253E+03</pdfrwt>
<pdfrwt beam="2">  1       21 0.18513758E-01 0.24693253E+03</pdfrwt>
<totfact> 0.32319632E+04</totfact>
</mgrwt>
</event>
<event>
 5    0  0.1829809E+000  0.2617712E+03  0.7546771E-02  0.1106084E+00
         21   -1    0    0  502  501  0.00000000000E+00  0.00000000000E+00  0.27592462949E+03  0.27592462949E+03  0.00000000000E+00 0.  1.
         21   -1    0    0  503  502 -0.00000000000E+00 -0.00000000000E+00 -0.32806241725E+03  0.32806241725E+03  0.00000000000E+00 0. -1.
         25    1    1    2    0    0 -0.59103593265E+01  0.25116709569E+03  0.60729186884E+02  0.28711126143E+03  0.12500000000E+03 0.  0.
         21    1    1    2  503  504  0.60799157326E+02 -0.48137123332E+02 -0.64981494995E+02  0.10117467502E+03  0.00000000000E+00 0. -1.
         21    1    1    2  504  501 -0.54888797999E+02 -0.20302997235E+03 -0.47885479648E+02  0.21570111029E+03  0.00000000000E+00 0. -1.
<mgrwt>
<rscale>  4 0.26177120E+03</rscale>
<asrwt>0</asrwt>
<pdfrwt beam="1">  1       21 0.42449943E-01 0.26177120E+03</pdfrwt>
<pdfrwt beam="2">  1       21 0.50471141E-01 0.26177120E+03</pdfrwt>
<totfact> 0.19225028E+04</totfact>
</mgrwt>
</event>
<event>
 5    0  0.1829809E+000  0.2596218E+03  0.7546771E-02  0.1107371E+00
         21   -1    0    0  502  501  0.00000000000E+00  0.00000000000E+00  0.63553339698E+03  0.63553339698E+03  0.00000000000E+00 0.  1.
         21   -1    0    0  503  502 -0.00000000000E+00 -0.00000000000E+00 -0.12472859788E+03  0.12472859788E+03  0.00000000000E+00 0.  1.
         25    1    1    2    0    0  0.21295316534E+03 -0.90637082292E+02  0.37175530276E+03  0.45540217000E+03  0.12500000000E+03 0.  0.
         21    1    1    2  503  504 -0.21995857800E+03  0.55229400967E+02  0.90070264431E+02  0.24401785857E+03  0.00000000000E+00 0.  1.
         21    1    1    2  504  501  0.70054126524E+01  0.35407681325E+02  0.48979231916E+02  0.60841966293E+02  0.00000000000E+00 0. -1.
<mgrwt>
<rscale>  4 0.25962180E+03</rscale>
<asrwt>0</asrwt>
<pdfrwt beam="1">  1       21 0.97774367E-01 0.25962180E+03</pdfrwt>
<pdfrwt beam="2">  1       21 0.19189015E-01 0.25962180E+03</pdfrwt>
<totfact> 0.20812351E+04</totfact>
</mgrwt>
</event>
<event>
 5    0  0.1829809E+000  0.3044718E+03  0.7546771E-02  0.1083026E+00
         21   -1    0    0  502  501  0.00000000000E+00  0.00000000000E+00  0.74449799367E+03  0.74449799367E+03  0.00000000000E+00 0.  1.
         21   -1    0    0  503  502 -0.00000000000E+00 -0.00000000000E+00 -0.13740368110E+03  0.13740368110E+03  0.00000000000E+00 0.  1.
         25    1    1    2    0    0 -0.22030752463E+03  0.16894568759E+03  0.48595434176E+03  0.57345851902E+03  0.12500000000E+03 0.  0.
         21    1    1    2  503  504  0.24612028388E+02 -0.36862047153E+02  0.37203153136E+02  0.57867409351E+02  0.00000000000E+00 0.  1.
         21    1    1    2  504  501  0.19569549624E+03 -0.13208364044E+03  0.83936817681E+02  0.25057574640E+03  0.00000000000E+00 0.  1.
<mgrwt>
<rscale>  4 0.30447176E+03</rscale>
<asrwt>0</asrwt>
<pdfrwt beam="1">  1       21 0.11453815E+00 0.30447176E+03</pdfrwt>
<pdfrwt beam="2">  1       21 0.21139028E-01 0.30447176E+03</pdfrwt>
<totfact> 0.11563201E+04</totfact>
</mgrwt>
</event>
<event>
 5    0  0.1829809E+000  0.2759430E+03  0.7546771E-02  0.1097926E+00
         21   -1    0    0  502  501  0.00000000000E+00  0.00000000000E+00  0.30529458015E+03  0.30529458015E+03  0.00000000000E+00 0.  1.
         21   -1    0    0  503  502 -0.00000000000E+00 -0.00000000000E+00 -0.53759433629E+03  0.53759433629E+03  0.00000000000E+00 0.  1.
         25    1    1    2    0    0 -0.18111331754E+03 -0.16648571218E+03 -0.43734617334E+03  0.51712300421E+03  0.12500000000E+03 0.  0.
         21    1    1    2  503  504  0.16528209948E+03  0.14648227472E+03  0.15570730770E+03  0.27022212139E+03  0.00000000000E+00 0.  1.
         21    1    1    2  504  501  0.15831218055E+02  0.20003437464E+02  0.49339109492E+02  0.55543790841E+02  0.00000000000E+00 0. -1.
<mgrwt>
<rscale>  4 0.27594298E+03</rscale>
<asrwt>0</asrwt>
<pdfrwt beam="1">  1       21 0.46968396E-01 0.27594298E+03</pdfrwt>
<pdfrwt beam="2">  1       21 0.82706822E-01 0.27594298E+03</pdfrwt>
<totfact> 0.52363037E+03</totfact>
</mgrwt>
</event>
<event>
 5    0  0.1829809E+000  0.2823630E+03  0.7546771E-02  0.1094405E+00
         21   -1    0    0  502  501  0.00000000000E+00  0.00000000000E+00  0.83050851671E+02  0.83050851671E+02  0.00000000000E+00 0. -1.
         21   -1    0    0  503  502 -0.00000000000E+00 -0.00000000000E+00 -0.96427513921E+03  0.96427513921E+03  0.00000000000E+00 0. -1.
         25    1    1    2    0    0 -0.25452657036E+03  0.36530644154E+02 -0.43655834574E+03  0.52184907034E+03  0.12500000000E+03 0.  0.
         21    1    1    2  503  504  0.24260725716E+03 -0.62851011669E+02 -0.40754630319E+03  0.47843758228E+03  0.00000000000E+00 0. -1.
         21    1    1    2  504  501  0.11919313207E+02  0.26320367515E+02 -0.37119638610E+02  0.47039338261E+02  0.00000000000E+00 0. -1.
<mgrwt>
<rscale>  4 0.28236305E+03</rscale>
<asrwt>0</asrwt>
<pdfrwt beam="1">  1       21 0.12777053E-01 0.28236305E+03</pdfrwt>
<pdfrwt beam="2">  1       21 0.14835003E+00 0.28236305E+03</pdfrwt>
<totfact> 0.15295042E+04</totfact>
</mgrwt>
</event>
<event>
 5    0  0.1829809E+000  0.2534681E+03  0.7546771E-02  0.1111132E+00
         21   -1    0    0  502  501  0.00000000000E+00  0.00000000000E+00  0.27701533857E+02  0.27701533857E+02  0.00000000000E+00 0. -1.
         21   -1    0    0  503  502 -0.00000000000E+00 -0.00000000000E+00 -0.23917501173E+04  0.23917501173E+04  0.00000000000E+00 0. -1.
         25    1    1    2    0    0 -0.53424996531E+02  0.21393185324E+03 -0.17041528260E+04  0.17228995683E+04  0.12500000000E+03 0.  0.
         21    1    1    2  503  504  0.52169699842E+02 -0.18301023463E+03 -0.59425473369E+03  0.62398166005E+03  0.00000000000E+00 0. -1.
         21    1    1    2  504  501  0.12552966887E+01 -0.30921618610E+02 -0.65641023731E+02  0.72570422789E+02  0.00000000000E+00 0.  1.
<mgrwt>
<rscale>  4 0.25346808E+03</rscale>
<asrwt>0</asrwt>
<pdfrwt beam="1">  1       21 0.42617755E-02 0.25346808E+03</pdfrwt>
<pdfrwt beam="2">  1       21 0.36796147E+00 0.25346808E+03</pdfrwt>
<totfact> 0.44918025E+03</totfact>
</mgrwt>
</event>
<event>
 5    0  0.1829809E+000  0.3123430E+03  0.7546771E-02  0.1079228E+00
         21   -1    0    0  502  501  0.00000000000E+00  0.00000000000E+00  0.80265880364E+03  0.80265880364E+03  0.00000000000E+00 0.  1.
         21   -1    0    0  503  502 -0.00000000000E+00 -0.00000000000E+00 -0.14796758019E+03  0.14796758019E+03  0.00000000000E+00 0. -1.
         25    1    1    2    0    0 -0.16220619047E+03 -0.23584379355E+03  0.56789129178E+03  0.64811932733E+03  0.12500000000E+03 0.  0.
         21    1    1    2  503  504  0.14771352495E+03  0.20971791263E+03  0.62563226279E+02  0.26403606877E+03  0.00000000000E+00 0. -1.
         21    1    1    2  504  501  0.14492665516E+02  0.26125880921E+02  0.24236705395E+02  0.38470987719E+02  0.00000000000E+00 0. -1.
<mgrwt>
<rscale>  4 0.31234299E+03</rscale>
<asrwt>0</asrwt>
<pdfrwt beam="1">  1       21 0.12348597E+00 0.31234299E+03</pdfrwt>
<pdfrwt beam="2">  1       21 0.22764244E-01 0.31234299E+03</pdfrwt>
<totfact> 0.82875364E+03</totfact>
</mgrwt>
</event>
<event>
 5    0  0.1829809E+000  0.3398280E+03  0.7546771E-02  0.1066869E+00
         21   -1    0    0  502  501  0.00000000000E+00  0.00000000000E+00  0.77802114303E+03  0.77802114303E+03  0.00000000000E+00 0.  1.
         21   -1    0    0  503  502 -0.00000000000E+00 -0.00000000000E+00 -0.11065857620E+04  0.11065857620E+04  0.00000000000E+00 0.  1.
         25    1    1    2    0    0  0.19157010455E+03 -0.25131441137E+03  0.71424132452E+03  0.79096378423E+03  0.12500000000E+03 0.  0.
         21    1    1    2  503  504 -0.11390177531E+03  0.10949601304E+03 -0.64855407877E+03  0.66752182315E+03  0.00000000000E+00 0.  1.
         21    1    1    2  504  501 -0.77668329243E+02  0.14181839833E+03 -0.39425186470E+03  0.42612129763E+03  0.00000000000E+00 0.  1.
<mgrwt>
<rscale>  4 0.33982795E+03</rscale>
<asrwt>0</asrwt>
<pdfrwt beam="1">  1       21 0.11969556E+00 0.33982795E+03</pdfrwt>
<pdfrwt beam="2">  1       21 0.17024396E+00 0.33982795E+03</pdfrwt>
<totfact> 0.96952995E+01</totfact>
</mgrwt>
</event>
<event>
 5    0  0.1829809E+000  0.2572692E+03  0.7546771E-02  0.1108795E+00
         21   -1    0    0  502  501  0.00000000000E+00  0.00000000000E+00  0.17039603577E+03  0.17039603577E+03  0.00000000000E+00 0. -1.
         21   -1    0    0  503  502 -0.00000000000E+00 -0.00000000000E+00 -0.64566139014E+03  0.64566139014E+03  0.00000000000E+00 0. -1.
         25    1    1    2    0    0  0.19911818757E+03 -0.10447188608E+03  0.31515779558E+02  0.25919234549E+03  0.12500000000E+03 0.  0.
         21    1    1    2  503  504 -0.71209365105E+02  0.40510930245E+02 -0.12786165157E+03  0.15185687700E+03  0.00000000000E+00 0. -1.
         21    1    1    2  504  501 -0.12790882246E+03  0.63960955831E+02 -0.37891948235E+03  0.40500820342E+03  0.00000000000E+00 0. -1.
<mgrwt>
<rscale>  4 0.25726917E+03</rscale>
<asrwt>0</asrwt>
<pdfrwt beam="1">  1       21 0.26214775E-01 0.25726917E+03</pdfrwt>
<pdfrwt beam="2">  1       21 0.99332522E-01 0.25726917E+03</pdfrwt>
<totfact> 0.11086411E+04</totfact>
</mgrwt>
</event>
<event>
 5    0  0.1829809E+000  0.4174795E+03  0.7546771E-02  0.1037890E+00
         21   -1    0    0  502  501  0.00000000000E+00  0.00000000000E+00  0.84285786376E+03  0.84285786376E+03  0.00000000000E+00 0. -1.
         21   -1    0    0  503  502 -0.00000000000E+00 -0.00000000000E+00 -0.74043631907E+03  0.74043631907E+03  0.00000000000E+00 0. -1.
         25    1    1    2    0    0  0.38721002063E+03  0.93447953145E+02  0.72859886332E+03  0.83972937524E+03  0.12500000000E+03 0.  0.
         21    1    1    2  503  504 -0.36281237609E+03 -0.94187954000E+02 -0.56870264559E+03  0.68112178795E+03  0.00000000000E+00 0. -1.
         21    1    1    2  504  501 -0.24397644544E+02  0.74000085446E+00 -0.57474673036E+02  0.62443019636E+02  0.00000000000E+00 0.  1.
<mgrwt>
<rscale>  4 0.41747948E+03</rscale>
<asrwt>0</asrwt>
<pdfrwt beam="1">  1       21 0.12967044E+00 0.41747948E+03</pdfrwt>
<pdfrwt beam="2">  1       21 0.11391328E+00 0.41747948E+03</pdfrwt>
<totfact> 0.21742897E+02</totfact>
</mgrwt>
</event>
<event>
 5    0  0.1829809E+000  0.2704108E+03  0.7546771E-02  0.1101045E+00
         21   -1    0    0  502  501  0.00000000000E+00  0.00000000000E+00  0.17777436323E+03  0.17777436323E+03  0.00000000000E+00 0. -1.
         21   -1    0    0  503  502 -0.00000000000E+00 -0.00000000000E+00 -0.53032875188E+03  0.53032875188E+03  0.00000000000E+00 0. -1.
         25    1    1    2    0    0  0.22830068941E+03 -0.73319805474E+02  0.84563019996E+01  0.27054298679E+03  0.12500000000E+03 0.  0.
         21    1    1    2  503  504 -0.11219454324E+03  0.67357115930E+02 -0.19810354666E+03  0.23742285442E+03  0.00000000000E+00 0. -1.
         21    1    1    2  504  501 -0.11610614617E+03  0.59626895444E+01 -0.16290714398E+03  0.20013727390E+03  0.00000000000E+00 0. -1.
<mgrwt>
<rscale>  4 0.27041080E+03</rscale>
<asrwt>0</asrwt>
<pdfrwt beam="1">  1       21 0.27349903E-01 0.27041080E+03</pdfrwt>
<pdfrwt beam="2">  1       21 0.81589037E-01 0.27041080E+03</pdfrwt>
<totfact> 0.16065132E+04</totfact>
</mgrwt>
</event>
<event>
 5    0  0.1829809E+000  0.2436654E+03  0.7546771E-02  0.1117375E+00
         21   -1    0    0  502  501  0.00000000000E+00  0.00000000000E+00  0.58816539010E+02  0.58816539010E+02  0.00000000000E+00 0.  1.
         21   -1    0    0  503  502 -0.00000000000E+00 -0.00000000000E+00 -0.16961327337E+04  0.16961327337E+04  0.00000000000E+00 0. -1.
         25    1    1    2    0    0 -0.10708113672E+03 -0.20868917011E+03 -0.34687608371E+03  0.43699606063E+03  0.12500000000E+03 0.  0.
         21    1    1    2  503  504  0.10289563697E+03  0.17675002781E+03 -0.12481357388E+04  0.12647809719E+04  0.00000000000E+00 0. -1.
         21    1    1    2  504  501  0.41854997517E+01  0.31939142296E+02 -0.42304372188E+02  0.53172240173E+02  0.00000000000E+00 0. -1.
<mgrwt>
<rscale>  4 0.24366542E+03</rscale>
<asrwt>0</asrwt>
<pdfrwt beam="1">  1       21 0.90486991E-02 0.24366542E+03</pdfrwt>
<pdfrwt beam="2">  1       21 0.26094347E+00 0.24366542E+03</pdfrwt>
<totfact> 0.52887806E+03</totfact>
</mgrwt>
</event>
<event>
 5    0  0.1829809E+000  0.3094248E+03  0.7546771E-02  0.1080622E+00
         21   -1    0    0  502  501  0.00000000000E+00  0.00000000000E+00  0.24647745843E+03  0.24647745843E+03  0.00000000000E+00 0.  1.
         21   -1    0    0  503  502 -0.00000000000E+00 -0.00000000000E+00 -0.74540103141E+03  0.74540103141E+03  0.00000000000E+00 0.  1.
         25    1    1    2    0    0  0.69444106859E+02 -0.32321804067E+03  0.88483280251E+01  0.35354727930E+03  0.12500000000E+03 0.  0.
         21    1    1    2  503  504  0.21326605793E+02  0.17122432434E+03 -0.11459076176E+03  0.20713192907E+03  0.00000000000E+00 0.  1.
         21    1    1    2  504  501 -0.90770712652E+02  0.15199371633E+03 -0.39318113925E+03  0.43119928147E+03  0.00000000000E+00 0.  1.
<mgrwt>
<rscale>  4 0.30942484E+03</rscale>
<asrwt>0</asrwt>
<pdfrwt beam="1">  1       21 0.37919609E-01 0.30942484E+03</pdfrwt>
<pdfrwt beam="2">  1       21 0.11467708E+00 0.30942484E+03</pdfrwt>
<totfact> 0.36611213E+03</totfact>
</mgrwt>
</event>
<event>
 5    0  0.1829809E+000  0.5097497E+03  0.7546771E-02  0.1012261E+00
         21   -1    0    0  502  501  0.00000000000E+00  0.00000000000E+00  0.35899866219E+03  0.35899866219E+03  0.00000000000E+00 0.  1.
         21   -1    0    0  503  502 -0.00000000000E+00 -0.00000000000E+00 -0.72942248221E+03  0.72942248221E+03  0.00000000000E+00 0.  1.
         25    1    1    2    0    0  0.13745178235E+03 -0.45812556804E+03 -0.77213006758E+02  0.50035874828E+03  0.12500000000E+03 0.  0.
         21    1    1    2  503  504 -0.53379933824E+02  0.53285402448E+02  0.89379570884E+01  0.75951553809E+02  0.00000000000E+00 0. -1.
         21    1    1    2  504  501 -0.84071848530E+02  0.40484016559E+03 -0.30214877035E+03  0.51211084231E+03  0.00000000000E+00 0.  1.
<mgrwt>
<rscale>  4 0.50585932E+03</rscale>
<asrwt>0</asrwt>
<pdfrwt beam="1">  1       21 0.55230564E-01 0.50974974E+03</pdfrwt>
<pdfrwt beam="2">  1       21 0.11221884E+00 0.50974974E+03</pdfrwt>
<totfact> 0.16150879E+03</totfact>
</mgrwt>
</event>
<event>
 5    0  0.1829809E+000  0.2542076E+03  0.7546771E-02  0.1110674E+00
         21   -1    0    0  502  501  0.00000000000E+00  0.00000000000E+00  0.15848190772E+04  0.15848190772E+04  0.00000000000E+00 0.  1.
         21   -1    0    0  503  502 -0.00000000000E+00 -0.00000000000E+00 -0.50912112271E+02  0.50912112271E+02  0.00000000000E+00 0. -1.
         25    1    1    2    0    0 -0.14954587281E+03 -0.16319478696E+03  0.12394222021E+04  0.12652228663E+04  0.12500000000E+03 0.  0.
         21    1    1    2  503  504  0.13368739864E+02  0.27119149838E+02  0.24490269806E+02  0.38909443695E+02  0.00000000000E+00 0.  1.
         21    1    1    2  504  501  0.13617713294E+03  0.13607563712E+03  0.26999449305E+03  0.33159887942E+03  0.00000000000E+00 0. -1.
<mgrwt>
<rscale>  4 0.25420761E+03</rscale>
<asrwt>0</asrwt>
<pdfrwt beam="1">  1       21 0.24381828E+00 0.25420761E+03</pdfrwt>
<pdfrwt beam="2">  1       21 0.78326339E-02 0.25420761E+03</pdfrwt>
<totfact> 0.85463393E+03</totfact>
</mgrwt>
</event>
<event>
 5    0  0.1829809E+000  0.2563191E+03  0.7546771E-02  0.1109375E+00
         21   -1    0    0  502  501  0.00000000000E+00  0.00000000000E+00  0.22078326751E+03  0.22078326751E+03  0.00000000000E+00 0. -1.
         21   -1    0    0  503  502 -0.00000000000E+00 -0.00000000000E+00 -0.48141898562E+03  0.48141898562E+03  0.00000000000E+00 0. -1.
         25    1    1    2    0    0 -0.20575357109E+03  0.16349929044E+03 -0.25039762007E+02  0.29209337492E+03  0.12500000000E+03 0.  0.
         21    1    1    2  503  504  0.87969726345E+01 -0.79236519377E+02  0.14260022775E+02  0.80988647230E+02  0.00000000000E+00 0. -1.
         21    1    1    2  504  501  0.19695659846E+03 -0.84262771062E+02 -0.24985597887E+03  0.32912023098E+03  0.00000000000E+00 0. -1.
<mgrwt>
<rscale>  4 0.25631906E+03</rscale>
<asrwt>0</asrwt>
<pdfrwt beam="1">  1       21 0.33966657E-01 0.25631906E+03</pdfrwt>
<pdfrwt beam="2">  1       21 0.74064458E-01 0.25631906E+03</pdfrwt>
<totfact> 0.13152672E+04</totfact>
</mgrwt>
</event>
<event>
 5    0  0.1829809E+000  0.4945353E+03  0.7546771E-02  0.1015215E+00
         21   -1    0    0  502  501  0.00000000000E+00  0.00000000000E+00  0.22525724254E+04  0.22525724254E+04  0.00000000000E+00 0. -1.
         21   -1    0    0  503  502 -0.00000000000E+00 -0.00000000000E+00 -0.12619748916E+03  0.12619748916E+03  0.00000000000E+00 0.  1.
         25    1    1    2    0    0  0.38823174179E+03 -0.27967181533E+03  0.15384762386E+04  0.16160056765E+04  0.12500000000E+03 0.  0.
         21    1    1    2  503  504 -0.28471706443E+02  0.33507068571E+02  0.95470690544E+02  0.10510953556E+03  0.00000000000E+00 0.  1.
         21    1    1    2  504  501 -0.35976003534E+03  0.24616474676E+03  0.49242800704E+03  0.65765470248E+03  0.00000000000E+00 0.  1.
<mgrwt>
<rscale>  4 0.49453535E+03</rscale>
<asrwt>0</asrwt>
<pdfrwt beam="1">  1       21 0.34654957E+00 0.49453535E+03</pdfrwt>
<pdfrwt beam="2">  1       21 0.19415000E-01 0.49453535E+03</pdfrwt>
<totfact> 0.33978176E+02</totfact>
</mgrwt>
</event>
<event>
 5    0  0.1829809E+000  0.2807905E+03  0.7546771E-02  0.1095258E+00
         21   -1    0    0  502  501  0.00000000000E+00  0.00000000000E+00  0.28752459076E+03  0.28752459076E+03  0.00000000000E+00 0. -1.
         21   -1    0    0  503  502 -0.00000000000E+00 -0.00000000000E+00 -0.27209763620E+03  0.27209763620E+03  0.00000000000E+00 0. -1.
         25    1    1    2    0    0 -0.12265651474E+03  0.21948508653E+03  0.83017866849E+02  0.29280589139E+03  0.12500000000E+03 0.  0.
         21    1    1    2  503  504  0.68629418390E+01 -0.39974426241E+02 -0.28703751689E+02  0.49688631345E+02  0.00000000000E+00 0. -1.
         21    1    1    2  504  501  0.11579357290E+03 -0.17951066029E+03 -0.38887160604E+02  0.21712770422E+03  0.00000000000E+00 0. -1.
<mgrwt>
<rscale>  4 0.28079053E+03</rscale>
<asrwt>0</asrwt>
<pdfrwt beam="1">  1       21 0.44234552E-01 0.28079053E+03</pdfrwt>
<pdfrwt beam="2">  1       21 0.41861175E-01 0.28079053E+03</pdfrwt>
<totfact> 0.25833977E+04</totfact>
</mgrwt>
</event>
<event>
 5    0  0.1829809E+000  0.2449800E+03  0.7546771E-02  0.1116519E+00
         21   -1    0    0  502  501  0.00000000000E+00  0.00000000000E+00  0.66728544787E+03  0.66728544787E+03  0.00000000000E+00 0.  1.
         21   -1    0    0  503  502 -0.00000000000E+00 -0.00000000000E+00 -0.88693936169E+02  0.88693936169E+02  0.00000000000E+00 0.  1.
         25    1    1    2    0    0  0.25030823470E+02 -0.20919760293E+03  0.41685642733E+03  0.48351262673E+03  0.12500000000E+03 0.  0.
         21    1    1    2  503  504 -0.25289421916E+02  0.18049696288E+03  0.10883593064E+03  0.21228275547E+03  0.00000000000E+00 0.  1.
         21    1    1    2  504  501  0.25859844612E+00  0.28700640050E+02  0.52899153732E+02  0.60184001845E+02  0.00000000000E+00 0. -1.
<mgrwt>
<rscale>  4 0.24497996E+03</rscale>
<asrwt>0</asrwt>
<pdfrwt beam="1">  1       21 0.10265930E+00 0.24497996E+03</pdfrwt>
<pdfrwt beam="2">  1       21 0.13645221E-01 0.24497996E+03</pdfrwt>
<totfact> 0.34968548E+04</totfact>
</mgrwt>
</event>
<event>
 5    0  0.1829809E+000  0.4592826E+03  0.7546771E-02  0.1024989E+00
         21   -1    0    0  502  501  0.00000000000E+00  0.00000000000E+00  0.16912009195E+04  0.16912009195E+04  0.00000000000E+00 0. -1.
         21   -1    0    0  503  502 -0.00000000000E+00 -0.00000000000E+00 -0.20500056385E+03  0.20500056385E+03  0.00000000000E+00 0.  1.
         25    1    1    2    0    0 -0.29993725487E+03  0.36838329870E+03  0.10498506813E+04  0.11590858746E+04  0.12500000000E+03 0.  0.
         21    1    1    2  503  504  0.10872910069E+03 -0.38524425925E+03  0.26729053031E+03  0.48133084693E+03  0.00000000000E+00 0.  1.
         21    1    1    2  504  501  0.19120815417E+03  0.16860960548E+02  0.16905914409E+03  0.25578476188E+03  0.00000000000E+00 0. -1.
<mgrwt>
<rscale>  4 0.45928258E+03</rscale>
<asrwt>0</asrwt>
<pdfrwt beam="1">  1       21 0.26018475E+00 0.45928258E+03</pdfrwt>
<pdfrwt beam="2">  1       21 0.31538549E-01 0.45928258E+03</pdfrwt>
<totfact> 0.44941963E+02</totfact>
</mgrwt>
</event>
<event>
 5    0  0.1829809E+000  0.2498847E+03  0.7546771E-02  0.1113378E+00
         21   -1    0    0  502  501  0.00000000000E+00  0.00000000000E+00  0.15160270138E+03  0.15160270138E+03  0.00000000000E+00 0.  1.
         21   -1    0    0  503  502 -0.00000000000E+00 -0.00000000000E+00 -0.52461625467E+03  0.52461625467E+03  0.00000000000E+00 0.  1.
         25    1    1    2    0    0 -0.29456489585E+02  0.21435872637E+03 -0.78932826322E+01  0.25000930435E+03  0.12500000000E+03 0.  0.
         21    1    1    2  503  504  0.12558638196E+02 -0.17040172293E+02 -0.26346272446E+02  0.33796640912E+02  0.00000000000E+00 0. -1.
         21    1    1    2  504  501  0.16897851389E+02 -0.19731855408E+03 -0.33877399822E+03  0.39241301079E+03  0.00000000000E+00 0.  1.
<mgrwt>
<rscale>  4 0.24988467E+03</rscale>
<asrwt>0</asrwt>
<pdfrwt beam="1">  1       21 0.23323492E-01 0.24988467E+03</pdfrwt>
<pdfrwt beam="2">  1       21 0.80710194E-01 0.24988467E+03</pdfrwt>
<totfact> 0.22593349E+04</totfact>
</mgrwt>
</event>
<event>
 5    0  0.1829809E+000  0.2487016E+03  0.7546771E-02  0.1114128E+00
         21   -1    0    0  502  501  0.00000000000E+00  0.00000000000E+00  0.47873755438E+03  0.47873755438E+03  0.00000000000E+00 0.  1.
         21   -1    0    0  503  502 -0.00000000000E+00 -0.00000000000E+00 -0.12932060375E+03  0.12932060375E+03  0.00000000000E+00 0.  1.
         25    1    1    2    0    0  0.21500113661E+03  0.14080739718E+01  0.28743090291E+03  0.38009077253E+03  0.12500000000E+03 0.  0.
         21    1    1    2  503  504 -0.18554669250E+03 -0.22714319142E+01  0.36736503713E+02  0.18916211356E+03  0.00000000000E+00 0.  1.
         21    1    1    2  504  501 -0.29454444111E+02  0.86335794244E+00  0.25249544006E+02  0.38805272030E+02  0.00000000000E+00 0. -1.
<mgrwt>
<rscale>  4 0.24870157E+03</rscale>
<asrwt>0</asrwt>
<pdfrwt beam="1">  1       21 0.73651930E-01 0.24870157E+03</pdfrwt>
<pdfrwt beam="2">  1       21 0.19895478E-01 0.24870157E+03</pdfrwt>
<totfact> 0.37557496E+04</totfact>
</mgrwt>
</event>
<event>
 5    0  0.1829809E+000  0.2502660E+03  0.7546771E-02  0.1113137E+00
         21   -1    0    0  502  501  0.00000000000E+00  0.00000000000E+00  0.58699172550E+03  0.58699172550E+03  0.00000000000E+00 0.  1.
         21   -1    0    0  503  502 -0.00000000000E+00 -0.00000000000E+00 -0.98323780735E+02  0.98323780735E+02  0.00000000000E+00 0.  1.
         25    1    1    2    0    0 -0.95369325153E+02  0.19471198250E+03  0.19179976589E+03  0.31530971204E+03  0.12500000000E+03 0.  0.
         21    1    1    2  503  504  0.18804373756E+02 -0.30975030790E+02  0.26966700846E+02  0.45169236868E+02  0.00000000000E+00 0.  1.
         21    1    1    2  504  501  0.76564951397E+02 -0.16373695171E+03  0.26990147802E+03  0.32483655733E+03  0.00000000000E+00 0.  1.
<mgrwt>
<rscale>  4 0.25026599E+03</rscale>
<asrwt>0</asrwt>
<pdfrwt beam="1">  1       21 0.90306418E-01 0.25026599E+03</pdfrwt>
<pdfrwt beam="2">  1       21 0.15126736E-01 0.25026599E+03</pdfrwt>
<totfact> 0.39154805E+04</totfact>
</mgrwt>
</event>
<event>
 5    0  0.1829809E+000  0.4998518E+03  0.7546771E-02  0.1013826E+00
         21   -1    0    0  502  501  0.00000000000E+00  0.00000000000E+00  0.89775838119E+03  0.89775838119E+03  0.00000000000E+00 0. -1.
         21   -1    0    0  503  502 -0.00000000000E+00 -0.00000000000E+00 -0.56580449103E+03  0.56580449103E+03  0.00000000000E+00 0.  1.
         25    1    1    2    0    0 -0.28416630174E+03 -0.39158758584E+03  0.68766816726E+03  0.85006107586E+03  0.12500000000E+03 0.  0.
         21    1    1    2  503  504  0.16534920912E+03  0.31564651549E+03 -0.28177591737E+03  0.45428047647E+03  0.00000000000E+00 0.  1.
         21    1    1    2  504  501  0.11881709263E+03  0.75941070351E+02 -0.73938359733E+02  0.15922131989E+03  0.00000000000E+00 0. -1.
<mgrwt>
<rscale>  4 0.49981790E+03</rscale>
<asrwt>0</asrwt>
<pdfrwt beam="1">  1       21 0.13811667E+00 0.49985179E+03</pdfrwt>
<pdfrwt beam="2">  1       21 0.87046845E-01 0.49985179E+03</pdfrwt>
<totfact> 0.34030572E+02</totfact>
</mgrwt>
</event>
<event>
 5    0  0.1829809E+000  0.2529483E+03  0.7546771E-02  0.1111456E+00
         21   -1    0    0  502  501  0.00000000000E+00  0.00000000000E+00  0.11024376314E+03  0.11024376314E+03  0.00000000000E+00 0. -1.
         21   -1    0    0  503  502 -0.00000000000E+00 -0.00000000000E+00 -0.18093510645E+04  0.18093510645E+04  0.00000000000E+00 0.  1.
         25    1    1    2    0    0 -0.10679525927E+03 -0.19463614642E+03 -0.65843312462E+02  0.26315166481E+03  0.12500000000E+03 0.  0.
         21    1    1    2  503  504  0.64848087849E+02  0.19221158337E+03 -0.15495960615E+04  0.15628174945E+04  0.00000000000E+00 0.  1.
         21    1    1    2  504  501  0.41947171417E+02  0.24245630531E+01 -0.83667927383E+02  0.93625668321E+02  0.00000000000E+00 0. -1.
<mgrwt>
<rscale>  4 0.25294830E+03</rscale>
<asrwt>0</asrwt>
<pdfrwt beam="1">  1       21 0.16960579E-01 0.25294830E+03</pdfrwt>
<pdfrwt beam="2">  1       21 0.27836171E+00 0.25294830E+03</pdfrwt>
<totfact> 0.13328522E+03</totfact>
</mgrwt>
</event>
<event>
 5    0  0.1829809E+000  0.2608416E+03  0.7546771E-02  0.1106639E+00
         21   -1    0    0  502  501  0.00000000000E+00  0.00000000000E+00  0.52438940769E+03  0.52438940769E+03  0.00000000000E+00 0. -1.
         21   -1    0    0  503  502 -0.00000000000E+00 -0.00000000000E+00 -0.19276414290E+03  0.19276414290E+03  0.00000000000E+00 0. -1.
         25    1    1    2    0    0  0.15145190474E+03 -0.17168476947E+03  0.39776590058E+03  0.47566380058E+03  0.12500000000E+03 0.  0.
         21    1    1    2  503  504 -0.13021628582E+02  0.24556179347E+02  0.30338185909E+01  0.27960200469E+02  0.00000000000E+00 0. -1.
         21    1    1    2  504  501 -0.13843027615E+03  0.14712859012E+03 -0.69174454385E+02  0.21352954954E+03  0.00000000000E+00 0. -1.
<mgrwt>
<rscale>  4 0.26084160E+03</rscale>
<asrwt>0</asrwt>
<pdfrwt beam="1">  1       21 0.80675293E-01 0.26084160E+03</pdfrwt>
<pdfrwt beam="2">  1       21 0.29656022E-01 0.26084160E+03</pdfrwt>
<totfact> 0.14139587E+04</totfact>
</mgrwt>
</event>
<event>
 5    0  0.1829809E+000  0.3355432E+03  0.7546771E-02  0.1068710E+00
         21   -1    0    0  502  501  0.00000000000E+00  0.00000000000E+00  0.39414273622E+03  0.39414273622E+03  0.00000000000E+00 0.  1.
         21   -1    0    0  503  502 -0.00000000000E+00 -0.00000000000E+00 -0.36690321819E+03  0.36690321819E+03  0.00000000000E+00 0.  1.
         25    1    1    2    0    0 -0.30300981043E+03  0.71758735741E+02  0.21085329127E+03  0.39629329014E+03  0.12500000000E+03 0.  0.
         21    1    1    2  503  504  0.25895604003E+03 -0.43324828641E+02 -0.15756172535E+03  0.30620412920E+03  0.00000000000E+00 0.  1.
         21    1    1    2  504  501  0.44053770404E+02 -0.28433907099E+02 -0.26052047885E+02  0.58548535070E+02  0.00000000000E+00 0. -1.
<mgrwt>
<rscale>  4 0.33554323E+03</rscale>
<asrwt>0</asrwt>
<pdfrwt beam="1">  1       21 0.60637344E-01 0.33554323E+03</pdfrwt>
<pdfrwt beam="2">  1       21 0.56446649E-01 0.33554323E+03</pdfrwt>
<totfact> 0.69008615E+03</totfact>
</mgrwt>
</event>
<event>
 5    0  0.1829809E+000  0.2392700E+03  0.7546771E-02  0.1120280E+00
         21   -1    0    0  502  501  0.00000000000E+00  0.00000000000E+00  0.90969909418E+03  0.90969909418E+03  0.00000000000E+00 0.  1.
         21   -1    0    0  503  502 -0.00000000000E+00 -0.00000000000E+00 -0.11655543592E+03  0.11655543592E+03  0.00000000000E+00 0.  1.
         25    1    1    2    0    0 -0.20390738731E+03 -0.68485075623E+01  0.75899878298E+03  0.79581987737E+03  0.12500000000E+03 0.  0.
         21    1    1    2  503  504  0.14381903494E+03 -0.35546885605E+02  0.47741241204E+02  0.15564935592E+03  0.00000000000E+00 0.  1.
         21    1    1    2  504  501  0.60088352370E+02  0.42395393167E+02 -0.13596365929E+02  0.74785296809E+02  0.00000000000E+00 0.  1.
<mgrwt>
<rscale>  4 0.23926998E+03</rscale>
<asrwt>0</asrwt>
<pdfrwt beam="1">  1       21 0.13995370E+00 0.23926998E+03</pdfrwt>
<pdfrwt beam="2">  1       21 0.17931606E-01 0.23926998E+03</pdfrwt>
<totfact> 0.98049638E+03</totfact>
</mgrwt>
</event>
<event>
 5    0  0.1829809E+000  0.2423173E+03  0.7546771E-02  0.1118259E+00
         21   -1    0    0  502  501  0.00000000000E+00  0.00000000000E+00  0.79987564835E+02  0.79987564835E+02  0.00000000000E+00 0. -1.
         21   -1    0    0  503  502 -0.00000000000E+00 -0.00000000000E+00 -0.65380197328E+03  0.65380197328E+03  0.00000000000E+00 0. -1.
         25    1    1    2    0    0  0.38685020208E+02  0.20395132234E+03 -0.33391105271E+03  0.41257031376E+03  0.12500000000E+03 0.  0.
         21    1    1    2  503  504 -0.31212174895E+02 -0.12769784489E+03 -0.11485131985E+03  0.17456163703E+03  0.00000000000E+00 0. -1.
         21    1    1    2  504  501 -0.74728453132E+01 -0.76253477455E+02 -0.12505203589E+03  0.14665758733E+03  0.00000000000E+00 0. -1.
<mgrwt>
<rscale>  4 0.24231730E+03</rscale>
<asrwt>0</asrwt>
<pdfrwt beam="1">  1       21 0.12305779E-01 0.24231730E+03</pdfrwt>
<pdfrwt beam="2">  1       21 0.10058492E+00 0.24231730E+03</pdfrwt>
<totfact> 0.44329795E+04</totfact>
</mgrwt>
</event>
<event>
 5    0  0.1829809E+000  0.3076640E+03  0.7546771E-02  0.1081471E+00
         21   -1    0    0  502  501  0.00000000000E+00  0.00000000000E+00  0.53880024768E+03  0.53880024768E+03  0.00000000000E+00 0. -1.
         21   -1    0    0  503  502 -0.00000000000E+00 -0.00000000000E+00 -0.33121294352E+03  0.33121294352E+03  0.00000000000E+00 0. -1.
         25    1    1    2    0    0 -0.27889693524E+03 -0.35335691935E+02  0.40683571968E+03  0.51007098958E+03  0.12500000000E+03 0.  0.
         21    1    1    2  503  504  0.45218636423E+02  0.42017134244E+02 -0.68027372507E+02  0.91857977663E+02  0.00000000000E+00 0.  1.
         21    1    1    2  504  501  0.23367829881E+03 -0.66814423094E+01 -0.13122104300E+03  0.26808422396E+03  0.00000000000E+00 0. -1.
<mgrwt>
<rscale>  4 0.30766396E+03</rscale>
<asrwt>0</asrwt>
<pdfrwt beam="1">  1       21 0.82892346E-01 0.30766396E+03</pdfrwt>
<pdfrwt beam="2">  1       21 0.50955837E-01 0.30766396E+03</pdfrwt>
<totfact> 0.43173376E+03</totfact>
</mgrwt>
</event>
<event>
 5    0  0.1829809E+000  0.2453065E+03  0.7546771E-02  0.1116307E+00
         21   -1    0    0  502  501  0.00000000000E+00  0.00000000000E+00  0.27929157338E+03  0.27929157338E+03  0.00000000000E+00 0. -1.
         21   -1    0    0  503  502 -0.00000000000E+00 -0.00000000000E+00 -0.19334088126E+03  0.19334088126E+03  0.00000000000E+00 0. -1.
         25    1    1    2    0    0 -0.20893305009E+03 -0.29954550933E+02  0.19269795699E+02  0.24606222703E+03  0.12500000000E+03 0.  0.
         21    1    1    2  503  504  0.18544093810E+03  0.30025852108E+02  0.74088024281E+02  0.20193793269E+03  0.00000000000E+00 0. -1.
         21    1    1    2  504  501  0.23492111997E+02 -0.71301175336E-01 -0.74071278551E+01  0.24632294920E+02  0.00000000000E+00 0. -1.
<mgrwt>
<rscale>  4 0.24530653E+03</rscale>
<asrwt>0</asrwt>
<pdfrwt beam="1">  1       21 0.42967935E-01 0.24530653E+03</pdfrwt>
<pdfrwt beam="2">  1       21 0.29744751E-01 0.24530653E+03</pdfrwt>
<totfact> 0.55151755E+04</totfact>
</mgrwt>
</event>
<event>
 5    0  0.1829809E+000  0.2964120E+03  0.7546771E-02  0.1087048E+00
         21   -1    0    0  502  501  0.00000000000E+00  0.00000000000E+00  0.15793124727E+03  0.15793124727E+03  0.00000000000E+00 0.  1.
         21   -1    0    0  503  502 -0.00000000000E+00 -0.00000000000E+00 -0.62670537052E+03  0.62670537052E+03  0.00000000000E+00 0.  1.
         25    1    1    2    0    0 -0.72314391054E+02  0.25885464284E+03 -0.76447614466E+02  0.30611163818E+03  0.12500000000E+03 0.  0.
         21    1    1    2  503  504  0.10392837193E+02 -0.19980920169E+02 -0.13029421502E+02  0.26019493854E+02  0.00000000000E+00 0.  1.
         21    1    1    2  504  501  0.61921553861E+02 -0.23887372267E+03 -0.37929708728E+03  0.45250548576E+03  0.00000000000E+00 0.  1.
<mgrwt>
<rscale>  4 0.29641204E+03</rscale>
<asrwt>0</asrwt>
<pdfrwt beam="1">  1       21 0.24297115E-01 0.29641204E+03</pdfrwt>
<pdfrwt beam="2">  1       21 0.96416212E-01 0.29641204E+03</pdfrwt>
<totfact> 0.13517596E+04</totfact>
</mgrwt>
</event>
<event>
 5    0  0.1829809E+000  0.2624586E+03  0.7546771E-02  0.1105675E+00
         21   -1    0    0  502  501  0.00000000000E+00  0.00000000000E+00  0.15434047475E+03  0.15434047475E+03  0.00000000000E+00 0. -1.
         21   -1    0    0  503  502 -0.00000000000E+00 -0.00000000000E+00 -0.42130039539E+03  0.42130039539E+03  0.00000000000E+00 0. -1.
         25    1    1    2    0    0  0.12613904669E+03 -0.19325745458E+03 -0.17452721158E+03  0.31518922956E+03  0.12500000000E+03 0.  0.
         21    1    1    2  503  504 -0.69798237084E+02  0.12326932744E+03 -0.95005220594E+02  0.17056703353E+03  0.00000000000E+00 0. -1.
         21    1    1    2  504  501 -0.56340809606E+02  0.69988127135E+02  0.25725115308E+01  0.89884607039E+02  0.00000000000E+00 0. -1.
<mgrwt>
<rscale>  4 0.26245857E+03</rscale>
<asrwt>0</asrwt>
<pdfrwt beam="1">  1       21 0.23744688E-01 0.26245857E+03</pdfrwt>
<pdfrwt beam="2">  1       21 0.64815446E-01 0.26245857E+03</pdfrwt>
<totfact> 0.35450035E+04</totfact>
</mgrwt>
</event>
<event>
 5    0  0.1829809E+000  0.3197961E+03  0.7546771E-02  0.1076623E+00
         21   -1    0    0  502  501  0.00000000000E+00  0.00000000000E+00  0.44705264734E+03  0.44705264734E+03  0.00000000000E+00 0. -1.
         21   -1    0    0  503  502 -0.00000000000E+00 -0.00000000000E+00 -0.31975283358E+03  0.31975283358E+03  0.00000000000E+00 0. -1.
         25    1    1    2    0    0  0.16635351888E+03  0.23281372663E+03  0.27357534434E+03  0.41514358189E+03  0.12500000000E+03 0.  0.
         21    1    1    2  503  504 -0.23596879778E+01 -0.12081249967E+03 -0.63576681013E+02  0.13654018665E+03  0.00000000000E+00 0. -1.
         21    1    1    2  504  501 -0.16399383090E+03 -0.11200122697E+03 -0.82698849564E+02  0.21512171238E+03  0.00000000000E+00 0. -1.
<mgrwt>
<rscale>  4 0.31789294E+03</rscale>
<asrwt>0</asrwt>
<pdfrwt beam="1">  1       21 0.68777330E-01 0.31979612E+03</pdfrwt>
<pdfrwt beam="2">  1       21 0.49192744E-01 0.31979612E+03</pdfrwt>
<totfact> 0.70561075E+03</totfact>
</mgrwt>
</event>
<event>
 5    0  0.1829809E+000  0.2446158E+03  0.7546771E-02  0.1116756E+00
         21   -1    0    0  502  501  0.00000000000E+00  0.00000000000E+00  0.15816149145E+04  0.15816149145E+04  0.00000000000E+00 0. -1.
         21   -1    0    0  503  502 -0.00000000000E+00 -0.00000000000E+00 -0.19065225565E+03  0.19065225565E+03  0.00000000000E+00 0. -1.
         25    1    1    2    0    0  0.24343093033E+02 -0.20885239052E+03  0.15071871013E+04  0.15269085976E+04  0.12500000000E+03 0.  0.
         21    1    1    2  503  504  0.59327978477E+01  0.12913274821E+03 -0.84177297592E+02  0.15426043622E+03  0.00000000000E+00 0. -1.
         21    1    1    2  504  501 -0.30275890880E+02  0.79719642308E+02 -0.32047144882E+02  0.91098136279E+02  0.00000000000E+00 0. -1.
<mgrwt>
<rscale>  4 0.24461584E+03</rscale>
<asrwt>0</asrwt>
<pdfrwt beam="1">  1       21 0.24332536E+00 0.24461584E+03</pdfrwt>
<pdfrwt beam="2">  1       21 0.29331117E-01 0.24461584E+03</pdfrwt>
<totfact> 0.76474717E+02</totfact>
</mgrwt>
</event>
<event>
 5    0  0.1829809E+000  0.3923581E+03  0.7546771E-02  0.1046458E+00
         21   -1    0    0  502  501  0.00000000000E+00  0.00000000000E+00  0.16951732617E+04  0.16951732617E+04  0.00000000000E+00 0. -1.
         21   -1    0    0  503  502 -0.00000000000E+00 -0.00000000000E+00 -0.11995615049E+03  0.11995615049E+03  0.00000000000E+00 0.  1.
         25    1    1    2    0    0  0.26983658808E+03 -0.25594554999E+03  0.12697141560E+04  0.13289540800E+04  0.12500000000E+03 0.  0.
         21    1    1    2  503  504 -0.24577757498E+03  0.21184080989E+03  0.23981799099E+03  0.40347963257E+03  0.00000000000E+00 0.  1.
         21    1    1    2  504  501 -0.24059013105E+02  0.44104740099E+02  0.65684964233E+02  0.82695699629E+02  0.00000000000E+00 0. -1.
<mgrwt>
<rscale>  4 0.39235814E+03</rscale>
<asrwt>0</asrwt>
<pdfrwt beam="1">  1       21 0.26079587E+00 0.39235814E+03</pdfrwt>
<pdfrwt beam="2">  1       21 0.18454794E-01 0.39235814E+03</pdfrwt>
<totfact> 0.13064518E+03</totfact>
</mgrwt>
</event>
<event>
 5    0  0.1829809E+000  0.3074869E+03  0.7546771E-02  0.1081557E+00
         21   -1    0    0  502  501  0.00000000000E+00  0.00000000000E+00  0.12293985612E+04  0.12293985612E+04  0.00000000000E+00 0. -1.
         21   -1    0    0  503  502 -0.00000000000E+00 -0.00000000000E+00 -0.12349346246E+03  0.12349346246E+03  0.00000000000E+00 0. -1.
         25    1    1    2    0    0 -0.29036681909E+03  0.83391753867E+02  0.90693147873E+03  0.96406264389E+03  0.12500000000E+03 0.  0.
         21    1    1    2  503  504  0.26182909152E+03 -0.88308088431E+02  0.11374495552E+03  0.29881550588E+03  0.00000000000E+00 0. -1.
         21    1    1    2  504  501  0.28537727566E+02  0.49163345641E+01  0.85228664494E+02  0.90013873884E+02  0.00000000000E+00 0.  1.
<mgrwt>
<rscale>  4 0.30748685E+03</rscale>
<asrwt>0</asrwt>
<pdfrwt beam="1">  1       21 0.18913823E+00 0.30748685E+03</pdfrwt>
<pdfrwt beam="2">  1       21 0.18998995E-01 0.30748685E+03</pdfrwt>
<totfact> 0.36831595E+03</totfact>
</mgrwt>
</event>
<event>
 5    0  0.1829809E+000  0.2537046E+03  0.7546771E-02  0.1110986E+00
         21   -1    0    0  502  501  0.00000000000E+00  0.00000000000E+00  0.49497538406E+03  0.49497538406E+03  0.00000000000E+00 0.  1.
         21   -1    0    0  503  502 -0.00000000000E+00 -0.00000000000E+00 -0.11603626658E+03  0.11603626658E+03  0.00000000000E+00 0.  1.
         25    1    1    2    0    0  0.18062203081E+03  0.12695151044E+03  0.21099026364E+03  0.32997408287E+03  0.12500000000E+03 0.  0.
         21    1    1    2  503  504 -0.13285694816E+03 -0.84480766792E+02  0.14212255699E+03  0.21210089542E+03  0.00000000000E+00 0.  1.
         21    1    1    2  504  501 -0.47765082652E+02 -0.42470743649E+02  0.25826296850E+02  0.68936672358E+02  0.00000000000E+00 0.  1.
<mgrwt>
<rscale>  4 0.25370456E+03</rscale>
<asrwt>0</asrwt>
<pdfrwt beam="1">  1       21 0.76150058E-01 0.25370456E+03</pdfrwt>
<pdfrwt beam="2">  1       21 0.17851734E-01 0.25370456E+03</pdfrwt>
<totfact> 0.42578818E+04</totfact>
</mgrwt>
</event>
<event>
 5    0  0.1829809E+000  0.2751858E+03  0.7546771E-02  0.1098348E+00
         21   -1    0    0  502  501  0.00000000000E+00  0.00000000000E+00  0.27185792358E+04  0.27185792358E+04  0.00000000000E+00 0. -1.
         21   -1    0    0  503  502 -0.00000000000E+00 -0.00000000000E+00 -0.10735188232E+03  0.10735188232E+03  0.00000000000E+00 0.  1.
         25    1    1    2    0    0  0.20077405338E+03  0.14068413330E+03  0.25551939760E+04  0.25699695525E+04  0.12500000000E+03 0.  0.
         21    1    1    2  503  504 -0.17724525133E+03 -0.14056943495E+03  0.50351331933E+02  0.23175612568E+03  0.00000000000E+00 0.  1.
         21    1    1    2  504  501 -0.23528802049E+02 -0.11469834949E+00  0.56820455786E+01  0.24205439958E+02  0.00000000000E+00 0. -1.
<mgrwt>
<rscale>  4 0.27518584E+03</rscale>
<asrwt>0</asrwt>
<pdfrwt beam="1">  1       21 0.41824291E+00 0.27518584E+03</pdfrwt>
<pdfrwt beam="2">  1       21 0.16515676E-01 0.27518584E+03</pdfrwt>
<totfact> 0.19516822E+02</totfact>
</mgrwt>
</event>
<event>
 5    0  0.1829809E+000  0.2591608E+03  0.7546771E-02  0.1107648E+00
         21   -1    0    0  502  501  0.00000000000E+00  0.00000000000E+00  0.17676672408E+03  0.17676672408E+03  0.00000000000E+00 0.  1.
         21   -1    0    0  503  502 -0.00000000000E+00 -0.00000000000E+00 -0.10199107291E+04  0.10199107291E+04  0.00000000000E+00 0.  1.
         25    1    1    2    0    0  0.30391646062E+03  0.18357927010E+03 -0.17155242387E+03  0.41366870510E+03  0.12500000000E+03 0.  0.
         21    1    1    2  503  504 -0.11868930271E+03 -0.90174057543E+02 -0.11272540060E+03  0.18688372635E+03  0.00000000000E+00 0.  1.
         21    1    1    2  504  501 -0.18522715791E+03 -0.93405212557E+02 -0.55886618058E+03  0.59612502175E+03  0.00000000000E+00 0.  1.
<mgrwt>
<rscale>  4 0.25916081E+03</rscale>
<asrwt>0</asrwt>
<pdfrwt beam="1">  1       21 0.27194881E-01 0.25916081E+03</pdfrwt>
<pdfrwt beam="2">  1       21 0.15690934E+00 0.25916081E+03</pdfrwt>
<totfact> 0.32427512E+03</totfact>
</mgrwt>
</event>
<event>
 5    0  0.1829809E+000  0.2778090E+03  0.7546771E-02  0.1096892E+00
         21   -1    0    0  502  501  0.00000000000E+00  0.00000000000E+00  0.19869605465E+03  0.19869605465E+03  0.00000000000E+00 0. -1.
         21   -1    0    0  503  502 -0.00000000000E+00 -0.00000000000E+00 -0.52881290318E+03  0.52881290318E+03  0.00000000000E+00 0. -1.
         25    1    1    2    0    0  0.44249904811E+02 -0.25084213337E+03 -0.32604034076E+02  0.28560086307E+03  0.12500000000E+03 0.  0.
         21    1    1    2  503  504 -0.30680343543E+02  0.10679675630E+02 -0.16320593948E+03  0.16640768502E+03  0.00000000000E+00 0. -1.
         21    1    1    2  504  501 -0.13569561268E+02  0.24016245774E+03 -0.13430687498E+03  0.27550040974E+03  0.00000000000E+00 0. -1.
<mgrwt>
<rscale>  4 0.27780898E+03</rscale>
<asrwt>0</asrwt>
<pdfrwt beam="1">  1       21 0.30568624E-01 0.27780898E+03</pdfrwt>
<pdfrwt beam="2">  1       21 0.81355831E-01 0.27780898E+03</pdfrwt>
<totfact> 0.12960854E+04</totfact>
</mgrwt>
</event>
<event>
 5    0  0.1829809E+000  0.2399976E+03  0.7546771E-02  0.1119794E+00
         21   -1    0    0  502  501  0.00000000000E+00  0.00000000000E+00  0.26310660616E+03  0.26310660616E+03  0.00000000000E+00 0. -1.
         21   -1    0    0  503  502 -0.00000000000E+00 -0.00000000000E+00 -0.42282419443E+03  0.42282419443E+03  0.00000000000E+00 0. -1.
         25    1    1    2    0    0  0.36142756572E+02  0.28292839974E+03  0.89470567353E+01  0.31154426340E+03  0.12500000000E+03 0.  0.
         21    1    1    2  503  504  0.28507759562E+02 -0.10790716913E+03  0.14955716247E+02  0.11260694007E+03  0.00000000000E+00 0. -1.
         21    1    1    2  504  501 -0.64650516134E+02 -0.17502123062E+03 -0.18362036125E+03  0.26177959712E+03  0.00000000000E+00 0. -1.
<mgrwt>
<rscale>  4 0.23999757E+03</rscale>
<asrwt>0</asrwt>
<pdfrwt beam="1">  1       21 0.40477939E-01 0.23999757E+03</pdfrwt>
<pdfrwt beam="2">  1       21 0.65049876E-01 0.23999757E+03</pdfrwt>
<totfact> 0.12429094E+04</totfact>
</mgrwt>
</event>
<event>
 5    0  0.1829809E+000  0.4459714E+03  0.7546771E-02  0.1028930E+00
         21   -1    0    0  502  501  0.00000000000E+00  0.00000000000E+00  0.72745962694E+03  0.72745962694E+03  0.00000000000E+00 0. -1.
         21   -1    0    0  503  502 -0.00000000000E+00 -0.00000000000E+00 -0.38939617979E+03  0.38939617979E+03  0.00000000000E+00 0. -1.
         25    1    1    2    0    0  0.29621447557E+03 -0.30892409883E+03  0.42409527662E+03  0.61535267776E+03  0.12500000000E+03 0.  0.
         21    1    1    2  503  504  0.44362729742E+02  0.43700193299E+02 -0.70448199703E+01  0.62668877228E+02  0.00000000000E+00 0.  1.
         21    1    1    2  504  501 -0.34057720531E+03  0.26522390553E+03 -0.78987009491E+02  0.43883425175E+03  0.00000000000E+00 0. -1.
<mgrwt>
<rscale>  4 0.44597139E+03</rscale>
<asrwt>0</asrwt>
<pdfrwt beam="1">  1       21 0.11191687E+00 0.44597139E+03</pdfrwt>
<pdfrwt beam="2">  1       21 0.59907105E-01 0.44597139E+03</pdfrwt>
<totfact> 0.13948015E+03</totfact>
</mgrwt>
</event>
<event>
 5    0  0.1829809E+000  0.2073324E+03  0.7546771E-02  0.1143696E+00
         21   -1    0    0  502  501  0.00000000000E+00  0.00000000000E+00  0.93653846351E+03  0.93653846351E+03  0.00000000000E+00 0. -1.
         21   -1    0    0  503  502 -0.00000000000E+00 -0.00000000000E+00 -0.78947498282E+02  0.78947498282E+02  0.00000000000E+00 0. -1.
         25    1    1    2    0    0 -0.18698429223E+03 -0.11843090179E+03  0.46959679044E+03  0.53398047683E+03  0.12500000000E+03 0.  0.
         21    1    1    2  503  504  0.71538450804E+02  0.13516331945E+03  0.13951039882E+03  0.20700247401E+03  0.00000000000E+00 0. -1.
         21    1    1    2  504  501  0.11544584143E+03 -0.16732417658E+02  0.24848377597E+03  0.27450301096E+03  0.00000000000E+00 0. -1.
<mgrwt>
<rscale>  4 0.20733244E+03</rscale>
<asrwt>0</asrwt>
<pdfrwt beam="1">  1       21 0.14408283E+00 0.20733244E+03</pdfrwt>
<pdfrwt beam="2">  1       21 0.12145770E-01 0.20733244E+03</pdfrwt>
<totfact> 0.18886420E+04</totfact>
</mgrwt>
</event>
<event>
 5    0  0.1829809E+000  0.2587486E+03  0.7546771E-02  0.1107897E+00
         21   -1    0    0  502  501  0.00000000000E+00  0.00000000000E+00  0.50780686278E+03  0.50780686278E+03  0.00000000000E+00 0.  1.
         21   -1    0    0  503  502 -0.00000000000E+00 -0.00000000000E+00 -0.17333581890E+03  0.17333581890E+03  0.00000000000E+00 0.  1.
         25    1    1    2    0    0  0.14939524341E+02 -0.22605889777E+03  0.36378626593E+03  0.44642049900E+03  0.12500000000E+03 0.  0.
         21    1    1    2  503  504  0.13758145462E+02  0.17405184826E+02 -0.99217733914E+00  0.22208364218E+02  0.00000000000E+00 0.  1.
         21    1    1    2  504  501 -0.28697669803E+02  0.20865371294E+03 -0.28323044717E+02  0.21251381846E+03  0.00000000000E+00 0.  1.
<mgrwt>
<rscale>  4 0.25874855E+03</rscale>
<asrwt>0</asrwt>
<pdfrwt beam="1">  1       21 0.78124132E-01 0.25874855E+03</pdfrwt>
<pdfrwt beam="2">  1       21 0.26667049E-01 0.25874855E+03</pdfrwt>
<totfact> 0.18729442E+04</totfact>
</mgrwt>
</event>
<event>
 5    0  0.1829809E+000  0.3280550E+03  0.7546771E-02  0.1072001E+00
         21   -1    0    0  502  501  0.00000000000E+00  0.00000000000E+00  0.52174848650E+03  0.52174848650E+03  0.00000000000E+00 0. -1.
         21   -1    0    0  503  502 -0.00000000000E+00 -0.00000000000E+00 -0.20160969770E+03  0.20160969770E+03  0.00000000000E+00 0. -1.
         25    1    1    2    0    0 -0.99974323301E+02  0.28635674915E+03  0.22421937738E+03  0.39735926099E+03  0.12500000000E+03 0.  0.
         21    1    1    2  503  504  0.61944827810E+02 -0.24639999954E+03  0.63001000780E+02  0.26176181456E+03  0.00000000000E+00 0. -1.
         21    1    1    2  504  501  0.38029495491E+02 -0.39956749613E+02  0.32918410646E+02  0.64237108640E+02  0.00000000000E+00 0.  1.
<mgrwt>
<rscale>  4 0.32805495E+03</rscale>
<asrwt>0</asrwt>
<pdfrwt beam="1">  1       21 0.80268997E-01 0.32805495E+03</pdfrwt>
<pdfrwt beam="2">  1       21 0.31016877E-01 0.32805495E+03</pdfrwt>
<totfact> 0.12708221E+04</totfact>
</mgrwt>
</event>
<event>
 5    0  0.1829809E+000  0.2895409E+03  0.7546771E-02  0.1090589E+00
         21   -1    0    0  502  501  0.00000000000E+00  0.00000000000E+00  0.12870002695E+03  0.12870002695E+03  0.00000000000E+00 0. -1.
         21   -1    0    0  503  502 -0.00000000000E+00 -0.00000000000E+00 -0.60537939722E+03  0.60537939722E+03  0.00000000000E+00 0. -1.
         25    1    1    2    0    0  0.60399112926E+02 -0.25408827428E+03 -0.25705049985E+03  0.38718065995E+03  0.12500000000E+03 0.  0.
         21    1    1    2  503  504 -0.37678577053E+02  0.20244060160E+03 -0.20027107669E+03  0.28724619493E+03  0.00000000000E+00 0. -1.
         21    1    1    2  504  501 -0.22720535873E+02  0.51647672686E+02 -0.19357793746E+02  0.59652569291E+02  0.00000000000E+00 0. -1.
<mgrwt>
<rscale>  4 0.28954085E+03</rscale>
<asrwt>0</asrwt>
<pdfrwt beam="1">  1       21 0.19800004E-01 0.28954085E+03</pdfrwt>
<pdfrwt beam="2">  1       21 0.93135294E-01 0.28954085E+03</pdfrwt>
<totfact> 0.21723986E+04</totfact>
</mgrwt>
</event>
<event>
 5    0  0.1829809E+000  0.3248973E+03  0.7546771E-02  0.1073417E+00
         21   -1    0    0  502  501  0.00000000000E+00  0.00000000000E+00  0.10838045338E+04  0.10838045338E+04  0.00000000000E+00 0. -1.
         21   -1    0    0  503  502 -0.00000000000E+00 -0.00000000000E+00 -0.91094879295E+02  0.91094879295E+02  0.00000000000E+00 0. -1.
         25    1    1    2    0    0 -0.18465060418E+03 -0.23629935296E+03  0.49021302678E+03  0.58810461778E+03  0.12500000000E+03 0.  0.
         21    1    1    2  503  504  0.19416285506E+02  0.37700392042E+02  0.98704530687E+02  0.10742856269E+03  0.00000000000E+00 0. -1.
         21    1    1    2  504  501  0.16523431867E+03  0.19859896092E+03  0.40379209700E+03  0.47936623259E+03  0.00000000000E+00 0. -1.
<mgrwt>
<rscale>  4 0.32489726E+03</rscale>
<asrwt>0</asrwt>
<pdfrwt beam="1">  1       21 0.16673915E+00 0.32489726E+03</pdfrwt>
<pdfrwt beam="2">  1       21 0.14014598E-01 0.32489726E+03</pdfrwt>
<totfact> 0.92055892E+03</totfact>
</mgrwt>
</event>
<event>
 5    0  0.1829809E+000  0.2364228E+03  0.7546771E-02  0.1122199E+00
         21   -1    0    0  502  501  0.00000000000E+00  0.00000000000E+00  0.29007651705E+03  0.29007651705E+03  0.00000000000E+00 0.  1.
         21   -1    0    0  503  502 -0.00000000000E+00 -0.00000000000E+00 -0.42914096605E+03  0.42914096605E+03  0.00000000000E+00 0.  1.
         25    1    1    2    0    0 -0.89711624037E+02  0.20029452301E+03  0.15027854855E+03  0.29389575293E+03  0.12500000000E+03 0.  0.
         21    1    1    2  503  504  0.11406449953E+02 -0.17480651202E+03 -0.65860048647E+02  0.18714959191E+03  0.00000000000E+00 0.  1.
         21    1    1    2  504  501  0.78305174084E+02 -0.25488010992E+02 -0.22348294890E+03  0.23817213826E+03  0.00000000000E+00 0. -1.
<mgrwt>
<rscale>  4 0.23642280E+03</rscale>
<asrwt>0</asrwt>
<pdfrwt beam="1">  1       21 0.44627157E-01 0.23642280E+03</pdfrwt>
<pdfrwt beam="2">  1       21 0.66021687E-01 0.23642280E+03</pdfrwt>
<totfact> 0.98718483E+03</totfact>
</mgrwt>
</event>
<event>
 5    0  0.1829809E+000  0.3104502E+03  0.7546771E-02  0.1080130E+00
         21   -1    0    0  502  501  0.00000000000E+00  0.00000000000E+00  0.45049845798E+03  0.45049845798E+03  0.00000000000E+00 0.  1.
         21   -1    0    0  503  502 -0.00000000000E+00 -0.00000000000E+00 -0.32260855989E+03  0.32260855989E+03  0.00000000000E+00 0. -1.
         25    1    1    2    0    0 -0.24459534887E+03  0.14466327609E+03  0.30267625361E+03  0.43358074524E+03  0.12500000000E+03 0.  0.
         21    1    1    2  503  504  0.57033135990E+02 -0.67222550555E+02 -0.52209260511E+02  0.10245709730E+03  0.00000000000E+00 0. -1.
         21    1    1    2  504  501  0.18756221288E+03 -0.77440725540E+02 -0.12257709501E+03  0.23706917533E+03  0.00000000000E+00 0. -1.
<mgrwt>
<rscale>  4 0.31045023E+03</rscale>
<asrwt>0</asrwt>
<pdfrwt beam="1">  1       21 0.69307456E-01 0.31045023E+03</pdfrwt>
<pdfrwt beam="2">  1       21 0.49632086E-01 0.31045023E+03</pdfrwt>
<totfact> 0.68369308E+03</totfact>
</mgrwt>
</event>
<event>
 5    0  0.1829809E+000  0.4778158E+03  0.7546771E-02  0.1019737E+00
         21   -1    0    0  502  501  0.00000000000E+00  0.00000000000E+00  0.22849002142E+04  0.22849002142E+04  0.00000000000E+00 0. -1.
         21   -1    0    0  503  502 -0.00000000000E+00 -0.00000000000E+00 -0.16145877186E+03  0.16145877186E+03  0.00000000000E+00 0. -1.
         25    1    1    2    0    0  0.15554501028E+03 -0.43415283765E+03  0.18216953908E+04  0.18833167640E+04  0.12500000000E+03 0.  0.
         21    1    1    2  503  504 -0.39342484293E+02  0.62533289430E+02  0.10053383262E+03  0.12476095086E+03  0.00000000000E+00 0.  1.
         21    1    1    2  504  501 -0.11620252598E+03  0.37161954822E+03  0.20121221893E+03  0.43828127123E+03  0.00000000000E+00 0. -1.
<mgrwt>
<rscale>  4 0.47781580E+03</rscale>
<asrwt>0</asrwt>
<pdfrwt beam="1">  1       21 0.35152309E+00 0.47781580E+03</pdfrwt>
<pdfrwt beam="2">  1       21 0.24839813E-01 0.47781580E+03</pdfrwt>
<totfact> 0.19909147E+02</totfact>
</mgrwt>
</event>
<event>
 5    0  0.1829809E+000  0.3337757E+03  0.7546771E-02  0.1069478E+00
         21   -1    0    0  502  501  0.00000000000E+00  0.00000000000E+00  0.50017757791E+03  0.50017757791E+03  0.00000000000E+00 0.  1.
         21   -1    0    0  503  502 -0.00000000000E+00 -0.00000000000E+00 -0.23187005244E+03  0.23187005244E+03  0.00000000000E+00 0.  1.
         25    1    1    2    0    0 -0.26311179376E+03 -0.16295214797E+03  0.22778058985E+03  0.40409184062E+03  0.12500000000E+03 0.  0.
         21    1    1    2  503  504  0.21052708492E+03  0.10305604278E+03 -0.81935494722E+01  0.23454069091E+03  0.00000000000E+00 0.  1.
         21    1    1    2  504  501  0.52584708840E+02  0.59896105192E+02  0.48720485086E+02  0.93415098822E+02  0.00000000000E+00 0.  1.
<mgrwt>
<rscale>  4 0.33377570E+03</rscale>
<asrwt>0</asrwt>
<pdfrwt beam="1">  1       21 0.76950396E-01 0.33377570E+03</pdfrwt>
<pdfrwt beam="2">  1       21 0.35672316E-01 0.33377570E+03</pdfrwt>
<totfact> 0.10559302E+04</totfact>
</mgrwt>
</event>
<event>
 5    0  0.1829809E+000  0.3262861E+03  0.7546771E-02  0.1072792E+00
         21   -1    0    0  502  501  0.00000000000E+00  0.00000000000E+00  0.25641345704E+03  0.25641345704E+03  0.00000000000E+00 0. -1.
         21   -1    0    0  503  502 -0.00000000000E+00 -0.00000000000E+00 -0.62818097672E+03  0.62818097672E+03  0.00000000000E+00 0. -1.
         25    1    1    2    0    0  0.99353723390E+02 -0.28454609759E+03  0.80210671970E+02  0.33600058914E+03  0.12500000000E+03 0.  0.
         21    1    1    2  503  504  0.65763480932E+01  0.39194054294E+02 -0.92374563972E+02  0.10056083888E+03  0.00000000000E+00 0. -1.
         21    1    1    2  504  501 -0.10593007148E+03  0.24535204330E+03 -0.35960362768E+03  0.44803300574E+03  0.00000000000E+00 0. -1.
<mgrwt>
<rscale>  4 0.32628614E+03</rscale>
<asrwt>0</asrwt>
<pdfrwt beam="1">  1       21 0.39448225E-01 0.32628614E+03</pdfrwt>
<pdfrwt beam="2">  1       21 0.96643225E-01 0.32628614E+03</pdfrwt>
<totfact> 0.50811587E+03</totfact>
</mgrwt>
</event>
<event>
 5    0  0.1829809E+000  0.3227151E+03  0.7546771E-02  0.1074406E+00
         21   -1    0    0  502  501  0.00000000000E+00  0.00000000000E+00  0.13966777663E+03  0.13966777663E+03  0.00000000000E+00 0. -1.
         21   -1    0    0  503  502 -0.00000000000E+00 -0.00000000000E+00 -0.13700708774E+04  0.13700708774E+04  0.00000000000E+00 0. -1.
         25    1    1    2    0    0  0.94747766680E+02  0.28448301300E+03 -0.10498724489E+03  0.34140158987E+03  0.12500000000E+03 0.  0.
         21    1    1    2  503  504  0.11285467599E+02 -0.17213602256E+02 -0.15058275128E+03  0.15198300848E+03  0.00000000000E+00 0. -1.
         21    1    1    2  504  501 -0.10603323428E+03 -0.26726941074E+03 -0.97483310465E+03  0.10163540557E+04  0.00000000000E+00 0. -1.
<mgrwt>
<rscale>  4 0.32271506E+03</rscale>
<asrwt>0</asrwt>
<pdfrwt beam="1">  1       21 0.21487351E-01 0.32271506E+03</pdfrwt>
<pdfrwt beam="2">  1       21 0.21078013E+00 0.32271506E+03</pdfrwt>
<totfact> 0.20838351E+03</totfact>
</mgrwt>
</event>
<event>
 5    0  0.1829809E+000  0.2055791E+03  0.7546771E-02  0.1145116E+00
         21   -1    0    0  502  501  0.00000000000E+00  0.00000000000E+00  0.36154036165E+03  0.36154036165E+03  0.00000000000E+00 0. -1.
         21   -1    0    0  503  502 -0.00000000000E+00 -0.00000000000E+00 -0.19922172629E+03  0.19922172629E+03  0.00000000000E+00 0. -1.
         25    1    1    2    0    0  0.46483451818E+02  0.20874485751E+03  0.19299521795E+03  0.31401796284E+03  0.12500000000E+03 0.  0.
         21    1    1    2  503  504  0.72776139669E+01 -0.15369189926E+03 -0.58943353373E+02  0.16476796555E+03  0.00000000000E+00 0. -1.
         21    1    1    2  504  501 -0.53761065785E+02 -0.55052958253E+02  0.28266770778E+02  0.81976159565E+02  0.00000000000E+00 0. -1.
<mgrwt>
<rscale>  4 0.20557906E+03</rscale>
<asrwt>0</asrwt>
<pdfrwt beam="1">  1       21 0.55621594E-01 0.20557906E+03</pdfrwt>
<pdfrwt beam="2">  1       21 0.30649496E-01 0.20557906E+03</pdfrwt>
<totfact> 0.30909178E+04</totfact>
</mgrwt>
</event>
<event>
 5    0  0.1829809E+000  0.2512503E+03  0.7546771E-02  0.1112517E+00
         21   -1    0    0  502  501  0.00000000000E+00  0.00000000000E+00  0.13095081302E+03  0.13095081302E+03  0.00000000000E+00 0. -1.
         21   -1    0    0  503  502 -0.00000000000E+00 -0.00000000000E+00 -0.56401172886E+03  0.56401172886E+03  0.00000000000E+00 0. -1.
         25    1    1    2    0    0 -0.21856837786E+03  0.97541156622E+02 -0.19221986273E+03  0.33145118594E+03  0.12500000000E+03 0.  0.
         21    1    1    2  503  504  0.38269995692E+02 -0.29132858222E+01 -0.12166953471E+03  0.12757960448E+03  0.00000000000E+00 0. -1.
         21    1    1    2  504  501  0.18029838216E+03 -0.94627870800E+02 -0.11917151841E+03  0.23593175145E+03  0.00000000000E+00 0. -1.
<mgrwt>
<rscale>  4 0.25125031E+03</rscale>
<asrwt>0</asrwt>
<pdfrwt beam="1">  1       21 0.20146279E-01 0.25125031E+03</pdfrwt>
<pdfrwt beam="2">  1       21 0.86771035E-01 0.25125031E+03</pdfrwt>
<totfact> 0.25230181E+04</totfact>
</mgrwt>
</event>
<event>
 5    0  0.1829809E+000  0.2696810E+03  0.7546771E-02  0.1101462E+00
         21   -1    0    0  502  501  0.00000000000E+00  0.00000000000E+00  0.50734587238E+03  0.50734587238E+03  0.00000000000E+00 0.  1.
         21   -1    0    0  503  502 -0.00000000000E+00 -0.00000000000E+00 -0.37456061007E+03  0.37456061007E+03  0.00000000000E+00 0. -1.
         25    1    1    2    0    0 -0.52355598608E+02 -0.25595634442E+03  0.34810163308E+03  0.45282944461E+03  0.12500000000E+03 0.  0.
         21    1    1    2  503  504  0.11822761090E+03  0.10719266183E+03 -0.47993189207E+00  0.15958779736E+03  0.00000000000E+00 0. -1.
         21    1    1    2  504  501 -0.65872012295E+02  0.14876368258E+03 -0.21483643889E+03  0.26948924048E+03  0.00000000000E+00 0. -1.
<mgrwt>
<rscale>  4 0.26968105E+03</rscale>
<asrwt>0</asrwt>
<pdfrwt beam="1">  1       21 0.78053212E-01 0.26968105E+03</pdfrwt>
<pdfrwt beam="2">  1       21 0.57624709E-01 0.26968105E+03</pdfrwt>
<totfact> 0.38913824E+03</totfact>
</mgrwt>
</event>
<event>
 5    0  0.1829809E+000  0.2804226E+03  0.7546771E-02  0.1095458E+00
         21   -1    0    0  502  501  0.00000000000E+00  0.00000000000E+00  0.56572864777E+02  0.56572864777E+02  0.00000000000E+00 0.  1.
         21   -1    0    0  503  502 -0.00000000000E+00 -0.00000000000E+00 -0.18588255384E+04  0.18588255384E+04  0.00000000000E+00 0. -1.
         25    1    1    2    0    0 -0.18906377761E+03 -0.16512641393E+03 -0.38898247021E+03  0.47952498028E+03  0.12500000000E+03 0.  0.
         21    1    1    2  503  504  0.17212794410E+03  0.13332259600E+03 -0.12183287672E+04  0.12376299643E+04  0.00000000000E+00 0. -1.
         21    1    1    2  504  501  0.16935833515E+02  0.31803817932E+02 -0.19494143629E+03  0.19824345859E+03  0.00000000000E+00 0.  1.
<mgrwt>
<rscale>  4 0.28042262E+03</rscale>
<asrwt>0</asrwt>
<pdfrwt beam="1">  1       21 0.87035171E-02 0.28042262E+03</pdfrwt>
<pdfrwt beam="2">  1       21 0.28597318E+00 0.28042262E+03</pdfrwt>
<totfact> 0.39154801E+03</totfact>
</mgrwt>
</event>
<event>
 5    0  0.1829809E+000  0.3979300E+03  0.7546771E-02  0.1044499E+00
         21   -1    0    0  502  501  0.00000000000E+00  0.00000000000E+00  0.71493757057E+03  0.71493757057E+03  0.00000000000E+00 0.  1.
         21   -1    0    0  503  502 -0.00000000000E+00 -0.00000000000E+00 -0.27888750207E+03  0.27888750207E+03  0.00000000000E+00 0.  1.
         25    1    1    2    0    0 -0.62846882327E+01  0.40536083139E+03  0.36931259667E+03  0.56247106147E+03  0.12500000000E+03 0.  0.
         21    1    1    2  503  504  0.18560054035E+02 -0.39084908188E+02  0.47668108270E+02  0.64376658813E+02  0.00000000000E+00 0. -1.
         21    1    1    2  504  501 -0.12275365802E+02 -0.36627592320E+03  0.19069363559E+02  0.36697735236E+03  0.00000000000E+00 0.  1.
<mgrwt>
<rscale>  4 0.39793004E+03</rscale>
<asrwt>0</asrwt>
<pdfrwt beam="1">  1       21 0.10999039E+00 0.39793004E+03</pdfrwt>
<pdfrwt beam="2">  1       21 0.42905770E-01 0.39793004E+03</pdfrwt>
<totfact> 0.30231522E+03</totfact>
</mgrwt>
</event>
<event>
 5    0  0.1829809E+000  0.3128646E+03  0.7546771E-02  0.1078981E+00
         21   -1    0    0  502  501  0.00000000000E+00  0.00000000000E+00  0.13158168707E+03  0.13158168707E+03  0.00000000000E+00 0.  1.
         21   -1    0    0  503  502 -0.00000000000E+00 -0.00000000000E+00 -0.89319353673E+03  0.89319353673E+03  0.00000000000E+00 0.  1.
         25    1    1    2    0    0 -0.21587191189E+03  0.17016091999E+03 -0.19260860099E+03  0.35815987241E+03  0.12500000000E+03 0.  0.
         21    1    1    2  503  504 -0.25804178014E+02  0.23500630688E+02 -0.86466074594E+02  0.93244395550E+02  0.00000000000E+00 0. -1.
         21    1    1    2  504  501  0.24167608990E+03 -0.19366155068E+03 -0.48253717407E+03  0.57337095584E+03  0.00000000000E+00 0.  1.
<mgrwt>
<rscale>  4 0.31286461E+03</rscale>
<asrwt>0</asrwt>
<pdfrwt beam="1">  1       21 0.20243337E-01 0.31286461E+03</pdfrwt>
<pdfrwt beam="2">  1       21 0.13741439E+00 0.31286461E+03</pdfrwt>
<totfact> 0.78720722E+03</totfact>
</mgrwt>
</event>
<event>
 5    0  0.1829809E+000  0.2442547E+03  0.7546771E-02  0.1116991E+00
         21   -1    0    0  502  501  0.00000000000E+00  0.00000000000E+00  0.27292173800E+04  0.27292173800E+04  0.00000000000E+00 0.  1.
         21   -1    0    0  503  502 -0.00000000000E+00 -0.00000000000E+00 -0.71626081610E+02  0.71626081610E+02  0.00000000000E+00 0.  1.
         25    1    1    2    0    0  0.24245410609E+03  0.41474307348E+02  0.24011056357E+04  0.24169065736E+04  0.12500000000E+03 0.  0.
         21    1    1    2  503  504 -0.37499509757E+02 -0.10955969792E+02  0.14183995363E+03  0.14712178272E+03  0.00000000000E+00 0. -1.
         21    1    1    2  504  501 -0.20495459633E+03 -0.30518337557E+02  0.11464570906E+03  0.23681510528E+03  0.00000000000E+00 0.  1.
<mgrwt>
<rscale>  4 0.24425466E+03</rscale>
<asrwt>0</asrwt>
<pdfrwt beam="1">  1       21 0.41987952E+00 0.24425466E+03</pdfrwt>
<pdfrwt beam="2">  1       21 0.11019399E-01 0.24425466E+03</pdfrwt>
<totfact> 0.41331521E+02</totfact>
</mgrwt>
</event>
<event>
 5    0  0.1829809E+000  0.2352854E+03  0.7546771E-02  0.1122974E+00
         21   -1    0    0  502  501  0.00000000000E+00  0.00000000000E+00  0.12270654550E+03  0.12270654550E+03  0.00000000000E+00 0.  1.
         21   -1    0    0  503  502 -0.00000000000E+00 -0.00000000000E+00 -0.78685618676E+03  0.78685618676E+03  0.00000000000E+00 0. -1.
         25    1    1    2    0    0 -0.13838419555E+03 -0.19393123872E+03 -0.12385325109E+03  0.29618261045E+03  0.12500000000E+03 0.  0.
         21    1    1    2  503  504  0.13263533084E+03  0.59087278492E+02 -0.35986901443E+03  0.38805817220E+03  0.00000000000E+00 0. -1.
         21    1    1    2  504  501  0.57488647026E+01  0.13484396023E+03 -0.18042737575E+03  0.22532194961E+03  0.00000000000E+00 0. -1.
<mgrwt>
<rscale>  4 0.23528539E+03</rscale>
<asrwt>0</asrwt>
<pdfrwt beam="1">  1       21 0.18877930E-01 0.23528539E+03</pdfrwt>
<pdfrwt beam="2">  1       21 0.12105480E+00 0.23528539E+03</pdfrwt>
<totfact> 0.12920738E+04</totfact>
</mgrwt>
</event>
<event>
 5    0  0.1829809E+000  0.2581098E+03  0.7546771E-02  0.1108284E+00
         21   -1    0    0  502  501  0.00000000000E+00  0.00000000000E+00  0.38506246510E+03  0.38506246510E+03  0.00000000000E+00 0.  1.
         21   -1    0    0  503  502 -0.00000000000E+00 -0.00000000000E+00 -0.14598434628E+04  0.14598434628E+04  0.00000000000E+00 0. -1.
         25    1    1    2    0    0 -0.18485020519E+03 -0.12971541976E+03  0.33053630962E+03  0.41937446329E+03  0.12500000000E+03 0.  0.
         21    1    1    2  503  504  0.15452456973E+03  0.13701527563E+03 -0.11602069537E+04  0.11784444000E+04  0.00000000000E+00 0. -1.
         21    1    1    2  504  501  0.30325635466E+02 -0.72998558688E+01 -0.24511035358E+03  0.24708706460E+03  0.00000000000E+00 0.  1.
<mgrwt>
<rscale>  4 0.25810984E+03</rscale>
<asrwt>0</asrwt>
<pdfrwt beam="1">  1       21 0.59240379E-01 0.25810984E+03</pdfrwt>
<pdfrwt beam="2">  1       21 0.22459130E+00 0.25810984E+03</pdfrwt>
<totfact> 0.23243434E+02</totfact>
</mgrwt>
</event>
<event>
 5    0  0.1829809E+000  0.3425580E+03  0.7546771E-02  0.1065712E+00
         21   -1    0    0  502  501  0.00000000000E+00  0.00000000000E+00  0.21802189342E+04  0.21802189342E+04  0.00000000000E+00 0.  1.
         21   -1    0    0  503  502 -0.00000000000E+00 -0.00000000000E+00 -0.14097712222E+03  0.14097712222E+03  0.00000000000E+00 0. -1.
         25    1    1    2    0    0 -0.60400000810E+02  0.31011645891E+03  0.18567164519E+04  0.18875490354E+04  0.12500000000E+03 0.  0.
         21    1    1    2  503  504 -0.47384374917E+02  0.14144338223E+02  0.84864135217E+01  0.50173304700E+02  0.00000000000E+00 0.  1.
         21    1    1    2  504  501  0.10778437573E+03 -0.32426079713E+03  0.17403894657E+03  0.38347371635E+03  0.00000000000E+00 0. -1.
<mgrwt>
<rscale>  4 0.34255798E+03</rscale>
<asrwt>0</asrwt>
<pdfrwt beam="1">  1       21 0.33541827E+00 0.34255798E+03</pdfrwt>
<pdfrwt beam="2">  1       21 0.21688790E-01 0.34255798E+03</pdfrwt>
<totfact> 0.35646943E+02</totfact>
</mgrwt>
</event>
<event>
 5    0  0.1829809E+000  0.2413116E+03  0.7546771E-02  0.1118922E+00
         21   -1    0    0  502  501  0.00000000000E+00  0.00000000000E+00  0.16268524982E+03  0.16268524982E+03  0.00000000000E+00 0. -1.
         21   -1    0    0  503  502 -0.00000000000E+00 -0.00000000000E+00 -0.12447218471E+04  0.12447218471E+04  0.00000000000E+00 0.  1.
         25    1    1    2    0    0  0.19928924451E+03 -0.53759437603E+02  0.56501928111E+02  0.24783814877E+03  0.12500000000E+03 0.  0.
         21    1    1    2  503  504 -0.47169635979E+02 -0.10408604470E+02 -0.15769500759E+03  0.16492734469E+03  0.00000000000E+00 0. -1.
         21    1    1    2  504  501 -0.15211960853E+03  0.64168042073E+02 -0.98084351778E+03  0.99464160344E+03  0.00000000000E+00 0.  1.
<mgrwt>
<rscale>  4 0.24131158E+03</rscale>
<asrwt>0</asrwt>
<pdfrwt beam="1">  1       21 0.25028501E-01 0.24131158E+03</pdfrwt>
<pdfrwt beam="2">  1       21 0.19149566E+00 0.24131158E+03</pdfrwt>
<totfact> 0.22035638E+03</totfact>
</mgrwt>
</event>
<event>
 5    0  0.1829809E+000  0.5032069E+03  0.7546771E-02  0.1012945E+00
         21   -1    0    0  502  501  0.00000000000E+00  0.00000000000E+00  0.20576381112E+04  0.20576381112E+04  0.00000000000E+00 0. -1.
         21   -1    0    0  503  502 -0.00000000000E+00 -0.00000000000E+00 -0.17267037841E+03  0.17267037841E+03  0.00000000000E+00 0. -1.
         25    1    1    2    0    0 -0.48729196393E+03  0.11780028368E+02  0.15560952750E+04  0.16354356398E+04  0.12500000000E+03 0.  0.
         21    1    1    2  503  504  0.70047332782E+02 -0.26136538590E+02  0.76813452932E+02  0.10719166960E+03  0.00000000000E+00 0.  1.
         21    1    1    2  504  501  0.41724463115E+03  0.14356510221E+02  0.25205900494E+03  0.48768118026E+03  0.00000000000E+00 0. -1.
<mgrwt>
<rscale>  4 0.50320694E+03</rscale>
<asrwt>0</asrwt>
<pdfrwt beam="1">  1       21 0.31655969E+00 0.50320694E+03</pdfrwt>
<pdfrwt beam="2">  1       21 0.26564675E-01 0.50320694E+03</pdfrwt>
<totfact> 0.28121013E+02</totfact>
</mgrwt>
</event>
<event>
 5    0  0.1829809E+000  0.2529815E+03  0.7546771E-02  0.1111435E+00
         21   -1    0    0  502  501  0.00000000000E+00  0.00000000000E+00  0.83568074853E+03  0.83568074853E+03  0.00000000000E+00 0.  1.
         21   -1    0    0  503  502 -0.00000000000E+00 -0.00000000000E+00 -0.73804365259E+02  0.73804365259E+02  0.00000000000E+00 0.  1.
         25    1    1    2    0    0  0.17868823133E+03  0.12823872784E+03  0.27237248736E+03  0.37173435032E+03  0.12500000000E+03 0.  0.
         21    1    1    2  503  504 -0.16104897856E+03 -0.10113063076E+03  0.42425042913E+03  0.46492214895E+03  0.00000000000E+00 0.  1.
         21    1    1    2  504  501 -0.17639252775E+02 -0.27108097076E+02  0.65253466777E+02  0.72828614514E+02  0.00000000000E+00 0. -1.
<mgrwt>
<rscale>  4 0.25298153E+03</rscale>
<asrwt>0</asrwt>
<pdfrwt beam="1">  1       21 0.12856626E+00 0.25298153E+03</pdfrwt>
<pdfrwt beam="2">  1       21 0.11354518E-01 0.25298153E+03</pdfrwt>
<totfact> 0.27852459E+04</totfact>
</mgrwt>
</event>
<event>
 5    0  0.1829809E+000  0.2385448E+03  0.7546771E-02  0.1120766E+00
         21   -1    0    0  502  501  0.00000000000E+00  0.00000000000E+00  0.95185054538E+03  0.95185054538E+03  0.00000000000E+00 0.  1.
         21   -1    0    0  503  502 -0.00000000000E+00 -0.00000000000E+00 -0.55077223584E+02  0.55077223584E+02  0.00000000000E+00 0.  1.
         25    1    1    2    0    0 -0.14147078543E+03 -0.14582404897E+03  0.46032449498E+03  0.51846145187E+03  0.12500000000E+03 0.  0.
         21    1    1    2  503  504  0.44165231680E+02  0.76928842929E+02  0.11244163956E+03  0.14321919170E+03  0.00000000000E+00 0.  1.
         21    1    1    2  504  501  0.97305553748E+02  0.68895206043E+02  0.32400718726E+03  0.34524712540E+03  0.00000000000E+00 0.  1.
<mgrwt>
<rscale>  4 0.23854483E+03</rscale>
<asrwt>0</asrwt>
<pdfrwt beam="1">  1       21 0.14643853E+00 0.23854483E+03</pdfrwt>
<pdfrwt beam="2">  1       21 0.84734197E-02 0.23854483E+03</pdfrwt>
<totfact> 0.33669326E+04</totfact>
</mgrwt>
</event>
<event>
 5    0  0.1829809E+000  0.3678539E+03  0.7546771E-02  0.1055517E+00
         21   -1    0    0  502  501  0.00000000000E+00  0.00000000000E+00  0.91476029968E+03  0.91476029968E+03  0.00000000000E+00 0. -1.
         21   -1    0    0  503  502 -0.00000000000E+00 -0.00000000000E+00 -0.67211645145E+03  0.67211645145E+03  0.00000000000E+00 0. -1.
         25    1    1    2    0    0 -0.22543661171E+03 -0.28178125536E+03 -0.48948666208E+03  0.62084179477E+03  0.12500000000E+03 0.  0.
         21    1    1    2  503  504  0.25267711436E+03  0.36706211225E+02  0.66221023377E+03  0.70972914818E+03  0.00000000000E+00 0. -1.
         21    1    1    2  504  501 -0.27240502649E+02  0.24507504413E+03  0.69920276540E+02  0.25630580819E+03  0.00000000000E+00 0. -1.
<mgrwt>
<rscale>  4 0.36785392E+03</rscale>
<asrwt>0</asrwt>
<pdfrwt beam="1">  1       21 0.14073235E+00 0.36785392E+03</pdfrwt>
<pdfrwt beam="2">  1       21 0.10340253E+00 0.36785392E+03</pdfrwt>
<totfact> 0.22949992E+02</totfact>
</mgrwt>
</event>
<event>
 5    0  0.1829809E+000  0.2994302E+03  0.7546771E-02  0.1085526E+00
         21   -1    0    0  502  501  0.00000000000E+00  0.00000000000E+00  0.26430349870E+03  0.26430349870E+03  0.00000000000E+00 0. -1.
         21   -1    0    0  503  502 -0.00000000000E+00 -0.00000000000E+00 -0.60337052966E+03  0.60337052966E+03  0.00000000000E+00 0.  1.
         25    1    1    2    0    0  0.59125160725E+02  0.26558928071E+03  0.11755321712E+03  0.32167873650E+03  0.12500000000E+03 0.  0.
         21    1    1    2  503  504 -0.67673107395E+02 -0.12827037958E+03 -0.32364211184E+03  0.35465075257E+03  0.00000000000E+00 0.  1.
         21    1    1    2  504  501  0.85479466701E+01 -0.13731890114E+03 -0.13297813624E+03  0.19134453930E+03  0.00000000000E+00 0.  1.
<mgrwt>
<rscale>  4 0.29943021E+03</rscale>
<asrwt>0</asrwt>
<pdfrwt beam="1">  1       21 0.40662077E-01 0.29943021E+03</pdfrwt>
<pdfrwt beam="2">  1       21 0.92826236E-01 0.29943021E+03</pdfrwt>
<totfact> 0.53243610E+03</totfact>
</mgrwt>
</event>
<event>
 5    0  0.1829809E+000  0.2455741E+03  0.7546771E-02  0.1116134E+00
         21   -1    0    0  502  501  0.00000000000E+00  0.00000000000E+00  0.11634955565E+04  0.11634955565E+04  0.00000000000E+00 0.  1.
         21   -1    0    0  503  502 -0.00000000000E+00 -0.00000000000E+00 -0.53015431260E+02  0.53015431260E+02  0.00000000000E+00 0.  1.
         25    1    1    2    0    0  0.36978217134E+02  0.20812071353E+03  0.81190141232E+03  0.84822787225E+03  0.12500000000E+03 0.  0.
         21    1    1    2  503  504 -0.28125203963E+02 -0.16581690732E+03  0.20468264750E+03  0.26491745892E+03  0.00000000000E+00 0.  1.
         21    1    1    2  504  501 -0.88530131702E+01 -0.42303806210E+02  0.93896065452E+02  0.10336565662E+03  0.00000000000E+00 0. -1.
<mgrwt>
<rscale>  4 0.24557406E+03</rscale>
<asrwt>0</asrwt>
<pdfrwt beam="1">  1       21 0.17899930E+00 0.24557406E+03</pdfrwt>
<pdfrwt beam="2">  1       21 0.81562211E-02 0.24557406E+03</pdfrwt>
<totfact> 0.20716241E+04</totfact>
</mgrwt>
</event>
<event>
 5    0  0.1829809E+000  0.2582175E+03  0.7546771E-02  0.1108219E+00
         21   -1    0    0  502  501  0.00000000000E+00  0.00000000000E+00  0.29280758257E+03  0.29280758257E+03  0.00000000000E+00 0. -1.
         21   -1    0    0  503  502 -0.00000000000E+00 -0.00000000000E+00 -0.21683934289E+03  0.21683934289E+03  0.00000000000E+00 0. -1.
         25    1    1    2    0    0  0.28228598395E+02  0.22417495885E+03 -0.80548364464E+01  0.25834307874E+03  0.12500000000E+03 0.  0.
         21    1    1    2  503  504 -0.40039939809E+02 -0.15880808714E+03  0.31867453901E+02  0.16684945292E+03  0.00000000000E+00 0. -1.
         21    1    1    2  504  501  0.11811341414E+02 -0.65366871711E+02  0.52155622224E+02  0.84454393804E+02  0.00000000000E+00 0.  1.
<mgrwt>
<rscale>  4 0.25821748E+03</rscale>
<asrwt>0</asrwt>
<pdfrwt beam="1">  1       21 0.45047320E-01 0.25821748E+03</pdfrwt>
<pdfrwt beam="2">  1       21 0.33359899E-01 0.25821748E+03</pdfrwt>
<totfact> 0.39698564E+04</totfact>
</mgrwt>
</event>
<event>
 5    0  0.1829809E+000  0.3123687E+03  0.7546771E-02  0.1079216E+00
         21   -1    0    0  502  501  0.00000000000E+00  0.00000000000E+00  0.30305871303E+03  0.30305871303E+03  0.00000000000E+00 0.  1.
         21   -1    0    0  503  502 -0.00000000000E+00 -0.00000000000E+00 -0.35656750406E+03  0.35656750406E+03  0.00000000000E+00 0.  1.
         25    1    1    2    0    0  0.12610137441E+03 -0.25699733342E+03  0.90102301480E+02  0.32510399989E+03  0.12500000000E+03 0.  0.
         21    1    1    2  503  504 -0.67557705226E+02  0.42736367137E+02 -0.34800250594E+02  0.87186570370E+02  0.00000000000E+00 0.  1.
         21    1    1    2  504  501 -0.58543669184E+02  0.21426096628E+03 -0.10881084192E+03  0.24733564683E+03  0.00000000000E+00 0.  1.
<mgrwt>
<rscale>  4 0.31236867E+03</rscale>
<asrwt>0</asrwt>
<pdfrwt beam="1">  1       21 0.46624417E-01 0.31236867E+03</pdfrwt>
<pdfrwt beam="2">  1       21 0.54856539E-01 0.31236867E+03</pdfrwt>
<totfact> 0.12976891E+04</totfact>
</mgrwt>
</event>
<event>
 5    0  0.1829809E+000  0.2183446E+03  0.7546771E-02  0.1135123E+00
         21   -1    0    0  502  501  0.00000000000E+00  0.00000000000E+00  0.21122377169E+04  0.21122377169E+04  0.00000000000E+00 0.  1.
         21   -1    0    0  503  502 -0.00000000000E+00 -0.00000000000E+00 -0.25636054811E+02  0.25636054811E+02  0.00000000000E+00 0.  1.
         25    1    1    2    0    0  0.20274197272E+03  0.64105924537E+01  0.11107428583E+04  0.11360106076E+04  0.12500000000E+03 0.  0.
         21    1    1    2  503  504 -0.43810372068E+02  0.38458857817E+02  0.18586853830E+03  0.19479616520E+03  0.00000000000E+00 0.  1.
         21    1    1    2  504  501 -0.15893160066E+03 -0.44869450271E+02  0.78999026551E+03  0.80706699899E+03  0.00000000000E+00 0.  1.
<mgrwt>
<rscale>  4 0.21834463E+03</rscale>
<asrwt>0</asrwt>
<pdfrwt beam="1">  1       21 0.32495951E+00 0.21834463E+03</pdfrwt>
<pdfrwt beam="2">  1       21 0.39440101E-02 0.21834463E+03</pdfrwt>
<totfact> 0.95591159E+03</totfact>
</mgrwt>
</event>
<event>
 5    0  0.1829809E+000  0.2568425E+03  0.7546771E-02  0.1109055E+00
         21   -1    0    0  502  501  0.00000000000E+00  0.00000000000E+00  0.63174007934E+02  0.63174007934E+02  0.00000000000E+00 0.  1.
         21   -1    0    0  503  502 -0.00000000000E+00 -0.00000000000E+00 -0.10523858565E+04  0.10523858565E+04  0.00000000000E+00 0.  1.
         25    1    1    2    0    0 -0.73964936702E+02 -0.21183072530E+03 -0.33442405417E+03  0.42167228514E+03  0.12500000000E+03 0.  0.
         21    1    1    2  503  504  0.21385548053E+02  0.15868939474E+02 -0.69236310917E+02  0.74181073428E+02  0.00000000000E+00 0.  1.
         21    1    1    2  504  501  0.52579388650E+02  0.19596178583E+03 -0.58555148349E+03  0.61970650588E+03  0.00000000000E+00 0.  1.
<mgrwt>
<rscale>  4 0.25684250E+03</rscale>
<asrwt>0</asrwt>
<pdfrwt beam="1">  1       21 0.97190788E-02 0.25684250E+03</pdfrwt>
<pdfrwt beam="2">  1       21 0.16190551E+00 0.25684250E+03</pdfrwt>
<totfact> 0.19992272E+04</totfact>
</mgrwt>
</event>
<event>
 5    0  0.1829809E+000  0.5175954E+03  0.7546771E-02  0.1009286E+00
         21   -1    0    0  502  501  0.00000000000E+00  0.00000000000E+00  0.15307613178E+04  0.15307613178E+04  0.00000000000E+00 0.  1.
         21   -1    0    0  503  502 -0.00000000000E+00 -0.00000000000E+00 -0.22456162438E+03  0.22456162438E+03  0.00000000000E+00 0.  1.
         25    1    1    2    0    0 -0.25415337777E+03  0.43322754305E+03  0.10689242097E+04  0.11876464161E+04  0.12500000000E+03 0.  0.
         21    1    1    2  503  504  0.32069686997E+02 -0.32903480636E+02  0.62672116556E+02  0.77710347159E+02  0.00000000000E+00 0.  1.
         21    1    1    2  504  501  0.22208369078E+03 -0.40032406241E+03  0.17460336708E+03  0.48996617888E+03  0.00000000000E+00 0.  1.
<mgrwt>
<rscale>  4 0.51759544E+03</rscale>
<asrwt>0</asrwt>
<pdfrwt beam="1">  1       21 0.23550174E+00 0.51759544E+03</pdfrwt>
<pdfrwt beam="2">  1       21 0.34547943E-01 0.51759544E+03</pdfrwt>
<totfact> 0.51671347E+02</totfact>
</mgrwt>
</event>
<event>
 5    0  0.1829809E+000  0.2445865E+03  0.7546771E-02  0.1116775E+00
         21   -1    0    0  502  501  0.00000000000E+00  0.00000000000E+00  0.10512871690E+04  0.10512871690E+04  0.00000000000E+00 0. -1.
         21   -1    0    0  503  502 -0.00000000000E+00 -0.00000000000E+00 -0.60158604844E+02  0.60158604844E+02  0.00000000000E+00 0. -1.
         25    1    1    2    0    0  0.53462050773E+01 -0.21016417589E+03  0.74012480815E+03  0.77949168974E+03  0.12500000000E+03 0.  0.
         21    1    1    2  503  504 -0.14120624125E+02  0.42070673666E+02  0.83095542634E+02  0.94202987288E+02  0.00000000000E+00 0. -1.
         21    1    1    2  504  501  0.87744190478E+01  0.16809350222E+03  0.16790821336E+03  0.23775109681E+03  0.00000000000E+00 0. -1.
<mgrwt>
<rscale>  4 0.24458651E+03</rscale>
<asrwt>0</asrwt>
<pdfrwt beam="1">  1       21 0.16173647E+00 0.24458651E+03</pdfrwt>
<pdfrwt beam="2">  1       21 0.92551708E-02 0.24458651E+03</pdfrwt>
<totfact> 0.22010037E+04</totfact>
</mgrwt>
</event>
<event>
 5    0  0.1829809E+000  0.2527608E+03  0.7546771E-02  0.1111572E+00
         21   -1    0    0  502  501  0.00000000000E+00  0.00000000000E+00  0.76133644973E+03  0.76133644973E+03  0.00000000000E+00 0.  1.
         21   -1    0    0  503  502 -0.00000000000E+00 -0.00000000000E+00 -0.12311952993E+03  0.12311952993E+03  0.00000000000E+00 0. -1.
         25    1    1    2    0    0  0.85980634559E+02  0.19661709095E+03  0.39593664752E+03  0.46737755489E+03  0.12500000000E+03 0.  0.
         21    1    1    2  503  504 -0.87322754809E+02  0.44741761477E+02  0.71583400643E+02  0.12145481454E+03  0.00000000000E+00 0. -1.
         21    1    1    2  504  501  0.13421202499E+01 -0.24135885242E+03  0.17069687164E+03  0.29562361022E+03  0.00000000000E+00 0. -1.
<mgrwt>
<rscale>  4 0.25276083E+03</rscale>
<asrwt>0</asrwt>
<pdfrwt beam="1">  1       21 0.11712868E+00 0.25276083E+03</pdfrwt>
<pdfrwt beam="2">  1       21 0.18941467E-01 0.25276083E+03</pdfrwt>
<totfact> 0.13802491E+04</totfact>
</mgrwt>
</event>
<event>
 5    0  0.1829809E+000  0.2436830E+03  0.7546771E-02  0.1117363E+00
         21   -1    0    0  502  501  0.00000000000E+00  0.00000000000E+00  0.35684818232E+03  0.35684818232E+03  0.00000000000E+00 0. -1.
         21   -1    0    0  503  502 -0.00000000000E+00 -0.00000000000E+00 -0.15850668432E+03  0.15850668432E+03  0.00000000000E+00 0. -1.
         25    1    1    2    0    0  0.25962420060E+02  0.20756290670E+03  0.16625886280E+03  0.29499731685E+03  0.12500000000E+03 0.  0.
         21    1    1    2  503  504 -0.65980746693E+01 -0.16845421523E+03  0.43274663073E+01  0.16863891657E+03  0.00000000000E+00 0. -1.
         21    1    1    2  504  501 -0.19364345391E+02 -0.39108691470E+02  0.27755168892E+02  0.51718633211E+02  0.00000000000E+00 0. -1.
<mgrwt>
<rscale>  4 0.24368301E+03</rscale>
<asrwt>0</asrwt>
<pdfrwt beam="1">  1       21 0.54899720E-01 0.24368301E+03</pdfrwt>
<pdfrwt beam="2">  1       21 0.24385644E-01 0.24368301E+03</pdfrwt>
<totfact> 0.48590591E+04</totfact>
</mgrwt>
</event>
<event>
 5    0  0.1829809E+000  0.3039940E+03  0.7546771E-02  0.1083261E+00
         21   -1    0    0  502  501  0.00000000000E+00  0.00000000000E+00  0.14298972838E+04  0.14298972838E+04  0.00000000000E+00 0.  1.
         21   -1    0    0  503  502 -0.00000000000E+00 -0.00000000000E+00 -0.66822865810E+02  0.66822865810E+02  0.00000000000E+00 0. -1.
         25    1    1    2    0    0 -0.23640187225E+03 -0.14457360215E+03  0.91466995189E+03  0.96386383506E+03  0.12500000000E+03 0.  0.
         21    1    1    2  503  504  0.22083868091E+03  0.10961389607E+03  0.35796210449E+03  0.43465135160E+03  0.00000000000E+00 0. -1.
         21    1    1    2  504  501  0.15563191340E+02  0.34959706083E+02  0.90442361563E+02  0.98204962906E+02  0.00000000000E+00 0. -1.
<mgrwt>
<rscale>  4 0.30399403E+03</rscale>
<asrwt>0</asrwt>
<pdfrwt beam="1">  1       21 0.21998417E+00 0.30399403E+03</pdfrwt>
<pdfrwt beam="2">  1       21 0.10280442E-01 0.30399403E+03</pdfrwt>
<totfact> 0.71605792E+03</totfact>
</mgrwt>
</event>
<event>
 5    0  0.1829809E+000  0.2521454E+03  0.7546771E-02  0.1111956E+00
         21   -1    0    0  502  501  0.00000000000E+00  0.00000000000E+00  0.15382457439E+03  0.15382457439E+03  0.00000000000E+00 0. -1.
         21   -1    0    0  503  502 -0.00000000000E+00 -0.00000000000E+00 -0.39543455657E+03  0.39543455657E+03  0.00000000000E+00 0. -1.
         25    1    1    2    0    0 -0.20849503505E+03 -0.66948532825E+02 -0.65520502144E+02  0.26051913920E+03  0.12500000000E+03 0.  0.
         21    1    1    2  503  504  0.13820675859E+03  0.30338174388E+02 -0.14774374710E+03  0.20457206004E+03  0.00000000000E+00 0. -1.
         21    1    1    2  504  501  0.70288276461E+02  0.36610358438E+02 -0.28345732947E+02  0.84167931714E+02  0.00000000000E+00 0. -1.
<mgrwt>
<rscale>  4 0.25214537E+03</rscale>
<asrwt>0</asrwt>
<pdfrwt beam="1">  1       21 0.23665319E-01 0.25214537E+03</pdfrwt>
<pdfrwt beam="2">  1       21 0.60836085E-01 0.25214537E+03</pdfrwt>
<totfact> 0.41135173E+04</totfact>
</mgrwt>
</event>
<event>
 5    0  0.1829809E+000  0.2525369E+03  0.7546771E-02  0.1111712E+00
         21   -1    0    0  502  501  0.00000000000E+00  0.00000000000E+00  0.22639532192E+03  0.22639532192E+03  0.00000000000E+00 0.  1.
         21   -1    0    0  503  502 -0.00000000000E+00 -0.00000000000E+00 -0.25867041679E+03  0.25867041679E+03  0.00000000000E+00 0.  1.
         25    1    1    2    0    0  0.12445116482E+03  0.18072574762E+03  0.95841505832E+01  0.25271870572E+03  0.12500000000E+03 0.  0.
         21    1    1    2  503  504 -0.48973348633E+02 -0.28559528804E+02  0.26523986517E+01  0.56754478065E+02  0.00000000000E+00 0. -1.
         21    1    1    2  504  501 -0.75477816185E+02 -0.15216621882E+03 -0.44511644111E+02  0.17559255493E+03  0.00000000000E+00 0.  1.
<mgrwt>
<rscale>  4 0.25253690E+03</rscale>
<asrwt>0</asrwt>
<pdfrwt beam="1">  1       21 0.34830050E-01 0.25253690E+03</pdfrwt>
<pdfrwt beam="2">  1       21 0.39795449E-01 0.25253690E+03</pdfrwt>
<totfact> 0.47080246E+04</totfact>
</mgrwt>
</event>
<event>
 5    0  0.1829809E+000  0.3480889E+03  0.7546771E-02  0.1063402E+00
         21   -1    0    0  502  501  0.00000000000E+00  0.00000000000E+00  0.55963649725E+03  0.55963649725E+03  0.00000000000E+00 0. -1.
         21   -1    0    0  503  502 -0.00000000000E+00 -0.00000000000E+00 -0.95195294547E+03  0.95195294547E+03  0.00000000000E+00 0.  1.
         25    1    1    2    0    0 -0.52199317147E+02  0.32299704195E+03  0.45060125793E+03  0.57071740071E+03  0.12500000000E+03 0.  0.
         21    1    1    2  503  504 -0.42006836835E+02 -0.30510361221E+03 -0.73259843314E+03  0.79470324824E+03  0.00000000000E+00 0.  1.
         21    1    1    2  504  501  0.94206153983E+02 -0.17893429746E+02 -0.11031927302E+03  0.14616879378E+03  0.00000000000E+00 0.  1.
<mgrwt>
<rscale>  4 0.34808887E+03</rscale>
<asrwt>0</asrwt>
<pdfrwt beam="1">  1       21 0.86097923E-01 0.34808887E+03</pdfrwt>
<pdfrwt beam="2">  1       21 0.14645430E+00 0.34808887E+03</pdfrwt>
<totfact> 0.32327610E+02</totfact>
</mgrwt>
</event>
<event>
 5    0  0.1829809E+000  0.2066387E+03  0.7546771E-02  0.1144256E+00
         21   -1    0    0  502  501  0.00000000000E+00  0.00000000000E+00  0.84050235908E+03  0.84050235908E+03  0.00000000000E+00 0. -1.
         21   -1    0    0  503  502 -0.00000000000E+00 -0.00000000000E+00 -0.89338765740E+02  0.89338765740E+02  0.00000000000E+00 0.  1.
         25    1    1    2    0    0 -0.18544818455E+03  0.80321648149E+02  0.59777525761E+03  0.64327510050E+03  0.12500000000E+03 0.  0.
         21    1    1    2  503  504  0.11694630937E+03 -0.53490142590E+02  0.16799021029E+03  0.21156168222E+03  0.00000000000E+00 0.  1.
         21    1    1    2  504  501  0.68501875178E+02 -0.26831505559E+02 -0.14601874563E+02  0.75004342103E+02  0.00000000000E+00 0. -1.
<mgrwt>
<rscale>  4 0.20663868E+03</rscale>
<asrwt>0</asrwt>
<pdfrwt beam="1">  1       21 0.12930805E+00 0.20663868E+03</pdfrwt>
<pdfrwt beam="2">  1       21 0.13744426E-01 0.20663868E+03</pdfrwt>
<totfact> 0.19959805E+04</totfact>
</mgrwt>
</event>
<event>
 5    0  0.1829809E+000  0.2579484E+03  0.7546771E-02  0.1108382E+00
         21   -1    0    0  502  501  0.00000000000E+00  0.00000000000E+00  0.19102375419E+03  0.19102375419E+03  0.00000000000E+00 0. -1.
         21   -1    0    0  503  502 -0.00000000000E+00 -0.00000000000E+00 -0.78096429195E+03  0.78096429195E+03  0.00000000000E+00 0. -1.
         25    1    1    2    0    0 -0.21697952739E+03 -0.61905326317E+02  0.73052010780E+02  0.26809323194E+03  0.12500000000E+03 0.  0.
         21    1    1    2  503  504  0.12554777213E+03  0.55589766266E+02 -0.47973790808E+03  0.49899992550E+03  0.00000000000E+00 0. -1.
         21    1    1    2  504  501  0.91431755262E+02  0.63155600510E+01 -0.18325464045E+03  0.20489488870E+03  0.00000000000E+00 0.  1.
<mgrwt>
<rscale>  4 0.25794841E+03</rscale>
<asrwt>0</asrwt>
<pdfrwt beam="1">  1       21 0.29388270E-01 0.25794841E+03</pdfrwt>
<pdfrwt beam="2">  1       21 0.12014835E+00 0.25794841E+03</pdfrwt>
<totfact> 0.55779405E+03</totfact>
</mgrwt>
</event>
<event>
 5    0  0.1829809E+000  0.2688355E+03  0.7546771E-02  0.1101948E+00
         21   -1    0    0  502  501  0.00000000000E+00  0.00000000000E+00  0.61611321103E+02  0.61611321103E+02  0.00000000000E+00 0.  1.
         21   -1    0    0  503  502 -0.00000000000E+00 -0.00000000000E+00 -0.14541586156E+04  0.14541586156E+04  0.00000000000E+00 0.  1.
         25    1    1    2    0    0 -0.74278910806E+02 -0.22611985477E+03 -0.32992920426E+03  0.42558879818E+03  0.12500000000E+03 0.  0.
         21    1    1    2  503  504  0.31088246222E+02  0.14225651945E+03 -0.54961532193E+03  0.56857752196E+03  0.00000000000E+00 0.  1.
         21    1    1    2  504  501  0.43190664584E+02  0.83863335328E+02 -0.51300276832E+03  0.52160361658E+03  0.00000000000E+00 0.  1.
<mgrwt>
<rscale>  4 0.26883554E+03</rscale>
<asrwt>0</asrwt>
<pdfrwt beam="1">  1       21 0.94786648E-02 0.26883554E+03</pdfrwt>
<pdfrwt beam="2">  1       21 0.22371671E+00 0.26883554E+03</pdfrwt>
<totfact> 0.80168286E+03</totfact>
</mgrwt>
</event>
<event>
 5    0  0.1829809E+000  0.2620657E+03  0.7546771E-02  0.1105908E+00
         21   -1    0    0  502  501  0.00000000000E+00  0.00000000000E+00  0.53201363899E+03  0.53201363899E+03  0.00000000000E+00 0. -1.
         21   -1    0    0  503  502 -0.00000000000E+00 -0.00000000000E+00 -0.20188269597E+03  0.20188269597E+03  0.00000000000E+00 0. -1.
         25    1    1    2    0    0 -0.27704567851E+03 -0.12521564301E+02  0.11563976170E+03  0.32543609517E+03  0.12500000000E+03 0.  0.
         21    1    1    2  503  504  0.95797724351E+02  0.10585277033E+03  0.73370763608E+02  0.16051567503E+03  0.00000000000E+00 0. -1.
         21    1    1    2  504  501  0.18124795415E+03 -0.93331206028E+02  0.14112041771E+03  0.24794456477E+03  0.00000000000E+00 0. -1.
<mgrwt>
<rscale>  4 0.26206571E+03</rscale>
<asrwt>0</asrwt>
<pdfrwt beam="1">  1       21 0.81848251E-01 0.26206571E+03</pdfrwt>
<pdfrwt beam="2">  1       21 0.31058877E-01 0.26206571E+03</pdfrwt>
<totfact> 0.12484736E+04</totfact>
</mgrwt>
</event>
<event>
 5    0  0.1829809E+000  0.2641071E+03  0.7546771E-02  0.1104700E+00
         21   -1    0    0  502  501  0.00000000000E+00  0.00000000000E+00  0.10308076154E+04  0.10308076154E+04  0.00000000000E+00 0. -1.
         21   -1    0    0  503  502 -0.00000000000E+00 -0.00000000000E+00 -0.11687712522E+03  0.11687712522E+03  0.00000000000E+00 0. -1.
         25    1    1    2    0    0 -0.23393947122E+03  0.13135012525E+03  0.72611547891E+03  0.78412321755E+03  0.12500000000E+03 0.  0.
         21    1    1    2  503  504  0.72508367378E+02 -0.10719821095E+03  0.14592096286E+03  0.19504319310E+03  0.00000000000E+00 0. -1.
         21    1    1    2  504  501  0.16143110385E+03 -0.24151914291E+02  0.41894048448E+02  0.16851833001E+03  0.00000000000E+00 0. -1.
<mgrwt>
<rscale>  4 0.26410711E+03</rscale>
<asrwt>0</asrwt>
<pdfrwt beam="1">  1       21 0.15858578E+00 0.26410711E+03</pdfrwt>
<pdfrwt beam="2">  1       21 0.17981097E-01 0.26410711E+03</pdfrwt>
<totfact> 0.68921616E+03</totfact>
</mgrwt>
</event>
<event>
 5    0  0.1829809E+000  0.2844326E+03  0.7546771E-02  0.1093292E+00
         21   -1    0    0  502  501  0.00000000000E+00  0.00000000000E+00  0.53595555652E+03  0.53595555652E+03  0.00000000000E+00 0. -1.
         21   -1    0    0  503  502 -0.00000000000E+00 -0.00000000000E+00 -0.15845965571E+03  0.15845965571E+03  0.00000000000E+00 0. -1.
         25    1    1    2    0    0  0.24808517716E+03  0.61079223110E+02  0.32228334816E+03  0.42984704620E+03  0.12500000000E+03 0.  0.
         21    1    1    2  503  504 -0.20161109144E+02  0.51555272670E+01  0.94000106996E+01  0.22834403527E+02  0.00000000000E+00 0.  1.
         21    1    1    2  504  501 -0.22792406801E+03 -0.66234750377E+02  0.45812541946E+02  0.24173376251E+03  0.00000000000E+00 0. -1.
<mgrwt>
<rscale>  4 0.28443264E+03</rscale>
<asrwt>0</asrwt>
<pdfrwt beam="1">  1       21 0.82454700E-01 0.28443264E+03</pdfrwt>
<pdfrwt beam="2">  1       21 0.24378409E-01 0.28443264E+03</pdfrwt>
<totfact> 0.19460083E+04</totfact>
</mgrwt>
</event>
<event>
 5    0  0.1829809E+000  0.2287924E+03  0.7546771E-02  0.1127493E+00
         21   -1    0    0  502  501  0.00000000000E+00  0.00000000000E+00  0.27349036213E+03  0.27349036213E+03  0.00000000000E+00 0.  1.
         21   -1    0    0  503  502 -0.00000000000E+00 -0.00000000000E+00 -0.24089468875E+03  0.24089468875E+03  0.00000000000E+00 0.  1.
         25    1    1    2    0    0 -0.44742841855E+02  0.21733324610E+03  0.71786827027E+02  0.26460160675E+03  0.12500000000E+03 0.  0.
         21    1    1    2  503  504  0.27915518511E+02 -0.49892105075E+02 -0.56787855361E+02  0.80581380225E+02  0.00000000000E+00 0. -1.
         21    1    1    2  504  501  0.16827323344E+02 -0.16744114103E+03  0.17596701708E+02  0.16920206391E+03  0.00000000000E+00 0.  1.
<mgrwt>
<rscale>  4 0.22879241E+03</rscale>
<asrwt>0</asrwt>
<pdfrwt beam="1">  1       21 0.42075440E-01 0.22879241E+03</pdfrwt>
<pdfrwt beam="2">  1       21 0.37060721E-01 0.22879241E+03</pdfrwt>
<totfact> 0.37492455E+04</totfact>
</mgrwt>
</event>
<event>
 5    0  0.1829809E+000  0.2840669E+03  0.7546771E-02  0.1093488E+00
         21   -1    0    0  502  501  0.00000000000E+00  0.00000000000E+00  0.24560164727E+03  0.24560164727E+03  0.00000000000E+00 0. -1.
         21   -1    0    0  503  502 -0.00000000000E+00 -0.00000000000E+00 -0.33378443473E+03  0.33378443473E+03  0.00000000000E+00 0. -1.
         25    1    1    2    0    0 -0.26042999721E+03 -0.30542014765E+02 -0.69734900422E+02  0.29873827081E+03  0.12500000000E+03 0.  0.
         21    1    1    2  503  504  0.10246270017E+02  0.17428396297E+02 -0.22287799545E+02  0.30091212260E+02  0.00000000000E+00 0. -1.
         21    1    1    2  504  501  0.25018372719E+03  0.13113618468E+02  0.38399125076E+01  0.25055659893E+03  0.00000000000E+00 0. -1.
<mgrwt>
<rscale>  4 0.28406693E+03</rscale>
<asrwt>0</asrwt>
<pdfrwt beam="1">  1       21 0.37784869E-01 0.28406693E+03</pdfrwt>
<pdfrwt beam="2">  1       21 0.51351451E-01 0.28406693E+03</pdfrwt>
<totfact> 0.23271968E+04</totfact>
</mgrwt>
</event>
<event>
 5    0  0.1829809E+000  0.2448928E+03  0.7546771E-02  0.1116576E+00
         21   -1    0    0  502  501  0.00000000000E+00  0.00000000000E+00  0.24248501565E+03  0.24248501565E+03  0.00000000000E+00 0.  1.
         21   -1    0    0  503  502 -0.00000000000E+00 -0.00000000000E+00 -0.41707389881E+03  0.41707389881E+03  0.00000000000E+00 0.  1.
         25    1    1    2    0    0  0.10117186578E+03  0.23882970878E+03  0.31343237545E+02  0.28962523157E+03  0.12500000000E+03 0.  0.
         21    1    1    2  503  504  0.21088738024E+02 -0.80708106783E+02 -0.65236184196E+00  0.83420374897E+02  0.00000000000E+00 0. -1.
         21    1    1    2  504  501 -0.12226060381E+03 -0.15812160200E+03 -0.20527975886E+03  0.28651330800E+03  0.00000000000E+00 0.  1.
<mgrwt>
<rscale>  4 0.24489276E+03</rscale>
<asrwt>0</asrwt>
<pdfrwt beam="1">  1       21 0.37305387E-01 0.24489276E+03</pdfrwt>
<pdfrwt beam="2">  1       21 0.64165215E-01 0.24489276E+03</pdfrwt>
<totfact> 0.15067049E+04</totfact>
</mgrwt>
</event>
<event>
 5    0  0.1829809E+000  0.3053789E+03  0.7546771E-02  0.1082582E+00
         21   -1    0    0  502  501  0.00000000000E+00  0.00000000000E+00  0.46719794077E+03  0.46719794077E+03  0.00000000000E+00 0. -1.
         21   -1    0    0  503  502 -0.00000000000E+00 -0.00000000000E+00 -0.19843651856E+04  0.19843651856E+04  0.00000000000E+00 0.  1.
         25    1    1    2    0    0  0.14136132639E+03  0.24099071587E+03  0.40417095969E+03  0.50698985630E+03  0.12500000000E+03 0.  0.
         21    1    1    2  503  504  0.11140996144E+02 -0.33889099669E+02 -0.40596544940E+03  0.40752980134E+03  0.00000000000E+00 0.  1.
         21    1    1    2  504  501 -0.15250232253E+03 -0.20710161620E+03 -0.15153727551E+04  0.15370434687E+04  0.00000000000E+00 0.  1.
<mgrwt>
<rscale>  4 0.30537890E+03</rscale>
<asrwt>0</asrwt>
<pdfrwt beam="1">  1       21 0.71876606E-01 0.30537890E+03</pdfrwt>
<pdfrwt beam="2">  1       21 0.30528695E+00 0.30537890E+03</pdfrwt>
<totfact> 0.47713732E+01</totfact>
</mgrwt>
</event>
<event>
 5    0  0.1829809E+000  0.2796124E+03  0.7546771E-02  0.1095901E+00
         21   -1    0    0  502  501  0.00000000000E+00  0.00000000000E+00  0.32677302814E+03  0.32677302814E+03  0.00000000000E+00 0.  1.
         21   -1    0    0  503  502 -0.00000000000E+00 -0.00000000000E+00 -0.22861379327E+03  0.22861379327E+03  0.00000000000E+00 0.  1.
         25    1    1    2    0    0 -0.24793665563E+03  0.32946773106E+02  0.62215931695E+02  0.28645051443E+03  0.12500000000E+03 0.  0.
         21    1    1    2  503  504  0.70751267919E+02 -0.26296470170E+02 -0.27916028869E+02  0.80477021089E+02  0.00000000000E+00 0.  1.
         21    1    1    2  504  501  0.17718538771E+03 -0.66503029365E+01  0.63859332044E+02  0.18845928588E+03  0.00000000000E+00 0.  1.
<mgrwt>
<rscale>  4 0.27961237E+03</rscale>
<asrwt>0</asrwt>
<pdfrwt beam="1">  1       21 0.50272774E-01 0.27961237E+03</pdfrwt>
<pdfrwt beam="2">  1       21 0.35171353E-01 0.27961237E+03</pdfrwt>
<totfact> 0.28166533E+04</totfact>
</mgrwt>
</event>
<event>
 5    0  0.1829809E+000  0.2951082E+03  0.7546771E-02  0.1087712E+00
         21   -1    0    0  502  501  0.00000000000E+00  0.00000000000E+00  0.58759053306E+03  0.58759053306E+03  0.00000000000E+00 0. -1.
         21   -1    0    0  503  502 -0.00000000000E+00 -0.00000000000E+00 -0.28991481972E+03  0.28991481972E+03  0.00000000000E+00 0.  1.
         25    1    1    2    0    0  0.26443239450E+03 -0.72977057499E+01  0.41091407356E+03  0.50443346798E+03  0.12500000000E+03 0.  0.
         21    1    1    2  503  504 -0.27992574506E+03 -0.58009981741E+02 -0.10854787336E+03  0.30578787017E+03  0.00000000000E+00 0.  1.
         21    1    1    2  504  501  0.15493350566E+02  0.65307687491E+02 -0.46904868628E+01  0.67284014626E+02  0.00000000000E+00 0.  1.
<mgrwt>
<rscale>  4 0.29510822E+03</rscale>
<asrwt>0</asrwt>
<pdfrwt beam="1">  1       21 0.90398544E-01 0.29510822E+03</pdfrwt>
<pdfrwt beam="2">  1       21 0.44602280E-01 0.29510822E+03</pdfrwt>
<totfact> 0.46943619E+03</totfact>
</mgrwt>
</event>
<event>
 5    0  0.1829809E+000  0.3866146E+03  0.7546771E-02  0.1048516E+00
         21   -1    0    0  502  501  0.00000000000E+00  0.00000000000E+00  0.16441996179E+04  0.16441996179E+04  0.00000000000E+00 0.  1.
         21   -1    0    0  503  502 -0.00000000000E+00 -0.00000000000E+00 -0.95013363872E+02  0.95013363872E+02  0.00000000000E+00 0.  1.
         25    1    1    2    0    0  0.36443856075E+03 -0.32100198058E+02  0.55144552943E+03  0.67347090450E+03  0.12500000000E+03 0.  0.
         21    1    1    2  503  504 -0.66659699078E+02  0.35579238788E+02  0.16910048177E+03  0.18521439104E+03  0.00000000000E+00 0.  1.
         21    1    1    2  504  501 -0.29777886168E+03 -0.34790407309E+01  0.82864024284E+03  0.88052768624E+03  0.00000000000E+00 0.  1.
<mgrwt>
<rscale>  4 0.38661465E+03</rscale>
<asrwt>0</asrwt>
<pdfrwt beam="1">  1       21 0.25295377E+00 0.38661465E+03</pdfrwt>
<pdfrwt beam="2">  1       21 0.14617442E-01 0.38661465E+03</pdfrwt>
<totfact> 0.22580788E+03</totfact>
</mgrwt>
</event>
<event>
 5    0  0.1829809E+000  0.2757588E+03  0.7546771E-02  0.1098028E+00
         21   -1    0    0  502  501  0.00000000000E+00  0.00000000000E+00  0.17784559861E+03  0.17784559861E+03  0.00000000000E+00 0.  1.
         21   -1    0    0  503  502 -0.00000000000E+00 -0.00000000000E+00 -0.56959041894E+03  0.56959041894E+03  0.00000000000E+00 0.  1.
         25    1    1    2    0    0  0.90703139348E+02  0.22845324101E+03  0.25980380462E+01  0.27577108734E+03  0.12500000000E+03 0.  0.
         21    1    1    2  503  504 -0.38318480787E+02 -0.19599223431E+02 -0.75956998037E+02  0.87303499814E+02  0.00000000000E+00 0.  1.
         21    1    1    2  504  501 -0.52384658561E+02 -0.20885401757E+03 -0.31838586034E+03  0.38436143039E+03  0.00000000000E+00 0.  1.
<mgrwt>
<rscale>  4 0.27575885E+03</rscale>
<asrwt>0</asrwt>
<pdfrwt beam="1">  1       21 0.27360861E-01 0.27575885E+03</pdfrwt>
<pdfrwt beam="2">  1       21 0.87629296E-01 0.27575885E+03</pdfrwt>
<totfact> 0.13579195E+04</totfact>
</mgrwt>
</event>
<event>
 5    0  0.1829809E+000  0.2642753E+03  0.7546771E-02  0.1104601E+00
         21   -1    0    0  502  501  0.00000000000E+00  0.00000000000E+00  0.10084995257E+04  0.10084995257E+04  0.00000000000E+00 0. -1.
         21   -1    0    0  503  502 -0.00000000000E+00 -0.00000000000E+00 -0.10187613109E+03  0.10187613109E+03  0.00000000000E+00 0. -1.
         25    1    1    2    0    0  0.14638843991E+03  0.18300700357E+03  0.61455551290E+03  0.66949579321E+03  0.12500000000E+03 0.  0.
         21    1    1    2  503  504 -0.75525119575E+02  0.47372699082E+02  0.74724019585E+02  0.11632667539E+03  0.00000000000E+00 0. -1.
         21    1    1    2  504  501 -0.70863320337E+02 -0.23037970265E+03  0.21734386217E+03  0.32455318822E+03  0.00000000000E+00 0. -1.
<mgrwt>
<rscale>  4 0.26427528E+03</rscale>
<asrwt>0</asrwt>
<pdfrwt beam="1">  1       21 0.15515377E+00 0.26427528E+03</pdfrwt>
<pdfrwt beam="2">  1       21 0.15673252E-01 0.26427528E+03</pdfrwt>
<totfact> 0.94307323E+03</totfact>
</mgrwt>
</event>
<event>
 5    0  0.1829809E+000  0.4740015E+03  0.7546771E-02  0.1020797E+00
         21   -1    0    0  502  501  0.00000000000E+00  0.00000000000E+00  0.13049422934E+04  0.13049422934E+04  0.00000000000E+00 0.  1.
         21   -1    0    0  503  502 -0.00000000000E+00 -0.00000000000E+00 -0.29253836120E+03  0.29253836120E+03  0.00000000000E+00 0.  1.
         25    1    1    2    0    0 -0.67853260676E+02  0.46769565899E+03  0.97857170718E+03  0.10938788235E+04  0.12500000000E+03 0.  0.
         21    1    1    2  503  504 -0.15217773033E+02 -0.21378442415E+02  0.42025660727E+02  0.49545681706E+02  0.00000000000E+00 0. -1.
         21    1    1    2  504  501  0.83071033709E+02 -0.44631721657E+03 -0.81934356598E+01  0.45405614943E+03  0.00000000000E+00 0.  1.
<mgrwt>
<rscale>  4 0.47400152E+03</rscale>
<asrwt>0</asrwt>
<pdfrwt beam="1">  1       21 0.20076035E+00 0.47400152E+03</pdfrwt>
<pdfrwt beam="2">  1       21 0.45005903E-01 0.47400152E+03</pdfrwt>
<totfact> 0.51218216E+02</totfact>
</mgrwt>
</event>
<event>
 5    0  0.1829809E+000  0.2519682E+03  0.7546771E-02  0.1112067E+00
         21   -1    0    0  502  501  0.00000000000E+00  0.00000000000E+00  0.14540717657E+04  0.14540717657E+04  0.00000000000E+00 0.  1.
         21   -1    0    0  503  502 -0.00000000000E+00 -0.00000000000E+00 -0.58795271572E+02  0.58795271572E+02  0.00000000000E+00 0. -1.
         25    1    1    2    0    0 -0.18085356121E+03  0.12310554211E+03  0.11362370406E+04  0.11638395927E+04  0.12500000000E+03 0.  0.
         21    1    1    2  503  504  0.74601076403E+02 -0.35979524608E+02  0.15826737117E+03  0.17862924612E+03  0.00000000000E+00 0.  1.
         21    1    1    2  504  501  0.10625248480E+03 -0.87126017504E+02  0.10077208235E+03  0.17039819844E+03  0.00000000000E+00 0. -1.
<mgrwt>
<rscale>  4 0.25196822E+03</rscale>
<asrwt>0</asrwt>
<pdfrwt beam="1">  1       21 0.22370332E+00 0.25196822E+03</pdfrwt>
<pdfrwt beam="2">  1       21 0.90454274E-02 0.25196822E+03</pdfrwt>
<totfact> 0.88124410E+03</totfact>
</mgrwt>
</event>
<event>
 5    0  0.1829809E+000  0.2867178E+03  0.7546771E-02  0.1092075E+00
         21   -1    0    0  502  501  0.00000000000E+00  0.00000000000E+00  0.28725038054E+03  0.28725038054E+03  0.00000000000E+00 0. -1.
         21   -1    0    0  503  502 -0.00000000000E+00 -0.00000000000E+00 -0.52194717349E+03  0.52194717349E+03  0.00000000000E+00 0.  1.
         25    1    1    2    0    0 -0.19895518210E+03 -0.16431347137E+03  0.16290157390E+03  0.32976355793E+03  0.12500000000E+03 0.  0.
         21    1    1    2  503  504  0.17755870920E+03  0.14115444812E+03 -0.38196790675E+03  0.44424222585E+03  0.00000000000E+00 0.  1.
         21    1    1    2  504  501  0.21396472901E+02  0.23159023251E+02 -0.15630460102E+02  0.35191770253E+02  0.00000000000E+00 0.  1.
<mgrwt>
<rscale>  4 0.28671777E+03</rscale>
<asrwt>0</asrwt>
<pdfrwt beam="1">  1       21 0.44192366E-01 0.28671777E+03</pdfrwt>
<pdfrwt beam="2">  1       21 0.80299565E-01 0.28671777E+03</pdfrwt>
<totfact> 0.63220982E+03</totfact>
</mgrwt>
</event>
<event>
 5    0  0.1829809E+000  0.3085357E+03  0.7546771E-02  0.1081050E+00
         21   -1    0    0  502  501  0.00000000000E+00  0.00000000000E+00  0.19741622478E+04  0.19741622478E+04  0.00000000000E+00 0. -1.
         21   -1    0    0  503  502 -0.00000000000E+00 -0.00000000000E+00 -0.46619317448E+02  0.46619317448E+02  0.00000000000E+00 0. -1.
         25    1    1    2    0    0 -0.24820426438E+03  0.13402953527E+03  0.11750087956E+04  0.12148415299E+04  0.12500000000E+03 0.  0.
         21    1    1    2  503  504  0.15639243976E+03 -0.94208305608E+02  0.55903752916E+03  0.58809587575E+03  0.00000000000E+00 0. -1.
         21    1    1    2  504  501  0.91811824613E+02 -0.39821229664E+02  0.19349660560E+03  0.21784415955E+03  0.00000000000E+00 0. -1.
<mgrwt>
<rscale>  4 0.30853569E+03</rscale>
<asrwt>0</asrwt>
<pdfrwt beam="1">  1       21 0.30371720E+00 0.30853569E+03</pdfrwt>
<pdfrwt beam="2">  1       21 0.71722042E-02 0.30853569E+03</pdfrwt>
<totfact> 0.42338990E+03</totfact>
</mgrwt>
</event>
<event>
 5    0  0.1829809E+000  0.2919206E+03  0.7546771E-02  0.1089351E+00
         21   -1    0    0  502  501  0.00000000000E+00  0.00000000000E+00  0.53209700800E+03  0.53209700800E+03  0.00000000000E+00 0. -1.
         21   -1    0    0  503  502 -0.00000000000E+00 -0.00000000000E+00 -0.22450100276E+03  0.22450100276E+03  0.00000000000E+00 0. -1.
         25    1    1    2    0    0 -0.25809675668E+03  0.54577317854E+02  0.37865483955E+03  0.47811829807E+03  0.12500000000E+03 0.  0.
         21    1    1    2  503  504  0.20718258998E+02 -0.13937736382E+02  0.58858884441E+01  0.25654442775E+02  0.00000000000E+00 0. -1.
         21    1    1    2  504  501  0.23737849768E+03 -0.40639581472E+02 -0.76944722762E+02  0.25282526991E+03  0.00000000000E+00 0. -1.
<mgrwt>
<rscale>  4 0.29192057E+03</rscale>
<asrwt>0</asrwt>
<pdfrwt beam="1">  1       21 0.81861078E-01 0.29192057E+03</pdfrwt>
<pdfrwt beam="2">  1       21 0.34538616E-01 0.29192057E+03</pdfrwt>
<totfact> 0.99608365E+03</totfact>
</mgrwt>
</event>
<event>
 5    0  0.1829809E+000  0.2663775E+03  0.7546771E-02  0.1103371E+00
         21   -1    0    0  502  501  0.00000000000E+00  0.00000000000E+00  0.96075676570E+02  0.96075676570E+02  0.00000000000E+00 0.  1.
         21   -1    0    0  503  502 -0.00000000000E+00 -0.00000000000E+00 -0.67670892953E+03  0.67670892953E+03  0.00000000000E+00 0.  1.
         25    1    1    2    0    0 -0.43172761902E+02 -0.23123164024E+03 -0.33910995411E+03  0.43122212350E+03  0.12500000000E+03 0.  0.
         21    1    1    2  503  504  0.24097203536E+02  0.11675748443E+03 -0.16089497639E+03  0.20025029043E+03  0.00000000000E+00 0.  1.
         21    1    1    2  504  501  0.19075558365E+02  0.11447415581E+03 -0.80628322462E+02  0.14131219218E+03  0.00000000000E+00 0.  1.
<mgrwt>
<rscale>  4 0.26637747E+03</rscale>
<asrwt>0</asrwt>
<pdfrwt beam="1">  1       21 0.14780874E-01 0.26637747E+03</pdfrwt>
<pdfrwt beam="2">  1       21 0.10410906E+00 0.26637747E+03</pdfrwt>
<totfact> 0.28937264E+04</totfact>
</mgrwt>
</event>
<event>
 5    0  0.1829809E+000  0.5072709E+03  0.7546771E-02  0.1011898E+00
         21   -1    0    0  502  501  0.00000000000E+00  0.00000000000E+00  0.23978593793E+03  0.23978593793E+03  0.00000000000E+00 0. -1.
         21   -1    0    0  503  502 -0.00000000000E+00 -0.00000000000E+00 -0.12484979508E+04  0.12484979508E+04  0.00000000000E+00 0.  1.
         25    1    1    2    0    0  0.59571141230E+02 -0.48800621043E+03 -0.21393659029E+03  0.55053850633E+03  0.12500000000E+03 0.  0.
         21    1    1    2  503  504 -0.24274094555E+02  0.42160146778E+03 -0.68372189779E+03  0.80362470272E+03  0.00000000000E+00 0.  1.
         21    1    1    2  504  501 -0.35297046675E+02  0.66404742650E+02 -0.11105352482E+03  0.13412067971E+03  0.00000000000E+00 0. -1.
<mgrwt>
<rscale>  4 0.50727092E+03</rscale>
<asrwt>0</asrwt>
<pdfrwt beam="1">  1       21 0.36890145E-01 0.50727092E+03</pdfrwt>
<pdfrwt beam="2">  1       21 0.19207661E+00 0.50727092E+03</pdfrwt>
<totfact> 0.87205990E+02</totfact>
</mgrwt>
</event>
<event>
 5    0  0.1829809E+000  0.3479656E+03  0.7546771E-02  0.1063453E+00
         21   -1    0    0  502  501  0.00000000000E+00  0.00000000000E+00  0.15568653696E+04  0.15568653696E+04  0.00000000000E+00 0. -1.
         21   -1    0    0  503  502 -0.00000000000E+00 -0.00000000000E+00 -0.10199641119E+03  0.10199641119E+03  0.00000000000E+00 0. -1.
         25    1    1    2    0    0 -0.27588207131E+03  0.17130139763E+03  0.11583046364E+04  0.12094419030E+04  0.12500000000E+03 0.  0.
         21    1    1    2  503  504  0.14795700407E+03 -0.13718554223E+03  0.14678496760E+03  0.24951347611E+03  0.00000000000E+00 0. -1.
         21    1    1    2  504  501  0.12792506724E+03 -0.34115855402E+02  0.14977935444E+03  0.19990640168E+03  0.00000000000E+00 0. -1.
<mgrwt>
<rscale>  4 0.34796564E+03</rscale>
<asrwt>0</asrwt>
<pdfrwt beam="1">  1       21 0.23951773E+00 0.34796564E+03</pdfrwt>
<pdfrwt beam="2">  1       21 0.15691757E-01 0.34796564E+03</pdfrwt>
<totfact> 0.24455774E+03</totfact>
</mgrwt>
</event>
<event>
 5    0  0.1829809E+000  0.1961382E+03  0.7546771E-02  0.1153039E+00
         21   -1    0    0  502  501  0.00000000000E+00  0.00000000000E+00  0.43535851247E+03  0.43535851247E+03  0.00000000000E+00 0. -1.
         21   -1    0    0  503  502 -0.00000000000E+00 -0.00000000000E+00 -0.24924375210E+03  0.24924375210E+03  0.00000000000E+00 0. -1.
         25    1    1    2    0    0  0.21192225435E+03  0.15010994145E+03 -0.52897521249E+02  0.29303102935E+03  0.12500000000E+03 0.  0.
         21    1    1    2  503  504 -0.11653046308E+03 -0.75930336108E+02  0.23203887421E+03  0.27053059700E+03  0.00000000000E+00 0. -1.
         21    1    1    2  504  501 -0.95391791266E+02 -0.74179605339E+02  0.69734074062E+01  0.12104063822E+03  0.00000000000E+00 0. -1.
<mgrwt>
<rscale>  4 0.19613822E+03</rscale>
<asrwt>0</asrwt>
<pdfrwt beam="1">  1       21 0.66978233E-01 0.19613822E+03</pdfrwt>
<pdfrwt beam="2">  1       21 0.38345193E-01 0.19613822E+03</pdfrwt>
<totfact> 0.13358776E+04</totfact>
</mgrwt>
</event>
<event>
 5    0  0.1829809E+000  0.2392677E+03  0.7546771E-02  0.1120282E+00
         21   -1    0    0  502  501  0.00000000000E+00  0.00000000000E+00  0.12187668855E+04  0.12187668855E+04  0.00000000000E+00 0.  1.
         21   -1    0    0  503  502 -0.00000000000E+00 -0.00000000000E+00 -0.70307222765E+02  0.70307222765E+02  0.00000000000E+00 0. -1.
         25    1    1    2    0    0  0.20365031873E+03  0.12271110513E+02  0.10084470324E+04  0.10364431724E+04  0.12500000000E+03 0.  0.
         21    1    1    2  503  504 -0.14465361773E+03  0.13844346779E+02  0.10447029515E+03  0.17897032612E+03  0.00000000000E+00 0. -1.
         21    1    1    2  504  501 -0.58996701000E+02 -0.26115457292E+02  0.35542335193E+02  0.73660609754E+02  0.00000000000E+00 0. -1.
<mgrwt>
<rscale>  4 0.23926770E+03</rscale>
<asrwt>0</asrwt>
<pdfrwt beam="1">  1       21 0.18750258E+00 0.23926770E+03</pdfrwt>
<pdfrwt beam="2">  1       21 0.10816497E-01 0.23926770E+03</pdfrwt>
<totfact> 0.11050119E+04</totfact>
</mgrwt>
</event>
<event>
 5    0  0.1829809E+000  0.2363334E+03  0.7546771E-02  0.1122260E+00
         21   -1    0    0  502  501  0.00000000000E+00  0.00000000000E+00  0.47816879804E+02  0.47816879804E+02  0.00000000000E+00 0.  1.
         21   -1    0    0  503  502 -0.00000000000E+00 -0.00000000000E+00 -0.13145292156E+04  0.13145292156E+04  0.00000000000E+00 0. -1.
         25    1    1    2    0    0  0.19689626188E+03  0.38214436637E+02 -0.34876092320E+03  0.42129284667E+03  0.12500000000E+03 0.  0.
         21    1    1    2  503  504 -0.17514796934E+03 -0.36548013342E+02 -0.87227595765E+03  0.89043692350E+03  0.00000000000E+00 0. -1.
         21    1    1    2  504  501 -0.21748292539E+02 -0.16664232954E+01 -0.45675454955E+02  0.50616325235E+02  0.00000000000E+00 0. -1.
<mgrwt>
<rscale>  4 0.23633341E+03</rscale>
<asrwt>0</asrwt>
<pdfrwt beam="1">  1       21 0.73564441E-02 0.23633341E+03</pdfrwt>
<pdfrwt beam="2">  1       21 0.20223523E+00 0.23633341E+03</pdfrwt>
<totfact> 0.17470488E+04</totfact>
</mgrwt>
</event>
<event>
 5    0  0.1829809E+000  0.3302825E+03  0.7546771E-02  0.1071012E+00
         21   -1    0    0  502  501  0.00000000000E+00  0.00000000000E+00  0.35589283383E+04  0.35589283383E+04  0.00000000000E+00 0.  1.
         21   -1    0    0  503  502 -0.00000000000E+00 -0.00000000000E+00 -0.55685895356E+02  0.55685895356E+02  0.00000000000E+00 0. -1.
         25    1    1    2    0    0 -0.10888787539E+03  0.28566585252E+03  0.30354128659E+04  0.30533289727E+04  0.12500000000E+03 0.  0.
         21    1    1    2  503  504  0.38902931607E+01 -0.26062920248E+02  0.69873348178E+02  0.74677272167E+02  0.00000000000E+00 0. -1.
         21    1    1    2  504  501  0.10499758223E+03 -0.25960293227E+03  0.39795622888E+03  0.48660798886E+03  0.00000000000E+00 0. -1.
<mgrwt>
<rscale>  4 0.33028253E+03</rscale>
<asrwt>0</asrwt>
<pdfrwt beam="1">  1       21 0.54752726E+00 0.33028253E+03</pdfrwt>
<pdfrwt beam="2">  1       21 0.85670636E-02 0.33028253E+03</pdfrwt>
<totfact> 0.75710802E+01</totfact>
</mgrwt>
</event>
<event>
 5    0  0.1829809E+000  0.4027773E+03  0.7546771E-02  0.1042822E+00
         21   -1    0    0  502  501  0.00000000000E+00  0.00000000000E+00  0.16406264109E+04  0.16406264109E+04  0.00000000000E+00 0. -1.
         21   -1    0    0  503  502 -0.00000000000E+00 -0.00000000000E+00 -0.50974394451E+03  0.50974394451E+03  0.00000000000E+00 0. -1.
         25    1    1    2    0    0 -0.41537436240E+02 -0.38557734296E+03  0.15036046790E+04  0.15578341622E+04  0.12500000000E+03 0.  0.
         21    1    1    2  503  504  0.19283782470E+02  0.30084785751E+03 -0.39991226645E+03  0.50081046165E+03  0.00000000000E+00 0. -1.
         21    1    1    2  504  501  0.22253653771E+02  0.84729485454E+02  0.27190053829E+02  0.91725731606E+02  0.00000000000E+00 0.  1.
<mgrwt>
<rscale>  4 0.40277727E+03</rscale>
<asrwt>0</asrwt>
<pdfrwt beam="1">  1       21 0.25240406E+00 0.40277727E+03</pdfrwt>
<pdfrwt beam="2">  1       21 0.78422146E-01 0.40277727E+03</pdfrwt>
<totfact> 0.74444738E+01</totfact>
</mgrwt>
</event>
<event>
 5    0  0.1829809E+000  0.2539345E+03  0.7546771E-02  0.1110843E+00
         21   -1    0    0  502  501  0.00000000000E+00  0.00000000000E+00  0.14674083419E+04  0.14674083419E+04  0.00000000000E+00 0.  1.
         21   -1    0    0  503  502 -0.00000000000E+00 -0.00000000000E+00 -0.64742255512E+02  0.64742255512E+02  0.00000000000E+00 0.  1.
         25    1    1    2    0    0 -0.21831572078E+03  0.34582813421E+02  0.24796310718E+03  0.35492031141E+03  0.12500000000E+03 0.  0.
         21    1    1    2  503  504  0.15185941326E+03 -0.51542359470E+02  0.83322348986E+03  0.84851592812E+03  0.00000000000E+00 0.  1.
         21    1    1    2  504  501  0.66456307525E+02  0.16959546048E+02  0.32147948933E+03  0.32871435787E+03  0.00000000000E+00 0.  1.
<mgrwt>
<rscale>  4 0.25393449E+03</rscale>
<asrwt>0</asrwt>
<pdfrwt beam="1">  1       21 0.22575510E+00 0.25393449E+03</pdfrwt>
<pdfrwt beam="2">  1       21 0.99603482E-02 0.25393449E+03</pdfrwt>
<totfact> 0.72062144E+03</totfact>
</mgrwt>
</event>
<event>
 5    0  0.1829809E+000  0.2387237E+03  0.7546771E-02  0.1120646E+00
         21   -1    0    0  502  501  0.00000000000E+00  0.00000000000E+00  0.18124805312E+03  0.18124805312E+03  0.00000000000E+00 0. -1.
         21   -1    0    0  503  502 -0.00000000000E+00 -0.00000000000E+00 -0.28310763638E+03  0.28310763638E+03  0.00000000000E+00 0.  1.
         25    1    1    2    0    0 -0.18957471198E+03  0.73657402942E+02 -0.22572657223E+02  0.23978846779E+03  0.12500000000E+03 0.  0.
         21    1    1    2  503  504  0.13435152761E+03 -0.26586734556E+02 -0.43783744569E+02  0.14378526946E+03  0.00000000000E+00 0.  1.
         21    1    1    2  504  501  0.55223184371E+02 -0.47070668385E+02 -0.35503181474E+02  0.80781952249E+02  0.00000000000E+00 0.  1.
<mgrwt>
<rscale>  4 0.23872366E+03</rscale>
<asrwt>0</asrwt>
<pdfrwt beam="1">  1       21 0.27884316E-01 0.23872366E+03</pdfrwt>
<pdfrwt beam="2">  1       21 0.43555021E-01 0.23872366E+03</pdfrwt>
<totfact> 0.60994374E+04</totfact>
</mgrwt>
</event>
<event>
 5    0  0.1829809E+000  0.2753269E+03  0.7546771E-02  0.1098269E+00
         21   -1    0    0  502  501  0.00000000000E+00  0.00000000000E+00  0.25034160222E+03  0.25034160222E+03  0.00000000000E+00 0. -1.
         21   -1    0    0  503  502 -0.00000000000E+00 -0.00000000000E+00 -0.10567197907E+04  0.10567197907E+04  0.00000000000E+00 0. -1.
         25    1    1    2    0    0  0.23769478887E+03 -0.64278914798E+02  0.14201192934E+03  0.31052049790E+03  0.12500000000E+03 0.  0.
         21    1    1    2  503  504 -0.22159920481E+03  0.93427074691E+02 -0.59760426262E+03  0.64417829873E+03  0.00000000000E+00 0. -1.
         21    1    1    2  504  501 -0.16095584060E+02 -0.29148159893E+02 -0.35078585516E+03  0.35236259624E+03  0.00000000000E+00 0. -1.
<mgrwt>
<rscale>  4 0.27532689E+03</rscale>
<asrwt>0</asrwt>
<pdfrwt beam="1">  1       21 0.38514092E-01 0.27532689E+03</pdfrwt>
<pdfrwt beam="2">  1       21 0.16257228E+00 0.27532689E+03</pdfrwt>
<totfact> 0.14598278E+03</totfact>
</mgrwt>
</event>
<event>
 5    0  0.1829809E+000  0.2545419E+03  0.7546771E-02  0.1110468E+00
         21   -1    0    0  502  501  0.00000000000E+00  0.00000000000E+00  0.43085288464E+03  0.43085288464E+03  0.00000000000E+00 0.  1.
         21   -1    0    0  503  502 -0.00000000000E+00 -0.00000000000E+00 -0.14581209001E+03  0.14581209001E+03  0.00000000000E+00 0.  1.
         25    1    1    2    0    0 -0.12145556863E+03 -0.18551319008E+03  0.67852899512E+02  0.26343047435E+03  0.12500000000E+03 0.  0.
         21    1    1    2  503  504  0.11509377195E+03  0.16589673665E+03  0.17899017207E+03  0.26982547187E+03  0.00000000000E+00 0.  1.
         21    1    1    2  504  501  0.63617966803E+01  0.19616453426E+02  0.38197723045E+02  0.43409028414E+02  0.00000000000E+00 0.  1.
<mgrwt>
<rscale>  4 0.25454194E+03</rscale>
<asrwt>0</asrwt>
<pdfrwt beam="1">  1       21 0.66285059E-01 0.25454194E+03</pdfrwt>
<pdfrwt beam="2">  1       21 0.22432629E-01 0.25454194E+03</pdfrwt>
<totfact> 0.37733473E+04</totfact>
</mgrwt>
</event>
<event>
 5    0  0.1829809E+000  0.2652760E+03  0.7546771E-02  0.1104014E+00
         21   -1    0    0  502  501  0.00000000000E+00  0.00000000000E+00  0.45770456571E+03  0.45770456571E+03  0.00000000000E+00 0. -1.
         21   -1    0    0  503  502 -0.00000000000E+00 -0.00000000000E+00 -0.21576270983E+03  0.21576270983E+03  0.00000000000E+00 0.  1.
         25    1    1    2    0    0 -0.16225137199E+03 -0.16858485740E+03  0.32538433040E+03  0.41981701291E+03  0.12500000000E+03 0.  0.
         21    1    1    2  503  504  0.13038956318E+03  0.13674746168E+03 -0.87890221464E+02  0.20838905320E+03  0.00000000000E+00 0.  1.
         21    1    1    2  504  501  0.31861808806E+02  0.31837395721E+02  0.44477469430E+01  0.45261209435E+02  0.00000000000E+00 0.  1.
<mgrwt>
<rscale>  4 0.26527601E+03</rscale>
<asrwt>0</asrwt>
<pdfrwt beam="1">  1       21 0.70416087E-01 0.26527601E+03</pdfrwt>
<pdfrwt beam="2">  1       21 0.33194263E-01 0.26527601E+03</pdfrwt>
<totfact> 0.15345794E+04</totfact>
</mgrwt>
</event>
<event>
 5    0  0.1829809E+000  0.6205313E+03  0.7546771E-02  0.9863703E-01
         21   -1    0    0  502  501  0.00000000000E+00  0.00000000000E+00  0.89525802806E+03  0.89525802806E+03  0.00000000000E+00 0. -1.
         21   -1    0    0  503  502 -0.00000000000E+00 -0.00000000000E+00 -0.56425675371E+03  0.56425675371E+03  0.00000000000E+00 0. -1.
         25    1    1    2    0    0 -0.57695652744E+03 -0.29461434516E+03 -0.38292305979E+02  0.66088406520E+03  0.12500000000E+03 0.  0.
         21    1    1    2  503  504  0.49287685684E+03  0.26341292532E+03  0.17660074920E+03  0.58609025742E+03  0.00000000000E+00 0. -1.
         21    1    1    2  504  501  0.84079670605E+02  0.31201419844E+02  0.19269283113E+03  0.21254045915E+03  0.00000000000E+00 0. -1.
<mgrwt>
<rscale>  4 0.62053126E+03</rscale>
<asrwt>0</asrwt>
<pdfrwt beam="1">  1       21 0.13773200E+00 0.62053126E+03</pdfrwt>
<pdfrwt beam="2">  1       21 0.86808731E-01 0.62053126E+03</pdfrwt>
<totfact> 0.32965465E+02</totfact>
</mgrwt>
</event>
<event>
 5    0  0.1829809E+000  0.2573608E+03  0.7546771E-02  0.1108739E+00
         21   -1    0    0  502  501  0.00000000000E+00  0.00000000000E+00  0.11797534130E+03  0.11797534130E+03  0.00000000000E+00 0.  1.
         21   -1    0    0  503  502 -0.00000000000E+00 -0.00000000000E+00 -0.58699889607E+03  0.58699889607E+03  0.00000000000E+00 0.  1.
         25    1    1    2    0    0  0.13344722854E+03 -0.18513775050E+03 -0.14103765339E+03  0.29597427108E+03  0.12500000000E+03 0.  0.
         21    1    1    2  503  504  0.12742971009E+02  0.19771539996E+02 -0.35254309526E+02  0.42381168508E+02  0.00000000000E+00 0.  1.
         21    1    1    2  504  501 -0.14619019955E+03  0.16536621050E+03 -0.29273159186E+03  0.36661879779E+03  0.00000000000E+00 0.  1.
<mgrwt>
<rscale>  4 0.25736081E+03</rscale>
<asrwt>0</asrwt>
<pdfrwt beam="1">  1       21 0.18150053E-01 0.25736081E+03</pdfrwt>
<pdfrwt beam="2">  1       21 0.90307521E-01 0.25736081E+03</pdfrwt>
<totfact> 0.27874474E+04</totfact>
</mgrwt>
</event>
<event>
 5    0  0.1829809E+000  0.2421265E+03  0.7546771E-02  0.1118384E+00
         21   -1    0    0  502  501  0.00000000000E+00  0.00000000000E+00  0.51370849626E+03  0.51370849626E+03  0.00000000000E+00 0.  1.
         21   -1    0    0  503  502 -0.00000000000E+00 -0.00000000000E+00 -0.64411963320E+03  0.64411963320E+03  0.00000000000E+00 0. -1.
         25    1    1    2    0    0 -0.20533612258E+03  0.70412727848E+02  0.45222755816E+03  0.51696773578E+03  0.12500000000E+03 0.  0.
         21    1    1    2  503  504  0.71073625740E+02 -0.13059525847E+02 -0.40274291129E+03  0.40917461319E+03  0.00000000000E+00 0. -1.
         21    1    1    2  504  501  0.13426249684E+03 -0.57353202001E+02 -0.17989578382E+03  0.23168578047E+03  0.00000000000E+00 0.  1.
<mgrwt>
<rscale>  4 0.24212649E+03</rscale>
<asrwt>0</asrwt>
<pdfrwt beam="1">  1       21 0.79032076E-01 0.24212649E+03</pdfrwt>
<pdfrwt beam="2">  1       21 0.99095328E-01 0.24212649E+03</pdfrwt>
<totfact> 0.11341900E+03</totfact>
</mgrwt>
</event>
<event>
 5    0  0.1829809E+000  0.2301814E+03  0.7546771E-02  0.1126512E+00
         21   -1    0    0  502  501  0.00000000000E+00  0.00000000000E+00  0.19153495739E+04  0.19153495739E+04  0.00000000000E+00 0. -1.
         21   -1    0    0  503  502 -0.00000000000E+00 -0.00000000000E+00 -0.17406855103E+03  0.17406855103E+03  0.00000000000E+00 0. -1.
         25    1    1    2    0    0  0.19608922584E+02 -0.23350408251E+03  0.17497696244E+04  0.17698099912E+04  0.12500000000E+03 0.  0.
         21    1    1    2  503  504  0.46187230278E+01  0.19191204498E+03 -0.99819972288E+02  0.21636911166E+03  0.00000000000E+00 0. -1.
         21    1    1    2  504  501 -0.24227645612E+02  0.41592037532E+02  0.91331370760E+02  0.10323902209E+03  0.00000000000E+00 0.  1.
<mgrwt>
<rscale>  4 0.23018138E+03</rscale>
<asrwt>0</asrwt>
<pdfrwt beam="1">  1       21 0.29466915E+00 0.23018138E+03</pdfrwt>
<pdfrwt beam="2">  1       21 0.26779778E-01 0.23018138E+03</pdfrwt>
<totfact> 0.46275733E+02</totfact>
</mgrwt>
</event>
<event>
 5    0  0.1829809E+000  0.3120298E+03  0.7546771E-02  0.1079377E+00
         21   -1    0    0  502  501  0.00000000000E+00  0.00000000000E+00  0.14626180778E+03  0.14626180778E+03  0.00000000000E+00 0.  1.
         21   -1    0    0  503  502 -0.00000000000E+00 -0.00000000000E+00 -0.86114924988E+03  0.86114924988E+03  0.00000000000E+00 0.  1.
         25    1    1    2    0    0  0.25075242674E+03 -0.15869956684E+03 -0.14031304130E+03  0.35124789193E+03  0.12500000000E+03 0.  0.
         21    1    1    2  503  504 -0.22894403268E+03  0.16566507120E+03 -0.56422469490E+03  0.63103866146E+03  0.00000000000E+00 0.  1.
         21    1    1    2  504  501 -0.21808394058E+02 -0.69655043668E+01 -0.10349705902E+02  0.25124504268E+02  0.00000000000E+00 0.  1.
<mgrwt>
<rscale>  4 0.31202978E+03</rscale>
<asrwt>0</asrwt>
<pdfrwt beam="1">  1       21 0.22501816E-01 0.31202978E+03</pdfrwt>
<pdfrwt beam="2">  1       21 0.13248450E+00 0.31202978E+03</pdfrwt>
<totfact> 0.70802087E+03</totfact>
</mgrwt>
</event>
<event>
 5    0  0.1829809E+000  0.2290280E+03  0.7546771E-02  0.1127326E+00
         21   -1    0    0  502  501  0.00000000000E+00  0.00000000000E+00  0.15618473907E+03  0.15618473907E+03  0.00000000000E+00 0. -1.
         21   -1    0    0  503  502 -0.00000000000E+00 -0.00000000000E+00 -0.73914890290E+03  0.73914890290E+03  0.00000000000E+00 0. -1.
         25    1    1    2    0    0  0.19493647308E+03 -0.73131561688E+02  0.26963089571E+02  0.24433677998E+03  0.12500000000E+03 0.  0.
         21    1    1    2  503  504 -0.12982340193E+02  0.17849102437E+02 -0.15708678679E+02  0.27090481733E+02  0.00000000000E+00 0. -1.
         21    1    1    2  504  501 -0.18195413288E+03  0.55282459252E+02 -0.59421857473E+03  0.62390638026E+03  0.00000000000E+00 0. -1.
<mgrwt>
<rscale>  4 0.22902803E+03</rscale>
<asrwt>0</asrwt>
<pdfrwt beam="1">  1       21 0.24028421E-01 0.22902803E+03</pdfrwt>
<pdfrwt beam="2">  1       21 0.11371522E+00 0.22902803E+03</pdfrwt>
<totfact> 0.96001914E+03</totfact>
</mgrwt>
</event>
<event>
 5    0  0.1829809E+000  0.2428943E+03  0.7546771E-02  0.1117880E+00
         21   -1    0    0  502  501  0.00000000000E+00  0.00000000000E+00  0.39954206099E+03  0.39954206099E+03  0.00000000000E+00 0. -1.
         21   -1    0    0  503  502 -0.00000000000E+00 -0.00000000000E+00 -0.33199321216E+03  0.33199321216E+03  0.00000000000E+00 0.  1.
         25    1    1    2    0    0  0.37499709377E+02  0.20485708737E+03  0.32068557135E+03  0.40228956004E+03  0.12500000000E+03 0.  0.
         21    1    1    2  503  504 -0.26035817801E+02 -0.18209249731E+03 -0.23240305411E+03  0.29638947509E+03  0.00000000000E+00 0.  1.
         21    1    1    2  504  501 -0.11463891576E+02 -0.22764590058E+02 -0.20733668405E+02  0.32856238009E+02  0.00000000000E+00 0.  1.
<mgrwt>
<rscale>  4 0.24289433E+03</rscale>
<asrwt>0</asrwt>
<pdfrwt beam="1">  1       21 0.61468009E-01 0.24289433E+03</pdfrwt>
<pdfrwt beam="2">  1       21 0.51075879E-01 0.24289433E+03</pdfrwt>
<totfact> 0.86777924E+03</totfact>
</mgrwt>
</event>
<event>
 5    0  0.1829809E+000  0.4826954E+03  0.7546771E-02  0.1018397E+00
         21   -1    0    0  502  501  0.00000000000E+00  0.00000000000E+00  0.18908413269E+04  0.18908413269E+04  0.00000000000E+00 0.  1.
         21   -1    0    0  503  502 -0.00000000000E+00 -0.00000000000E+00 -0.25919977144E+04  0.25919977144E+04  0.00000000000E+00 0.  1.
         25    1    1    2    0    0  0.31867310377E+03 -0.34215694720E+03  0.18197013663E+04  0.18829662732E+04  0.12500000000E+03 0.  0.
         21    1    1    2  503  504 -0.20680103207E+03  0.30383967594E+03 -0.24097315928E+04  0.24375995498E+04  0.00000000000E+00 0.  1.
         21    1    1    2  504  501 -0.11187207170E+03  0.38317271255E+02 -0.11112616098E+03  0.16227321824E+03  0.00000000000E+00 0. -1.
<mgrwt>
<rscale>  4 0.48269538E+03</rscale>
<asrwt>0</asrwt>
<pdfrwt beam="1">  1       21 0.29089867E+00 0.48269538E+03</pdfrwt>
<pdfrwt beam="2">  1       21 0.39876888E+00 0.48269538E+03</pdfrwt>
<totfact> 0.20927035E-01</totfact>
</mgrwt>
</event>
<event>
 5    0  0.1829809E+000  0.2175461E+03  0.7546771E-02  0.1135726E+00
         21   -1    0    0  502  501  0.00000000000E+00  0.00000000000E+00  0.24910986107E+04  0.24910986107E+04  0.00000000000E+00 0.  1.
         21   -1    0    0  503  502 -0.00000000000E+00 -0.00000000000E+00 -0.26380550593E+02  0.26380550593E+02  0.00000000000E+00 0.  1.
         25    1    1    2    0    0 -0.15665371850E+03 -0.14022103352E+03  0.14773625918E+04  0.14974737238E+04  0.12500000000E+03 0.  0.
         21    1    1    2  503  504  0.16170255684E+02  0.68596938194E+02  0.12632713810E+03  0.14465670713E+03  0.00000000000E+00 0.  1.
         21    1    1    2  504  501  0.14048346282E+03  0.71624095327E+02  0.86102833019E+03  0.87534873037E+03  0.00000000000E+00 0.  1.
<mgrwt>
<rscale>  4 0.21754610E+03</rscale>
<asrwt>0</asrwt>
<pdfrwt beam="1">  1       21 0.38324576E+00 0.21754610E+03</pdfrwt>
<pdfrwt beam="2">  1       21 0.40585482E-02 0.21754610E+03</pdfrwt>
<totfact> 0.40928679E+03</totfact>
</mgrwt>
</event>
<event>
 5    0  0.1829809E+000  0.4008900E+03  0.7546771E-02  0.1043472E+00
         21   -1    0    0  502  501  0.00000000000E+00  0.00000000000E+00  0.13203565841E+04  0.13203565841E+04  0.00000000000E+00 0.  1.
         21   -1    0    0  503  502 -0.00000000000E+00 -0.00000000000E+00 -0.12311908642E+03  0.12311908642E+03  0.00000000000E+00 0. -1.
         25    1    1    2    0    0 -0.76775753859E+02 -0.37308612092E+03  0.48190940154E+03  0.62685679489E+03  0.12500000000E+03 0.  0.
         21    1    1    2  503  504  0.83783675761E+02  0.33481580284E+03  0.68588298794E+03  0.76782602151E+03  0.00000000000E+00 0. -1.
         21    1    1    2  504  501 -0.70079219022E+01  0.38270318084E+02  0.29445108181E+02  0.48792854102E+02  0.00000000000E+00 0. -1.
<mgrwt>
<rscale>  4 0.40088997E+03</rscale>
<asrwt>0</asrwt>
<pdfrwt beam="1">  1       21 0.20313177E+00 0.40088997E+03</pdfrwt>
<pdfrwt beam="2">  1       21 0.18941399E-01 0.40088997E+03</pdfrwt>
<totfact> 0.28447610E+03</totfact>
</mgrwt>
</event>
<event>
 5    0  0.1829809E+000  0.4198727E+03  0.7546771E-02  0.1037108E+00
         21   -1    0    0  502  501  0.00000000000E+00  0.00000000000E+00  0.55736532614E+03  0.55736532614E+03  0.00000000000E+00 0. -1.
         21   -1    0    0  503  502 -0.00000000000E+00 -0.00000000000E+00 -0.30809483640E+03  0.30809483640E+03  0.00000000000E+00 0. -1.
         25    1    1    2    0    0 -0.51136762727E+02 -0.39755899210E+03  0.17895977785E+03  0.45642055474E+03  0.12500000000E+03 0.  0.
         21    1    1    2  503  504 -0.46554121652E+01  0.21929001389E+02  0.99298089107E+01  0.24518463846E+02  0.00000000000E+00 0. -1.
         21    1    1    2  504  501  0.55792174892E+02  0.37562999071E+03  0.60380902969E+02  0.38452114395E+03  0.00000000000E+00 0. -1.
<mgrwt>
<rscale>  4 0.41987274E+03</rscale>
<asrwt>0</asrwt>
<pdfrwt beam="1">  1       21 0.85748512E-01 0.41987274E+03</pdfrwt>
<pdfrwt beam="2">  1       21 0.47399206E-01 0.41987274E+03</pdfrwt>
<totfact> 0.44317145E+03</totfact>
</mgrwt>
</event>
<event>
 5    0  0.1829809E+000  0.2366250E+03  0.7546771E-02  0.1122062E+00
         21   -1    0    0  502  501  0.00000000000E+00  0.00000000000E+00  0.10186852843E+03  0.10186852843E+03  0.00000000000E+00 0.  1.
         21   -1    0    0  503  502 -0.00000000000E+00 -0.00000000000E+00 -0.48596786044E+03  0.48596786044E+03  0.00000000000E+00 0. -1.
         25    1    1    2    0    0  0.43678904239E+02  0.19610845341E+03 -0.19906796021E+03  0.30922390748E+03  0.12500000000E+03 0.  0.
         21    1    1    2  503  504 -0.50031445792E+02 -0.15291775384E+03 -0.16539758423E+03  0.23074519687E+03  0.00000000000E+00 0. -1.
         21    1    1    2  504  501  0.63525415533E+01 -0.43190699570E+02 -0.19633787573E+02  0.47867284527E+02  0.00000000000E+00 0.  1.
<mgrwt>
<rscale>  4 0.23662496E+03</rscale>
<asrwt>0</asrwt>
<pdfrwt beam="1">  1       21 0.15672081E-01 0.23662496E+03</pdfrwt>
<pdfrwt beam="2">  1       21 0.74764287E-01 0.23662496E+03</pdfrwt>
<totfact> 0.56841929E+04</totfact>
</mgrwt>
</event>
<event>
 5    0  0.1829809E+000  0.2440448E+03  0.7546771E-02  0.1117127E+00
         21   -1    0    0  502  501  0.00000000000E+00  0.00000000000E+00  0.87796473979E+02  0.87796473979E+02  0.00000000000E+00 0. -1.
         21   -1    0    0  503  502 -0.00000000000E+00 -0.00000000000E+00 -0.64401708178E+03  0.64401708178E+03  0.00000000000E+00 0. -1.
         25    1    1    2    0    0  0.17666769773E+03 -0.11278912016E+03 -0.24913403941E+03  0.34874866400E+03  0.12500000000E+03 0.  0.
         21    1    1    2  503  504 -0.12048014467E+03  0.10761080715E+03 -0.16847320875E+03  0.23340688323E+03  0.00000000000E+00 0. -1.
         21    1    1    2  504  501 -0.56187553066E+02  0.51783130040E+01 -0.13861335964E+03  0.14965800853E+03  0.00000000000E+00 0. -1.
<mgrwt>
<rscale>  4 0.24404479E+03</rscale>
<asrwt>0</asrwt>
<pdfrwt beam="1">  1       21 0.13507150E-01 0.24404479E+03</pdfrwt>
<pdfrwt beam="2">  1       21 0.99079553E-01 0.24404479E+03</pdfrwt>
<totfact> 0.38799675E+04</totfact>
</mgrwt>
</event>
<event>
 5    0  0.1829809E+000  0.2582841E+03  0.7546771E-02  0.1108179E+00
         21   -1    0    0  502  501  0.00000000000E+00  0.00000000000E+00  0.32657310945E+02  0.32657310945E+02  0.00000000000E+00 0.  1.
         21   -1    0    0  503  502 -0.00000000000E+00 -0.00000000000E+00 -0.18818821952E+04  0.18818821952E+04  0.00000000000E+00 0.  1.
         25    1    1    2    0    0  0.51298189361E+02  0.22012303113E+03 -0.95158320262E+03  0.98601280142E+03  0.12500000000E+03 0.  0.
         21    1    1    2  503  504 -0.58771159448E+02 -0.13570251780E+03 -0.65573798838E+03  0.67220646525E+03  0.00000000000E+00 0.  1.
         21    1    1    2  504  501  0.74729700870E+01 -0.84420513323E+02 -0.24190369327E+03  0.25632023948E+03  0.00000000000E+00 0.  1.
<mgrwt>
<rscale>  4 0.25828405E+03</rscale>
<asrwt>0</asrwt>
<pdfrwt beam="1">  1       21 0.50242018E-02 0.25828405E+03</pdfrwt>
<pdfrwt beam="2">  1       21 0.28952033E+00 0.25828405E+03</pdfrwt>
<totfact> 0.98534961E+03</totfact>
</mgrwt>
</event>
<event>
 5    0  0.1829809E+000  0.2648594E+03  0.7546771E-02  0.1104258E+00
         21   -1    0    0  502  501  0.00000000000E+00  0.00000000000E+00  0.37548396807E+03  0.37548396807E+03  0.00000000000E+00 0. -1.
         21   -1    0    0  503  502 -0.00000000000E+00 -0.00000000000E+00 -0.17908259036E+04  0.17908259036E+04  0.00000000000E+00 0.  1.
         25    1    1    2    0    0  0.23248802731E+03  0.40201739621E+02  0.31633447823E+03  0.41395575226E+03  0.12500000000E+03 0.  0.
         21    1    1    2  503  504 -0.56284273271E+02  0.25834618730E+02 -0.76702044211E+03  0.76951654015E+03  0.00000000000E+00 0.  1.
         21    1    1    2  504  501 -0.17620375404E+03 -0.66036358351E+02 -0.96465597162E+03  0.98283757923E+03  0.00000000000E+00 0.  1.
<mgrwt>
<rscale>  4 0.26485943E+03</rscale>
<asrwt>0</asrwt>
<pdfrwt beam="1">  1       21 0.57766764E-01 0.26485943E+03</pdfrwt>
<pdfrwt beam="2">  1       21 0.27551168E+00 0.26485943E+03</pdfrwt>
<totfact> 0.12062418E+02</totfact>
</mgrwt>
</event>
<event>
 5    0  0.1829809E+000  0.2525139E+03  0.7546771E-02  0.1111726E+00
         21   -1    0    0  502  501  0.00000000000E+00  0.00000000000E+00  0.35520499949E+03  0.35520499949E+03  0.00000000000E+00 0. -1.
         21   -1    0    0  503  502 -0.00000000000E+00 -0.00000000000E+00 -0.29372414760E+03  0.29372414760E+03  0.00000000000E+00 0. -1.
         25    1    1    2    0    0 -0.19216016877E+03  0.12341526152E+03  0.23250217214E+03  0.34905460502E+03  0.12500000000E+03 0.  0.
         21    1    1    2  503  504  0.15442954534E+03 -0.11965261874E+03 -0.10023672850E+03  0.21957375842E+03  0.00000000000E+00 0. -1.
         21    1    1    2  504  501  0.37730623437E+02 -0.37626427749E+01 -0.70784591750E+02  0.80300783650E+02  0.00000000000E+00 0. -1.
<mgrwt>
<rscale>  4 0.25251385E+03</rscale>
<asrwt>0</asrwt>
<pdfrwt beam="1">  1       21 0.54646923E-01 0.25251385E+03</pdfrwt>
<pdfrwt beam="2">  1       21 0.45188330E-01 0.25251385E+03</pdfrwt>
<totfact> 0.14349470E+04</totfact>
</mgrwt>
</event>
<event>
 5    0  0.1829809E+000  0.3000044E+03  0.7546771E-02  0.1085238E+00
         21   -1    0    0  502  501  0.00000000000E+00  0.00000000000E+00  0.97292604387E+03  0.97292604387E+03  0.00000000000E+00 0.  1.
         21   -1    0    0  503  502 -0.00000000000E+00 -0.00000000000E+00 -0.13408491526E+03  0.13408491526E+03  0.00000000000E+00 0.  1.
         25    1    1    2    0    0 -0.27817126796E+03  0.41686977365E+01  0.67053587140E+03  0.73664101650E+03  0.12500000000E+03 0.  0.
         21    1    1    2  503  504  0.85692354875E+01  0.28625382549E+02  0.79020112175E+02  0.84480899919E+02  0.00000000000E+00 0.  1.
         21    1    1    2  504  501  0.26960203247E+03 -0.32794080286E+02  0.89285145033E+02  0.28588904270E+03  0.00000000000E+00 0.  1.
<mgrwt>
<rscale>  4 0.30000445E+03</rscale>
<asrwt>0</asrwt>
<pdfrwt beam="1">  1       21 0.14968093E+00 0.30000445E+03</pdfrwt>
<pdfrwt beam="2">  1       21 0.20628449E-01 0.30000445E+03</pdfrwt>
<totfact> 0.60979994E+03</totfact>
</mgrwt>
</event>
<event>
 5    0  0.1829809E+000  0.2409862E+03  0.7546771E-02  0.1119138E+00
         21   -1    0    0  502  501  0.00000000000E+00  0.00000000000E+00  0.12851213479E+04  0.12851213479E+04  0.00000000000E+00 0.  1.
         21   -1    0    0  503  502 -0.00000000000E+00 -0.00000000000E+00 -0.52400884060E+02  0.52400884060E+02  0.00000000000E+00 0. -1.
         25    1    1    2    0    0  0.18667195316E+03 -0.87194877976E+02  0.97738905817E+03  0.10066596922E+04  0.12500000000E+03 0.  0.
         21    1    1    2  503  504 -0.59714870364E+02  0.42045779824E+02  0.11566603472E+03  0.13679307340E+03  0.00000000000E+00 0. -1.
         21    1    1    2  504  501 -0.12695708280E+03  0.45149098153E+02  0.13966537097E+03  0.19406946639E+03  0.00000000000E+00 0. -1.
<mgrwt>
<rscale>  4 0.24098623E+03</rscale>
<asrwt>0</asrwt>
<pdfrwt beam="1">  1       21 0.19771095E+00 0.24098623E+03</pdfrwt>
<pdfrwt beam="2">  1       21 0.80616754E-02 0.24098623E+03</pdfrwt>
<totfact> 0.15884439E+04</totfact>
</mgrwt>
</event>
<event>
 5    0  0.1829809E+000  0.2446439E+03  0.7546771E-02  0.1116737E+00
         21   -1    0    0  502  501  0.00000000000E+00  0.00000000000E+00  0.13137865610E+03  0.13137865610E+03  0.00000000000E+00 0.  1.
         21   -1    0    0  503  502 -0.00000000000E+00 -0.00000000000E+00 -0.16118464937E+04  0.16118464937E+04  0.00000000000E+00 0. -1.
         25    1    1    2    0    0  0.10067751394E+03  0.18542869315E+03 -0.85918634552E+00  0.24524579559E+03  0.12500000000E+03 0.  0.
         21    1    1    2  503  504 -0.22555588445E+02  0.36074337021E+01 -0.29139658698E+03  0.29229050455E+03  0.00000000000E+00 0.  1.
         21    1    1    2  504  501 -0.78121925496E+02 -0.18903612685E+03 -0.11882120642E+04  0.12056888496E+04  0.00000000000E+00 0. -1.
<mgrwt>
<rscale>  4 0.24464388E+03</rscale>
<asrwt>0</asrwt>
<pdfrwt beam="1">  1       21 0.20212100E-01 0.24464388E+03</pdfrwt>
<pdfrwt beam="2">  1       21 0.24797640E+00 0.24464388E+03</pdfrwt>
<totfact> 0.14638703E+03</totfact>
</mgrwt>
</event>
<event>
 5    0  0.1829809E+000  0.2610385E+03  0.7546771E-02  0.1106521E+00
         21   -1    0    0  502  501  0.00000000000E+00  0.00000000000E+00  0.57883827187E+03  0.57883827187E+03  0.00000000000E+00 0.  1.
         21   -1    0    0  503  502 -0.00000000000E+00 -0.00000000000E+00 -0.27791303123E+03  0.27791303123E+03  0.00000000000E+00 0.  1.
         25    1    1    2    0    0 -0.21720498297E+03 -0.73062379524E+02  0.48922411854E+03  0.55451001261E+03  0.12500000000E+03 0.  0.
         21    1    1    2  503  504  0.10402631334E+03  0.10969506475E+02 -0.10725156729E+03  0.14981556203E+03  0.00000000000E+00 0.  1.
         21    1    1    2  504  501  0.11317866963E+03  0.62092873049E+02 -0.81047310606E+02  0.15242572847E+03  0.00000000000E+00 0.  1.
<mgrwt>
<rscale>  4 0.26103853E+03</rscale>
<asrwt>0</asrwt>
<pdfrwt beam="1">  1       21 0.89052042E-01 0.26103853E+03</pdfrwt>
<pdfrwt beam="2">  1       21 0.42755851E-01 0.26103853E+03</pdfrwt>
<totfact> 0.54064527E+03</totfact>
</mgrwt>
</event>
<event>
 5    0  0.1829809E+000  0.3455466E+03  0.7546771E-02  0.1064458E+00
         21   -1    0    0  502  501  0.00000000000E+00  0.00000000000E+00  0.14138911556E+03  0.14138911556E+03  0.00000000000E+00 0. -1.
         21   -1    0    0  503  502 -0.00000000000E+00 -0.00000000000E+00 -0.15411762972E+04  0.15411762972E+04  0.00000000000E+00 0. -1.
         25    1    1    2    0    0 -0.13097324767E+03  0.29510898904E+03 -0.16125747496E+03  0.38193229799E+03  0.12500000000E+03 0.  0.
         21    1    1    2  503  504  0.51549614882E+02  0.18297856787E+02 -0.36722000972E+03  0.37127174670E+03  0.00000000000E+00 0.  1.
         21    1    1    2  504  501  0.79423632784E+02 -0.31340684583E+03 -0.87130969695E+03  0.92936136807E+03  0.00000000000E+00 0. -1.
<mgrwt>
<rscale>  4 0.34554663E+03</rscale>
<asrwt>0</asrwt>
<pdfrwt beam="1">  1       21 0.21752172E-01 0.34554663E+03</pdfrwt>
<pdfrwt beam="2">  1       21 0.23710404E+00 0.34554663E+03</pdfrwt>
<totfact> 0.13719199E+03</totfact>
</mgrwt>
</event>
<event>
 5    0  0.1829809E+000  0.3553707E+03  0.7546771E-02  0.1060432E+00
         21   -1    0    0  502  501  0.00000000000E+00  0.00000000000E+00  0.66740934419E+03  0.66740934419E+03  0.00000000000E+00 0.  1.
         21   -1    0    0  503  502 -0.00000000000E+00 -0.00000000000E+00 -0.18525850561E+03  0.18525850561E+03  0.00000000000E+00 0.  1.
         25    1    1    2    0    0 -0.15768437987E+03 -0.29291457312E+03  0.17982545535E+03  0.39827817564E+03  0.12500000000E+03 0.  0.
         21    1    1    2  503  504  0.12811061285E+03  0.27715382175E+03  0.27856340115E+03  0.41330876895E+03  0.00000000000E+00 0.  1.
         21    1    1    2  504  501  0.29573767018E+02  0.15760751373E+02  0.23761982088E+02  0.41080905202E+02  0.00000000000E+00 0.  1.
<mgrwt>
<rscale>  4 0.35537067E+03</rscale>
<asrwt>0</asrwt>
<pdfrwt beam="1">  1       21 0.10267836E+00 0.35537067E+03</pdfrwt>
<pdfrwt beam="2">  1       21 0.28501309E-01 0.35537067E+03</pdfrwt>
<totfact> 0.83114678E+03</totfact>
</mgrwt>
</event>
<event>
 5    0  0.1829809E+000  0.3989189E+03  0.7546771E-02  0.1044544E+00
         21   -1    0    0  502  501  0.00000000000E+00  0.00000000000E+00  0.75568528269E+03  0.75568528269E+03  0.00000000000E+00 0. -1.
         21   -1    0    0  503  502 -0.00000000000E+00 -0.00000000000E+00 -0.20884405699E+03  0.20884405699E+03  0.00000000000E+00 0. -1.
         25    1    1    2    0    0  0.31765110634E+03  0.19766709920E+03  0.29785219399E+03  0.49428274999E+03  0.12500000000E+03 0.  0.
         21    1    1    2  503  504 -0.11829562438E+03 -0.43151851164E+02  0.16097882037E+02  0.12694518034E+03  0.00000000000E+00 0. -1.
         21    1    1    2  504  501 -0.19935548196E+03 -0.15451524804E+03  0.23289114967E+03  0.34330140934E+03  0.00000000000E+00 0. -1.
<mgrwt>
<rscale>  4 0.39779976E+03</rscale>
<asrwt>0</asrwt>
<pdfrwt beam="1">  1       21 0.11625927E+00 0.39891894E+03</pdfrwt>
<pdfrwt beam="2">  1       21 0.32129855E-01 0.39891894E+03</pdfrwt>
<totfact> 0.47429316E+03</totfact>
</mgrwt>
</event>
<event>
 5    0  0.1829809E+000  0.3078550E+03  0.7546771E-02  0.1081379E+00
         21   -1    0    0  502  501  0.00000000000E+00  0.00000000000E+00  0.63624316758E+03  0.63624316758E+03  0.00000000000E+00 0. -1.
         21   -1    0    0  503  502 -0.00000000000E+00 -0.00000000000E+00 -0.20144921836E+03  0.20144921836E+03  0.00000000000E+00 0. -1.
         25    1    1    2    0    0  0.13441565839E+03  0.24714804201E+03  0.45079236250E+03  0.54588320910E+03  0.12500000000E+03 0.  0.
         21    1    1    2  503  504 -0.69794489499E+02 -0.16004968406E+03 -0.43460770306E+02  0.17993335068E+03  0.00000000000E+00 0. -1.
         21    1    1    2  504  501 -0.64621168892E+02 -0.87098357952E+02  0.27462357019E+02  0.11187582616E+03  0.00000000000E+00 0.  1.
<mgrwt>
<rscale>  4 0.30785504E+03</rscale>
<asrwt>0</asrwt>
<pdfrwt beam="1">  1       21 0.97883563E-01 0.30785504E+03</pdfrwt>
<pdfrwt beam="2">  1       21 0.30992188E-01 0.30785504E+03</pdfrwt>
<totfact> 0.80710626E+03</totfact>
</mgrwt>
</event>
<event>
 5    0  0.1829809E+000  0.2853150E+03  0.7546771E-02  0.1092821E+00
         21   -1    0    0  502  501  0.00000000000E+00  0.00000000000E+00  0.93325033064E+03  0.93325033064E+03  0.00000000000E+00 0.  1.
         21   -1    0    0  503  502 -0.00000000000E+00 -0.00000000000E+00 -0.17615492387E+03  0.17615492387E+03  0.00000000000E+00 0.  1.
         25    1    1    2    0    0  0.24273039969E+03 -0.86952821872E+02  0.78615586796E+03  0.83674660973E+03  0.12500000000E+03 0.  0.
         21    1    1    2  503  504 -0.24087961890E+03  0.65867362351E+02 -0.23842641132E+02  0.25085846958E+03  0.00000000000E+00 0.  1.
         21    1    1    2  504  501 -0.18507807869E+01  0.21085459521E+02 -0.52178200635E+01  0.21800175205E+02  0.00000000000E+00 0. -1.
<mgrwt>
<rscale>  4 0.28531501E+03</rscale>
<asrwt>0</asrwt>
<pdfrwt beam="1">  1       21 0.14357697E+00 0.28531501E+03</pdfrwt>
<pdfrwt beam="2">  1       21 0.27100758E-01 0.28531501E+03</pdfrwt>
<totfact> 0.40695445E+03</totfact>
</mgrwt>
</event>
<event>
 5    0  0.1829809E+000  0.2584731E+03  0.7546771E-02  0.1108064E+00
         21   -1    0    0  502  501  0.00000000000E+00  0.00000000000E+00  0.18128240069E+03  0.18128240069E+03  0.00000000000E+00 0.  1.
         21   -1    0    0  503  502 -0.00000000000E+00 -0.00000000000E+00 -0.34483715190E+03  0.34483715190E+03  0.00000000000E+00 0.  1.
         25    1    1    2    0    0  0.17836998196E+03 -0.13916714281E+03 -0.68567345785E+02  0.26741321024E+03  0.12500000000E+03 0.  0.
         21    1    1    2  503  504 -0.65714899745E+02  0.56446673315E+02  0.51340166188E+01  0.86781525127E+02  0.00000000000E+00 0.  1.
         21    1    1    2  504  501 -0.11265508222E+03  0.82720469500E+02 -0.10012142205E+03  0.17192481722E+03  0.00000000000E+00 0.  1.
<mgrwt>
<rscale>  4 0.25847310E+03</rscale>
<asrwt>0</asrwt>
<pdfrwt beam="1">  1       21 0.27889600E-01 0.25847310E+03</pdfrwt>
<pdfrwt beam="2">  1       21 0.53051870E-01 0.25847310E+03</pdfrwt>
<totfact> 0.40085824E+04</totfact>
</mgrwt>
</event>
<event>
 5    0  0.1829809E+000  0.2402313E+03  0.7546771E-02  0.1119639E+00
         21   -1    0    0  502  501  0.00000000000E+00  0.00000000000E+00  0.88483403236E+02  0.88483403236E+02  0.00000000000E+00 0.  1.
         21   -1    0    0  503  502 -0.00000000000E+00 -0.00000000000E+00 -0.68292514637E+03  0.68292514637E+03  0.00000000000E+00 0. -1.
         25    1    1    2    0    0 -0.18874520098E+03  0.80382444207E+02 -0.16150543208E+03  0.28947382061E+03  0.12500000000E+03 0.  0.
         21    1    1    2  503  504  0.11528709519E+03 -0.75047789093E+02 -0.29760290624E+03  0.32785785757E+03  0.00000000000E+00 0. -1.
         21    1    1    2  504  501  0.73458105782E+02 -0.53346551136E+01 -0.13533340481E+03  0.15407687142E+03  0.00000000000E+00 0. -1.
<mgrwt>
<rscale>  4 0.24023132E+03</rscale>
<asrwt>0</asrwt>
<pdfrwt beam="1">  1       21 0.13612831E-01 0.24023132E+03</pdfrwt>
<pdfrwt beam="2">  1       21 0.10506541E+00 0.24023132E+03</pdfrwt>
<totfact> 0.33283488E+04</totfact>
</mgrwt>
</event>
<event>
 5    0  0.1829809E+000  0.2444107E+03  0.7546771E-02  0.1116889E+00
         21   -1    0    0  502  501  0.00000000000E+00  0.00000000000E+00  0.31141788870E+03  0.31141788870E+03  0.00000000000E+00 0.  1.
         21   -1    0    0  503  502 -0.00000000000E+00 -0.00000000000E+00 -0.19967185879E+03  0.19967185879E+03  0.00000000000E+00 0.  1.
         25    1    1    2    0    0  0.18897765768E+03  0.10311990882E+03  0.27677577478E+01  0.24895568116E+03  0.12500000000E+03 0.  0.
         21    1    1    2  503  504 -0.19238547266E+03 -0.70344759788E+02  0.87167957277E+02  0.22261807675E+03  0.00000000000E+00 0.  1.
         21    1    1    2  504  501  0.34078149717E+01 -0.32775149035E+02  0.21810314882E+02  0.39515989578E+02  0.00000000000E+00 0. -1.
<mgrwt>
<rscale>  4 0.24441074E+03</rscale>
<asrwt>0</asrwt>
<pdfrwt beam="1">  1       21 0.47910445E-01 0.24441074E+03</pdfrwt>
<pdfrwt beam="2">  1       21 0.30718747E-01 0.24441074E+03</pdfrwt>
<totfact> 0.41348755E+04</totfact>
</mgrwt>
</event>
<event>
 5    0  0.1829809E+000  0.2179666E+03  0.7546771E-02  0.1135408E+00
         21   -1    0    0  502  501  0.00000000000E+00  0.00000000000E+00  0.53567552438E+02  0.53567552438E+02  0.00000000000E+00 0. -1.
         21   -1    0    0  503  502 -0.00000000000E+00 -0.00000000000E+00 -0.16098516056E+04  0.16098516056E+04  0.00000000000E+00 0. -1.
         25    1    1    2    0    0 -0.20417726098E+03  0.29907336055E+02 -0.30542107237E+03  0.38921694991E+03  0.12500000000E+03 0.  0.
         21    1    1    2  503  504  0.10321046014E+03  0.41613919104E+02 -0.43494586973E+03  0.44895659806E+03  0.00000000000E+00 0. -1.
         21    1    1    2  504  501  0.10096680084E+03 -0.71521255158E+02 -0.81591711102E+03  0.82524561002E+03  0.00000000000E+00 0. -1.
<mgrwt>
<rscale>  4 0.21796662E+03</rscale>
<asrwt>0</asrwt>
<pdfrwt beam="1">  1       21 0.82411623E-02 0.21796662E+03</pdfrwt>
<pdfrwt beam="2">  1       21 0.24766947E+00 0.21796662E+03</pdfrwt>
<totfact> 0.76365689E+03</totfact>
</mgrwt>
</event>
<event>
 5    0  0.1829809E+000  0.2672505E+03  0.7546771E-02  0.1102864E+00
         21   -1    0    0  502  501  0.00000000000E+00  0.00000000000E+00  0.27173625647E+03  0.27173625647E+03  0.00000000000E+00 0.  1.
         21   -1    0    0  503  502 -0.00000000000E+00 -0.00000000000E+00 -0.30972597009E+03  0.30972597009E+03  0.00000000000E+00 0.  1.
         25    1    1    2    0    0 -0.40280859735E+02 -0.23638014590E+03  0.90592407681E+02  0.28518433576E+03  0.12500000000E+03 0.  0.
         21    1    1    2  503  504  0.34916044291E+02  0.52283731117E+01 -0.22698252058E+02  0.41972332325E+02  0.00000000000E+00 0. -1.
         21    1    1    2  504  501  0.53648154437E+01  0.23115177279E+03 -0.10588386924E+03  0.25430555848E+03  0.00000000000E+00 0.  1.
<mgrwt>
<rscale>  4 0.26725054E+03</rscale>
<asrwt>0</asrwt>
<pdfrwt beam="1">  1       21 0.41805578E-01 0.26725054E+03</pdfrwt>
<pdfrwt beam="2">  1       21 0.47650149E-01 0.26725054E+03</pdfrwt>
<totfact> 0.22323332E+04</totfact>
</mgrwt>
</event>
<event>
 5    0  0.1829809E+000  0.2584630E+03  0.7546771E-02  0.1108070E+00
         21   -1    0    0  502  501  0.00000000000E+00  0.00000000000E+00  0.92021194991E+03  0.92021194991E+03  0.00000000000E+00 0. -1.
         21   -1    0    0  503  502 -0.00000000000E+00 -0.00000000000E+00 -0.46291352211E+03  0.46291352211E+03  0.00000000000E+00 0.  1.
         25    1    1    2    0    0  0.21846744014E+03 -0.58737715816E+02  0.87036439199E+03  0.90793023769E+03  0.12500000000E+03 0.  0.
         21    1    1    2  503  504 -0.16335303692E+03  0.60577636249E+02 -0.35300749975E+03  0.39365995423E+03  0.00000000000E+00 0.  1.
         21    1    1    2  504  501 -0.55114403224E+02 -0.18399204327E+01 -0.60058464444E+02  0.81535280102E+02  0.00000000000E+00 0.  1.
<mgrwt>
<rscale>  4 0.25846304E+03</rscale>
<asrwt>0</asrwt>
<pdfrwt beam="1">  1       21 0.14157107E+00 0.25846304E+03</pdfrwt>
<pdfrwt beam="2">  1       21 0.71217465E-01 0.25846304E+03</pdfrwt>
<totfact> 0.58179646E+02</totfact>
</mgrwt>
</event>
<event>
 5    0  0.1829809E+000  0.2574765E+03  0.7546771E-02  0.1108669E+00
         21   -1    0    0  502  501  0.00000000000E+00  0.00000000000E+00  0.78215465383E+03  0.78215465383E+03  0.00000000000E+00 0. -1.
         21   -1    0    0  503  502 -0.00000000000E+00 -0.00000000000E+00 -0.10436678064E+03  0.10436678064E+03  0.00000000000E+00 0. -1.
         25    1    1    2    0    0  0.14387723447E+03  0.17311405608E+03  0.58517285595E+03  0.63931323023E+03  0.12500000000E+03 0.  0.
         21    1    1    2  503  504 -0.36392152783E+01 -0.23230884616E+02  0.14265555287E+02  0.27503162646E+02  0.00000000000E+00 0. -1.
         21    1    1    2  504  501 -0.14023801919E+03 -0.14988317146E+03  0.78349461947E+02  0.21970504159E+03  0.00000000000E+00 0. -1.
<mgrwt>
<rscale>  4 0.25747647E+03</rscale>
<asrwt>0</asrwt>
<pdfrwt beam="1">  1       21 0.12033148E+00 0.25747647E+03</pdfrwt>
<pdfrwt beam="2">  1       21 0.16056428E-01 0.25747647E+03</pdfrwt>
<totfact> 0.17495725E+04</totfact>
</mgrwt>
</event>
<event>
 5    0  0.1829809E+000  0.3331333E+03  0.7546771E-02  0.1069759E+00
         21   -1    0    0  502  501  0.00000000000E+00  0.00000000000E+00  0.54357122084E+03  0.54357122084E+03  0.00000000000E+00 0. -1.
         21   -1    0    0  503  502 -0.00000000000E+00 -0.00000000000E+00 -0.41591353480E+03  0.41591353480E+03  0.00000000000E+00 0. -1.
         25    1    1    2    0    0  0.23405359632E+03 -0.20142418538E+03  0.41500439066E+03  0.53217143166E+03  0.12500000000E+03 0.  0.
         21    1    1    2  503  504 -0.21075455516E+03  0.16993825667E+03 -0.27580900528E+03  0.38648040182E+03  0.00000000000E+00 0. -1.
         21    1    1    2  504  501 -0.23299041163E+02  0.31485928704E+02 -0.11537699348E+02  0.40832922155E+02  0.00000000000E+00 0. -1.
<mgrwt>
<rscale>  4 0.33313329E+03</rscale>
<asrwt>0</asrwt>
<pdfrwt beam="1">  1       21 0.83626342E-01 0.33313329E+03</pdfrwt>
<pdfrwt beam="2">  1       21 0.63986697E-01 0.33313329E+03</pdfrwt>
<totfact> 0.25555613E+03</totfact>
</mgrwt>
</event>
<event>
 5    0  0.1829809E+000  0.2593591E+03  0.7546771E-02  0.1107529E+00
         21   -1    0    0  502  501  0.00000000000E+00  0.00000000000E+00  0.40693625344E+03  0.40693625344E+03  0.00000000000E+00 0. -1.
         21   -1    0    0  503  502 -0.00000000000E+00 -0.00000000000E+00 -0.23733414227E+03  0.23733414227E+03  0.00000000000E+00 0. -1.
         25    1    1    2    0    0  0.20308479249E+03  0.10197394387E+03  0.28368641448E+03  0.38437624788E+03  0.12500000000E+03 0.  0.
         21    1    1    2  503  504 -0.30466446497E+02 -0.22351995454E+01 -0.72353439882E+00  0.30556897441E+02  0.00000000000E+00 0. -1.
         21    1    1    2  504  501 -0.17261834600E+03 -0.99738744322E+02 -0.11336076891E+03  0.22933725040E+03  0.00000000000E+00 0. -1.
<mgrwt>
<rscale>  4 0.25935905E+03</rscale>
<asrwt>0</asrwt>
<pdfrwt beam="1">  1       21 0.62605577E-01 0.25935905E+03</pdfrwt>
<pdfrwt beam="2">  1       21 0.36512945E-01 0.25935905E+03</pdfrwt>
<totfact> 0.16480025E+04</totfact>
</mgrwt>
</event>
<event>
 5    0  0.1829809E+000  0.2716118E+03  0.7546771E-02  0.1100361E+00
         21   -1    0    0  502  501  0.00000000000E+00  0.00000000000E+00  0.14105016738E+04  0.14105016738E+04  0.00000000000E+00 0.  1.
         21   -1    0    0  503  502 -0.00000000000E+00 -0.00000000000E+00 -0.54887106872E+02  0.54887106872E+02  0.00000000000E+00 0.  1.
         25    1    1    2    0    0  0.14634015950E+03  0.19165733024E+03  0.97554549014E+03  0.10126509655E+04  0.12500000000E+03 0.  0.
         21    1    1    2  503  504 -0.24627022380E+02 -0.21293795830E+02  0.84235996284E+02  0.90308466060E+02  0.00000000000E+00 0.  1.
         21    1    1    2  504  501 -0.12171313712E+03 -0.17036353441E+03  0.29583308048E+03  0.36242934913E+03  0.00000000000E+00 0.  1.
<mgrwt>
<rscale>  4 0.27161181E+03</rscale>
<asrwt>0</asrwt>
<pdfrwt beam="1">  1       21 0.21700023E+00 0.27161181E+03</pdfrwt>
<pdfrwt beam="2">  1       21 0.84441714E-02 0.27161181E+03</pdfrwt>
<totfact> 0.10809316E+04</totfact>
</mgrwt>
</event>
<event>
 5    0  0.1829809E+000  0.2358633E+03  0.7546771E-02  0.1122580E+00
         21   -1    0    0  502  501  0.00000000000E+00  0.00000000000E+00  0.28257773532E+03  0.28257773532E+03  0.00000000000E+00 0.  1.
         21   -1    0    0  503  502 -0.00000000000E+00 -0.00000000000E+00 -0.37410780990E+03  0.37410780990E+03  0.00000000000E+00 0. -1.
         25    1    1    2    0    0 -0.19220948276E+03  0.55335333997E+02  0.19480823023E+03  0.30591131234E+03  0.12500000000E+03 0.  0.
         21    1    1    2  503  504  0.32350189838E+02  0.28615066489E+01 -0.47514665369E+02  0.57553161755E+02  0.00000000000E+00 0.  1.
         21    1    1    2  504  501  0.15985929293E+03 -0.58196840646E+02 -0.23882363944E+03  0.29322107112E+03  0.00000000000E+00 0. -1.
<mgrwt>
<rscale>  4 0.23586327E+03</rscale>
<asrwt>0</asrwt>
<pdfrwt beam="1">  1       21 0.43473498E-01 0.23586327E+03</pdfrwt>
<pdfrwt beam="2">  1       21 0.57555047E-01 0.23586327E+03</pdfrwt>
<totfact> 0.14034203E+04</totfact>
</mgrwt>
</event>
<event>
 5    0  0.1829809E+000  0.2511632E+03  0.7546771E-02  0.1112572E+00
         21   -1    0    0  502  501  0.00000000000E+00  0.00000000000E+00  0.53544853476E+02  0.53544853476E+02  0.00000000000E+00 0. -1.
         21   -1    0    0  503  502 -0.00000000000E+00 -0.00000000000E+00 -0.11219381933E+04  0.11219381933E+04  0.00000000000E+00 0. -1.
         25    1    1    2    0    0  0.13613328549E+03 -0.17007556679E+03 -0.67432590886E+03  0.71958210177E+03  0.12500000000E+03 0.  0.
         21    1    1    2  503  504 -0.12258007647E+03  0.10312121761E+03 -0.29264839165E+03  0.33362095528E+03  0.00000000000E+00 0. -1.
         21    1    1    2  504  501 -0.13553209022E+02  0.66954349185E+02 -0.10141903933E+03  0.12227998973E+03  0.00000000000E+00 0.  1.
<mgrwt>
<rscale>  4 0.25116323E+03</rscale>
<asrwt>0</asrwt>
<pdfrwt beam="1">  1       21 0.82376702E-02 0.25116323E+03</pdfrwt>
<pdfrwt beam="2">  1       21 0.17260587E+00 0.25116323E+03</pdfrwt>
<totfact> 0.22490194E+04</totfact>
</mgrwt>
</event>
<event>
 5    0  0.1829809E+000  0.2928861E+03  0.7546771E-02  0.1088852E+00
         21   -1    0    0  502  501  0.00000000000E+00  0.00000000000E+00  0.11372937228E+04  0.11372937228E+04  0.00000000000E+00 0. -1.
         21   -1    0    0  503  502 -0.00000000000E+00 -0.00000000000E+00 -0.17372573994E+03  0.17372573994E+03  0.00000000000E+00 0. -1.
         25    1    1    2    0    0  0.14764592393E+03 -0.23819556967E+03  0.88852815954E+03  0.94002326490E+03  0.12500000000E+03 0.  0.
         21    1    1    2  503  504 -0.20966469522E+02  0.23244928116E+03  0.71641809615E+02  0.24414096346E+03  0.00000000000E+00 0. -1.
         21    1    1    2  504  501 -0.12667945441E+03  0.57462885168E+01  0.33980137491E+01  0.12685523441E+03  0.00000000000E+00 0. -1.
<mgrwt>
<rscale>  4 0.29288605E+03</rscale>
<asrwt>0</asrwt>
<pdfrwt beam="1">  1       21 0.17496826E+00 0.29288605E+03</pdfrwt>
<pdfrwt beam="2">  1       21 0.26727038E-01 0.29288605E+03</pdfrwt>
<totfact> 0.24253171E+03</totfact>
</mgrwt>
</event>
<event>
 5    0  0.1829809E+000  0.2902031E+03  0.7546771E-02  0.1090243E+00
         21   -1    0    0  502  501  0.00000000000E+00  0.00000000000E+00  0.62054440998E+03  0.62054440998E+03  0.00000000000E+00 0. -1.
         21   -1    0    0  503  502 -0.00000000000E+00 -0.00000000000E+00 -0.86245406654E+03  0.86245406654E+03  0.00000000000E+00 0.  1.
         25    1    1    2    0    0  0.48903762368E+01  0.26185670979E+03  0.56292337300E+03  0.63332501617E+03  0.12500000000E+03 0.  0.
         21    1    1    2  503  504  0.31177986160E+02 -0.70997329874E+02 -0.20498046684E+03  0.21915674632E+03  0.00000000000E+00 0.  1.
         21    1    1    2  504  501 -0.36068362396E+02 -0.19085937992E+03 -0.59985256272E+03  0.63051671403E+03  0.00000000000E+00 0.  1.
<mgrwt>
<rscale>  4 0.29020312E+03</rscale>
<asrwt>0</asrwt>
<pdfrwt beam="1">  1       21 0.95468371E-01 0.29020312E+03</pdfrwt>
<pdfrwt beam="2">  1       21 0.13268524E+00 0.29020312E+03</pdfrwt>
<totfact> 0.34226629E+02</totfact>
</mgrwt>
</event>
<event>
 5    0  0.1829809E+000  0.2520821E+03  0.7546771E-02  0.1111996E+00
         21   -1    0    0  502  501  0.00000000000E+00  0.00000000000E+00  0.34615001142E+03  0.34615001142E+03  0.00000000000E+00 0. -1.
         21   -1    0    0  503  502 -0.00000000000E+00 -0.00000000000E+00 -0.16790706581E+03  0.16790706581E+03  0.00000000000E+00 0. -1.
         25    1    1    2    0    0  0.20865454360E+03 -0.66209221729E+02  0.49125857435E+02  0.25682431636E+03  0.12500000000E+03 0.  0.
         21    1    1    2  503  504 -0.24016498895E+02 -0.50965533117E+01  0.14397531131E+02  0.28461482350E+02  0.00000000000E+00 0. -1.
         21    1    1    2  504  501 -0.18463804470E+03  0.71305775041E+02  0.11471955705E+03  0.22877127852E+03  0.00000000000E+00 0. -1.
<mgrwt>
<rscale>  4 0.25208209E+03</rscale>
<asrwt>0</asrwt>
<pdfrwt beam="1">  1       21 0.53253848E-01 0.25208209E+03</pdfrwt>
<pdfrwt beam="2">  1       21 0.25831856E-01 0.25208209E+03</pdfrwt>
<totfact> 0.46246244E+04</totfact>
</mgrwt>
</event>
<event>
 5    0  0.1829809E+000  0.5451713E+03  0.7546771E-02  0.1002618E+00
         21   -1    0    0  502  501  0.00000000000E+00  0.00000000000E+00  0.69357524143E+03  0.69357524143E+03  0.00000000000E+00 0.  1.
         21   -1    0    0  503  502 -0.00000000000E+00 -0.00000000000E+00 -0.73607161798E+03  0.73607161798E+03  0.00000000000E+00 0. -1.
         25    1    1    2    0    0 -0.42639554609E+03  0.33400510844E+03  0.39446457316E+03  0.68161563485E+03  0.12500000000E+03 0.  0.
         21    1    1    2  503  504  0.37633190275E+03 -0.37143783849E+03 -0.43628164000E+03  0.68551691320E+03  0.00000000000E+00 0. -1.
         21    1    1    2  504  501  0.50063643343E+02  0.37432730048E+02 -0.67930971514E+00  0.62514311364E+02  0.00000000000E+00 0. -1.
<mgrwt>
<rscale>  4 0.54517125E+03</rscale>
<asrwt>0</asrwt>
<pdfrwt beam="1">  1       21 0.10670388E+00 0.54517125E+03</pdfrwt>
<pdfrwt beam="2">  1       21 0.11324179E+00 0.54517125E+03</pdfrwt>
<totfact> 0.34086961E+02</totfact>
</mgrwt>
</event>
<event>
 5    0  0.1829809E+000  0.2607739E+03  0.7546771E-02  0.1106679E+00
         21   -1    0    0  502  501  0.00000000000E+00  0.00000000000E+00  0.45370787442E+03  0.45370787442E+03  0.00000000000E+00 0. -1.
         21   -1    0    0  503  502 -0.00000000000E+00 -0.00000000000E+00 -0.13898796855E+03  0.13898796855E+03  0.00000000000E+00 0. -1.
         25    1    1    2    0    0  0.14063804074E+03 -0.18055186066E+03  0.13417759688E+03  0.29326892164E+03  0.12500000000E+03 0.  0.
         21    1    1    2  503  504 -0.29390998833E+02  0.47414446372E+02  0.84118500343E+02  0.10093504167E+03  0.00000000000E+00 0. -1.
         21    1    1    2  504  501 -0.11124704190E+03  0.13313741429E+03  0.96423808642E+02  0.19849187966E+03  0.00000000000E+00 0. -1.
<mgrwt>
<rscale>  4 0.26077391E+03</rscale>
<asrwt>0</asrwt>
<pdfrwt beam="1">  1       21 0.69801211E-01 0.26077391E+03</pdfrwt>
<pdfrwt beam="2">  1       21 0.21382765E-01 0.26077391E+03</pdfrwt>
<totfact> 0.36769045E+04</totfact>
</mgrwt>
</event>
<event>
 5    0  0.1829809E+000  0.2540032E+03  0.7546771E-02  0.1110801E+00
         21   -1    0    0  502  501  0.00000000000E+00  0.00000000000E+00  0.13021495707E+03  0.13021495707E+03  0.00000000000E+00 0.  1.
         21   -1    0    0  503  502 -0.00000000000E+00 -0.00000000000E+00 -0.55396578534E+03  0.55396578534E+03  0.00000000000E+00 0. -1.
         25    1    1    2    0    0  0.21707805934E+03  0.42068509136E+02 -0.66161473418E+02  0.26247853983E+03  0.12500000000E+03 0.  0.
         21    1    1    2  503  504 -0.28300024893E+02 -0.57378590854E+01 -0.28470871795E+02  0.40551263564E+02  0.00000000000E+00 0. -1.
         21    1    1    2  504  501 -0.18877803445E+03 -0.36330650050E+02 -0.32911848305E+03  0.38115093901E+03  0.00000000000E+00 0. -1.
<mgrwt>
<rscale>  4 0.25400323E+03</rscale>
<asrwt>0</asrwt>
<pdfrwt beam="1">  1       21 0.20033070E-01 0.25400323E+03</pdfrwt>
<pdfrwt beam="2">  1       21 0.85225506E-01 0.25400323E+03</pdfrwt>
<totfact> 0.26546394E+04</totfact>
</mgrwt>
</event>
<event>
 5    0  0.1829809E+000  0.2838209E+03  0.7546771E-02  0.1093620E+00
         21   -1    0    0  502  501  0.00000000000E+00  0.00000000000E+00  0.23449401803E+03  0.23449401803E+03  0.00000000000E+00 0.  1.
         21   -1    0    0  503  502 -0.00000000000E+00 -0.00000000000E+00 -0.33699007147E+03  0.33699007147E+03  0.00000000000E+00 0. -1.
         25    1    1    2    0    0  0.20532049774E+03  0.15090655957E+03 -0.11718941773E+03  0.30706295143E+03  0.12500000000E+03 0.  0.
         21    1    1    2  503  504 -0.16137353546E+03 -0.13273067302E+03  0.36485667291E+02  0.21210858876E+03  0.00000000000E+00 0. -1.
         21    1    1    2  504  501 -0.43946962280E+02 -0.18175886555E+02 -0.21792303003E+02  0.52312549316E+02  0.00000000000E+00 0. -1.
<mgrwt>
<rscale>  4 0.28382089E+03</rscale>
<asrwt>0</asrwt>
<pdfrwt beam="1">  1       21 0.36076003E-01 0.28382089E+03</pdfrwt>
<pdfrwt beam="2">  1       21 0.51844626E-01 0.28382089E+03</pdfrwt>
<totfact> 0.25039889E+04</totfact>
</mgrwt>
</event>
<event>
 5    0  0.1829809E+000  0.2886807E+03  0.7546771E-02  0.1091040E+00
         21   -1    0    0  502  501  0.00000000000E+00  0.00000000000E+00  0.11806260343E+03  0.11806260343E+03  0.00000000000E+00 0.  1.
         21   -1    0    0  503  502 -0.00000000000E+00 -0.00000000000E+00 -0.68505188426E+03  0.68505188426E+03  0.00000000000E+00 0.  1.
         25    1    1    2    0    0  0.12545899759E+03 -0.22797272666E+03 -0.38471912364E+03  0.48098370894E+03  0.12500000000E+03 0.  0.
         21    1    1    2  503  504 -0.70644499660E+02  0.15794562628E+03 -0.14483760842E+03  0.22564440832E+03  0.00000000000E+00 0.  1.
         21    1    1    2  504  501 -0.54814497928E+02  0.70027100377E+02 -0.37432548774E+02  0.96486370426E+02  0.00000000000E+00 0.  1.
<mgrwt>
<rscale>  4 0.28868066E+03</rscale>
<asrwt>0</asrwt>
<pdfrwt beam="1">  1       21 0.18163478E-01 0.28868066E+03</pdfrwt>
<pdfrwt beam="2">  1       21 0.10539260E+00 0.28868066E+03</pdfrwt>
<totfact> 0.19000475E+04</totfact>
</mgrwt>
</event>
<event>
 5    0  0.1829809E+000  0.4493618E+03  0.7546771E-02  0.1027913E+00
         21   -1    0    0  502  501  0.00000000000E+00  0.00000000000E+00  0.38452451713E+03  0.38452451713E+03  0.00000000000E+00 0.  1.
         21   -1    0    0  503  502 -0.00000000000E+00 -0.00000000000E+00 -0.19717388347E+04  0.19717388347E+04  0.00000000000E+00 0.  1.
         25    1    1    2    0    0  0.35504312498E+03  0.24544940528E+03  0.21675599416E+03  0.49890799969E+03  0.12500000000E+03 0.  0.
         21    1    1    2  503  504 -0.31472128025E+03 -0.22162443024E+03 -0.17043259495E+04  0.17472532199E+04  0.00000000000E+00 0.  1.
         21    1    1    2  504  501 -0.40321844732E+02 -0.23824975046E+02 -0.99644362299E+02  0.11010213230E+03  0.00000000000E+00 0.  1.
<mgrwt>
<rscale>  4 0.44936180E+03</rscale>
<asrwt>0</asrwt>
<pdfrwt beam="1">  1       21 0.59157619E-01 0.44936180E+03</pdfrwt>
<pdfrwt beam="2">  1       21 0.30334443E+00 0.44936180E+03</pdfrwt>
<totfact> 0.66829590E+01</totfact>
</mgrwt>
</event>
<event>
 5    0  0.1829809E+000  0.2949740E+03  0.7546771E-02  0.1087780E+00
         21   -1    0    0  502  501  0.00000000000E+00  0.00000000000E+00  0.23460342003E+03  0.23460342003E+03  0.00000000000E+00 0.  1.
         21   -1    0    0  503  502 -0.00000000000E+00 -0.00000000000E+00 -0.53761221958E+03  0.53761221958E+03  0.00000000000E+00 0.  1.
         25    1    1    2    0    0  0.30233997670E+02  0.30000063463E+03 -0.14267296777E+02  0.32671552022E+03  0.12500000000E+03 0.  0.
         21    1    1    2  503  504  0.29006601793E+02 -0.25560389031E+03 -0.26094087295E+03  0.36642171178E+03  0.00000000000E+00 0.  1.
         21    1    1    2  504  501 -0.59240599462E+02 -0.44396744327E+02 -0.27800629823E+02  0.79078407610E+02  0.00000000000E+00 0. -1.
<mgrwt>
<rscale>  4 0.29497401E+03</rscale>
<asrwt>0</asrwt>
<pdfrwt beam="1">  1       21 0.36092834E-01 0.29497401E+03</pdfrwt>
<pdfrwt beam="2">  1       21 0.82709572E-01 0.29497401E+03</pdfrwt>
<totfact> 0.88923189E+03</totfact>
</mgrwt>
</event>
<event>
 5    0  0.1829809E+000  0.3841449E+03  0.7546771E-02  0.1049412E+00
         21   -1    0    0  502  501  0.00000000000E+00  0.00000000000E+00  0.27812038226E+03  0.27812038226E+03  0.00000000000E+00 0.  1.
         21   -1    0    0  503  502 -0.00000000000E+00 -0.00000000000E+00 -0.62876447133E+03  0.62876447133E+03  0.00000000000E+00 0.  1.
         25    1    1    2    0    0 -0.20171341887E+03 -0.30208281061E+03  0.10934895527E+02  0.38430053312E+03  0.12500000000E+03 0.  0.
         21    1    1    2  503  504  0.66675433020E+02  0.10169328642E+03 -0.58432102133E+02  0.13491274377E+03  0.00000000000E+00 0.  1.
         21    1    1    2  504  501  0.13503798585E+03  0.20038952419E+03 -0.30314688247E+03  0.38767157669E+03  0.00000000000E+00 0.  1.
<mgrwt>
<rscale>  4 0.38414493E+03</rscale>
<asrwt>0</asrwt>
<pdfrwt beam="1">  1       21 0.42787751E-01 0.38414493E+03</pdfrwt>
<pdfrwt beam="2">  1       21 0.96732995E-01 0.38414493E+03</pdfrwt>
<totfact> 0.41827823E+03</totfact>
</mgrwt>
</event>
<event>
 5    0  0.1829809E+000  0.2372084E+03  0.7546771E-02  0.1121667E+00
         21   -1    0    0  502  501  0.00000000000E+00  0.00000000000E+00  0.84550107299E+03  0.84550107299E+03  0.00000000000E+00 0. -1.
         21   -1    0    0  503  502 -0.00000000000E+00 -0.00000000000E+00 -0.61082884367E+02  0.61082884367E+02  0.00000000000E+00 0.  1.
         25    1    1    2    0    0 -0.10744022353E+03  0.17058548283E+03  0.52172975939E+03  0.57312280570E+03  0.12500000000E+03 0.  0.
         21    1    1    2  503  504  0.23370373936E+02 -0.63333506838E+02  0.10742751400E+03  0.12687780827E+03  0.00000000000E+00 0. -1.
         21    1    1    2  504  501  0.84069849594E+02 -0.10725197599E+03  0.15526091523E+03  0.20658334338E+03  0.00000000000E+00 0.  1.
<mgrwt>
<rscale>  4 0.23720837E+03</rscale>
<asrwt>0</asrwt>
<pdfrwt beam="1">  1       21 0.13007708E+00 0.23720837E+03</pdfrwt>
<pdfrwt beam="2">  1       21 0.93973674E-02 0.23720837E+03</pdfrwt>
<totfact> 0.38154247E+04</totfact>
</mgrwt>
</event>
<event>
 5    0  0.1829809E+000  0.2375321E+03  0.7546771E-02  0.1121448E+00
         21   -1    0    0  502  501  0.00000000000E+00  0.00000000000E+00  0.82317223329E+02  0.82317223329E+02  0.00000000000E+00 0. -1.
         21   -1    0    0  503  502 -0.00000000000E+00 -0.00000000000E+00 -0.76716587395E+03  0.76716587395E+03  0.00000000000E+00 0. -1.
         25    1    1    2    0    0  0.28535891099E+02  0.22125672245E+03 -0.41994704918E+03  0.49168013833E+03  0.12500000000E+03 0.  0.
         21    1    1    2  503  504  0.99393605090E+00 -0.19232103075E+03 -0.18021656960E+03  0.26356475245E+03  0.00000000000E+00 0. -1.
         21    1    1    2  504  501 -0.29529827150E+02 -0.28935691702E+02 -0.84685031845E+02  0.94238206500E+02  0.00000000000E+00 0. -1.
<mgrwt>
<rscale>  4 0.23753205E+03</rscale>
<asrwt>0</asrwt>
<pdfrwt beam="1">  1       21 0.12664188E-01 0.23753205E+03</pdfrwt>
<pdfrwt beam="2">  1       21 0.11802552E+00 0.23753205E+03</pdfrwt>
<totfact> 0.28593544E+04</totfact>
</mgrwt>
</event>
<event>
 5    0  0.1829809E+000  0.3685282E+03  0.7546771E-02  0.1056987E+00
         21   -1    0    0  502  501  0.00000000000E+00  0.00000000000E+00  0.12505202331E+04  0.12505202331E+04  0.00000000000E+00 0. -1.
         21   -1    0    0  503  502 -0.00000000000E+00 -0.00000000000E+00 -0.12003300601E+03  0.12003300601E+03  0.00000000000E+00 0. -1.
         25    1    1    2    0    0 -0.11889934189E+03 -0.30565569707E+03  0.80765309291E+03  0.88061965521E+03  0.12500000000E+03 0.  0.
         21    1    1    2  503  504  0.15242956514E+03  0.18497425723E+03  0.17864012228E+03  0.29893568113E+03  0.00000000000E+00 0. -1.
         21    1    1    2  504  501 -0.33530223255E+02  0.12068143985E+03  0.14419401195E+03  0.19099790281E+03  0.00000000000E+00 0. -1.
<mgrwt>
<rscale>  4 0.36406075E+03</rscale>
<asrwt>0</asrwt>
<pdfrwt beam="1">  1       21 0.19238772E+00 0.36852821E+03</pdfrwt>
<pdfrwt beam="2">  1       21 0.18466617E-01 0.36852821E+03</pdfrwt>
<totfact> 0.35747167E+03</totfact>
</mgrwt>
</event>
<event>
 5    0  0.1829809E+000  0.2660484E+03  0.7546771E-02  0.1103563E+00
         21   -1    0    0  502  501  0.00000000000E+00  0.00000000000E+00  0.48767709366E+03  0.48767709366E+03  0.00000000000E+00 0. -1.
         21   -1    0    0  503  502 -0.00000000000E+00 -0.00000000000E+00 -0.19363441565E+03  0.19363441565E+03  0.00000000000E+00 0. -1.
         25    1    1    2    0    0 -0.23373956802E+03  0.54069235515E+02  0.30957052915E+03  0.41111626142E+03  0.12500000000E+03 0.  0.
         21    1    1    2  503  504  0.26454788870E+02  0.35139260535E+02 -0.52330847568E+01  0.44294566948E+02  0.00000000000E+00 0.  1.
         21    1    1    2  504  501  0.20728477915E+03 -0.89208496050E+02 -0.10294766383E+02  0.22590068094E+03  0.00000000000E+00 0. -1.
<mgrwt>
<rscale>  4 0.26604838E+03</rscale>
<asrwt>0</asrwt>
<pdfrwt beam="1">  1       21 0.75027245E-01 0.26604838E+03</pdfrwt>
<pdfrwt beam="2">  1       21 0.29789910E-01 0.26604838E+03</pdfrwt>
<totfact> 0.16480161E+04</totfact>
</mgrwt>
</event>
<event>
 5    0  0.1829809E+000  0.2725014E+03  0.7546771E-02  0.1099856E+00
         21   -1    0    0  502  501  0.00000000000E+00  0.00000000000E+00  0.31215277373E+03  0.31215277373E+03  0.00000000000E+00 0.  1.
         21   -1    0    0  503  502 -0.00000000000E+00 -0.00000000000E+00 -0.27098529717E+03  0.27098529717E+03  0.00000000000E+00 0.  1.
         25    1    1    2    0    0 -0.22413844801E+01 -0.24213008734E+03  0.14125512246E+03  0.30693649607E+03  0.12500000000E+03 0.  0.
         21    1    1    2  503  504 -0.42136088280E+02  0.10985592268E+03 -0.51856913202E+02  0.12858037615E+03  0.00000000000E+00 0.  1.
         21    1    1    2  504  501  0.44377472760E+02  0.13227416466E+03 -0.48230732697E+02  0.14762119869E+03  0.00000000000E+00 0.  1.
<mgrwt>
<rscale>  4 0.27250138E+03</rscale>
<asrwt>0</asrwt>
<pdfrwt beam="1">  1       21 0.48023504E-01 0.27250138E+03</pdfrwt>
<pdfrwt beam="2">  1       21 0.41690046E-01 0.27250138E+03</pdfrwt>
<totfact> 0.22036696E+04</totfact>
</mgrwt>
</event>
<event>
 5    0  0.1829809E+000  0.2318607E+03  0.7546771E-02  0.1125337E+00
         21   -1    0    0  502  501  0.00000000000E+00  0.00000000000E+00  0.13389893541E+03  0.13389893541E+03  0.00000000000E+00 0. -1.
         21   -1    0    0  503  502 -0.00000000000E+00 -0.00000000000E+00 -0.10100580411E+04  0.10100580411E+04  0.00000000000E+00 0. -1.
         25    1    1    2    0    0  0.93680751187E+02  0.23316392610E+03 -0.78585521527E+02  0.29144842386E+03  0.12500000000E+03 0.  0.
         21    1    1    2  503  504 -0.42387362598E+02 -0.18444063087E+03 -0.73192600473E+03  0.75599650213E+03  0.00000000000E+00 0. -1.
         21    1    1    2  504  501 -0.51293388589E+02 -0.48723295237E+02 -0.65647579450E+02  0.96512050539E+02  0.00000000000E+00 0. -1.
<mgrwt>
<rscale>  4 0.23186067E+03</rscale>
<asrwt>0</asrwt>
<pdfrwt beam="1">  1       21 0.20599836E-01 0.23186067E+03</pdfrwt>
<pdfrwt beam="2">  1       21 0.15539355E+00 0.23186067E+03</pdfrwt>
<totfact> 0.57664199E+03</totfact>
</mgrwt>
</event>
<event>
 5    0  0.1829809E+000  0.4517058E+03  0.7546771E-02  0.1027215E+00
         21   -1    0    0  502  501  0.00000000000E+00  0.00000000000E+00  0.70248931899E+03  0.70248931899E+03  0.00000000000E+00 0.  1.
         21   -1    0    0  503  502 -0.00000000000E+00 -0.00000000000E+00 -0.43667273313E+03  0.43667273313E+03  0.00000000000E+00 0.  1.
         25    1    1    2    0    0  0.26660364533E+03  0.34254285519E+03  0.47251370828E+03  0.65368747567E+03  0.12500000000E+03 0.  0.
         21    1    1    2  503  504 -0.25883056719E+03 -0.30841675460E+03 -0.20098926175E+03  0.45001204469E+03  0.00000000000E+00 0.  1.
         21    1    1    2  504  501 -0.77730781394E+01 -0.34126100584E+02 -0.57078606661E+01  0.35462531751E+02  0.00000000000E+00 0. -1.
<mgrwt>
<rscale>  4 0.45170578E+03</rscale>
<asrwt>0</asrwt>
<pdfrwt beam="1">  1       21 0.10807528E+00 0.45170578E+03</pdfrwt>
<pdfrwt beam="2">  1       21 0.67180421E-01 0.45170578E+03</pdfrwt>
<totfact> 0.11776718E+03</totfact>
</mgrwt>
</event>
<event>
 5    0  0.1829809E+000  0.2456053E+03  0.7546771E-02  0.1116114E+00
         21   -1    0    0  502  501  0.00000000000E+00  0.00000000000E+00  0.83184652917E+02  0.83184652917E+02  0.00000000000E+00 0.  1.
         21   -1    0    0  503  502 -0.00000000000E+00 -0.00000000000E+00 -0.68022471986E+03  0.68022471986E+03  0.00000000000E+00 0.  1.
         25    1    1    2    0    0 -0.38261742892E+01  0.21138189408E+03 -0.22500581291E+03  0.33309091941E+03  0.12500000000E+03 0.  0.
         21    1    1    2  503  504  0.17168420193E+02 -0.65037507947E+02 -0.90746071124E+02  0.11295787496E+03  0.00000000000E+00 0.  1.
         21    1    1    2  504  501 -0.13342245904E+02 -0.14634438613E+03 -0.28128818291E+03  0.31736057840E+03  0.00000000000E+00 0.  1.
<mgrwt>
<rscale>  4 0.24560526E+03</rscale>
<asrwt>0</asrwt>
<pdfrwt beam="1">  1       21 0.12797638E-01 0.24560526E+03</pdfrwt>
<pdfrwt beam="2">  1       21 0.10464996E+00 0.24560526E+03</pdfrwt>
<totfact> 0.37490224E+04</totfact>
</mgrwt>
</event>
<event>
 5    0  0.1829809E+000  0.3531721E+03  0.7546771E-02  0.1061321E+00
         21   -1    0    0  502  501  0.00000000000E+00  0.00000000000E+00  0.48518535548E+03  0.48518535548E+03  0.00000000000E+00 0. -1.
         21   -1    0    0  503  502 -0.00000000000E+00 -0.00000000000E+00 -0.32074724553E+03  0.32074724553E+03  0.00000000000E+00 0. -1.
         25    1    1    2    0    0  0.32226351819E+03  0.13177027595E+03  0.23197201194E+03  0.43663851766E+03  0.12500000000E+03 0.  0.
         21    1    1    2  503  504 -0.15380057589E+02 -0.28585409875E+02  0.14106957408E+02  0.35393192516E+02  0.00000000000E+00 0.  1.
         21    1    1    2  504  501 -0.30688346060E+03 -0.10318486608E+03 -0.81640859400E+02  0.33390089084E+03  0.00000000000E+00 0. -1.
<mgrwt>
<rscale>  4 0.35317211E+03</rscale>
<asrwt>0</asrwt>
<pdfrwt beam="1">  1       21 0.74643901E-01 0.35317211E+03</pdfrwt>
<pdfrwt beam="2">  1       21 0.49345730E-01 0.35317211E+03</pdfrwt>
<totfact> 0.57491831E+03</totfact>
</mgrwt>
</event>
<event>
 5    0  0.1829809E+000  0.3127978E+03  0.7546771E-02  0.1079524E+00
         21   -1    0    0  502  501  0.00000000000E+00  0.00000000000E+00  0.13043913298E+03  0.13043913298E+03  0.00000000000E+00 0. -1.
         21   -1    0    0  503  502 -0.00000000000E+00 -0.00000000000E+00 -0.85738769196E+03  0.85738769196E+03  0.00000000000E+00 0. -1.
         25    1    1    2    0    0  0.18508118714E+03  0.21283078875E+03 -0.17843724809E+03  0.35639422271E+03  0.12500000000E+03 0.  0.
         21    1    1    2  503  504 -0.36948801808E+02 -0.90980914496E+02 -0.85274964375E+02  0.13005598912E+03  0.00000000000E+00 0. -1.
         21    1    1    2  504  501 -0.14813238533E+03 -0.12184987425E+03 -0.46323634651E+03  0.50137661311E+03  0.00000000000E+00 0. -1.
<mgrwt>
<rscale>  4 0.31171972E+03</rscale>
<asrwt>0</asrwt>
<pdfrwt beam="1">  1       21 0.20067558E-01 0.31279781E+03</pdfrwt>
<pdfrwt beam="2">  1       21 0.13190581E+00 0.31279781E+03</pdfrwt>
<totfact> 0.88969673E+03</totfact>
</mgrwt>
</event>
<event>
 5    0  0.1829809E+000  0.2579113E+03  0.7546771E-02  0.1108405E+00
         21   -1    0    0  502  501  0.00000000000E+00  0.00000000000E+00  0.11003871973E+03  0.11003871973E+03  0.00000000000E+00 0. -1.
         21   -1    0    0  503  502 -0.00000000000E+00 -0.00000000000E+00 -0.57514862087E+03  0.57514862087E+03  0.00000000000E+00 0. -1.
         25    1    1    2    0    0 -0.26723724497E+02  0.22400686705E+03 -0.16989928874E+03  0.30884300583E+03  0.12500000000E+03 0.  0.
         21    1    1    2  503  504  0.24025874417E+02 -0.13056681606E+03 -0.12601563557E+03  0.18304337329E+03  0.00000000000E+00 0. -1.
         21    1    1    2  504  501  0.26978500798E+01 -0.93440050982E+02 -0.16919497682E+03  0.19330096147E+03  0.00000000000E+00 0. -1.
<mgrwt>
<rscale>  4 0.25791129E+03</rscale>
<asrwt>0</asrwt>
<pdfrwt beam="1">  1       21 0.16929034E-01 0.25791129E+03</pdfrwt>
<pdfrwt beam="2">  1       21 0.88484400E-01 0.25791129E+03</pdfrwt>
<totfact> 0.33259179E+04</totfact>
</mgrwt>
</event>
<event>
 5    0  0.1829809E+000  0.2397637E+03  0.7546771E-02  0.1119950E+00
         21   -1    0    0  502  501  0.00000000000E+00  0.00000000000E+00  0.14662713910E+03  0.14662713910E+03  0.00000000000E+00 0. -1.
         21   -1    0    0  503  502 -0.00000000000E+00 -0.00000000000E+00 -0.37481404086E+03  0.37481404086E+03  0.00000000000E+00 0. -1.
         25    1    1    2    0    0  0.83437462652E+02  0.18681491863E+03 -0.53732958669E+02  0.24571091722E+03  0.12500000000E+03 0.  0.
         21    1    1    2  503  504 -0.17352686910E+02 -0.85467319051E+02 -0.10398184700E+03  0.13571294291E+03  0.00000000000E+00 0. -1.
         21    1    1    2  504  501 -0.66084775742E+02 -0.10134759957E+03 -0.70472096085E+02  0.14001731983E+03  0.00000000000E+00 0. -1.
<mgrwt>
<rscale>  4 0.23976368E+03</rscale>
<asrwt>0</asrwt>
<pdfrwt beam="1">  1       21 0.22558022E-01 0.23976368E+03</pdfrwt>
<pdfrwt beam="2">  1       21 0.57663697E-01 0.23976368E+03</pdfrwt>
<totfact> 0.50840642E+04</totfact>
</mgrwt>
</event>
<event>
 5    0  0.1829809E+000  0.3838682E+03  0.7546771E-02  0.1049743E+00
         21   -1    0    0  502  501  0.00000000000E+00  0.00000000000E+00  0.12656365807E+03  0.12656365807E+03  0.00000000000E+00 0. -1.
         21   -1    0    0  503  502 -0.00000000000E+00 -0.00000000000E+00 -0.13368635665E+04  0.13368635665E+04  0.00000000000E+00 0. -1.
         25    1    1    2    0    0  0.13803337745E+03  0.33280588662E+03 -0.33481379709E+03  0.50748226587E+03  0.12500000000E+03 0.  0.
         21    1    1    2  503  504 -0.12057678323E+03 -0.23444385969E+03 -0.75340765083E+03  0.79820158628E+03  0.00000000000E+00 0. -1.
         21    1    1    2  504  501 -0.17456594217E+02 -0.98362026929E+02 -0.12207846050E+03  0.15774337242E+03  0.00000000000E+00 0. -1.
<mgrwt>
<rscale>  4 0.38324048E+03</rscale>
<asrwt>0</asrwt>
<pdfrwt beam="1">  1       21 0.19471333E-01 0.38386825E+03</pdfrwt>
<pdfrwt beam="2">  1       21 0.20567131E+00 0.38386825E+03</pdfrwt>
<totfact> 0.26202446E+03</totfact>
</mgrwt>
</event>
<event>
 5    0  0.1829809E+000  0.2525354E+03  0.7546771E-02  0.1111713E+00
         21   -1    0    0  502  501  0.00000000000E+00  0.00000000000E+00  0.67019217357E+03  0.67019217357E+03  0.00000000000E+00 0. -1.
         21   -1    0    0  503  502 -0.00000000000E+00 -0.00000000000E+00 -0.23443504262E+03  0.23443504262E+03  0.00000000000E+00 0. -1.
         25    1    1    2    0    0  0.25150733725E+02 -0.22984416468E+03  0.55113613992E+03  0.61060375381E+03  0.12500000000E+03 0.  0.
         21    1    1    2  503  504 -0.80451672333E+01  0.14985775884E+03 -0.14339124269E+03  0.20756473949E+03  0.00000000000E+00 0. -1.
         21    1    1    2  504  501 -0.17105566491E+02  0.79986405835E+02  0.28012233716E+02  0.86458722875E+02  0.00000000000E+00 0. -1.
<mgrwt>
<rscale>  4 0.25253541E+03</rscale>
<asrwt>0</asrwt>
<pdfrwt beam="1">  1       21 0.10310649E+00 0.25253541E+03</pdfrwt>
<pdfrwt beam="2">  1       21 0.36066930E-01 0.25253541E+03</pdfrwt>
<totfact> 0.54246779E+03</totfact>
</mgrwt>
</event>
<event>
 5    0  0.1829809E+000  0.2441466E+03  0.7546771E-02  0.1117061E+00
         21   -1    0    0  502  501  0.00000000000E+00  0.00000000000E+00  0.77304338993E+02  0.77304338993E+02  0.00000000000E+00 0. -1.
         21   -1    0    0  503  502 -0.00000000000E+00 -0.00000000000E+00 -0.76862370650E+03  0.76862370650E+03  0.00000000000E+00 0. -1.
         25    1    1    2    0    0 -0.20890039143E+03  0.18524829725E+02 -0.22913768036E+03  0.33483073248E+03  0.12500000000E+03 0.  0.
         21    1    1    2  503  504  0.68791614411E+02 -0.14640002791E+02 -0.95996096574E+02  0.11900364050E+03  0.00000000000E+00 0.  1.
         21    1    1    2  504  501  0.14010877702E+03 -0.38848269341E+01 -0.36618559058E+03  0.39209367251E+03  0.00000000000E+00 0. -1.
<mgrwt>
<rscale>  4 0.24414656E+03</rscale>
<asrwt>0</asrwt>
<pdfrwt beam="1">  1       21 0.11892975E-01 0.24414656E+03</pdfrwt>
<pdfrwt beam="2">  1       21 0.11824980E+00 0.24414656E+03</pdfrwt>
<totfact> 0.31767368E+04</totfact>
</mgrwt>
</event>
<event>
 5    0  0.1829809E+000  0.3382146E+03  0.7546771E-02  0.1067559E+00
         21   -1    0    0  502  501  0.00000000000E+00  0.00000000000E+00  0.19417845292E+04  0.19417845292E+04  0.00000000000E+00 0.  1.
         21   -1    0    0  503  502 -0.00000000000E+00 -0.00000000000E+00 -0.81414481234E+03  0.81414481234E+03  0.00000000000E+00 0. -1.
         25    1    1    2    0    0  0.28679639039E+03 -0.12849885838E+03  0.18954233899E+04  0.19253620317E+04  0.12500000000E+03 0.  0.
         21    1    1    2  503  504 -0.24150984134E+02  0.16963553346E+02 -0.10267109420E+03  0.10682876841E+03  0.00000000000E+00 0. -1.
         21    1    1    2  504  501 -0.26264540626E+03  0.11153530503E+03 -0.66511257888E+03  0.72373854138E+03  0.00000000000E+00 0. -1.
<mgrwt>
<rscale>  4 0.33821462E+03</rscale>
<asrwt>0</asrwt>
<pdfrwt beam="1">  1       21 0.29873608E+00 0.33821462E+03</pdfrwt>
<pdfrwt beam="2">  1       21 0.12525305E+00 0.33821462E+03</pdfrwt>
<totfact> 0.13416679E+01</totfact>
</mgrwt>
</event>
<event>
 5    0  0.1829809E+000  0.1911267E+03  0.7546771E-02  0.1157449E+00
         21   -1    0    0  502  501  0.00000000000E+00  0.00000000000E+00  0.20585534363E+04  0.20585534363E+04  0.00000000000E+00 0.  1.
         21   -1    0    0  503  502 -0.00000000000E+00 -0.00000000000E+00 -0.17208948069E+03  0.17208948069E+03  0.00000000000E+00 0.  1.
         25    1    1    2    0    0  0.75382583225E+02 -0.18992468985E+03  0.18006730412E+04  0.18165358028E+04  0.12500000000E+03 0.  0.
         21    1    1    2  503  504 -0.17477255864E+01  0.66688414333E+02  0.21243931013E+03  0.22266759899E+03  0.00000000000E+00 0.  1.
         21    1    1    2  504  501 -0.73634857638E+02  0.12323627552E+03 -0.12664839566E+03  0.19143951522E+03  0.00000000000E+00 0.  1.
<mgrwt>
<rscale>  4 0.19112670E+03</rscale>
<asrwt>0</asrwt>
<pdfrwt beam="1">  1       21 0.31670051E+00 0.19112670E+03</pdfrwt>
<pdfrwt beam="2">  1       21 0.26475306E-01 0.19112670E+03</pdfrwt>
<totfact> 0.37202601E+02</totfact>
</mgrwt>
</event>
<event>
 5    0  0.1829809E+000  0.2435943E+03  0.7546771E-02  0.1117421E+00
         21   -1    0    0  502  501  0.00000000000E+00  0.00000000000E+00  0.10253758516E+04  0.10253758516E+04  0.00000000000E+00 0. -1.
         21   -1    0    0  503  502 -0.00000000000E+00 -0.00000000000E+00 -0.52770249268E+02  0.52770249268E+02  0.00000000000E+00 0. -1.
         25    1    1    2    0    0  0.13892127393E+03  0.15624997628E+03  0.41354776390E+03  0.47995825700E+03  0.12500000000E+03 0.  0.
         21    1    1    2  503  504 -0.97879422663E+02 -0.13447926719E+03  0.43953631595E+03  0.46995449537E+03  0.00000000000E+00 0. -1.
         21    1    1    2  504  501 -0.41041851263E+02 -0.21770709090E+02  0.11952152246E+03  0.12823334847E+03  0.00000000000E+00 0. -1.
<mgrwt>
<rscale>  4 0.24359428E+03</rscale>
<asrwt>0</asrwt>
<pdfrwt beam="1">  1       21 0.15775012E+00 0.24359428E+03</pdfrwt>
<pdfrwt beam="2">  1       21 0.81185006E-02 0.24359428E+03</pdfrwt>
<totfact> 0.29679486E+04</totfact>
</mgrwt>
</event>
<event>
 5    0  0.1829809E+000  0.2718423E+03  0.7546771E-02  0.1100230E+00
         21   -1    0    0  502  501  0.00000000000E+00  0.00000000000E+00  0.37124845591E+03  0.37124845591E+03  0.00000000000E+00 0.  1.
         21   -1    0    0  503  502 -0.00000000000E+00 -0.00000000000E+00 -0.29186717247E+03  0.29186717247E+03  0.00000000000E+00 0.  1.
         25    1    1    2    0    0 -0.96880643112E+02  0.22110487944E+03  0.24367873461E+03  0.36507198252E+03  0.12500000000E+03 0.  0.
         21    1    1    2  503  504  0.32214435871E+02 -0.86971703557E+02 -0.29879162001E+02  0.97440296695E+02  0.00000000000E+00 0.  1.
         21    1    1    2  504  501  0.64666207241E+02 -0.13413317588E+03 -0.13441828917E+03  0.20060334916E+03  0.00000000000E+00 0.  1.
<mgrwt>
<rscale>  4 0.27184228E+03</rscale>
<asrwt>0</asrwt>
<pdfrwt beam="1">  1       21 0.57115147E-01 0.27184228E+03</pdfrwt>
<pdfrwt beam="2">  1       21 0.44902642E-01 0.27184228E+03</pdfrwt>
<totfact> 0.13103683E+04</totfact>
</mgrwt>
</event>
<event>
 5    0  0.1829809E+000  0.3254388E+03  0.7546771E-02  0.1073173E+00
         21   -1    0    0  502  501  0.00000000000E+00  0.00000000000E+00  0.18456242341E+03  0.18456242341E+03  0.00000000000E+00 0.  1.
         21   -1    0    0  503  502 -0.00000000000E+00 -0.00000000000E+00 -0.53887000526E+03  0.53887000526E+03  0.00000000000E+00 0.  1.
         25    1    1    2    0    0 -0.29727650105E+03 -0.43727166814E+02 -0.17666708640E+03  0.37029939591E+03  0.12500000000E+03 0.  0.
         21    1    1    2  503  504  0.26741322303E+03  0.24424868689E+02 -0.14663096067E+03  0.30595268374E+03  0.00000000000E+00 0.  1.
         21    1    1    2  504  501  0.29863278017E+02  0.19302298125E+02 -0.31009534770E+02  0.47180349018E+02  0.00000000000E+00 0.  1.
<mgrwt>
<rscale>  4 0.32543875E+03</rscale>
<asrwt>0</asrwt>
<pdfrwt beam="1">  1       21 0.28394220E-01 0.32543875E+03</pdfrwt>
<pdfrwt beam="2">  1       21 0.82903076E-01 0.32543875E+03</pdfrwt>
<totfact> 0.14056910E+04</totfact>
</mgrwt>
</event>
<event>
 5    0  0.1829809E+000  0.3279452E+03  0.7546771E-02  0.1072050E+00
         21   -1    0    0  502  501  0.00000000000E+00  0.00000000000E+00  0.23097380882E+03  0.23097380882E+03  0.00000000000E+00 0.  1.
         21   -1    0    0  503  502 -0.00000000000E+00 -0.00000000000E+00 -0.60826884740E+03  0.60826884740E+03  0.00000000000E+00 0.  1.
         25    1    1    2    0    0  0.14394054372E+03  0.26464588964E+03  0.60425648553E+01  0.32621747289E+03  0.12500000000E+03 0.  0.
         21    1    1    2  503  504 -0.16369743678E+03 -0.25613947610E+03 -0.38602826436E+03  0.49134723252E+03  0.00000000000E+00 0.  1.
         21    1    1    2  504  501  0.19756893061E+02 -0.85064135400E+01  0.26906609175E+01  0.21677950801E+02  0.00000000000E+00 0.  1.
<mgrwt>
<rscale>  4 0.32794524E+03</rscale>
<asrwt>0</asrwt>
<pdfrwt beam="1">  1       21 0.35534432E-01 0.32794524E+03</pdfrwt>
<pdfrwt beam="2">  1       21 0.93579822E-01 0.32794524E+03</pdfrwt>
<totfact> 0.67742997E+03</totfact>
</mgrwt>
</event>
<event>
 5    0  0.1829809E+000  0.3224315E+03  0.7546771E-02  0.1074536E+00
         21   -1    0    0  502  501  0.00000000000E+00  0.00000000000E+00  0.59583906293E+03  0.59583906293E+03  0.00000000000E+00 0.  1.
         21   -1    0    0  503  502 -0.00000000000E+00 -0.00000000000E+00 -0.16535147610E+03  0.16535147610E+03  0.00000000000E+00 0.  1.
         25    1    1    2    0    0 -0.21666394442E+03 -0.20345473096E+03  0.20143154276E+03  0.38017990317E+03  0.12500000000E+03 0.  0.
         21    1    1    2  503  504  0.17588973892E+03  0.19140469229E+03  0.18049676105E+03  0.31646806669E+03  0.00000000000E+00 0.  1.
         21    1    1    2  504  501  0.40774205501E+02  0.12050038670E+02  0.48559283024E+02  0.64542569162E+02  0.00000000000E+00 0.  1.
<mgrwt>
<rscale>  4 0.32243153E+03</rscale>
<asrwt>0</asrwt>
<pdfrwt beam="1">  1       21 0.91667547E-01 0.32243153E+03</pdfrwt>
<pdfrwt beam="2">  1       21 0.25438689E-01 0.32243153E+03</pdfrwt>
<totfact> 0.13790517E+04</totfact>
</mgrwt>
</event>
<event>
 5    0  0.1829809E+000  0.2839395E+03  0.7546771E-02  0.1093557E+00
         21   -1    0    0  502  501  0.00000000000E+00  0.00000000000E+00  0.18444588177E+03  0.18444588177E+03  0.00000000000E+00 0. -1.
         21   -1    0    0  503  502 -0.00000000000E+00 -0.00000000000E+00 -0.42576331015E+03  0.42576331015E+03  0.00000000000E+00 0. -1.
         25    1    1    2    0    0  0.16338108390E+03  0.19571221588E+03 -0.20593697984E+03  0.35075873430E+03  0.12500000000E+03 0.  0.
         21    1    1    2  503  504 -0.15199974864E+03 -0.17635954681E+03 -0.40758901283E+02  0.23636391724E+03  0.00000000000E+00 0. -1.
         21    1    1    2  504  501 -0.11381335261E+02 -0.19352669071E+02  0.53784527456E+01  0.23086540374E+02  0.00000000000E+00 0. -1.
<mgrwt>
<rscale>  4 0.28393952E+03</rscale>
<asrwt>0</asrwt>
<pdfrwt beam="1">  1       21 0.28376290E-01 0.28393952E+03</pdfrwt>
<pdfrwt beam="2">  1       21 0.65502048E-01 0.28393952E+03</pdfrwt>
<totfact> 0.24330568E+04</totfact>
</mgrwt>
</event>
<event>
 5    0  0.1829809E+000  0.3452424E+03  0.7546771E-02  0.1064585E+00
         21   -1    0    0  502  501  0.00000000000E+00  0.00000000000E+00  0.11446577124E+04  0.11446577124E+04  0.00000000000E+00 0. -1.
         21   -1    0    0  503  502 -0.00000000000E+00 -0.00000000000E+00 -0.13605829889E+03  0.13605829889E+03  0.00000000000E+00 0. -1.
         25    1    1    2    0    0 -0.17744728157E+03  0.26847681531E+03  0.83004972724E+03  0.89898547696E+03  0.12500000000E+03 0.  0.
         21    1    1    2  503  504  0.61203800851E+02 -0.34567332539E+02  0.10326305188E+02  0.71045325647E+02  0.00000000000E+00 0. -1.
         21    1    1    2  504  501  0.11624348072E+03 -0.23390948277E+03  0.16822338106E+03  0.31068520866E+03  0.00000000000E+00 0. -1.
<mgrwt>
<rscale>  4 0.34524243E+03</rscale>
<asrwt>0</asrwt>
<pdfrwt beam="1">  1       21 0.17610118E+00 0.34524243E+03</pdfrwt>
<pdfrwt beam="2">  1       21 0.20932047E-01 0.34524243E+03</pdfrwt>
<totfact> 0.36951608E+03</totfact>
</mgrwt>
</event>
<event>
 5    0  0.1829809E+000  0.2372790E+03  0.7546771E-02  0.1121619E+00
         21   -1    0    0  502  501  0.00000000000E+00  0.00000000000E+00  0.17209808072E+03  0.17209808072E+03  0.00000000000E+00 0. -1.
         21   -1    0    0  503  502 -0.00000000000E+00 -0.00000000000E+00 -0.30257280065E+03  0.30257280065E+03  0.00000000000E+00 0. -1.
         25    1    1    2    0    0 -0.17612301356E+03  0.98270096335E+02 -0.58258953857E+02  0.24432648944E+03  0.12500000000E+03 0.  0.
         21    1    1    2  503  504  0.15071607436E+02 -0.46477906930E+02 -0.86404379759E+01  0.49618608925E+02  0.00000000000E+00 0. -1.
         21    1    1    2  504  501  0.16105140612E+03 -0.51792189405E+02 -0.63575328099E+02  0.18072578300E+03  0.00000000000E+00 0. -1.
<mgrwt>
<rscale>  4 0.23727901E+03</rscale>
<asrwt>0</asrwt>
<pdfrwt beam="1">  1       21 0.26476628E-01 0.23727901E+03</pdfrwt>
<pdfrwt beam="2">  1       21 0.46549662E-01 0.23727901E+03</pdfrwt>
<totfact> 0.58814192E+04</totfact>
</mgrwt>
</event>
<event>
 5    0  0.1829809E+000  0.2174446E+03  0.7546771E-02  0.1135803E+00
         21   -1    0    0  502  501  0.00000000000E+00  0.00000000000E+00  0.12743952736E+03  0.12743952736E+03  0.00000000000E+00 0. -1.
         21   -1    0    0  503  502 -0.00000000000E+00 -0.00000000000E+00 -0.67942493710E+03  0.67942493710E+03  0.00000000000E+00 0. -1.
         25    1    1    2    0    0  0.18183444500E+02  0.22088483579E+03 -0.83302877149E+02  0.26774076581E+03  0.12500000000E+03 0.  0.
         21    1    1    2  503  504  0.30036130216E+02 -0.90727805010E+02 -0.32741043702E+03  0.34107374274E+03  0.00000000000E+00 0. -1.
         21    1    1    2  504  501 -0.48219574717E+02 -0.13015703078E+03 -0.14127209557E+03  0.19804995591E+03  0.00000000000E+00 0. -1.
<mgrwt>
<rscale>  4 0.21744458E+03</rscale>
<asrwt>0</asrwt>
<pdfrwt beam="1">  1       21 0.19606081E-01 0.21744458E+03</pdfrwt>
<pdfrwt beam="2">  1       21 0.10452691E+00 0.21744458E+03</pdfrwt>
<totfact> 0.17421371E+04</totfact>
</mgrwt>
</event>
<event>
 5    0  0.1829809E+000  0.2868267E+03  0.7546771E-02  0.1092018E+00
         21   -1    0    0  502  501  0.00000000000E+00  0.00000000000E+00  0.50453811241E+03  0.50453811241E+03  0.00000000000E+00 0. -1.
         21   -1    0    0  503  502 -0.00000000000E+00 -0.00000000000E+00 -0.52311643460E+03  0.52311643460E+03  0.00000000000E+00 0.  1.
         25    1    1    2    0    0  0.11889254576E+03  0.22914870906E+03  0.42192644415E+03  0.51018770328E+03  0.12500000000E+03 0.  0.
         21    1    1    2  503  504 -0.10198302529E+03 -0.10582248741E+03 -0.24483103955E+03  0.28555415286E+03  0.00000000000E+00 0.  1.
         21    1    1    2  504  501 -0.16909520469E+02 -0.12332622165E+03 -0.19567372680E+03  0.23191269087E+03  0.00000000000E+00 0.  1.
<mgrwt>
<rscale>  4 0.28682672E+03</rscale>
<asrwt>0</asrwt>
<pdfrwt beam="1">  1       21 0.77621248E-01 0.28682672E+03</pdfrwt>
<pdfrwt beam="2">  1       21 0.80479452E-01 0.28682672E+03</pdfrwt>
<totfact> 0.18599925E+03</totfact>
</mgrwt>
</event>
<event>
 5    0  0.1829809E+000  0.2682315E+03  0.7546771E-02  0.1102296E+00
         21   -1    0    0  502  501  0.00000000000E+00  0.00000000000E+00  0.18240345858E+03  0.18240345858E+03  0.00000000000E+00 0.  1.
         21   -1    0    0  503  502 -0.00000000000E+00 -0.00000000000E+00 -0.70965950345E+03  0.70965950345E+03  0.00000000000E+00 0.  1.
         25    1    1    2    0    0 -0.11407039554E+03 -0.20811318498E+03  0.43503876844E+02  0.27173652718E+03  0.12500000000E+03 0.  0.
         21    1    1    2  503  504  0.75716809853E+02  0.14756005141E+03 -0.45371304030E+03  0.48307610891E+03  0.00000000000E+00 0.  1.
         21    1    1    2  504  501  0.38353585691E+02  0.60553133567E+02 -0.11704688141E+03  0.13725032593E+03  0.00000000000E+00 0.  1.
<mgrwt>
<rscale>  4 0.26823153E+03</rscale>
<asrwt>0</asrwt>
<pdfrwt beam="1">  1       21 0.28062070E-01 0.26823153E+03</pdfrwt>
<pdfrwt beam="2">  1       21 0.10917839E+00 0.26823153E+03</pdfrwt>
<totfact> 0.76830437E+03</totfact>
</mgrwt>
</event>
<event>
 5    0  0.1829809E+000  0.2118938E+03  0.7546771E-02  0.1140075E+00
         21   -1    0    0  502  501  0.00000000000E+00  0.00000000000E+00  0.30347572081E+03  0.30347572081E+03  0.00000000000E+00 0. -1.
         21   -1    0    0  503  502 -0.00000000000E+00 -0.00000000000E+00 -0.25116975327E+03  0.25116975327E+03  0.00000000000E+00 0. -1.
         25    1    1    2    0    0  0.21919377254E+03 -0.24604008717E+01  0.10463510528E+03  0.27317662556E+03  0.12500000000E+03 0.  0.
         21    1    1    2  503  504 -0.11334795561E+03  0.85151984080E+02 -0.18631453788E+02  0.14298863768E+03  0.00000000000E+00 0. -1.
         21    1    1    2  504  501 -0.10584581693E+03 -0.82691583208E+02 -0.33697683951E+02  0.13848021085E+03  0.00000000000E+00 0. -1.
<mgrwt>
<rscale>  4 0.21189375E+03</rscale>
<asrwt>0</asrwt>
<pdfrwt beam="1">  1       21 0.46688573E-01 0.21189375E+03</pdfrwt>
<pdfrwt beam="2">  1       21 0.38641500E-01 0.21189375E+03</pdfrwt>
<totfact> 0.28067327E+04</totfact>
</mgrwt>
</event>
<event>
 5    0  0.1829809E+000  0.2036042E+03  0.7546771E-02  0.1146733E+00
         21   -1    0    0  502  501  0.00000000000E+00  0.00000000000E+00  0.15739226112E+03  0.15739226112E+03  0.00000000000E+00 0. -1.
         21   -1    0    0  503  502 -0.00000000000E+00 -0.00000000000E+00 -0.73269446712E+03  0.73269446712E+03  0.00000000000E+00 0. -1.
         25    1    1    2    0    0  0.22848611112E+03  0.39798652033E+02 -0.39372799963E+02  0.26639266704E+03  0.12500000000E+03 0.  0.
         21    1    1    2  503  504 -0.13558106380E+03 -0.73866038154E+02 -0.49157906346E+03  0.51525565702E+03  0.00000000000E+00 0. -1.
         21    1    1    2  504  501 -0.92905047318E+02  0.34067386121E+02 -0.44350342573E+02  0.10843840418E+03  0.00000000000E+00 0. -1.
<mgrwt>
<rscale>  4 0.20360423E+03</rscale>
<asrwt>0</asrwt>
<pdfrwt beam="1">  1       21 0.24214194E-01 0.20360423E+03</pdfrwt>
<pdfrwt beam="2">  1       21 0.11272222E+00 0.20360423E+03</pdfrwt>
<totfact> 0.98307499E+03</totfact>
</mgrwt>
</event>
<event>
 5    0  0.1829809E+000  0.2914289E+03  0.7546771E-02  0.1089605E+00
         21   -1    0    0  502  501  0.00000000000E+00  0.00000000000E+00  0.29513824557E+04  0.29513824557E+04  0.00000000000E+00 0. -1.
         21   -1    0    0  503  502 -0.00000000000E+00 -0.00000000000E+00 -0.15804513652E+03  0.15804513652E+03  0.00000000000E+00 0. -1.
         25    1    1    2    0    0  0.24395098632E+03 -0.98763288389E+02  0.27036290954E+04  0.27192832799E+04  0.12500000000E+03 0.  0.
         21    1    1    2  503  504  0.31810653738E+02  0.76967968761E+02  0.76694500740E+02  0.11321674942E+03  0.00000000000E+00 0. -1.
         21    1    1    2  504  501 -0.27576164006E+03  0.21795319629E+02  0.13013723001E+02  0.27692756286E+03  0.00000000000E+00 0. -1.
<mgrwt>
<rscale>  4 0.29142886E+03</rscale>
<asrwt>0</asrwt>
<pdfrwt beam="1">  1       21 0.45405880E+00 0.29142886E+03</pdfrwt>
<pdfrwt beam="2">  1       21 0.24314639E-01 0.29142886E+03</pdfrwt>
<totfact> 0.53615029E+01</totfact>
</mgrwt>
</event>
<event>
 5    0  0.1829809E+000  0.3743747E+03  0.7546771E-02  0.1053033E+00
         21   -1    0    0  502  501  0.00000000000E+00  0.00000000000E+00  0.64491740993E+03  0.64491740993E+03  0.00000000000E+00 0.  1.
         21   -1    0    0  503  502 -0.00000000000E+00 -0.00000000000E+00 -0.22161427724E+03  0.22161427724E+03  0.00000000000E+00 0.  1.
         25    1    1    2    0    0  0.12331809833E+03  0.33064188553E+03  0.30729225465E+03  0.48433969444E+03  0.12500000000E+03 0.  0.
         21    1    1    2  503  504 -0.74946089616E+02 -0.99883627837E+02  0.65726959018E+02  0.14111586941E+03  0.00000000000E+00 0.  1.
         21    1    1    2  504  501 -0.48372008712E+02 -0.23075825770E+03  0.50283919014E+02  0.24107612332E+03  0.00000000000E+00 0.  1.
<mgrwt>
<rscale>  4 0.37437469E+03</rscale>
<asrwt>0</asrwt>
<pdfrwt beam="1">  1       21 0.99218062E-01 0.37437469E+03</pdfrwt>
<pdfrwt beam="2">  1       21 0.34094504E-01 0.37437469E+03</pdfrwt>
<totfact> 0.62790638E+03</totfact>
</mgrwt>
</event>
<event>
 5    0  0.1829809E+000  0.2566268E+03  0.7546771E-02  0.1109187E+00
         21   -1    0    0  502  501  0.00000000000E+00  0.00000000000E+00  0.31302779172E+02  0.31302779172E+02  0.00000000000E+00 0.  1.
         21   -1    0    0  503  502 -0.00000000000E+00 -0.00000000000E+00 -0.20299357816E+04  0.20299357816E+04  0.00000000000E+00 0.  1.
         25    1    1    2    0    0  0.17681943887E+03  0.13772146397E+03 -0.11387303760E+04  0.11672892464E+04  0.12500000000E+03 0.  0.
         21    1    1    2  503  504 -0.15394344078E+03 -0.69725895961E+02 -0.66889075856E+03  0.68990950886E+03  0.00000000000E+00 0.  1.
         21    1    1    2  504  501 -0.22875998092E+02 -0.67995568009E+02 -0.19101186789E+03  0.20403980551E+03  0.00000000000E+00 0.  1.
<mgrwt>
<rscale>  4 0.25662680E+03</rscale>
<asrwt>0</asrwt>
<pdfrwt beam="1">  1       21 0.48158138E-02 0.25662680E+03</pdfrwt>
<pdfrwt beam="2">  1       21 0.31229771E+00 0.25662680E+03</pdfrwt>
<totfact> 0.78030562E+03</totfact>
</mgrwt>
</event>
<event>
 5    0  0.1829809E+000  0.2382324E+03  0.7546771E-02  0.1120976E+00
         21   -1    0    0  502  501  0.00000000000E+00  0.00000000000E+00  0.74542888562E+03  0.74542888562E+03  0.00000000000E+00 0.  1.
         21   -1    0    0  503  502 -0.00000000000E+00 -0.00000000000E+00 -0.13050950217E+03  0.13050950217E+03  0.00000000000E+00 0.  1.
         25    1    1    2    0    0 -0.19023066320E+03 -0.70299078358E+02  0.62287606896E+03  0.66688024632E+03  0.12500000000E+03 0.  0.
         21    1    1    2  503  504  0.17909125416E+02  0.23484990844E+02  0.52730940725E+01  0.30001451452E+02  0.00000000000E+00 0.  1.
         21    1    1    2  504  501  0.17232153779E+03  0.46814087514E+02 -0.13229779578E+02  0.17905669003E+03  0.00000000000E+00 0.  1.
<mgrwt>
<rscale>  4 0.23823238E+03</rscale>
<asrwt>0</asrwt>
<pdfrwt beam="1">  1       21 0.11468136E+00 0.23823238E+03</pdfrwt>
<pdfrwt beam="2">  1       21 0.20078385E-01 0.23823238E+03</pdfrwt>
<totfact> 0.13138758E+04</totfact>
</mgrwt>
</event>
<event>
 5    0  0.1829809E+000  0.3256818E+03  0.7546771E-02  0.1073064E+00
         21   -1    0    0  502  501  0.00000000000E+00  0.00000000000E+00  0.86939904443E+02  0.86939904443E+02  0.00000000000E+00 0.  1.
         21   -1    0    0  503  502 -0.00000000000E+00 -0.00000000000E+00 -0.14270262646E+04  0.14270262646E+04  0.00000000000E+00 0.  1.
         25    1    1    2    0    0  0.21395160096E+02 -0.30317356907E+03 -0.40529902595E+03  0.52178948465E+03  0.12500000000E+03 0.  0.
         21    1    1    2  503  504 -0.55561212454E+02  0.29096310155E+03 -0.82767544158E+03  0.87908657786E+03  0.00000000000E+00 0.  1.
         21    1    1    2  504  501  0.34166052357E+02  0.12210467527E+02 -0.10711189264E+03  0.11309010653E+03  0.00000000000E+00 0. -1.
<mgrwt>
<rscale>  4 0.32568176E+03</rscale>
<asrwt>0</asrwt>
<pdfrwt beam="1">  1       21 0.13375371E-01 0.32568176E+03</pdfrwt>
<pdfrwt beam="2">  1       21 0.21954248E+00 0.32568176E+03</pdfrwt>
<totfact> 0.44236927E+03</totfact>
</mgrwt>
</event>
<event>
 5    0  0.1829809E+000  0.2504026E+03  0.7546771E-02  0.1113051E+00
         21   -1    0    0  502  501  0.00000000000E+00  0.00000000000E+00  0.15421796962E+03  0.15421796962E+03  0.00000000000E+00 0.  1.
         21   -1    0    0  503  502 -0.00000000000E+00 -0.00000000000E+00 -0.76261329738E+03  0.76261329738E+03  0.00000000000E+00 0.  1.
         25    1    1    2    0    0 -0.11975583628E+03 -0.24686674969E+03 -0.13933009169E+03  0.33214835071E+03  0.12500000000E+03 0.  0.
         21    1    1    2  503  504 -0.38392645240E+02  0.16050563846E+03 -0.26754326701E+03  0.31434925625E+03  0.00000000000E+00 0.  1.
         21    1    1    2  504  501  0.15814848152E+03  0.86361111233E+02 -0.20152196906E+03  0.27033366005E+03  0.00000000000E+00 0.  1.
<mgrwt>
<rscale>  4 0.25040261E+03</rscale>
<asrwt>0</asrwt>
<pdfrwt beam="1">  1       21 0.23725842E-01 0.25040261E+03</pdfrwt>
<pdfrwt beam="2">  1       21 0.11732512E+00 0.25040261E+03</pdfrwt>
<totfact> 0.89919750E+03</totfact>
</mgrwt>
</event>
<event>
 5    0  0.1829809E+000  0.2883695E+03  0.7546771E-02  0.1091204E+00
         21   -1    0    0  502  501  0.00000000000E+00  0.00000000000E+00  0.11497081839E+04  0.11497081839E+04  0.00000000000E+00 0. -1.
         21   -1    0    0  503  502 -0.00000000000E+00 -0.00000000000E+00 -0.66023982744E+02  0.66023982744E+02  0.00000000000E+00 0. -1.
         25    1    1    2    0    0 -0.94293169418E+02  0.24215851384E+03  0.58059484275E+03  0.64826485255E+03  0.12500000000E+03 0.  0.
         21    1    1    2  503  504  0.91536926703E+02 -0.21219791761E+03  0.46158169915E+03  0.51620212144E+03  0.00000000000E+00 0. -1.
         21    1    1    2  504  501  0.27562427146E+01 -0.29960596234E+02  0.41507659237E+02  0.51265192636E+02  0.00000000000E+00 0. -1.
<mgrwt>
<rscale>  4 0.28836946E+03</rscale>
<asrwt>0</asrwt>
<pdfrwt beam="1">  1       21 0.17687817E+00 0.28836946E+03</pdfrwt>
<pdfrwt beam="2">  1       21 0.10157537E-01 0.28836946E+03</pdfrwt>
<totfact> 0.14201084E+04</totfact>
</mgrwt>
</event>
<event>
 5    0  0.1829809E+000  0.3192600E+03  0.7546771E-02  0.1075990E+00
         21   -1    0    0  502  501  0.00000000000E+00  0.00000000000E+00  0.32020227731E+03  0.32020227731E+03  0.00000000000E+00 0. -1.
         21   -1    0    0  503  502 -0.00000000000E+00 -0.00000000000E+00 -0.55622910504E+03  0.55622910504E+03  0.00000000000E+00 0. -1.
         25    1    1    2    0    0  0.47425469372E+02  0.29187449119E+03  0.16021259805E+03  0.35879377130E+03  0.12500000000E+03 0.  0.
         21    1    1    2  503  504  0.36675992628E+02 -0.16726512739E+02 -0.23114351190E+02  0.46466954866E+02  0.00000000000E+00 0. -1.
         21    1    1    2  504  501 -0.84101462000E+02 -0.27514797845E+03 -0.37312507459E+03  0.47117065618E+03  0.00000000000E+00 0. -1.
<mgrwt>
<rscale>  4 0.31926005E+03</rscale>
<asrwt>0</asrwt>
<pdfrwt beam="1">  1       21 0.49261889E-01 0.31926005E+03</pdfrwt>
<pdfrwt beam="2">  1       21 0.85573708E-01 0.31926005E+03</pdfrwt>
<totfact> 0.42825413E+03</totfact>
</mgrwt>
</event>
<event>
 5    0  0.1829809E+000  0.2543937E+03  0.7546771E-02  0.1110559E+00
         21   -1    0    0  502  501  0.00000000000E+00  0.00000000000E+00  0.96690427762E+03  0.96690427762E+03  0.00000000000E+00 0.  1.
         21   -1    0    0  503  502 -0.00000000000E+00 -0.00000000000E+00 -0.62469508494E+02  0.62469508494E+02  0.00000000000E+00 0.  1.
         25    1    1    2    0    0 -0.20213376342E+03  0.90736526808E+02  0.50184790950E+03  0.56264331497E+03  0.12500000000E+03 0.  0.
         21    1    1    2  503  504  0.11510032487E+03 -0.89622894834E+02  0.21357155626E+03  0.25863711587E+03  0.00000000000E+00 0.  1.
         21    1    1    2  504  501  0.87033438550E+02 -0.11136319732E+01  0.18901530336E+03  0.20809335527E+03  0.00000000000E+00 0.  1.
<mgrwt>
<rscale>  4 0.25439374E+03</rscale>
<asrwt>0</asrwt>
<pdfrwt beam="1">  1       21 0.14875449E+00 0.25439374E+03</pdfrwt>
<pdfrwt beam="2">  1       21 0.96106943E-02 0.25439374E+03</pdfrwt>
<totfact> 0.25657979E+04</totfact>
</mgrwt>
</event>
<event>
 5    0  0.1829809E+000  0.2693145E+03  0.7546771E-02  0.1101673E+00
         21   -1    0    0  502  501  0.00000000000E+00  0.00000000000E+00  0.15688623889E+03  0.15688623889E+03  0.00000000000E+00 0.  1.
         21   -1    0    0  503  502 -0.00000000000E+00 -0.00000000000E+00 -0.43533187777E+03  0.43533187777E+03  0.00000000000E+00 0. -1.
         25    1    1    2    0    0  0.13456519134E+03  0.19697088783E+03 -0.16470475263E+03  0.31568651683E+03  0.12500000000E+03 0.  0.
         21    1    1    2  503  504 -0.13438625945E+03 -0.14215771923E+03 -0.10141837977E+03  0.22035011146E+03  0.00000000000E+00 0. -1.
         21    1    1    2  504  501 -0.17893189300E+00 -0.54813168604E+02 -0.12322506489E+02  0.56181488367E+02  0.00000000000E+00 0. -1.
<mgrwt>
<rscale>  4 0.26931454E+03</rscale>
<asrwt>0</asrwt>
<pdfrwt beam="1">  1       21 0.24136345E-01 0.26931454E+03</pdfrwt>
<pdfrwt beam="2">  1       21 0.66974134E-01 0.26931454E+03</pdfrwt>
<totfact> 0.31878162E+04</totfact>
</mgrwt>
</event>
<event>
 5    0  0.1829809E+000  0.2394964E+03  0.7546771E-02  0.1120129E+00
         21   -1    0    0  502  501  0.00000000000E+00  0.00000000000E+00  0.28919289298E+02  0.28919289298E+02  0.00000000000E+00 0. -1.
         21   -1    0    0  503  502 -0.00000000000E+00 -0.00000000000E+00 -0.18567385377E+04  0.18567385377E+04  0.00000000000E+00 0.  1.
         25    1    1    2    0    0 -0.77934258437E+02 -0.18883799950E+03 -0.75051779897E+03  0.78780423029E+03  0.12500000000E+03 0.  0.
         21    1    1    2  503  504  0.43060263513E+02  0.65060181520E+02 -0.52586037749E+03  0.53161654426E+03  0.00000000000E+00 0.  1.
         21    1    1    2  504  501  0.34873994924E+02  0.12377781798E+03 -0.55144107197E+03  0.56623705248E+03  0.00000000000E+00 0.  1.
<mgrwt>
<rscale>  4 0.23949643E+03</rscale>
<asrwt>0</asrwt>
<pdfrwt beam="1">  1       21 0.44491206E-02 0.23949643E+03</pdfrwt>
<pdfrwt beam="2">  1       21 0.28565214E+00 0.23949643E+03</pdfrwt>
<totfact> 0.12955904E+04</totfact>
</mgrwt>
</event>
<event>
 5    0  0.1829809E+000  0.3005845E+03  0.7546771E-02  0.1084949E+00
         21   -1    0    0  502  501  0.00000000000E+00  0.00000000000E+00  0.11244916569E+03  0.11244916569E+03  0.00000000000E+00 0. -1.
         21   -1    0    0  503  502 -0.00000000000E+00 -0.00000000000E+00 -0.85661310832E+03  0.85661310832E+03  0.00000000000E+00 0. -1.
         25    1    1    2    0    0  0.11201130018E+03 -0.24935818888E+03 -0.23540567311E+03  0.38179427531E+03  0.12500000000E+03 0.  0.
         21    1    1    2  503  504  0.15858124958E+02  0.63639748185E+02 -0.86206694107E+02  0.10831939709E+03  0.00000000000E+00 0.  1.
         21    1    1    2  504  501 -0.12786942514E+03  0.18571844069E+03 -0.42255157541E+03  0.47894860161E+03  0.00000000000E+00 0. -1.
<mgrwt>
<rscale>  4 0.30058449E+03</rscale>
<asrwt>0</asrwt>
<pdfrwt beam="1">  1       21 0.17299872E-01 0.30058449E+03</pdfrwt>
<pdfrwt beam="2">  1       21 0.13178663E+00 0.30058449E+03</pdfrwt>
<totfact> 0.11846502E+04</totfact>
</mgrwt>
</event>
<event>
 5    0  0.1829809E+000  0.2948624E+03  0.7546771E-02  0.1087837E+00
         21   -1    0    0  502  501  0.00000000000E+00  0.00000000000E+00  0.78862931839E+03  0.78862931839E+03  0.00000000000E+00 0. -1.
         21   -1    0    0  503  502 -0.00000000000E+00 -0.00000000000E+00 -0.10580464438E+03  0.10580464438E+03  0.00000000000E+00 0. -1.
         25    1    1    2    0    0  0.16040834971E+03 -0.21351350294E+03  0.40357503487E+03  0.49981662974E+03  0.12500000000E+03 0.  0.
         21    1    1    2  503  504 -0.84996224465E+02  0.76981562662E+02  0.72649910791E+02  0.13575171712E+03  0.00000000000E+00 0. -1.
         21    1    1    2  504  501 -0.75412125247E+02  0.13653194027E+03  0.20659972834E+03  0.25886561591E+03  0.00000000000E+00 0. -1.
<mgrwt>
<rscale>  4 0.29486243E+03</rscale>
<asrwt>0</asrwt>
<pdfrwt beam="1">  1       21 0.12132758E+00 0.29486243E+03</pdfrwt>
<pdfrwt beam="2">  1       21 0.16277638E-01 0.29486243E+03</pdfrwt>
<totfact> 0.16414511E+04</totfact>
</mgrwt>
</event>
<event>
 5    0  0.1829809E+000  0.3767616E+03  0.7546771E-02  0.1052137E+00
         21   -1    0    0  502  501  0.00000000000E+00  0.00000000000E+00  0.46350206970E+03  0.46350206970E+03  0.00000000000E+00 0.  1.
         21   -1    0    0  503  502 -0.00000000000E+00 -0.00000000000E+00 -0.32718605489E+03  0.32718605489E+03  0.00000000000E+00 0.  1.
         25    1    1    2    0    0  0.23857782016E+03  0.26344814917E+03 -0.55376192387E+02  0.38080943562E+03  0.12500000000E+03 0.  0.
         21    1    1    2  503  504 -0.21630406474E+03 -0.24830412643E+03  0.19504959383E+03  0.38273585105E+03  0.00000000000E+00 0.  1.
         21    1    1    2  504  501 -0.22273755421E+02 -0.15144022734E+02 -0.33573866329E+01  0.27142837916E+02  0.00000000000E+00 0.  1.
<mgrwt>
<rscale>  4 0.37676160E+03</rscale>
<asrwt>0</asrwt>
<pdfrwt beam="1">  1       21 0.71308011E-01 0.37676160E+03</pdfrwt>
<pdfrwt beam="2">  1       21 0.50336316E-01 0.37676160E+03</pdfrwt>
<totfact> 0.60544727E+03</totfact>
</mgrwt>
</event>
<event>
 5    0  0.1829809E+000  0.2535093E+03  0.7546771E-02  0.1111107E+00
         21   -1    0    0  502  501  0.00000000000E+00  0.00000000000E+00  0.26529493145E+03  0.26529493145E+03  0.00000000000E+00 0. -1.
         21   -1    0    0  503  502 -0.00000000000E+00 -0.00000000000E+00 -0.22315216457E+03  0.22315216457E+03  0.00000000000E+00 0. -1.
         25    1    1    2    0    0  0.21735197612E+03  0.37417531927E+02  0.68610572611E+02  0.26262970870E+03  0.12500000000E+03 0.  0.
         21    1    1    2  503  504 -0.25230596318E+02  0.76172570897E+01  0.20650174789E+01  0.26436147475E+02  0.00000000000E+00 0.  1.
         21    1    1    2  504  501 -0.19212137980E+03 -0.45034789017E+02 -0.28532823209E+02  0.19938123984E+03  0.00000000000E+00 0. -1.
<mgrwt>
<rscale>  4 0.25350928E+03</rscale>
<asrwt>0</asrwt>
<pdfrwt beam="1">  1       21 0.40814605E-01 0.25350928E+03</pdfrwt>
<pdfrwt beam="2">  1       21 0.34331102E-01 0.25350928E+03</pdfrwt>
<totfact> 0.46005647E+04</totfact>
</mgrwt>
</event>
<event>
 5    0  0.1829809E+000  0.2528567E+03  0.7546771E-02  0.1111513E+00
         21   -1    0    0  502  501  0.00000000000E+00  0.00000000000E+00  0.76517066706E+03  0.76517066706E+03  0.00000000000E+00 0.  1.
         21   -1    0    0  503  502 -0.00000000000E+00 -0.00000000000E+00 -0.91548198530E+02  0.91548198530E+02  0.00000000000E+00 0.  1.
         25    1    1    2    0    0  0.21931096172E+03 -0.14636551505E+02  0.53062936847E+03  0.58779592824E+03  0.12500000000E+03 0.  0.
         21    1    1    2  503  504 -0.11455368541E+03  0.35540872449E+02  0.63079092935E+02  0.13551631791E+03  0.00000000000E+00 0.  1.
         21    1    1    2  504  501 -0.10475727631E+03 -0.20904320943E+02  0.79914007125E+02  0.13340661944E+03  0.00000000000E+00 0.  1.
<mgrwt>
<rscale>  4 0.25285673E+03</rscale>
<asrwt>0</asrwt>
<pdfrwt beam="1">  1       21 0.11771856E+00 0.25285673E+03</pdfrwt>
<pdfrwt beam="2">  1       21 0.14084339E-01 0.25285673E+03</pdfrwt>
<totfact> 0.23552216E+04</totfact>
</mgrwt>
</event>
<event>
 5    0  0.1829809E+000  0.3174868E+03  0.7546771E-02  0.1076812E+00
         21   -1    0    0  502  501  0.00000000000E+00  0.00000000000E+00  0.17140863608E+03  0.17140863608E+03  0.00000000000E+00 0.  1.
         21   -1    0    0  503  502 -0.00000000000E+00 -0.00000000000E+00 -0.66714425399E+03  0.66714425399E+03  0.00000000000E+00 0.  1.
         25    1    1    2    0    0 -0.20098471774E+03 -0.21160814310E+03 -0.81011836115E+02  0.32765954981E+03  0.12500000000E+03 0.  0.
         21    1    1    2  503  504  0.57072699288E+02  0.24262083249E+02 -0.91693835602E+02  0.11069643705E+03  0.00000000000E+00 0.  1.
         21    1    1    2  504  501  0.14391201845E+03  0.18734605985E+03 -0.32302994619E+03  0.40019690320E+03  0.00000000000E+00 0.  1.
<mgrwt>
<rscale>  4 0.31748679E+03</rscale>
<asrwt>0</asrwt>
<pdfrwt beam="1">  1       21 0.26370559E-01 0.31748679E+03</pdfrwt>
<pdfrwt beam="2">  1       21 0.10263758E+00 0.31748679E+03</pdfrwt>
<totfact> 0.98382663E+03</totfact>
</mgrwt>
</event>
<event>
 5    0  0.1829809E+000  0.2809896E+03  0.7546771E-02  0.1095150E+00
         21   -1    0    0  502  501  0.00000000000E+00  0.00000000000E+00  0.12332880317E+04  0.12332880317E+04  0.00000000000E+00 0.  1.
         21   -1    0    0  503  502 -0.00000000000E+00 -0.00000000000E+00 -0.64071050248E+02  0.64071050248E+02  0.00000000000E+00 0.  1.
         25    1    1    2    0    0  0.20219587731E+03 -0.14982320139E+03  0.79499644492E+03  0.84319304546E+03  0.12500000000E+03 0.  0.
         21    1    1    2  503  504 -0.94018114023E+02  0.92431851328E+02  0.22863156343E+03  0.26392317955E+03  0.00000000000E+00 0.  1.
         21    1    1    2  504  501 -0.10817776329E+03  0.57391350057E+02  0.14558897313E+03  0.19024285697E+03  0.00000000000E+00 0.  1.
<mgrwt>
<rscale>  4 0.28098962E+03</rscale>
<asrwt>0</asrwt>
<pdfrwt beam="1">  1       21 0.18973660E+00 0.28098962E+03</pdfrwt>
<pdfrwt beam="2">  1       21 0.98570856E-02 0.28098962E+03</pdfrwt>
<totfact> 0.12279706E+04</totfact>
</mgrwt>
</event>
<event>
 5    0  0.1829809E+000  0.2463891E+03  0.7546771E-02  0.1115608E+00
         21   -1    0    0  502  501  0.00000000000E+00  0.00000000000E+00  0.30616868754E+03  0.30616868754E+03  0.00000000000E+00 0. -1.
         21   -1    0    0  503  502 -0.00000000000E+00 -0.00000000000E+00 -0.45372520282E+03  0.45372520282E+03  0.00000000000E+00 0. -1.
         25    1    1    2    0    0  0.19717900639E+03  0.78759271991E+02  0.22143555529E+03  0.33127222737E+03  0.12500000000E+03 0.  0.
         21    1    1    2  503  504 -0.15594839214E+02 -0.20210894795E+02 -0.28051441484E+02  0.37928388417E+02  0.00000000000E+00 0. -1.
         21    1    1    2  504  501 -0.18158416717E+03 -0.58548377195E+02 -0.34094062908E+03  0.39069327457E+03  0.00000000000E+00 0. -1.
<mgrwt>
<rscale>  4 0.24638909E+03</rscale>
<asrwt>0</asrwt>
<pdfrwt beam="1">  1       21 0.47102875E-01 0.24638909E+03</pdfrwt>
<pdfrwt beam="2">  1       21 0.69803877E-01 0.24638909E+03</pdfrwt>
<totfact> 0.77619659E+03</totfact>
</mgrwt>
</event>
<event>
 5    0  0.1829809E+000  0.2854897E+03  0.7546771E-02  0.1092728E+00
         21   -1    0    0  502  501  0.00000000000E+00  0.00000000000E+00  0.98621706670E+03  0.98621706670E+03  0.00000000000E+00 0.  1.
         21   -1    0    0  503  502 -0.00000000000E+00 -0.00000000000E+00 -0.92265505665E+02  0.92265505665E+02  0.00000000000E+00 0. -1.
         25    1    1    2    0    0 -0.25407709394E+03  0.36389467960E+02  0.68419285058E+03  0.74136645449E+03  0.12500000000E+03 0.  0.
         21    1    1    2  503  504  0.18110232467E+03 -0.41813535674E+02  0.11969918721E+03  0.22107536992E+03  0.00000000000E+00 0. -1.
         21    1    1    2  504  501  0.72974769275E+02  0.54240677139E+01  0.90059523243E+02  0.11604074796E+03  0.00000000000E+00 0.  1.
<mgrwt>
<rscale>  4 0.28548969E+03</rscale>
<asrwt>0</asrwt>
<pdfrwt beam="1">  1       21 0.15172569E+00 0.28548969E+03</pdfrwt>
<pdfrwt beam="2">  1       21 0.14194694E-01 0.28548969E+03</pdfrwt>
<totfact> 0.11872412E+04</totfact>
</mgrwt>
</event>
<event>
 5    0  0.1829809E+000  0.2590498E+03  0.7546771E-02  0.1107715E+00
         21   -1    0    0  502  501  0.00000000000E+00  0.00000000000E+00  0.30627592872E+03  0.30627592872E+03  0.00000000000E+00 0. -1.
         21   -1    0    0  503  502 -0.00000000000E+00 -0.00000000000E+00 -0.19978266167E+03  0.19978266167E+03  0.00000000000E+00 0. -1.
         25    1    1    2    0    0  0.42585384267E+02  0.22286386809E+03  0.63285027495E+02  0.26666798338E+03  0.12500000000E+03 0.  0.
         21    1    1    2  503  504 -0.10458952603E+02 -0.26762979873E+02 -0.14881488457E+02  0.32359009255E+02  0.00000000000E+00 0. -1.
         21    1    1    2  504  501 -0.32126431664E+02 -0.19610088821E+03  0.58089728016E+02  0.20703159776E+03  0.00000000000E+00 0. -1.
<mgrwt>
<rscale>  4 0.25904984E+03</rscale>
<asrwt>0</asrwt>
<pdfrwt beam="1">  1       21 0.47119374E-01 0.25904984E+03</pdfrwt>
<pdfrwt beam="2">  1       21 0.30735794E-01 0.25904984E+03</pdfrwt>
<totfact> 0.42507257E+04</totfact>
</mgrwt>
</event>
<event>
 5    0  0.1829809E+000  0.2851267E+03  0.7546771E-02  0.1092921E+00
         21   -1    0    0  502  501  0.00000000000E+00  0.00000000000E+00  0.40654905086E+03  0.40654905086E+03  0.00000000000E+00 0. -1.
         21   -1    0    0  503  502 -0.00000000000E+00 -0.00000000000E+00 -0.19450019349E+03  0.19450019349E+03  0.00000000000E+00 0.  1.
         25    1    1    2    0    0  0.25392302044E+03  0.34573524768E+02  0.53924496471E+02  0.29018111628E+03  0.12500000000E+03 0.  0.
         21    1    1    2  503  504 -0.47985698217E+02 -0.33767022255E+02  0.55541082375E+02  0.80793878832E+02  0.00000000000E+00 0.  1.
         21    1    1    2  504  501 -0.20593732222E+03 -0.80650251275E+00  0.10258327852E+03  0.23007424924E+03  0.00000000000E+00 0.  1.
<mgrwt>
<rscale>  4 0.28512669E+03</rscale>
<asrwt>0</asrwt>
<pdfrwt beam="1">  1       21 0.62546008E-01 0.28512669E+03</pdfrwt>
<pdfrwt beam="2">  1       21 0.29923107E-01 0.28512669E+03</pdfrwt>
<totfact> 0.24250408E+04</totfact>
</mgrwt>
</event>
<event>
 5    0  0.1829809E+000  0.3034299E+03  0.7546771E-02  0.1083538E+00
         21   -1    0    0  502  501  0.00000000000E+00  0.00000000000E+00  0.14669236550E+03  0.14669236550E+03  0.00000000000E+00 0.  1.
         21   -1    0    0  503  502 -0.00000000000E+00 -0.00000000000E+00 -0.11835249521E+04  0.11835249521E+04  0.00000000000E+00 0.  1.
         25    1    1    2    0    0 -0.26631127942E+03  0.26504681421E+03 -0.52329438929E+03  0.65622673607E+03  0.12500000000E+03 0.  0.
         21    1    1    2  503  504  0.79728911159E+02 -0.22025998814E+03 -0.35381406279E+03  0.42432953312E+03  0.00000000000E+00 0.  1.
         21    1    1    2  504  501  0.18658236826E+03 -0.44786826071E+02 -0.15972413448E+03  0.24966104837E+03  0.00000000000E+00 0.  1.
<mgrwt>
<rscale>  4 0.30342994E+03</rscale>
<asrwt>0</asrwt>
<pdfrwt beam="1">  1       21 0.22568055E-01 0.30342994E+03</pdfrwt>
<pdfrwt beam="2">  1       21 0.18208077E+00 0.30342994E+03</pdfrwt>
<totfact> 0.29769648E+03</totfact>
</mgrwt>
</event>
<event>
 5    0  0.1829809E+000  0.3469059E+03  0.7546771E-02  0.1063892E+00
         21   -1    0    0  502  501  0.00000000000E+00  0.00000000000E+00  0.30923214676E+03  0.30923214676E+03  0.00000000000E+00 0.  1.
         21   -1    0    0  503  502 -0.00000000000E+00 -0.00000000000E+00 -0.48123140701E+03  0.48123140701E+03  0.00000000000E+00 0.  1.
         25    1    1    2    0    0 -0.26639968063E+03 -0.20367993730E+03 -0.92213603217E+01  0.35800047512E+03  0.12500000000E+03 0.  0.
         21    1    1    2  503  504 -0.23116793986E+02  0.67898987770E+02  0.39451576560E+01  0.71834691990E+02  0.00000000000E+00 0. -1.
         21    1    1    2  504  501  0.28951647462E+03  0.13578094953E+03 -0.16672305759E+03  0.36062838666E+03  0.00000000000E+00 0.  1.
<mgrwt>
<rscale>  4 0.34690587E+03</rscale>
<asrwt>0</asrwt>
<pdfrwt beam="1">  1       21 0.47574177E-01 0.34690587E+03</pdfrwt>
<pdfrwt beam="2">  1       21 0.74035600E-01 0.34690587E+03</pdfrwt>
<totfact> 0.63417764E+03</totfact>
</mgrwt>
</event>
<event>
 5    0  0.1829809E+000  0.3888983E+03  0.7546771E-02  0.1047693E+00
         21   -1    0    0  502  501  0.00000000000E+00  0.00000000000E+00  0.95110772828E+02  0.95110772828E+02  0.00000000000E+00 0.  1.
         21   -1    0    0  503  502 -0.00000000000E+00 -0.00000000000E+00 -0.23317107105E+04  0.23317107105E+04  0.00000000000E+00 0.  1.
         25    1    1    2    0    0 -0.28988627551E+03  0.27784118174E+03 -0.60040576034E+03  0.73303605099E+03  0.12500000000E+03 0.  0.
         21    1    1    2  503  504  0.14506730423E+02 -0.48525926292E+02 -0.65869904324E+02  0.83090643551E+02  0.00000000000E+00 0.  1.
         21    1    1    2  504  501  0.27537954509E+03 -0.22931525545E+03 -0.15703242731E+04  0.16106947888E+04  0.00000000000E+00 0.  1.
<mgrwt>
<rscale>  4 0.38889834E+03</rscale>
<asrwt>0</asrwt>
<pdfrwt beam="1">  1       21 0.14632428E-01 0.38889834E+03</pdfrwt>
<pdfrwt beam="2">  1       21 0.35872469E+00 0.38889834E+03</pdfrwt>
<totfact> 0.51949099E+02</totfact>
</mgrwt>
</event>
<event>
 5    0  0.1829809E+000  0.3153104E+03  0.7546771E-02  0.1077828E+00
         21   -1    0    0  502  501  0.00000000000E+00  0.00000000000E+00  0.12440741156E+04  0.12440741156E+04  0.00000000000E+00 0.  1.
         21   -1    0    0  503  502 -0.00000000000E+00 -0.00000000000E+00 -0.75214721298E+02  0.75214721298E+02  0.00000000000E+00 0.  1.
         25    1    1    2    0    0  0.20111769867E+03 -0.20820013687E+03  0.62926442050E+03  0.70384255102E+03  0.12500000000E+03 0.  0.
         21    1    1    2  503  504 -0.83381929734E+02  0.82786831516E+02  0.15827644786E+03  0.19712341217E+03  0.00000000000E+00 0.  1.
         21    1    1    2  504  501 -0.11773576894E+03  0.12541330535E+03  0.38131852597E+03  0.41832287374E+03  0.00000000000E+00 0.  1.
<mgrwt>
<rscale>  4 0.31531036E+03</rscale>
<asrwt>0</asrwt>
<pdfrwt beam="1">  1       21 0.19139600E+00 0.31531036E+03</pdfrwt>
<pdfrwt beam="2">  1       21 0.11571497E-01 0.31531036E+03</pdfrwt>
<totfact> 0.88167242E+03</totfact>
</mgrwt>
</event>
<event>
 5    0  0.1829809E+000  0.2334588E+03  0.7546771E-02  0.1124229E+00
         21   -1    0    0  502  501  0.00000000000E+00  0.00000000000E+00  0.16082031155E+04  0.16082031155E+04  0.00000000000E+00 0.  1.
         21   -1    0    0  503  502 -0.00000000000E+00 -0.00000000000E+00 -0.18942029799E+03  0.18942029799E+03  0.00000000000E+00 0. -1.
         25    1    1    2    0    0 -0.17978543529E+03 -0.13703283770E+03  0.14189612994E+04  0.14422818624E+04  0.12500000000E+03 0.  0.
         21    1    1    2  503  504  0.76610271170E+02  0.10874148411E+03  0.13057585200E+03  0.18639714896E+03  0.00000000000E+00 0.  1.
         21    1    1    2  504  501  0.10317516412E+03  0.28291353595E+02 -0.13075433390E+03  0.16894440214E+03  0.00000000000E+00 0. -1.
<mgrwt>
<rscale>  4 0.23345883E+03</rscale>
<asrwt>0</asrwt>
<pdfrwt beam="1">  1       21 0.24741585E+00 0.23345883E+03</pdfrwt>
<pdfrwt beam="2">  1       21 0.29141585E-01 0.23345883E+03</pdfrwt>
<totfact> 0.74035437E+02</totfact>
</mgrwt>
</event>
<event>
 5    0  0.1829809E+000  0.2107823E+03  0.7546771E-02  0.1140948E+00
         21   -1    0    0  502  501  0.00000000000E+00  0.00000000000E+00  0.22308050449E+03  0.22308050449E+03  0.00000000000E+00 0. -1.
         21   -1    0    0  503  502 -0.00000000000E+00 -0.00000000000E+00 -0.28244403694E+03  0.28244403694E+03  0.00000000000E+00 0. -1.
         25    1    1    2    0    0 -0.37061904626E+02 -0.21231547756E+03 -0.26886782618E+02  0.25059797658E+03  0.12500000000E+03 0.  0.
         21    1    1    2  503  504  0.75455329267E+02  0.67048809320E+02 -0.27367662499E+02  0.10458507779E+03  0.00000000000E+00 0. -1.
         21    1    1    2  504  501 -0.38393424641E+02  0.14526666824E+03 -0.51090873325E+01  0.15034148706E+03  0.00000000000E+00 0. -1.
<mgrwt>
<rscale>  4 0.21078232E+03</rscale>
<asrwt>0</asrwt>
<pdfrwt beam="1">  1       21 0.34320078E-01 0.21078232E+03</pdfrwt>
<pdfrwt beam="2">  1       21 0.43452929E-01 0.21078232E+03</pdfrwt>
<totfact> 0.41269902E+04</totfact>
</mgrwt>
</event>
<event>
 5    0  0.1829809E+000  0.2614110E+03  0.7546771E-02  0.1106298E+00
         21   -1    0    0  502  501  0.00000000000E+00  0.00000000000E+00  0.39822160423E+03  0.39822160423E+03  0.00000000000E+00 0. -1.
         21   -1    0    0  503  502 -0.00000000000E+00 -0.00000000000E+00 -0.20727759427E+03  0.20727759427E+03  0.00000000000E+00 0. -1.
         25    1    1    2    0    0  0.20949264696E+03 -0.93933802651E+02  0.24763270427E+03  0.36008010864E+03  0.12500000000E+03 0.  0.
         21    1    1    2  503  504 -0.81267080500E+02  0.31094536232E+02 -0.54374004180E+02  0.10260478004E+03  0.00000000000E+00 0. -1.
         21    1    1    2  504  501 -0.12822556646E+03  0.62839266418E+02 -0.23146901327E+01  0.14281430982E+03  0.00000000000E+00 0. -1.
<mgrwt>
<rscale>  4 0.26141103E+03</rscale>
<asrwt>0</asrwt>
<pdfrwt beam="1">  1       21 0.61264862E-01 0.26141103E+03</pdfrwt>
<pdfrwt beam="2">  1       21 0.31888861E-01 0.26141103E+03</pdfrwt>
<totfact> 0.22605189E+04</totfact>
</mgrwt>
</event>
<event>
 5    0  0.1829809E+000  0.2279483E+03  0.7546771E-02  0.1128092E+00
         21   -1    0    0  502  501  0.00000000000E+00  0.00000000000E+00  0.67655998255E+03  0.67655998255E+03  0.00000000000E+00 0.  1.
         21   -1    0    0  503  502 -0.00000000000E+00 -0.00000000000E+00 -0.11415917298E+03  0.11415917298E+03  0.00000000000E+00 0.  1.
         25    1    1    2    0    0 -0.65191171669E+02  0.23208402074E+03  0.24343976394E+03  0.36469274768E+03  0.12500000000E+03 0.  0.
         21    1    1    2  503  504 -0.44056870756E+02 -0.10937305412E+03  0.14147688596E+03  0.18417161043E+03  0.00000000000E+00 0.  1.
         21    1    1    2  504  501  0.10924804243E+03 -0.12271096661E+03  0.17748415967E+03  0.24185479742E+03  0.00000000000E+00 0.  1.
<mgrwt>
<rscale>  4 0.22794829E+03</rscale>
<asrwt>0</asrwt>
<pdfrwt beam="1">  1       21 0.10408615E+00 0.22794829E+03</pdfrwt>
<pdfrwt beam="2">  1       21 0.17562950E-01 0.22794829E+03</pdfrwt>
<totfact> 0.21470034E+04</totfact>
</mgrwt>
</event>
<event>
 5    0  0.1829809E+000  0.3108172E+03  0.7546771E-02  0.1079955E+00
         21   -1    0    0  502  501  0.00000000000E+00  0.00000000000E+00  0.17447914642E+04  0.17447914642E+04  0.00000000000E+00 0. -1.
         21   -1    0    0  503  502 -0.00000000000E+00 -0.00000000000E+00 -0.52951328668E+02  0.52951328668E+02  0.00000000000E+00 0. -1.
         25    1    1    2    0    0  0.53347654287E+02 -0.27952883980E+03  0.96622967953E+03  0.10149912010E+04  0.12500000000E+03 0.  0.
         21    1    1    2  503  504 -0.11181513701E+02  0.17682254951E+02  0.11710448866E+03  0.11895860479E+03  0.00000000000E+00 0.  1.
         21    1    1    2  504  501 -0.42166140586E+02  0.26184658485E+03  0.60850596731E+03  0.66379298705E+03  0.00000000000E+00 0. -1.
<mgrwt>
<rscale>  4 0.31081722E+03</rscale>
<asrwt>0</asrwt>
<pdfrwt beam="1">  1       21 0.26842941E+00 0.31081722E+03</pdfrwt>
<pdfrwt beam="2">  1       21 0.81463596E-02 0.31081722E+03</pdfrwt>
<totfact> 0.54673915E+03</totfact>
</mgrwt>
</event>
<event>
 5    0  0.1829809E+000  0.2628637E+03  0.7546771E-02  0.1105435E+00
         21   -1    0    0  502  501  0.00000000000E+00  0.00000000000E+00  0.80446490111E+03  0.80446490111E+03  0.00000000000E+00 0.  1.
         21   -1    0    0  503  502 -0.00000000000E+00 -0.00000000000E+00 -0.14206511304E+03  0.14206511304E+03  0.00000000000E+00 0. -1.
         25    1    1    2    0    0 -0.15367634411E+03 -0.14072106692E+03  0.54693363748E+03  0.59848161310E+03  0.12500000000E+03 0.  0.
         21    1    1    2  503  504 -0.59963880097E+02  0.35032805538E+02  0.81840622399E+02  0.10733523119E+03  0.00000000000E+00 0. -1.
         21    1    1    2  504  501  0.21364022421E+03  0.10568826138E+03  0.33625528190E+02  0.24071316985E+03  0.00000000000E+00 0. -1.
<mgrwt>
<rscale>  4 0.26286366E+03</rscale>
<asrwt>0</asrwt>
<pdfrwt beam="1">  1       21 0.12376383E+00 0.26286366E+03</pdfrwt>
<pdfrwt beam="2">  1       21 0.21856172E-01 0.26286366E+03</pdfrwt>
<totfact> 0.91324816E+03</totfact>
</mgrwt>
</event>
<event>
 5    0  0.1829809E+000  0.2060463E+03  0.7546771E-02  0.1144736E+00
         21   -1    0    0  502  501  0.00000000000E+00  0.00000000000E+00  0.12178810452E+04  0.12178810452E+04  0.00000000000E+00 0. -1.
         21   -1    0    0  503  502 -0.00000000000E+00 -0.00000000000E+00 -0.64805454034E+02  0.64805454034E+02  0.00000000000E+00 0. -1.
         25    1    1    2    0    0 -0.19463261299E+03 -0.47774220635E+02  0.94218823176E+03  0.97134334520E+03  0.12500000000E+03 0.  0.
         21    1    1    2  503  504  0.86945515592E+02 -0.66586394203E+01  0.26782593097E+02  0.91220433311E+02  0.00000000000E+00 0. -1.
         21    1    1    2  504  501  0.10768709739E+03  0.54432860056E+02  0.18410476628E+03  0.22012272069E+03  0.00000000000E+00 0. -1.
<mgrwt>
<rscale>  4 0.20604627E+03</rscale>
<asrwt>0</asrwt>
<pdfrwt beam="1">  1       21 0.18736630E+00 0.20604627E+03</pdfrwt>
<pdfrwt beam="2">  1       21 0.99700707E-02 0.20604627E+03</pdfrwt>
<totfact> 0.13106843E+04</totfact>
</mgrwt>
</event>
<event>
 5    0  0.1829809E+000  0.3153307E+03  0.7546771E-02  0.1077819E+00
         21   -1    0    0  502  501  0.00000000000E+00  0.00000000000E+00  0.25191712323E+04  0.25191712323E+04  0.00000000000E+00 0.  1.
         21   -1    0    0  503  502 -0.00000000000E+00 -0.00000000000E+00 -0.48776739359E+02  0.48776739359E+02  0.00000000000E+00 0.  1.
         25    1    1    2    0    0  0.28944043523E+03 -0.57188517051E+01  0.18814020097E+04  0.19076443570E+04  0.12500000000E+03 0.  0.
         21    1    1    2  503  504 -0.17517663445E+03 -0.11105693102E+02  0.42406966261E+03  0.45896107506E+03  0.00000000000E+00 0.  1.
         21    1    1    2  504  501 -0.11426380078E+03  0.16824544807E+02  0.16492282067E+03  0.20134253960E+03  0.00000000000E+00 0.  1.
<mgrwt>
<rscale>  4 0.31533073E+03</rscale>
<asrwt>0</asrwt>
<pdfrwt beam="1">  1       21 0.38756470E+00 0.31533073E+03</pdfrwt>
<pdfrwt beam="2">  1       21 0.75041157E-02 0.31533073E+03</pdfrwt>
<totfact> 0.12117827E+03</totfact>
</mgrwt>
</event>
<event>
 5    0  0.1829809E+000  0.3274202E+03  0.7546771E-02  0.1072284E+00
         21   -1    0    0  502  501  0.00000000000E+00  0.00000000000E+00  0.15517352479E+03  0.15517352479E+03  0.00000000000E+00 0.  1.
         21   -1    0    0  503  502 -0.00000000000E+00 -0.00000000000E+00 -0.17582168052E+04  0.17582168052E+04  0.00000000000E+00 0.  1.
         25    1    1    2    0    0 -0.18005065489E+03  0.24322988912E+03 -0.51898488583E+02  0.33150787382E+03  0.12500000000E+03 0.  0.
         21    1    1    2  503  504  0.38605244923E+02 -0.58596578661E+02 -0.52750322269E+03  0.53214995435E+03  0.00000000000E+00 0.  1.
         21    1    1    2  504  501  0.14144540997E+03 -0.18463331045E+03 -0.10236415691E+04  0.10497325018E+04  0.00000000000E+00 0.  1.
<mgrwt>
<rscale>  4 0.32742025E+03</rscale>
<asrwt>0</asrwt>
<pdfrwt beam="1">  1       21 0.23872850E-01 0.32742025E+03</pdfrwt>
<pdfrwt beam="2">  1       21 0.27049489E+00 0.32742025E+03</pdfrwt>
<totfact> 0.73054796E+02</totfact>
</mgrwt>
</event>
<event>
 5    0  0.1829809E+000  0.2672117E+03  0.7546771E-02  0.1102886E+00
         21   -1    0    0  502  501  0.00000000000E+00  0.00000000000E+00  0.44142107684E+03  0.44142107684E+03  0.00000000000E+00 0.  1.
         21   -1    0    0  503  502 -0.00000000000E+00 -0.00000000000E+00 -0.16257534392E+03  0.16257534392E+03  0.00000000000E+00 0.  1.
         25    1    1    2    0    0  0.17475827257E+03 -0.15886036956E+03  0.60987349142E+02  0.27408306698E+03  0.12500000000E+03 0.  0.
         21    1    1    2  503  504 -0.14884989214E+03  0.10270714051E+03  0.18928407398E+03  0.26178905203E+03  0.00000000000E+00 0.  1.
         21    1    1    2  504  501 -0.25908380432E+02  0.56153229047E+02  0.28574309794E+02  0.68124301752E+02  0.00000000000E+00 0.  1.
<mgrwt>
<rscale>  4 0.26721166E+03</rscale>
<asrwt>0</asrwt>
<pdfrwt beam="1">  1       21 0.67910935E-01 0.26721166E+03</pdfrwt>
<pdfrwt beam="2">  1       21 0.25011591E-01 0.26721166E+03</pdfrwt>
<totfact> 0.28895722E+04</totfact>
</mgrwt>
</event>
<event>
 5    0  0.1829809E+000  0.2487299E+03  0.7546771E-02  0.1114110E+00
         21   -1    0    0  502  501  0.00000000000E+00  0.00000000000E+00  0.23454814959E+03  0.23454814959E+03  0.00000000000E+00 0.  1.
         21   -1    0    0  503  502 -0.00000000000E+00 -0.00000000000E+00 -0.41683024890E+03  0.41683024890E+03  0.00000000000E+00 0.  1.
         25    1    1    2    0    0 -0.84259357841E+02  0.19295066041E+03  0.99096466485E+02  0.26414902310E+03  0.12500000000E+03 0.  0.
         21    1    1    2  503  504 -0.27350432408E+02  0.11214384162E+02 -0.13768539240E+02  0.32609526796E+02  0.00000000000E+00 0.  1.
         21    1    1    2  504  501  0.11160979025E+03 -0.20416504457E+03 -0.26761002655E+03  0.35461984859E+03  0.00000000000E+00 0.  1.
<mgrwt>
<rscale>  4 0.24872991E+03</rscale>
<asrwt>0</asrwt>
<pdfrwt beam="1">  1       21 0.36084331E-01 0.24872991E+03</pdfrwt>
<pdfrwt beam="2">  1       21 0.64127730E-01 0.24872991E+03</pdfrwt>
<totfact> 0.16097547E+04</totfact>
</mgrwt>
</event>
<event>
 5    0  0.1829809E+000  0.3614096E+03  0.7546771E-02  0.1058027E+00
         21   -1    0    0  502  501  0.00000000000E+00  0.00000000000E+00  0.31210414114E+03  0.31210414114E+03  0.00000000000E+00 0. -1.
         21   -1    0    0  503  502 -0.00000000000E+00 -0.00000000000E+00 -0.76658142797E+03  0.76658142797E+03  0.00000000000E+00 0.  1.
         25    1    1    2    0    0 -0.33472037079E+03 -0.54352087850E+02  0.14130889407E+03  0.38805293404E+03  0.12500000000E+03 0.  0.
         21    1    1    2  503  504  0.19373038019E+03  0.66588884511E+02 -0.39532867670E+03  0.44525307677E+03  0.00000000000E+00 0.  1.
         21    1    1    2  504  501  0.14098999059E+03 -0.12236796661E+02 -0.20045750420E+03  0.24537955830E+03  0.00000000000E+00 0. -1.
<mgrwt>
<rscale>  4 0.36140957E+03</rscale>
<asrwt>0</asrwt>
<pdfrwt beam="1">  1       21 0.48016021E-01 0.36140957E+03</pdfrwt>
<pdfrwt beam="2">  1       21 0.11793560E+00 0.36140957E+03</pdfrwt>
<totfact> 0.20425876E+03</totfact>
</mgrwt>
</event>
<event>
 5    0  0.1829809E+000  0.4058405E+03  0.7546771E-02  0.1041776E+00
         21   -1    0    0  502  501  0.00000000000E+00  0.00000000000E+00  0.33475889116E+03  0.33475889116E+03  0.00000000000E+00 0.  1.
         21   -1    0    0  503  502 -0.00000000000E+00 -0.00000000000E+00 -0.13188144344E+04  0.13188144344E+04  0.00000000000E+00 0. -1.
         25    1    1    2    0    0 -0.21401333771E+03 -0.32137179231E+03  0.16414697792E+03  0.43777935992E+03  0.12500000000E+03 0.  0.
         21    1    1    2  503  504  0.21942853002E+03  0.27113338272E+03 -0.10201946078E+04  0.10781740253E+04  0.00000000000E+00 0. -1.
         21    1    1    2  504  501 -0.54151923162E+01  0.50238409592E+02 -0.12800791338E+03  0.13761994040E+03  0.00000000000E+00 0.  1.
<mgrwt>
<rscale>  4 0.40584053E+03</rscale>
<asrwt>0</asrwt>
<pdfrwt beam="1">  1       21 0.51501367E-01 0.40584053E+03</pdfrwt>
<pdfrwt beam="2">  1       21 0.20289453E+00 0.40584053E+03</pdfrwt>
<totfact> 0.38603818E+02</totfact>
</mgrwt>
</event>
<event>
 5    0  0.1829809E+000  0.2026421E+03  0.7546771E-02  0.1147529E+00
         21   -1    0    0  502  501  0.00000000000E+00  0.00000000000E+00  0.84621216977E+02  0.84621216977E+02  0.00000000000E+00 0. -1.
         21   -1    0    0  503  502 -0.00000000000E+00 -0.00000000000E+00 -0.11766259747E+04  0.11766259747E+04  0.00000000000E+00 0. -1.
         25    1    1    2    0    0 -0.88693791717E+02 -0.18531538111E+03 -0.14751151356E+03  0.28212235962E+03  0.12500000000E+03 0.  0.
         21    1    1    2  503  504  0.53393032415E+02  0.14550883545E+03 -0.88837447684E+03  0.90179423828E+03  0.00000000000E+00 0. -1.
         21    1    1    2  504  501  0.35300759302E+02  0.39806545668E+02 -0.56118767294E+02  0.77330593739E+02  0.00000000000E+00 0. -1.
<mgrwt>
<rscale>  4 0.20264211E+03</rscale>
<asrwt>0</asrwt>
<pdfrwt beam="1">  1       21 0.13018648E-01 0.20264211E+03</pdfrwt>
<pdfrwt beam="2">  1       21 0.18101939E+00 0.20264211E+03</pdfrwt>
<totfact> 0.90058091E+03</totfact>
</mgrwt>
</event>
<event>
 5    0  0.1829809E+000  0.3133988E+03  0.7546771E-02  0.1078728E+00
         21   -1    0    0  502  501  0.00000000000E+00  0.00000000000E+00  0.12589717822E+04  0.12589717822E+04  0.00000000000E+00 0. -1.
         21   -1    0    0  503  502 -0.00000000000E+00 -0.00000000000E+00 -0.99009059522E+02  0.99009059522E+02  0.00000000000E+00 0.  1.
         25    1    1    2    0    0 -0.28587093483E+03  0.29522984178E+02  0.92351504958E+03  0.97524296705E+03  0.12500000000E+03 0.  0.
         21    1    1    2  503  504  0.19015006159E+03  0.17071485882E+02  0.17929866216E+03  0.26190931982E+03  0.00000000000E+00 0.  1.
         21    1    1    2  504  501  0.95720873245E+02 -0.46594470060E+02  0.57149010908E+02  0.12082855483E+03  0.00000000000E+00 0.  1.
<mgrwt>
<rscale>  4 0.31339878E+03</rscale>
<asrwt>0</asrwt>
<pdfrwt beam="1">  1       21 0.19368796E+00 0.31339878E+03</pdfrwt>
<pdfrwt beam="2">  1       21 0.15232164E-01 0.31339878E+03</pdfrwt>
<totfact> 0.51610742E+03</totfact>
</mgrwt>
</event>
<event>
 5    0  0.1829809E+000  0.3605521E+03  0.7546771E-02  0.1058365E+00
         21   -1    0    0  502  501  0.00000000000E+00  0.00000000000E+00  0.73855753603E+02  0.73855753603E+02  0.00000000000E+00 0. -1.
         21   -1    0    0  503  502 -0.00000000000E+00 -0.00000000000E+00 -0.16872223713E+04  0.16872223713E+04  0.00000000000E+00 0. -1.
         25    1    1    2    0    0 -0.33413225476E+02  0.33653589169E+03 -0.90727697914E+03  0.97629368886E+03  0.12500000000E+03 0.  0.
         21    1    1    2  503  504  0.26859024129E+01 -0.23750982581E+02 -0.24529190291E+02  0.34249152131E+02  0.00000000000E+00 0.  1.
         21    1    1    2  504  501  0.30727323063E+02 -0.31278490911E+03 -0.68156044824E+03  0.75053528388E+03  0.00000000000E+00 0. -1.
<mgrwt>
<rscale>  4 0.36055215E+03</rscale>
<asrwt>0</asrwt>
<pdfrwt beam="1">  1       21 0.11362424E-01 0.36055215E+03</pdfrwt>
<pdfrwt beam="2">  1       21 0.25957267E+00 0.36055215E+03</pdfrwt>
<totfact> 0.33095155E+03</totfact>
</mgrwt>
</event>
<event>
 5    0  0.1829809E+000  0.3717555E+03  0.7546771E-02  0.1054024E+00
         21   -1    0    0  502  501  0.00000000000E+00  0.00000000000E+00  0.59325626570E+03  0.59325626570E+03  0.00000000000E+00 0. -1.
         21   -1    0    0  503  502 -0.00000000000E+00 -0.00000000000E+00 -0.29715143547E+03  0.29715143547E+03  0.00000000000E+00 0. -1.
         25    1    1    2    0    0  0.50586756301E+02  0.36929417155E+03  0.25297031925E+03  0.46749993313E+03  0.12500000000E+03 0.  0.
         21    1    1    2  503  504  0.28553063975E+01 -0.34093891324E+03 -0.11848791290E+02  0.34115669302E+03  0.00000000000E+00 0. -1.
         21    1    1    2  504  501 -0.53442062699E+02 -0.28355258312E+02  0.54983302262E+02  0.81751075021E+02  0.00000000000E+00 0. -1.
<mgrwt>
<rscale>  4 0.37175546E+03</rscale>
<asrwt>0</asrwt>
<pdfrwt beam="1">  1       21 0.91270194E-01 0.37175546E+03</pdfrwt>
<pdfrwt beam="2">  1       21 0.45715606E-01 0.37175546E+03</pdfrwt>
<totfact> 0.42065896E+03</totfact>
</mgrwt>
</event>
<event>
 5    0  0.1829809E+000  0.2558406E+03  0.7546771E-02  0.1109668E+00
         21   -1    0    0  502  501  0.00000000000E+00  0.00000000000E+00  0.16889965955E+03  0.16889965955E+03  0.00000000000E+00 0. -1.
         21   -1    0    0  503  502 -0.00000000000E+00 -0.00000000000E+00 -0.39880921265E+03  0.39880921265E+03  0.00000000000E+00 0. -1.
         25    1    1    2    0    0 -0.17230067471E+03 -0.14192211349E+03 -0.15998183463E+02  0.25634030249E+03  0.12500000000E+03 0.  0.
         21    1    1    2  503  504  0.97317234161E+01  0.18630314051E+02 -0.30337686879E+02  0.36907591190E+02  0.00000000000E+00 0.  1.
         21    1    1    2  504  501  0.16256895130E+03  0.12329179944E+03 -0.18357368276E+03  0.27446097853E+03  0.00000000000E+00 0. -1.
<mgrwt>
<rscale>  4 0.25584059E+03</rscale>
<asrwt>0</asrwt>
<pdfrwt beam="1">  1       21 0.25984563E-01 0.25584059E+03</pdfrwt>
<pdfrwt beam="2">  1       21 0.61355264E-01 0.25584059E+03</pdfrwt>
<totfact> 0.33696078E+04</totfact>
</mgrwt>
</event>
<event>
 5    0  0.1829809E+000  0.3578380E+03  0.7546771E-02  0.1059443E+00
         21   -1    0    0  502  501  0.00000000000E+00  0.00000000000E+00  0.26215258779E+03  0.26215258779E+03  0.00000000000E+00 0.  1.
         21   -1    0    0  503  502 -0.00000000000E+00 -0.00000000000E+00 -0.57508646621E+03  0.57508646621E+03  0.00000000000E+00 0.  1.
         25    1    1    2    0    0 -0.32041913214E+03 -0.98765409188E+02 -0.33639730567E+03  0.49113254174E+03  0.12500000000E+03 0.  0.
         21    1    1    2  503  504  0.21778562060E+03  0.41496894326E+02  0.46024477728E+02  0.22643061040E+03  0.00000000000E+00 0.  1.
         21    1    1    2  504  501  0.10263351154E+03  0.57268514862E+02 -0.22561050486E+02  0.11967590186E+03  0.00000000000E+00 0.  1.
<mgrwt>
<rscale>  4 0.35783799E+03</rscale>
<asrwt>0</asrwt>
<pdfrwt beam="1">  1       21 0.40331167E-01 0.35783799E+03</pdfrwt>
<pdfrwt beam="2">  1       21 0.88474841E-01 0.35783799E+03</pdfrwt>
<totfact> 0.59017830E+03</totfact>
</mgrwt>
</event>
<event>
 5    0  0.1829809E+000  0.2384282E+03  0.7546771E-02  0.1120844E+00
         21   -1    0    0  502  501  0.00000000000E+00  0.00000000000E+00  0.20457528397E+03  0.20457528397E+03  0.00000000000E+00 0.  1.
         21   -1    0    0  503  502 -0.00000000000E+00 -0.00000000000E+00 -0.32882930918E+03  0.32882930918E+03  0.00000000000E+00 0.  1.
         25    1    1    2    0    0 -0.51017701830E+02 -0.19652028860E+03  0.69526723553E+02  0.24835860166E+03  0.12500000000E+03 0.  0.
         21    1    1    2  503  504  0.38836595036E+02  0.10969167872E+03 -0.79165448594E+02  0.14073987973E+03  0.00000000000E+00 0.  1.
         21    1    1    2  504  501  0.12181106795E+02  0.86828609883E+02 -0.11461530017E+03  0.14430611175E+03  0.00000000000E+00 0.  1.
<mgrwt>
<rscale>  4 0.23842825E+03</rscale>
<asrwt>0</asrwt>
<pdfrwt beam="1">  1       21 0.31473121E-01 0.23842825E+03</pdfrwt>
<pdfrwt beam="2">  1       21 0.50589124E-01 0.23842825E+03</pdfrwt>
<totfact> 0.35271683E+04</totfact>
</mgrwt>
</event>
