<event>
 5    0  0.1985399E+000  0.2455907E+03  0.7546771E-02  0.1116124E+00
         21   -1    0    0  502  501  0.00000000000E+00  0.00000000000E+00  0.54078390262E+02  0.54078390262E+02  0.00000000000E+00 0.  1.
         21   -1    0    0  503  502 -0.00000000000E+00 -0.00000000000E+00 -0.10873622632E+04  0.10873622632E+04  0.00000000000E+00 0.  1.
         25    1    1    2    0    0 -0.19881761748E+03 -0.71842614756E+02 -0.37397455081E+03  0.44740560006E+03  0.12500000000E+03 0.  0.
         21    1    1    2  503  504  0.16868725565E+03  0.46683268597E+02 -0.57473469519E+03  0.60079504628E+03  0.00000000000E+00 0.  1.
         21    1    1    2  504  501  0.30130361833E+02  0.25159346159E+02 -0.84574626905E+02  0.93240007076E+02  0.00000000000E+00 0.  1.
<mgrwt>
<rscale>  4 0.24559073E+03</rscale>
<asrwt>0</asrwt>
<pdfrwt beam="1">  1       21 0.83197536E-02 0.24559073E+03</pdfrwt>
<pdfrwt beam="2">  1       21 0.16728648E+00 0.24559073E+03</pdfrwt>
<totfact> 0.24186595E+04</totfact>
</mgrwt>
</event>
<event>
 5    0  0.1856407E+000  0.3058775E+03  0.7546771E-02  0.1082339E+00
         21   -1    0    0  502  501  0.00000000000E+00  0.00000000000E+00  0.43515314744E+03  0.43515314744E+03  0.00000000000E+00 0.  1.
         21   -1    0    0  503  502 -0.00000000000E+00 -0.00000000000E+00 -0.40187566398E+03  0.40187566398E+03  0.00000000000E+00 0.  1.
         25    1    1    2    0    0  0.16132930499E+03  0.22783528925E+03  0.31185033285E+03  0.43681997868E+03  0.12500000000E+03 0.  0.
         21    1    1    2  503  504 -0.61916132551E+01 -0.23378671521E+02 -0.42682440428E+01  0.24558425519E+02  0.00000000000E+00 0. -1.
         21    1    1    2  504  501 -0.15513769174E+03 -0.20445661773E+03 -0.27430460535E+03  0.37565040722E+03  0.00000000000E+00 0.  1.
<mgrwt>
<rscale>  4 0.30587753E+03</rscale>
<asrwt>0</asrwt>
<pdfrwt beam="1">  1       21 0.66946638E-01 0.30587753E+03</pdfrwt>
<pdfrwt beam="2">  1       21 0.61827026E-01 0.30587753E+03</pdfrwt>
<totfact> 0.46205402E+03</totfact>
</mgrwt>
</event>
<event>
 5    0  0.1871514E+000  0.2390842E+03  0.7546771E-02  0.1120404E+00
         21   -1    0    0  502  501  0.00000000000E+00  0.00000000000E+00  0.99985500753E+02  0.99985500753E+02  0.00000000000E+00 0.  1.
         21   -1    0    0  503  502 -0.00000000000E+00 -0.00000000000E+00 -0.53519158663E+03  0.53519158663E+03  0.00000000000E+00 0.  1.
         25    1    1    2    0    0  0.47944605066E+02 -0.19808471292E+03 -0.19883230226E+03  0.31095903761E+03  0.12500000000E+03 0.  0.
         21    1    1    2  503  504 -0.42476393991E+02  0.29321687742E+02 -0.71842104413E+02  0.88460688359E+02  0.00000000000E+00 0.  1.
         21    1    1    2  504  501 -0.54682110757E+01  0.16876302518E+03 -0.16453167920E+03  0.23575736142E+03  0.00000000000E+00 0.  1.
<mgrwt>
<rscale>  4 0.23908417E+03</rscale>
<asrwt>0</asrwt>
<pdfrwt beam="1">  1       21 0.15382385E-01 0.23908417E+03</pdfrwt>
<pdfrwt beam="2">  1       21 0.82337167E-01 0.23908417E+03</pdfrwt>
<totfact> 0.47227438E+04</totfact>
</mgrwt>
</event>
<event>
 5    0  0.1856407E+000  0.2815057E+03  0.7546771E-02  0.1094869E+00
         21   -1    0    0  502  501  0.00000000000E+00  0.00000000000E+00  0.56514375202E+03  0.56514375202E+03  0.00000000000E+00 0.  1.
         21   -1    0    0  503  502 -0.00000000000E+00 -0.00000000000E+00 -0.29968364809E+03  0.29968364809E+03  0.00000000000E+00 0.  1.
         25    1    1    2    0    0 -0.24026916023E+03 -0.14809098217E+03  0.39852993327E+03  0.50409455073E+03  0.12500000000E+03 0.  0.
         21    1    1    2  503  504  0.10838761413E+03  0.87957005157E+02  0.29773758291E+02  0.14272626365E+03  0.00000000000E+00 0. -1.
         21    1    1    2  504  501  0.13188154610E+03  0.60133977009E+02 -0.16284358763E+03  0.21800658574E+03  0.00000000000E+00 0.  1.
<mgrwt>
<rscale>  4 0.28150569E+03</rscale>
<asrwt>0</asrwt>
<pdfrwt beam="1">  1       21 0.86945193E-01 0.28150569E+03</pdfrwt>
<pdfrwt beam="2">  1       21 0.46105177E-01 0.28150569E+03</pdfrwt>
<totfact> 0.48340961E+03</totfact>
</mgrwt>
</event>
<event>
 5    0  0.1856407E+000  0.2533149E+03  0.7546771E-02  0.1111228E+00
         21   -1    0    0  502  501  0.00000000000E+00  0.00000000000E+00  0.86819042133E+03  0.86819042133E+03  0.00000000000E+00 0. -1.
         21   -1    0    0  503  502 -0.00000000000E+00 -0.00000000000E+00 -0.77289873726E+02  0.77289873726E+02  0.00000000000E+00 0. -1.
         25    1    1    2    0    0  0.21533580044E+03  0.46625703668E+02  0.55970010730E+03  0.61435549424E+03  0.12500000000E+03 0.  0.
         21    1    1    2  503  504 -0.87588693624E+02 -0.22589982203E+02  0.37655735376E+02  0.97979798701E+02  0.00000000000E+00 0. -1.
         21    1    1    2  504  501 -0.12774710681E+03 -0.24035721464E+02  0.19354470493E+03  0.23314500211E+03  0.00000000000E+00 0. -1.
<mgrwt>
<rscale>  4 0.25331495E+03</rscale>
<asrwt>0</asrwt>
<pdfrwt beam="1">  1       21 0.13356775E+00 0.25331495E+03</pdfrwt>
<pdfrwt beam="2">  1       21 0.11890750E-01 0.25331495E+03</pdfrwt>
<totfact> 0.23254615E+04</totfact>
</mgrwt>
</event>
<event>
 5    0  0.1856407E+000  0.2510377E+03  0.7546771E-02  0.1112651E+00
         21   -1    0    0  502  501  0.00000000000E+00  0.00000000000E+00  0.40863969035E+03  0.40863969035E+03  0.00000000000E+00 0. -1.
         21   -1    0    0  503  502 -0.00000000000E+00 -0.00000000000E+00 -0.84346221807E+03  0.84346221807E+03  0.00000000000E+00 0.  1.
         25    1    1    2    0    0 -0.20728080433E+03 -0.62033356918E+02  0.33150206737E+03  0.41512900391E+03  0.12500000000E+03 0.  0.
         21    1    1    2  503  504 -0.38262353594E+02  0.40376349728E+02 -0.36216643750E+02  0.66376973451E+02  0.00000000000E+00 0.  1.
         21    1    1    2  504  501  0.24554315793E+03  0.21657007189E+02 -0.73010795134E+03  0.77059593106E+03  0.00000000000E+00 0.  1.
<mgrwt>
<rscale>  4 0.25103772E+03</rscale>
<asrwt>0</asrwt>
<pdfrwt beam="1">  1       21 0.62867645E-01 0.25103772E+03</pdfrwt>
<pdfrwt beam="2">  1       21 0.12976342E+00 0.25103772E+03</pdfrwt>
<totfact> 0.96449305E+02</totfact>
</mgrwt>
</event>
<event>
 5    0  0.1856407E+000  0.2310148E+03  0.7546771E-02  0.1125928E+00
         21   -1    0    0  502  501  0.00000000000E+00  0.00000000000E+00  0.64809610465E+02  0.64809610465E+02  0.00000000000E+00 0.  1.
         21   -1    0    0  503  502 -0.00000000000E+00 -0.00000000000E+00 -0.16659847061E+04  0.16659847061E+04  0.00000000000E+00 0. -1.
         25    1    1    2    0    0  0.20405836803E+03  0.10038970095E+03 -0.27570437080E+03  0.37862357256E+03  0.12500000000E+03 0.  0.
         21    1    1    2  503  504 -0.12212417427E+03  0.16242768848E+02 -0.68983084167E+03  0.70074583951E+03  0.00000000000E+00 0. -1.
         21    1    1    2  504  501 -0.81934193764E+02 -0.11663246979E+03 -0.63563988322E+03  0.65142490454E+03  0.00000000000E+00 0. -1.
<mgrwt>
<rscale>  4 0.23101481E+03</rscale>
<asrwt>0</asrwt>
<pdfrwt beam="1">  1       21 0.99707109E-02 0.23101481E+03</pdfrwt>
<pdfrwt beam="2">  1       21 0.25630530E+00 0.23101481E+03</pdfrwt>
<totfact> 0.47963005E+03</totfact>
</mgrwt>
</event>
<event>
 5    0  0.1856407E+000  0.2888460E+03  0.7546771E-02  0.1090953E+00
         21   -1    0    0  502  501  0.00000000000E+00  0.00000000000E+00  0.10973124190E+04  0.10973124190E+04  0.00000000000E+00 0. -1.
         21   -1    0    0  503  502 -0.00000000000E+00 -0.00000000000E+00 -0.17555511351E+03  0.17555511351E+03  0.00000000000E+00 0.  1.
         25    1    1    2    0    0 -0.81646573372E+02 -0.24726672460E+03  0.95187252000E+03  0.99473277335E+03  0.12500000000E+03 0.  0.
         21    1    1    2  503  504  0.65984460412E+02  0.13037702907E+03  0.24508219309E+02  0.14816467709E+03  0.00000000000E+00 0.  1.
         21    1    1    2  504  501  0.15662112960E+02  0.11688969553E+03 -0.54623433843E+02  0.12997008205E+03  0.00000000000E+00 0.  1.
<mgrwt>
<rscale>  4 0.28884597E+03</rscale>
<asrwt>0</asrwt>
<pdfrwt beam="1">  1       21 0.16881729E+00 0.28884597E+03</pdfrwt>
<pdfrwt beam="2">  1       21 0.27008480E-01 0.28884597E+03</pdfrwt>
<totfact> 0.26348739E+03</totfact>
</mgrwt>
</event>
<event>
 5    0  0.2504913E+000  0.3117427E+03  0.7546771E-02  0.1079514E+00
         21   -1    0    0  502  501  0.00000000000E+00  0.00000000000E+00  0.69858405854E+03  0.69858405854E+03  0.00000000000E+00 0.  1.
         21   -1    0    0  503  502 -0.00000000000E+00 -0.00000000000E+00 -0.20444237406E+03  0.20444237406E+03  0.00000000000E+00 0.  1.
         25    1    1    2    0    0  0.13180557474E+03 -0.28339410944E+03  0.43015403949E+03  0.54620731274E+03  0.12500000000E+03 0.  0.
         21    1    1    2  503  504 -0.70744700966E+02  0.41950365615E+02 -0.34256687566E+02  0.89096389001E+02  0.00000000000E+00 0.  1.
         21    1    1    2  504  501 -0.61060873776E+02  0.24144374383E+03  0.98244332551E+02  0.26772273086E+03  0.00000000000E+00 0.  1.
<mgrwt>
<rscale>  4 0.31174272E+03</rscale>
<asrwt>0</asrwt>
<pdfrwt beam="1">  1       21 0.10747447E+00 0.31174272E+03</pdfrwt>
<pdfrwt beam="2">  1       21 0.31452673E-01 0.31174272E+03</pdfrwt>
<totfact> 0.62395056E+03</totfact>
</mgrwt>
</event>
<event>
 5    0  0.2599293E+000  0.2387370E+03  0.7546771E-02  0.1120637E+00
         21   -1    0    0  502  501  0.00000000000E+00  0.00000000000E+00  0.89776374819E+02  0.89776374819E+02  0.00000000000E+00 0. -1.
         21   -1    0    0  503  502 -0.00000000000E+00 -0.00000000000E+00 -0.56424653881E+03  0.56424653881E+03  0.00000000000E+00 0. -1.
         25    1    1    2    0    0  0.20176227139E+03 -0.25736015165E+02 -0.20908542398E+03  0.31735165220E+03  0.12500000000E+03 0.  0.
         21    1    1    2  503  504 -0.17820268166E+03  0.22331300823E+02 -0.25172727711E+03  0.30922727044E+03  0.00000000000E+00 0. -1.
         21    1    1    2  504  501 -0.23559589733E+02  0.34047143425E+01 -0.13657462897E+02  0.27443990981E+02  0.00000000000E+00 0. -1.
<mgrwt>
<rscale>  4 0.23873700E+03</rscale>
<asrwt>0</asrwt>
<pdfrwt beam="1">  1       21 0.13811750E-01 0.23873700E+03</pdfrwt>
<pdfrwt beam="2">  1       21 0.86807158E-01 0.23873700E+03</pdfrwt>
<totfact> 0.50919073E+04</totfact>
</mgrwt>
</event>
<event>
 5    0  0.1856407E+000  0.3036566E+03  0.7546771E-02  0.1083427E+00
         21   -1    0    0  502  501  0.00000000000E+00  0.00000000000E+00  0.14808506734E+03  0.14808506734E+03  0.00000000000E+00 0. -1.
         21   -1    0    0  503  502 -0.00000000000E+00 -0.00000000000E+00 -0.21030647775E+04  0.21030647775E+04  0.00000000000E+00 0. -1.
         25    1    1    2    0    0 -0.23226238695E+03 -0.14984949711E+03 -0.36049482523E+02  0.30549182209E+03  0.12500000000E+03 0.  0.
         21    1    1    2  503  504  0.24984113542E+03  0.12963594705E+03 -0.18566002030E+04  0.18778153225E+04  0.00000000000E+00 0. -1.
         21    1    1    2  504  501 -0.17578748471E+02  0.20213550054E+02 -0.62330024598E+02  0.67842700196E+02  0.00000000000E+00 0. -1.
<mgrwt>
<rscale>  4 0.30365663E+03</rscale>
<asrwt>0</asrwt>
<pdfrwt beam="1">  1       21 0.22782320E-01 0.30365663E+03</pdfrwt>
<pdfrwt beam="2">  1       21 0.32354840E+00 0.30365663E+03</pdfrwt>
<totfact> 0.39547895E+02</totfact>
</mgrwt>
</event>
<event>
 5    0  0.1856407E+000  0.2379365E+03  0.7546771E-02  0.1121175E+00
         21   -1    0    0  502  501  0.00000000000E+00  0.00000000000E+00  0.64391156207E+03  0.64391156207E+03  0.00000000000E+00 0.  1.
         21   -1    0    0  503  502 -0.00000000000E+00 -0.00000000000E+00 -0.41209347386E+03  0.41209347386E+03  0.00000000000E+00 0.  1.
         25    1    1    2    0    0  0.27765319212E+02  0.20054387978E+03  0.59395549599E+03  0.63984130211E+03  0.12500000000E+03 0.  0.
         21    1    1    2  503  504 -0.34432419633E+02 -0.17502263687E+03 -0.30750133034E+03  0.35549343608E+03  0.00000000000E+00 0.  1.
         21    1    1    2  504  501  0.66671004209E+01 -0.25521242912E+02 -0.54636077443E+02  0.60670297726E+02  0.00000000000E+00 0.  1.
<mgrwt>
<rscale>  4 0.23793646E+03</rscale>
<asrwt>0</asrwt>
<pdfrwt beam="1">  1       21 0.99063318E-01 0.23793646E+03</pdfrwt>
<pdfrwt beam="2">  1       21 0.63398996E-01 0.23793646E+03</pdfrwt>
<totfact> 0.18585949E+03</totfact>
</mgrwt>
</event>
<event>
 5    0  0.1856407E+000  0.2520454E+03  0.7546771E-02  0.1112019E+00
         21   -1    0    0  502  501  0.00000000000E+00  0.00000000000E+00  0.21347866699E+03  0.21347866699E+03  0.00000000000E+00 0.  1.
         21   -1    0    0  503  502 -0.00000000000E+00 -0.00000000000E+00 -0.59976743628E+03  0.59976743628E+03  0.00000000000E+00 0.  1.
         25    1    1    2    0    0  0.16030852840E+03  0.14900687788E+03  0.10213561908E+03  0.27195322873E+03  0.12500000000E+03 0.  0.
         21    1    1    2  503  504 -0.41442849359E+02 -0.84970594435E+02 -0.25023135085E+03  0.26749437495E+03  0.00000000000E+00 0.  1.
         21    1    1    2  504  501 -0.11886567905E+03 -0.64036283444E+02 -0.23819303751E+03  0.27379849958E+03  0.00000000000E+00 0.  1.
<mgrwt>
<rscale>  4 0.25204538E+03</rscale>
<asrwt>0</asrwt>
<pdfrwt beam="1">  1       21 0.32842873E-01 0.25204538E+03</pdfrwt>
<pdfrwt beam="2">  1       21 0.92271911E-01 0.25204538E+03</pdfrwt>
<totfact> 0.85145007E+03</totfact>
</mgrwt>
</event>
<event>
 5    0  0.1856407E+000  0.3405316E+03  0.7546771E-02  0.1066570E+00
         21   -1    0    0  502  501  0.00000000000E+00  0.00000000000E+00  0.27673019425E+03  0.27673019425E+03  0.00000000000E+00 0. -1.
         21   -1    0    0  503  502 -0.00000000000E+00 -0.00000000000E+00 -0.52998763144E+03  0.52998763144E+03  0.00000000000E+00 0. -1.
         25    1    1    2    0    0  0.18710896859E+03  0.24860986518E+03 -0.23277764755E+02  0.33613016158E+03  0.12500000000E+03 0.  0.
         21    1    1    2  503  504  0.20364497120E+02  0.18845238939E-01 -0.13013862205E+03  0.13172233693E+03  0.00000000000E+00 0. -1.
         21    1    1    2  504  501 -0.20747346571E+03 -0.24862871042E+03 -0.99841050386E+02  0.33886532718E+03  0.00000000000E+00 0. -1.
<mgrwt>
<rscale>  4 0.34053156E+03</rscale>
<asrwt>0</asrwt>
<pdfrwt beam="1">  1       21 0.42573877E-01 0.34053156E+03</pdfrwt>
<pdfrwt beam="2">  1       21 0.81536557E-01 0.34053156E+03</pdfrwt>
<totfact> 0.64292505E+03</totfact>
</mgrwt>
</event>
