<event>
 5    0  0.1257040E+001  0.2517233E+03  0.7546771E-02  0.1112221E+00
         21   -1    0    0  502  501  0.00000000000E+00  0.00000000000E+00  0.46311035839E+03  0.46311035839E+03  0.00000000000E+00 0. -1.
         21   -1    0    0  504  502 -0.00000000000E+00 -0.00000000000E+00 -0.93135453497E+03  0.93135453497E+03  0.00000000000E+00 0.  1.
         25    1    1    2    0    0  0.25235692947E+03  0.67384058026E+02  0.27278845232E+03  0.39782303962E+03  0.12500000000E+03 0.  0.
         21    1    1    2  503  501 -0.35627562057E+02 -0.56983795127E+02  0.10420604405E+03  0.12399748264E+03  0.00000000000E+00 0. -1.
         21    1    1    2  504  503 -0.21672936741E+03 -0.10400262898E+02 -0.84523867295E+03  0.87264437111E+03  0.00000000000E+00 0.  1.
<mgrwt>
<rscale>  4 0.25172329E+03</rscale>
<asrwt>0</asrwt>
<pdfrwt beam="1">  1       21 0.71247748E-01 0.25172329E+03</pdfrwt>
<pdfrwt beam="2">  1       21 0.14328531E+00 0.25172329E+03</pdfrwt>
<totfact> 0.56640294E+02</totfact>
</mgrwt>
</event>
<event>
 5    0  0.1257040E+001  0.2518573E+03  0.7546771E-02  0.1112137E+00
         21   -1    0    0  502  501  0.00000000000E+00  0.00000000000E+00  0.11593551030E+04  0.11593551030E+04  0.00000000000E+00 0. -1.
         21   -1    0    0  504  502 -0.00000000000E+00 -0.00000000000E+00 -0.23692696291E+03  0.23692696291E+03  0.00000000000E+00 0.  1.
         25    1    1    2    0    0  0.18974163283E+03  0.14421403391E+03  0.95328361058E+03  0.99054238526E+03  0.12500000000E+03 0.  0.
         21    1    1    2  503  501 -0.32750473700E+02  0.64964747593E+01  0.13057679390E+03  0.13477795375E+03  0.00000000000E+00 0.  1.
         21    1    1    2  504  503 -0.15699115913E+03 -0.15071050867E+03 -0.16143226438E+03  0.27096172691E+03  0.00000000000E+00 0.  1.
<mgrwt>
<rscale>  4 0.25185734E+03</rscale>
<asrwt>0</asrwt>
<pdfrwt beam="1">  1       21 0.17836232E+00 0.25185734E+03</pdfrwt>
<pdfrwt beam="2">  1       21 0.36450303E-01 0.25185734E+03</pdfrwt>
<totfact> 0.12820807E+03</totfact>
</mgrwt>
</event>
<event>
 5    0  0.1257040E+001  0.2422703E+03  0.7546771E-02  0.1118290E+00
         21   -1    0    0  502  501  0.00000000000E+00  0.00000000000E+00  0.37581553104E+03  0.37581553104E+03  0.00000000000E+00 0.  1.
         21   -1    0    0  504  502 -0.00000000000E+00 -0.00000000000E+00 -0.29335413948E+03  0.29335413948E+03  0.00000000000E+00 0.  1.
         25    1    1    2    0    0  0.19881097652E+03 -0.59532155347E+02  0.27545020029E+03  0.36683469675E+03  0.12500000000E+03 0.  0.
         21    1    1    2  503  501 -0.93760689574E+02  0.79602093868E+02 -0.12631686081E+03  0.17630516040E+03  0.00000000000E+00 0.  1.
         21    1    1    2  504  503 -0.10505028694E+03 -0.20069938521E+02 -0.66671947906E+02  0.12602981336E+03  0.00000000000E+00 0. -1.
<mgrwt>
<rscale>  4 0.24227027E+03</rscale>
<asrwt>0</asrwt>
<pdfrwt beam="1">  1       21 0.57817774E-01 0.24227027E+03</pdfrwt>
<pdfrwt beam="2">  1       21 0.45131406E-01 0.24227027E+03</pdfrwt>
<totfact> 0.12821974E+04</totfact>
</mgrwt>
</event>
<event>
 5    0  0.1257040E+001  0.2031306E+03  0.7546771E-02  0.1147124E+00
         21   -1    0    0  502  501  0.00000000000E+00  0.00000000000E+00  0.40554487249E+03  0.40554487249E+03  0.00000000000E+00 0.  1.
         21   -1    0    0  504  502 -0.00000000000E+00 -0.00000000000E+00 -0.71496435752E+03  0.71496435752E+03  0.00000000000E+00 0.  1.
         25    1    1    2    0    0 -0.24078563184E+02  0.20164665110E+03  0.33124692991E+03  0.40815521273E+03  0.12500000000E+03 0.  0.
         21    1    1    2  503  501  0.35355744969E+01 -0.43979685454E+02  0.76894669380E+01  0.44786615427E+02  0.00000000000E+00 0.  1.
         21    1    1    2  504  503  0.20542988687E+02 -0.15766696564E+03 -0.64835588189E+03  0.66756740185E+03  0.00000000000E+00 0.  1.
<mgrwt>
<rscale>  4 0.20313055E+03</rscale>
<asrwt>0</asrwt>
<pdfrwt beam="1">  1       21 0.62391519E-01 0.20313055E+03</pdfrwt>
<pdfrwt beam="2">  1       21 0.10999452E+00 0.20313055E+03</pdfrwt>
<totfact> 0.15405333E+03</totfact>
</mgrwt>
</event>
<event>
 5    0  0.1257040E+001  0.2384889E+03  0.7546771E-02  0.1120804E+00
         21   -1    0    0  502  501  0.00000000000E+00  0.00000000000E+00  0.13768751512E+03  0.13768751512E+03  0.00000000000E+00 0.  1.
         21   -1    0    0  504  502 -0.00000000000E+00 -0.00000000000E+00 -0.11173263735E+04  0.11173263735E+04  0.00000000000E+00 0. -1.
         25    1    1    2    0    0 -0.16273947174E+03 -0.15733868523E+03 -0.40847126538E+02  0.26178824511E+03  0.12500000000E+03 0.  0.
         21    1    1    2  503  501  0.15201156614E+02  0.20997907501E+02  0.65804947516E+01  0.26744909665E+02  0.00000000000E+00 0.  1.
         21    1    1    2  504  503  0.14753831512E+03  0.13634077772E+03 -0.94537222664E+03  0.96648073390E+03  0.00000000000E+00 0. -1.
<mgrwt>
<rscale>  4 0.23848893E+03</rscale>
<asrwt>0</asrwt>
<pdfrwt beam="1">  1       21 0.21182695E-01 0.23848893E+03</pdfrwt>
<pdfrwt beam="2">  1       21 0.17189636E+00 0.23848893E+03</pdfrwt>
<totfact> 0.41299418E+03</totfact>
</mgrwt>
</event>
<event>
 5    0  0.1257040E+001  0.2366861E+03  0.7546771E-02  0.1122020E+00
         21   -1    0    0  502  501  0.00000000000E+00  0.00000000000E+00  0.13199337974E+03  0.13199337974E+03  0.00000000000E+00 0. -1.
         21   -1    0    0  504  502 -0.00000000000E+00 -0.00000000000E+00 -0.67402018350E+03  0.67402018350E+03  0.00000000000E+00 0. -1.
         25    1    1    2    0    0 -0.18076792712E+03  0.13258697564E+03 -0.28711413457E+03  0.38511800251E+03  0.12500000000E+03 0.  0.
         21    1    1    2  503  501  0.17078937579E+03 -0.91091948216E+02 -0.34778990579E+02  0.19666299118E+03  0.00000000000E+00 0. -1.
         21    1    1    2  504  503  0.99785513336E+01 -0.41495027429E+02 -0.22013367861E+03  0.22423256955E+03  0.00000000000E+00 0.  1.
<mgrwt>
<rscale>  4 0.23668611E+03</rscale>
<asrwt>0</asrwt>
<pdfrwt beam="1">  1       21 0.20306674E-01 0.23668611E+03</pdfrwt>
<pdfrwt beam="2">  1       21 0.10369541E+00 0.23668611E+03</pdfrwt>
<totfact> 0.16446411E+04</totfact>
</mgrwt>
</event>
<event>
 5    0  0.1257040E+001  0.2839833E+03  0.7546771E-02  0.1093533E+00
         21   -1    0    0  502  501  0.00000000000E+00  0.00000000000E+00  0.49154096710E+03  0.49154096710E+03  0.00000000000E+00 0.  1.
         21   -1    0    0  504  502 -0.00000000000E+00 -0.00000000000E+00 -0.23925170780E+03  0.23925170780E+03  0.00000000000E+00 0.  1.
         25    1    1    2    0    0 -0.15978742963E+03  0.22335526760E+03  0.13074693948E+03  0.32884549627E+03  0.12500000000E+03 0.  0.
         21    1    1    2  503  501 -0.10246219612E+02 -0.45079617932E+02  0.14716710228E+03  0.15425729468E+03  0.00000000000E+00 0.  1.
         21    1    1    2  504  503  0.17003364924E+03 -0.17827564967E+03 -0.25624782461E+02  0.24768988396E+03  0.00000000000E+00 0.  1.
<mgrwt>
<rscale>  4 0.28398334E+03</rscale>
<asrwt>0</asrwt>
<pdfrwt beam="1">  1       21 0.75621687E-01 0.28398334E+03</pdfrwt>
<pdfrwt beam="2">  1       21 0.36807955E-01 0.28398334E+03</pdfrwt>
<totfact> 0.10539328E+04</totfact>
</mgrwt>
</event>
<event>
 5    0  0.1257040E+001  0.2727181E+03  0.7546771E-02  0.1099734E+00
         21   -1    0    0  502  501  0.00000000000E+00  0.00000000000E+00  0.20982110057E+03  0.20982110057E+03  0.00000000000E+00 0.  1.
         21   -1    0    0  504  502 -0.00000000000E+00 -0.00000000000E+00 -0.77003833986E+03  0.77003833986E+03  0.00000000000E+00 0.  1.
         25    1    1    2    0    0 -0.89353122173E+02  0.20370142581E+03 -0.97466426932E+02  0.27313541641E+03  0.12500000000E+03 0.  0.
         21    1    1    2  503  501 -0.16293781918E+03 -0.10094290299E+03 -0.28043419920E+02  0.19371276670E+03  0.00000000000E+00 0.  1.
         21    1    1    2  504  503  0.25229094135E+03 -0.10275852282E+03 -0.43470739243E+03  0.51301125732E+03  0.00000000000E+00 0.  1.
<mgrwt>
<rscale>  4 0.27271807E+03</rscale>
<asrwt>0</asrwt>
<pdfrwt beam="1">  1       21 0.32280169E-01 0.27271807E+03</pdfrwt>
<pdfrwt beam="2">  1       21 0.11846744E+00 0.27271807E+03</pdfrwt>
<totfact> 0.47604468E+03</totfact>
</mgrwt>
</event>
<event>
 5    0  0.1257040E+001  0.3018005E+03  0.7546771E-02  0.1084344E+00
         21   -1    0    0  503  501  0.00000000000E+00  0.00000000000E+00  0.83357067566E+03  0.83357067566E+03  0.00000000000E+00 0. -1.
         21   -1    0    0  504  502 -0.00000000000E+00 -0.00000000000E+00 -0.21585334127E+03  0.21585334127E+03  0.00000000000E+00 0. -1.
         25    1    1    2    0    0  0.16829698745E+03  0.21498758194E+03  0.59931003032E+03  0.67032906010E+03  0.12500000000E+03 0.  0.
         21    1    1    2  503  502 -0.19280685255E+03 -0.19640152537E+03 -0.71259281906E+02  0.28429900952E+03  0.00000000000E+00 0. -1.
         21    1    1    2  504  501  0.24509865105E+02 -0.18586056577E+02  0.89666585968E+02  0.94795947306E+02  0.00000000000E+00 0.  1.
<mgrwt>
<rscale>  4 0.30180052E+03</rscale>
<asrwt>0</asrwt>
<pdfrwt beam="1">  1       21 0.12824164E+00 0.30180052E+03</pdfrwt>
<pdfrwt beam="2">  1       21 0.33208207E-01 0.30180052E+03</pdfrwt>
<totfact> 0.36223088E+03</totfact>
</mgrwt>
</event>
<event>
 5    0  0.1257040E+001  0.2472059E+03  0.7546771E-02  0.1115083E+00
         21   -1    0    0  502  501  0.00000000000E+00  0.00000000000E+00  0.82465413652E+02  0.82465413652E+02  0.00000000000E+00 0. -1.
         21   -1    0    0  504  502 -0.00000000000E+00 -0.00000000000E+00 -0.98476627998E+03  0.98476627998E+03  0.00000000000E+00 0. -1.
         25    1    1    2    0    0  0.58035623798E+02 -0.22178465201E+03 -0.44901731846E+03  0.51942094468E+03  0.12500000000E+03 0.  0.
         21    1    1    2  503  501 -0.98077309914E+02  0.18266179789E+03 -0.19878577880E+03  0.28722861449E+03  0.00000000000E+00 0. -1.
         21    1    1    2  504  503  0.40041686117E+02  0.39122854121E+02 -0.25449776907E+03  0.26058213447E+03  0.00000000000E+00 0. -1.
<mgrwt>
<rscale>  4 0.24720593E+03</rscale>
<asrwt>0</asrwt>
<pdfrwt beam="1">  1       21 0.12686986E-01 0.24720593E+03</pdfrwt>
<pdfrwt beam="2">  1       21 0.15150252E+00 0.24720593E+03</pdfrwt>
<totfact> 0.14926006E+04</totfact>
</mgrwt>
</event>
<event>
 5    0  0.1257040E+001  0.2302098E+03  0.7546771E-02  0.1126492E+00
         21   -1    0    0  504  501  0.00000000000E+00  0.00000000000E+00  0.78982398004E+03  0.78982398004E+03  0.00000000000E+00 0. -1.
         21   -1    0    0  503  502 -0.00000000000E+00 -0.00000000000E+00 -0.18093261066E+03  0.18093261066E+03  0.00000000000E+00 0. -1.
         25    1    1    2    0    0 -0.20133465295E+03 -0.99222574346E+02  0.62218449271E+03  0.67314137052E+03  0.12500000000E+03 0.  0.
         21    1    1    2  503  501  0.16110239475E+03  0.10170920514E+03 -0.90191938963E+02  0.21079214848E+03  0.00000000000E+00 0. -1.
         21    1    1    2  504  502  0.40232258200E+02 -0.24866307979E+01  0.76898815640E+02  0.86823071700E+02  0.00000000000E+00 0. -1.
<mgrwt>
<rscale>  4 0.23020982E+03</rscale>
<asrwt>0</asrwt>
<pdfrwt beam="1">  1       21 0.12151138E+00 0.23020982E+03</pdfrwt>
<pdfrwt beam="2">  1       21 0.27835787E-01 0.23020982E+03</pdfrwt>
<totfact> 0.61355645E+03</totfact>
</mgrwt>
</event>
<event>
 5    0  0.1257040E+001  0.2129934E+03  0.7546771E-02  0.1139217E+00
         21   -1    0    0  503  501  0.00000000000E+00  0.00000000000E+00  0.74796454480E+02  0.74796454480E+02  0.00000000000E+00 0.  1.
         21   -1    0    0  504  502 -0.00000000000E+00 -0.00000000000E+00 -0.19952525380E+04  0.19952525380E+04  0.00000000000E+00 0.  1.
         25    1    1    2    0    0 -0.23384672839E+03  0.12559534117E+03 -0.95032742440E+03  0.99458820406E+03  0.12500000000E+03 0.  0.
         21    1    1    2  503  502  0.99741764948E+02 -0.11194216996E+03 -0.91922393092E+03  0.93137108838E+03  0.00000000000E+00 0.  1.
         21    1    1    2  504  501  0.13410496345E+03 -0.13653171209E+02 -0.50904728210E+02  0.14408970004E+03  0.00000000000E+00 0.  1.
<mgrwt>
<rscale>  4 0.21299342E+03</rscale>
<asrwt>0</asrwt>
<pdfrwt beam="1">  1       21 0.11507148E-01 0.21299342E+03</pdfrwt>
<pdfrwt beam="2">  1       21 0.30696189E+00 0.21299342E+03</pdfrwt>
<totfact> 0.19198457E+03</totfact>
</mgrwt>
</event>
<event>
 5    0  0.1257040E+001  0.2565645E+03  0.7546771E-02  0.1109225E+00
         21   -1    0    0  502  501  0.00000000000E+00  0.00000000000E+00  0.63333023347E+02  0.63333023347E+02  0.00000000000E+00 0.  1.
         21   -1    0    0  504  502 -0.00000000000E+00 -0.00000000000E+00 -0.14257233521E+04  0.14257233521E+04  0.00000000000E+00 0.  1.
         25    1    1    2    0    0 -0.17239004557E+02  0.24845631532E+03 -0.85242533684E+03  0.89681752815E+03  0.12500000000E+03 0.  0.
         21    1    1    2  503  501 -0.38330495528E+01 -0.47362659300E+02 -0.43766586188E+01  0.47718643165E+02  0.00000000000E+00 0.  1.
         21    1    1    2  504  503  0.21072054110E+02 -0.20109365602E+03 -0.50558833332E+03  0.54452020416E+03  0.00000000000E+00 0.  1.
<mgrwt>
<rscale>  4 0.25656446E+03</rscale>
<asrwt>0</asrwt>
<pdfrwt beam="1">  1       21 0.97435424E-02 0.25656446E+03</pdfrwt>
<pdfrwt beam="2">  1       21 0.21934205E+00 0.25656446E+03</pdfrwt>
<totfact> 0.81961634E+03</totfact>
</mgrwt>
</event>
<event>
 5    0  0.1257040E+001  0.3142241E+03  0.7546771E-02  0.1078339E+00
         21   -1    0    0  502  501  0.00000000000E+00  0.00000000000E+00  0.10078596479E+04  0.10078596479E+04  0.00000000000E+00 0.  1.
         21   -1    0    0  504  502 -0.00000000000E+00 -0.00000000000E+00 -0.19955974199E+03  0.19955974199E+03  0.00000000000E+00 0.  1.
         25    1    1    2    0    0 -0.37482646175E+02  0.25279552550E+03 -0.63773758148E+01  0.28456316944E+03  0.12500000000E+03 0.  0.
         21    1    1    2  503  501  0.12268122913E+03 -0.26947934747E+03  0.77052624034E+03  0.82545774559E+03  0.00000000000E+00 0.  1.
         21    1    1    2  504  503 -0.85198582958E+02  0.16683821974E+02  0.44151041392E+02  0.97398474883E+02  0.00000000000E+00 0.  1.
<mgrwt>
<rscale>  4 0.31422406E+03</rscale>
<asrwt>0</asrwt>
<pdfrwt beam="1">  1       21 0.15505533E+00 0.31422406E+03</pdfrwt>
<pdfrwt beam="2">  1       21 0.30701499E-01 0.31422406E+03</pdfrwt>
<totfact> 0.25515199E+03</totfact>
</mgrwt>
</event>
<event>
 5    0  0.1257040E+001  0.3274501E+03  0.7546771E-02  0.1072271E+00
         21   -1    0    0  502  501  0.00000000000E+00  0.00000000000E+00  0.13696381586E+04  0.13696381586E+04  0.00000000000E+00 0.  1.
         21   -1    0    0  504  502 -0.00000000000E+00 -0.00000000000E+00 -0.17745131878E+03  0.17745131878E+03  0.00000000000E+00 0. -1.
         25    1    1    2    0    0  0.19746536484E+03 -0.19556690907E+03  0.99633226985E+03  0.10418934582E+04  0.12500000000E+03 0.  0.
         21    1    1    2  503  501  0.58924370457E+02  0.26305208970E+02  0.18702828948E+03  0.19784748298E+03  0.00000000000E+00 0.  1.
         21    1    1    2  504  503 -0.25638973530E+03  0.16926170010E+03  0.88262804599E+01  0.30734853622E+03  0.00000000000E+00 0. -1.
<mgrwt>
<rscale>  4 0.32745005E+03</rscale>
<asrwt>0</asrwt>
<pdfrwt beam="1">  1       21 0.21071356E+00 0.32745005E+03</pdfrwt>
<pdfrwt beam="2">  1       21 0.27300204E-01 0.32745005E+03</pdfrwt>
<totfact> 0.13111729E+03</totfact>
</mgrwt>
</event>
<event>
 5    0  0.1257040E+001  0.2328788E+03  0.7546771E-02  0.1124630E+00
         21   -1    0    0  504  501  0.00000000000E+00  0.00000000000E+00  0.49572545154E+03  0.49572545154E+03  0.00000000000E+00 0. -1.
         21   -1    0    0  501  502 -0.00000000000E+00 -0.00000000000E+00 -0.11110091060E+03  0.11110091060E+03  0.00000000000E+00 0. -1.
         25    1    1    2    0    0  0.55271674755E+02  0.19536187713E+03  0.21023225590E+03  0.31787390973E+03  0.12500000000E+03 0.  0.
         21    1    1    2  503  502 -0.29151968142E+02 -0.41853269078E+01  0.54034802503E+02  0.61539532736E+02  0.00000000000E+00 0.  1.
         21    1    1    2  504  503 -0.26119706613E+02 -0.19117655022E+03  0.12035748254E+03  0.22741291967E+03  0.00000000000E+00 0. -1.
<mgrwt>
<rscale>  4 0.23287875E+03</rscale>
<asrwt>0</asrwt>
<pdfrwt beam="1">  1       21 0.76265453E-01 0.23287875E+03</pdfrwt>
<pdfrwt beam="2">  1       21 0.17092448E-01 0.23287875E+03</pdfrwt>
<totfact> 0.46401828E+04</totfact>
</mgrwt>
</event>
<event>
 5    0  0.1257040E+001  0.2682422E+03  0.7546771E-02  0.1102290E+00
         21   -1    0    0  502  501  0.00000000000E+00  0.00000000000E+00  0.10383823243E+04  0.10383823243E+04  0.00000000000E+00 0.  1.
         21   -1    0    0  504  502 -0.00000000000E+00 -0.00000000000E+00 -0.34758402724E+03  0.34758402724E+03  0.00000000000E+00 0. -1.
         25    1    1    2    0    0  0.38690589025E+03  0.76995050990E+02 -0.97141486524E+01  0.41393691605E+03  0.12500000000E+03 0.  0.
         21    1    1    2  503  501 -0.21592969716E+03 -0.64301157370E+02  0.75833416156E+03  0.79109479428E+03  0.00000000000E+00 0.  1.
         21    1    1    2  504  503 -0.17097619309E+03 -0.12693893621E+02 -0.57821715895E+02  0.18093464115E+03  0.00000000000E+00 0. -1.
<mgrwt>
<rscale>  4 0.26824217E+03</rscale>
<asrwt>0</asrwt>
<pdfrwt beam="1">  1       21 0.15975113E+00 0.26824217E+03</pdfrwt>
<pdfrwt beam="2">  1       21 0.53474466E-01 0.26824217E+03</pdfrwt>
<totfact> 0.77957923E+02</totfact>
</mgrwt>
</event>
<event>
 5    0  0.1257040E+001  0.2550609E+03  0.7546771E-02  0.1110148E+00
         21   -1    0    0  502  501  0.00000000000E+00  0.00000000000E+00  0.49508873624E+03  0.49508873624E+03  0.00000000000E+00 0.  1.
         21   -1    0    0  504  502 -0.00000000000E+00 -0.00000000000E+00 -0.31441939933E+03  0.31441939933E+03  0.00000000000E+00 0. -1.
         25    1    1    2    0    0 -0.23859180799E+03  0.36541982550E+02  0.27926594192E+03  0.38971250126E+03  0.12500000000E+03 0.  0.
         21    1    1    2  503  501  0.22626144441E+02  0.37073188518E+01  0.11268795088E+03  0.11499678647E+03  0.00000000000E+00 0.  1.
         21    1    1    2  504  503  0.21596566355E+03 -0.40249301402E+02 -0.21128455588E+03  0.30479884784E+03  0.00000000000E+00 0. -1.
<mgrwt>
<rscale>  4 0.25506090E+03</rscale>
<asrwt>0</asrwt>
<pdfrwt beam="1">  1       21 0.76167498E-01 0.25506090E+03</pdfrwt>
<pdfrwt beam="2">  1       21 0.48372215E-01 0.25506090E+03</pdfrwt>
<totfact> 0.60110568E+03</totfact>
</mgrwt>
</event>
<event>
 5    0  0.1257040E+001  0.3857233E+03  0.7546771E-02  0.1048838E+00
         21   -1    0    0  503  501  0.00000000000E+00  0.00000000000E+00  0.14223885282E+04  0.14223885282E+04  0.00000000000E+00 0.  1.
         21   -1    0    0  504  502 -0.00000000000E+00 -0.00000000000E+00 -0.29828939808E+03  0.29828939808E+03  0.00000000000E+00 0.  1.
         25    1    1    2    0    0  0.34828707492E+03 -0.58828725688E+02 -0.11678999288E+03  0.39246605963E+03  0.12500000000E+03 0.  0.
         21    1    1    2  503  502  0.16557425995E+02  0.27038115584E+02 -0.26986690565E+01  0.31819661604E+02  0.00000000000E+00 0. -1.
         21    1    1    2  504  501 -0.36484450091E+03  0.31790610104E+02  0.12435877921E+04  0.12963922051E+04  0.00000000000E+00 0.  1.
<mgrwt>
<rscale>  4 0.38572331E+03</rscale>
<asrwt>0</asrwt>
<pdfrwt beam="1">  1       21 0.21882900E+00 0.38572331E+03</pdfrwt>
<pdfrwt beam="2">  1       21 0.45890678E-01 0.38572331E+03</pdfrwt>
<totfact> 0.39310932E+02</totfact>
</mgrwt>
</event>
<event>
 5    0  0.1257040E+001  0.2524494E+03  0.7546771E-02  0.1111767E+00
         21   -1    0    0  504  501  0.00000000000E+00  0.00000000000E+00  0.76238046556E+03  0.76238046556E+03  0.00000000000E+00 0. -1.
         21   -1    0    0  503  502 -0.00000000000E+00 -0.00000000000E+00 -0.31115217327E+03  0.31115217327E+03  0.00000000000E+00 0. -1.
         25    1    1    2    0    0 -0.15553430413E+03 -0.14325138407E+03  0.64457183400E+03  0.68978962589E+03  0.12500000000E+03 0.  0.
         21    1    1    2  503  501  0.19192995322E+03  0.10793902009E+03 -0.23208708975E+03  0.31992554795E+03  0.00000000000E+00 0. -1.
         21    1    1    2  504  502 -0.36395649090E+02  0.35312363985E+02  0.38743548041E+02  0.63817464990E+02  0.00000000000E+00 0. -1.
<mgrwt>
<rscale>  4 0.25244940E+03</rscale>
<asrwt>0</asrwt>
<pdfrwt beam="1">  1       21 0.11728930E+00 0.25244940E+03</pdfrwt>
<pdfrwt beam="2">  1       21 0.47869565E-01 0.25244940E+03</pdfrwt>
<totfact> 0.22204028E+03</totfact>
</mgrwt>
</event>
<event>
 5    0  0.1257040E+001  0.3636053E+03  0.7546771E-02  0.1057165E+00
         21   -1    0    0  502  501  0.00000000000E+00  0.00000000000E+00  0.39749111109E+03  0.39749111109E+03  0.00000000000E+00 0. -1.
         21   -1    0    0  504  502 -0.00000000000E+00 -0.00000000000E+00 -0.34432722151E+03  0.34432722151E+03  0.00000000000E+00 0. -1.
         25    1    1    2    0    0  0.32712786885E+03  0.97832182270E+02 -0.46403328789E+02  0.36655428982E+03  0.12500000000E+03 0.  0.
         21    1    1    2  503  501 -0.73034760077E+02  0.60311987835E+01  0.66173721017E+02  0.98739115307E+02  0.00000000000E+00 0.  1.
         21    1    1    2  504  503 -0.25409310877E+03 -0.10386338105E+03  0.33393497359E+02  0.27652492747E+03  0.00000000000E+00 0. -1.
<mgrwt>
<rscale>  4 0.36360525E+03</rscale>
<asrwt>0</asrwt>
<pdfrwt beam="1">  1       21 0.61152479E-01 0.36360525E+03</pdfrwt>
<pdfrwt beam="2">  1       21 0.52973419E-01 0.36360525E+03</pdfrwt>
<totfact> 0.76755416E+03</totfact>
</mgrwt>
</event>
<event>
 5    0  0.1257040E+001  0.2424568E+03  0.7546771E-02  0.1118167E+00
         21   -1    0    0  502  501  0.00000000000E+00  0.00000000000E+00  0.68016939397E+03  0.68016939397E+03  0.00000000000E+00 0.  1.
         21   -1    0    0  504  502 -0.00000000000E+00 -0.00000000000E+00 -0.18611019237E+03  0.18611019237E+03  0.00000000000E+00 0.  1.
         25    1    1    2    0    0  0.10424266315E+03  0.18654052987E+03  0.22375622602E+02  0.24857508039E+03  0.12500000000E+03 0.  0.
         21    1    1    2  503  501 -0.13808763111E+03 -0.15482739174E+03  0.51439399576E+03  0.55465385420E+03  0.00000000000E+00 0.  1.
         21    1    1    2  504  503  0.33844967958E+02 -0.31713138134E+02 -0.42710416765E+02  0.63050651754E+02  0.00000000000E+00 0.  1.
<mgrwt>
<rscale>  4 0.24245678E+03</rscale>
<asrwt>0</asrwt>
<pdfrwt beam="1">  1       21 0.10464144E+00 0.24245678E+03</pdfrwt>
<pdfrwt beam="2">  1       21 0.28632338E-01 0.24245678E+03</pdfrwt>
<totfact> 0.83118870E+03</totfact>
</mgrwt>
</event>
<event>
 5    0  0.1257040E+001  0.1998094E+03  0.7546771E-02  0.1149900E+00
         21   -1    0    0  503  501  0.00000000000E+00  0.00000000000E+00  0.25038289285E+03  0.25038289285E+03  0.00000000000E+00 0.  1.
         21   -1    0    0  501  502 -0.00000000000E+00 -0.00000000000E+00 -0.40489917422E+03  0.40489917422E+03  0.00000000000E+00 0.  1.
         25    1    1    2    0    0  0.19960048194E+03 -0.28609716980E+02  0.14175545021E+03  0.27636656086E+03  0.12500000000E+03 0.  0.
         21    1    1    2  503  504 -0.52762930157E+02 -0.10113563751E+02 -0.96966498555E+01  0.54591537704E+02  0.00000000000E+00 0. -1.
         21    1    1    2  504  502 -0.14683755178E+03  0.38723280731E+02 -0.28657508172E+03  0.32432396850E+03  0.00000000000E+00 0.  1.
<mgrwt>
<rscale>  4 0.19980937E+03</rscale>
<asrwt>0</asrwt>
<pdfrwt beam="1">  1       21 0.38520445E-01 0.19980937E+03</pdfrwt>
<pdfrwt beam="2">  1       21 0.62292181E-01 0.19980937E+03</pdfrwt>
<totfact> 0.15462510E+04</totfact>
</mgrwt>
</event>
<event>
 5    0  0.1257040E+001  0.2891155E+03  0.7546771E-02  0.1090812E+00
         21   -1    0    0  502  501  0.00000000000E+00  0.00000000000E+00  0.27319922636E+03  0.27319922636E+03  0.00000000000E+00 0.  1.
         21   -1    0    0  504  502 -0.00000000000E+00 -0.00000000000E+00 -0.68334802985E+03  0.68334802985E+03  0.00000000000E+00 0. -1.
         25    1    1    2    0    0  0.10332936319E+02  0.24370550796E+03 -0.50800155888E+03  0.57722588994E+03  0.12500000000E+03 0.  0.
         21    1    1    2  503  501  0.96528202816E+01 -0.26287950348E+03  0.16235494054E+03  0.30912446847E+03  0.00000000000E+00 0.  1.
         21    1    1    2  504  503 -0.19985756601E+02  0.19173995519E+02 -0.64502185151E+02  0.70196897797E+02  0.00000000000E+00 0. -1.
<mgrwt>
<rscale>  4 0.28911551E+03</rscale>
<asrwt>0</asrwt>
<pdfrwt beam="1">  1       21 0.42030651E-01 0.28911551E+03</pdfrwt>
<pdfrwt beam="2">  1       21 0.10513046E+00 0.28911551E+03</pdfrwt>
<totfact> 0.37129327E+03</totfact>
</mgrwt>
</event>
<event>
 5    0  0.1257040E+001  0.2899732E+03  0.7546771E-02  0.1090363E+00
         21   -1    0    0  502  501  0.00000000000E+00  0.00000000000E+00  0.44554215354E+03  0.44554215354E+03  0.00000000000E+00 0.  1.
         21   -1    0    0  504  502 -0.00000000000E+00 -0.00000000000E+00 -0.59804049786E+03  0.59804049786E+03  0.00000000000E+00 0. -1.
         25    1    1    2    0    0  0.99892268666E+02 -0.28123087633E+03 -0.38122240385E+03  0.50002479172E+03  0.12500000000E+03 0.  0.
         21    1    1    2  503  501 -0.59028992323E+02  0.25131409976E+03  0.33671122052E+03  0.42428486268E+03  0.00000000000E+00 0.  1.
         21    1    1    2  504  503 -0.40863276343E+02  0.29916776570E+02 -0.10798716099E+03  0.11927299699E+03  0.00000000000E+00 0.  1.
<mgrwt>
<rscale>  4 0.28997319E+03</rscale>
<asrwt>0</asrwt>
<pdfrwt beam="1">  1       21 0.68544946E-01 0.28997319E+03</pdfrwt>
<pdfrwt beam="2">  1       21 0.92006231E-01 0.28997319E+03</pdfrwt>
<totfact> 0.17992661E+03</totfact>
</mgrwt>
</event>
<event>
 5    0  0.1257040E+001  0.4883130E+03  0.7546771E-02  0.1016875E+00
         21   -1    0    0  502  501  0.00000000000E+00  0.00000000000E+00  0.12526989949E+04  0.12526989949E+04  0.00000000000E+00 0. -1.
         21   -1    0    0  504  502 -0.00000000000E+00 -0.00000000000E+00 -0.23228720289E+03  0.23228720289E+03  0.00000000000E+00 0. -1.
         25    1    1    2    0    0 -0.85697214282E+02 -0.46151302949E+03  0.71146415966E+03  0.86147811313E+03  0.12500000000E+03 0.  0.
         21    1    1    2  503  501 -0.36556348276E+02  0.38467968509E+01  0.98532531889E+02  0.10516569919E+03  0.00000000000E+00 0. -1.
         21    1    1    2  504  503  0.12225356256E+03  0.45766623264E+03  0.21041510046E+03  0.51834238546E+03  0.00000000000E+00 0. -1.
<mgrwt>
<rscale>  4 0.48831300E+03</rscale>
<asrwt>0</asrwt>
<pdfrwt beam="1">  1       21 0.19272292E+00 0.48831300E+03</pdfrwt>
<pdfrwt beam="2">  1       21 0.35736493E-01 0.48831300E+03</pdfrwt>
<totfact> 0.92813195E+02</totfact>
</mgrwt>
</event>
<event>
 5    0  0.1257040E+001  0.3120708E+03  0.7546771E-02  0.1079358E+00
         21   -1    0    0  504  501  0.00000000000E+00  0.00000000000E+00  0.24046029592E+03  0.24046029592E+03  0.00000000000E+00 0. -1.
         21   -1    0    0  503  502 -0.00000000000E+00 -0.00000000000E+00 -0.60704077528E+03  0.60704077528E+03  0.00000000000E+00 0. -1.
         25    1    1    2    0    0  0.40439429728E+02  0.29570773158E+03 -0.17809030967E+02  0.32406877600E+03  0.12500000000E+03 0.  0.
         21    1    1    2  503  501 -0.16873956211E+02 -0.28186017339E+03 -0.38537560231E+03  0.47774914192E+03  0.00000000000E+00 0. -1.
         21    1    1    2  504  502 -0.23565473516E+02 -0.13847558189E+02  0.36604153917E+02  0.45683153283E+02  0.00000000000E+00 0.  1.
<mgrwt>
<rscale>  4 0.31207079E+03</rscale>
<asrwt>0</asrwt>
<pdfrwt beam="1">  1       21 0.36993892E-01 0.31207079E+03</pdfrwt>
<pdfrwt beam="2">  1       21 0.93390887E-01 0.31207079E+03</pdfrwt>
<totfact> 0.63220109E+03</totfact>
</mgrwt>
</event>
<event>
 5    0  0.1257040E+001  0.2602379E+03  0.7546771E-02  0.1107000E+00
         21   -1    0    0  502  501  0.00000000000E+00  0.00000000000E+00  0.23077511155E+04  0.23077511155E+04  0.00000000000E+00 0.  1.
         21   -1    0    0  504  502 -0.00000000000E+00 -0.00000000000E+00 -0.60993402834E+02  0.60993402834E+02  0.00000000000E+00 0.  1.
         25    1    1    2    0    0 -0.22731770230E+03  0.17373201859E+03  0.48753929274E+03  0.57894361904E+03  0.12500000000E+03 0.  0.
         21    1    1    2  503  501  0.17897852692E+03 -0.12614989256E+03  0.16222111062E+04  0.16369227171E+04  0.00000000000E+00 0.  1.
         21    1    1    2  504  503  0.48339175380E+02 -0.47582126028E+02  0.13700731373E+03  0.15287818225E+03  0.00000000000E+00 0.  1.
<mgrwt>
<rscale>  4 0.26023788E+03</rscale>
<asrwt>0</asrwt>
<pdfrwt beam="1">  1       21 0.35503857E+00 0.26023788E+03</pdfrwt>
<pdfrwt beam="2">  1       21 0.93836022E-02 0.26023788E+03</pdfrwt>
<totfact> 0.13642279E+03</totfact>
</mgrwt>
</event>
<event>
 5    0  0.1257040E+001  0.2110002E+03  0.7546771E-02  0.1140776E+00
         21   -1    0    0  503  501  0.00000000000E+00  0.00000000000E+00  0.16878862635E+04  0.16878862635E+04  0.00000000000E+00 0.  1.
         21   -1    0    0  504  502 -0.00000000000E+00 -0.00000000000E+00 -0.24752147353E+03  0.24752147353E+03  0.00000000000E+00 0.  1.
         25    1    1    2    0    0 -0.15710218361E+03  0.16898929820E+03 -0.43816648902E+02  0.26605145691E+03  0.12500000000E+03 0.  0.
         21    1    1    2  503  502  0.62238160261E+02 -0.12798121522E+03 -0.35089404563E+02  0.14657437141E+03  0.00000000000E+00 0.  1.
         21    1    1    2  504  501  0.94864023349E+02 -0.41008082984E+02  0.15192708434E+04  0.15227819087E+04  0.00000000000E+00 0.  1.
<mgrwt>
<rscale>  4 0.21100025E+03</rscale>
<asrwt>0</asrwt>
<pdfrwt beam="1">  1       21 0.25967480E+00 0.21100025E+03</pdfrwt>
<pdfrwt beam="2">  1       21 0.38080228E-01 0.21100025E+03</pdfrwt>
<totfact> 0.37879433E+02</totfact>
</mgrwt>
</event>
<event>
 5    0  0.1257040E+001  0.2460729E+03  0.7546771E-02  0.1115812E+00
         21   -1    0    0  504  501  0.00000000000E+00  0.00000000000E+00  0.34805317633E+02  0.34805317633E+02  0.00000000000E+00 0. -1.
         21   -1    0    0  501  502 -0.00000000000E+00 -0.00000000000E+00 -0.19178516761E+04  0.19178516761E+04  0.00000000000E+00 0. -1.
         25    1    1    2    0    0 -0.16251710208E+03 -0.14002591493E+03 -0.11531480116E+04  0.11795738222E+04  0.12500000000E+03 0.  0.
         21    1    1    2  503  502  0.13440362827E+03  0.16362223321E+03 -0.54732620795E+03  0.58685820127E+03  0.00000000000E+00 0. -1.
         21    1    1    2  504  503  0.28113473809E+02 -0.23596318281E+02 -0.18257213891E+03  0.18622497027E+03  0.00000000000E+00 0.  1.
<mgrwt>
<rscale>  4 0.24607292E+03</rscale>
<asrwt>0</asrwt>
<pdfrwt beam="1">  1       21 0.53546640E-02 0.24607292E+03</pdfrwt>
<pdfrwt beam="2">  1       21 0.29505412E+00 0.24607292E+03</pdfrwt>
<totfact> 0.82857435E+03</totfact>
</mgrwt>
</event>
<event>
 5    0  0.1257040E+001  0.3188189E+03  0.7546771E-02  0.1076194E+00
         21   -1    0    0  504  501  0.00000000000E+00  0.00000000000E+00  0.33944511772E+03  0.33944511772E+03  0.00000000000E+00 0. -1.
         21   -1    0    0  503  502 -0.00000000000E+00 -0.00000000000E+00 -0.33013163977E+03  0.33013163977E+03  0.00000000000E+00 0. -1.
         25    1    1    2    0    0 -0.29782344924E+03  0.59318396141E+01  0.58983860915E+02  0.32838710311E+03  0.12500000000E+03 0.  0.
         21    1    1    2  503  501  0.29042705044E+03  0.19050084262E+02 -0.79372506445E+02  0.30167991666E+03  0.00000000000E+00 0. -1.
         21    1    1    2  504  502  0.73963988023E+01 -0.24981923876E+02  0.29702123478E+02  0.39509737722E+02  0.00000000000E+00 0. -1.
<mgrwt>
<rscale>  4 0.31881892E+03</rscale>
<asrwt>0</asrwt>
<pdfrwt beam="1">  1       21 0.52222326E-01 0.31881892E+03</pdfrwt>
<pdfrwt beam="2">  1       21 0.50789483E-01 0.31881892E+03</pdfrwt>
<totfact> 0.12008269E+04</totfact>
</mgrwt>
</event>
<event>
 5    0  0.1257040E+001  0.2948096E+03  0.7546771E-02  0.1087864E+00
         21   -1    0    0  504  501  0.00000000000E+00  0.00000000000E+00  0.28984970861E+03  0.28984970861E+03  0.00000000000E+00 0.  1.
         21   -1    0    0  501  502 -0.00000000000E+00 -0.00000000000E+00 -0.43669999207E+03  0.43669999207E+03  0.00000000000E+00 0.  1.
         25    1    1    2    0    0 -0.24848466667E+03  0.10854453933E+03 -0.18377190523E+03  0.35060470582E+03  0.12500000000E+03 0.  0.
         21    1    1    2  503  502 -0.22695699412E+02 -0.96285608312E+02  0.33576109844E+02  0.10446706798E+03  0.00000000000E+00 0. -1.
         21    1    1    2  504  503  0.27118036608E+03 -0.12258931018E+02  0.33455119286E+01  0.27147792689E+03  0.00000000000E+00 0.  1.
<mgrwt>
<rscale>  4 0.29480961E+03</rscale>
<asrwt>0</asrwt>
<pdfrwt beam="1">  1       21 0.44592263E-01 0.29480961E+03</pdfrwt>
<pdfrwt beam="2">  1       21 0.67184614E-01 0.29480961E+03</pdfrwt>
<totfact> 0.92297058E+03</totfact>
</mgrwt>
</event>
<event>
 5    0  0.1257040E+001  0.2155512E+03  0.7546771E-02  0.1137244E+00
         21   -1    0    0  504  501  0.00000000000E+00  0.00000000000E+00  0.10159046565E+04  0.10159046565E+04  0.00000000000E+00 0. -1.
         21   -1    0    0  503  502 -0.00000000000E+00 -0.00000000000E+00 -0.21270626275E+03  0.21270626275E+03  0.00000000000E+00 0. -1.
         25    1    1    2    0    0 -0.57743629258E+02  0.24413760499E+03 -0.57448977557E+01  0.28034889110E+03  0.12500000000E+03 0.  0.
         21    1    1    2  503  501 -0.38758253611E+02 -0.10192651742E+03 -0.11831769372E+02  0.10968686313E+03  0.00000000000E+00 0. -1.
         21    1    1    2  504  502  0.96501882869E+02 -0.14221108756E+03  0.82077506092E+03  0.83857516506E+03  0.00000000000E+00 0. -1.
<mgrwt>
<rscale>  4 0.21555115E+03</rscale>
<asrwt>0</asrwt>
<pdfrwt beam="1">  1       21 0.15629302E+00 0.21555115E+03</pdfrwt>
<pdfrwt beam="2">  1       21 0.32724041E-01 0.21555115E+03</pdfrwt>
<totfact> 0.23594002E+03</totfact>
</mgrwt>
</event>
<event>
 5    0  0.1257040E+001  0.2524540E+03  0.7546771E-02  0.1111764E+00
         21   -1    0    0  502  501  0.00000000000E+00  0.00000000000E+00  0.11728361585E+04  0.11728361585E+04  0.00000000000E+00 0. -1.
         21   -1    0    0  504  502 -0.00000000000E+00 -0.00000000000E+00 -0.58396211179E+02  0.58396211179E+02  0.00000000000E+00 0. -1.
         25    1    1    2    0    0  0.88833339342E+02  0.20761336976E+03  0.67113839915E+03  0.71905940248E+03  0.12500000000E+03 0.  0.
         21    1    1    2  503  501 -0.37776953298E+02  0.31399556945E+01  0.89605965066E+02  0.97294329216E+02  0.00000000000E+00 0. -1.
         21    1    1    2  504  503 -0.51056386045E+02 -0.21075332545E+03  0.35369558309E+03  0.41487863797E+03  0.00000000000E+00 0. -1.
<mgrwt>
<rscale>  4 0.25245400E+03</rscale>
<asrwt>0</asrwt>
<pdfrwt beam="1">  1       21 0.18043631E+00 0.25245400E+03</pdfrwt>
<pdfrwt beam="2">  1       21 0.89840334E-02 0.25245400E+03</pdfrwt>
<totfact> 0.17016214E+04</totfact>
</mgrwt>
</event>
<event>
 5    0  0.1257040E+001  0.3426304E+03  0.7546771E-02  0.1065681E+00
         21   -1    0    0  504  501  0.00000000000E+00  0.00000000000E+00  0.40109234476E+03  0.40109234476E+03  0.00000000000E+00 0.  1.
         21   -1    0    0  503  502 -0.00000000000E+00 -0.00000000000E+00 -0.14806003913E+04  0.14806003913E+04  0.00000000000E+00 0. -1.
         25    1    1    2    0    0 -0.12892721414E+03  0.32582027119E+03  0.96735634863E+02  0.38440064869E+03  0.12500000000E+03 0.  0.
         21    1    1    2  503  501  0.12655398347E+03 -0.29018492172E+03 -0.13157431277E+04  0.13532934558E+04  0.00000000000E+00 0. -1.
         21    1    1    2  504  502  0.23732306742E+01 -0.35635349470E+02  0.13949944631E+03  0.14399863151E+03  0.00000000000E+00 0.  1.
<mgrwt>
<rscale>  4 0.34263045E+03</rscale>
<asrwt>0</asrwt>
<pdfrwt beam="1">  1       21 0.61706516E-01 0.34263045E+03</pdfrwt>
<pdfrwt beam="2">  1       21 0.22778467E+00 0.34263045E+03</pdfrwt>
<totfact> 0.18870082E+02</totfact>
</mgrwt>
</event>
<event>
 5    0  0.1257040E+001  0.4134366E+03  0.7546771E-02  0.1039224E+00
         21   -1    0    0  503  501  0.00000000000E+00  0.00000000000E+00  0.61624025659E+03  0.61624025659E+03  0.00000000000E+00 0.  1.
         21   -1    0    0  504  502 -0.00000000000E+00 -0.00000000000E+00 -0.10466091110E+04  0.10466091110E+04  0.00000000000E+00 0.  1.
         25    1    1    2    0    0 -0.41277304159E+03 -0.55883501515E+02  0.44016763427E+03  0.61877063268E+03  0.12500000000E+03 0.  0.
         21    1    1    2  503  502  0.38029815266E+03  0.97321053057E+02 -0.90131827010E+03  0.98309343213E+03  0.00000000000E+00 0.  1.
         21    1    1    2  504  501  0.32474888934E+02 -0.41437551542E+02  0.30781781411E+02  0.60985302786E+02  0.00000000000E+00 0. -1.
<mgrwt>
<rscale>  4 0.41343661E+03</rscale>
<asrwt>0</asrwt>
<pdfrwt beam="1">  1       21 0.94806194E-01 0.41343661E+03</pdfrwt>
<pdfrwt beam="2">  1       21 0.16101678E+00 0.41343661E+03</pdfrwt>
<totfact> 0.19115322E+02</totfact>
</mgrwt>
</event>
<event>
 5    0  0.1257040E+001  0.2211367E+03  0.7546771E-02  0.1133038E+00
         21   -1    0    0  503  501  0.00000000000E+00  0.00000000000E+00  0.48681710199E+03  0.48681710199E+03  0.00000000000E+00 0. -1.
         21   -1    0    0  504  502 -0.00000000000E+00 -0.00000000000E+00 -0.13877176853E+04  0.13877176853E+04  0.00000000000E+00 0. -1.
         25    1    1    2    0    0 -0.25174075013E+03  0.16688801702E+02  0.39609451767E+03  0.48597097476E+03  0.12500000000E+03 0.  0.
         21    1    1    2  503  502  0.17537632432E+03 -0.46676581542E+02 -0.12937936795E+04  0.13064599663E+04  0.00000000000E+00 0. -1.
         21    1    1    2  504  501  0.76364425805E+02  0.29987779840E+02 -0.32014214892E+01  0.82103846242E+02  0.00000000000E+00 0. -1.
<mgrwt>
<rscale>  4 0.22113674E+03</rscale>
<asrwt>0</asrwt>
<pdfrwt beam="1">  1       21 0.74894941E-01 0.22113674E+03</pdfrwt>
<pdfrwt beam="2">  1       21 0.21349502E+00 0.22113674E+03</pdfrwt>
<totfact> 0.16955274E+02</totfact>
</mgrwt>
</event>
<event>
 5    0  0.1257040E+001  0.6805563E+03  0.7546771E-02  0.9751074E-01
         21   -1    0    0  502  501  0.00000000000E+00  0.00000000000E+00  0.44320344414E+03  0.44320344414E+03  0.00000000000E+00 0.  1.
         21   -1    0    0  504  502 -0.00000000000E+00 -0.00000000000E+00 -0.12666558792E+04  0.12666558792E+04  0.00000000000E+00 0.  1.
         25    1    1    2    0    0 -0.14128365920E+03 -0.61168277344E+03 -0.24228062333E+03  0.68442807374E+03  0.12500000000E+03 0.  0.
         21    1    1    2  503  501  0.45615199613E+02 -0.81509611528E+02  0.28157441836E+02  0.97557187013E+02  0.00000000000E+00 0. -1.
         21    1    1    2  504  503  0.95668459582E+02  0.69319238497E+03 -0.60932925352E+03  0.92787406254E+03  0.00000000000E+00 0.  1.
<mgrwt>
<rscale>  4 0.68055630E+03</rscale>
<asrwt>0</asrwt>
<pdfrwt beam="1">  1       21 0.68185147E-01 0.68055630E+03</pdfrwt>
<pdfrwt beam="2">  1       21 0.19487013E+00 0.68055630E+03</pdfrwt>
<totfact> 0.20968885E+02</totfact>
</mgrwt>
</event>
<event>
 5    0  0.1257040E+001  0.3551899E+03  0.7546771E-02  0.1060505E+00
         21   -1    0    0  503  501  0.00000000000E+00  0.00000000000E+00  0.47951466368E+03  0.47951466368E+03  0.00000000000E+00 0.  1.
         21   -1    0    0  504  502 -0.00000000000E+00 -0.00000000000E+00 -0.60526358822E+03  0.60526358822E+03  0.00000000000E+00 0. -1.
         25    1    1    2    0    0 -0.29435804925E+03  0.97133614259E+02  0.13453982482E+03  0.36028816889E+03  0.12500000000E+03 0.  0.
         21    1    1    2  503  502  0.33129873017E+03 -0.67928053639E+02 -0.43074743003E+03  0.54764625221E+03  0.00000000000E+00 0. -1.
         21    1    1    2  504  501 -0.36940680916E+02 -0.29205560621E+02  0.17045868066E+03  0.17684383080E+03  0.00000000000E+00 0. -1.
<mgrwt>
<rscale>  4 0.35518987E+03</rscale>
<asrwt>0</asrwt>
<pdfrwt beam="1">  1       21 0.73771487E-01 0.35518987E+03</pdfrwt>
<pdfrwt beam="2">  1       21 0.93117475E-01 0.35518987E+03</pdfrwt>
<totfact> 0.14303947E+03</totfact>
</mgrwt>
</event>
<event>
 5    0  0.1257040E+001  0.2093206E+03  0.7546771E-02  0.1142105E+00
         21   -1    0    0  503  501  0.00000000000E+00  0.00000000000E+00  0.26578914138E+03  0.26578914138E+03  0.00000000000E+00 0. -1.
         21   -1    0    0  504  502 -0.00000000000E+00 -0.00000000000E+00 -0.49456987940E+03  0.49456987940E+03  0.00000000000E+00 0.  1.
         25    1    1    2    0    0 -0.16918985619E+03 -0.19018869357E+03 -0.47638034306E+02  0.28756100033E+03  0.12500000000E+03 0.  0.
         21    1    1    2  503  502  0.89103945152E+02  0.12571257846E+03 -0.28667461925E+03  0.32546198357E+03  0.00000000000E+00 0.  1.
         21    1    1    2  504  501  0.80085911040E+02  0.64476115103E+02  0.10553191554E+03  0.14733603688E+03  0.00000000000E+00 0. -1.
<mgrwt>
<rscale>  4 0.20932060E+03</rscale>
<asrwt>0</asrwt>
<pdfrwt beam="1">  1       21 0.40890638E-01 0.20932060E+03</pdfrwt>
<pdfrwt beam="2">  1       21 0.76087673E-01 0.20932060E+03</pdfrwt>
<totfact> 0.87663461E+03</totfact>
</mgrwt>
</event>
<event>
 5    0  0.1257040E+001  0.2416352E+03  0.7546771E-02  0.1118708E+00
         21   -1    0    0  502  501  0.00000000000E+00  0.00000000000E+00  0.16099665117E+03  0.16099665117E+03  0.00000000000E+00 0. -1.
         21   -1    0    0  504  502 -0.00000000000E+00 -0.00000000000E+00 -0.10202754095E+04  0.10202754095E+04  0.00000000000E+00 0.  1.
         25    1    1    2    0    0  0.18785234055E+03  0.10721418654E+03  0.35057661356E+02  0.25226458980E+03  0.12500000000E+03 0.  0.
         21    1    1    2  503  501 -0.18500012600E+02  0.10187317617E+02 -0.15141660865E+02  0.25986569612E+02  0.00000000000E+00 0. -1.
         21    1    1    2  504  503 -0.16935232795E+03 -0.11740150416E+03 -0.87919475881E+03  0.90302090124E+03  0.00000000000E+00 0.  1.
<mgrwt>
<rscale>  4 0.24163525E+03</rscale>
<asrwt>0</asrwt>
<pdfrwt beam="1">  1       21 0.24768715E-01 0.24163525E+03</pdfrwt>
<pdfrwt beam="2">  1       21 0.15696545E+00 0.24163525E+03</pdfrwt>
<totfact> 0.39272519E+03</totfact>
</mgrwt>
</event>
<event>
 5    0  0.1257040E+001  0.3744772E+03  0.7546771E-02  0.1052994E+00
         21   -1    0    0  502  501  0.00000000000E+00  0.00000000000E+00  0.18614112325E+03  0.18614112325E+03  0.00000000000E+00 0. -1.
         21   -1    0    0  504  502 -0.00000000000E+00 -0.00000000000E+00 -0.98780495651E+03  0.98780495651E+03  0.00000000000E+00 0.  1.
         25    1    1    2    0    0 -0.92654081465E+02 -0.36324112189E+03 -0.18737753426E+03  0.43733766335E+03  0.12500000000E+03 0.  0.
         21    1    1    2  503  501  0.19272235635E+02  0.25980442549E+02 -0.40578578196E+00  0.32350689691E+02  0.00000000000E+00 0.  1.
         21    1    1    2  504  503  0.73381845831E+02  0.33726067934E+03 -0.61388051322E+03  0.70425772671E+03  0.00000000000E+00 0.  1.
<mgrwt>
<rscale>  4 0.37447721E+03</rscale>
<asrwt>0</asrwt>
<pdfrwt beam="1">  1       21 0.28637096E-01 0.37447721E+03</pdfrwt>
<pdfrwt beam="2">  1       21 0.15196999E+00 0.37447721E+03</pdfrwt>
<totfact> 0.29966644E+03</totfact>
</mgrwt>
</event>
<event>
 5    0  0.1257040E+001  0.2718722E+03  0.7546771E-02  0.1100213E+00
         21   -1    0    0  503  501  0.00000000000E+00  0.00000000000E+00  0.12270814219E+04  0.12270814219E+04  0.00000000000E+00 0. -1.
         21   -1    0    0  504  502 -0.00000000000E+00 -0.00000000000E+00 -0.16995364327E+03  0.16995364327E+03  0.00000000000E+00 0.  1.
         25    1    1    2    0    0 -0.21196533981E+03 -0.14718395665E+03  0.81960738910E+03  0.86831658665E+03  0.12500000000E+03 0.  0.
         21    1    1    2  503  502  0.19149832902E+01  0.71603246627E+02 -0.10063513100E+03  0.12352376970E+03  0.00000000000E+00 0.  1.
         21    1    1    2  504  501  0.21005035652E+03  0.75580710018E+02  0.33815552055E+03  0.40519470885E+03  0.00000000000E+00 0. -1.
<mgrwt>
<rscale>  4 0.27187216E+03</rscale>
<asrwt>0</asrwt>
<pdfrwt beam="1">  1       21 0.18878175E+00 0.27187216E+03</pdfrwt>
<pdfrwt beam="2">  1       21 0.26146715E-01 0.27187216E+03</pdfrwt>
<totfact> 0.20626582E+03</totfact>
</mgrwt>
</event>
<event>
 5    0  0.1257040E+001  0.3086101E+03  0.7546771E-02  0.1081014E+00
         21   -1    0    0  502  501  0.00000000000E+00  0.00000000000E+00  0.32593614590E+02  0.32593614590E+02  0.00000000000E+00 0.  1.
         21   -1    0    0  504  502 -0.00000000000E+00 -0.00000000000E+00 -0.44510168215E+04  0.44510168215E+04  0.00000000000E+00 0.  1.
         25    1    1    2    0    0 -0.13461318646E+03 -0.23032463608E+03 -0.10773404458E+04  0.11168964071E+04  0.12500000000E+03 0.  0.
         21    1    1    2  503  501 -0.27445837245E+02 -0.67213818855E+01 -0.23568028210E+02  0.36795419691E+02  0.00000000000E+00 0. -1.
         21    1    1    2  504  503  0.16205902370E+03  0.23704601796E+03 -0.33175147329E+04  0.33299186093E+04  0.00000000000E+00 0.  1.
<mgrwt>
<rscale>  4 0.30861005E+03</rscale>
<asrwt>0</asrwt>
<pdfrwt beam="1">  1       21 0.50143992E-02 0.30861005E+03</pdfrwt>
<pdfrwt beam="2">  1       21 0.68477224E+00 0.30861005E+03</pdfrwt>
<totfact> 0.15417831E+01</totfact>
</mgrwt>
</event>
<event>
 5    0  0.1257040E+001  0.2636339E+03  0.7546771E-02  0.1104979E+00
         21   -1    0    0  504  501  0.00000000000E+00  0.00000000000E+00  0.11163517793E+03  0.11163517793E+03  0.00000000000E+00 0. -1.
         21   -1    0    0  501  502 -0.00000000000E+00 -0.00000000000E+00 -0.13154095745E+04  0.13154095745E+04  0.00000000000E+00 0. -1.
         25    1    1    2    0    0 -0.23509052314E+03  0.21530935101E+02 -0.11341555434E+04  0.11651887967E+04  0.12500000000E+03 0.  0.
         21    1    1    2  503  502  0.23698419966E+02 -0.29046436981E+02 -0.26689902534E+02  0.46018056319E+02  0.00000000000E+00 0. -1.
         21    1    1    2  504  503  0.21139210318E+03  0.75155018797E+01 -0.42928950684E+02  0.21583789950E+03  0.00000000000E+00 0. -1.
<mgrwt>
<rscale>  4 0.26363387E+03</rscale>
<asrwt>0</asrwt>
<pdfrwt beam="1">  1       21 0.17174644E-01 0.26363387E+03</pdfrwt>
<pdfrwt beam="2">  1       21 0.20237069E+00 0.26363387E+03</pdfrwt>
<totfact> 0.37404591E+03</totfact>
</mgrwt>
</event>
<event>
 5    0  0.1257040E+001  0.2799934E+03  0.7546771E-02  0.1095693E+00
         21   -1    0    0  504  501  0.00000000000E+00  0.00000000000E+00  0.96696477578E+03  0.96696477578E+03  0.00000000000E+00 0. -1.
         21   -1    0    0  503  502 -0.00000000000E+00 -0.00000000000E+00 -0.12112306003E+03  0.12112306003E+03  0.00000000000E+00 0. -1.
         25    1    1    2    0    0 -0.71389845107E+02  0.21401315765E+03  0.13006819067E+03  0.28886134365E+03  0.12500000000E+03 0.  0.
         21    1    1    2  503  501 -0.44397288933E+02  0.16849527691E+02  0.11174826643E+02  0.48784245393E+02  0.00000000000E+00 0.  1.
         21    1    1    2  504  502  0.11578713404E+03 -0.23086268534E+03  0.70459869844E+03  0.75044224677E+03  0.00000000000E+00 0. -1.
<mgrwt>
<rscale>  4 0.27999337E+03</rscale>
<asrwt>0</asrwt>
<pdfrwt beam="1">  1       21 0.14876381E+00 0.27999337E+03</pdfrwt>
<pdfrwt beam="2">  1       21 0.18634318E-01 0.27999337E+03</pdfrwt>
<totfact> 0.75874440E+03</totfact>
</mgrwt>
</event>
<event>
 5    0  0.1257040E+001  0.2645630E+03  0.7546771E-02  0.1104432E+00
         21   -1    0    0  504  501  0.00000000000E+00  0.00000000000E+00  0.83643095741E+02  0.83643095741E+02  0.00000000000E+00 0.  1.
         21   -1    0    0  501  502 -0.00000000000E+00 -0.00000000000E+00 -0.76182691638E+03  0.76182691638E+03  0.00000000000E+00 0.  1.
         25    1    1    2    0    0 -0.23304780890E+03  0.75684219176E+01 -0.34860061869E+03  0.43762535757E+03  0.12500000000E+03 0.  0.
         21    1    1    2  503  502  0.20030912440E+03  0.27842305811E+01 -0.24446112515E+03  0.31605812594E+03  0.00000000000E+00 0.  1.
         21    1    1    2  504  503  0.32738684495E+02 -0.10352652499E+02 -0.85122076801E+02  0.91786528614E+02  0.00000000000E+00 0. -1.
<mgrwt>
<rscale>  4 0.26456296E+03</rscale>
<asrwt>0</asrwt>
<pdfrwt beam="1">  1       21 0.12868169E-01 0.26456296E+03</pdfrwt>
<pdfrwt beam="2">  1       21 0.11720414E+00 0.26456296E+03</pdfrwt>
<totfact> 0.27901643E+04</totfact>
</mgrwt>
</event>
<event>
 5    0  0.1257040E+001  0.2436471E+03  0.7546771E-02  0.1117387E+00
         21   -1    0    0  503  501  0.00000000000E+00  0.00000000000E+00  0.10370423780E+03  0.10370423780E+03  0.00000000000E+00 0.  1.
         21   -1    0    0  504  502 -0.00000000000E+00 -0.00000000000E+00 -0.71911139381E+03  0.71911139381E+03  0.00000000000E+00 0.  1.
         25    1    1    2    0    0 -0.21427237536E+03 -0.42018604547E+02 -0.13724572710E+03  0.28660007602E+03  0.12500000000E+03 0.  0.
         21    1    1    2  503  502  0.23732872317E+02  0.27116431661E+01 -0.17075319214E+03  0.17241593564E+03  0.00000000000E+00 0.  1.
         21    1    1    2  504  501  0.19053950304E+03  0.39306961381E+02 -0.30740823677E+03  0.36379961994E+03  0.00000000000E+00 0.  1.
<mgrwt>
<rscale>  4 0.24364711E+03</rscale>
<asrwt>0</asrwt>
<pdfrwt beam="1">  1       21 0.15954498E-01 0.24364711E+03</pdfrwt>
<pdfrwt beam="2">  1       21 0.11063252E+00 0.24364711E+03</pdfrwt>
<totfact> 0.21929283E+04</totfact>
</mgrwt>
</event>
<event>
 5    0  0.1257040E+001  0.2851618E+03  0.7546771E-02  0.1092903E+00
         21   -1    0    0  503  501  0.00000000000E+00  0.00000000000E+00  0.88345305889E+02  0.88345305889E+02  0.00000000000E+00 0.  1.
         21   -1    0    0  504  502 -0.00000000000E+00 -0.00000000000E+00 -0.18172614078E+04  0.18172614078E+04  0.00000000000E+00 0.  1.
         25    1    1    2    0    0  0.31436954817E+03  0.57397431057E+02 -0.54445671231E+03  0.64356879158E+03  0.12500000000E+03 0.  0.
         21    1    1    2  503  502 -0.10532492402E+03  0.14002189877E+02 -0.87720498153E+03  0.88361642162E+03  0.00000000000E+00 0.  1.
         21    1    1    2  504  501 -0.20904462415E+03 -0.71399620934E+02 -0.30725440808E+03  0.37842150050E+03  0.00000000000E+00 0.  1.
<mgrwt>
<rscale>  4 0.28516182E+03</rscale>
<asrwt>0</asrwt>
<pdfrwt beam="1">  1       21 0.13591585E-01 0.28516182E+03</pdfrwt>
<pdfrwt beam="2">  1       21 0.27957869E+00 0.28516182E+03</pdfrwt>
<totfact> 0.19132787E+03</totfact>
</mgrwt>
</event>
<event>
 5    0  0.1257040E+001  0.4397952E+03  0.7546771E-02  0.1030810E+00
         21   -1    0    0  504  501  0.00000000000E+00  0.00000000000E+00  0.28552747199E+03  0.28552747199E+03  0.00000000000E+00 0. -1.
         21   -1    0    0  503  502 -0.00000000000E+00 -0.00000000000E+00 -0.13633984431E+04  0.13633984431E+04  0.00000000000E+00 0. -1.
         25    1    1    2    0    0  0.20755769783E+03  0.39020127262E+03 -0.10788771301E+04  0.11725775424E+04  0.12500000000E+03 0.  0.
         21    1    1    2  503  501 -0.31093622212E+02 -0.10876866515E+02 -0.44667859904E+02  0.55500786263E+02  0.00000000000E+00 0. -1.
         21    1    1    2  504  502 -0.17646407562E+03 -0.37932440611E+03  0.45674018833E+02  0.42084758648E+03  0.00000000000E+00 0. -1.
<mgrwt>
<rscale>  4 0.43979516E+03</rscale>
<asrwt>0</asrwt>
<pdfrwt beam="1">  1       21 0.43927303E-01 0.43979516E+03</pdfrwt>
<pdfrwt beam="2">  1       21 0.20975361E+00 0.43979516E+03</pdfrwt>
<totfact> 0.47807049E+02</totfact>
</mgrwt>
</event>
