<event>
 5    0  0.1911311E+001  0.2743025E+03  0.7546771E-02  0.1098842E+00
         21   -1    0    0  503  501  0.00000000000E+00  0.00000000000E+00  0.29580397402E+02  0.29580397402E+02  0.00000000000E+00 0. -1.
         21   -1    0    0  501  502 -0.00000000000E+00 -0.00000000000E+00 -0.27019641647E+04  0.27019641647E+04  0.00000000000E+00 0. -1.
         25    1    1    2    0    0  0.20749267966E+03  0.12869992871E+03 -0.86736124764E+03  0.90970182899E+03  0.12500000000E+03 0.  0.
         21    1    1    2  503  504 -0.29417585235E+02 -0.12675430598E+02 -0.16256188241E+03  0.16568773786E+03  0.00000000000E+00 0.  1.
         21    1    1    2  504  502 -0.17807509442E+03 -0.11602449811E+03 -0.16424606373E+04  0.16561549953E+04  0.00000000000E+00 0. -1.
<mgrwt>
<rscale>  4 0.27430254E+03</rscale>
<asrwt>0</asrwt>
<pdfrwt beam="1">  1       21 0.45508290E-02 0.27430254E+03</pdfrwt>
<pdfrwt beam="2">  1       21 0.41568692E+00 0.27430254E+03</pdfrwt>
<totfact> 0.19806242E+03</totfact>
</mgrwt>
</event>
<event>
 5    0  0.1911311E+001  0.2690148E+03  0.7546771E-02  0.1101845E+00
         21   -1    0    0  503  501  0.00000000000E+00  0.00000000000E+00  0.94523867195E+02  0.94523867195E+02  0.00000000000E+00 0.  1.
         21   -1    0    0  504  502 -0.00000000000E+00 -0.00000000000E+00 -0.11345766434E+04  0.11345766434E+04  0.00000000000E+00 0.  1.
         25    1    1    2    0    0  0.90078659145E+02 -0.24161387103E+03 -0.26312061826E+03  0.38903584316E+03  0.12500000000E+03 0.  0.
         21    1    1    2  503  502 -0.10185772441E+03  0.20964444922E+03 -0.77102684774E+03  0.80548630717E+03  0.00000000000E+00 0.  1.
         21    1    1    2  504  501  0.11779065266E+02  0.31969421813E+02 -0.59053101997E+01  0.34578360259E+02  0.00000000000E+00 0.  1.
<mgrwt>
<rscale>  4 0.26901483E+03</rscale>
<asrwt>0</asrwt>
<pdfrwt beam="1">  1       21 0.14542134E-01 0.26901483E+03</pdfrwt>
<pdfrwt beam="2">  1       21 0.17455024E+00 0.26901483E+03</pdfrwt>
<totfact> 0.77956446E+03</totfact>
</mgrwt>
</event>
<event>
 5    0  0.1911311E+001  0.2841293E+03  0.7546771E-02  0.1093455E+00
         21   -1    0    0  502  501  0.00000000000E+00  0.00000000000E+00  0.29357277609E+03  0.29357277609E+03  0.00000000000E+00 0. -1.
         21   -1    0    0  504  502 -0.00000000000E+00 -0.00000000000E+00 -0.10378043597E+04  0.10378043597E+04  0.00000000000E+00 0. -1.
         25    1    1    2    0    0  0.90510356440E+02 -0.20736658341E+03 -0.89390812577E+03  0.93053197788E+03  0.12500000000E+03 0.  0.
         21    1    1    2  503  501 -0.11393887185E+03  0.23047758337E+03  0.21010722856E+03  0.33203468260E+03  0.00000000000E+00 0. -1.
         21    1    1    2  504  503  0.23428515414E+02 -0.23110999962E+02 -0.60430686444E+02  0.68810475350E+02  0.00000000000E+00 0. -1.
<mgrwt>
<rscale>  4 0.28412926E+03</rscale>
<asrwt>0</asrwt>
<pdfrwt beam="1">  1       21 0.45165042E-01 0.28412926E+03</pdfrwt>
<pdfrwt beam="2">  1       21 0.15966221E+00 0.28412926E+03</pdfrwt>
<totfact> 0.10995882E+03</totfact>
</mgrwt>
</event>
<event>
 5    0  0.2673106E+001  0.2800681E+03  0.7546771E-02  0.1095652E+00
         21   -1    0    0  503  501  0.00000000000E+00  0.00000000000E+00  0.56040294290E+02  0.56040294290E+02  0.00000000000E+00 0. -1.
         21   -1    0    0  504  502 -0.00000000000E+00 -0.00000000000E+00 -0.20119320587E+04  0.20119320587E+04  0.00000000000E+00 0.  1.
         25    1    1    2    0    0 -0.25671894371E+03 -0.53258183284E+02 -0.47691318898E+03  0.55840150427E+03  0.12500000000E+03 0.  0.
         21    1    1    2  503  502  0.23896542433E+03  0.65458056336E+02 -0.14599608488E+04  0.14808358826E+04  0.00000000000E+00 0.  1.
         21    1    1    2  504  501  0.17753519380E+02 -0.12199873052E+02 -0.19017726687E+02  0.28734966177E+02  0.00000000000E+00 0.  1.
<mgrwt>
<rscale>  4 0.28006814E+03</rscale>
<asrwt>0</asrwt>
<pdfrwt beam="1">  1       21 0.86215835E-02 0.28006814E+03</pdfrwt>
<pdfrwt beam="2">  1       21 0.30952802E+00 0.28006814E+03</pdfrwt>
<totfact> 0.28954042E+03</totfact>
</mgrwt>
</event>
<event>
 5    0  0.1911311E+001  0.4620122E+03  0.7546771E-02  0.1024199E+00
         21   -1    0    0  504  501  0.00000000000E+00  0.00000000000E+00  0.67936145743E+03  0.67936145743E+03  0.00000000000E+00 0.  1.
         21   -1    0    0  501  502 -0.00000000000E+00 -0.00000000000E+00 -0.65113447281E+03  0.65113447281E+03  0.00000000000E+00 0.  1.
         25    1    1    2    0    0 -0.22398575875E+03  0.39004338106E+03  0.39282019960E+03  0.61011160327E+03  0.12500000000E+03 0.  0.
         21    1    1    2  503  502  0.53434101417E+02  0.20353736188E+02  0.75646078827E+02  0.94825139141E+02  0.00000000000E+00 0.  1.
         21    1    1    2  504  503  0.17055165733E+03 -0.41039711725E+03 -0.44023929380E+03  0.62555918783E+03  0.00000000000E+00 0.  1.
<mgrwt>
<rscale>  4 0.46201223E+03</rscale>
<asrwt>0</asrwt>
<pdfrwt beam="1">  1       21 0.10451715E+00 0.46201223E+03</pdfrwt>
<pdfrwt beam="2">  1       21 0.10017453E+00 0.46201223E+03</pdfrwt>
<totfact> 0.50280543E+02</totfact>
</mgrwt>
</event>
<event>
 5    0  0.1911311E+001  0.2466561E+03  0.7546771E-02  0.1115437E+00
         21   -1    0    0  503  501  0.00000000000E+00  0.00000000000E+00  0.85759625836E+02  0.85759625836E+02  0.00000000000E+00 0.  1.
         21   -1    0    0  504  502 -0.00000000000E+00 -0.00000000000E+00 -0.88369167382E+03  0.88369167382E+03  0.00000000000E+00 0.  1.
         25    1    1    2    0    0 -0.11726955687E+02 -0.23243356409E+03 -0.47854218057E+03  0.54661732664E+03  0.12500000000E+03 0.  0.
         21    1    1    2  503  502  0.36457898639E+01  0.28070274749E+02 -0.16281717868E+03  0.16525938939E+03  0.00000000000E+00 0.  1.
         21    1    1    2  504  501  0.80811658229E+01  0.20436328934E+03 -0.15657268874E+03  0.25757458363E+03  0.00000000000E+00 0.  1.
<mgrwt>
<rscale>  4 0.24665608E+03</rscale>
<asrwt>0</asrwt>
<pdfrwt beam="1">  1       21 0.13193789E-01 0.24665608E+03</pdfrwt>
<pdfrwt beam="2">  1       21 0.13595256E+00 0.24665608E+03</pdfrwt>
<totfact> 0.18481646E+04</totfact>
</mgrwt>
</event>
<event>
 5    0  0.1911311E+001  0.2205365E+03  0.7546771E-02  0.1133484E+00
         21   -1    0    0  502  501  0.00000000000E+00  0.00000000000E+00  0.97557530335E+03  0.97557530335E+03  0.00000000000E+00 0. -1.
         21   -1    0    0  504  502 -0.00000000000E+00 -0.00000000000E+00 -0.19763061832E+03  0.19763061832E+03  0.00000000000E+00 0. -1.
         25    1    1    2    0    0 -0.23587560519E+03 -0.14308989759E+03  0.21394245907E+02  0.30363585703E+03  0.12500000000E+03 0.  0.
         21    1    1    2  503  501  0.15642296185E+03  0.78450642231E+02  0.74640434821E+03  0.76664339643E+03  0.00000000000E+00 0. -1.
         21    1    1    2  504  503  0.79452643340E+02  0.64639255363E+02  0.10146090906E+02  0.10292666821E+03  0.00000000000E+00 0. -1.
<mgrwt>
<rscale>  4 0.22053654E+03</rscale>
<asrwt>0</asrwt>
<pdfrwt beam="1">  1       21 0.15008851E+00 0.22053654E+03</pdfrwt>
<pdfrwt beam="2">  1       21 0.30404711E-01 0.22053654E+03</pdfrwt>
<totfact> 0.30240720E+03</totfact>
</mgrwt>
</event>
