<event>
 5    0  0.1911311E+001  0.3138002E+03  0.7546771E-02  0.1078539E+00
         21   -1    0    0  502  501  0.00000000000E+00  0.00000000000E+00  0.46298511766E+03  0.46298511766E+03  0.00000000000E+00 0.  1.
         21   -1    0    0  504  502 -0.00000000000E+00 -0.00000000000E+00 -0.73697006769E+03  0.73697006769E+03  0.00000000000E+00 0.  1.
         25    1    1    2    0    0 -0.28508208109E+03 -0.12144174693E+03  0.29911436950E+03  0.44845768685E+03  0.12500000000E+03 0.  0.
         21    1    1    2  503  501  0.33388463374E+02 -0.14571397941E+02  0.52317205737E+02  0.63751118740E+02  0.00000000000E+00 0.  1.
         21    1    1    2  504  503  0.25169361772E+03  0.13601314488E+03 -0.62541652527E+03  0.68774637975E+03  0.00000000000E+00 0.  1.
<mgrwt>
<rscale>  4 0.31380017E+03</rscale>
<asrwt>0</asrwt>
<pdfrwt beam="1">  1       21 0.71228480E-01 0.31380017E+03</pdfrwt>
<pdfrwt beam="2">  1       21 0.11338001E+00 0.31380017E+03</pdfrwt>
<totfact> 0.98294746E+02</totfact>
</mgrwt>
</event>
<event>
 5    0  0.1911311E+001  0.3157813E+03  0.7546771E-02  0.1077607E+00
         21   -1    0    0  504  501  0.00000000000E+00  0.00000000000E+00  0.17321505936E+04  0.17321505936E+04  0.00000000000E+00 0. -1.
         21   -1    0    0  503  502 -0.00000000000E+00 -0.00000000000E+00 -0.18032410339E+03  0.18032410339E+03  0.00000000000E+00 0. -1.
         25    1    1    2    0    0 -0.88581293331E+02 -0.20202351045E+03  0.54917313512E+02  0.25942446998E+03  0.12500000000E+03 0.  0.
         21    1    1    2  503  501 -0.93807310814E+02 -0.37177527172E+02 -0.23138922983E+02  0.10352482719E+03  0.00000000000E+00 0.  1.
         21    1    1    2  504  502  0.18238860415E+03  0.23920103762E+03  0.15200480997E+04  0.15495253998E+04  0.00000000000E+00 0. -1.
<mgrwt>
<rscale>  4 0.31578128E+03</rscale>
<asrwt>0</asrwt>
<pdfrwt beam="1">  1       21 0.26648470E+00 0.31578128E+03</pdfrwt>
<pdfrwt beam="2">  1       21 0.27742171E-01 0.31578128E+03</pdfrwt>
<totfact> 0.58221152E+02</totfact>
</mgrwt>
</event>
<event>
 5    0  0.1911311E+001  0.2213259E+03  0.7546771E-02  0.1132898E+00
         21   -1    0    0  502  501  0.00000000000E+00  0.00000000000E+00  0.47041680942E+03  0.47041680942E+03  0.00000000000E+00 0. -1.
         21   -1    0    0  504  502 -0.00000000000E+00 -0.00000000000E+00 -0.11458761232E+04  0.11458761232E+04  0.00000000000E+00 0.  1.
         25    1    1    2    0    0 -0.15030375596E+03  0.14425847130E+03 -0.10686955540E+04  0.10959639195E+04  0.12500000000E+03 0.  0.
         21    1    1    2  503  501  0.13922766466E+03 -0.11755596972E+03  0.43380069875E+03  0.47051758188E+03  0.00000000000E+00 0. -1.
         21    1    1    2  504  503  0.11076091300E+02 -0.26702501581E+02 -0.40564458455E+02  0.49811431207E+02  0.00000000000E+00 0.  1.
<mgrwt>
<rscale>  4 0.22132586E+03</rscale>
<asrwt>0</asrwt>
<pdfrwt beam="1">  1       21 0.72371818E-01 0.22132586E+03</pdfrwt>
<pdfrwt beam="2">  1       21 0.17628863E+00 0.22132586E+03</pdfrwt>
<totfact> 0.32110909E+02</totfact>
</mgrwt>
</event>
<event>
 5    0  0.1911311E+001  0.2198322E+03  0.7546771E-02  0.1134008E+00
         21   -1    0    0  503  501  0.00000000000E+00  0.00000000000E+00  0.18851050427E+03  0.18851050427E+03  0.00000000000E+00 0. -1.
         21   -1    0    0  504  502 -0.00000000000E+00 -0.00000000000E+00 -0.63890209156E+03  0.63890209156E+03  0.00000000000E+00 0. -1.
         25    1    1    2    0    0  0.26427700667E+03  0.10187067703E+03 -0.16205229463E+03  0.34943657119E+03  0.12500000000E+03 0.  0.
         21    1    1    2  503  502 -0.11616817370E+03 -0.65995363127E+02 -0.29665957726E+03  0.32535724568E+03  0.00000000000E+00 0. -1.
         21    1    1    2  504  501 -0.14810883297E+03 -0.35875313904E+02  0.83202845984E+01  0.15261877895E+03  0.00000000000E+00 0. -1.
<mgrwt>
<rscale>  4 0.21983225E+03</rscale>
<asrwt>0</asrwt>
<pdfrwt beam="1">  1       21 0.29001615E-01 0.21983225E+03</pdfrwt>
<pdfrwt beam="2">  1       21 0.98292632E-01 0.21983225E+03</pdfrwt>
<totfact> 0.95519118E+03</totfact>
</mgrwt>
</event>
