<event>
 5    0  0.2754780E-002  0.6384278E+03  0.7546771E-02  0.9828739E-01
          2   -1    0    0  503    0  0.00000000000E+00  0.00000000000E+00  0.43977869736E+03  0.43977869736E+03  0.00000000000E+00 0.  1.
         -2   -1    0    0    0  501 -0.00000000000E+00 -0.00000000000E+00 -0.26239822927E+03  0.26239822927E+03  0.00000000000E+00 0. -1.
         25    1    1    2    0    0  0.48060918291E+02 -0.28666308373E+03  0.21212100481E+03  0.38092767834E+03  0.12500000000E+03 0.  0.
         21    1    1    2  502  501 -0.15586069172E+02  0.26079511003E+02  0.38103895094E+02  0.48733697456E+02  0.00000000000E+00 0. -1.
         21    1    1    2  503  502 -0.32474849118E+02  0.26058357273E+03 -0.72844431812E+02  0.27251555083E+03  0.00000000000E+00 0. -1.
<mgrwt>
<rscale>  4 0.63842783E+03</rscale>
<asrwt>0</asrwt>
<pdfrwt beam="1">  1        2 0.67658261E-01 0.63842783E+03</pdfrwt>
<pdfrwt beam="2">  1       -2 0.40368958E-01 0.63842783E+03</pdfrwt>
<totfact> 0.41855105E+02</totfact>
</mgrwt>
</event>
<event>
 5    0  0.2754780E-002  0.4276640E+03  0.7546771E-02  0.1034600E+00
          1   -1    0    0  503    0  0.00000000000E+00  0.00000000000E+00  0.25458941209E+04  0.25458941209E+04  0.00000000000E+00 0.  1.
         -1   -1    0    0    0  501 -0.00000000000E+00 -0.00000000000E+00 -0.53769545467E+02  0.53769545467E+02  0.00000000000E+00 0. -1.
         25    1    1    2    0    0 -0.19312373784E+03 -0.12804143696E+03  0.16745137723E+04  0.16950848832E+04  0.12500000000E+03 0.  0.
         21    1    1    2  502  501  0.14056204717E+03  0.80152256443E+02  0.81761501809E+03  0.83347248972E+03  0.00000000000E+00 0. -1.
         21    1    1    2  503  502  0.52561690672E+02  0.47889180516E+02 -0.42150275676E-02  0.71106293354E+02  0.00000000000E+00 0. -1.
<mgrwt>
<rscale>  4 0.42766398E+03</rscale>
<asrwt>0</asrwt>
<pdfrwt beam="1">  1        1 0.39167592E+00 0.42766398E+03</pdfrwt>
<pdfrwt beam="2">  1       -1 0.82722398E-02 0.42766398E+03</pdfrwt>
<totfact> 0.11678390E+02</totfact>
</mgrwt>
</event>
<event>
 5    0  0.2754780E-002  0.6092523E+03  0.7546771E-02  0.9886394E-01
          2   -1    0    0  502    0  0.00000000000E+00  0.00000000000E+00  0.13541356762E+04  0.13541356762E+04  0.00000000000E+00 0. -1.
         -2   -1    0    0    0  501 -0.00000000000E+00 -0.00000000000E+00 -0.68528660747E+02  0.68528660747E+02  0.00000000000E+00 0.  1.
         25    1    1    2    0    0  0.70229534643E+02  0.22972650163E+03  0.30478068257E+03  0.40770420350E+03  0.12500000000E+03 0.  0.
         21    1    1    2  502  503 -0.90456910973E+02 -0.17360315070E+03  0.65150132720E+03  0.68027530164E+03  0.00000000000E+00 0. -1.
         21    1    1    2  503  501  0.20227376330E+02 -0.56123350928E+02  0.32932500569E+03  0.33468483181E+03  0.00000000000E+00 0. -1.
<mgrwt>
<rscale>  4 0.60925234E+03</rscale>
<asrwt>0</asrwt>
<pdfrwt beam="1">  1        2 0.20832855E+00 0.60925234E+03</pdfrwt>
<pdfrwt beam="2">  1       -2 0.10542872E-01 0.60925234E+03</pdfrwt>
<totfact> 0.98273197E+02</totfact>
</mgrwt>
</event>
<event>
 5    0  0.2754780E-002  0.6432207E+03  0.7546771E-02  0.9819584E-01
         -1   -1    0    0    0  501 -0.00000000000E+00  0.00000000000E+00  0.17261083728E+03  0.17261083728E+03  0.00000000000E+00 0. -1.
          1   -1    0    0  502    0  0.00000000000E+00 -0.00000000000E+00 -0.80119209529E+03  0.80119209529E+03  0.00000000000E+00 0.  1.
         25    1    1    2    0    0  0.19764221391E+03 -0.23662345808E+03 -0.13266004847E+03  0.35815749901E+03  0.12500000000E+03 0.  0.
         21    1    1    2  502  503 -0.22371484807E+03  0.17519149743E+03 -0.32247209886E+03  0.42980070796E+03  0.00000000000E+00 0.  1.
         21    1    1    2  503  501  0.26072634164E+02  0.61431960659E+02 -0.17344911067E+03  0.18584472561E+03  0.00000000000E+00 0.  1.
<mgrwt>
<rscale>  4 0.64322070E+03</rscale>
<asrwt>0</asrwt>
<pdfrwt beam="1">  1        1 0.12326032E+00 0.64322070E+03</pdfrwt>
<pdfrwt beam="2">  1       -1 0.26555514E-01 0.64322070E+03</pdfrwt>
<totfact> 0.28289670E+02</totfact>
</mgrwt>
</event>
<event>
 5    0  0.2754780E-002  0.9179559E+03  0.7546771E-02  0.9403410E-01
          1   -1    0    0  502    0  0.00000000000E+00  0.00000000000E+00  0.48377526324E+03  0.48377526324E+03  0.00000000000E+00 0.  1.
         -1   -1    0    0    0  501 -0.00000000000E+00 -0.00000000000E+00 -0.57715040262E+03  0.57715040262E+03  0.00000000000E+00 0. -1.
         25    1    1    2    0    0  0.40063234147E+03  0.12340386584E+03  0.65614629827E+02  0.44234044217E+03  0.12500000000E+03 0.  0.
         21    1    1    2  502  503 -0.41515533476E+03 -0.66194548592E+02 -0.26521290880E+03  0.49706494267E+03  0.00000000000E+00 0. -1.
         21    1    1    2  503  501  0.14522993293E+02 -0.57209317252E+02  0.10622313959E+03  0.12152028102E+03  0.00000000000E+00 0. -1.
<mgrwt>
<rscale>  4 0.91795588E+03</rscale>
<asrwt>0</asrwt>
<pdfrwt beam="1">  1        1 0.74426964E-01 0.91795588E+03</pdfrwt>
<pdfrwt beam="2">  1       -1 0.88792369E-01 0.91795588E+03</pdfrwt>
<totfact> 0.58201974E+01</totfact>
</mgrwt>
</event>
<event>
 5    0  0.2754780E-002  0.7463409E+03  0.7546771E-02  0.9641108E-01
          2   -1    0    0  502    0  0.00000000000E+00  0.00000000000E+00  0.11660695076E+04  0.11660695076E+04  0.00000000000E+00 0.  1.
         -2   -1    0    0    0  501 -0.00000000000E+00 -0.00000000000E+00 -0.68283343858E+03  0.68283343858E+03  0.00000000000E+00 0. -1.
         25    1    1    2    0    0  0.98227385976E+02  0.29909863614E+03 -0.61030017715E+02  0.34417768167E+03  0.12500000000E+03 0.  0.
         21    1    1    2  502  503 -0.15863437225E+03 -0.30813480417E+03 -0.41660502761E+03  0.54191481861E+03  0.00000000000E+00 0.  1.
         21    1    1    2  503  501  0.60406986279E+02  0.90361680264E+01  0.96087111431E+03  0.96281044585E+03  0.00000000000E+00 0.  1.
<mgrwt>
<rscale>  4 0.74634086E+03</rscale>
<asrwt>0</asrwt>
<pdfrwt beam="1">  1        2 0.17939531E+00 0.74634086E+03</pdfrwt>
<pdfrwt beam="2">  1       -2 0.10505130E+00 0.74634086E+03</pdfrwt>
<totfact> 0.14857992E+01</totfact>
</mgrwt>
</event>
<event>
 5    0  0.2754780E-002  0.5338888E+03  0.7546771E-02  0.1005293E+00
         -2   -1    0    0    0  501 -0.00000000000E+00  0.00000000000E+00  0.64503713306E+02  0.64503713306E+02  0.00000000000E+00 0.  1.
          2   -1    0    0  502    0  0.00000000000E+00 -0.00000000000E+00 -0.15200157126E+04  0.15200157126E+04  0.00000000000E+00 0. -1.
         25    1    1    2    0    0  0.71649507429E+02 -0.24863618611E+03 -0.79137252682E+03  0.84193175564E+03  0.12500000000E+03 0.  0.
         21    1    1    2  502  503 -0.10153435454E+03  0.19617643218E+03 -0.29496466712E+03  0.36850857866E+03  0.00000000000E+00 0.  1.
         21    1    1    2  503  501  0.29884847107E+02  0.52459753928E+02 -0.36917480535E+03  0.37407909160E+03  0.00000000000E+00 0.  1.
<mgrwt>
<rscale>  4 0.53388885E+03</rscale>
<asrwt>0</asrwt>
<pdfrwt beam="1">  1        2 0.23384855E+00 0.53388885E+03</pdfrwt>
<pdfrwt beam="2">  1       -2 0.99236491E-02 0.53388885E+03</pdfrwt>
<totfact> 0.87959443E+02</totfact>
</mgrwt>
</event>
<event>
 5    0  0.2754780E-002  0.5467828E+03  0.7546771E-02  0.1002241E+00
         -1   -1    0    0    0  501 -0.00000000000E+00  0.00000000000E+00  0.24074460990E+04  0.24074460990E+04  0.00000000000E+00 0. -1.
          1   -1    0    0  503    0  0.00000000000E+00 -0.00000000000E+00 -0.14053890704E+03  0.14053890704E+03  0.00000000000E+00 0.  1.
         25    1    1    2    0    0 -0.23705532387E+03 -0.69272165822E+02  0.17321696289E+04  0.17541466537E+04  0.12500000000E+03 0.  0.
         21    1    1    2  502  501  0.26394866613E+02 -0.24446378941E+02 -0.10649790987E+03  0.11241049432E+03  0.00000000000E+00 0. -1.
         21    1    1    2  503  502  0.21066045726E+03  0.93718544762E+02  0.64123547293E+03  0.68142785797E+03  0.00000000000E+00 0.  1.
<mgrwt>
<rscale>  4 0.54678279E+03</rscale>
<asrwt>0</asrwt>
<pdfrwt beam="1">  1        1 0.21621372E-01 0.54678279E+03</pdfrwt>
<pdfrwt beam="2">  1       -1 0.37037629E+00 0.54678279E+03</pdfrwt>
<totfact> 0.29467381E+00</totfact>
</mgrwt>
</event>
<event>
 5    0  0.2754780E-002  0.5256802E+03  0.7546771E-02  0.1007285E+00
         -2   -1    0    0    0  501 -0.00000000000E+00  0.00000000000E+00  0.12199743763E+03  0.12199743763E+03  0.00000000000E+00 0. -1.
          2   -1    0    0  502    0  0.00000000000E+00 -0.00000000000E+00 -0.83692574501E+03  0.83692574501E+03  0.00000000000E+00 0.  1.
         25    1    1    2    0    0 -0.23666210833E+03  0.87479306805E+02 -0.18699272978E+03  0.33801311162E+03  0.12500000000E+03 0.  0.
         21    1    1    2  502  503  0.21260764276E+03 -0.10482102588E+03 -0.26196632344E+03  0.35329281318E+03  0.00000000000E+00 0.  1.
         21    1    1    2  503  501  0.24054465573E+02  0.17341719076E+02 -0.26596925416E+03  0.26761725784E+03  0.00000000000E+00 0.  1.
<mgrwt>
<rscale>  4 0.52568018E+03</rscale>
<asrwt>0</asrwt>
<pdfrwt beam="1">  1        2 0.12875781E+00 0.52568018E+03</pdfrwt>
<pdfrwt beam="2">  1       -2 0.18768837E-01 0.52568018E+03</pdfrwt>
<totfact> 0.78020124E+02</totfact>
</mgrwt>
</event>
<event>
 5    0  0.2754780E-002  0.6695806E+03  0.7546771E-02  0.9770716E-01
         -3   -1    0    0    0  501 -0.00000000000E+00  0.00000000000E+00  0.38897433427E+03  0.38897433427E+03  0.00000000000E+00 0. -1.
          3   -1    0    0  502    0  0.00000000000E+00 -0.00000000000E+00 -0.39747247059E+03  0.39747247059E+03  0.00000000000E+00 0.  1.
         25    1    1    2    0    0 -0.17550229224E+03 -0.26579888359E+03 -0.90380400286E+01  0.34228173668E+03  0.12500000000E+03 0.  0.
         21    1    1    2  502  503  0.19147980139E+03  0.25218951739E+03  0.10809050299E+03  0.33458574963E+03  0.00000000000E+00 0. -1.
         21    1    1    2  503  501 -0.15977509149E+02  0.13609366199E+02 -0.10755059928E+03  0.10957931855E+03  0.00000000000E+00 0. -1.
<mgrwt>
<rscale>  4 0.66958062E+03</rscale>
<asrwt>0</asrwt>
<pdfrwt beam="1">  1        3 0.61149611E-01 0.66958062E+03</pdfrwt>
<pdfrwt beam="2">  1       -3 0.59842205E-01 0.66958062E+03</pdfrwt>
<totfact> 0.18708640E+01</totfact>
</mgrwt>
</event>
<event>
 5    0  0.2754780E-002  0.8138131E+03  0.7546771E-02  0.9540236E-01
         -2   -1    0    0    0  501 -0.00000000000E+00  0.00000000000E+00  0.79864144127E+02  0.79864144127E+02  0.00000000000E+00 0. -1.
          2   -1    0    0  503    0  0.00000000000E+00 -0.00000000000E+00 -0.24097699663E+04  0.24097699663E+04  0.00000000000E+00 0.  1.
         25    1    1    2    0    0 -0.12966316722E+03  0.36069337260E+03 -0.11178453434E+04  0.11883246432E+04  0.12500000000E+03 0.  0.
         21    1    1    2  502  501 -0.10056260704E+02  0.20198594391E+02 -0.32602594920E+03  0.32680580035E+03  0.00000000000E+00 0. -1.
         21    1    1    2  503  502  0.13971942793E+03 -0.38089196700E+03 -0.88603452956E+03  0.97450366681E+03  0.00000000000E+00 0. -1.
<mgrwt>
<rscale>  4 0.81381309E+03</rscale>
<asrwt>0</asrwt>
<pdfrwt beam="1">  1        2 0.37073386E+00 0.81381309E+03</pdfrwt>
<pdfrwt beam="2">  1       -2 0.12286791E-01 0.81381309E+03</pdfrwt>
<totfact> 0.19758658E+02</totfact>
</mgrwt>
</event>
<event>
 5    0  0.2754780E-002  0.4608393E+03  0.7546771E-02  0.1024538E+00
          2   -1    0    0  502    0  0.00000000000E+00  0.00000000000E+00  0.71836523549E+03  0.71836523549E+03  0.00000000000E+00 0.  1.
         -2   -1    0    0    0  501 -0.00000000000E+00 -0.00000000000E+00 -0.95755302911E+02  0.95755302911E+02  0.00000000000E+00 0. -1.
         25    1    1    2    0    0 -0.22036823883E+03 -0.83351094761E+02  0.26704548409E+03  0.37742264936E+03  0.12500000000E+03 0.  0.
         21    1    1    2  502  503  0.18052436421E+03  0.70734960581E+02  0.21253157177E+03  0.28768411448E+03  0.00000000000E+00 0.  1.
         21    1    1    2  503  501  0.39843874617E+02  0.12616134180E+02  0.14303287672E+03  0.14901377456E+03  0.00000000000E+00 0. -1.
<mgrwt>
<rscale>  4 0.46083929E+03</rscale>
<asrwt>0</asrwt>
<pdfrwt beam="1">  1        2 0.11051772E+00 0.46083929E+03</pdfrwt>
<pdfrwt beam="2">  1       -2 0.14731586E-01 0.46083929E+03</pdfrwt>
<totfact> 0.14354979E+03</totfact>
</mgrwt>
</event>
<event>
 5    0  0.2754780E-002  0.4693682E+03  0.7546771E-02  0.1022099E+00
          2   -1    0    0  502    0  0.00000000000E+00  0.00000000000E+00  0.10868839826E+04  0.10868839826E+04  0.00000000000E+00 0.  1.
         -2   -1    0    0    0  501 -0.00000000000E+00 -0.00000000000E+00 -0.64443819047E+02  0.64443819047E+02  0.00000000000E+00 0. -1.
         25    1    1    2    0    0 -0.22285605092E+03 -0.93407163777E+00  0.58337612786E+03  0.63688177747E+03  0.12500000000E+03 0.  0.
         21    1    1    2  502  503  0.19437575304E+03  0.67139814217E+01  0.22075175569E+03  0.29420800219E+03  0.00000000000E+00 0.  1.
         21    1    1    2  503  501  0.28480297882E+02 -0.57799097839E+01  0.21831227998E+03  0.22023802195E+03  0.00000000000E+00 0. -1.
<mgrwt>
<rscale>  4 0.46936822E+03</rscale>
<asrwt>0</asrwt>
<pdfrwt beam="1">  1        2 0.16721291E+00 0.46936822E+03</pdfrwt>
<pdfrwt beam="2">  1       -2 0.99144345E-02 0.46936822E+03</pdfrwt>
<totfact> 0.15606468E+03</totfact>
</mgrwt>
</event>
<event>
 5    0  0.2754780E-002  0.7494549E+03  0.7546771E-02  0.9636206E-01
          2   -1    0    0  503    0  0.00000000000E+00  0.00000000000E+00  0.26412993766E+04  0.26412993766E+04  0.00000000000E+00 0. -1.
         -2   -1    0    0    0  501 -0.00000000000E+00 -0.00000000000E+00 -0.72503353317E+02  0.72503353317E+02  0.00000000000E+00 0.  1.
         25    1    1    2    0    0 -0.56471178054E+02 -0.30431074026E+03  0.41160147406E+03  0.52993848137E+03  0.12500000000E+03 0.  0.
         21    1    1    2  502  501 -0.21250309503E+02  0.42832058328E+02  0.68106271482E+03  0.68273902949E+03  0.00000000000E+00 0. -1.
         21    1    1    2  503  502  0.77721487557E+02  0.26147868194E+03  0.14761318344E+04  0.15011252191E+04  0.00000000000E+00 0. -1.
<mgrwt>
<rscale>  4 0.74945494E+03</rscale>
<asrwt>0</asrwt>
<pdfrwt beam="1">  1        2 0.40635368E+00 0.74945494E+03</pdfrwt>
<pdfrwt beam="2">  1       -2 0.11154364E-01 0.74945494E+03</pdfrwt>
<totfact> 0.17218961E+02</totfact>
</mgrwt>
</event>
<event>
 5    0  0.2754780E-002  0.1498262E+04  0.7546771E-02  0.8885609E-01
         -1   -1    0    0    0  501 -0.00000000000E+00  0.00000000000E+00  0.51898856597E+03  0.51898856597E+03  0.00000000000E+00 0. -1.
          1   -1    0    0  502    0  0.00000000000E+00 -0.00000000000E+00 -0.10813291954E+04  0.10813291954E+04  0.00000000000E+00 0.  1.
         25    1    1    2    0    0  0.24548376442E+03 -0.20624434170E+03  0.43113917421E+03  0.55163846368E+03  0.12500000000E+03 0.  0.
         21    1    1    2  502  503 -0.24101936850E+03  0.17191109831E+03 -0.82066393765E+03  0.87242940131E+03  0.00000000000E+00 0.  1.
         21    1    1    2  503  501 -0.44643959207E+01  0.34333243382E+02 -0.17281586601E+03  0.17624989639E+03  0.00000000000E+00 0. -1.
<mgrwt>
<rscale>  4 0.14982623E+04</rscale>
<asrwt>0</asrwt>
<pdfrwt beam="1">  1        1 0.16635834E+00 0.14982623E+04</pdfrwt>
<pdfrwt beam="2">  1       -1 0.79844395E-01 0.14982623E+04</pdfrwt>
<totfact> 0.19852671E+01</totfact>
</mgrwt>
</event>
<event>
 5    0  0.2754780E-002  0.6340006E+03  0.7546771E-02  0.9837273E-01
          1   -1    0    0  502    0  0.00000000000E+00  0.00000000000E+00  0.11463299414E+04  0.11463299414E+04  0.00000000000E+00 0.  1.
         -1   -1    0    0    0  501 -0.00000000000E+00 -0.00000000000E+00 -0.16497508206E+03  0.16497508206E+03  0.00000000000E+00 0. -1.
         25    1    1    2    0    0 -0.21887289359E+03 -0.30643683796E+02  0.44261445039E+03  0.51027142836E+03  0.12500000000E+03 0.  0.
         21    1    1    2  502  503  0.26286795333E+03  0.43337139830E+02  0.61591412449E+01  0.26648752991E+03  0.00000000000E+00 0. -1.
         21    1    1    2  503  501 -0.43995059738E+02 -0.12693456034E+02  0.53258126769E+03  0.53454606518E+03  0.00000000000E+00 0.  1.
<mgrwt>
<rscale>  4 0.63400059E+03</rscale>
<asrwt>0</asrwt>
<pdfrwt beam="1">  1        1 0.17635845E+00 0.63400059E+03</pdfrwt>
<pdfrwt beam="2">  1       -1 0.25380783E-01 0.63400059E+03</pdfrwt>
<totfact> 0.16376041E+02</totfact>
</mgrwt>
</event>
<event>
 5    0  0.2754780E-002  0.4800552E+03  0.7546771E-02  0.1019120E+00
         -2   -1    0    0    0  501 -0.00000000000E+00  0.00000000000E+00  0.49353403883E+02  0.49353403883E+02  0.00000000000E+00 0.  1.
          2   -1    0    0  503    0  0.00000000000E+00 -0.00000000000E+00 -0.21506311767E+04  0.21506311767E+04  0.00000000000E+00 0. -1.
         25    1    1    2    0    0 -0.45424289173E+02  0.19703242831E+03 -0.75628204658E+03  0.79276268696E+03  0.12500000000E+03 0.  0.
         21    1    1    2  502  501 -0.37948034224E+02  0.90488380461E+01 -0.97356539640E+03  0.97434671234E+03  0.00000000000E+00 0. -1.
         21    1    1    2  503  502  0.83372323397E+02 -0.20608126635E+03 -0.37143032980E+03  0.43287518125E+03  0.00000000000E+00 0.  1.
<mgrwt>
<rscale>  4 0.48005518E+03</rscale>
<asrwt>0</asrwt>
<pdfrwt beam="1">  1        2 0.33086645E+00 0.48005518E+03</pdfrwt>
<pdfrwt beam="2">  1       -2 0.75928286E-02 0.48005518E+03</pdfrwt>
<totfact> 0.61850735E+02</totfact>
</mgrwt>
</event>
<event>
 5    0  0.2754780E-002  0.6248450E+03  0.7546771E-02  0.9855160E-01
         -2   -1    0    0    0  501 -0.00000000000E+00  0.00000000000E+00  0.79959856103E+03  0.79959856103E+03  0.00000000000E+00 0. -1.
          2   -1    0    0  502    0  0.00000000000E+00 -0.00000000000E+00 -0.22135418078E+03  0.22135418078E+03  0.00000000000E+00 0.  1.
         25    1    1    2    0    0 -0.22714191117E+03 -0.11140843588E+03  0.13089606966E+03  0.31106923417E+03  0.12500000000E+03 0.  0.
         21    1    1    2  502  503  0.21812615663E+03  0.16836984277E+03  0.53683527071E+03  0.60342317824E+03  0.00000000000E+00 0. -1.
         21    1    1    2  503  501  0.90157545430E+01 -0.56961406893E+02 -0.89486960110E+02  0.10646032940E+03  0.00000000000E+00 0.  1.
<mgrwt>
<rscale>  4 0.62484496E+03</rscale>
<asrwt>0</asrwt>
<pdfrwt beam="1">  1        2 0.34054490E-01 0.62484496E+03</pdfrwt>
<pdfrwt beam="2">  1       -2 0.12301516E+00 0.62484496E+03</pdfrwt>
<totfact> 0.78204227E+01</totfact>
</mgrwt>
</event>
<event>
 5    0  0.2754780E-002  0.6209944E+03  0.7546771E-02  0.9862782E-01
          1   -1    0    0  502    0  0.00000000000E+00  0.00000000000E+00  0.76168956756E+03  0.76168956756E+03  0.00000000000E+00 0.  1.
         -1   -1    0    0    0  501 -0.00000000000E+00 -0.00000000000E+00 -0.15432941500E+03  0.15432941500E+03  0.00000000000E+00 0. -1.
         25    1    1    2    0    0  0.84189935279E+02 -0.22005101670E+03  0.43726661764E+03  0.51218892027E+03  0.12500000000E+03 0.  0.
         21    1    1    2  502  503 -0.10596261630E+03  0.24960836734E+03  0.46787670314E+02  0.27517539714E+03  0.00000000000E+00 0. -1.
         21    1    1    2  503  501  0.21772681018E+02 -0.29557350637E+02  0.12330586461E+03  0.12865466514E+03  0.00000000000E+00 0.  1.
<mgrwt>
<rscale>  4 0.62099438E+03</rscale>
<asrwt>0</asrwt>
<pdfrwt beam="1">  1        1 0.11718301E+00 0.62099438E+03</pdfrwt>
<pdfrwt beam="2">  1       -1 0.23742987E-01 0.62099438E+03</pdfrwt>
<totfact> 0.37095781E+02</totfact>
</mgrwt>
</event>
<event>
 5    0  0.2754780E-002  0.5784737E+03  0.7546771E-02  0.9951101E-01
          1   -1    0    0  502    0  0.00000000000E+00  0.00000000000E+00  0.84241199570E+02  0.84241199570E+02  0.00000000000E+00 0. -1.
         -1   -1    0    0    0  501 -0.00000000000E+00 -0.00000000000E+00 -0.13590781192E+04  0.13590781192E+04  0.00000000000E+00 0.  1.
         25    1    1    2    0    0  0.15564573225E+03  0.22930519269E+03 -0.87348905691E+03  0.92488626214E+03  0.12500000000E+03 0.  0.
         21    1    1    2  502  503 -0.14224797382E+03 -0.21313752371E+03 -0.41890425406E+03  0.49106299406E+03  0.00000000000E+00 0. -1.
         21    1    1    2  503  501 -0.13397758435E+02 -0.16167668979E+02  0.17556391304E+02  0.27370062603E+02  0.00000000000E+00 0. -1.
<mgrwt>
<rscale>  4 0.57847370E+03</rscale>
<asrwt>0</asrwt>
<pdfrwt beam="1">  1        1 0.12960185E-01 0.57847370E+03</pdfrwt>
<pdfrwt beam="2">  1       -1 0.20908893E+00 0.57847370E+03</pdfrwt>
<totfact> 0.63617060E+01</totfact>
</mgrwt>
</event>
<event>
 5    0  0.2754780E-002  0.6585068E+03  0.7546771E-02  0.9790946E-01
         -2   -1    0    0    0  501 -0.00000000000E+00  0.00000000000E+00  0.15573900268E+03  0.15573900268E+03  0.00000000000E+00 0. -1.
          2   -1    0    0  502    0  0.00000000000E+00 -0.00000000000E+00 -0.69608641424E+03  0.69608641424E+03  0.00000000000E+00 0.  1.
         25    1    1    2    0    0 -0.25383295889E+03 -0.10723074845E+03 -0.86490639474E+02  0.31469864179E+03  0.12500000000E+03 0.  0.
         21    1    1    2  502  503  0.20252895966E+03  0.11679363319E+03 -0.38938652943E+03  0.45418124307E+03  0.00000000000E+00 0.  1.
         21    1    1    2  503  501  0.51303999226E+02 -0.95628847453E+01 -0.64470242655E+02  0.82945532063E+02  0.00000000000E+00 0.  1.
<mgrwt>
<rscale>  4 0.65850681E+03</rscale>
<asrwt>0</asrwt>
<pdfrwt beam="1">  1        2 0.10709022E+00 0.65850681E+03</pdfrwt>
<pdfrwt beam="2">  1       -2 0.23959847E-01 0.65850681E+03</pdfrwt>
<totfact> 0.64234173E+02</totfact>
</mgrwt>
</event>
<event>
 5    0  0.2754780E-002  0.7329439E+03  0.7546771E-02  0.9662495E-01
         -2   -1    0    0    0  501 -0.00000000000E+00  0.00000000000E+00  0.40165109779E+03  0.40165109779E+03  0.00000000000E+00 0. -1.
          2   -1    0    0  503    0  0.00000000000E+00 -0.00000000000E+00 -0.41713897932E+03  0.41713897932E+03  0.00000000000E+00 0.  1.
         25    1    1    2    0    0 -0.97010575533E+02  0.27741340358E+03 -0.19101590048E+03  0.37213078680E+03  0.12500000000E+03 0.  0.
         21    1    1    2  502  501  0.78209335022E+02  0.19115939915E+02 -0.29406996634E+02  0.85714005241E+02  0.00000000000E+00 0. -1.
         21    1    1    2  503  502  0.18801240511E+02 -0.29652934349E+03  0.20493501559E+03  0.36094528506E+03  0.00000000000E+00 0. -1.
<mgrwt>
<rscale>  4 0.73294392E+03</rscale>
<asrwt>0</asrwt>
<pdfrwt beam="1">  1        2 0.64175227E-01 0.73294392E+03</pdfrwt>
<pdfrwt beam="2">  1       -2 0.61792477E-01 0.73294392E+03</pdfrwt>
<totfact> 0.18638558E+02</totfact>
</mgrwt>
</event>
<event>
 5    0  0.2754780E-002  0.5568101E+03  0.7546771E-02  0.9999298E-01
          2   -1    0    0  503    0  0.00000000000E+00  0.00000000000E+00  0.43285792232E+03  0.43285792232E+03  0.00000000000E+00 0.  1.
         -2   -1    0    0    0  501 -0.00000000000E+00 -0.00000000000E+00 -0.21859037254E+03  0.21859037254E+03  0.00000000000E+00 0. -1.
         25    1    1    2    0    0 -0.17821838620E+03  0.18357808751E+03 -0.91018633852E+01  0.28490445997E+03  0.12500000000E+03 0.  0.
         21    1    1    2  502  501 -0.11962180609E+02 -0.26442714094E+02  0.70703189399E+02  0.76428083089E+02  0.00000000000E+00 0.  1.
         21    1    1    2  503  502  0.19018056681E+03 -0.15713537341E+03  0.15266622376E+03  0.29011575181E+03  0.00000000000E+00 0.  1.
<mgrwt>
<rscale>  4 0.55681013E+03</rscale>
<asrwt>0</asrwt>
<pdfrwt beam="1">  1        2 0.66593526E-01 0.55681013E+03</pdfrwt>
<pdfrwt beam="2">  1       -2 0.33629288E-01 0.55681013E+03</pdfrwt>
<totfact> 0.60559116E+02</totfact>
</mgrwt>
</event>
<event>
 5    0  0.2754780E-002  0.5175997E+03  0.7546771E-02  0.1009285E+00
          2   -1    0    0  502    0  0.00000000000E+00  0.00000000000E+00  0.18823824474E+04  0.18823824474E+04  0.00000000000E+00 0. -1.
         -2   -1    0    0    0  501 -0.00000000000E+00 -0.00000000000E+00 -0.45554042846E+02  0.45554042846E+02  0.00000000000E+00 0.  1.
         25    1    1    2    0    0 -0.22500797472E+03  0.84970275740E+02  0.54828065435E+03  0.61162505866E+03  0.12500000000E+03 0.  0.
         21    1    1    2  502  503  0.16546952485E+03 -0.11410546303E+03  0.10278871493E+04  0.10473548644E+04  0.00000000000E+00 0. -1.
         21    1    1    2  503  501  0.59538449874E+02  0.29135187290E+02  0.26066060090E+03  0.26895656715E+03  0.00000000000E+00 0. -1.
<mgrwt>
<rscale>  4 0.51759969E+03</rscale>
<asrwt>0</asrwt>
<pdfrwt beam="1">  1        2 0.28959724E+00 0.51759969E+03</pdfrwt>
<pdfrwt beam="2">  1       -2 0.70083158E-02 0.51759969E+03</pdfrwt>
<totfact> 0.97617681E+02</totfact>
</mgrwt>
</event>
<event>
 5    0  0.2754780E-002  0.7139332E+03  0.7546771E-02  0.9693697E-01
          1   -1    0    0  503    0  0.00000000000E+00  0.00000000000E+00  0.34686012891E+03  0.34686012891E+03  0.00000000000E+00 0.  1.
         -1   -1    0    0    0  501 -0.00000000000E+00 -0.00000000000E+00 -0.36736751909E+03  0.36736751909E+03  0.00000000000E+00 0. -1.
         25    1    1    2    0    0  0.53467379816E+01 -0.34039150176E+03 -0.22930549954E+01  0.36266405967E+03  0.12500000000E+03 0.  0.
         21    1    1    2  502  501 -0.11733583664E+02  0.24834975784E+02  0.19516882146E+02  0.33695128676E+02  0.00000000000E+00 0. -1.
         21    1    1    2  503  502  0.63868456822E+01  0.31555652597E+03 -0.37731217328E+02  0.31786845965E+03  0.00000000000E+00 0. -1.
<mgrwt>
<rscale>  4 0.71393318E+03</rscale>
<asrwt>0</asrwt>
<pdfrwt beam="1">  1        1 0.53363097E-01 0.71393318E+03</pdfrwt>
<pdfrwt beam="2">  1       -1 0.56518080E-01 0.71393318E+03</pdfrwt>
<totfact> 0.23282708E+02</totfact>
</mgrwt>
</event>
<event>
 5    0  0.2754780E-002  0.3994397E+03  0.7546771E-02  0.1043974E+00
         -2   -1    0    0    0  501 -0.00000000000E+00  0.00000000000E+00  0.94783214835E+02  0.94783214835E+02  0.00000000000E+00 0.  1.
          2   -1    0    0  503    0  0.00000000000E+00 -0.00000000000E+00 -0.74103981862E+03  0.74103981862E+03  0.00000000000E+00 0. -1.
         25    1    1    2    0    0 -0.26787955886E+02 -0.20045535508E+03 -0.19688974118E+03  0.30869161657E+03  0.12500000000E+03 0.  0.
         21    1    1    2  502  501  0.34054183336E+02  0.38985301051E+02 -0.30824223013E+03  0.31255849618E+03  0.00000000000E+00 0. -1.
         21    1    1    2  503  502 -0.72662274497E+01  0.16147005402E+03 -0.14112463249E+03  0.21457292071E+03  0.00000000000E+00 0. -1.
<mgrwt>
<rscale>  4 0.39943968E+03</rscale>
<asrwt>0</asrwt>
<pdfrwt beam="1">  1        2 0.11400612E+00 0.39943968E+03</pdfrwt>
<pdfrwt beam="2">  1       -2 0.14582034E-01 0.39943968E+03</pdfrwt>
<totfact> 0.14042283E+03</totfact>
</mgrwt>
</event>
<event>
 5    0  0.2754780E-002  0.5880267E+03  0.7546771E-02  0.9930563E-01
          1   -1    0    0  503    0  0.00000000000E+00  0.00000000000E+00  0.14647914471E+04  0.14647914471E+04  0.00000000000E+00 0.  1.
         -1   -1    0    0    0  501 -0.00000000000E+00 -0.00000000000E+00 -0.79577781859E+02  0.79577781859E+02  0.00000000000E+00 0. -1.
         25    1    1    2    0    0 -0.16966178417E+03 -0.24888345816E+03  0.63078023954E+03  0.71009633666E+03  0.12500000000E+03 0.  0.
         21    1    1    2  502  501  0.49436527998E+02  0.18953006092E+02  0.34851534726E+03  0.35251401960E+03  0.00000000000E+00 0. -1.
         21    1    1    2  503  502  0.12022525617E+03  0.22993045207E+03  0.40591807845E+03  0.48175887270E+03  0.00000000000E+00 0.  1.
<mgrwt>
<rscale>  4 0.58802673E+03</rscale>
<asrwt>0</asrwt>
<pdfrwt beam="1">  1        1 0.22535251E+00 0.58802673E+03</pdfrwt>
<pdfrwt beam="2">  1       -1 0.12242737E-01 0.58802673E+03</pdfrwt>
<totfact> 0.32528982E+02</totfact>
</mgrwt>
</event>
<event>
 5    0  0.2754780E-002  0.5729299E+03  0.7546771E-02  0.9963216E-01
          3   -1    0    0  502    0  0.00000000000E+00  0.00000000000E+00  0.92179709981E+03  0.92179709981E+03  0.00000000000E+00 0. -1.
         -3   -1    0    0    0  501 -0.00000000000E+00 -0.00000000000E+00 -0.98753947670E+02  0.98753947670E+02  0.00000000000E+00 0.  1.
         25    1    1    2    0    0 -0.12317716617E+03  0.16737568574E+03  0.69928759548E+03  0.74014550977E+03  0.12500000000E+03 0.  0.
         21    1    1    2  502  503  0.13209254548E+03 -0.14593558640E+03  0.50012657579E+02  0.20309333290E+03  0.00000000000E+00 0.  1.
         21    1    1    2  503  501 -0.89153793120E+01 -0.21440099339E+02  0.73742899073E+02  0.77312204804E+02  0.00000000000E+00 0. -1.
<mgrwt>
<rscale>  4 0.57292988E+03</rscale>
<asrwt>0</asrwt>
<pdfrwt beam="1">  1        3 0.14181493E+00 0.57292988E+03</pdfrwt>
<pdfrwt beam="2">  1       -3 0.15192916E-01 0.57292988E+03</pdfrwt>
<totfact> 0.36883488E+01</totfact>
</mgrwt>
</event>
<event>
 5    0  0.2754780E-002  0.5201720E+03  0.7546771E-02  0.1008644E+00
          2   -1    0    0  502    0  0.00000000000E+00  0.00000000000E+00  0.51773483013E+03  0.51773483013E+03  0.00000000000E+00 0.  1.
         -2   -1    0    0    0  501 -0.00000000000E+00 -0.00000000000E+00 -0.13065515533E+03  0.13065515533E+03  0.00000000000E+00 0. -1.
         25    1    1    2    0    0  0.88091919601E+02  0.22068738621E+03  0.22983383075E+03  0.35342849133E+03  0.12500000000E+03 0.  0.
         21    1    1    2  502  503 -0.61867793141E+02 -0.21357183334E+03  0.14146087204E+03  0.26353696163E+03  0.00000000000E+00 0. -1.
         21    1    1    2  503  501 -0.26224126459E+02 -0.71155528712E+01  0.15784972016E+02  0.31424532499E+02  0.00000000000E+00 0.  1.
<mgrwt>
<rscale>  4 0.52017199E+03</rscale>
<asrwt>0</asrwt>
<pdfrwt beam="1">  1        2 0.79651511E-01 0.52017199E+03</pdfrwt>
<pdfrwt beam="2">  1       -2 0.20100793E-01 0.52017199E+03</pdfrwt>
<totfact> 0.12516381E+03</totfact>
</mgrwt>
</event>
<event>
 5    0  0.2754780E-002  0.5291147E+03  0.7546771E-02  0.1006447E+00
          1   -1    0    0  502    0  0.00000000000E+00  0.00000000000E+00  0.28850381287E+03  0.28850381287E+03  0.00000000000E+00 0. -1.
         -1   -1    0    0    0  501 -0.00000000000E+00 -0.00000000000E+00 -0.24259852224E+03  0.24259852224E+03  0.00000000000E+00 0.  1.
         25    1    1    2    0    0  0.22023784233E+03 -0.10122552608E+03 -0.13979314875E+02  0.27307825906E+03  0.12500000000E+03 0.  0.
         21    1    1    2  502  503 -0.19337006669E+03  0.97173311422E+02  0.31436200364E+02  0.21868440694E+03  0.00000000000E+00 0.  1.
         21    1    1    2  503  501 -0.26867775642E+02  0.40522146596E+01  0.28448405141E+02  0.39339669122E+02  0.00000000000E+00 0.  1.
<mgrwt>
<rscale>  4 0.52911473E+03</rscale>
<asrwt>0</asrwt>
<pdfrwt beam="1">  1        1 0.44385202E-01 0.52911473E+03</pdfrwt>
<pdfrwt beam="2">  1       -1 0.37322850E-01 0.52911473E+03</pdfrwt>
<totfact> 0.64300121E+02</totfact>
</mgrwt>
</event>
<event>
 5    0  0.2754780E-002  0.4295932E+03  0.7546771E-02  0.1033989E+00
          3   -1    0    0  503    0  0.00000000000E+00  0.00000000000E+00  0.12699825360E+03  0.12699825360E+03  0.00000000000E+00 0. -1.
         -3   -1    0    0    0  501 -0.00000000000E+00 -0.00000000000E+00 -0.60853311193E+03  0.60853311193E+03  0.00000000000E+00 0.  1.
         25    1    1    2    0    0 -0.21462775922E+02  0.20397501531E+03 -0.22592663477E+03  0.32974884673E+03  0.12500000000E+03 0.  0.
         21    1    1    2  502  501 -0.12664793244E+02 -0.28515378620E+02  0.45764078511E+02  0.55388398494E+02  0.00000000000E+00 0.  1.
         21    1    1    2  503  502  0.34127569167E+02 -0.17545963669E+03 -0.30137230206E+03  0.35039412029E+03  0.00000000000E+00 0. -1.
<mgrwt>
<rscale>  4 0.42959316E+03</rscale>
<asrwt>0</asrwt>
<pdfrwt beam="1">  1        3 0.19538192E-01 0.42959316E+03</pdfrwt>
<pdfrwt beam="2">  1       -3 0.93620481E-01 0.42959316E+03</pdfrwt>
<totfact> 0.63113799E+01</totfact>
</mgrwt>
</event>
<event>
 5    0  0.2754780E-002  0.5618185E+03  0.7546771E-02  0.9987948E-01
         -2   -1    0    0    0  501 -0.00000000000E+00  0.00000000000E+00  0.73706445393E+02  0.73706445393E+02  0.00000000000E+00 0.  1.
          2   -1    0    0  503    0  0.00000000000E+00 -0.00000000000E+00 -0.12141534892E+04  0.12141534892E+04  0.00000000000E+00 0. -1.
         25    1    1    2    0    0 -0.17899029183E+03 -0.10956037619E+03 -0.90940109523E+03  0.94163493595E+03  0.12500000000E+03 0.  0.
         21    1    1    2  502  501  0.79644879488E+01  0.23204527463E+02 -0.12471540239E+03  0.12710552606E+03  0.00000000000E+00 0.  1.
         21    1    1    2  503  502  0.17102580388E+03  0.86355848726E+02 -0.10633054616E+03  0.21911947255E+03  0.00000000000E+00 0.  1.
<mgrwt>
<rscale>  4 0.56181850E+03</rscale>
<asrwt>0</asrwt>
<pdfrwt beam="1">  1        2 0.18679284E+00 0.56181850E+03</pdfrwt>
<pdfrwt beam="2">  1       -2 0.11339453E-01 0.56181850E+03</pdfrwt>
<totfact> 0.10517582E+03</totfact>
</mgrwt>
</event>
<event>
 5    0  0.2754780E-002  0.6269797E+03  0.7546771E-02  0.9850961E-01
          1   -1    0    0  502    0  0.00000000000E+00  0.00000000000E+00  0.80358029095E+03  0.80358029095E+03  0.00000000000E+00 0. -1.
         -1   -1    0    0    0  501 -0.00000000000E+00 -0.00000000000E+00 -0.14965317435E+03  0.14965317435E+03  0.00000000000E+00 0.  1.
         25    1    1    2    0    0  0.27570885208E+03  0.10224860656E+03  0.35574687967E+03  0.47817464493E+03  0.12500000000E+03 0.  0.
         21    1    1    2  502  503 -0.25499886941E+03 -0.15212249443E+03  0.18550590432E+03  0.35011157829E+03  0.00000000000E+00 0. -1.
         21    1    1    2  503  501 -0.20709982674E+02  0.49873887869E+02  0.11267433261E+03  0.12494724208E+03  0.00000000000E+00 0. -1.
<mgrwt>
<rscale>  4 0.62697966E+03</rscale>
<asrwt>0</asrwt>
<pdfrwt beam="1">  1        1 0.12362773E+00 0.62697966E+03</pdfrwt>
<pdfrwt beam="2">  1       -1 0.23023566E-01 0.62697966E+03</pdfrwt>
<totfact> 0.35907719E+02</totfact>
</mgrwt>
</event>
<event>
 5    0  0.2754780E-002  0.6348261E+03  0.7546771E-02  0.9835676E-01
         -2   -1    0    0    0  501 -0.00000000000E+00  0.00000000000E+00  0.14221072393E+03  0.14221072393E+03  0.00000000000E+00 0. -1.
          2   -1    0    0  503    0  0.00000000000E+00 -0.00000000000E+00 -0.17996761469E+04  0.17996761469E+04  0.00000000000E+00 0.  1.
         25    1    1    2    0    0 -0.21046811447E+03 -0.45289740938E+02 -0.45783318618E+03  0.52113742354E+03  0.12500000000E+03 0.  0.
         21    1    1    2  502  501  0.21202021143E+03  0.30853836765E+03 -0.10570049762E+04  0.11213420594E+04  0.00000000000E+00 0.  1.
         21    1    1    2  503  502 -0.15520969640E+01 -0.26324862672E+03 -0.14262726055E+03  0.29940738789E+03  0.00000000000E+00 0. -1.
<mgrwt>
<rscale>  4 0.63482611E+03</rscale>
<asrwt>0</asrwt>
<pdfrwt beam="1">  1        2 0.27687325E+00 0.63482611E+03</pdfrwt>
<pdfrwt beam="2">  1       -2 0.21878573E-01 0.63482611E+03</pdfrwt>
<totfact> 0.16220823E+02</totfact>
</mgrwt>
</event>
<event>
 5    0  0.2754780E-002  0.5291257E+03  0.7546771E-02  0.1006444E+00
          2   -1    0    0  503    0  0.00000000000E+00  0.00000000000E+00  0.19186077685E+04  0.19186077685E+04  0.00000000000E+00 0. -1.
         -2   -1    0    0    0  501 -0.00000000000E+00 -0.00000000000E+00 -0.62286002126E+02  0.62286002126E+02  0.00000000000E+00 0.  1.
         25    1    1    2    0    0 -0.75094315551E+02 -0.21327856989E+03  0.29369616262E+03  0.39116408391E+03  0.12500000000E+03 0.  0.
         21    1    1    2  502  501 -0.91373318682E+01  0.26990458458E+02  0.78995344301E+03  0.79046721489E+03  0.00000000000E+00 0.  1.
         21    1    1    2  503  502  0.84231647419E+02  0.18628811144E+03  0.77267216070E+03  0.79926247179E+03  0.00000000000E+00 0. -1.
<mgrwt>
<rscale>  4 0.52912568E+03</rscale>
<asrwt>0</asrwt>
<pdfrwt beam="1">  1        2 0.29517038E+00 0.52912568E+03</pdfrwt>
<pdfrwt beam="2">  1       -2 0.95824634E-02 0.52912568E+03</pdfrwt>
<totfact> 0.56639991E+02</totfact>
</mgrwt>
</event>
<event>
 5    0  0.2754780E-002  0.5299681E+03  0.7546771E-02  0.1006240E+00
         -2   -1    0    0    0  501 -0.00000000000E+00  0.00000000000E+00  0.24543355795E+03  0.24543355795E+03  0.00000000000E+00 0.  1.
          2   -1    0    0  503    0  0.00000000000E+00 -0.00000000000E+00 -0.36552917964E+03  0.36552917964E+03  0.00000000000E+00 0. -1.
         25    1    1    2    0    0  0.12145484181E+02 -0.21905810492E+03 -0.11284966814E+03  0.27657551178E+03  0.12500000000E+03 0.  0.
         21    1    1    2  502  501  0.35673709144E+02 -0.26215382950E+02 -0.64299039898E+02  0.78065526061E+02  0.00000000000E+00 0.  1.
         21    1    1    2  503  502 -0.47819193324E+02  0.24527348787E+03  0.57053086346E+02  0.25632169975E+03  0.00000000000E+00 0.  1.
<mgrwt>
<rscale>  4 0.52996809E+03</rscale>
<asrwt>0</asrwt>
<pdfrwt beam="1">  1        2 0.56235258E-01 0.52996809E+03</pdfrwt>
<pdfrwt beam="2">  1       -2 0.37759009E-01 0.52996809E+03</pdfrwt>
<totfact> 0.58715247E+02</totfact>
</mgrwt>
</event>
<event>
 5    0  0.2754780E-002  0.4615887E+03  0.7546771E-02  0.1024321E+00
          1   -1    0    0  502    0  0.00000000000E+00  0.00000000000E+00  0.97093419188E+03  0.97093419188E+03  0.00000000000E+00 0.  1.
         -1   -1    0    0    0  501 -0.00000000000E+00 -0.00000000000E+00 -0.14498874595E+03  0.14498874595E+03  0.00000000000E+00 0. -1.
         25    1    1    2    0    0 -0.84685674329E+02 -0.18249545927E+03  0.12306020956E+03  0.26691772378E+03  0.12500000000E+03 0.  0.
         21    1    1    2  502  503  0.82112878148E+02  0.20892972004E+03  0.10036681367E+03  0.24590170792E+03  0.00000000000E+00 0. -1.
         21    1    1    2  503  501  0.25727961802E+01 -0.26434260770E+02  0.60251842270E+03  0.60310350614E+03  0.00000000000E+00 0.  1.
<mgrwt>
<rscale>  4 0.46158871E+03</rscale>
<asrwt>0</asrwt>
<pdfrwt beam="1">  1        1 0.14937449E+00 0.46158871E+03</pdfrwt>
<pdfrwt beam="2">  1       -1 0.22305962E-01 0.46158871E+03</pdfrwt>
<totfact> 0.27980843E+02</totfact>
</mgrwt>
</event>
<event>
 5    0  0.2754780E-002  0.4338480E+03  0.7546771E-02  0.1032651E+00
          2   -1    0    0  503    0  0.00000000000E+00  0.00000000000E+00  0.20058812707E+04  0.20058812707E+04  0.00000000000E+00 0.  1.
         -2   -1    0    0    0  501 -0.00000000000E+00 -0.00000000000E+00 -0.12282513680E+03  0.12282513680E+03  0.00000000000E+00 0. -1.
         25    1    1    2    0    0 -0.21516767338E+03 -0.22669697245E+02  0.72382130464E+02  0.26014460527E+03  0.12500000000E+03 0.  0.
         21    1    1    2  502  501  0.73620676027E+02 -0.44271171591E+02  0.16180403622E+04  0.16203192754E+04  0.00000000000E+00 0.  1.
         21    1    1    2  503  502  0.14154699735E+03  0.66940868836E+02  0.19263364122E+03  0.24824252679E+03  0.00000000000E+00 0.  1.
<mgrwt>
<rscale>  4 0.43384803E+03</rscale>
<asrwt>0</asrwt>
<pdfrwt beam="1">  1        2 0.30859709E+00 0.43384803E+03</pdfrwt>
<pdfrwt beam="2">  1       -2 0.18896176E-01 0.43384803E+03</pdfrwt>
<totfact> 0.16645554E+02</totfact>
</mgrwt>
</event>
<event>
 5    0  0.2754780E-002  0.4841841E+03  0.7546771E-02  0.1017992E+00
         -2   -1    0    0    0  501 -0.00000000000E+00  0.00000000000E+00  0.11288873872E+03  0.11288873872E+03  0.00000000000E+00 0. -1.
          2   -1    0    0  502    0  0.00000000000E+00 -0.00000000000E+00 -0.60024901846E+03  0.60024901846E+03  0.00000000000E+00 0.  1.
         25    1    1    2    0    0  0.25984594741E+01  0.20419446064E+03 -0.31828505152E+03  0.39828696159E+03  0.12500000000E+03 0.  0.
         21    1    1    2  502  503  0.25813516803E+02 -0.22272732967E+03 -0.11755536492E+03  0.25316608157E+03  0.00000000000E+00 0. -1.
         21    1    1    2  503  501 -0.28411976277E+02  0.18532869035E+02 -0.51519863291E+02  0.61684714024E+02  0.00000000000E+00 0. -1.
<mgrwt>
<rscale>  4 0.48418405E+03</rscale>
<asrwt>0</asrwt>
<pdfrwt beam="1">  1        2 0.92346000E-01 0.48418405E+03</pdfrwt>
<pdfrwt beam="2">  1       -2 0.17367499E-01 0.48418405E+03</pdfrwt>
<totfact> 0.13535508E+03</totfact>
</mgrwt>
</event>
<event>
 5    0  0.2754780E-002  0.6914638E+03  0.7546771E-02  0.9731943E-01
         -2   -1    0    0    0  501 -0.00000000000E+00  0.00000000000E+00  0.10439477309E+03  0.10439477309E+03  0.00000000000E+00 0. -1.
          2   -1    0    0  502    0  0.00000000000E+00 -0.00000000000E+00 -0.15073699782E+04  0.15073699782E+04  0.00000000000E+00 0.  1.
         25    1    1    2    0    0 -0.89178435906E+02 -0.26190097266E+03 -0.85842622428E+03  0.91053033746E+03  0.12500000000E+03 0.  0.
         21    1    1    2  502  503  0.15522541526E+02  0.33225200277E+03 -0.35784564379E+03  0.48855485610E+03  0.00000000000E+00 0. -1.
         21    1    1    2  503  501  0.73655894381E+02 -0.70351030103E+02 -0.18670333700E+03  0.21267955770E+03  0.00000000000E+00 0.  1.
<mgrwt>
<rscale>  4 0.69146375E+03</rscale>
<asrwt>0</asrwt>
<pdfrwt beam="1">  1        2 0.23190308E+00 0.69146375E+03</pdfrwt>
<pdfrwt beam="2">  1       -2 0.16060734E-01 0.69146375E+03</pdfrwt>
<totfact> 0.39863830E+02</totfact>
</mgrwt>
</event>
<event>
 5    0  0.2754780E-002  0.4633233E+03  0.7546771E-02  0.1023822E+00
          2   -1    0    0  503    0  0.00000000000E+00  0.00000000000E+00  0.37670712983E+03  0.37670712983E+03  0.00000000000E+00 0.  1.
         -2   -1    0    0    0  501 -0.00000000000E+00 -0.00000000000E+00 -0.16812308826E+03  0.16812308826E+03  0.00000000000E+00 0. -1.
         25    1    1    2    0    0  0.20311609794E+03 -0.43337607125E+02  0.15297562186E+03  0.28663711957E+03  0.12500000000E+03 0.  0.
         21    1    1    2  502  501 -0.20709424202E+01  0.20007313833E+02  0.52013083343E+02  0.55766856179E+02  0.00000000000E+00 0.  1.
         21    1    1    2  503  502 -0.20104515552E+03  0.23330293293E+02  0.35953363631E+01  0.20242624234E+03  0.00000000000E+00 0.  1.
<mgrwt>
<rscale>  4 0.46332333E+03</rscale>
<asrwt>0</asrwt>
<pdfrwt beam="1">  1        2 0.57954943E-01 0.46332333E+03</pdfrwt>
<pdfrwt beam="2">  1       -2 0.25865091E-01 0.46332333E+03</pdfrwt>
<totfact> 0.11465060E+03</totfact>
</mgrwt>
</event>
<event>
 5    0  0.2754780E-002  0.6539454E+03  0.7546771E-02  0.9799404E-01
         -1   -1    0    0    0  501 -0.00000000000E+00  0.00000000000E+00  0.37274199934E+04  0.37274199934E+04  0.00000000000E+00 0. -1.
          1   -1    0    0  503    0  0.00000000000E+00 -0.00000000000E+00 -0.45302370219E+02  0.45302370219E+02  0.00000000000E+00 0.  1.
         25    1    1    2    0    0 -0.31109585860E+03  0.58400099166E+02  0.16878383263E+04  0.17218055699E+04  0.12500000000E+03 0.  0.
         21    1    1    2  502  501  0.14678691016E+02  0.25147260663E+02 -0.36910609526E+01  0.29350853817E+02  0.00000000000E+00 0.  1.
         21    1    1    2  503  502  0.29641716759E+03 -0.83547359829E+02  0.19979703579E+04  0.20215659399E+04  0.00000000000E+00 0. -1.
<mgrwt>
<rscale>  4 0.65394541E+03</rscale>
<asrwt>0</asrwt>
<pdfrwt beam="1">  1        1 0.69695984E-02 0.65394541E+03</pdfrwt>
<pdfrwt beam="2">  1       -1 0.57344899E+00 0.65394541E+03</pdfrwt>
<totfact> 0.66070024E-01</totfact>
</mgrwt>
</event>
<event>
 5    0  0.2754780E-002  0.7190077E+03  0.7546771E-02  0.9685267E-01
          2   -1    0    0  503    0  0.00000000000E+00  0.00000000000E+00  0.85171001430E+02  0.85171001430E+02  0.00000000000E+00 0. -1.
         -2   -1    0    0    0  501 -0.00000000000E+00 -0.00000000000E+00 -0.21316637744E+04  0.21316637744E+04  0.00000000000E+00 0.  1.
         25    1    1    2    0    0  0.27471855506E+03  0.28494282725E+02 -0.42335977341E+03  0.52071173060E+03  0.12500000000E+03 0.  0.
         21    1    1    2  502  501  0.89361397364E+01 -0.26178576210E+02  0.16449435823E+02  0.32183169276E+02  0.00000000000E+00 0. -1.
         21    1    1    2  503  502 -0.28365469480E+03 -0.23157065156E+01 -0.16395824354E+04  0.16639398760E+04  0.00000000000E+00 0. -1.
<mgrwt>
<rscale>  4 0.71900771E+03</rscale>
<asrwt>0</asrwt>
<pdfrwt beam="1">  1        2 0.13103231E-01 0.71900771E+03</pdfrwt>
<pdfrwt beam="2">  1       -2 0.32794827E+00 0.71900771E+03</pdfrwt>
<totfact> 0.10632489E+01</totfact>
</mgrwt>
</event>
<event>
 5    0  0.2754780E-002  0.5332362E+03  0.7546771E-02  0.1005450E+00
          4   -1    0    0  502    0  0.00000000000E+00  0.00000000000E+00  0.16155499806E+03  0.16155499806E+03  0.00000000000E+00 0. -1.
         -4   -1    0    0    0  501 -0.00000000000E+00 -0.00000000000E+00 -0.58826080530E+03  0.58826080530E+03  0.00000000000E+00 0.  1.
         25    1    1    2    0    0  0.26703105723E+02 -0.22019347337E+03 -0.28459978484E+03  0.38186418935E+03  0.12500000000E+03 0.  0.
         21    1    1    2  502  503 -0.72071248932E+02 -0.14941028668E+02 -0.10100617053E+03  0.12497898121E+03  0.00000000000E+00 0. -1.
         21    1    1    2  503  501  0.45368143209E+02  0.23513450204E+03 -0.41099851859E+02  0.24297263280E+03  0.00000000000E+00 0. -1.
<mgrwt>
<rscale>  4 0.53323616E+03</rscale>
<asrwt>0</asrwt>
<pdfrwt beam="1">  1        4 0.24854615E-01 0.53323616E+03</pdfrwt>
<pdfrwt beam="2">  1       -4 0.90501661E-01 0.53323616E+03</pdfrwt>
<totfact> 0.31508042E+01</totfact>
</mgrwt>
</event>
<event>
 5    0  0.2754780E-002  0.4861192E+03  0.7546771E-02  0.1017467E+00
         -4   -1    0    0    0  501 -0.00000000000E+00  0.00000000000E+00  0.38267856124E+03  0.38267856124E+03  0.00000000000E+00 0. -1.
          4   -1    0    0  502    0  0.00000000000E+00 -0.00000000000E+00 -0.24307586221E+03  0.24307586221E+03  0.00000000000E+00 0.  1.
         25    1    1    2    0    0  0.14174707572E+03  0.15959006841E+03  0.57253550236E+02  0.25389799610E+03  0.12500000000E+03 0.  0.
         21    1    1    2  502  503 -0.18725540515E+03 -0.13049188384E+03  0.15894510908E+03  0.27812994482E+03  0.00000000000E+00 0.  1.
         21    1    1    2  503  501  0.45508329426E+02 -0.29098184565E+02 -0.76595960292E+02  0.93726482518E+02  0.00000000000E+00 0. -1.
<mgrwt>
<rscale>  4 0.48611919E+03</rscale>
<asrwt>0</asrwt>
<pdfrwt beam="1">  1        4 0.37396287E-01 0.48611919E+03</pdfrwt>
<pdfrwt beam="2">  1       -4 0.58873625E-01 0.48611919E+03</pdfrwt>
<totfact> 0.36989279E+01</totfact>
</mgrwt>
</event>
<event>
 5    0  0.2754780E-002  0.6929522E+03  0.7546771E-02  0.9729361E-01
         -1   -1    0    0    0  501 -0.00000000000E+00  0.00000000000E+00  0.76763238141E+03  0.76763238141E+03  0.00000000000E+00 0. -1.
          1   -1    0    0  503    0  0.00000000000E+00 -0.00000000000E+00 -0.17133627043E+03  0.17133627043E+03  0.00000000000E+00 0.  1.
         25    1    1    2    0    0 -0.93305623930E+02  0.32895942420E+03  0.35469153789E+03  0.50828272573E+03  0.12500000000E+03 0.  0.
         21    1    1    2  502  501  0.19423706261E+02 -0.11020914155E+02 -0.33538229882E+01  0.22582936974E+02  0.00000000000E+00 0.  1.
         21    1    1    2  503  502  0.73881917668E+02 -0.31793851004E+03  0.24495839609E+03  0.40810298913E+03  0.00000000000E+00 0.  1.
<mgrwt>
<rscale>  4 0.69295219E+03</rscale>
<asrwt>0</asrwt>
<pdfrwt beam="1">  1        1 0.26359427E-01 0.69295219E+03</pdfrwt>
<pdfrwt beam="2">  1       -1 0.11809729E+00 0.69295219E+03</pdfrwt>
<totfact> 0.11935707E+02</totfact>
</mgrwt>
</event>
<event>
 5    0  0.2754780E-002  0.1149094E+04  0.7546771E-02  0.9158619E-01
         -2   -1    0    0    0  501 -0.00000000000E+00  0.00000000000E+00  0.54252458814E+03  0.54252458814E+03  0.00000000000E+00 0.  1.
          2   -1    0    0  503    0  0.00000000000E+00 -0.00000000000E+00 -0.67829290763E+03  0.67829290763E+03  0.00000000000E+00 0. -1.
         25    1    1    2    0    0  0.52358278230E+03  0.14498739866E+01 -0.21135235483E+03  0.57830428837E+03  0.12500000000E+03 0.  0.
         21    1    1    2  502  501  0.33918009471E+02  0.18151496962E+02 -0.57340730732E+02  0.69049747352E+02  0.00000000000E+00 0.  1.
         21    1    1    2  503  502 -0.55750079177E+03 -0.19601370948E+02  0.13292476607E+03  0.57346346004E+03  0.00000000000E+00 0. -1.
<mgrwt>
<rscale>  4 0.11490945E+04</rscale>
<asrwt>0</asrwt>
<pdfrwt beam="1">  1        2 0.10435275E+00 0.11490945E+04</pdfrwt>
<pdfrwt beam="2">  1       -2 0.83465322E-01 0.11490945E+04</pdfrwt>
<totfact> 0.52973604E+01</totfact>
</mgrwt>
</event>
<event>
 5    0  0.2754780E-002  0.5060707E+03  0.7546771E-02  0.1012206E+00
         -2   -1    0    0    0  501 -0.00000000000E+00  0.00000000000E+00  0.31536537020E+02  0.31536537020E+02  0.00000000000E+00 0. -1.
          2   -1    0    0  503    0  0.00000000000E+00 -0.00000000000E+00 -0.25130270647E+04  0.25130270647E+04  0.00000000000E+00 0.  1.
         25    1    1    2    0    0 -0.85772962185E+02  0.20380790255E+03 -0.14918217137E+04  0.15132916730E+04  0.12500000000E+03 0.  0.
         21    1    1    2  502  501  0.20916203448E+02 -0.26431215365E+01 -0.46712203660E+03  0.46759755211E+03  0.00000000000E+00 0.  1.
         21    1    1    2  503  502  0.64856758737E+02 -0.20116478101E+03 -0.52254677740E+03  0.56367437661E+03  0.00000000000E+00 0. -1.
<mgrwt>
<rscale>  4 0.50607070E+03</rscale>
<asrwt>0</asrwt>
<pdfrwt beam="1">  1        2 0.38661968E+00 0.50607070E+03</pdfrwt>
<pdfrwt beam="2">  1       -2 0.48517733E-02 0.50607070E+03</pdfrwt>
<totfact> 0.78463781E+02</totfact>
</mgrwt>
</event>
<event>
 5    0  0.2754780E-002  0.7211062E+03  0.7546771E-02  0.9681803E-01
          1   -1    0    0  503    0  0.00000000000E+00  0.00000000000E+00  0.52127188159E+03  0.52127188159E+03  0.00000000000E+00 0. -1.
         -1   -1    0    0    0  501 -0.00000000000E+00 -0.00000000000E+00 -0.61670946760E+03  0.61670946760E+03  0.00000000000E+00 0.  1.
         25    1    1    2    0    0  0.64794984434E+02  0.27376420032E+03 -0.41469255727E+03  0.51646891915E+03  0.12500000000E+03 0.  0.
         21    1    1    2  502  501 -0.10576469328E+02  0.31742195429E+02  0.30926696394E+03  0.31107150891E+03  0.00000000000E+00 0.  1.
         21    1    1    2  503  502 -0.54218515106E+02 -0.30550639575E+03  0.99880073251E+01  0.31044092113E+03  0.00000000000E+00 0. -1.
<mgrwt>
<rscale>  4 0.72110617E+03</rscale>
<asrwt>0</asrwt>
<pdfrwt beam="1">  1        1 0.80195675E-01 0.72110617E+03</pdfrwt>
<pdfrwt beam="2">  1       -1 0.94878379E-01 0.72110617E+03</pdfrwt>
<totfact> 0.46016522E+01</totfact>
</mgrwt>
</event>
<event>
 5    0  0.2754780E-002  0.5292678E+03  0.7546771E-02  0.1006410E+00
          2   -1    0    0  503    0  0.00000000000E+00  0.00000000000E+00  0.48641891357E+03  0.48641891357E+03  0.00000000000E+00 0. -1.
         -2   -1    0    0    0  501 -0.00000000000E+00 -0.00000000000E+00 -0.22281251891E+03  0.22281251891E+03  0.00000000000E+00 0.  1.
         25    1    1    2    0    0  0.11227332929E+03  0.23314846482E+03 -0.27089848829E+02  0.28865613977E+03  0.12500000000E+03 0.  0.
         21    1    1    2  502  501 -0.17771775508E+02 -0.38961190990E+02  0.16549663350E+03  0.17094720269E+03  0.00000000000E+00 0. -1.
         21    1    1    2  503  502 -0.94501553778E+02 -0.19418727383E+03  0.12519960999E+03  0.24962809002E+03  0.00000000000E+00 0. -1.
<mgrwt>
<rscale>  4 0.52926778E+03</rscale>
<asrwt>0</asrwt>
<pdfrwt beam="1">  1        2 0.74833679E-01 0.52926778E+03</pdfrwt>
<pdfrwt beam="2">  1       -2 0.34278849E-01 0.52926778E+03</pdfrwt>
<totfact> 0.51197681E+02</totfact>
</mgrwt>
</event>
<event>
 5    0  0.2754780E-002  0.8013608E+03  0.7546771E-02  0.9558049E-01
          2   -1    0    0  502    0  0.00000000000E+00  0.00000000000E+00  0.23435930466E+04  0.23435930466E+04  0.00000000000E+00 0.  1.
         -2   -1    0    0    0  501 -0.00000000000E+00 -0.00000000000E+00 -0.88434161372E+02  0.88434161372E+02  0.00000000000E+00 0. -1.
         25    1    1    2    0    0 -0.38163233868E+03 -0.18210615217E+03  0.10064721355E+04  0.10988253055E+04  0.12500000000E+03 0.  0.
         21    1    1    2  502  503  0.32322335809E+03  0.12707793540E+03  0.11713489305E+04  0.12217530265E+04  0.00000000000E+00 0. -1.
         21    1    1    2  503  501  0.58408980594E+02  0.55028216771E+02  0.77337819292E+02  0.11144887594E+03  0.00000000000E+00 0. -1.
<mgrwt>
<rscale>  4 0.80136084E+03</rscale>
<asrwt>0</asrwt>
<pdfrwt beam="1">  1        2 0.36055273E+00 0.80136084E+03</pdfrwt>
<pdfrwt beam="2">  1       -2 0.13605257E-01 0.80136084E+03</pdfrwt>
<totfact> 0.18176581E+02</totfact>
</mgrwt>
</event>
<event>
 5    0  0.2754780E-002  0.4521613E+03  0.7546771E-02  0.1027079E+00
         -2   -1    0    0    0  501 -0.00000000000E+00  0.00000000000E+00  0.39425960858E+02  0.39425960858E+02  0.00000000000E+00 0. -1.
          2   -1    0    0  503    0  0.00000000000E+00 -0.00000000000E+00 -0.21105476087E+04  0.21105476087E+04  0.00000000000E+00 0.  1.
         25    1    1    2    0    0  0.23084191434E+03 -0.24628649603E+02 -0.11316823288E+04  0.11619915891E+04  0.12500000000E+03 0.  0.
         21    1    1    2  502  501 -0.90702245793E+02 -0.26131446717E+02 -0.69719862128E+03  0.70355928494E+03  0.00000000000E+00 0. -1.
         21    1    1    2  503  502 -0.14013966855E+03  0.50760096320E+02 -0.24224069771E+03  0.28442269548E+03  0.00000000000E+00 0. -1.
<mgrwt>
<rscale>  4 0.45216125E+03</rscale>
<asrwt>0</asrwt>
<pdfrwt beam="1">  1        2 0.32469963E+00 0.45216125E+03</pdfrwt>
<pdfrwt beam="2">  1       -2 0.60655325E-02 0.45216125E+03</pdfrwt>
<totfact> 0.92746460E+02</totfact>
</mgrwt>
</event>
<event>
 5    0  0.2754780E-002  0.5324180E+03  0.7546771E-02  0.1005647E+00
          1   -1    0    0  503    0  0.00000000000E+00  0.00000000000E+00  0.16154870357E+04  0.16154870357E+04  0.00000000000E+00 0. -1.
         -1   -1    0    0    0  501 -0.00000000000E+00 -0.00000000000E+00 -0.70333538556E+02  0.70333538556E+02  0.00000000000E+00 0.  1.
         25    1    1    2    0    0 -0.20723371377E+03 -0.11989055519E+03  0.68051912444E+03  0.73215492628E+03  0.12500000000E+03 0.  0.
         21    1    1    2  502  501 -0.13499065854E+02  0.42315313924E+02  0.59507326375E+03  0.59672858136E+03  0.00000000000E+00 0. -1.
         21    1    1    2  503  502  0.22073277963E+03  0.77575241269E+02  0.26956110890E+03  0.35693706657E+03  0.00000000000E+00 0.  1.
<mgrwt>
<rscale>  4 0.53241799E+03</rscale>
<asrwt>0</asrwt>
<pdfrwt beam="1">  1        1 0.24853644E+00 0.53241799E+03</pdfrwt>
<pdfrwt beam="2">  1       -1 0.10820546E-01 0.53241799E+03</pdfrwt>
<totfact> 0.31446866E+02</totfact>
</mgrwt>
</event>
<event>
 5    0  0.2754780E-002  0.5132044E+03  0.7546771E-02  0.1010389E+00
          1   -1    0    0  503    0  0.00000000000E+00  0.00000000000E+00  0.76636492413E+03  0.76636492413E+03  0.00000000000E+00 0. -1.
         -1   -1    0    0    0  501 -0.00000000000E+00 -0.00000000000E+00 -0.96232227917E+02  0.96232227917E+02  0.00000000000E+00 0.  1.
         25    1    1    2    0    0  0.12783173045E+02 -0.23449432311E+03  0.31038237276E+03  0.40879483168E+03  0.12500000000E+03 0.  0.
         21    1    1    2  502  501  0.27551910261E+02 -0.91216418189E+01  0.48166521047E+02  0.56234561066E+02  0.00000000000E+00 0.  1.
         21    1    1    2  503  502 -0.40335083306E+02  0.24361596493E+03  0.31158380240E+03  0.39756775930E+03  0.00000000000E+00 0. -1.
<mgrwt>
<rscale>  4 0.51320435E+03</rscale>
<asrwt>0</asrwt>
<pdfrwt beam="1">  1        1 0.11790229E+00 0.51320435E+03</pdfrwt>
<pdfrwt beam="2">  1       -1 0.14804959E-01 0.51320435E+03</pdfrwt>
<totfact> 0.80409741E+02</totfact>
</mgrwt>
</event>
<event>
 5    0  0.2754780E-002  0.7095746E+03  0.7546771E-02  0.9700997E-01
         -2   -1    0    0    0  501 -0.00000000000E+00  0.00000000000E+00  0.51636846605E+03  0.51636846605E+03  0.00000000000E+00 0.  1.
          2   -1    0    0  503    0  0.00000000000E+00 -0.00000000000E+00 -0.39033035051E+03  0.39033035051E+03  0.00000000000E+00 0. -1.
         25    1    1    2    0    0 -0.10240486481E+03  0.25996847237E+03 -0.14584799396E+03  0.33906784027E+03  0.12500000000E+03 0.  0.
         21    1    1    2  502  501  0.10893969912E+03 -0.84254311044E+02 -0.90530986897E+02  0.16481051715E+03  0.00000000000E+00 0.  1.
         21    1    1    2  503  502 -0.65348343117E+01 -0.17571416132E+03  0.36241709640E+03  0.40282045915E+03  0.00000000000E+00 0.  1.
<mgrwt>
<rscale>  4 0.70957457E+03</rscale>
<asrwt>0</asrwt>
<pdfrwt beam="1">  1        2 0.60050823E-01 0.70957457E+03</pdfrwt>
<pdfrwt beam="2">  1       -2 0.79441302E-01 0.70957457E+03</pdfrwt>
<totfact> 0.11619401E+02</totfact>
</mgrwt>
</event>
<event>
 5    0  0.2754780E-002  0.7595915E+03  0.7546771E-02  0.9620422E-01
         -2   -1    0    0    0  501 -0.00000000000E+00  0.00000000000E+00  0.23613881110E+03  0.23613881110E+03  0.00000000000E+00 0. -1.
          2   -1    0    0  502    0  0.00000000000E+00 -0.00000000000E+00 -0.67807933433E+03  0.67807933433E+03  0.00000000000E+00 0.  1.
         25    1    1    2    0    0  0.24528846843E+03 -0.21478613918E+03 -0.20220571072E+02  0.34976190448E+03  0.12500000000E+03 0.  0.
         21    1    1    2  502  503 -0.25529733980E+03  0.23367559930E+03 -0.36108546113E+03  0.50016370086E+03  0.00000000000E+00 0.  1.
         21    1    1    2  503  501  0.10008871364E+02 -0.18889460123E+02 -0.60634491020E+02  0.64292540088E+02  0.00000000000E+00 0.  1.
<mgrwt>
<rscale>  4 0.75959150E+03</rscale>
<asrwt>0</asrwt>
<pdfrwt beam="1">  1        2 0.10431990E+00 0.75959150E+03</pdfrwt>
<pdfrwt beam="2">  1       -2 0.36329048E-01 0.75959150E+03</pdfrwt>
<totfact> 0.30625208E+02</totfact>
</mgrwt>
</event>
<event>
 5    0  0.2754780E-002  0.1200884E+04  0.7546771E-02  0.9112083E-01
         -1   -1    0    0    0  501 -0.00000000000E+00  0.00000000000E+00  0.57441054993E+03  0.57441054993E+03  0.00000000000E+00 0. -1.
          1   -1    0    0  503    0  0.00000000000E+00 -0.00000000000E+00 -0.66498657051E+03  0.66498657051E+03  0.00000000000E+00 0.  1.
         25    1    1    2    0    0  0.19977624697E+03 -0.50096786944E+03  0.22118403618E+03  0.59617676315E+03  0.12500000000E+03 0.  0.
         21    1    1    2  502  501  0.12570656118E+02  0.30022306323E+02  0.10670211000E+02  0.34252206862E+02  0.00000000000E+00 0.  1.
         21    1    1    2  503  502 -0.21234690309E+03  0.47094556311E+03 -0.32243026776E+03  0.60896815043E+03  0.00000000000E+00 0.  1.
<mgrwt>
<rscale>  4 0.12008845E+04</rscale>
<asrwt>0</asrwt>
<pdfrwt beam="1">  1        1 0.10230563E+00 0.12008845E+04</pdfrwt>
<pdfrwt beam="2">  1       -1 0.88370854E-01 0.12008845E+04</pdfrwt>
<totfact> 0.36640900E+01</totfact>
</mgrwt>
</event>
<event>
 5    0  0.2754780E-002  0.6340444E+03  0.7546771E-02  0.9837188E-01
         -2   -1    0    0    0  501 -0.00000000000E+00  0.00000000000E+00  0.36174942551E+02  0.36174942551E+02  0.00000000000E+00 0. -1.
          2   -1    0    0  503    0  0.00000000000E+00 -0.00000000000E+00 -0.27782509007E+04  0.27782509007E+04  0.00000000000E+00 0.  1.
         25    1    1    2    0    0 -0.18047448283E+02  0.21233603199E+03 -0.46761646409E+03  0.52886903706E+03  0.12500000000E+03 0.  0.
         21    1    1    2  502  501 -0.18805294401E+02 -0.24914267662E+02 -0.46407424010E+03  0.46512284416E+03  0.00000000000E+00 0. -1.
         21    1    1    2  503  502  0.36852742684E+02 -0.18742176433E+03 -0.18103852540E+04  0.18204339620E+04  0.00000000000E+00 0. -1.
<mgrwt>
<rscale>  4 0.63404437E+03</rscale>
<asrwt>0</asrwt>
<pdfrwt beam="1">  1        2 0.42742339E+00 0.63404437E+03</pdfrwt>
<pdfrwt beam="2">  1       -2 0.55653735E-02 0.63404437E+03</pdfrwt>
<totfact> 0.44107946E+02</totfact>
</mgrwt>
</event>
<event>
 5    0  0.2754780E-002  0.4418532E+03  0.7546771E-02  0.1030180E+00
          2   -1    0    0  503    0  0.00000000000E+00  0.00000000000E+00  0.15485257966E+04  0.15485257966E+04  0.00000000000E+00 0. -1.
         -2   -1    0    0    0  501 -0.00000000000E+00 -0.00000000000E+00 -0.12999050052E+03  0.12999050052E+03  0.00000000000E+00 0.  1.
         25    1    1    2    0    0  0.33850653727E+02 -0.21029079277E+03  0.18679796911E+03  0.30965555953E+03  0.12500000000E+03 0.  0.
         21    1    1    2  502  501 -0.56295985546E+02  0.24231518107E+02  0.11699142211E+04  0.11715185398E+04  0.00000000000E+00 0. -1.
         21    1    1    2  503  502  0.22445331818E+02  0.18605927466E+03  0.61823105923E+02  0.19734219781E+03  0.00000000000E+00 0.  1.
<mgrwt>
<rscale>  4 0.44185324E+03</rscale>
<asrwt>0</asrwt>
<pdfrwt beam="1">  1        2 0.23823472E+00 0.44185324E+03</pdfrwt>
<pdfrwt beam="2">  1       -2 0.19998540E-01 0.44185324E+03</pdfrwt>
<totfact> 0.26536110E+02</totfact>
</mgrwt>
</event>
<event>
 5    0  0.2754780E-002  0.5260118E+03  0.7546771E-02  0.1007204E+00
         -1   -1    0    0    0  501 -0.00000000000E+00  0.00000000000E+00  0.73282503424E+02  0.73282503424E+02  0.00000000000E+00 0. -1.
          1   -1    0    0  502    0  0.00000000000E+00 -0.00000000000E+00 -0.18272458027E+04  0.18272458027E+04  0.00000000000E+00 0.  1.
         25    1    1    2    0    0 -0.55519165929E+02  0.23467628200E+03 -0.26924386105E+03  0.38245599987E+03  0.12500000000E+03 0.  0.
         21    1    1    2  502  503  0.51387319305E+02 -0.19449662228E+03 -0.60787525613E+03  0.64029830523E+03  0.00000000000E+00 0.  1.
         21    1    1    2  503  501  0.41318466242E+01 -0.40179659723E+02 -0.87684418210E+03  0.87777400103E+03  0.00000000000E+00 0.  1.
<mgrwt>
<rscale>  4 0.52601181E+03</rscale>
<asrwt>0</asrwt>
<pdfrwt beam="1">  1        1 0.28111472E+00 0.52601181E+03</pdfrwt>
<pdfrwt beam="2">  1       -1 0.11274232E-01 0.52601181E+03</pdfrwt>
<totfact> 0.21308769E+02</totfact>
</mgrwt>
</event>
<event>
 5    0  0.2754780E-002  0.4290329E+03  0.7546771E-02  0.1034166E+00
          2   -1    0    0  502    0  0.00000000000E+00  0.00000000000E+00  0.10016580393E+04  0.10016580393E+04  0.00000000000E+00 0.  1.
         -2   -1    0    0    0  501 -0.00000000000E+00 -0.00000000000E+00 -0.64620741417E+02  0.64620741417E+02  0.00000000000E+00 0. -1.
         25    1    1    2    0    0  0.13214292174E+02 -0.20001611476E+03  0.28173704354E+03  0.36767081117E+03  0.12500000000E+03 0.  0.
         21    1    1    2  502  503 -0.15412270652E+01  0.18253314985E+03  0.37043684768E+03  0.41296995568E+03  0.00000000000E+00 0. -1.
         21    1    1    2  503  501 -0.11673065109E+02  0.17482964910E+02  0.28486340662E+03  0.28563801383E+03  0.00000000000E+00 0.  1.
<mgrwt>
<rscale>  4 0.42903289E+03</rscale>
<asrwt>0</asrwt>
<pdfrwt beam="1">  1        2 0.15410123E+00 0.42903289E+03</pdfrwt>
<pdfrwt beam="2">  1       -2 0.99416532E-02 0.42903289E+03</pdfrwt>
<totfact> 0.17537638E+03</totfact>
</mgrwt>
</event>
<event>
 5    0  0.2754780E-002  0.6272587E+03  0.7546771E-02  0.9850413E-01
         -1   -1    0    0    0  501 -0.00000000000E+00  0.00000000000E+00  0.38956904985E+03  0.38956904985E+03  0.00000000000E+00 0. -1.
          1   -1    0    0  503    0  0.00000000000E+00 -0.00000000000E+00 -0.48277183905E+03  0.48277183905E+03  0.00000000000E+00 0.  1.
         25    1    1    2    0    0 -0.69683745075E+02  0.28958228148E+03  0.22198217003E+03  0.39193724739E+03  0.12500000000E+03 0.  0.
         21    1    1    2  502  501  0.16376846357E+02 -0.65611779192E+02 -0.22193448600E+03  0.23200866954E+03  0.00000000000E+00 0.  1.
         21    1    1    2  503  502  0.53306898718E+02 -0.22397050229E+03 -0.93250473227E+02  0.24839497198E+03  0.00000000000E+00 0.  1.
<mgrwt>
<rscale>  4 0.62725872E+03</rscale>
<asrwt>0</asrwt>
<pdfrwt beam="1">  1        1 0.74272590E-01 0.62725872E+03</pdfrwt>
<pdfrwt beam="2">  1       -1 0.59933700E-01 0.62725872E+03</pdfrwt>
<totfact> 0.13447200E+02</totfact>
</mgrwt>
</event>
<event>
 5    0  0.2754780E-002  0.6979845E+03  0.7546771E-02  0.9720685E-01
          3   -1    0    0  502    0  0.00000000000E+00  0.00000000000E+00  0.83833656206E+03  0.83833656206E+03  0.00000000000E+00 0.  1.
         -3   -1    0    0    0  501 -0.00000000000E+00 -0.00000000000E+00 -0.16670865594E+03  0.16670865594E+03  0.00000000000E+00 0. -1.
         25    1    1    2    0    0 -0.62653352032E+02  0.22660029238E+03  0.58946766168E+03  0.64681547539E+03  0.12500000000E+03 0.  0.
         21    1    1    2  502  503  0.57617713478E+02 -0.24653888982E+03 -0.20046567957E+02  0.25397458531E+03  0.00000000000E+00 0. -1.
         21    1    1    2  503  501  0.50356385539E+01  0.19938597436E+02  0.10220681240E+03  0.10425515730E+03  0.00000000000E+00 0.  1.
<mgrwt>
<rscale>  4 0.69798449E+03</rscale>
<asrwt>0</asrwt>
<pdfrwt beam="1">  1        3 0.12897485E+00 0.69798449E+03</pdfrwt>
<pdfrwt beam="2">  1       -3 0.25647486E-01 0.69798449E+03</pdfrwt>
<totfact> 0.18206215E+01</totfact>
</mgrwt>
</event>
<event>
 5    0  0.2754780E-002  0.8323605E+03  0.7546771E-02  0.9514323E-01
         -2   -1    0    0    0  501 -0.00000000000E+00  0.00000000000E+00  0.12568547831E+03  0.12568547831E+03  0.00000000000E+00 0. -1.
          2   -1    0    0  502    0  0.00000000000E+00 -0.00000000000E+00 -0.13780908616E+04  0.13780908616E+04  0.00000000000E+00 0.  1.
         25    1    1    2    0    0 -0.22564070364E+02 -0.29075262072E+03 -0.13033483554E+03  0.34301369226E+03  0.12500000000E+03 0.  0.
         21    1    1    2  502  503  0.21252112437E+02  0.26906755264E+03 -0.95923230808E+03  0.99648162103E+03  0.00000000000E+00 0.  1.
         21    1    1    2  503  501  0.13119579266E+01  0.21685068073E+02 -0.16283823969E+03  0.16428102665E+03  0.00000000000E+00 0.  1.
<mgrwt>
<rscale>  4 0.83236052E+03</rscale>
<asrwt>0</asrwt>
<pdfrwt beam="1">  1        2 0.21201398E+00 0.83236052E+03</pdfrwt>
<pdfrwt beam="2">  1       -2 0.19336227E-01 0.83236052E+03</pdfrwt>
<totfact> 0.33939672E+02</totfact>
</mgrwt>
</event>
<event>
 5    0  0.2754780E-002  0.1439419E+04  0.7546771E-02  0.8925769E-01
          2   -1    0    0  503    0  0.00000000000E+00  0.00000000000E+00  0.12734838641E+04  0.12734838641E+04  0.00000000000E+00 0. -1.
         -2   -1    0    0    0  501 -0.00000000000E+00 -0.00000000000E+00 -0.40674372049E+03  0.40674372049E+03  0.00000000000E+00 0.  1.
         25    1    1    2    0    0  0.33195539023E+01 -0.42713901860E+03 -0.22996798566E+03  0.50096809786E+03  0.12500000000E+03 0.  0.
         21    1    1    2  502  501 -0.11629089338E+02  0.17930027915E+02  0.90573711666E+02  0.93060834215E+02  0.00000000000E+00 0. -1.
         21    1    1    2  503  502  0.83095354354E+01  0.40920899068E+03  0.10061344176E+04  0.10861986525E+04  0.00000000000E+00 0. -1.
<mgrwt>
<rscale>  4 0.14394187E+04</rscale>
<asrwt>0</asrwt>
<pdfrwt beam="1">  1        2 0.19592059E+00 0.14394187E+04</pdfrwt>
<pdfrwt beam="2">  1       -2 0.62575958E-01 0.14394187E+04</pdfrwt>
<totfact> 0.39383088E+01</totfact>
</mgrwt>
</event>
<event>
 5    0  0.2754780E-002  0.5526080E+03  0.7546771E-02  0.1000892E+00
          1   -1    0    0  503    0  0.00000000000E+00  0.00000000000E+00  0.19100727031E+04  0.19100727031E+04  0.00000000000E+00 0.  1.
         -1   -1    0    0    0  501 -0.00000000000E+00 -0.00000000000E+00 -0.39969109794E+02  0.39969109794E+02  0.00000000000E+00 0. -1.
         25    1    1    2    0    0  0.22387364789E+03 -0.10014951568E+03  0.84753931203E+03  0.89112132796E+03  0.12500000000E+03 0.  0.
         21    1    1    2  502  501 -0.87487339350E+02 -0.20070482696E+02  0.42198747084E+03  0.43142819144E+03  0.00000000000E+00 0. -1.
         21    1    1    2  503  502 -0.13638630854E+03  0.12021999837E+03  0.60057681047E+03  0.62749229353E+03  0.00000000000E+00 0.  1.
<mgrwt>
<rscale>  4 0.55260802E+03</rscale>
<asrwt>0</asrwt>
<pdfrwt beam="1">  1        1 0.29385727E+00 0.55260802E+03</pdfrwt>
<pdfrwt beam="2">  1       -1 0.61490953E-02 0.55260802E+03</pdfrwt>
<totfact> 0.48230657E+02</totfact>
</mgrwt>
</event>
<event>
 5    0  0.2754780E-002  0.5636966E+03  0.7546771E-02  0.9983725E-01
         -1   -1    0    0    0  501 -0.00000000000E+00  0.00000000000E+00  0.40262104136E+03  0.40262104136E+03  0.00000000000E+00 0. -1.
          1   -1    0    0  502    0  0.00000000000E+00 -0.00000000000E+00 -0.29815412263E+03  0.29815412263E+03  0.00000000000E+00 0.  1.
         25    1    1    2    0    0 -0.20692227664E+03  0.14705400216E+03  0.19794980212E+03  0.34532713806E+03  0.12500000000E+03 0.  0.
         21    1    1    2  502  503  0.22027478622E+03 -0.12598331387E+03  0.50489610888E+01  0.25380754288E+03  0.00000000000E+00 0.  1.
         21    1    1    2  503  501 -0.13352509581E+02 -0.21070688289E+02 -0.98531844484E+02  0.10164048305E+03  0.00000000000E+00 0. -1.
<mgrwt>
<rscale>  4 0.56369661E+03</rscale>
<asrwt>0</asrwt>
<pdfrwt beam="1">  1        1 0.45869865E-01 0.56369661E+03</pdfrwt>
<pdfrwt beam="2">  1       -1 0.61941698E-01 0.56369661E+03</pdfrwt>
<totfact> 0.23842533E+02</totfact>
</mgrwt>
</event>
<event>
 5    0  0.2754780E-002  0.7376184E+03  0.7546771E-02  0.9654978E-01
          2   -1    0    0  502    0  0.00000000000E+00  0.00000000000E+00  0.10277518870E+04  0.10277518870E+04  0.00000000000E+00 0.  1.
         -2   -1    0    0    0  501 -0.00000000000E+00 -0.00000000000E+00 -0.15055854253E+03  0.15055854253E+03  0.00000000000E+00 0. -1.
         25    1    1    2    0    0 -0.31186140299E+03  0.70966331160E+02  0.23056173667E+03  0.41361512212E+03  0.12500000000E+03 0.  0.
         21    1    1    2  502  503  0.35475044191E+03 -0.79402539705E+02  0.55974579158E+03  0.66743388478E+03  0.00000000000E+00 0.  1.
         21    1    1    2  503  501 -0.42889038927E+02  0.84362085455E+01  0.86885816238E+02  0.97261422661E+02  0.00000000000E+00 0. -1.
<mgrwt>
<rscale>  4 0.73761844E+03</rscale>
<asrwt>0</asrwt>
<pdfrwt beam="1">  1        2 0.15811567E+00 0.73761844E+03</pdfrwt>
<pdfrwt beam="2">  1       -2 0.23162853E-01 0.73761844E+03</pdfrwt>
<totfact> 0.40062617E+02</totfact>
</mgrwt>
</event>
<event>
 5    0  0.2754780E-002  0.4680524E+03  0.7546771E-02  0.1022471E+00
         -2   -1    0    0    0  501 -0.00000000000E+00  0.00000000000E+00  0.56573353106E+02  0.56573353106E+02  0.00000000000E+00 0. -1.
          2   -1    0    0  502    0  0.00000000000E+00 -0.00000000000E+00 -0.30406805159E+04  0.30406805159E+04  0.00000000000E+00 0.  1.
         25    1    1    2    0    0  0.41344265146E+02  0.21366825966E+03 -0.58474148451E+03  0.63632623485E+03  0.12500000000E+03 0.  0.
         21    1    1    2  502  503 -0.75332820044E+02 -0.19613162954E+03 -0.32998786595E+03  0.39119642324E+03  0.00000000000E+00 0.  1.
         21    1    1    2  503  501  0.33988554897E+02 -0.17536630120E+02 -0.20693778123E+04  0.20697312109E+04  0.00000000000E+00 0.  1.
<mgrwt>
<rscale>  4 0.46805238E+03</rscale>
<asrwt>0</asrwt>
<pdfrwt beam="1">  1        2 0.46779688E+00 0.46805238E+03</pdfrwt>
<pdfrwt beam="2">  1       -2 0.87035951E-02 0.46805238E+03</pdfrwt>
<totfact> 0.15552931E+02</totfact>
</mgrwt>
</event>
<event>
 5    0  0.2754780E-002  0.1077959E+04  0.7546771E-02  0.9226945E-01
          2   -1    0    0  502    0  0.00000000000E+00  0.00000000000E+00  0.44527601785E+03  0.44527601785E+03  0.00000000000E+00 0. -1.
         -2   -1    0    0    0  501 -0.00000000000E+00 -0.00000000000E+00 -0.80719550908E+03  0.80719550908E+03  0.00000000000E+00 0.  1.
         25    1    1    2    0    0 -0.47105106809E+03 -0.27088172789E+03 -0.84961141672E+02  0.56401189247E+03  0.12500000000E+03 0.  0.
         21    1    1    2  502  503  0.42407086532E+03  0.23746440397E+03 -0.34740849551E+03  0.59742623370E+03  0.00000000000E+00 0.  1.
         21    1    1    2  503  501  0.46980202771E+02  0.33417323920E+02  0.70450145942E+02  0.91033400758E+02  0.00000000000E+00 0.  1.
<mgrwt>
<rscale>  4 0.10779587E+04</rscale>
<asrwt>0</asrwt>
<pdfrwt beam="1">  1        2 0.68504004E-01 0.10779587E+04</pdfrwt>
<pdfrwt beam="2">  1       -2 0.12418392E+00 0.10779587E+04</pdfrwt>
<totfact> 0.34041317E+01</totfact>
</mgrwt>
</event>
<event>
 5    0  0.2754780E-002  0.4369733E+03  0.7546771E-02  0.1031680E+00
          2   -1    0    0  503    0  0.00000000000E+00  0.00000000000E+00  0.20329563823E+04  0.20329563823E+04  0.00000000000E+00 0. -1.
         -2   -1    0    0    0  501 -0.00000000000E+00 -0.00000000000E+00 -0.34882756168E+02  0.34882756168E+02  0.00000000000E+00 0.  1.
         25    1    1    2    0    0  0.17783535342E+03  0.10883771700E+03  0.13218527844E+04  0.13440204036E+04  0.12500000000E+03 0.  0.
         21    1    1    2  502  501 -0.70134278875E+02 -0.47680556748E+02  0.50739826561E+03  0.51443683043E+03  0.00000000000E+00 0.  1.
         21    1    1    2  503  502 -0.10770107455E+03 -0.61157160249E+02  0.16882257609E+03  0.20938190443E+03  0.00000000000E+00 0.  1.
<mgrwt>
<rscale>  4 0.43697334E+03</rscale>
<asrwt>0</asrwt>
<pdfrwt beam="1">  1        2 0.31276243E+00 0.43697334E+03</pdfrwt>
<pdfrwt beam="2">  1       -2 0.53665795E-02 0.43697334E+03</pdfrwt>
<totfact> 0.12362435E+03</totfact>
</mgrwt>
</event>
<event>
 5    0  0.2754780E-002  0.4528098E+03  0.7546771E-02  0.1026887E+00
         -1   -1    0    0    0  501 -0.00000000000E+00  0.00000000000E+00  0.33488782078E+02  0.33488782078E+02  0.00000000000E+00 0. -1.
          1   -1    0    0  502    0  0.00000000000E+00 -0.00000000000E+00 -0.24271382616E+04  0.24271382616E+04  0.00000000000E+00 0.  1.
         25    1    1    2    0    0 -0.19555832076E+03  0.14691802934E+03 -0.94099110083E+03  0.98026385020E+03  0.12500000000E+03 0.  0.
         21    1    1    2  502  503  0.11287421758E+03 -0.13727672071E+03 -0.66573338263E+03  0.68904747572E+03  0.00000000000E+00 0.  1.
         21    1    1    2  503  501  0.82684103185E+02 -0.96413086268E+01 -0.78692499605E+03  0.79131571775E+03  0.00000000000E+00 0.  1.
<mgrwt>
<rscale>  4 0.45280982E+03</rscale>
<asrwt>0</asrwt>
<pdfrwt beam="1">  1        1 0.37340594E+00 0.45280982E+03</pdfrwt>
<pdfrwt beam="2">  1       -1 0.51521196E-02 0.45280982E+03</pdfrwt>
<totfact> 0.28944486E+02</totfact>
</mgrwt>
</event>
<event>
 5    0  0.2754780E-002  0.5062594E+03  0.7546771E-02  0.1012158E+00
          1   -1    0    0  503    0  0.00000000000E+00  0.00000000000E+00  0.60789492419E+03  0.60789492419E+03  0.00000000000E+00 0. -1.
         -1   -1    0    0    0  501 -0.00000000000E+00 -0.00000000000E+00 -0.32274034234E+03  0.32274034234E+03  0.00000000000E+00 0.  1.
         25    1    1    2    0    0 -0.59632938889E+02  0.21196396308E+03 -0.15142382007E+02  0.25365153415E+03  0.12500000000E+03 0.  0.
         21    1    1    2  502  501 -0.59780010233E+00  0.25005199425E+02  0.40874409726E+03  0.40950867440E+03  0.00000000000E+00 0. -1.
         21    1    1    2  503  502  0.60230738992E+02 -0.23696916251E+03 -0.10844713341E+03  0.26747505798E+03  0.00000000000E+00 0.  1.
<mgrwt>
<rscale>  4 0.50625938E+03</rscale>
<asrwt>0</asrwt>
<pdfrwt beam="1">  1        1 0.93522296E-01 0.50625938E+03</pdfrwt>
<pdfrwt beam="2">  1       -1 0.49652360E-01 0.50625938E+03</pdfrwt>
<totfact> 0.14139883E+02</totfact>
</mgrwt>
</event>
<event>
 5    0  0.2754780E-002  0.7890095E+03  0.7546771E-02  0.9576063E-01
          2   -1    0    0  502    0  0.00000000000E+00  0.00000000000E+00  0.17324734872E+04  0.17324734872E+04  0.00000000000E+00 0.  1.
         -2   -1    0    0    0  501 -0.00000000000E+00 -0.00000000000E+00 -0.10938523450E+03  0.10938523450E+03  0.00000000000E+00 0. -1.
         25    1    1    2    0    0  0.29055786738E+02 -0.27725511066E+03  0.12386236828E+04  0.12757461592E+04  0.12500000000E+03 0.  0.
         21    1    1    2  502  503 -0.75892394069E+02  0.25381920383E+03  0.11026031817E+03  0.28695153158E+03  0.00000000000E+00 0. -1.
         21    1    1    2  503  501  0.46836607330E+02  0.23435906822E+02  0.27420425173E+03  0.27916103091E+03  0.00000000000E+00 0. -1.
<mgrwt>
<rscale>  4 0.78900952E+03</rscale>
<asrwt>0</asrwt>
<pdfrwt beam="1">  1        2 0.26653436E+00 0.78900952E+03</pdfrwt>
<pdfrwt beam="2">  1       -2 0.16828499E-01 0.78900952E+03</pdfrwt>
<totfact> 0.27489284E+02</totfact>
</mgrwt>
</event>
<event>
 5    0  0.2754780E-002  0.8852182E+03  0.7546771E-02  0.9444250E-01
         -2   -1    0    0    0  501 -0.00000000000E+00  0.00000000000E+00  0.15186277956E+03  0.15186277956E+03  0.00000000000E+00 0. -1.
          2   -1    0    0  502    0  0.00000000000E+00 -0.00000000000E+00 -0.14841880450E+04  0.14841880450E+04  0.00000000000E+00 0.  1.
         25    1    1    2    0    0 -0.22566393272E+03  0.24634005296E+03 -0.10651691130E+04  0.11233066685E+04  0.12500000000E+03 0.  0.
         21    1    1    2  502  503  0.22550645102E+03 -0.22007414586E+03 -0.81806702230E+02  0.32554281693E+03  0.00000000000E+00 0. -1.
         21    1    1    2  503  501  0.15748170161E+00 -0.26265907098E+02 -0.18534945019E+03  0.18720133910E+03  0.00000000000E+00 0. -1.
<mgrwt>
<rscale>  4 0.88521823E+03</rscale>
<asrwt>0</asrwt>
<pdfrwt beam="1">  1        2 0.22833663E+00 0.88521823E+03</pdfrwt>
<pdfrwt beam="2">  1       -2 0.23363503E-01 0.88521823E+03</pdfrwt>
<totfact> 0.21091013E+02</totfact>
</mgrwt>
</event>
<event>
 5    0  0.2754780E-002  0.5691392E+03  0.7546771E-02  0.9971585E-01
          2   -1    0    0  503    0  0.00000000000E+00  0.00000000000E+00  0.40776582202E+03  0.40776582202E+03  0.00000000000E+00 0. -1.
         -2   -1    0    0    0  501 -0.00000000000E+00 -0.00000000000E+00 -0.31118865884E+03  0.31118865884E+03  0.00000000000E+00 0.  1.
         25    1    1    2    0    0 -0.22801403968E+03  0.16600295194E+03 -0.29689330556E+02  0.30992553733E+03  0.12500000000E+03 0.  0.
         21    1    1    2  502  501  0.32816321008E+02  0.66281888022E+01  0.14400222683E+03  0.14784277169E+03  0.00000000000E+00 0.  1.
         21    1    1    2  503  502  0.19519771867E+03 -0.17263114074E+03 -0.17735733093E+02  0.26118617183E+03  0.00000000000E+00 0.  1.
<mgrwt>
<rscale>  4 0.56913922E+03</rscale>
<asrwt>0</asrwt>
<pdfrwt beam="1">  1        2 0.62733203E-01 0.56913922E+03</pdfrwt>
<pdfrwt beam="2">  1       -2 0.47875178E-01 0.56913922E+03</pdfrwt>
<totfact> 0.32586916E+02</totfact>
</mgrwt>
</event>
<event>
 5    0  0.2754780E-002  0.4781961E+03  0.7546771E-02  0.1019632E+00
         -1   -1    0    0    0  501 -0.00000000000E+00  0.00000000000E+00  0.13408320733E+03  0.13408320733E+03  0.00000000000E+00 0.  1.
          1   -1    0    0  502    0  0.00000000000E+00 -0.00000000000E+00 -0.64371839475E+03  0.64371839475E+03  0.00000000000E+00 0. -1.
         25    1    1    2    0    0  0.23276769878E+03  0.37502116015E+02 -0.15689800064E+03  0.30956290622E+03  0.12500000000E+03 0.  0.
         21    1    1    2  502  503 -0.17278582808E+03 -0.11277430245E+03 -0.19772538604E+03  0.28577668547E+03  0.00000000000E+00 0.  1.
         21    1    1    2  503  501 -0.59981870707E+02  0.75272186433E+02 -0.15501180075E+03  0.18246201039E+03  0.00000000000E+00 0. -1.
<mgrwt>
<rscale>  4 0.47819607E+03</rscale>
<asrwt>0</asrwt>
<pdfrwt beam="1">  1        1 0.99033598E-01 0.47819607E+03</pdfrwt>
<pdfrwt beam="2">  1       -1 0.20628186E-01 0.47819607E+03</pdfrwt>
<totfact> 0.60779623E+02</totfact>
</mgrwt>
</event>
<event>
 5    0  0.2754780E-002  0.4864619E+03  0.7546771E-02  0.1017374E+00
          2   -1    0    0  503    0  0.00000000000E+00  0.00000000000E+00  0.92318567808E+03  0.92318567808E+03  0.00000000000E+00 0. -1.
         -2   -1    0    0    0  501 -0.00000000000E+00 -0.00000000000E+00 -0.92515095489E+02  0.92515095489E+02  0.00000000000E+00 0.  1.
         25    1    1    2    0    0 -0.57143071061E+01  0.20368434954E+03  0.38245269461E+03  0.45101555535E+03  0.12500000000E+03 0.  0.
         21    1    1    2  502  501 -0.10887161896E+02  0.24498568442E+02  0.27858598440E+03  0.27987293698E+03  0.00000000000E+00 0.  1.
         21    1    1    2  503  502  0.16601469002E+02 -0.22818291798E+03  0.16963190358E+03  0.28481228124E+03  0.00000000000E+00 0. -1.
<mgrwt>
<rscale>  4 0.48646192E+03</rscale>
<asrwt>0</asrwt>
<pdfrwt beam="1">  1        2 0.14202856E+00 0.48646192E+03</pdfrwt>
<pdfrwt beam="2">  1       -2 0.14233092E-01 0.48646192E+03</pdfrwt>
<totfact> 0.10924709E+03</totfact>
</mgrwt>
</event>
<event>
 5    0  0.2754780E-002  0.6191006E+03  0.7546771E-02  0.9866552E-01
         -2   -1    0    0    0  501 -0.00000000000E+00  0.00000000000E+00  0.55920091194E+03  0.55920091194E+03  0.00000000000E+00 0.  1.
          2   -1    0    0  502    0  0.00000000000E+00 -0.00000000000E+00 -0.64432598402E+03  0.64432598402E+03  0.00000000000E+00 0. -1.
         25    1    1    2    0    0  0.27990746269E+03  0.22527927400E+02  0.15621016977E+03  0.34479314425E+03  0.12500000000E+03 0.  0.
         21    1    1    2  502  503 -0.30828133911E+03 -0.12364070618E+02  0.23100903253E+03  0.38542888760E+03  0.00000000000E+00 0.  1.
         21    1    1    2  503  501  0.28373876419E+02 -0.10163856782E+02 -0.47234427438E+03  0.47330486411E+03  0.00000000000E+00 0. -1.
<mgrwt>
<rscale>  4 0.61910056E+03</rscale>
<asrwt>0</asrwt>
<pdfrwt beam="1">  1        2 0.99127075E-01 0.61910056E+03</pdfrwt>
<pdfrwt beam="2">  1       -2 0.86030909E-01 0.61910056E+03</pdfrwt>
<totfact> 0.54500306E+01</totfact>
</mgrwt>
</event>
<event>
 5    0  0.2754780E-002  0.8187159E+03  0.7546771E-02  0.9533315E-01
         -1   -1    0    0    0  501 -0.00000000000E+00  0.00000000000E+00  0.13981816855E+03  0.13981816855E+03  0.00000000000E+00 0.  1.
          1   -1    0    0  502    0  0.00000000000E+00 -0.00000000000E+00 -0.15465120639E+04  0.15465120639E+04  0.00000000000E+00 0. -1.
         25    1    1    2    0    0 -0.15184814812E+03  0.13565556484E+03 -0.11756831015E+04  0.11997149860E+04  0.12500000000E+03 0.  0.
         21    1    1    2  502  503  0.12763046244E+03 -0.71926024132E+02  0.80890141656E+02  0.16735024024E+03  0.00000000000E+00 0.  1.
         21    1    1    2  503  501  0.24217685681E+02 -0.63729540708E+02 -0.31190093547E+03  0.31926500624E+03  0.00000000000E+00 0. -1.
<mgrwt>
<rscale>  4 0.81871589E+03</rscale>
<asrwt>0</asrwt>
<pdfrwt beam="1">  1        1 0.23792495E+00 0.81871589E+03</pdfrwt>
<pdfrwt beam="2">  1       -1 0.21510486E-01 0.81871589E+03</pdfrwt>
<totfact> 0.11167569E+02</totfact>
</mgrwt>
</event>
<event>
 5    0  0.2754780E-002  0.1019438E+04  0.7546771E-02  0.9287479E-01
         -1   -1    0    0    0  501 -0.00000000000E+00  0.00000000000E+00  0.30572627339E+03  0.30572627339E+03  0.00000000000E+00 0. -1.
          1   -1    0    0  503    0  0.00000000000E+00 -0.00000000000E+00 -0.10730109995E+04  0.10730109995E+04  0.00000000000E+00 0.  1.
         25    1    1    2    0    0 -0.22481990798E+03  0.47179741588E+03 -0.54610353125E+03  0.76615328720E+03  0.12500000000E+03 0.  0.
         21    1    1    2  502  501  0.19521216162E+03 -0.36829110124E+03 -0.63473094863E+02  0.42163367639E+03  0.00000000000E+00 0.  1.
         21    1    1    2  503  502  0.29607746354E+02 -0.10350631464E+03 -0.15770810001E+03  0.19095030930E+03  0.00000000000E+00 0.  1.
<mgrwt>
<rscale>  4 0.10194382E+04</rscale>
<asrwt>0</asrwt>
<pdfrwt beam="1">  1        1 0.16507861E+00 0.10194382E+04</pdfrwt>
<pdfrwt beam="2">  1       -1 0.47034812E-01 0.10194382E+04</pdfrwt>
<totfact> 0.59972790E+01</totfact>
</mgrwt>
</event>
<event>
 5    0  0.2754780E-002  0.6057440E+03  0.7546771E-02  0.9893560E-01
         -1   -1    0    0    0  501 -0.00000000000E+00  0.00000000000E+00  0.79661161548E+03  0.79661161548E+03  0.00000000000E+00 0.  1.
          1   -1    0    0  502    0  0.00000000000E+00 -0.00000000000E+00 -0.20568382332E+03  0.20568382332E+03  0.00000000000E+00 0. -1.
         25    1    1    2    0    0 -0.83391118644E+02  0.22303525757E+03  0.39378607933E+03  0.47685561867E+03  0.12500000000E+03 0.  0.
         21    1    1    2  502  503  0.16595883744E+03 -0.39322630741E+02  0.26306170722E+03  0.31351246677E+03  0.00000000000E+00 0. -1.
         21    1    1    2  503  501 -0.82567718791E+02 -0.18371262683E+03 -0.65919994386E+02  0.21192735336E+03  0.00000000000E+00 0. -1.
<mgrwt>
<rscale>  4 0.60574402E+03</rscale>
<asrwt>0</asrwt>
<pdfrwt beam="1">  1        1 0.31643666E-01 0.60574402E+03</pdfrwt>
<pdfrwt beam="2">  1       -1 0.12255563E+00 0.60574402E+03</pdfrwt>
<totfact> 0.86529705E+01</totfact>
</mgrwt>
</event>
<event>
 5    0  0.2754780E-002  0.5089053E+03  0.7546771E-02  0.1011480E+00
          2   -1    0    0  502    0  0.00000000000E+00  0.00000000000E+00  0.11989040591E+04  0.11989040591E+04  0.00000000000E+00 0.  1.
         -2   -1    0    0    0  501 -0.00000000000E+00 -0.00000000000E+00 -0.66413720209E+02  0.66413720209E+02  0.00000000000E+00 0. -1.
         25    1    1    2    0    0 -0.18355095991E+03  0.15864027623E+03  0.44565245806E+03  0.52257899451E+03  0.12500000000E+03 0.  0.
         21    1    1    2  502  503  0.19496030763E+03 -0.12798153734E+03  0.48373150172E+03  0.53701486125E+03  0.00000000000E+00 0. -1.
         21    1    1    2  503  501 -0.11409347723E+02 -0.30658738886E+02  0.20310637913E+03  0.20572392357E+03  0.00000000000E+00 0.  1.
<mgrwt>
<rscale>  4 0.50890529E+03</rscale>
<asrwt>0</asrwt>
<pdfrwt beam="1">  1        2 0.18444676E+00 0.50890529E+03</pdfrwt>
<pdfrwt beam="2">  1       -2 0.10217496E-01 0.50890529E+03</pdfrwt>
<totfact> 0.12742100E+03</totfact>
</mgrwt>
</event>
<event>
 5    0  0.2754780E-002  0.8116286E+03  0.7546771E-02  0.9543336E-01
          1   -1    0    0  502    0  0.00000000000E+00  0.00000000000E+00  0.18169054835E+04  0.18169054835E+04  0.00000000000E+00 0.  1.
         -1   -1    0    0    0  501 -0.00000000000E+00 -0.00000000000E+00 -0.10300137118E+03  0.10300137118E+03  0.00000000000E+00 0. -1.
         25    1    1    2    0    0 -0.63034570774E+02  0.37007657005E+03  0.64080810370E+03  0.75312020991E+03  0.12500000000E+03 0.  0.
         21    1    1    2  502  503  0.11189234074E+03 -0.38503607041E+03  0.10018755350E+04  0.10791326420E+04  0.00000000000E+00 0.  1.
         21    1    1    2  503  501 -0.48857769968E+02  0.14959500361E+02  0.71220473671E+02  0.87654002802E+02  0.00000000000E+00 0.  1.
<mgrwt>
<rscale>  4 0.81162860E+03</rscale>
<asrwt>0</asrwt>
<pdfrwt beam="1">  1        1 0.27952390E+00 0.81162860E+03</pdfrwt>
<pdfrwt beam="2">  1       -1 0.15846366E-01 0.81162860E+03</pdfrwt>
<totfact> 0.12174952E+02</totfact>
</mgrwt>
</event>
<event>
 5    0  0.2754780E-002  0.4785399E+03  0.7546771E-02  0.1019537E+00
          1   -1    0    0  503    0  0.00000000000E+00  0.00000000000E+00  0.44175324211E+03  0.44175324211E+03  0.00000000000E+00 0. -1.
         -1   -1    0    0    0  501 -0.00000000000E+00 -0.00000000000E+00 -0.14221839636E+03  0.14221839636E+03  0.00000000000E+00 0.  1.
         25    1    1    2    0    0 -0.19678193259E+02 -0.20367468475E+03  0.22611769273E+03  0.32958279607E+03  0.12500000000E+03 0.  0.
         21    1    1    2  502  501 -0.19146832272E+02 -0.11166202690E+02  0.19469052751E+02  0.29501343759E+02  0.00000000000E+00 0. -1.
         21    1    1    2  503  502  0.38825025531E+02  0.21484088744E+03  0.53948100262E+02  0.22488749865E+03  0.00000000000E+00 0. -1.
<mgrwt>
<rscale>  4 0.47853992E+03</rscale>
<asrwt>0</asrwt>
<pdfrwt beam="1">  1        1 0.67962037E-01 0.47853992E+03</pdfrwt>
<pdfrwt beam="2">  1       -1 0.21879754E-01 0.47853992E+03</pdfrwt>
<totfact> 0.92700685E+02</totfact>
</mgrwt>
</event>
<event>
 5    0  0.2754780E-002  0.4810101E+03  0.7546771E-02  0.1018858E+00
          2   -1    0    0  502    0  0.00000000000E+00  0.00000000000E+00  0.47627179509E+03  0.47627179509E+03  0.00000000000E+00 0. -1.
         -2   -1    0    0    0  501 -0.00000000000E+00 -0.00000000000E+00 -0.14659532575E+03  0.14659532575E+03  0.00000000000E+00 0.  1.
         25    1    1    2    0    0  0.20548516841E+03  0.28567438983E+02  0.17677749378E+03  0.29985919248E+03  0.12500000000E+03 0.  0.
         21    1    1    2  502  503 -0.22907788665E+03 -0.35188228114E+02  0.78532715397E+02  0.24470855510E+03  0.00000000000E+00 0.  1.
         21    1    1    2  503  501  0.23592718246E+02  0.66207891307E+01  0.74366260159E+02  0.78299373261E+02  0.00000000000E+00 0. -1.
<mgrwt>
<rscale>  4 0.48101011E+03</rscale>
<asrwt>0</asrwt>
<pdfrwt beam="1">  1        2 0.73272583E-01 0.48101011E+03</pdfrwt>
<pdfrwt beam="2">  1       -2 0.22553127E-01 0.48101011E+03</pdfrwt>
<totfact> 0.11255970E+03</totfact>
</mgrwt>
</event>
<event>
 5    0  0.2754780E-002  0.4902861E+03  0.7546771E-02  0.1016346E+00
         -1   -1    0    0    0  501 -0.00000000000E+00  0.00000000000E+00  0.42258321953E+02  0.42258321953E+02  0.00000000000E+00 0.  1.
          1   -1    0    0  502    0  0.00000000000E+00 -0.00000000000E+00 -0.15794888552E+04  0.15794888552E+04  0.00000000000E+00 0. -1.
         25    1    1    2    0    0  0.36772992866E+02  0.21990090146E+03 -0.89807573025E+03  0.93374176126E+03  0.12500000000E+03 0.  0.
         21    1    1    2  502  503 -0.61567071784E+02 -0.21765047139E+03 -0.53372990866E+03  0.57968081512E+03  0.00000000000E+00 0.  1.
         21    1    1    2  503  501  0.24794078918E+02 -0.22504300732E+01 -0.10542489433E+03  0.10832460076E+03  0.00000000000E+00 0.  1.
<mgrwt>
<rscale>  4 0.49028615E+03</rscale>
<asrwt>0</asrwt>
<pdfrwt beam="1">  1        1 0.24299824E+00 0.49028615E+03</pdfrwt>
<pdfrwt beam="2">  1       -1 0.65012814E-02 0.49028615E+03</pdfrwt>
<totfact> 0.73793329E+02</totfact>
</mgrwt>
</event>
<event>
 5    0  0.2754780E-002  0.9690064E+03  0.7546771E-02  0.9343207E-01
         -2   -1    0    0    0  501 -0.00000000000E+00  0.00000000000E+00  0.21441316303E+03  0.21441316303E+03  0.00000000000E+00 0. -1.
          2   -1    0    0  503    0  0.00000000000E+00 -0.00000000000E+00 -0.13958027655E+04  0.13958027655E+04  0.00000000000E+00 0.  1.
         25    1    1    2    0    0 -0.45400616556E+03  0.13293812222E+03 -0.59544963307E+03  0.77070059571E+03  0.12500000000E+03 0.  0.
         21    1    1    2  502  501  0.21747565134E+02  0.17316435531E+02 -0.29701150408E+03  0.29830965302E+03  0.00000000000E+00 0.  1.
         21    1    1    2  503  502  0.43225860043E+03 -0.15025455775E+03 -0.28892846532E+03  0.54120567979E+03  0.00000000000E+00 0. -1.
<mgrwt>
<rscale>  4 0.96900643E+03</rscale>
<asrwt>0</asrwt>
<pdfrwt beam="1">  1        2 0.21473889E+00 0.96900643E+03</pdfrwt>
<pdfrwt beam="2">  1       -2 0.32986640E-01 0.96900643E+03</pdfrwt>
<totfact> 0.12476660E+02</totfact>
</mgrwt>
</event>
<event>
 5    0  0.2754780E-002  0.4147661E+03  0.7546771E-02  0.1038783E+00
          1   -1    0    0  503    0  0.00000000000E+00  0.00000000000E+00  0.16417643008E+03  0.16417643008E+03  0.00000000000E+00 0. -1.
         -1   -1    0    0    0  501 -0.00000000000E+00 -0.00000000000E+00 -0.63048281935E+03  0.63048281935E+03  0.00000000000E+00 0.  1.
         25    1    1    2    0    0  0.22717234483E+03 -0.44861206594E+02 -0.33000924372E+03  0.42207926157E+03  0.12500000000E+03 0.  0.
         21    1    1    2  502  501 -0.76464085679E+02  0.60011131512E+02  0.67732372581E+02  0.11847264072E+03  0.00000000000E+00 0. -1.
         21    1    1    2  503  502 -0.15070825915E+03 -0.15149924919E+02 -0.20402951814E+03  0.25410734714E+03  0.00000000000E+00 0. -1.
<mgrwt>
<rscale>  4 0.41476612E+03</rscale>
<asrwt>0</asrwt>
<pdfrwt beam="1">  1        1 0.25257913E-01 0.41476612E+03</pdfrwt>
<pdfrwt beam="2">  1       -1 0.96997355E-01 0.41476612E+03</pdfrwt>
<totfact> 0.20261622E+02</totfact>
</mgrwt>
</event>
<event>
 5    0  0.2754780E-002  0.4260679E+03  0.7546771E-02  0.1035109E+00
          2   -1    0    0  503    0  0.00000000000E+00  0.00000000000E+00  0.14182693977E+03  0.14182693977E+03  0.00000000000E+00 0.  1.
         -2   -1    0    0    0  501 -0.00000000000E+00 -0.00000000000E+00 -0.92713268297E+03  0.92713268297E+03  0.00000000000E+00 0. -1.
         25    1    1    2    0    0  0.20103811817E+03 -0.53657565351E+02 -0.51380927097E+03  0.56826087866E+03  0.12500000000E+03 0.  0.
         21    1    1    2  502  501 -0.51071479939E+02 -0.51034047789E+02  0.77971117451E+02  0.10626507071E+03  0.00000000000E+00 0.  1.
         21    1    1    2  503  502 -0.14996663824E+03  0.10469161314E+03 -0.34946758968E+03  0.39443367337E+03  0.00000000000E+00 0. -1.
<mgrwt>
<rscale>  4 0.42606791E+03</rscale>
<asrwt>0</asrwt>
<pdfrwt beam="1">  1        2 0.21819529E-01 0.42606791E+03</pdfrwt>
<pdfrwt beam="2">  1       -2 0.14263580E+00 0.42606791E+03</pdfrwt>
<totfact> 0.90106670E+01</totfact>
</mgrwt>
</event>
<event>
 5    0  0.2754780E-002  0.8601845E+03  0.7546771E-02  0.9476769E-01
          1   -1    0    0  503    0  0.00000000000E+00  0.00000000000E+00  0.89346379105E+03  0.89346379105E+03  0.00000000000E+00 0.  1.
         -1   -1    0    0    0  501 -0.00000000000E+00 -0.00000000000E+00 -0.24297131272E+03  0.24297131272E+03  0.00000000000E+00 0. -1.
         25    1    1    2    0    0 -0.34363426633E+03 -0.62888613990E+02  0.60088839778E+03  0.70620914279E+03  0.12500000000E+03 0.  0.
         21    1    1    2  502  501  0.40997739717E+02  0.29052769123E+02  0.10894626911E+03  0.11997569590E+03  0.00000000000E+00 0.  1.
         21    1    1    2  503  502  0.30263652662E+03  0.33835844867E+02 -0.59342188558E+02  0.31025026508E+03  0.00000000000E+00 0. -1.
<mgrwt>
<rscale>  4 0.86018453E+03</rscale>
<asrwt>0</asrwt>
<pdfrwt beam="1">  1        1 0.13745597E+00 0.86018453E+03</pdfrwt>
<pdfrwt beam="2">  1       -1 0.37380202E-01 0.86018453E+03</pdfrwt>
<totfact> 0.12815208E+02</totfact>
</mgrwt>
</event>
<event>
 5    0  0.2754780E-002  0.4979455E+03  0.7546771E-02  0.1014317E+00
         -1   -1    0    0    0  501 -0.00000000000E+00  0.00000000000E+00  0.23645419422E+03  0.23645419422E+03  0.00000000000E+00 0.  1.
          1   -1    0    0  502    0  0.00000000000E+00 -0.00000000000E+00 -0.36456716875E+03  0.36456716875E+03  0.00000000000E+00 0. -1.
         25    1    1    2    0    0 -0.22276888840E+03 -0.29742028903E+02  0.36063150746E+02  0.25968464868E+03  0.12500000000E+03 0.  0.
         21    1    1    2  502  503  0.23008328450E+03  0.10236010070E+02 -0.64028746265E+02  0.23904554808E+03  0.00000000000E+00 0. -1.
         21    1    1    2  503  501 -0.73143961017E+01  0.19506018833E+02 -0.10014737901E+03  0.10229116620E+03  0.00000000000E+00 0. -1.
<mgrwt>
<rscale>  4 0.49794551E+03</rscale>
<asrwt>0</asrwt>
<pdfrwt beam="1">  1        1 0.56087257E-01 0.49794551E+03</pdfrwt>
<pdfrwt beam="2">  1       -1 0.36377568E-01 0.49794551E+03</pdfrwt>
<totfact> 0.49790462E+02</totfact>
</mgrwt>
</event>
<event>
 5    0  0.2754780E-002  0.6853364E+03  0.7546771E-02  0.9742643E-01
         -2   -1    0    0    0  501 -0.00000000000E+00  0.00000000000E+00  0.14538152920E+03  0.14538152920E+03  0.00000000000E+00 0. -1.
          2   -1    0    0  502    0  0.00000000000E+00 -0.00000000000E+00 -0.96530853443E+03  0.96530853443E+03  0.00000000000E+00 0.  1.
         25    1    1    2    0    0 -0.27797969748E+02 -0.32254483696E+03 -0.51103137442E+03  0.61772644805E+03  0.12500000000E+03 0.  0.
         21    1    1    2  502  503  0.54278975431E+02  0.29826848444E+03 -0.16603601193E+03  0.34565626458E+03  0.00000000000E+00 0. -1.
         21    1    1    2  503  501 -0.26481005683E+02  0.24276352526E+02 -0.14285961887E+03  0.14730735100E+03  0.00000000000E+00 0.  1.
<mgrwt>
<rscale>  4 0.68533642E+03</rscale>
<asrwt>0</asrwt>
<pdfrwt beam="1">  1        2 0.14850901E+00 0.68533642E+03</pdfrwt>
<pdfrwt beam="2">  1       -2 0.22366388E-01 0.68533642E+03</pdfrwt>
<totfact> 0.46840888E+02</totfact>
</mgrwt>
</event>
<event>
 5    0  0.2754780E-002  0.4281996E+03  0.7546771E-02  0.1034430E+00
          2   -1    0    0  503    0  0.00000000000E+00  0.00000000000E+00  0.14984535576E+04  0.14984535576E+04  0.00000000000E+00 0. -1.
         -2   -1    0    0    0  501 -0.00000000000E+00 -0.00000000000E+00 -0.80987300995E+02  0.80987300995E+02  0.00000000000E+00 0.  1.
         25    1    1    2    0    0  0.20855248556E+03  0.20601113924E+02  0.32959871836E+03  0.41009615979E+03  0.12500000000E+03 0.  0.
         21    1    1    2  502  501 -0.29467551668E+02 -0.27124554756E+02  0.92899161371E+03  0.92985455659E+03  0.00000000000E+00 0. -1.
         21    1    1    2  503  502 -0.17908493389E+03  0.65234408317E+01  0.15887592456E+03  0.23949014224E+03  0.00000000000E+00 0. -1.
<mgrwt>
<rscale>  4 0.42819959E+03</rscale>
<asrwt>0</asrwt>
<pdfrwt beam="1">  1        2 0.23053130E+00 0.42819959E+03</pdfrwt>
<pdfrwt beam="2">  1       -2 0.12459586E-01 0.42819959E+03</pdfrwt>
<totfact> 0.62817672E+02</totfact>
</mgrwt>
</event>
<event>
 5    0  0.2754780E-002  0.6059746E+03  0.7546771E-02  0.9893088E-01
          1   -1    0    0  502    0  0.00000000000E+00  0.00000000000E+00  0.46350008709E+03  0.46350008709E+03  0.00000000000E+00 0. -1.
         -1   -1    0    0    0  501 -0.00000000000E+00 -0.00000000000E+00 -0.60620263821E+03  0.60620263821E+03  0.00000000000E+00 0.  1.
         25    1    1    2    0    0  0.17267508020E+03 -0.14178978040E+03 -0.32559772429E+02  0.25808170010E+03  0.12500000000E+03 0.  0.
         21    1    1    2  502  503  0.17499969073E+02 -0.54706909692E+02 -0.40524731207E+03  0.40929754315E+03  0.00000000000E+00 0.  1.
         21    1    1    2  503  501 -0.19017504927E+03  0.19649669009E+03  0.29510453339E+03  0.40232348205E+03  0.00000000000E+00 0. -1.
<mgrwt>
<rscale>  4 0.60597463E+03</rscale>
<asrwt>0</asrwt>
<pdfrwt beam="1">  1        1 0.71307706E-01 0.60597463E+03</pdfrwt>
<pdfrwt beam="2">  1       -1 0.93261944E-01 0.60597463E+03</pdfrwt>
<totfact> 0.56744572E+01</totfact>
</mgrwt>
</event>
<event>
 5    0  0.2754780E-002  0.6220445E+03  0.7546771E-02  0.9860698E-01
         -2   -1    0    0    0  501 -0.00000000000E+00  0.00000000000E+00  0.10854120469E+03  0.10854120469E+03  0.00000000000E+00 0.  1.
          2   -1    0    0  502    0  0.00000000000E+00 -0.00000000000E+00 -0.22694394742E+04  0.22694394742E+04  0.00000000000E+00 0. -1.
         25    1    1    2    0    0  0.14645407394E+03  0.15469587069E+03 -0.44394095012E+03  0.50802379410E+03  0.12500000000E+03 0.  0.
         21    1    1    2  502  503 -0.32741103745E+02  0.10458413382E+03  0.18861469837E+02  0.11120061135E+03  0.00000000000E+00 0.  1.
         21    1    1    2  503  501 -0.11371297020E+03 -0.25928000451E+03 -0.17358187892E+04  0.17587562734E+04  0.00000000000E+00 0. -1.
<mgrwt>
<rscale>  4 0.62204449E+03</rscale>
<asrwt>0</asrwt>
<pdfrwt beam="1">  1        2 0.34914448E+00 0.62204449E+03</pdfrwt>
<pdfrwt beam="2">  1       -2 0.16698649E-01 0.62204449E+03</pdfrwt>
<totfact> 0.14407374E+02</totfact>
</mgrwt>
</event>
<event>
 5    0  0.2754780E-002  0.6600957E+03  0.7546771E-02  0.9788017E-01
          2   -1    0    0  503    0  0.00000000000E+00  0.00000000000E+00  0.95791830984E+03  0.95791830984E+03  0.00000000000E+00 0.  1.
         -2   -1    0    0    0  501 -0.00000000000E+00 -0.00000000000E+00 -0.22074163294E+03  0.22074163294E+03  0.00000000000E+00 0. -1.
         25    1    1    2    0    0 -0.34323142806E+03  0.99140041886E+02  0.41881707072E+03  0.56450801574E+03  0.12500000000E+03 0.  0.
         21    1    1    2  502  501  0.27783741173E+03 -0.18943527233E+02  0.39647093406E+03  0.48450148208E+03  0.00000000000E+00 0.  1.
         21    1    1    2  503  502  0.65394016327E+02 -0.80196514653E+02 -0.78111327878E+02  0.12965044495E+03  0.00000000000E+00 0. -1.
<mgrwt>
<rscale>  4 0.66009575E+03</rscale>
<asrwt>0</asrwt>
<pdfrwt beam="1">  1        2 0.14737205E+00 0.66009575E+03</pdfrwt>
<pdfrwt beam="2">  1       -2 0.33960252E-01 0.66009575E+03</pdfrwt>
<totfact> 0.22089552E+02</totfact>
</mgrwt>
</event>
<event>
 5    0  0.2754780E-002  0.9935884E+03  0.7546771E-02  0.9315605E-01
         -2   -1    0    0    0  501 -0.00000000000E+00  0.00000000000E+00  0.15313785066E+04  0.15313785066E+04  0.00000000000E+00 0.  1.
          2   -1    0    0  503    0  0.00000000000E+00 -0.00000000000E+00 -0.61272830815E+03  0.61272830815E+03  0.00000000000E+00 0. -1.
         25    1    1    2    0    0 -0.24125857522E+03  0.22262131472E+03  0.18392663047E+03  0.39650971651E+03  0.12500000000E+03 0.  0.
         21    1    1    2  502  501  0.33788098773E+03 -0.34439835323E+03 -0.38492763524E+03  0.61720585865E+03  0.00000000000E+00 0. -1.
         21    1    1    2  503  502 -0.96622412509E+02  0.12177703851E+03  0.11196512032E+04  0.11303912396E+04  0.00000000000E+00 0.  1.
<mgrwt>
<rscale>  4 0.99358838E+03</rscale>
<asrwt>0</asrwt>
<pdfrwt beam="1">  1        2 0.94265894E-01 0.99358838E+03</pdfrwt>
<pdfrwt beam="2">  1       -2 0.23559669E+00 0.99358838E+03</pdfrwt>
<totfact> 0.38059364E+00</totfact>
</mgrwt>
</event>
<event>
 5    0  0.2754780E-002  0.4168802E+03  0.7546771E-02  0.1038086E+00
          1   -1    0    0  502    0  0.00000000000E+00  0.00000000000E+00  0.39283164813E+03  0.39283164813E+03  0.00000000000E+00 0.  1.
         -1   -1    0    0    0  501 -0.00000000000E+00 -0.00000000000E+00 -0.16327088307E+03  0.16327088307E+03  0.00000000000E+00 0. -1.
         25    1    1    2    0    0  0.20315200195E+03 -0.39260620278E+02  0.61722987868E+02  0.24949320518E+03  0.12500000000E+03 0.  0.
         21    1    1    2  502  503 -0.14176911827E+03  0.96012109934E+02  0.95467582866E+02  0.19603792369E+03  0.00000000000E+00 0.  1.
         21    1    1    2  503  501 -0.61382883679E+02 -0.56751489656E+02  0.72370194329E+02  0.11057140233E+03  0.00000000000E+00 0.  1.
<mgrwt>
<rscale>  4 0.41688021E+03</rscale>
<asrwt>0</asrwt>
<pdfrwt beam="1">  1        1 0.60435638E-01 0.41688021E+03</pdfrwt>
<pdfrwt beam="2">  1       -1 0.25118597E-01 0.41688021E+03</pdfrwt>
<totfact> 0.85859907E+02</totfact>
</mgrwt>
</event>
<event>
 5    0  0.2754780E-002  0.4370782E+03  0.7546771E-02  0.1031647E+00
          2   -1    0    0  503    0  0.00000000000E+00  0.00000000000E+00  0.48095800001E+03  0.48095800001E+03  0.00000000000E+00 0. -1.
         -2   -1    0    0    0  501 -0.00000000000E+00 -0.00000000000E+00 -0.13336089892E+03  0.13336089892E+03  0.00000000000E+00 0.  1.
         25    1    1    2    0    0 -0.21270039037E+03 -0.33386541081E+02  0.21176426888E+03  0.32684128069E+03  0.12500000000E+03 0.  0.
         21    1    1    2  502  501  0.47595005058E+02 -0.49448894424E+02  0.35661195526E+02  0.77344673589E+02  0.00000000000E+00 0. -1.
         21    1    1    2  503  502  0.16510538531E+03  0.82835435505E+02  0.10017163669E+03  0.21013294466E+03  0.00000000000E+00 0.  1.
<mgrwt>
<rscale>  4 0.43707815E+03</rscale>
<asrwt>0</asrwt>
<pdfrwt beam="1">  1        2 0.73993538E-01 0.43707815E+03</pdfrwt>
<pdfrwt beam="2">  1       -2 0.20517062E-01 0.43707815E+03</pdfrwt>
<totfact> 0.13133606E+03</totfact>
</mgrwt>
</event>
<event>
 5    0  0.2754780E-002  0.4993365E+03  0.7546771E-02  0.1013952E+00
          1   -1    0    0  503    0  0.00000000000E+00  0.00000000000E+00  0.81749071241E+03  0.81749071241E+03  0.00000000000E+00 0. -1.
         -1   -1    0    0    0  501 -0.00000000000E+00 -0.00000000000E+00 -0.10082616021E+03  0.10082616021E+03  0.00000000000E+00 0.  1.
         25    1    1    2    0    0  0.76348902811E+02 -0.18553782114E+03  0.23483692134E+03  0.33320686917E+03  0.12500000000E+03 0.  0.
         21    1    1    2  502  501  0.29625318615E+02 -0.53187704082E+02  0.15637988880E+03  0.16781317287E+03  0.00000000000E+00 0. -1.
         21    1    1    2  503  502 -0.10597422143E+03  0.23872552522E+03  0.32544774206E+03  0.41729683058E+03  0.00000000000E+00 0.  1.
<mgrwt>
<rscale>  4 0.49933646E+03</rscale>
<asrwt>0</asrwt>
<pdfrwt beam="1">  1        1 0.12576780E+00 0.49933646E+03</pdfrwt>
<pdfrwt beam="2">  1       -1 0.15511718E-01 0.49933646E+03</pdfrwt>
<totfact> 0.67414027E+02</totfact>
</mgrwt>
</event>
<event>
 5    0  0.2754780E-002  0.6576141E+03  0.7546771E-02  0.9792596E-01
         -1   -1    0    0    0  501 -0.00000000000E+00  0.00000000000E+00  0.17944728160E+03  0.17944728160E+03  0.00000000000E+00 0.  1.
          1   -1    0    0  503    0  0.00000000000E+00 -0.00000000000E+00 -0.82589794848E+03  0.82589794848E+03  0.00000000000E+00 0. -1.
         25    1    1    2    0    0 -0.46391545953E+02 -0.28841044305E+03 -0.33614476378E+03  0.46254844223E+03  0.12500000000E+03 0.  0.
         21    1    1    2  502  501  0.12075458648E+02 -0.17631721089E+02 -0.22116490729E+03  0.22219498308E+03  0.00000000000E+00 0.  1.
         21    1    1    2  503  502  0.34316087305E+02  0.30604216414E+03 -0.89140995819E+02  0.32060180476E+03  0.00000000000E+00 0.  1.
<mgrwt>
<rscale>  4 0.65761412E+03</rscale>
<asrwt>0</asrwt>
<pdfrwt beam="1">  1        1 0.12706122E+00 0.65761412E+03</pdfrwt>
<pdfrwt beam="2">  1       -1 0.27607274E-01 0.65761412E+03</pdfrwt>
<totfact> 0.25187957E+02</totfact>
</mgrwt>
</event>
<event>
 5    0  0.2754780E-002  0.4892856E+03  0.7546771E-02  0.1016614E+00
         -1   -1    0    0    0  501 -0.00000000000E+00  0.00000000000E+00  0.37398902818E+02  0.37398902818E+02  0.00000000000E+00 0. -1.
          1   -1    0    0  502    0  0.00000000000E+00 -0.00000000000E+00 -0.20044244525E+04  0.20044244525E+04  0.00000000000E+00 0.  1.
         25    1    1    2    0    0 -0.52945636985E+02  0.21082404795E+03 -0.88510204971E+03  0.91993513797E+03  0.12500000000E+03 0.  0.
         21    1    1    2  502  503  0.87009078944E+02 -0.22064285280E+03 -0.71620843930E+03  0.75445899612E+03  0.00000000000E+00 0.  1.
         21    1    1    2  503  501 -0.34063441959E+02  0.98188048448E+01 -0.36571506066E+03  0.36742922121E+03  0.00000000000E+00 0.  1.
<mgrwt>
<rscale>  4 0.48928564E+03</rscale>
<asrwt>0</asrwt>
<pdfrwt beam="1">  1        1 0.30837310E+00 0.48928564E+03</pdfrwt>
<pdfrwt beam="2">  1       -1 0.57536753E-02 0.48928564E+03</pdfrwt>
<totfact> 0.46504912E+02</totfact>
</mgrwt>
</event>
<event>
 5    0  0.2754780E-002  0.4374465E+03  0.7546771E-02  0.1031533E+00
          2   -1    0    0  502    0  0.00000000000E+00  0.00000000000E+00  0.68258710092E+03  0.68258710092E+03  0.00000000000E+00 0.  1.
         -2   -1    0    0    0  501 -0.00000000000E+00 -0.00000000000E+00 -0.16041752596E+03  0.16041752596E+03  0.00000000000E+00 0. -1.
         25    1    1    2    0    0 -0.37806064862E+02 -0.20473037754E+03  0.33367071191E+03  0.41268022731E+03  0.12500000000E+03 0.  0.
         21    1    1    2  502  503 -0.27155918631E+02  0.21312571516E+02 -0.86679284893E+02  0.93300418278E+02  0.00000000000E+00 0. -1.
         21    1    1    2  503  501  0.64961983493E+02  0.18341780602E+03  0.27517814793E+03  0.33702398129E+03  0.00000000000E+00 0.  1.
<mgrwt>
<rscale>  4 0.43744653E+03</rscale>
<asrwt>0</asrwt>
<pdfrwt beam="1">  1        2 0.10501340E+00 0.43744653E+03</pdfrwt>
<pdfrwt beam="2">  1       -2 0.24679620E-01 0.43744653E+03</pdfrwt>
<totfact> 0.62819024E+02</totfact>
</mgrwt>
</event>
<event>
 5    0  0.2754780E-002  0.6245370E+03  0.7546771E-02  0.9855768E-01
         -2   -1    0    0    0  501 -0.00000000000E+00  0.00000000000E+00  0.12877603183E+03  0.12877603183E+03  0.00000000000E+00 0. -1.
          2   -1    0    0  502    0  0.00000000000E+00 -0.00000000000E+00 -0.87905359338E+03  0.87905359338E+03  0.00000000000E+00 0.  1.
         25    1    1    2    0    0 -0.24377411867E+03 -0.33519512117E+02 -0.84395302970E+02  0.28861210264E+03  0.12500000000E+03 0.  0.
         21    1    1    2  502  503  0.24331720133E+03  0.13046706493E+02 -0.55027547969E+03  0.60181108378E+03  0.00000000000E+00 0.  1.
         21    1    1    2  503  501  0.45691734294E+00  0.20472805624E+02 -0.11560677889E+03  0.11740643879E+03  0.00000000000E+00 0. -1.
<mgrwt>
<rscale>  4 0.62453699E+03</rscale>
<asrwt>0</asrwt>
<pdfrwt beam="1">  1        2 0.13523901E+00 0.62453699E+03</pdfrwt>
<pdfrwt beam="2">  1       -2 0.19811697E-01 0.62453699E+03</pdfrwt>
<totfact> 0.66266345E+02</totfact>
</mgrwt>
</event>
<event>
 5    0  0.2754780E-002  0.5088756E+03  0.7546771E-02  0.1011488E+00
          1   -1    0    0  503    0  0.00000000000E+00  0.00000000000E+00  0.14690725741E+03  0.14690725741E+03  0.00000000000E+00 0.  1.
         -1   -1    0    0    0  501 -0.00000000000E+00 -0.00000000000E+00 -0.44067655156E+03  0.44067655156E+03  0.00000000000E+00 0. -1.
         25    1    1    2    0    0  0.17000947874E+03  0.14591760716E+03 -0.77271423082E+02  0.26793850743E+03  0.12500000000E+03 0.  0.
         21    1    1    2  502  501 -0.30493228143E+02 -0.62848999993E+01 -0.72085179499E+01  0.31957779360E+02  0.00000000000E+00 0.  1.
         21    1    1    2  503  502 -0.13951625060E+03 -0.13963270716E+03 -0.20928935311E+03  0.28768752217E+03  0.00000000000E+00 0. -1.
<mgrwt>
<rscale>  4 0.50887556E+03</rscale>
<asrwt>0</asrwt>
<pdfrwt beam="1">  1        1 0.22601117E-01 0.50887556E+03</pdfrwt>
<pdfrwt beam="2">  1       -1 0.67796390E-01 0.50887556E+03</pdfrwt>
<totfact> 0.49737284E+02</totfact>
</mgrwt>
</event>
<event>
 5    0  0.2754780E-002  0.7958955E+03  0.7546771E-02  0.9565977E-01
          2   -1    0    0  503    0  0.00000000000E+00  0.00000000000E+00  0.74298784677E+03  0.74298784677E+03  0.00000000000E+00 0.  1.
         -2   -1    0    0    0  501 -0.00000000000E+00 -0.00000000000E+00 -0.98168605531E+03  0.98168605531E+03  0.00000000000E+00 0. -1.
         25    1    1    2    0    0 -0.16360277731E+03 -0.13836012774E+03  0.93807269112E+01  0.24823857825E+03  0.12500000000E+03 0.  0.
         21    1    1    2  502  501 -0.17717815356E+03  0.82163873640E+02  0.56244649857E+03  0.59538984203E+03  0.00000000000E+00 0.  1.
         21    1    1    2  503  502  0.34078093087E+03  0.56196254101E+02 -0.81052543403E+03  0.88104548181E+03  0.00000000000E+00 0. -1.
<mgrwt>
<rscale>  4 0.79589550E+03</rscale>
<asrwt>0</asrwt>
<pdfrwt beam="1">  1        2 0.11430582E+00 0.79589550E+03</pdfrwt>
<pdfrwt beam="2">  1       -2 0.15102862E+00 0.79589550E+03</pdfrwt>
<totfact> 0.11289727E+01</totfact>
</mgrwt>
</event>
<event>
 5    0  0.2754780E-002  0.5217787E+03  0.7546771E-02  0.1008246E+00
          1   -1    0    0  503    0  0.00000000000E+00  0.00000000000E+00  0.17307283795E+04  0.17307283795E+04  0.00000000000E+00 0.  1.
         -1   -1    0    0    0  501 -0.00000000000E+00 -0.00000000000E+00 -0.44591365056E+02  0.44591365056E+02  0.00000000000E+00 0. -1.
         25    1    1    2    0    0  0.45881522649E+02  0.22512689327E+03  0.53985003854E+03  0.59987523395E+03  0.12500000000E+03 0.  0.
         21    1    1    2  502  501  0.20924069502E+02 -0.10978686317E+01  0.18301388845E+03  0.18420940629E+03  0.00000000000E+00 0.  1.
         21    1    1    2  503  502 -0.66805592150E+02 -0.22402902463E+03  0.96327308742E+03  0.99123510429E+03  0.00000000000E+00 0.  1.
<mgrwt>
<rscale>  4 0.52177867E+03</rscale>
<asrwt>0</asrwt>
<pdfrwt beam="1">  1        1 0.26626585E+00 0.52177867E+03</pdfrwt>
<pdfrwt beam="2">  1       -1 0.68602113E-02 0.52177867E+03</pdfrwt>
<totfact> 0.53717581E+02</totfact>
</mgrwt>
</event>
<event>
 5    0  0.2754780E-002  0.5856900E+03  0.7546771E-02  0.9935548E-01
          1   -1    0    0  503    0  0.00000000000E+00  0.00000000000E+00  0.65169341588E+03  0.65169341588E+03  0.00000000000E+00 0.  1.
         -1   -1    0    0    0  501 -0.00000000000E+00 -0.00000000000E+00 -0.16609180352E+03  0.16609180352E+03  0.00000000000E+00 0. -1.
         25    1    1    2    0    0  0.25806272680E+03  0.50073102581E+02  0.19063013190E+03  0.34794903902E+03  0.12500000000E+03 0.  0.
         21    1    1    2  502  501  0.29116819905E+02  0.13966133724E+02  0.12698249623E+03  0.13102441162E+03  0.00000000000E+00 0.  1.
         21    1    1    2  503  502 -0.28717954670E+03 -0.64039236306E+02  0.16798898423E+03  0.33881176876E+03  0.00000000000E+00 0. -1.
<mgrwt>
<rscale>  4 0.58568997E+03</rscale>
<asrwt>0</asrwt>
<pdfrwt beam="1">  1        1 0.10026052E+00 0.58568997E+03</pdfrwt>
<pdfrwt beam="2">  1       -1 0.25552586E-01 0.58568997E+03</pdfrwt>
<totfact> 0.41499419E+02</totfact>
</mgrwt>
</event>
<event>
 5    0  0.2754780E-002  0.3968372E+03  0.7546771E-02  0.1044880E+00
          2   -1    0    0  502    0  0.00000000000E+00  0.00000000000E+00  0.12627883847E+04  0.12627883847E+04  0.00000000000E+00 0. -1.
         -2   -1    0    0    0  501 -0.00000000000E+00 -0.00000000000E+00 -0.29868085699E+03  0.29868085699E+03  0.00000000000E+00 0.  1.
         25    1    1    2    0    0 -0.20055394006E+03 -0.29187799600E+01 -0.12151345546E+03  0.26574597270E+03  0.12500000000E+03 0.  0.
         21    1    1    2  502  503  0.15676523613E+03 -0.21889883569E+02 -0.44547020866E+02  0.16443522533E+03  0.00000000000E+00 0. -1.
         21    1    1    2  503  501  0.43788703924E+02  0.24808663529E+02  0.11301680040E+04  0.11312880436E+04  0.00000000000E+00 0. -1.
<mgrwt>
<rscale>  4 0.39683722E+03</rscale>
<asrwt>0</asrwt>
<pdfrwt beam="1">  1        2 0.19427513E+00 0.39683722E+03</pdfrwt>
<pdfrwt beam="2">  1       -2 0.45950902E-01 0.39683722E+03</pdfrwt>
<totfact> 0.82748103E+01</totfact>
</mgrwt>
</event>
