<LesHouchesEvents version="3.0">
  <!--
  <scalesfunctionalform>
    muR  H_T/2 := sum_i mT(i)/2, i=final state
    muF1 H_T/2 := sum_i mT(i)/2, i=final state
    muF2 H_T/2 := sum_i mT(i)/2, i=final state
    QES  H_T/2 := sum_i mT(i)/2, i=final state
  </scalesfunctionalform>
HERWIG6   
  -->
  <header>
      135
  </header>
  <init>
   2212   2212 0.65000000D+04 0.65000000D+04 -1 -1   247000   247000 -3   1
 0.24085380D-01 0.81928027D-03 0.42934962D-03     66
  </init>
  <event>
  5     66 0.42934962E-03 0.20081434E+02 0.75467711E-02 0.10632460E+00
       -2 -1    0    0    0  501 0.00000000E+00 0.00000000E+00 0.67094890E+02 0.67095653E+02 0.32000000E+00 0.0000E+00 0.9000E+01
        2 -1    0    0  502    0 0.00000000E+00 0.00000000E+00 -.17192249E+04 0.17192249E+04 0.32000000E+00 0.0000E+00 0.9000E+01
       25  1    1    2    0    0 0.76527961E+02 -.27848326E+03 -.78926623E+03 0.84969150E+03 0.12500000E+03 0.0000E+00 0.9000E+01
       23  1    1    2    0    0 -.84825863E+02 0.29676641E+03 -.67616742E+03 0.74885470E+03 0.91188000E+02 0.0000E+00 0.9000E+01
       21  1    1    2  502  501 0.82979022E+01 -.18283146E+02 -.18669635E+03 0.18777439E+03 0.75000000E+00 0.0000E+00 0.9000E+01
#aMCatNLO 1  0  0  2  5 0.40131198D+02 0.00000000D+00  -5  6  0 0.00000000D+00 0.00000000D+00 0.00000000D+00 0.00000000D+00 0.00000000D+00
  <mgrwgt>
 0.7493241657D+00    7    4    0
 0.339634972235761D+03 0.000000000000000D+00 0.000000000000000D+00 0.339634972235761D+03
 0.339634972235761D+03 0.000000000000000D+00 0.000000000000000D+00 -.339634972235761D+03
 0.314823155308608D+03 0.765272751888088D+02 -.278481749351340D+03 -.895044964578579D+01
 0.324730150702976D+03 -.848265707810460D+02 0.296767965178562D+03 0.432162835616603D+02
 0.397166384599373D+02 0.829929559223721D+01 -.182862158272220D+02 -.342658339158746D+02
 0.000000000000000D+00 0.000000000000000D+00 -.000000000000000D+00 -.000000000000000D+00
 0.347779399454556D+03 0.000000000000000D+00 0.000000000000000D+00 0.347779399454556D+03
 0.393539855894957D+03 0.000000000000000D+00 0.000000000000000D+00 -.393539855894957D+03
 0.299913075705838D+03 0.647669913910873D+02 -.264665787846901D+03 -.895044964578579D+01
 0.341895903542135D+03 -.975795389474750D+02 0.311750130599506D+03 0.432162835616603D+02
 0.386454060660920D+02 0.680018127929844D+01 -.165250588692303D+02 -.342658339158746D+02
 0.608648700354480D+02 0.260123662770893D+02 -.305592838833746D+02 -.457604564404010D+02
 0.339634972235761D+03 0.000000000000000D+00 0.000000000000000D+00 0.339634972235761D+03
 0.339634972235761D+03 0.000000000000000D+00 0.000000000000000D+00 -.339634972235761D+03
 0.314823155308608D+03 0.765272751888088D+02 -.278481749351340D+03 -.895044964578579D+01
 0.324730150702976D+03 -.848265707810460D+02 0.296767965178562D+03 0.432162835616603D+02
 0.000000000000000D+00 0.000000000000000D+00 -.000000000000000D+00 -.000000000000000D+00
 0.397166384599373D+02 0.829929559223721D+01 -.182862158272220D+02 -.342658339158746D+02
 0.347779399454556D+03 0.000000000000000D+00 0.000000000000000D+00 0.347779399454556D+03
 0.393539855894957D+03 0.000000000000000D+00 0.000000000000000D+00 -.393539855894957D+03
 0.299913075705838D+03 0.647669913910873D+02 -.264665787846901D+03 -.895044964578579D+01
 0.341895903542135D+03 -.975795389474750D+02 0.311750130599506D+03 0.432162835616603D+02
 0.608648700354480D+02 0.260123662770893D+02 -.305592838833746D+02 -.457604564404010D+02
 0.386454060660920D+02 0.680018127929844D+01 -.165250588692303D+02 -.342658339158746D+02
0.144702175442D-02 0.000000000000D+00 0.000000000000D+00 0.177336001851D-04 0.000000000000D+00  6 -2 2 25 23 21 21 2 0.10322352D-01 0.26449620D+00 0.10778711D+06 0.10778711D+06 0.10778711D+06 0.11605918D+01  1  2  2  2  6  2        2 0.127673945462D+00 0.100000000000D+01
0.652141818491D-03 0.763614358927D-04 -.555694454655D-05 0.177336001851D-04 0.000000000000D+00  6 -2 2 25 23 21 21 4 0.10322352D-01 0.26449620D+00 0.10778711D+06 0.10778711D+06 0.10778711D+06 0.11605918D+01  1  2  3  2  6  2        2 0.775047401443D-01 0.100000000000D+01
0.791593586622D-05 0.000000000000D+00 0.000000000000D+00 0.177336001851D-04 0.000000000000D+00  6 -2 2 25 23 21 21 4 0.10322352D-01 0.26449620D+00 0.10778711D+06 0.10778711D+06 0.10778711D+06 0.11605918D+01  1  2 15  2  6  2        2 0.940780877585D-03 0.100000000000D+01
-.227306561440D-03 0.000000000000D+00 0.000000000000D+00 0.177336001851D-04 0.000000000000D+00  6 -2 2 25 23 21 21 4 0.10322352D-01 0.26449620D+00 0.10778711D+06 0.10778711D+06 0.10778711D+06 0.11605918D+01  1  2  4  2  6  2        2 -.270145779307D-01 0.100000000000D+01
-.156258917269D-01 0.000000000000D+00 -.238267211000D-02 0.177336001851D-04 0.000000000000D+00  6 -2 2 25 23 21 21 4 0.10322352D-01 0.30919290D+00 0.10778711D+06 0.10778711D+06 0.10778711D+06 0.11605918D+01  1  2  5  2  6  2        2 -.130296151722D+01 0.100000000000D+01
0.158332763238D-01 0.000000000000D+00 0.235392039088D-02 0.177336001851D-04 0.000000000000D+00  6 -2 2 25 23 21 21 4 0.10322352D-01 0.26449620D+00 0.10778711D+06 0.10778711D+06 0.10778711D+06 0.11605918D+01  1  2  6  2  6  2        2 0.188172868587D+01 0.100000000000D+01
-.350391910307D-03 0.000000000000D+00 -.561380461914D-04 0.177336001851D-04 0.000000000000D+00  6 -2 21 25 23 -2 21 4 0.10322352D-01 0.30919290D+00 0.10778711D+06 0.10778711D+06 0.10778711D+06 0.11605918D+01  3  4  5  5  5  2        2 -.854789154961D-02 0.100000000000D+01
  </mgrwgt>
  </event>
  <event>
  5     66 0.42934962E-03 0.46242651E+02 0.75467711E-02 0.12101761E+00
       -2 -1    0    0    0  501 0.00000000E+00 0.00000000E+00 0.88080920E+01 0.88139030E+01 0.32000000E+00 0.0000E+00 0.9000E+01
        2 -1    0    0  502    0 -.00000000E+00 -.00000000E+00 -.30812033E+04 0.30812033E+04 0.32000000E+00 0.0000E+00 0.9000E+01
       25  1    1    2    0    0 -.55393446E+02 -.36020847E+02 -.11739609E+04 0.11824446E+04 0.12500000E+03 0.0000E+00 0.9000E+01
       23  1    1    2    0    0 0.92846793E+01 0.24049153E+02 -.53645509E+03 0.54476039E+03 0.91188000E+02 0.0000E+00 0.9000E+01
       21  1    1    2  502  501 0.46108767E+02 0.11971694E+02 -.13619792E+04 0.13628123E+04 0.75000000E+00 0.0000E+00 0.9000E+01
#aMCatNLO 1  0  0  5  2 0.73313882D+01 0.00000000D+00  -5  6  0 0.00000000D+00 0.00000000D+00 0.00000000D+00 0.00000000D+00 0.00000000D+00
  <mgrwgt>
 0.8540325755D-01   25    2    0
 0.164768097998256D+03 0.000000000000000D+00 0.000000000000000D+00 0.164768097998256D+03
 0.164768097998256D+03 -.000000000000000D+00 -.000000000000000D+00 -.164768097998256D+03
 0.142328442753093D+03 -.553943075836376D+02 -.360210707844606D+02 0.163198885838913D+02
 0.106565054696507D+03 0.928403444423929D+01 0.240489860104985D+02 0.487474359815412D+02
 0.806426985469124D+02 0.461102731393983D+02 0.119720847739621D+02 -.650673245654325D+02
 0.000000000000000D+00 0.000000000000000D+00 0.000000000000000D+00 0.000000000000000D+00
 0.164768097998256D+03 0.000000000000000D+00 0.000000000000000D+00 0.164768097998256D+03
 0.164768097998256D+03 -.000000000000000D+00 -.000000000000000D+00 -.164768097998256D+03
 0.142122186055702D+03 -.550581373146142D+02 -.359337874377091D+02 0.158455105654037D+02
 0.106440075551251D+03 0.953576878646455D+01 0.241143463885758D+02 0.483922075468643D+02
 0.355843055188477D+02 0.182771038769916D+02 -.156413834947673D+01 -.304916995976290D+02
 0.453896288707111D+02 0.272452646511580D+02 0.133835793986100D+02 -.337460185146389D+02
0.535052958616D-04 0.000000000000D+00 0.000000000000D+00 0.716974534411D-05 0.000000000000D+00  6 -2 2 25 23 21 21 2 0.13555394D-02 0.47403173D+00 0.20134282D+05 0.20134282D+05 0.20134282D+05 0.12335062D+01  1  2  2  3  6  5       21 0.211296686609D-01 0.100000000000D+01
0.362975360467D-06 0.282355203533D-05 -.205474424377D-06 0.716974534411D-05 0.000000000000D+00  6 -2 2 25 23 21 21 4 0.13555394D-02 0.47403173D+00 0.20134282D+05 0.20134282D+05 0.20134282D+05 0.12335062D+01  1  2  3  3  6  5       21 0.218100046510D-03 0.100000000000D+01
0.192593857742D-05 0.000000000000D+00 0.000000000000D+00 0.716974534411D-05 0.000000000000D+00  6 -2 2 25 23 21 21 4 0.13555394D-02 0.47403173D+00 0.20134282D+05 0.20134282D+05 0.20134282D+05 0.12335062D+01  1  2 15  3  6  5       21 0.115723362812D-02 0.100000000000D+01
0.116945364962D-03 0.000000000000D+00 0.000000000000D+00 0.716604408653D-05 0.000000000000D+00  6 -2 2 25 23 21 21 4 0.13555394D-02 0.47403173D+00 0.20268987D+05 0.20268987D+05 0.20268987D+05 0.12331878D+01  1  2 12  3  6  5       21 0.701908058283D-01 0.100000000000D+01
0.112152178753D-03 0.000000000000D+00 0.000000000000D+00 0.716604408653D-05 0.000000000000D+00  6 -2 2 25 23 21 21 4 0.13555394D-02 0.47403173D+00 0.20268987D+05 0.20268987D+05 0.20268987D+05 0.12331878D+01  1  2 12  3  6  5       21 0.673139273593D-01 0.100000000000D+01
-.382084123228D-03 0.000000000000D+00 0.000000000000D+00 0.716974534411D-05 0.000000000000D+00  6 -2 2 25 23 21 21 4 0.13555394D-02 0.47403173D+00 0.20134282D+05 0.20134282D+05 0.20134282D+05 0.12335062D+01  1  2  4  3  6  5       21 -.229581878339D+00 0.100000000000D+01
-.227154541678D-03 0.000000000000D+00 0.000000000000D+00 0.716974534411D-05 0.000000000000D+00  6 -2 2 25 23 21 21 4 0.13555394D-02 0.47403173D+00 0.20134282D+05 0.20134282D+05 0.20134282D+05 0.12335062D+01  1  2  5  3  6  5       21 -.136489749721D+00 0.100000000000D+01
0.489355500141D-03 0.000000000000D+00 -.000000000000D+00 0.716974534411D-05 0.000000000000D+00  6 -2 2 25 23 21 21 4 0.13555394D-02 0.47403173D+00 0.20134282D+05 0.20134282D+05 0.20134282D+05 0.12335062D+01  1  2  6  3  6  5       21 0.294037747365D+00 0.100000000000D+01
0.553142607837D-05 0.000000000000D+00 0.000000000000D+00 0.716974534411D-05 0.744151166237D-06  6 -2 2 25 23 21 21 4 0.13555394D-02 0.47403173D+00 0.20268987D+05 0.20268987D+05 0.20268987D+05 0.12331878D+01  1  2 11  3  6  5       21 0.331997128700D-02 0.100000000000D+01
0.624843567959D-05 0.000000000000D+00 0.000000000000D+00 0.716604408653D-05 0.000000000000D+00  6 -2 2 25 23 1 -1 4 0.13555394D-02 0.47403173D+00 0.20268987D+05 0.20268987D+05 0.20268987D+05 0.12331878D+01  1  2 12  6  6  5       21 0.375032166226D-02 0.100000000000D+01
0.624843567959D-05 0.000000000000D+00 0.000000000000D+00 0.716604408653D-05 0.000000000000D+00  6 -2 2 25 23 3 -3 4 0.13555394D-02 0.47403173D+00 0.20268987D+05 0.20268987D+05 0.20268987D+05 0.12331878D+01  1  2 12  6  6  5       21 0.375032166226D-02 0.100000000000D+01
0.599846797397D-05 0.000000000000D+00 0.000000000000D+00 0.716604408653D-05 0.000000000000D+00  6 -2 2 25 23 1 -1 4 0.13555394D-02 0.47403173D+00 0.20268987D+05 0.20268987D+05 0.20268987D+05 0.12331878D+01  1  2 12  6  6  5       21 0.360029062261D-02 0.100000000000D+01
0.599846797397D-05 0.000000000000D+00 0.000000000000D+00 0.716604408653D-05 0.000000000000D+00  6 -2 2 25 23 3 -3 4 0.13555394D-02 0.47403173D+00 0.20268987D+05 0.20268987D+05 0.20268987D+05 0.12331878D+01  1  2 12  6  6  5       21 0.360029062261D-02 0.100000000000D+01
-.150349168223D-04 0.000000000000D+00 0.000000000000D+00 0.716974534411D-05 0.000000000000D+00  6 -2 2 25 23 1 -1 4 0.13555394D-02 0.47403173D+00 0.20134282D+05 0.20134282D+05 0.20134282D+05 0.12335062D+01  1  2  5  6  6  5       21 -.903399077555D-02 0.100000000000D+01
-.150349168223D-04 0.000000000000D+00 0.000000000000D+00 0.716974534411D-05 0.000000000000D+00  6 -2 2 25 23 3 -3 4 0.13555394D-02 0.47403173D+00 0.20134282D+05 0.20134282D+05 0.20134282D+05 0.12335062D+01  1  2  5  6  6  5       21 -.903399077555D-02 0.100000000000D+01
0.349029548312D-06 0.000000000000D+00 0.000000000000D+00 0.716974534411D-05 0.334438184740D-07  6 -2 2 25 23 1 -1 4 0.13555394D-02 0.47403173D+00 0.20268987D+05 0.20268987D+05 0.20268987D+05 0.12331878D+01  1  2 11  6  6  5       21 0.209488125177D-03 0.100000000000D+01
0.349029548312D-06 0.000000000000D+00 0.000000000000D+00 0.716974534411D-05 0.334438184740D-07  6 -2 2 25 23 3 -3 4 0.13555394D-02 0.47403173D+00 0.20268987D+05 0.20268987D+05 0.20268987D+05 0.12331878D+01  1  2 11  6  6  5       21 0.209488125177D-03 0.100000000000D+01
0.624843567959D-05 0.000000000000D+00 0.000000000000D+00 0.716604408653D-05 0.000000000000D+00  6 -2 2 25 23 2 -2 4 0.13555394D-02 0.47403173D+00 0.20268987D+05 0.20268987D+05 0.20268987D+05 0.12331878D+01  1  2 12  7  6  5       21 0.375032166226D-02 0.100000000000D+01
0.599846797397D-05 0.000000000000D+00 0.000000000000D+00 0.716604408653D-05 0.000000000000D+00  6 -2 2 25 23 2 -2 4 0.13555394D-02 0.47403173D+00 0.20268987D+05 0.20268987D+05 0.20268987D+05 0.12331878D+01  1  2 12  7  6  5       21 0.360029062261D-02 0.100000000000D+01
-.150349168223D-04 0.000000000000D+00 0.000000000000D+00 0.716974534411D-05 0.000000000000D+00  6 -2 2 25 23 2 -2 4 0.13555394D-02 0.47403173D+00 0.20134282D+05 0.20134282D+05 0.20134282D+05 0.12335062D+01  1  2  5  7  6  5       21 -.903399077555D-02 0.100000000000D+01
0.353088526782D-06 0.000000000000D+00 0.000000000000D+00 0.716974534411D-05 0.354460311924D-07  6 -2 2 25 23 2 -2 4 0.13555394D-02 0.47403173D+00 0.20268987D+05 0.20268987D+05 0.20268987D+05 0.12331878D+01  1  2 11  7  6  5       21 0.211924330919D-03 0.100000000000D+01
0.624843567959D-05 0.000000000000D+00 0.000000000000D+00 0.716604408653D-05 0.000000000000D+00  6 -2 2 25 23 4 -4 4 0.13555394D-02 0.47403173D+00 0.20268987D+05 0.20268987D+05 0.20268987D+05 0.12331878D+01  1  2 12  8  6  5       21 0.375032166226D-02 0.100000000000D+01
0.599846797397D-05 0.000000000000D+00 0.000000000000D+00 0.716604408653D-05 0.000000000000D+00  6 -2 2 25 23 4 -4 4 0.13555394D-02 0.47403173D+00 0.20268987D+05 0.20268987D+05 0.20268987D+05 0.12331878D+01  1  2 12  8  6  5       21 0.360029062261D-02 0.100000000000D+01
-.150349168223D-04 0.000000000000D+00 0.000000000000D+00 0.716974534411D-05 0.000000000000D+00  6 -2 2 25 23 4 -4 4 0.13555394D-02 0.47403173D+00 0.20134282D+05 0.20134282D+05 0.20134282D+05 0.12335062D+01  1  2  5  8  6  5       21 -.903399077555D-02 0.100000000000D+01
0.349957051188D-06 0.000000000000D+00 0.000000000000D+00 0.716974534411D-05 0.335326912871D-07  6 -2 2 25 23 4 -4 4 0.13555394D-02 0.47403173D+00 0.20268987D+05 0.20268987D+05 0.20268987D+05 0.12331878D+01  1  2 11  8  6  5       21 0.210044813971D-03 0.100000000000D+01
  </mgrwgt>
  </event>
  <event>
  5     66 0.42934962E-03 0.45207071E+02 0.75467711E-02 0.12109741E+00
       -2 -1    0    0    0  501 0.00000000E+00 0.00000000E+00 0.25463775E+02 0.25465785E+02 0.32000000E+00 0.0000E+00 0.9000E+01
        2 -1    0    0  502    0 0.00000000E+00 0.00000000E+00 -.16538451E+04 0.16538451E+04 0.32000000E+00 0.0000E+00 0.9000E+01
       25  1    1    2    0    0 0.55781632E+01 0.75867119E+01 -.14139952E+04 0.14195408E+04 0.12500000E+03 0.0000E+00 0.9000E+01
       23  1    1    2    0    0 0.38992058E+02 -.15128420E+02 -.13202592E+03 0.16581720E+03 0.91188000E+02 0.0000E+00 0.9000E+01
       21  1    1    2  502  501 -.44570221E+02 0.75417077E+01 -.82360163E+02 0.93952866E+02 0.75000000E+00 0.0000E+00 0.9000E+01
#aMCatNLO 1  0  0  2  2 0.12069825D+02 0.00000000D+00  -5  6  0 0.00000000D+00 0.00000000D+00 0.00000000D+00 0.00000000D+00 0.00000000D+00
  <mgrwgt>
 0.1576187186D+00    7    4    0
 0.205219034755690D+03 0.000000000000000D+00 0.000000000000000D+00 0.205219034755690D+03
 0.205219034755690D+03 0.000000000000000D+00 0.000000000000000D+00 -.205219034755690D+03
 0.198147980532693D+03 0.557998419785200D+01 0.758640377641022D+01 -.153456614205050D+03
 0.154639395940991D+03 0.389934788219298D+02 -.151286601186192D+02 0.117680600293225D+03
 0.576506930376951D+02 -.445734630197818D+02 0.754225634220894D+01 0.357760139118250D+02
 0.000000000000000D+00 -.000000000000000D+00 0.000000000000000D+00 -.000000000000000D+00
 0.209336534694731D+03 0.000000000000000D+00 0.000000000000000D+00 0.209336534694731D+03
 0.214347741097088D+03 0.000000000000000D+00 0.000000000000000D+00 -.214347741097088D+03
 0.198251740800327D+03 0.104898251569255D+02 0.444790459203199D+01 -.153456614205050D+03
 0.155912022572334D+03 0.428399953365924D+02 -.175874544145232D+02 0.117680600293225D+03
 0.564517375420151D+02 -.431601805247635D+02 0.663884908423778D+01 0.357760139118250D+02
 0.130687748771429D+02 -.101696399687544D+02 0.650070073825341D+01 -.501120640235721D+01
 0.205219034755690D+03 0.000000000000000D+00 0.000000000000000D+00 0.205219034755690D+03
 0.205219034755690D+03 0.000000000000000D+00 0.000000000000000D+00 -.205219034755690D+03
 0.198147980532693D+03 0.557998419785200D+01 0.758640377641022D+01 -.153456614205050D+03
 0.154639395940991D+03 0.389934788219298D+02 -.151286601186192D+02 0.117680600293225D+03
 0.000000000000000D+00 -.000000000000000D+00 0.000000000000000D+00 -.000000000000000D+00
 0.576506930376951D+02 -.445734630197818D+02 0.754225634220894D+01 0.357760139118250D+02
 0.209336534694731D+03 0.000000000000000D+00 0.000000000000000D+00 0.209336534694731D+03
 0.214347741097088D+03 0.000000000000000D+00 0.000000000000000D+00 -.214347741097088D+03
 0.198251740800327D+03 0.104898251569255D+02 0.444790459203199D+01 -.153456614205050D+03
 0.155912022572334D+03 0.428399953365924D+02 -.175874544145232D+02 0.117680600293225D+03
 0.130687748771429D+02 -.101696399687544D+02 0.650070073825341D+01 -.501120640235721D+01
 0.564517375420151D+02 -.431601805247635D+02 0.663884908423778D+01 0.357760139118250D+02
0.129425877958D-03 0.000000000000D+00 0.000000000000D+00 0.252925827567D-05 0.000000000000D+00  6 -2 2 25 23 21 21 2 0.39176608D-02 0.25443786D+00 0.18344522D+05 0.18344522D+05 0.18344522D+05 0.12379786D+01  1  2  2  2  6  2        2 0.633271739329D-01 0.100000000000D+01
-.115824094217D-05 0.682999122325D-05 -.497029449974D-06 0.252925827567D-05 0.000000000000D+00  6 -2 2 25 23 21 21 4 0.39176608D-02 0.25443786D+00 0.18344522D+05 0.18344522D+05 0.18344522D+05 0.12379786D+01  1  2  3  2  6  2        2 -.868548668920D-03 0.100000000000D+01
0.498515935027D-05 0.000000000000D+00 0.000000000000D+00 0.252925827567D-05 0.000000000000D+00  6 -2 2 25 23 21 21 4 0.39176608D-02 0.25443786D+00 0.18344522D+05 0.18344522D+05 0.18344522D+05 0.12379786D+01  1  2 15  2  6  2        2 0.373830121212D-02 0.100000000000D+01
-.251261109692D-03 0.000000000000D+00 0.000000000000D+00 0.252925827567D-05 0.000000000000D+00  6 -2 2 25 23 21 21 4 0.39176608D-02 0.25443786D+00 0.18344522D+05 0.18344522D+05 0.18344522D+05 0.12379786D+01  1  2  4  2  6  2        2 -.188417188885D+00 0.100000000000D+01
-.352686910338D-02 0.000000000000D+00 -.594620013582D-03 0.252925827567D-05 0.000000000000D+00  6 -2 2 25 23 21 21 4 0.39176608D-02 0.26838277D+00 0.18344522D+05 0.18344522D+05 0.18344522D+05 0.12379786D+01  1  2  5  2  6  2        2 -.237654812739D+01 0.100000000000D+01
0.355438111600D-02 0.000000000000D+00 0.593774565808D-03 0.252925827567D-05 0.000000000000D+00  6 -2 2 25 23 21 21 4 0.39176608D-02 0.25443786D+00 0.18344522D+05 0.18344522D+05 0.18344522D+05 0.12379786D+01  1  2  6  2  6  2        2 0.266538064296D+01 0.100000000000D+01
-.320326564259D-04 0.000000000000D+00 -.550064575761D-05 0.252925827567D-05 0.000000000000D+00  6 -2 21 25 23 -2 21 4 0.39176608D-02 0.26838277D+00 0.18344522D+05 0.18344522D+05 0.18344522D+05 0.12379786D+01  3  4  5  5  5  2        2 -.899353460467D-02 0.100000000000D+01
  </mgrwgt>
  </event>
  <event>
  5     66 -.42934962E-03 0.27708668E+02 0.75467711E-02 0.12026626E+00
       -2 -1    0    0    0  501 0.00000000E+00 0.00000000E+00 0.16074845E+03 0.16074876E+03 0.32000000E+00 0.0000E+00 0.9000E+01
        2 -1    0    0  502    0 0.00000000E+00 0.00000000E+00 -.15316308E+03 0.15316341E+03 0.32000000E+00 0.0000E+00 0.9000E+01
       25  1    1    2    0    0 0.56616094E+02 0.55806899E+02 0.55013681E+02 0.15802309E+03 0.12500000E+03 0.0000E+00 0.9000E+01
       23  1    1    2    0    0 -.33713627E+02 -.71389768E+02 -.35614044E+02 0.12576454E+03 0.91188000E+02 0.0000E+00 0.9000E+01
       21  1    1    2  502  501 -.22902467E+02 0.15582869E+02 -.11814267E+02 0.30124544E+02 0.75000000E+00 0.0000E+00 0.9000E+01
#aMCatNLO 1  0  0  5  1 0.59410421D+01 0.00000000D+00  -5  6  0 0.00000000D+00 0.00000000D+00 0.00000000D+00 0.00000000D+00 0.00000000D+00
  <mgrwgt>
 -.3953583909D-01   20    2    0
 0.156910256689901D+03 0.000000000000000D+00 0.000000000000000D+00 0.156910256689901D+03
 0.156910256689901D+03 -.000000000000000D+00 -.000000000000000D+00 -.156910256689901D+03
 0.156740543592854D+03 0.566195723283422D+02 0.558045320755928D+02 0.512120711840794D+02
 0.126661959732219D+03 -.337108162157266D+02 -.713916803535651D+02 -.386627669156009D+02
 0.304180100547299D+02 -.229087561126156D+02 0.155871482779723D+02 -.125493042684785D+02
 0.000000000000000D+00 0.000000000000000D+00 0.000000000000000D+00 0.000000000000000D+00
 0.156910256689901D+03 0.000000000000000D+00 0.000000000000000D+00 0.156910256689901D+03
 0.156910256689901D+03 -.000000000000000D+00 -.000000000000000D+00 -.156910256689901D+03
 0.156318562870225D+03 0.551653746343192D+02 0.567939701302300D+02 0.504154688177569D+02
 0.126730267822651D+03 -.348878539871454D+02 -.705908222807091D+02 -.393075424353373D+02
 0.235076252117677D+02 -.163062374934773D+02 0.874708570035204D+01 -.144983983133982D+02
 0.726405747515930D+01 -.397128315369660D+01 0.504976645012710D+01 0.339047193097864D+01
0.108406439562D-03 0.000000000000D+00 0.000000000000D+00 0.138975120257D-04 0.000000000000D+00  6 -2 2 25 23 21 21 2 0.24730580D-01 0.23563600D-01 0.21972693D+05 0.21972693D+05 0.21972693D+05 0.12293536D+01  1  2  2  3  6  5       21 0.528505107993D-01 0.100000000000D+01
0.174928821451D-04 0.572076498482D-05 -.416309271988D-06 0.138975120257D-04 0.000000000000D+00  6 -2 2 25 23 21 21 4 0.24730580D-01 0.23563600D-01 0.21972693D+05 0.21972693D+05 0.21972693D+05 0.12293536D+01  1  2  3  3  6  5       21 0.128887009754D-01 0.100000000000D+01
0.179271912306D-05 0.000000000000D+00 0.000000000000D+00 0.138975120257D-04 0.000000000000D+00  6 -2 2 25 23 21 21 4 0.24730580D-01 0.23563600D-01 0.21972693D+05 0.21972693D+05 0.21972693D+05 0.12293536D+01  1  2 15  3  6  5       21 0.132086985543D-02 0.100000000000D+01
0.418600873164D-04 0.000000000000D+00 0.000000000000D+00 0.139199462659D-04 0.000000000000D+00  6 -2 2 25 23 21 21 4 0.24730580D-01 0.23563600D-01 0.21517090D+05 0.21517090D+05 0.21517090D+05 0.12303455D+01  1  2 12  3  6  5       21 0.309253309668D-01 0.100000000000D+01
0.394138944117D-04 0.000000000000D+00 0.000000000000D+00 0.139199462659D-04 0.000000000000D+00  6 -2 2 25 23 21 21 4 0.24730580D-01 0.23563600D-01 0.21517090D+05 0.21517090D+05 0.21517090D+05 0.12303455D+01  1  2 12  3  6  5       21 0.291181363326D-01 0.100000000000D+01
-.324075538287D-03 0.000000000000D+00 0.000000000000D+00 0.138975120257D-04 0.000000000000D+00  6 -2 2 25 23 21 21 4 0.24730580D-01 0.23563600D-01 0.21972693D+05 0.21972693D+05 0.21972693D+05 0.12293536D+01  1  2  4  3  6  5       21 -.238777845284D+00 0.100000000000D+01
-.200814832016D-03 0.000000000000D+00 0.000000000000D+00 0.138975120257D-04 0.000000000000D+00  6 -2 2 25 23 21 21 4 0.24730580D-01 0.23563600D-01 0.21972693D+05 0.21972693D+05 0.21972693D+05 0.12293536D+01  1  2  5  3  6  5       21 -.147959741557D+00 0.100000000000D+01
0.294408952202D-03 0.000000000000D+00 -.000000000000D+00 0.138975120257D-04 0.000000000000D+00  6 -2 2 25 23 21 21 4 0.24730580D-01 0.23563600D-01 0.21972693D+05 0.21972693D+05 0.21972693D+05 0.12293536D+01  1  2  6  3  6  5       21 0.216919597235D+00 0.100000000000D+01
0.139084451883D-05 0.000000000000D+00 0.000000000000D+00 0.139199462659D-04 0.000000000000D+00  6 -2 2 25 23 1 -1 4 0.24730580D-01 0.23563600D-01 0.21517090D+05 0.21517090D+05 0.21517090D+05 0.12303455D+01  1  2 12  6  6  5       21 0.102752597583D-02 0.100000000000D+01
0.139084451883D-05 0.000000000000D+00 0.000000000000D+00 0.139199462659D-04 0.000000000000D+00  6 -2 2 25 23 3 -3 4 0.24730580D-01 0.23563600D-01 0.21517090D+05 0.21517090D+05 0.21517090D+05 0.12303455D+01  1  2 12  6  6  5       21 0.102752597583D-02 0.100000000000D+01
0.134028397014D-05 0.000000000000D+00 0.000000000000D+00 0.139199462659D-04 0.000000000000D+00  6 -2 2 25 23 1 -1 4 0.24730580D-01 0.23563600D-01 0.21517090D+05 0.21517090D+05 0.21517090D+05 0.12303455D+01  1  2 12  6  6  5       21 0.990172931383D-03 0.100000000000D+01
0.134028397014D-05 0.000000000000D+00 0.000000000000D+00 0.139199462659D-04 0.000000000000D+00  6 -2 2 25 23 3 -3 4 0.24730580D-01 0.23563600D-01 0.21517090D+05 0.21517090D+05 0.21517090D+05 0.12303455D+01  1  2 12  6  6  5       21 0.990172931383D-03 0.100000000000D+01
-.165995343466D-05 0.000000000000D+00 0.000000000000D+00 0.138975120257D-04 0.000000000000D+00  6 -2 2 25 23 1 -1 4 0.24730580D-01 0.23563600D-01 0.21972693D+05 0.21972693D+05 0.21972693D+05 0.12293536D+01  1  2  5  6  6  5       21 -.122304851053D-02 0.100000000000D+01
-.165995343466D-05 0.000000000000D+00 0.000000000000D+00 0.138975120257D-04 0.000000000000D+00  6 -2 2 25 23 3 -3 4 0.24730580D-01 0.23563600D-01 0.21972693D+05 0.21972693D+05 0.21972693D+05 0.12293536D+01  1  2  5  6  6  5       21 -.122304851053D-02 0.100000000000D+01
0.139084451883D-05 0.000000000000D+00 0.000000000000D+00 0.139199462659D-04 0.000000000000D+00  6 -2 2 25 23 2 -2 4 0.24730580D-01 0.23563600D-01 0.21517090D+05 0.21517090D+05 0.21517090D+05 0.12303455D+01  1  2 12  7  6  5       21 0.102752597583D-02 0.100000000000D+01
0.134028397014D-05 0.000000000000D+00 0.000000000000D+00 0.139199462659D-04 0.000000000000D+00  6 -2 2 25 23 2 -2 4 0.24730580D-01 0.23563600D-01 0.21517090D+05 0.21517090D+05 0.21517090D+05 0.12303455D+01  1  2 12  7  6  5       21 0.990172931383D-03 0.100000000000D+01
-.165995343466D-05 0.000000000000D+00 0.000000000000D+00 0.138975120257D-04 0.000000000000D+00  6 -2 2 25 23 2 -2 4 0.24730580D-01 0.23563600D-01 0.21972693D+05 0.21972693D+05 0.21972693D+05 0.12293536D+01  1  2  5  7  6  5       21 -.122304851053D-02 0.100000000000D+01
0.139084451883D-05 0.000000000000D+00 0.000000000000D+00 0.139199462659D-04 0.000000000000D+00  6 -2 2 25 23 4 -4 4 0.24730580D-01 0.23563600D-01 0.21517090D+05 0.21517090D+05 0.21517090D+05 0.12303455D+01  1  2 12  8  6  5       21 0.102752597583D-02 0.100000000000D+01
0.134028397014D-05 0.000000000000D+00 0.000000000000D+00 0.139199462659D-04 0.000000000000D+00  6 -2 2 25 23 4 -4 4 0.24730580D-01 0.23563600D-01 0.21517090D+05 0.21517090D+05 0.21517090D+05 0.12303455D+01  1  2 12  8  6  5       21 0.990172931383D-03 0.100000000000D+01
-.165995343466D-05 0.000000000000D+00 0.000000000000D+00 0.138975120257D-04 0.000000000000D+00  6 -2 2 25 23 4 -4 4 0.24730580D-01 0.23563600D-01 0.21972693D+05 0.21972693D+05 0.21972693D+05 0.12293536D+01  1  2  5  8  6  5       21 -.122304851053D-02 0.100000000000D+01
  </mgrwgt>
  </event>
  <event>
  6     66 0.42934962E-03 0.48260966E+02 0.75467711E-02 0.11101641E+00
       21 -1    0    0  503  501 0.00000000E+00 0.00000000E+00 0.10755221E+04 0.10755223E+04 0.75000000E+00 0.0000E+00 0.9000E+01
        2 -1    0    0  502    0 0.00000000E+00 0.00000000E+00 -.21833849E+03 0.21833873E+03 0.32000000E+00 0.0000E+00 0.9000E+01
       25  1    1    2    0    0 -.70809030E+02 -.94626641E+02 -.51411678E+02 0.17954465E+03 0.12500000E+03 0.0000E+00 0.9000E+01
       23  1    1    2    0    0 0.13360707E+03 0.16476721E+03 0.67599393E+02 0.24059097E+03 0.91188000E+02 0.0000E+00 0.9000E+01
        2  1    1    2  503    0 -.60414652E+02 -.30964986E+02 0.83025689E+03 0.83302783E+03 0.32000000E+00 0.0000E+00 0.9000E+01
       21  1    1    2  502  501 -.23833868E+01 -.39175589E+02 0.10738959E+02 0.40697604E+02 0.75000000E+00 0.0000E+00 0.9000E+01
#aMCatNLO 2  0  0  1  1 0.67887853D+02 0.00000000D+00  -5  6  0 0.00000000D+00 0.00000000D+00 0.00000000D+00 0.00000000D+00 0.00000000D+00
  <mgrwgt>
 0.6140719069D-01    1    2    0
 0.227504642570073D+03 0.000000000000000D+00 0.000000000000000D+00 0.227504642570073D+03
 0.227504642570073D+03 0.000000000000000D+00 0.000000000000000D+00 -.227504642570073D+03
 0.200725119786406D+03 -.961341121057079D+02 -.107604301609747D+03 -.620090354544638D+02
 0.210719284248094D+03 0.104044958222072D+03 0.149618026582621D+03 0.536326225362765D+02
 0.000000000000000D+00 -.000000000000000D+00 -.000000000000000D+00 0.000000000000000D+00
 0.435648811056460D+02 -.791084611636385D+01 -.420137249728741D+02 0.837641291818727D+01
 0.101441209581952D+04 0.000000000000000D+00 0.000000000000000D+00 0.101441209581952D+04
 0.231491840284521D+03 0.000000000000000D+00 0.000000000000000D+00 -.231491840284521D+03
 0.182859761618497D+03 -.708087020580402D+02 -.946239909010203D+02 -.620090354544638D+02
 0.237048565217450D+03 0.133607917930870D+03 0.164770255184941D+03 0.536326225362765D+02
 0.785858057839562D+03 -.604146522787366D+02 -.309649856196461D+02 0.782920255534996D+03
 0.401375514285289D+02 -.238456359409308D+01 -.391812786642748D+02 0.837641291818727D+01
0.747483563937D-03 0.000000000000D+00 0.000000000000D+00 0.438945177486D-05 0.383574827580D-08  6 21 2 25 23 2 21 4 0.16546495D+00 0.33590571D-01 0.65042386D+05 0.65042386D+05 0.65042386D+05 0.11811322D+01  1  2  1  4  5  1       -2 0.614071906882D-01 0.100000000000D+01
  </mgrwgt>
  </event>
  <event>
  5     66 0.42934962E-03 0.28026497E+02 0.75467711E-02 0.11276296E+00
       -2 -1    0    0    0  501 0.00000000E+00 0.00000000E+00 0.17808537E+03 0.17808565E+03 0.32000000E+00 0.0000E+00 0.9000E+01
        2 -1    0    0  502    0 -.00000000E+00 -.00000000E+00 -.42789890E+03 0.42789902E+03 0.32000000E+00 0.0000E+00 0.9000E+01
       25  1    1    2    0    0 -.94610720E+02 0.16399154E+03 -.17390967E+03 0.28585658E+03 0.12500000E+03 0.0000E+00 0.9000E+01
       23  1    1    2    0    0 0.66830704E+02 -.16769640E+03 -.14281018E+03 0.24758518E+03 0.91188000E+02 0.0000E+00 0.9000E+01
       21  1    1    2  502  501 0.27780016E+02 0.37048537E+01 0.66906316E+02 0.72542904E+02 0.75000000E+00 0.0000E+00 0.9000E+01
#aMCatNLO 1  0  0  5  1 0.19729677D+00 0.00000000D+00  -5  6  0 0.00000000D+00 0.00000000D+00 0.00000000D+00 0.00000000D+00 0.00000000D+00
  <mgrwgt>
 0.1352227103D+00   15    2    0
 0.276048284271026D+03 0.000000000000000D+00 0.000000000000000D+00 0.276048284271026D+03
 0.276048284271026D+03 -.000000000000000D+00 -.000000000000000D+00 -.276048284271026D+03
 0.235067425529800D+03 -.946109956060660D+02 0.163991504796863D+03 -.615405590655256D+02
 0.207132227857775D+03 0.668304612761817D+02 -.167696427604152D+03 -.447225456312988D+02
 0.109896915154476D+03 0.277805343298842D+02 0.370492280728825D+01 0.106263104696825D+03
 0.000000000000000D+00 0.000000000000000D+00 0.000000000000000D+00 0.000000000000000D+00
 0.276048284271026D+03 0.000000000000000D+00 0.000000000000000D+00 0.276048284271026D+03
 0.276048284271026D+03 -.000000000000000D+00 -.000000000000000D+00 -.276048284271026D+03
 0.235064075775652D+03 -.946084400573596D+02 0.163991845615027D+03 -.615307838561466D+02
 0.207130851678098D+03 0.668327131343832D+02 -.167696127287365D+03 -.447139320660958D+02
 0.109063932789924D+03 0.275407932236908D+02 0.348223209725967D+01 0.105471892956540D+03
 0.837708298377018D+00 0.234933699285697D+00 0.222049575078300D+00 0.772822965702498D+00
0.118530047686D-03 0.000000000000D+00 0.000000000000D+00 0.119861374227D-04 0.000000000000D+00  6 -2 2 25 23 21 21 2 0.27397780D-01 0.65830631D-01 0.52244660D+05 0.52244660D+05 0.52244660D+05 0.11903976D+01  1  2  2  3  6  5       21 0.150314132303D-01 0.100000000000D+01
0.267714852265D-04 0.625500246285D-05 -.455186592791D-06 0.119861374227D-04 0.000000000000D+00  6 -2 2 25 23 21 21 4 0.27397780D-01 0.65830631D-01 0.52244660D+05 0.52244660D+05 0.52244660D+05 0.11903976D+01  1  2  3  3  6  5       21 0.481091715398D-02 0.100000000000D+01
0.295658229567D-05 0.000000000000D+00 0.000000000000D+00 0.119861374227D-04 0.000000000000D+00  6 -2 2 25 23 21 21 4 0.27397780D-01 0.65830631D-01 0.52244660D+05 0.52244660D+05 0.52244660D+05 0.11903976D+01  1  2 15  3  6  5       21 0.531306812568D-03 0.100000000000D+01
-.124718608738D+00 0.000000000000D+00 0.000000000000D+00 0.119861374227D-04 0.000000000000D+00  6 -2 2 25 23 21 21 4 0.27397780D-01 0.65830631D-01 0.52244660D+05 0.52244660D+05 0.52244660D+05 0.11903976D+01  1  2  4  3  6  5       21 -.224123125453D+02 0.100000000000D+01
-.185761185151D+00 0.000000000000D+00 0.000000000000D+00 0.119861374227D-04 0.000000000000D+00  6 -2 2 25 23 21 21 4 0.27397780D-01 0.65830631D-01 0.52244660D+05 0.52244660D+05 0.52244660D+05 0.11903976D+01  1  2  5  3  6  5       21 -.333818488078D+02 0.100000000000D+01
0.187499359607D+00 0.000000000000D+00 -.000000000000D+00 0.119861374227D-04 0.000000000000D+00  6 -2 2 25 23 21 21 4 0.27397780D-01 0.65830631D-01 0.52244660D+05 0.52244660D+05 0.52244660D+05 0.11903976D+01  1  2  6  3  6  5       21 0.336942040332D+02 0.100000000000D+01
0.123629781359D+00 0.000000000000D+00 0.000000000000D+00 0.119861374227D-04 0.178713088822D-02  6 -2 2 25 23 21 21 4 0.27397780D-01 0.65830631D-01 0.52257577D+05 0.52257577D+05 0.52257577D+05 0.11903870D+01  1  2 11  3  6  5       21 0.222158778170D+02 0.100000000000D+01
-.118434936051D-03 0.000000000000D+00 0.000000000000D+00 0.119861374227D-04 0.000000000000D+00  6 -2 2 25 23 1 -1 4 0.27397780D-01 0.65830631D-01 0.52244660D+05 0.52244660D+05 0.52244660D+05 0.11903976D+01  1  2  5  6  6  5       21 -.212831174908D-01 0.100000000000D+01
-.118434936051D-03 0.000000000000D+00 0.000000000000D+00 0.119861374227D-04 0.000000000000D+00  6 -2 2 25 23 3 -3 4 0.27397780D-01 0.65830631D-01 0.52244660D+05 0.52244660D+05 0.52244660D+05 0.11903976D+01  1  2  5  6  6  5       21 -.212831174908D-01 0.100000000000D+01
0.116935608079D-03 0.000000000000D+00 0.000000000000D+00 0.119861374227D-04 0.320089220249D-05  6 -2 2 25 23 1 -1 4 0.27397780D-01 0.65830631D-01 0.52257577D+05 0.52257577D+05 0.52257577D+05 0.11903870D+01  1  2 11  6  6  5       21 0.210129562067D-01 0.100000000000D+01
0.116935608079D-03 0.000000000000D+00 0.000000000000D+00 0.119861374227D-04 0.320089220249D-05  6 -2 2 25 23 3 -3 4 0.27397780D-01 0.65830631D-01 0.52257577D+05 0.52257577D+05 0.52257577D+05 0.11903870D+01  1  2 11  6  6  5       21 0.210129562067D-01 0.100000000000D+01
-.118434936051D-03 0.000000000000D+00 0.000000000000D+00 0.119861374227D-04 0.000000000000D+00  6 -2 2 25 23 2 -2 4 0.27397780D-01 0.65830631D-01 0.52244660D+05 0.52244660D+05 0.52244660D+05 0.11903976D+01  1  2  5  7  6  5       21 -.212831174908D-01 0.100000000000D+01
0.116987950051D-03 0.000000000000D+00 0.000000000000D+00 0.119861374227D-04 0.338036773022D-05  6 -2 2 25 23 2 -2 4 0.27397780D-01 0.65830631D-01 0.52257577D+05 0.52257577D+05 0.52257577D+05 0.11903870D+01  1  2 11  7  6  5       21 0.210223618922D-01 0.100000000000D+01
-.118434936051D-03 0.000000000000D+00 0.000000000000D+00 0.119861374227D-04 0.000000000000D+00  6 -2 2 25 23 4 -4 4 0.27397780D-01 0.65830631D-01 0.52244660D+05 0.52244660D+05 0.52244660D+05 0.11903976D+01  1  2  5  8  6  5       21 -.212831174908D-01 0.100000000000D+01
0.116934581009D-03 0.000000000000D+00 0.000000000000D+00 0.119861374227D-04 0.320086408839D-05  6 -2 2 25 23 4 -4 4 0.27397780D-01 0.65830631D-01 0.52257577D+05 0.52257577D+05 0.52257577D+05 0.11903870D+01  1  2 11  8  6  5       21 0.210127716455D-01 0.100000000000D+01
  </mgrwgt>
  </event>
  <event>
  5     66 -.42934962E-03 0.20191508E+02 0.75467711E-02 0.12419792E+00
       -4 -1    0    0    0  501 0.00000000E+00 0.00000000E+00 0.13526421E+03 0.13527309E+03 0.15500000E+01 0.0000E+00 0.9000E+01
        4 -1    0    0  502    0 0.00000000E+00 0.00000000E+00 -.11134477E+03 0.11135556E+03 0.15500000E+01 0.0000E+00 0.9000E+01
       25  1    1    2    0    0 0.86503489E+01 -.24344160E+02 0.34940841E+02 0.13233793E+03 0.12500000E+03 0.0000E+00 0.9000E+01
       23  1    1    2    0    0 0.10485638E+02 0.17940656E+02 -.10211651E+02 0.94081586E+02 0.91188000E+02 0.0000E+00 0.9000E+01
       21  1    1    2  502  501 -.19135987E+02 0.64035038E+01 -.80975255E+00 0.20209133E+02 0.75000000E+00 0.0000E+00 0.9000E+01
#aMCatNLO 1  0  0  5  2 0.22735048D+01 0.00000000D+00  -5  6  0 0.00000000D+00 0.00000000D+00 0.00000000D+00 0.00000000D+00 0.00000000D+00
  <mgrwgt>
 -.3870020302D+00   20    2    0
 0.122732996326240D+03 0.000000000000000D+00 0.000000000000000D+00 0.122732996326240D+03
 0.122732996326240D+03 -.000000000000000D+00 -.000000000000000D+00 -.122732996326240D+03
 0.129561007278337D+03 0.865719288986874D+01 -.243464501767964D+02 0.222116631982752D+02
 0.955223705469700D+02 0.104906836983245D+02 0.179389676290182D+02 -.194270668619684D+02
 0.203826148271740D+02 -.191478765881932D+02 0.640748254777820D+01 -.278459633630683D+01
 0.000000000000000D+00 0.000000000000000D+00 0.000000000000000D+00 -.000000000000000D+00
 0.122732996326240D+03 0.000000000000000D+00 0.000000000000000D+00 0.122732996326240D+03
 0.122732996326240D+03 -.000000000000000D+00 -.000000000000000D+00 -.122732996326240D+03
 0.129492506464437D+03 0.820863086928510D+01 -.241963471977403D+02 0.221464306826294D+02
 0.955172620583363D+02 0.101598905646012D+02 0.180496614295288D+02 -.194751727364761D+02
 0.166230656273190D+02 -.160938272515721D+02 0.414879294039409D+01 -.320238012181119D+00
 0.383315850238839D+01 -.227469418231416D+01 0.199789282781736D+01 -.235101993397216D+01
0.170656585791D-03 0.000000000000D+00 0.000000000000D+00 0.367080604317D-04 0.000000000000D+00  6 -4 4 25 23 21 21 2 0.20811392D-01 0.17131478D-01 0.14563705D+05 0.14563705D+05 0.14563705D+05 0.12492866D+01  1  2  2  3  6  5       21 0.268028329068D-01 0.100000000000D+01
0.359934713612D-04 0.900579545245D-05 -.655366224349D-06 0.367080604317D-04 0.000000000000D+00  6 -4 4 25 23 21 21 4 0.20811392D-01 0.17131478D-01 0.14563705D+05 0.14563705D+05 0.14563705D+05 0.12492866D+01  1  2  3  3  6  5       21 0.882278202407D-02 0.100000000000D+01
0.516831458740D-05 0.000000000000D+00 0.000000000000D+00 0.367080604317D-04 0.000000000000D+00  6 -4 4 25 23 21 21 4 0.20811392D-01 0.17131478D-01 0.14563705D+05 0.14563705D+05 0.14563705D+05 0.12492866D+01  1  2 15  3  6  5       21 0.126686622079D-02 0.100000000000D+01
0.246233746261D-06 0.000000000000D+00 0.000000000000D+00 0.367230258652D-04 0.000000000000D+00  6 -4 4 25 23 21 21 4 0.20811392D-01 0.17131478D-01 0.14489289D+05 0.14489289D+05 0.14489289D+05 0.12495412D+01  1  2 12  3  6  5       21 0.603724989442D-04 0.100000000000D+01
0.244755359180D-06 0.000000000000D+00 0.000000000000D+00 0.367230258652D-04 0.000000000000D+00  6 -4 4 25 23 21 21 4 0.20811392D-01 0.17131478D-01 0.14489289D+05 0.14489289D+05 0.14489289D+05 0.12495412D+01  1  2 12  3  6  5       21 0.600100225418D-04 0.100000000000D+01
-.207891933068D-02 0.000000000000D+00 0.000000000000D+00 0.367080604317D-04 0.000000000000D+00  6 -4 4 25 23 21 21 4 0.20811392D-01 0.17131478D-01 0.14563705D+05 0.14563705D+05 0.14563705D+05 0.12492866D+01  1  2  4  3  6  5       21 -.509588306062D+00 0.100000000000D+01
-.941083029159D-03 0.000000000000D+00 0.000000000000D+00 0.367080604317D-04 0.000000000000D+00  6 -4 4 25 23 21 21 4 0.20811392D-01 0.17131478D-01 0.14563705D+05 0.14563705D+05 0.14563705D+05 0.12492866D+01  1  2  5  3  6  5       21 -.230679901627D+00 0.100000000000D+01
0.132809880199D-02 0.000000000000D+00 -.000000000000D+00 0.367080604317D-04 0.000000000000D+00  6 -4 4 25 23 21 21 4 0.20811392D-01 0.17131478D-01 0.14563705D+05 0.14563705D+05 0.14563705D+05 0.12492866D+01  1  2  6  3  6  5       21 0.325545877997D+00 0.100000000000D+01
0.176563711354D-07 0.000000000000D+00 0.000000000000D+00 0.367230258652D-04 0.000000000000D+00  6 -4 4 25 23 1 -1 4 0.20811392D-01 0.17131478D-01 0.14489289D+05 0.14489289D+05 0.14489289D+05 0.12495412D+01  1  2 12  6  6  5       21 0.432905425807D-05 0.100000000000D+01
0.176563711354D-07 0.000000000000D+00 0.000000000000D+00 0.367230258652D-04 0.000000000000D+00  6 -4 4 25 23 3 -3 4 0.20811392D-01 0.17131478D-01 0.14489289D+05 0.14489289D+05 0.14489289D+05 0.12495412D+01  1  2 12  6  6  5       21 0.432905425807D-05 0.100000000000D+01
0.175990522742D-07 0.000000000000D+00 0.000000000000D+00 0.367230258652D-04 0.000000000000D+00  6 -4 4 25 23 1 -1 4 0.20811392D-01 0.17131478D-01 0.14489289D+05 0.14489289D+05 0.14489289D+05 0.12495412D+01  1  2 12  6  6  5       21 0.431500060808D-05 0.100000000000D+01
0.175990522742D-07 0.000000000000D+00 0.000000000000D+00 0.367230258652D-04 0.000000000000D+00  6 -4 4 25 23 3 -3 4 0.20811392D-01 0.17131478D-01 0.14489289D+05 0.14489289D+05 0.14489289D+05 0.12495412D+01  1  2 12  6  6  5       21 0.431500060808D-05 0.100000000000D+01
-.951276364104D-05 0.000000000000D+00 0.000000000000D+00 0.367080604317D-04 0.000000000000D+00  6 -4 4 25 23 1 -1 4 0.20811392D-01 0.17131478D-01 0.14563705D+05 0.14563705D+05 0.14563705D+05 0.12492866D+01  1  2  5  6  6  5       21 -.233178509539D-02 0.100000000000D+01
-.951276364104D-05 0.000000000000D+00 0.000000000000D+00 0.367080604317D-04 0.000000000000D+00  6 -4 4 25 23 3 -3 4 0.20811392D-01 0.17131478D-01 0.14563705D+05 0.14563705D+05 0.14563705D+05 0.12492866D+01  1  2  5  6  6  5       21 -.233178509539D-02 0.100000000000D+01
0.176563711354D-07 0.000000000000D+00 0.000000000000D+00 0.367230258652D-04 0.000000000000D+00  6 -4 4 25 23 4 -4 4 0.20811392D-01 0.17131478D-01 0.14489289D+05 0.14489289D+05 0.14489289D+05 0.12495412D+01  1  2 12  7  6  5       21 0.432905425807D-05 0.100000000000D+01
0.175990522742D-07 0.000000000000D+00 0.000000000000D+00 0.367230258652D-04 0.000000000000D+00  6 -4 4 25 23 4 -4 4 0.20811392D-01 0.17131478D-01 0.14489289D+05 0.14489289D+05 0.14489289D+05 0.12495412D+01  1  2 12  7  6  5       21 0.431500060808D-05 0.100000000000D+01
-.951276364104D-05 0.000000000000D+00 0.000000000000D+00 0.367080604317D-04 0.000000000000D+00  6 -4 4 25 23 4 -4 4 0.20811392D-01 0.17131478D-01 0.14563705D+05 0.14563705D+05 0.14563705D+05 0.12492866D+01  1  2  5  7  6  5       21 -.233178509539D-02 0.100000000000D+01
0.176563711354D-07 0.000000000000D+00 0.000000000000D+00 0.367230258652D-04 0.000000000000D+00  6 -4 4 25 23 2 -2 4 0.20811392D-01 0.17131478D-01 0.14489289D+05 0.14489289D+05 0.14489289D+05 0.12495412D+01  1  2 12  8  6  5       21 0.432905425807D-05 0.100000000000D+01
0.175990522742D-07 0.000000000000D+00 0.000000000000D+00 0.367230258652D-04 0.000000000000D+00  6 -4 4 25 23 2 -2 4 0.20811392D-01 0.17131478D-01 0.14489289D+05 0.14489289D+05 0.14489289D+05 0.12495412D+01  1  2 12  8  6  5       21 0.431500060808D-05 0.100000000000D+01
-.951276364104D-05 0.000000000000D+00 0.000000000000D+00 0.367080604317D-04 0.000000000000D+00  6 -4 4 25 23 2 -2 4 0.20811392D-01 0.17131478D-01 0.14563705D+05 0.14563705D+05 0.14563705D+05 0.12492866D+01  1  2  5  8  6  5       21 -.233178509539D-02 0.100000000000D+01
  </mgrwgt>
  </event>
  <event>
  5     66 -.42934962E-03 0.57167198E+02 0.75467711E-02 0.11359787E+00
       -2 -1    0    0    0  501 0.00000000E+00 0.00000000E+00 0.48380404E+02 0.48381462E+02 0.32000000E+00 0.0000E+00 0.9000E+01
        2 -1    0    0  502    0 0.00000000E+00 0.00000000E+00 -.56377503E+03 0.56377512E+03 0.32000000E+00 0.0000E+00 0.9000E+01
       25  1    1    2    0    0 -.36906770E+02 -.77429699E+02 -.30147808E+03 0.33744852E+03 0.12500000E+03 0.0000E+00 0.9000E+01
       23  1    1    2    0    0 0.63262654E+02 0.26705037E+02 -.12796254E+03 0.17147882E+03 0.91188000E+02 0.0000E+00 0.9000E+01
       21  1    1    2  502  501 -.26355884E+02 0.50724662E+02 -.85954001E+02 0.10322924E+03 0.75000000E+00 0.0000E+00 0.9000E+01
#aMCatNLO 1  0  0  1  5 0.67303494D+01 0.00000000D+00  -5  6  0 0.00000000D+00 0.00000000D+00 0.00000000D+00 0.00000000D+00 0.00000000D+00
  <mgrwgt>
 -.2461393252D-01    5    4    0
 0.165154519432071D+03 0.000000000000000D+00 0.000000000000000D+00 0.165154519432071D+03
 0.165154519432071D+03 0.000000000000000D+00 0.000000000000000D+00 -.165154519432071D+03
 0.154980339374074D+03 -.369057068282152D+02 -.774317451335856D+02 -.321900487974245D+02
 0.118133929506801D+03 0.632634647904361D+02 0.267034770833901D+02 0.304143435090068D+02
 0.571947699832670D+02 -.263577579622209D+02 0.507282680501955D+02 0.177570528841773D+01
 0.000000000000000D+00 0.000000000000000D+00 0.000000000000000D+00 0.000000000000000D+00
 0.679545945434085D+03 0.000000000000000D+00 0.000000000000000D+00 0.679545945434085D+03
 0.176894519327505D+03 0.000000000000000D+00 0.000000000000000D+00 -.176894519327505D+03
 0.179350473368882D+03 -.826043520877380D+02 -.931767893427683D+02 -.321900487974245D+02
 0.102945006110249D+03 0.330448685138079D+02 0.162919401195934D+02 0.304143435090068D+02
 0.621160114197982D+02 -.426659798405526D+02 0.451094215178907D+02 0.177570528841773D+01
 0.512028973862661D+03 0.922254634144827D+02 0.317754277052841D+02 0.502651426106581D+03
 0.165154519432071D+03 0.000000000000000D+00 0.000000000000000D+00 0.165154519432071D+03
 0.165154519432071D+03 0.000000000000000D+00 0.000000000000000D+00 -.165154519432071D+03
 0.154980339374074D+03 -.369057068282152D+02 -.774317451335856D+02 -.321900487974245D+02
 0.118133929506801D+03 0.632634647904361D+02 0.267034770833901D+02 0.304143435090068D+02
 0.000000000000000D+00 0.000000000000000D+00 0.000000000000000D+00 0.000000000000000D+00
 0.571947699832670D+02 -.263577579622209D+02 0.507282680501955D+02 0.177570528841773D+01
 0.679545945434085D+03 0.000000000000000D+00 0.000000000000000D+00 0.679545945434085D+03
 0.176894519327505D+03 0.000000000000000D+00 0.000000000000000D+00 -.176894519327505D+03
 0.179350473368882D+03 -.826043520877380D+02 -.931767893427683D+02 -.321900487974245D+02
 0.102945006110249D+03 0.330448685138079D+02 0.162919401195934D+02 0.304143435090068D+02
 0.512028973862661D+03 0.922254634144827D+02 0.317754277052841D+02 0.502651426106581D+03
 0.621160114197982D+02 -.426659798405526D+02 0.451094215178907D+02 0.177570528841773D+01
0.149885056803D-04 0.000000000000D+00 0.000000000000D+00 0.363362740432D-05 0.000000000000D+00  6 -2 2 25 23 21 21 2 0.74432275D-02 0.86734708D-01 0.26069219D+05 0.26069219D+05 0.26069219D+05 0.12213525D+01  1  2  2  1  6  1       -2 0.124933325518D-01 0.100000000000D+01
0.174074492753D-06 0.790965175292D-06 -.575598083766D-07 0.363362740432D-05 0.000000000000D+00  6 -2 2 25 23 21 21 4 0.74432275D-02 0.86734708D-01 0.26069219D+05 0.26069219D+05 0.26069219D+05 0.12213525D+01  1  2  3  1  6  1       -2 0.216439798087D-03 0.100000000000D+01
0.753910770700D-06 0.000000000000D+00 0.000000000000D+00 0.363362740432D-05 0.000000000000D+00  6 -2 2 25 23 21 21 4 0.74432275D-02 0.86734708D-01 0.26069219D+05 0.26069219D+05 0.26069219D+05 0.12213525D+01  1  2 15  1  6  1       -2 0.937393482559D-03 0.100000000000D+01
-.105999747158D-03 0.000000000000D+00 -.858441448095D-05 0.363362740432D-05 0.000000000000D+00  6 -2 2 25 23 21 21 4 0.32150716D-01 0.86734708D-01 0.26069219D+05 0.26069219D+05 0.26069219D+05 0.12213525D+01  1  2  5  1  6  1       -2 -.116361455789D-01 0.100000000000D+01
-.186891230038D-04 0.000000000000D+00 -.151254399467D-05 0.363362740432D-05 0.000000000000D+00  6 21 2 25 23 2 21 4 0.32150716D-01 0.86734708D-01 0.26069219D+05 0.26069219D+05 0.26069219D+05 0.12213525D+01  3  4  5  4  5  1       -2 -.266249527775D-01 0.100000000000D+01
  </mgrwgt>
  </event>
  <event>
  5     66 0.42934962E-03 0.64784087E+02 0.75467711E-02 0.10946043E+00
       -2 -1    0    0    0  501 0.00000000E+00 0.00000000E+00 0.15415560E+03 0.15415593E+03 0.32000000E+00 0.0000E+00 0.9000E+01
        2 -1    0    0  502    0 -.00000000E+00 -.00000000E+00 -.76020629E+03 0.76020636E+03 0.32000000E+00 0.0000E+00 0.9000E+01
       25  1    1    2    0    0 0.18234869E+03 -.79860579E+02 -.53514300E+02 0.24107579E+03 0.12500000E+03 0.0000E+00 0.9000E+01
       23  1    1    2    0    0 -.18932755E+03 0.14677928E+03 -.54901833E+03 0.60590879E+03 0.91188000E+02 0.0000E+00 0.9000E+01
       21  1    1    2  502  501 0.69788615E+01 -.66918703E+02 -.35180632E+01 0.67377716E+02 0.75000000E+00 0.0000E+00 0.9000E+01
#aMCatNLO 1  0  0  5  1 0.21904320D+02 0.00000000D+00  -5  6  0 0.00000000D+00 0.00000000D+00 0.00000000D+00 0.00000000D+00 0.00000000D+00
  <mgrwgt>
 0.2809439170D+00   20    2    0
 0.342330603051253D+03 0.000000000000000D+00 0.000000000000000D+00 0.342330603051253D+03
 0.342330603051253D+03 -.000000000000000D+00 -.000000000000000D+00 -.342330603051253D+03
 0.274585004665229D+03 0.182348588760387D+03 -.798595788575218D+02 0.141927321643150D+03
 0.323208073655642D+03 -.189327677364068D+03 0.146780459777171D+03 -.196872381871405D+03
 0.868681277816348D+02 0.697908860368164D+01 -.669208809196491D+02 0.549450602282548D+02
 0.000000000000000D+00 0.000000000000000D+00 0.000000000000000D+00 0.000000000000000D+00
 0.342330603051253D+03 0.000000000000000D+00 0.000000000000000D+00 0.342330603051253D+03
 0.342330603051253D+03 -.000000000000000D+00 -.000000000000000D+00 -.342330603051253D+03
 0.278409530991275D+03 0.182851094366301D+03 -.846779899315830D+02 0.145883454363320D+03
 0.317571219741899D+03 -.188745401832713D+03 0.141197153172395D+03 -.192288235436743D+03
 0.618041039707795D+02 0.233608997671159D+02 -.505114653629429D+02 0.268813596492051D+02
 0.268763513985511D+02 -.174665923007036D+02 -.600769787786916D+01 0.195234214242188D+02
0.141203299939D-02 0.000000000000D+00 0.000000000000D+00 0.115854966146D-05 0.000000000000D+00  6 -2 2 25 23 21 21 2 0.23716277D-01 0.11695485D+00 0.78029132D+05 0.78029132D+05 0.78029132D+05 0.11736009D+01  1  2  2  3  6  5       21 0.115399676033D+00 0.100000000000D+01
0.957995374772D-04 0.745150285626D-04 -.542257851448D-05 0.115854966146D-05 0.000000000000D+00  6 -2 2 25 23 21 21 4 0.23716277D-01 0.11695485D+00 0.78029132D+05 0.78029132D+05 0.78029132D+05 0.11736009D+01  1  2  3  3  6  5       21 0.107836063687D-01 0.100000000000D+01
0.181985143838D-04 0.000000000000D+00 0.000000000000D+00 0.115854966146D-05 0.000000000000D+00  6 -2 2 25 23 21 21 4 0.23716277D-01 0.11695485D+00 0.78029132D+05 0.78029132D+05 0.78029132D+05 0.11736009D+01  1  2 15  3  6  5       21 0.204850274624D-02 0.100000000000D+01
0.837943988778D-03 0.000000000000D+00 0.000000000000D+00 0.115701986134D-05 0.000000000000D+00  6 -2 2 25 23 21 21 4 0.23716277D-01 0.11695485D+00 0.79521095D+05 0.79521095D+05 0.79521095D+05 0.11728258D+01  1  2 12  3  6  5       21 0.940614734431D-01 0.100000000000D+01
0.100028122798D-02 0.000000000000D+00 0.000000000000D+00 0.115701986134D-05 0.000000000000D+00  6 -2 2 25 23 21 21 4 0.23716277D-01 0.11695485D+00 0.79521095D+05 0.79521095D+05 0.79521095D+05 0.11728258D+01  1  2 12  3  6  5       21 0.112284266516D+00 0.100000000000D+01
-.147432235368D-02 0.000000000000D+00 0.000000000000D+00 0.115854966146D-05 0.000000000000D+00  6 -2 2 25 23 21 21 4 0.23716277D-01 0.11695485D+00 0.78029132D+05 0.78029132D+05 0.78029132D+05 0.11736009D+01  1  2  4  3  6  5       21 -.165956040513D+00 0.100000000000D+01
-.152436456621D-02 0.000000000000D+00 0.000000000000D+00 0.115854966146D-05 0.000000000000D+00  6 -2 2 25 23 21 21 4 0.23716277D-01 0.11695485D+00 0.78029132D+05 0.78029132D+05 0.78029132D+05 0.11736009D+01  1  2  5  3  6  5       21 -.171589006349D+00 0.100000000000D+01
0.254092848630D-02 0.000000000000D+00 -.000000000000D+00 0.115854966146D-05 0.000000000000D+00  6 -2 2 25 23 21 21 4 0.23716277D-01 0.11695485D+00 0.78029132D+05 0.78029132D+05 0.78029132D+05 0.11736009D+01  1  2  6  3  6  5       21 0.286017796420D+00 0.100000000000D+01
0.170605650912D-04 0.000000000000D+00 0.000000000000D+00 0.115701986134D-05 0.000000000000D+00  6 -2 2 25 23 1 -1 4 0.23716277D-01 0.11695485D+00 0.79521095D+05 0.79521095D+05 0.79521095D+05 0.11728258D+01  1  2 12  6  6  5       21 0.191509445946D-02 0.100000000000D+01
0.170605650912D-04 0.000000000000D+00 0.000000000000D+00 0.115701986134D-05 0.000000000000D+00  6 -2 2 25 23 3 -3 4 0.23716277D-01 0.11695485D+00 0.79521095D+05 0.79521095D+05 0.79521095D+05 0.11728258D+01  1  2 12  6  6  5       21 0.191509445946D-02 0.100000000000D+01
0.195446715770D-04 0.000000000000D+00 0.000000000000D+00 0.115701986134D-05 0.000000000000D+00  6 -2 2 25 23 1 -1 4 0.23716277D-01 0.11695485D+00 0.79521095D+05 0.79521095D+05 0.79521095D+05 0.11728258D+01  1  2 12  6  6  5       21 0.219394211440D-02 0.100000000000D+01
0.195446715770D-04 0.000000000000D+00 0.000000000000D+00 0.115701986134D-05 0.000000000000D+00  6 -2 2 25 23 3 -3 4 0.23716277D-01 0.11695485D+00 0.79521095D+05 0.79521095D+05 0.79521095D+05 0.11728258D+01  1  2 12  6  6  5       21 0.219394211440D-02 0.100000000000D+01
-.411820323843D-04 0.000000000000D+00 0.000000000000D+00 0.115854966146D-05 0.000000000000D+00  6 -2 2 25 23 1 -1 4 0.23716277D-01 0.11695485D+00 0.78029132D+05 0.78029132D+05 0.78029132D+05 0.11736009D+01  1  2  5  6  6  5       21 -.463562599977D-02 0.100000000000D+01
-.411820323843D-04 0.000000000000D+00 0.000000000000D+00 0.115854966146D-05 0.000000000000D+00  6 -2 2 25 23 3 -3 4 0.23716277D-01 0.11695485D+00 0.78029132D+05 0.78029132D+05 0.78029132D+05 0.11736009D+01  1  2  5  6  6  5       21 -.463562599977D-02 0.100000000000D+01
0.170605650912D-04 0.000000000000D+00 0.000000000000D+00 0.115701986134D-05 0.000000000000D+00  6 -2 2 25 23 2 -2 4 0.23716277D-01 0.11695485D+00 0.79521095D+05 0.79521095D+05 0.79521095D+05 0.11728258D+01  1  2 12  7  6  5       21 0.191509445946D-02 0.100000000000D+01
0.195446715770D-04 0.000000000000D+00 0.000000000000D+00 0.115701986134D-05 0.000000000000D+00  6 -2 2 25 23 2 -2 4 0.23716277D-01 0.11695485D+00 0.79521095D+05 0.79521095D+05 0.79521095D+05 0.11728258D+01  1  2 12  7  6  5       21 0.219394211440D-02 0.100000000000D+01
-.411820323843D-04 0.000000000000D+00 0.000000000000D+00 0.115854966146D-05 0.000000000000D+00  6 -2 2 25 23 2 -2 4 0.23716277D-01 0.11695485D+00 0.78029132D+05 0.78029132D+05 0.78029132D+05 0.11736009D+01  1  2  5  7  6  5       21 -.463562599977D-02 0.100000000000D+01
0.170605650912D-04 0.000000000000D+00 0.000000000000D+00 0.115701986134D-05 0.000000000000D+00  6 -2 2 25 23 4 -4 4 0.23716277D-01 0.11695485D+00 0.79521095D+05 0.79521095D+05 0.79521095D+05 0.11728258D+01  1  2 12  8  6  5       21 0.191509445946D-02 0.100000000000D+01
0.195446715770D-04 0.000000000000D+00 0.000000000000D+00 0.115701986134D-05 0.000000000000D+00  6 -2 2 25 23 4 -4 4 0.23716277D-01 0.11695485D+00 0.79521095D+05 0.79521095D+05 0.79521095D+05 0.11728258D+01  1  2 12  8  6  5       21 0.219394211440D-02 0.100000000000D+01
-.411820323843D-04 0.000000000000D+00 0.000000000000D+00 0.115854966146D-05 0.000000000000D+00  6 -2 2 25 23 4 -4 4 0.23716277D-01 0.11695485D+00 0.78029132D+05 0.78029132D+05 0.78029132D+05 0.11736009D+01  1  2  5  8  6  5       21 -.463562599977D-02 0.100000000000D+01
  </mgrwgt>
  </event>
  <event>
  5     66 -.42934962E-03 0.21606131E+02 0.75467711E-02 0.12419082E+00
       -4 -1    0    0    0  501 0.00000000E+00 0.00000000E+00 0.11855225E+03 0.11856239E+03 0.15500000E+01 0.0000E+00 0.9000E+01
        4 -1    0    0  502    0 -.00000000E+00 -.00000000E+00 -.12477598E+03 0.12478560E+03 0.15500000E+01 0.0000E+00 0.9000E+01
       25  1    1    2    0    0 0.14640723E+01 -.61254005E+01 -.15875477E+02 0.12616138E+03 0.12500000E+03 0.0000E+00 0.9000E+01
       23  1    1    2    0    0 0.13742982E+02 0.21457124E+02 0.12056873E+02 0.95445782E+02 0.91188000E+02 0.0000E+00 0.9000E+01
       21  1    1    2  502  501 -.15207055E+02 -.15331724E+02 -.24051181E+01 0.21740822E+02 0.75000000E+00 0.0000E+00 0.9000E+01
#aMCatNLO 1  0  0  5  2 0.17490464D+01 0.00000000D+00  -5  6  0 0.00000000D+00 0.00000000D+00 0.00000000D+00 0.00000000D+00 0.00000000D+00
  <mgrwgt>
 -.2804673284D+00   14    2    0
 0.121634194020768D+03 0.000000000000000D+00 0.000000000000000D+00 0.121634194020768D+03
 0.121634194020768D+03 -.000000000000000D+00 -.000000000000000D+00 -.121634194020768D+03
 0.125796277158211D+03 0.146877935403224D+01 -.612065486579895D+01 -.126524155040953D+02
 0.957868628351395D+02 0.137465665007117D+02 0.214607375840996D+02 0.145031168920948D+02
 0.216852480481853D+02 -.152153458547439D+02 -.153400827183007D+02 -.185070138799948D+01
 0.000000000000000D+00 0.000000000000000D+00 0.000000000000000D+00 0.000000000000000D+00
 0.121634194020768D+03 0.000000000000000D+00 0.000000000000000D+00 0.121634194020768D+03
 0.121634194020768D+03 -.000000000000000D+00 -.000000000000000D+00 -.121634194020768D+03
 0.125833654641777D+03 0.790205788212435D+00 -.680479144274587D+01 -.127349530324638D+02
 0.955893385789691D+02 0.132304799188107D+02 0.209404200749385D+02 0.144403432842800D+02
 0.200959549174830D+02 -.132955042332639D+02 -.147291374081090D+02 -.318268478517989D+01
 0.174943990330611D+01 -.725181473759295D+00 0.593508775916364D+00 0.147729453336370D+01
0.234392155526D-03 0.000000000000D+00 0.000000000000D+00 0.332882347012D-04 0.000000000000D+00  6 -4 4 25 23 21 21 2 0.18240328D-01 0.19197824D-01 0.14574169D+05 0.14574169D+05 0.14574169D+05 0.12492509D+01  1  2  2  3  6  5       21 0.380786799151D-01 0.100000000000D+01
0.447485634736D-04 0.123692138721D-04 -.900127594091D-06 0.332882347012D-04 0.000000000000D+00  6 -4 4 25 23 21 21 4 0.18240328D-01 0.19197824D-01 0.14574169D+05 0.14574169D+05 0.14574169D+05 0.12492509D+01  1  2  3  3  6  5       21 0.113453334975D-01 0.100000000000D+01
0.866450869251D-05 0.000000000000D+00 0.000000000000D+00 0.332882347012D-04 0.000000000000D+00  6 -4 4 25 23 21 21 4 0.18240328D-01 0.19197824D-01 0.14574169D+05 0.14574169D+05 0.14574169D+05 0.12492509D+01  1  2 15  3  6  5       21 0.219675746164D-02 0.100000000000D+01
0.113858784794D-07 0.000000000000D+00 0.000000000000D+00 0.333099581457D-04 0.000000000000D+00  6 -4 4 25 23 21 21 4 0.18240328D-01 0.19197824D-01 0.14455170D+05 0.14455170D+05 0.14455170D+05 0.12496585D+01  1  2 12  3  6  5       21 0.288787965213D-05 0.100000000000D+01
0.110674090478D-07 0.000000000000D+00 0.000000000000D+00 0.333099581457D-04 0.000000000000D+00  6 -4 4 25 23 21 21 4 0.18240328D-01 0.19197824D-01 0.14455170D+05 0.14455170D+05 0.14455170D+05 0.12496585D+01  1  2 12  3  6  5       21 0.280710403233D-05 0.100000000000D+01
-.130986556281D-02 0.000000000000D+00 0.000000000000D+00 0.332882347012D-04 0.000000000000D+00  6 -4 4 25 23 21 21 4 0.18240328D-01 0.19197824D-01 0.14574169D+05 0.14574169D+05 0.14574169D+05 0.12492509D+01  1  2  4  3  6  5       21 -.332096954480D+00 0.100000000000D+01
0.156134195626D-08 0.000000000000D+00 0.000000000000D+00 0.333099581457D-04 0.000000000000D+00  6 -4 4 25 23 1 -1 4 0.18240328D-01 0.19197824D-01 0.14455170D+05 0.14455170D+05 0.14455170D+05 0.12496585D+01  1  2 12  6  6  5       21 0.396014033847D-06 0.100000000000D+01
0.156134195626D-08 0.000000000000D+00 0.000000000000D+00 0.333099581457D-04 0.000000000000D+00  6 -4 4 25 23 3 -3 4 0.18240328D-01 0.19197824D-01 0.14455170D+05 0.14455170D+05 0.14455170D+05 0.12496585D+01  1  2 12  6  6  5       21 0.396014033847D-06 0.100000000000D+01
0.155359716532D-08 0.000000000000D+00 0.000000000000D+00 0.333099581457D-04 0.000000000000D+00  6 -4 4 25 23 1 -1 4 0.18240328D-01 0.19197824D-01 0.14455170D+05 0.14455170D+05 0.14455170D+05 0.12496585D+01  1  2 12  6  6  5       21 0.394049668585D-06 0.100000000000D+01
0.155359716532D-08 0.000000000000D+00 0.000000000000D+00 0.333099581457D-04 0.000000000000D+00  6 -4 4 25 23 3 -3 4 0.18240328D-01 0.19197824D-01 0.14455170D+05 0.14455170D+05 0.14455170D+05 0.12496585D+01  1  2 12  6  6  5       21 0.394049668585D-06 0.100000000000D+01
0.156134195626D-08 0.000000000000D+00 0.000000000000D+00 0.333099581457D-04 0.000000000000D+00  6 -4 4 25 23 4 -4 4 0.18240328D-01 0.19197824D-01 0.14455170D+05 0.14455170D+05 0.14455170D+05 0.12496585D+01  1  2 12  7  6  5       21 0.396014033847D-06 0.100000000000D+01
0.155359716532D-08 0.000000000000D+00 0.000000000000D+00 0.333099581457D-04 0.000000000000D+00  6 -4 4 25 23 4 -4 4 0.18240328D-01 0.19197824D-01 0.14455170D+05 0.14455170D+05 0.14455170D+05 0.12496585D+01  1  2 12  7  6  5       21 0.394049668585D-06 0.100000000000D+01
0.156134195626D-08 0.000000000000D+00 0.000000000000D+00 0.333099581457D-04 0.000000000000D+00  6 -4 4 25 23 2 -2 4 0.18240328D-01 0.19197824D-01 0.14455170D+05 0.14455170D+05 0.14455170D+05 0.12496585D+01  1  2 12  8  6  5       21 0.396014033847D-06 0.100000000000D+01
0.155359716532D-08 0.000000000000D+00 0.000000000000D+00 0.333099581457D-04 0.000000000000D+00  6 -4 4 25 23 2 -2 4 0.18240328D-01 0.19197824D-01 0.14455170D+05 0.14455170D+05 0.14455170D+05 0.12496585D+01  1  2 12  8  6  5       21 0.394049668585D-06 0.100000000000D+01
  </mgrwgt>
  </event>
  <event>
  5     66 0.42934962E-03 0.39912183E+02 0.75467711E-02 0.11162564E+00
       -2 -1    0    0    0  501 0.00000000E+00 0.00000000E+00 0.34733601E+02 0.34735075E+02 0.32000000E+00 0.0000E+00 0.9000E+01
        2 -1    0    0  502    0 0.00000000E+00 0.00000000E+00 -.16491198E+04 0.16491198E+04 0.32000000E+00 0.0000E+00 0.9000E+01
       25  1    1    2    0    0 0.10459155E+02 -.17365235E+03 -.66049324E+03 0.69436363E+03 0.12500000E+03 0.0000E+00 0.9000E+01
       23  1    1    2    0    0 0.17305097E+02 0.20231658E+03 -.78519228E+03 0.81613334E+03 0.91188000E+02 0.0000E+00 0.9000E+01
       21  1    1    2  502  501 -.27764252E+02 -.28664227E+02 -.16870069E+03 0.17335795E+03 0.75000000E+00 0.0000E+00 0.9000E+01
#aMCatNLO 1  0  0  2  5 0.13817563D+02 0.00000000D+00  -5  6  0 0.00000000D+00 0.00000000D+00 0.00000000D+00 0.00000000D+00 0.00000000D+00
  <mgrwgt>
 0.2692123969D+00    9    4    0
 0.239334781493609D+03 0.000000000000000D+00 0.000000000000000D+00 0.239334781493609D+03
 0.239334781493609D+03 0.000000000000000D+00 0.000000000000000D+00 -.239334781493609D+03
 0.215003592171356D+03 0.104612560823931D+02 -.173650182388328D+03 0.183771848841414D+02
 0.222800037182088D+03 0.173072737061598D+02 0.202318825207711D+03 -.959981602799729D+01
 0.408659336337730D+02 -.277685297885530D+02 -.286686428193833D+02 -.877736885614408D+01
 0.000000000000000D+00 0.000000000000000D+00 0.000000000000000D+00 -.000000000000000D+00
 0.241091157738171D+03 0.000000000000000D+00 0.000000000000000D+00 0.241091157738171D+03
 0.268245864694081D+03 0.000000000000000D+00 0.000000000000000D+00 -.268245864694081D+03
 0.217345095754900D+03 0.506314742494295D+01 -.176778206412991D+03 0.183771848841414D+02
 0.219532428249773D+03 0.117845121532757D+02 0.199118568985365D+03 -.959981602799729D+01
 0.419914304954384D+02 -.288030490715528D+02 -.292681122588757D+02 -.877736885614408D+01
 0.304680679321407D+02 0.119553894933341D+02 0.692774968650160D+01 -.271547069559109D+02
 0.239334781493609D+03 0.000000000000000D+00 0.000000000000000D+00 0.239334781493609D+03
 0.239334781493609D+03 0.000000000000000D+00 0.000000000000000D+00 -.239334781493609D+03
 0.215003592171356D+03 0.104612560823931D+02 -.173650182388328D+03 0.183771848841414D+02
 0.222800037182088D+03 0.173072737061598D+02 0.202318825207711D+03 -.959981602799729D+01
 0.000000000000000D+00 0.000000000000000D+00 0.000000000000000D+00 -.000000000000000D+00
 0.408659336337730D+02 -.277685297885530D+02 -.286686428193833D+02 -.877736885614408D+01
 0.241091157738171D+03 0.000000000000000D+00 0.000000000000000D+00 0.241091157738171D+03
 0.268245864694081D+03 0.000000000000000D+00 0.000000000000000D+00 -.268245864694081D+03
 0.217345095754900D+03 0.506314742494295D+01 -.176778206412991D+03 0.183771848841414D+02
 0.219532428249773D+03 0.117845121532757D+02 0.199118568985365D+03 -.959981602799729D+01
 0.304680679321407D+02 0.119553894933341D+02 0.692774968650160D+01 -.271547069559109D+02
 0.419914304954384D+02 -.288030490715528D+02 -.292681122588757D+02 -.877736885614408D+01
0.897748341679D-04 0.000000000000D+00 0.000000000000D+00 0.519675170052D-05 0.000000000000D+00  6 -2 2 25 23 21 21 2 0.53437468D-02 0.25371086D+00 0.56815985D+05 0.56815985D+05 0.56815985D+05 0.11868240D+01  1  2  2  2  6  2        2 0.254473968897D-01 0.100000000000D+01
0.187572603644D-04 0.473754815583D-05 -.344759001462D-06 0.519675170052D-05 0.000000000000D+00  6 -2 2 25 23 21 21 4 0.53437468D-02 0.25371086D+00 0.56815985D+05 0.56815985D+05 0.56815985D+05 0.11868240D+01  1  2  3  2  6  2        2 0.748912036067D-02 0.100000000000D+01
0.165123177169D-05 0.000000000000D+00 0.000000000000D+00 0.519675170052D-05 0.000000000000D+00  6 -2 2 25 23 21 21 4 0.53437468D-02 0.25371086D+00 0.56815985D+05 0.56815985D+05 0.56815985D+05 0.11868240D+01  1  2 15  2  6  2        2 0.659279299924D-03 0.100000000000D+01
0.114199040447D-02 0.000000000000D+00 0.000000000000D+00 0.517527149981D-05 0.000000000000D+00  6 -2 2 25 23 21 21 4 0.53437468D-02 0.29823232D+00 0.60213947D+05 0.60213947D+05 0.60213947D+05 0.11843687D+01  1  2 12  2  6  2        2 0.318801582457D+00 0.100000000000D+01
-.719964525518D-03 0.000000000000D+00 0.000000000000D+00 0.519675170052D-05 0.000000000000D+00  6 -2 2 25 23 21 21 4 0.53437468D-02 0.25371086D+00 0.56815985D+05 0.56815985D+05 0.56815985D+05 0.11868240D+01  1  2  4  2  6  2        2 -.287456743803D+00 0.100000000000D+01
-.233113970055D-02 0.000000000000D+00 -.195846887724D-03 0.519675170052D-05 0.000000000000D+00  6 -2 2 25 23 21 21 4 0.53437468D-02 0.28510729D+00 0.56815985D+05 0.56815985D+05 0.56815985D+05 0.11868240D+01  1  2  5  2  6  2        2 -.727628887381D+00 0.100000000000D+01
0.233937482197D-02 0.000000000000D+00 0.194521476260D-03 0.519675170052D-05 0.000000000000D+00  6 -2 2 25 23 21 21 4 0.53437468D-02 0.25371086D+00 0.56815985D+05 0.56815985D+05 0.56815985D+05 0.11868240D+01  1  2  6  2  6  2        2 0.934030837663D+00 0.100000000000D+01
0.276683272415D-04 0.000000000000D+00 0.000000000000D+00 0.517527149981D-05 0.000000000000D+00  6 -2 21 25 23 -2 21 4 0.53437468D-02 0.29823232D+00 0.60213947D+05 0.60213947D+05 0.60213947D+05 0.11843687D+01  3  4 12  5  5  2        2 0.250976947389D-02 0.100000000000D+01
-.423339668627D-04 0.000000000000D+00 -.362887319829D-05 0.519675170052D-05 0.000000000000D+00  6 -2 21 25 23 -2 21 4 0.53437468D-02 0.28510729D+00 0.56815985D+05 0.56815985D+05 0.56815985D+05 0.11868240D+01  3  4  5  5  5  2        2 -.463995804729D-02 0.100000000000D+01
  </mgrwgt>
  </event>
  <event>
  5     66 0.42934962E-03 0.20536019E+02 0.75467711E-02 0.12424322E+00
       -2 -1    0    0    0  501 0.00000000E+00 0.00000000E+00 0.16782743E+02 0.16785793E+02 0.32000000E+00 0.0000E+00 0.9000E+01
        2 -1    0    0  502    0 -.00000000E+00 -.00000000E+00 -.14702063E+04 0.14702063E+04 0.32000000E+00 0.0000E+00 0.9000E+01
       25  1    1    2    0    0 0.13791439E+02 0.28900303E+00 -.84807435E+03 0.85734788E+03 0.12500000E+03 0.0000E+00 0.9000E+01
       23  1    1    2    0    0 -.14420038E+02 0.20235290E+02 -.17572771E+03 0.19953166E+03 0.91188000E+02 0.0000E+00 0.9000E+01
       21  1    1    2  502  501 0.62859925E+00 -.20524293E+02 -.42962146E+03 0.43011255E+03 0.75000000E+00 0.0000E+00 0.9000E+01
#aMCatNLO 1  0  0  5  1 0.15272576D+02 0.00000000D+00  -5  6  0 0.00000000D+00 0.00000000D+00 0.00000000D+00 0.00000000D+00 0.00000000D+00
  <mgrwgt>
 0.3067449669D+00   15    2    0
 0.157087196327725D+03 0.000000000000000D+00 0.000000000000000D+00 0.157087196327725D+03
 0.157087196327725D+03 -.000000000000000D+00 -.000000000000000D+00 -.157087196327725D+03
 0.134505106058324D+03 0.137914062669610D+02 0.290065734891213D+00 -.477109686635067D+02
 0.131442123116083D+03 -.144200698719485D+02 0.202363289489493D+02 0.913473204906499D+02
 0.482271634810430D+02 0.628663604987542D+00 -.205263946838405D+02 -.436363518271431D+02
 0.000000000000000D+00 0.000000000000000D+00 0.000000000000000D+00 -.000000000000000D+00
 0.157087196327725D+03 0.000000000000000D+00 0.000000000000000D+00 0.157087196327725D+03
 0.157087196327725D+03 -.000000000000000D+00 -.000000000000000D+00 -.157087196327725D+03
 0.136197959939804D+03 0.138567193596744D+02 -.184246159518115D+01 -.522444346856375D+02
 0.128145672895223D+03 -.143574385835823D+02 0.181913647831161D+02 0.870000019679066D+02
 0.196891018874466D+02 0.203870224627083D+01 -.189935675273091D+02 -.476957218950034D+01
 0.301416579329769D+02 -.153798302236295D+01 0.264466433937415D+01 -.299859950927688D+02
0.134829505263D-03 0.000000000000D+00 0.000000000000D+00 0.246011448422D-04 0.000000000000D+00  6 -2 2 25 23 21 21 2 0.25821977D-02 0.22618582D+00 0.14497102D+05 0.14497102D+05 0.14497102D+05 0.12495144D+01  1  2  2  3  6  5       21 0.153899238740D+00 0.100000000000D+01
0.154764839768D-04 0.711514847041D-05 -.517780801635D-06 0.246011448422D-04 0.000000000000D+00  6 -2 2 25 23 21 21 4 0.25821977D-02 0.22618582D+00 0.14497102D+05 0.14497102D+05 0.14497102D+05 0.12495144D+01  1  2  3  3  6  5       21 0.275807703306D-01 0.100000000000D+01
0.731553988774D-05 0.000000000000D+00 0.000000000000D+00 0.246011448422D-04 0.000000000000D+00  6 -2 2 25 23 21 21 4 0.25821977D-02 0.22618582D+00 0.14497102D+05 0.14497102D+05 0.14497102D+05 0.12495144D+01  1  2 15  3  6  5       21 0.130370842493D-01 0.100000000000D+01
0.268493178054D-04 0.000000000000D+00 0.000000000000D+00 0.245813722394D-04 0.000000000000D+00  6 -2 2 25 23 21 21 4 0.25821977D-02 0.22618582D+00 0.14644381D+05 0.14644381D+05 0.14644381D+05 0.12490122D+01  1  2 12  3  6  5       21 0.477806175741D-01 0.100000000000D+01
-.437700840495D-04 0.000000000000D+00 0.000000000000D+00 0.246011448422D-04 0.000000000000D+00  6 -2 2 25 23 21 21 4 0.25821977D-02 0.22618582D+00 0.14497102D+05 0.14497102D+05 0.14497102D+05 0.12495144D+01  1  2  4  3  6  5       21 -.780030294563D-01 0.100000000000D+01
-.386431710222D-04 0.000000000000D+00 0.000000000000D+00 0.246011448422D-04 0.000000000000D+00  6 -2 2 25 23 21 21 4 0.25821977D-02 0.22618582D+00 0.14497102D+05 0.14497102D+05 0.14497102D+05 0.12495144D+01  1  2  5  3  6  5       21 -.688663152695D-01 0.100000000000D+01
0.113984001820D-03 0.000000000000D+00 -.000000000000D+00 0.246011448422D-04 0.000000000000D+00  6 -2 2 25 23 21 21 4 0.25821977D-02 0.22618582D+00 0.14497102D+05 0.14497102D+05 0.14497102D+05 0.12495144D+01  1  2  6  3  6  5       21 0.203131834097D+00 0.100000000000D+01
0.160119245107D-05 0.000000000000D+00 0.000000000000D+00 0.245813722394D-04 0.000000000000D+00  6 -2 2 25 23 1 -1 4 0.25821977D-02 0.22618582D+00 0.14644381D+05 0.14644381D+05 0.14644381D+05 0.12490122D+01  1  2 12  6  6  5       21 0.284945653821D-02 0.100000000000D+01
0.160119245107D-05 0.000000000000D+00 0.000000000000D+00 0.245813722394D-04 0.000000000000D+00  6 -2 2 25 23 3 -3 4 0.25821977D-02 0.22618582D+00 0.14644381D+05 0.14644381D+05 0.14644381D+05 0.12490122D+01  1  2 12  6  6  5       21 0.284945653821D-02 0.100000000000D+01
-.450738535636D-06 0.000000000000D+00 0.000000000000D+00 0.246011448422D-04 0.000000000000D+00  6 -2 2 25 23 1 -1 4 0.25821977D-02 0.22618582D+00 0.14497102D+05 0.14497102D+05 0.14497102D+05 0.12495144D+01  1  2  5  6  6  5       21 -.803264879101D-03 0.100000000000D+01
-.450738535636D-06 0.000000000000D+00 0.000000000000D+00 0.246011448422D-04 0.000000000000D+00  6 -2 2 25 23 3 -3 4 0.25821977D-02 0.22618582D+00 0.14497102D+05 0.14497102D+05 0.14497102D+05 0.12495144D+01  1  2  5  6  6  5       21 -.803264879101D-03 0.100000000000D+01
0.160119245107D-05 0.000000000000D+00 0.000000000000D+00 0.245813722394D-04 0.000000000000D+00  6 -2 2 25 23 2 -2 4 0.25821977D-02 0.22618582D+00 0.14644381D+05 0.14644381D+05 0.14644381D+05 0.12490122D+01  1  2 12  7  6  5       21 0.284945653821D-02 0.100000000000D+01
-.450738535636D-06 0.000000000000D+00 0.000000000000D+00 0.246011448422D-04 0.000000000000D+00  6 -2 2 25 23 2 -2 4 0.25821977D-02 0.22618582D+00 0.14497102D+05 0.14497102D+05 0.14497102D+05 0.12495144D+01  1  2  5  7  6  5       21 -.803264879101D-03 0.100000000000D+01
0.160119245107D-05 0.000000000000D+00 0.000000000000D+00 0.245813722394D-04 0.000000000000D+00  6 -2 2 25 23 4 -4 4 0.25821977D-02 0.22618582D+00 0.14644381D+05 0.14644381D+05 0.14644381D+05 0.12490122D+01  1  2 12  8  6  5       21 0.284945653821D-02 0.100000000000D+01
-.450738535636D-06 0.000000000000D+00 0.000000000000D+00 0.246011448422D-04 0.000000000000D+00  6 -2 2 25 23 4 -4 4 0.25821977D-02 0.22618582D+00 0.14497102D+05 0.14497102D+05 0.14497102D+05 0.12495144D+01  1  2  5  8  6  5       21 -.803264879101D-03 0.100000000000D+01
  </mgrwgt>
  </event>
  <event>
  5     66 0.42934962E-03 0.10383246E+03 0.75467711E-02 0.10564596E+00
       -2 -1    0    0    0  501 0.00000000E+00 0.00000000E+00 0.11155524E+03 0.11155570E+03 0.32000000E+00 0.0000E+00 0.9000E+01
        2 -1    0    0  502    0 0.00000000E+00 0.00000000E+00 -.72617658E+03 0.72617665E+03 0.32000000E+00 0.0000E+00 0.9000E+01
       25  1    1    2    0    0 0.75391740E+02 -.13386928E+03 -.35157610E+03 0.40352900E+03 0.12500000E+03 0.0000E+00 0.9000E+01
       23  1    1    2    0    0 -.13268979E+01 0.20663807E+03 -.23650038E+03 0.32703017E+03 0.91188000E+02 0.0000E+00 0.9000E+01
       21  1    1    2  502  501 -.74064843E+02 -.72768794E+02 -.26544860E+02 0.10717318E+03 0.75000000E+00 0.0000E+00 0.9000E+01
#aMCatNLO 1  0  0  1  2 0.14339033D+03 0.00000000D+00  -5  6  0 0.00000000D+00 0.00000000D+00 0.00000000D+00 0.00000000D+00 0.00000000D+00
  <mgrwgt>
 0.1028443913D+00    7    4    0
 0.284620844425209D+03 0.000000000000000D+00 0.000000000000000D+00 0.284620844425209D+03
 0.284620844425209D+03 0.000000000000000D+00 0.000000000000000D+00 -.284620844425209D+03
 0.214255491952892D+03 0.753922112006333D+02 -.133868814433166D+03 -.817041666288416D+02
 0.225924811469833D+03 -.132640159789543D+01 0.206638559032294D+03 0.505130414227620D+01
 0.129061385427693D+03 -.740658096027379D+02 -.727697445991278D+02 0.766528624865654D+02
 0.000000000000000D+00 -.000000000000000D+00 0.000000000000000D+00 0.000000000000000D+00
 0.404732663435209D+03 0.000000000000000D+00 0.000000000000000D+00 0.404732663435209D+03
 0.365069872399748D+03 0.000000000000000D+00 0.000000000000000D+00 -.365069872399748D+03
 0.269510142538767D+03 0.102686790513324D+03 -.199475735719474D+03 -.817041666288416D+02
 0.178452245986099D+03 0.214889885001659D+02 0.151798091072270D+03 0.505130414227620D+01
 0.146384125622412D+03 -.585248765317441D+02 -.110124882446239D+03 0.766528624865654D+02
 0.175456021687679D+03 -.656509024817457D+02 0.157802527093444D+03 0.396627910354606D+02
 0.284620844425209D+03 0.000000000000000D+00 0.000000000000000D+00 0.284620844425209D+03
 0.284620844425209D+03 0.000000000000000D+00 0.000000000000000D+00 -.284620844425209D+03
 0.214255491952892D+03 0.753922112006333D+02 -.133868814433166D+03 -.817041666288416D+02
 0.225924811469833D+03 -.132640159789543D+01 0.206638559032294D+03 0.505130414227620D+01
 0.000000000000000D+00 -.000000000000000D+00 0.000000000000000D+00 0.000000000000000D+00
 0.129061385427693D+03 -.740658096027379D+02 -.727697445991278D+02 0.766528624865654D+02
 0.404732663435209D+03 0.000000000000000D+00 0.000000000000000D+00 0.404732663435209D+03
 0.365069872399748D+03 0.000000000000000D+00 0.000000000000000D+00 -.365069872399748D+03
 0.269510142538767D+03 0.102686790513324D+03 -.199475735719474D+03 -.817041666288416D+02
 0.178452245986099D+03 0.214889885001659D+02 0.151798091072270D+03 0.505130414227620D+01
 0.175456021687679D+03 -.656509024817457D+02 0.157802527093444D+03 0.396627910354606D+02
 0.146384125622412D+03 -.585248765317441D+02 -.110124882446239D+03 0.766528624865654D+02
0.444085986365D-03 0.000000000000D+00 0.000000000000D+00 0.831605775015D-06 0.000000000000D+00  6 -2 2 25 23 21 21 2 0.17162385D-01 0.11171951D+00 0.69634251D+05 0.69634251D+05 0.69634251D+05 0.11782926D+01  1  2  2  1  6  1       -2 0.675797781045D-01 0.100000000000D+01
-.795035696974D-05 0.234350613424D-04 -.170540711817D-05 0.831605775015D-06 0.000000000000D+00  6 -2 2 25 23 21 21 4 0.17162385D-01 0.11171951D+00 0.69634251D+05 0.69634251D+05 0.69634251D+05 0.11782926D+01  1  2  3  1  6  1       -2 -.167974203825D-02 0.100000000000D+01
0.475612720979D-05 0.000000000000D+00 0.000000000000D+00 0.831605775015D-06 0.000000000000D+00  6 -2 2 25 23 21 21 4 0.17162385D-01 0.11171951D+00 0.69634251D+05 0.69634251D+05 0.69634251D+05 0.11782926D+01  1  2 15  1  6  1       -2 0.100486894412D-02 0.100000000000D+01
-.814538319117D-04 0.000000000000D+00 0.000000000000D+00 0.831605775015D-06 0.000000000000D+00  6 -2 2 25 23 21 21 4 0.17162385D-01 0.11171951D+00 0.69634251D+05 0.69634251D+05 0.69634251D+05 0.11782926D+01  1  2  4  1  6  1       -2 -.172094694817D-01 0.100000000000D+01
-.275661921602D-03 0.000000000000D+00 -.224397542867D-03 0.831605775015D-06 0.000000000000D+00  6 -2 2 25 23 21 21 4 0.31086843D-01 0.11171951D+00 0.69634251D+05 0.69634251D+05 0.69634251D+05 0.11782926D+01  1  2  5  1  6  1       -2 -.205550744787D-01 0.100000000000D+01
0.375281968048D-03 0.000000000000D+00 0.189892666291D-03 0.831605775015D-06 0.000000000000D+00  6 -2 2 25 23 21 21 4 0.17162385D-01 0.11171951D+00 0.69634251D+05 0.69634251D+05 0.69634251D+05 0.11782926D+01  1  2  6  1  6  1       -2 0.792891313344D-01 0.100000000000D+01
-.589398074641D-05 0.000000000000D+00 -.146004514941D-04 0.831605775015D-06 0.000000000000D+00  6 21 2 25 23 2 21 4 0.31086843D-01 0.11171951D+00 0.69634251D+05 0.69634251D+05 0.69634251D+05 0.11782926D+01  3  4  5  4  5  1       -2 -.558510111183D-02 0.100000000000D+01
  </mgrwgt>
  </event>
  <event>
  5     66 -.42934962E-03 0.34458428E+02 0.75467711E-02 0.11426150E+00
       -2 -1    0    0    0  501 0.00000000E+00 0.00000000E+00 0.36611169E+02 0.36612567E+02 0.32000000E+00 0.0000E+00 0.9000E+01
        2 -1    0    0  502    0 0.00000000E+00 0.00000000E+00 -.12584644E+04 0.12584644E+04 0.32000000E+00 0.0000E+00 0.9000E+01
       25  1    1    2    0    0 -.13958321E+02 -.13830049E+03 -.67088443E+03 0.69644294E+03 0.12500000E+03 0.0000E+00 0.9000E+01
       23  1    1    2    0    0 0.17862351E+02 0.17252994E+03 -.42438383E+03 0.46744254E+03 0.91188000E+02 0.0000E+00 0.9000E+01
       21  1    1    2  502  501 -.39040299E+01 -.34229451E+02 -.12658495E+03 0.13119149E+03 0.75000000E+00 0.0000E+00 0.9000E+01
#aMCatNLO 1  0  0  1  2 0.14339033D+03 0.00000000D+00  -5  6  0 0.00000000D+00 0.00000000D+00 0.00000000D+00 0.00000000D+00 0.00000000D+00
  <mgrwgt>
 -.2417908124D-01    1    2    0
 0.214650374215266D+03 0.000000000000000D+00 0.000000000000000D+00 0.214650374215266D+03
 0.214650374215266D+03 0.000000000000000D+00 0.000000000000000D+00 -.214650374215266D+03
 0.191529574392248D+03 -.139579323268661D+02 -.138297077275666D+03 -.416853980314749D+02
 0.202284211945464D+03 0.178627622517204D+02 0.172533543075124D+03 0.501672133677006D+02
 0.354869620928204D+02 -.390482992485429D+01 -.342364657994572D+02 -.848181533622568D+01
 0.000000000000000D+00 0.000000000000000D+00 0.000000000000000D+00 -.000000000000000D+00
 0.279720480344166D+03 0.000000000000000D+00 0.000000000000000D+00 0.279720480344166D+03
 0.588127825672787D+03 0.000000000000000D+00 0.000000000000000D+00 -.588127825672787D+03
 0.262445334179539D+03 -.108121483795140D+03 -.199561082792975D+03 -.416853980314749D+02
 0.171175853392166D+03 -.596003869659282D+02 0.122135031898991D+03 0.501672133677006D+02
 0.516852411939737D+02 -.219861029111142D+02 -.460003722230952D+02 -.848181533622568D+01
 0.382541877251274D+03 0.189707973672182D+03 0.123426423117080D+03 -.308407345328621D+03
-.389620655539D-04 0.000000000000D+00 0.000000000000D+00 0.706293531884D-05 0.000000000000D+00  6 -2 2 25 23 21 21 4 0.56325982D-02 0.19361001D+00 0.43547622D+05 0.43547622D+05 0.43547622D+05 0.11982706D+01  1  2 14  1  6  1       -2 -.241790812400D-01 0.100000000000D+01
  </mgrwgt>
  </event>
  <event>
  6     66 0.42934962E-03 0.61089266E+02 0.75467711E-02 0.11364177E+00
       21 -1    0    0  503  501 0.00000000E+00 0.00000000E+00 0.54631128E+03 0.54631179E+03 0.75000000E+00 0.0000E+00 0.9000E+01
        2 -1    0    0  502    0 0.00000000E+00 0.00000000E+00 -.88393009E+02 0.88393588E+02 0.32000000E+00 0.0000E+00 0.9000E+01
       25  1    1    2    0    0 0.33953153E+02 -.65154500E+02 0.16384220E+03 0.21878572E+03 0.12500000E+03 0.0000E+00 0.9000E+01
       23  1    1    2    0    0 -.76820600E+02 0.63673779E+02 0.13323646E+03 0.18979716E+03 0.91188000E+02 0.0000E+00 0.9000E+01
        2  1    1    2  503    0 -.31026500E+02 -.52918576E+02 0.35803098E+02 0.71028048E+02 0.32000000E+00 0.0000E+00 0.9000E+01
       21  1    1    2  502  501 0.73893947E+02 0.54399297E+02 0.12503651E+03 0.15509446E+03 0.75000000E+00 0.0000E+00 0.9000E+01
#aMCatNLO 2  0  0  1  1 0.61343454D+02 0.00000000D+00  -5  6  0 0.00000000D+00 0.00000000D+00 0.00000000D+00 0.00000000D+00 0.00000000D+00
  <mgrwgt>
 0.2824692864D-02    1    2    0
 0.184247048616223D+03 0.000000000000000D+00 0.000000000000000D+00 0.184247048616223D+03
 0.184247048616223D+03 0.000000000000000D+00 0.000000000000000D+00 -.184247048616223D+03
 0.153486330540231D+03 0.214721248745476D+02 -.864407398425459D+02 0.339853564999526D-02
 0.135028910213010D+03 -.881468393097265D+02 0.443569798830635D+02 -.134219337158188D+02
 0.000000000000000D+00 -.000000000000000D+00 -.000000000000000D+00 -.000000000000000D+00
 0.799788564792058D+02 0.666747144351789D+02 0.420837599594823D+02 0.134185351801688D+02
 0.207023985273228D+03 0.000000000000000D+00 0.000000000000000D+00 0.207023985273228D+03
 0.233259313532260D+03 0.000000000000000D+00 0.000000000000000D+00 -.233259313532260D+03
 0.144992899650685D+03 0.339519447660179D+02 -.651552483240517D+02 0.339853564999526D-02
 0.135835323793667D+03 -.768216397195163D+02 0.636731592766005D+02 -.134219337158188D+02
 0.667181518355768D+02 -.310264996010697D+02 -.529185757366987D+02 -.262353282590324D+02
 0.927369235255593D+02 0.738961945545681D+02 0.544006647841499D+02 0.134185351801688D+02
0.212617249100D-05 0.000000000000D+00 0.000000000000D+00 0.190765290112D-05 0.158689833767D-09  6 21 2 25 23 2 21 4 0.84047823D-01 0.13598984D-01 0.46930275D+05 0.46930275D+05 0.46930275D+05 0.11950166D+01  1  2  1  4  5  1       -2 0.282469286389D-02 0.100000000000D+01
  </mgrwgt>
  </event>
  <event>
  5     66 0.42934962E-03 0.27449506E+02 0.75467711E-02 0.10417409E+00
       -2 -1    0    0    0  501 0.00000000E+00 0.00000000E+00 0.38591099E+02 0.38592426E+02 0.32000000E+00 0.0000E+00 0.9000E+01
        2 -1    0    0  502    0 0.00000000E+00 0.00000000E+00 -.34241248E+04 0.34241248E+04 0.32000000E+00 0.0000E+00 0.9000E+01
       25  1    1    2    0    0 -.26027110E+03 0.16892057E+03 -.21842038E+04 0.22096711E+04 0.12500000E+03 0.0000E+00 0.9000E+01
       23  1    1    2    0    0 0.27313165E+03 -.14468014E+03 -.10212943E+04 0.10709298E+04 0.91188000E+02 0.0000E+00 0.9000E+01
       21  1    1    2  502  501 -.12860553E+02 -.24240430E+02 -.18003555E+03 0.18211632E+03 0.75000000E+00 0.0000E+00 0.9000E+01
#aMCatNLO 1  0  0  2  5 0.16551172D+01 0.00000000D+00  -5  6  0 0.00000000D+00 0.00000000D+00 0.00000000D+00 0.00000000D+00 0.00000000D+00
  <mgrwgt>
 0.1431278137D+01    7    4    0
 0.363514870094207D+03 0.000000000000000D+00 0.000000000000000D+00 0.363514870094207D+03
 0.363514870094207D+03 0.000000000000000D+00 0.000000000000000D+00 -.363514870094207D+03
 0.353177556829043D+03 -.260269008599833D+03 0.168924500684010D+03 -.113286993423120D+03
 0.344829136254240D+03 0.273133686611524D+03 -.144676296091870D+03 0.122713652268117D+03
 0.290230471051317D+02 -.128646780116912D+02 -.242482045921395D+02 -.942665884499650D+01
 0.000000000000000D+00 0.000000000000000D+00 -.000000000000000D+00 -.000000000000000D+00
 0.390305766296065D+03 0.000000000000000D+00 0.000000000000000D+00 0.390305766296065D+03
 0.529637393746939D+03 0.000000000000000D+00 0.000000000000000D+00 -.529637393746939D+03
 0.405593704835935D+03 -.320391462066412D+03 0.182747425586891D+03 -.113286993423120D+03
 0.300539574793574D+03 0.221996865465166D+03 -.132919283566240D+03 0.122713652268117D+03
 0.305722133255508D+02 -.175868037076619D+02 -.231625271935341D+02 -.942665884499650D+01
 0.183237667087944D+03 0.115981400308907D+03 -.266656148271171D+02 -.139331627450874D+03
 0.363514870094207D+03 0.000000000000000D+00 0.000000000000000D+00 0.363514870094207D+03
 0.363514870094207D+03 0.000000000000000D+00 0.000000000000000D+00 -.363514870094207D+03
 0.353177556829043D+03 -.260269008599833D+03 0.168924500684010D+03 -.113286993423120D+03
 0.344829136254240D+03 0.273133686611524D+03 -.144676296091870D+03 0.122713652268117D+03
 0.000000000000000D+00 0.000000000000000D+00 -.000000000000000D+00 -.000000000000000D+00
 0.290230471051317D+02 -.128646780116912D+02 -.242482045921395D+02 -.942665884499650D+01
 0.390305766296065D+03 0.000000000000000D+00 0.000000000000000D+00 0.390305766296065D+03
 0.529637393746939D+03 0.000000000000000D+00 0.000000000000000D+00 -.529637393746939D+03
 0.405593704835935D+03 -.320391462066412D+03 0.182747425586891D+03 -.113286993423120D+03
 0.300539574793574D+03 0.221996865465166D+03 -.132919283566240D+03 0.122713652268117D+03
 0.183237667087944D+03 0.115981400308907D+03 -.266656148271171D+02 -.139331627450874D+03
 0.305722133255508D+02 -.175868037076619D+02 -.231625271935341D+02 -.942665884499650D+01
0.144466691801D-01 0.000000000000D+00 0.000000000000D+00 0.830459597644D-05 0.000000000000D+00  6 -2 2 25 23 21 21 2 0.59371953D-02 0.52678853D+00 0.11703927D+06 0.11703927D+06 0.11703927D+06 0.11573463D+01  1  2  2  2  6  2        2 0.324021516572D+00 0.100000000000D+01
0.684905274032D-02 0.762371677612D-03 -.554790135469D-04 0.830459597644D-05 0.000000000000D+00  6 -2 2 25 23 21 21 4 0.59371953D-02 0.52678853D+00 0.11703927D+06 0.11703927D+06 0.11703927D+06 0.11573463D+01  1  2  3  2  6  2        2 0.205761099198D+00 0.100000000000D+01
0.400452555478D-03 0.000000000000D+00 0.000000000000D+00 0.830459597644D-05 0.000000000000D+00  6 -2 2 25 23 21 21 4 0.59371953D-02 0.52678853D+00 0.11703927D+06 0.11703927D+06 0.11703927D+06 0.11573463D+01  1  2 15  2  6  2        2 0.120305042341D-01 0.100000000000D+01
-.220082517320D-02 0.000000000000D+00 0.000000000000D+00 0.830459597644D-05 0.000000000000D+00  6 -2 2 25 23 21 21 4 0.59371953D-02 0.52678853D+00 0.11703927D+06 0.11703927D+06 0.11703927D+06 0.11573463D+01  1  2  4  2  6  2        2 -.661177864955D-01 0.100000000000D+01
-.311515226066D-01 0.000000000000D+00 -.737020487509D-02 0.830459597644D-05 0.000000000000D+00  6 -2 2 25 23 21 21 4 0.59371953D-02 0.77317280D+00 0.11703927D+06 0.11703927D+06 0.11703927D+06 0.11573463D+01  1  2  5  2  6  2        2 -.380085411500D-01 0.100000000000D+01
0.330737363706D-01 0.000000000000D+00 0.711340312357D-02 0.830459597644D-05 0.000000000000D+00  6 -2 2 25 23 21 21 4 0.59371953D-02 0.52678853D+00 0.11703927D+06 0.11703927D+06 0.11703927D+06 0.11573463D+01  1  2  6  2  6  2        2 0.993610154314D+00 0.100000000000D+01
-.120079602107D-02 0.000000000000D+00 -.340312068255D-03 0.830459597644D-05 0.000000000000D+00  6 -2 21 25 23 -2 21 4 0.59371953D-02 0.77317280D+00 0.11703927D+06 0.11703927D+06 0.11703927D+06 0.11573463D+01  3  4  5  5  5  2        2 -.188098760638D-04 0.100000000000D+01
  </mgrwgt>
  </event>
  <event>
  5     66 0.42934962E-03 0.43126561E+02 0.75467711E-02 0.11332599E+00
       -2 -1    0    0    0  501 0.00000000E+00 0.00000000E+00 0.52880965E+02 0.52881933E+02 0.32000000E+00 0.0000E+00 0.9000E+01
        2 -1    0    0  502    0 -.00000000E+00 -.00000000E+00 -.10749043E+04 0.10749043E+04 0.32000000E+00 0.0000E+00 0.9000E+01
       25  1    1    2    0    0 -.43591582E+02 0.18352868E+03 -.68321383E+03 0.71971463E+03 0.12500000E+03 0.0000E+00 0.9000E+01
       23  1    1    2    0    0 0.27462345E+02 -.14353753E+03 -.20651850E+03 0.26892814E+03 0.91188000E+02 0.0000E+00 0.9000E+01
       21  1    1    2  502  501 0.16129237E+02 -.39991148E+02 -.13229097E+03 0.13914348E+03 0.75000000E+00 0.0000E+00 0.9000E+01
#aMCatNLO 1  0  0  5  2 0.16359942D+02 0.00000000D+00  -5  6  0 0.00000000D+00 0.00000000D+00 0.00000000D+00 0.00000000D+00 0.00000000D+00
  <mgrwgt>
 0.1091205468D+00   14    2    0
 0.238416751773806D+03 0.000000000000000D+00 0.000000000000000D+00 0.238416751773806D+03
 0.238416751773806D+03 -.000000000000000D+00 -.000000000000000D+00 -.238416751773806D+03
 0.237870755529968D+03 -.435926727834197D+02 0.183531386434958D+03 -.733035156677862D+02
 0.193413587640439D+03 0.274614579578302D+02 -.143535334112862D+03 0.879604497935574D+02
 0.455491603772050D+02 0.161312148255895D+02 -.399960523220959D+02 -.146569341257712D+02
 0.000000000000000D+00 0.000000000000000D+00 0.000000000000000D+00 0.000000000000000D+00
 0.238416751773806D+03 0.000000000000000D+00 0.000000000000000D+00 0.238416751773806D+03
 0.238416751773806D+03 -.000000000000000D+00 -.000000000000000D+00 -.238416751773806D+03
 0.232658982200009D+03 -.406761430540388D+02 0.176300085078149D+03 -.759534948901555D+02
 0.197294760448323D+03 0.298832230904988D+02 -.149539906366428D+03 0.857600171292236D+02
 0.174153120775807D+02 -.426209881049908D+00 -.116968915507610D+02 0.128955096039885D+02
 0.294644488216983D+02 0.112191298445900D+02 -.150632871609603D+02 -.227020318430566D+02
0.321185030509D-03 0.000000000000D+00 0.000000000000D+00 0.397205770055D-05 0.000000000000D+00  6 -2 2 25 23 21 21 2 0.81356112D-02 0.16536997D+00 0.48769376D+05 0.48769376D+05 0.48769376D+05 0.11933551D+01  1  2  2  3  6  5       21 0.993828182388D-01 0.100000000000D+01
0.491450136555D-04 0.169493997184D-04 -.123343508712D-05 0.397205770055D-05 0.000000000000D+00  6 -2 2 25 23 21 21 4 0.81356112D-02 0.16536997D+00 0.48769376D+05 0.48769376D+05 0.48769376D+05 0.11933551D+01  1  2  3  3  6  5       21 0.216558310384D-01 0.100000000000D+01
0.100801497801D-04 0.000000000000D+00 0.000000000000D+00 0.397205770055D-05 0.000000000000D+00  6 -2 2 25 23 21 21 4 0.81356112D-02 0.16536997D+00 0.48769376D+05 0.48769376D+05 0.48769376D+05 0.11933551D+01  1  2 15  3  6  5       21 0.444183456761D-02 0.100000000000D+01
0.505678659220D-04 0.000000000000D+00 0.000000000000D+00 0.399009561692D-05 0.000000000000D+00  6 -2 2 25 23 21 21 4 0.81356112D-02 0.16536997D+00 0.45813026D+05 0.45813026D+05 0.45813026D+05 0.11960617D+01  1  2 12  3  6  5       21 0.224800154163D-01 0.100000000000D+01
0.470640731064D-04 0.000000000000D+00 0.000000000000D+00 0.399009561692D-05 0.000000000000D+00  6 -2 2 25 23 21 21 4 0.81356112D-02 0.16536997D+00 0.45813026D+05 0.45813026D+05 0.45813026D+05 0.11960617D+01  1  2 12  3  6  5       21 0.209223994269D-01 0.100000000000D+01
-.161356764957D-03 0.000000000000D+00 0.000000000000D+00 0.397205770055D-05 0.000000000000D+00  6 -2 2 25 23 21 21 4 0.81356112D-02 0.16536997D+00 0.48769376D+05 0.48769376D+05 0.48769376D+05 0.11933551D+01  1  2  4  3  6  5       21 -.711021236726D-01 0.100000000000D+01
0.328386997899D-05 0.000000000000D+00 0.000000000000D+00 0.399009561692D-05 0.000000000000D+00  6 -2 2 25 23 1 -1 4 0.81356112D-02 0.16536997D+00 0.45813026D+05 0.45813026D+05 0.45813026D+05 0.11960617D+01  1  2 12  6  6  5       21 0.145984898526D-02 0.100000000000D+01
0.328386997899D-05 0.000000000000D+00 0.000000000000D+00 0.399009561692D-05 0.000000000000D+00  6 -2 2 25 23 3 -3 4 0.81356112D-02 0.16536997D+00 0.45813026D+05 0.45813026D+05 0.45813026D+05 0.11960617D+01  1  2 12  6  6  5       21 0.145984898526D-02 0.100000000000D+01
0.309321706935D-05 0.000000000000D+00 0.000000000000D+00 0.399009561692D-05 0.000000000000D+00  6 -2 2 25 23 1 -1 4 0.81356112D-02 0.16536997D+00 0.45813026D+05 0.45813026D+05 0.45813026D+05 0.11960617D+01  1  2 12  6  6  5       21 0.137509396802D-02 0.100000000000D+01
0.309321706935D-05 0.000000000000D+00 0.000000000000D+00 0.399009561692D-05 0.000000000000D+00  6 -2 2 25 23 3 -3 4 0.81356112D-02 0.16536997D+00 0.45813026D+05 0.45813026D+05 0.45813026D+05 0.11960617D+01  1  2 12  6  6  5       21 0.137509396802D-02 0.100000000000D+01
0.328386997899D-05 0.000000000000D+00 0.000000000000D+00 0.399009561692D-05 0.000000000000D+00  6 -2 2 25 23 2 -2 4 0.81356112D-02 0.16536997D+00 0.45813026D+05 0.45813026D+05 0.45813026D+05 0.11960617D+01  1  2 12  7  6  5       21 0.145984898526D-02 0.100000000000D+01
0.309321706935D-05 0.000000000000D+00 0.000000000000D+00 0.399009561692D-05 0.000000000000D+00  6 -2 2 25 23 2 -2 4 0.81356112D-02 0.16536997D+00 0.45813026D+05 0.45813026D+05 0.45813026D+05 0.11960617D+01  1  2 12  7  6  5       21 0.137509396802D-02 0.100000000000D+01
0.328386997899D-05 0.000000000000D+00 0.000000000000D+00 0.399009561692D-05 0.000000000000D+00  6 -2 2 25 23 4 -4 4 0.81356112D-02 0.16536997D+00 0.45813026D+05 0.45813026D+05 0.45813026D+05 0.11960617D+01  1  2 12  8  6  5       21 0.145984898526D-02 0.100000000000D+01
0.309321706935D-05 0.000000000000D+00 0.000000000000D+00 0.399009561692D-05 0.000000000000D+00  6 -2 2 25 23 4 -4 4 0.81356112D-02 0.16536997D+00 0.45813026D+05 0.45813026D+05 0.45813026D+05 0.11960617D+01  1  2 12  8  6  5       21 0.137509396802D-02 0.100000000000D+01
  </mgrwgt>
  </event>
  <event>
  5     66 0.42934962E-03 0.62438891E+02 0.75467711E-02 0.12019306E+00
       -2 -1    0    0    0  501 0.00000000E+00 0.00000000E+00 0.18322165E+02 0.18324959E+02 0.32000000E+00 0.0000E+00 0.9000E+01
        2 -1    0    0  502    0 -.00000000E+00 -.00000000E+00 -.13119658E+04 0.13119659E+04 0.32000000E+00 0.0000E+00 0.9000E+01
       25  1    1    2    0    0 0.25187600E+02 0.40402342E+02 -.66831742E+03 0.68157167E+03 0.12500000E+03 0.0000E+00 0.9000E+01
       23  1    1    2    0    0 -.26309265E+02 0.24941045E+02 -.26656975E+03 0.28405795E+03 0.91188000E+02 0.0000E+00 0.9000E+01
       21  1    1    2  502  501 0.11216648E+01 -.65343387E+02 -.35875648E+03 0.36466120E+03 0.75000000E+00 0.0000E+00 0.9000E+01
#aMCatNLO 1  0  0  5  2 0.12227566D+02 0.00000000D+00  -5  6  0 0.00000000D+00 0.00000000D+00 0.00000000D+00 0.00000000D+00 0.00000000D+00
  <mgrwgt>
 0.8935011646D-01   20    2    0
 0.155048180727868D+03 0.000000000000000D+00 0.000000000000000D+00 0.155048180727868D+03
 0.155048180727868D+03 -.000000000000000D+00 -.000000000000000D+00 -.155048180727868D+03
 0.135841889392582D+03 0.251875702637683D+02 0.404040970201044D+02 -.236878484025936D+02
 0.106526748174463D+03 -.263092887856895D+02 0.249424218766667D+02 0.414535118794895D+02
 0.677277238886912D+02 0.112171852192119D+01 -.653465188967711D+02 -.177656634768959D+02
 0.000000000000000D+00 0.000000000000000D+00 0.000000000000000D+00 -.000000000000000D+00
 0.155048180727868D+03 0.000000000000000D+00 0.000000000000000D+00 0.155048180727868D+03
 0.155048180727868D+03 -.000000000000000D+00 -.000000000000000D+00 -.155048180727868D+03
 0.135231620458088D+03 0.252317334007983D+02 0.378313417235903D+02 -.243872996599509D+02
 0.105851344492262D+03 -.262746882715567D+02 0.229267440515894D+02 0.409055124676963D+02
 0.502485397064494D+02 0.130313617403999D+02 -.468832099422975D+02 -.125325168792195D+02
 0.187648567989376D+02 -.119884068696414D+02 -.138748758328823D+02 -.398569592852592D+01
0.308629777016D-04 0.000000000000D+00 0.000000000000D+00 0.337175321051D-05 0.000000000000D+00  6 -2 2 25 23 21 21 2 0.28190125D-02 0.20184111D+00 0.22088954D+05 0.22088954D+05 0.22088954D+05 0.12291042D+01  1  2  2  3  6  5       21 0.366489652596D-01 0.100000000000D+01
-.999291099281D-06 0.162868407888D-05 -.118521960783D-06 0.337175321051D-05 0.000000000000D+00  6 -2 2 25 23 21 21 4 0.28190125D-02 0.20184111D+00 0.22088954D+05 0.22088954D+05 0.22088954D+05 0.12291042D+01  1  2  3  3  6  5       21 -.179264105521D-02 0.100000000000D+01
0.129604551150D-05 0.000000000000D+00 0.000000000000D+00 0.337175321051D-05 0.000000000000D+00  6 -2 2 25 23 21 21 4 0.28190125D-02 0.20184111D+00 0.22088954D+05 0.22088954D+05 0.22088954D+05 0.12291042D+01  1  2 15  3  6  5       21 0.232499258225D-02 0.100000000000D+01
0.405168497080D-04 0.000000000000D+00 0.000000000000D+00 0.337106872166D-05 0.000000000000D+00  6 -2 2 25 23 21 21 4 0.28190125D-02 0.20184111D+00 0.22147369D+05 0.22147369D+05 0.22147369D+05 0.12289795D+01  1  2 12  3  6  5       21 0.726579413951D-01 0.100000000000D+01
0.387807318857D-04 0.000000000000D+00 0.000000000000D+00 0.337106872166D-05 0.000000000000D+00  6 -2 2 25 23 21 21 4 0.28190125D-02 0.20184111D+00 0.22147369D+05 0.22147369D+05 0.22147369D+05 0.12289795D+01  1  2 12  3  6  5       21 0.695446009479D-01 0.100000000000D+01
-.752725377489D-04 0.000000000000D+00 0.000000000000D+00 0.337175321051D-05 0.000000000000D+00  6 -2 2 25 23 21 21 4 0.28190125D-02 0.20184111D+00 0.22088954D+05 0.22088954D+05 0.22088954D+05 0.12291042D+01  1  2  4  3  6  5       21 -.135032366040D+00 0.100000000000D+01
-.662421851117D-04 0.000000000000D+00 0.000000000000D+00 0.337175321051D-05 0.000000000000D+00  6 -2 2 25 23 21 21 4 0.28190125D-02 0.20184111D+00 0.22088954D+05 0.22088954D+05 0.22088954D+05 0.12291042D+01  1  2  5  3  6  5       21 -.118832701205D+00 0.100000000000D+01
0.939534661585D-04 0.000000000000D+00 -.000000000000D+00 0.337175321051D-05 0.000000000000D+00  6 -2 2 25 23 21 21 4 0.28190125D-02 0.20184111D+00 0.22088954D+05 0.22088954D+05 0.22088954D+05 0.12291042D+01  1  2  6  3  6  5       21 0.168544321906D+00 0.100000000000D+01
0.690774767965D-06 0.000000000000D+00 0.000000000000D+00 0.337106872166D-05 0.000000000000D+00  6 -2 2 25 23 1 -1 4 0.28190125D-02 0.20184111D+00 0.22147369D+05 0.22147369D+05 0.22147369D+05 0.12289795D+01  1  2 12  6  6  5       21 0.123875061782D-02 0.100000000000D+01
0.690774767965D-06 0.000000000000D+00 0.000000000000D+00 0.337106872166D-05 0.000000000000D+00  6 -2 2 25 23 3 -3 4 0.28190125D-02 0.20184111D+00 0.22147369D+05 0.22147369D+05 0.22147369D+05 0.12289795D+01  1  2 12  6  6  5       21 0.123875061782D-02 0.100000000000D+01
0.669027115250D-06 0.000000000000D+00 0.000000000000D+00 0.337106872166D-05 0.000000000000D+00  6 -2 2 25 23 1 -1 4 0.28190125D-02 0.20184111D+00 0.22147369D+05 0.22147369D+05 0.22147369D+05 0.12289795D+01  1  2 12  6  6  5       21 0.119975104881D-02 0.100000000000D+01
0.669027115250D-06 0.000000000000D+00 0.000000000000D+00 0.337106872166D-05 0.000000000000D+00  6 -2 2 25 23 3 -3 4 0.28190125D-02 0.20184111D+00 0.22147369D+05 0.22147369D+05 0.22147369D+05 0.12289795D+01  1  2 12  6  6  5       21 0.119975104881D-02 0.100000000000D+01
-.201612423862D-05 0.000000000000D+00 0.000000000000D+00 0.337175321051D-05 0.000000000000D+00  6 -2 2 25 23 1 -1 4 0.28190125D-02 0.20184111D+00 0.22088954D+05 0.22088954D+05 0.22088954D+05 0.12291042D+01  1  2  5  6  6  5       21 -.361675099993D-02 0.100000000000D+01
-.201612423862D-05 0.000000000000D+00 0.000000000000D+00 0.337175321051D-05 0.000000000000D+00  6 -2 2 25 23 3 -3 4 0.28190125D-02 0.20184111D+00 0.22088954D+05 0.22088954D+05 0.22088954D+05 0.12291042D+01  1  2  5  6  6  5       21 -.361675099993D-02 0.100000000000D+01
0.690774767965D-06 0.000000000000D+00 0.000000000000D+00 0.337106872166D-05 0.000000000000D+00  6 -2 2 25 23 2 -2 4 0.28190125D-02 0.20184111D+00 0.22147369D+05 0.22147369D+05 0.22147369D+05 0.12289795D+01  1  2 12  7  6  5       21 0.123875061782D-02 0.100000000000D+01
0.669027115250D-06 0.000000000000D+00 0.000000000000D+00 0.337106872166D-05 0.000000000000D+00  6 -2 2 25 23 2 -2 4 0.28190125D-02 0.20184111D+00 0.22147369D+05 0.22147369D+05 0.22147369D+05 0.12289795D+01  1  2 12  7  6  5       21 0.119975104881D-02 0.100000000000D+01
-.201612423862D-05 0.000000000000D+00 0.000000000000D+00 0.337175321051D-05 0.000000000000D+00  6 -2 2 25 23 2 -2 4 0.28190125D-02 0.20184111D+00 0.22088954D+05 0.22088954D+05 0.22088954D+05 0.12291042D+01  1  2  5  7  6  5       21 -.361675099993D-02 0.100000000000D+01
0.690774767965D-06 0.000000000000D+00 0.000000000000D+00 0.337106872166D-05 0.000000000000D+00  6 -2 2 25 23 4 -4 4 0.28190125D-02 0.20184111D+00 0.22147369D+05 0.22147369D+05 0.22147369D+05 0.12289795D+01  1  2 12  8  6  5       21 0.123875061782D-02 0.100000000000D+01
0.669027115250D-06 0.000000000000D+00 0.000000000000D+00 0.337106872166D-05 0.000000000000D+00  6 -2 2 25 23 4 -4 4 0.28190125D-02 0.20184111D+00 0.22147369D+05 0.22147369D+05 0.22147369D+05 0.12289795D+01  1  2 12  8  6  5       21 0.119975104881D-02 0.100000000000D+01
-.201612423862D-05 0.000000000000D+00 0.000000000000D+00 0.337175321051D-05 0.000000000000D+00  6 -2 2 25 23 4 -4 4 0.28190125D-02 0.20184111D+00 0.22088954D+05 0.22088954D+05 0.22088954D+05 0.12291042D+01  1  2  5  8  6  5       21 -.361675099993D-02 0.100000000000D+01
  </mgrwgt>
  </event>
  <event>
  5     66 0.42934962E-03 0.36326426E+02 0.75467711E-02 0.12281614E+00
       -2 -1    0    0    0  501 0.00000000E+00 0.00000000E+00 0.82100981E+02 0.82101605E+02 0.32000000E+00 0.0000E+00 0.9000E+01
        2 -1    0    0  502    0 -.00000000E+00 -.00000000E+00 -.42163732E+03 0.42163744E+03 0.32000000E+00 0.0000E+00 0.9000E+01
       25  1    1    2    0    0 0.92295766E+01 0.87699627E+01 0.14428598E+02 0.12647245E+03 0.12500000E+03 0.0000E+00 0.9000E+01
       23  1    1    2    0    0 0.17699914E+02 0.15605955E+02 -.25329598E+03 0.27024237E+03 0.91188000E+02 0.0000E+00 0.9000E+01
       21  1    1    2  502  501 -.26929490E+02 -.24375918E+02 -.10066896E+03 0.10702422E+03 0.75000000E+00 0.0000E+00 0.9000E+01
#aMCatNLO 1  0  0  5  1 0.10201058D+02 0.00000000D+00  -5  6  0 0.00000000D+00 0.00000000D+00 0.00000000D+00 0.00000000D+00 0.00000000D+00
  <mgrwgt>
 0.4898305738D-01   20    2    0
 0.186056509772686D+03 0.000000000000000D+00 0.000000000000000D+00 0.186056509772686D+03
 0.186056509772686D+03 -.000000000000000D+00 -.000000000000000D+00 -.186056509772686D+03
 0.184376010498401D+03 0.923091149443125D+01 0.877117101672760D+01 0.134934688198712D+03
 0.134712180185789D+03 0.177008888506551D+02 0.156068380766319D+02 -.963079710385127D+02
 0.530248288611814D+02 -.269318003450863D+02 -.243780090933594D+02 -.386267171601998D+02
 0.000000000000000D+00 -.000000000000000D+00 0.000000000000000D+00 0.000000000000000D+00
 0.186056509772686D+03 0.000000000000000D+00 0.000000000000000D+00 0.186056509772686D+03
 0.186056509772686D+03 -.000000000000000D+00 -.000000000000000D+00 -.186056509772686D+03
 0.183214744529627D+03 0.820830686959717D+01 0.784553424073446D+01 0.133468025773473D+03
 0.135311721151825D+03 0.169497064921582D+02 0.149268861190366D+02 -.973853482700977D+02
 0.251663469872093D+02 -.432156959680806D+01 -.176019851706983D+02 -.174596441816859D+02
 0.284202068767098D+02 -.208364437649473D+02 -.517043518907271D+01 -.186230333216899D+02
0.428819230954D-04 0.000000000000D+00 0.000000000000D+00 0.484525627836D-05 0.000000000000D+00  6 -2 2 25 23 21 21 2 0.12630977D-01 0.64867337D-01 0.16405177D+05 0.16405177D+05 0.16405177D+05 0.12434133D+01  1  2  2  3  6  5       21 0.219677474029D-01 0.100000000000D+01
0.647060629575D-06 0.226294125255D-05 -.164677875756D-06 0.484525627836D-05 0.000000000000D+00  6 -2 2 25 23 21 21 4 0.12630977D-01 0.64867337D-01 0.16405177D+05 0.16405177D+05 0.16405177D+05 0.12434133D+01  1  2  3  3  6  5       21 0.512492203889D-03 0.100000000000D+01
0.157950259225D-05 0.000000000000D+00 0.000000000000D+00 0.484525627836D-05 0.000000000000D+00  6 -2 2 25 23 21 21 4 0.12630977D-01 0.64867337D-01 0.16405177D+05 0.16405177D+05 0.16405177D+05 0.12434133D+01  1  2 15  3  6  5       21 0.125101532616D-02 0.100000000000D+01
0.270850535465D-04 0.000000000000D+00 0.000000000000D+00 0.483672110074D-05 0.000000000000D+00  6 -2 2 25 23 21 21 4 0.12630977D-01 0.64867337D-01 0.16776870D+05 0.16776870D+05 0.16776870D+05 0.12423176D+01  1  2 12  3  6  5       21 0.213876972839D-01 0.100000000000D+01
0.251689412819D-04 0.000000000000D+00 0.000000000000D+00 0.483672110074D-05 0.000000000000D+00  6 -2 2 25 23 21 21 4 0.12630977D-01 0.64867337D-01 0.16776870D+05 0.16776870D+05 0.16776870D+05 0.12423176D+01  1  2 12  3  6  5       21 0.198746403129D-01 0.100000000000D+01
-.913723419655D-04 0.000000000000D+00 0.000000000000D+00 0.484525627836D-05 0.000000000000D+00  6 -2 2 25 23 21 21 4 0.12630977D-01 0.64867337D-01 0.16405177D+05 0.16405177D+05 0.16405177D+05 0.12434133D+01  1  2  4  3  6  5       21 -.723697452264D-01 0.100000000000D+01
-.439614170232D-04 0.000000000000D+00 0.000000000000D+00 0.484525627836D-05 0.000000000000D+00  6 -2 2 25 23 21 21 4 0.12630977D-01 0.64867337D-01 0.16405177D+05 0.16405177D+05 0.16405177D+05 0.12434133D+01  1  2  5  3  6  5       21 -.348188136730D-01 0.100000000000D+01
0.122463059675D-03 0.000000000000D+00 -.000000000000D+00 0.484525627836D-05 0.000000000000D+00  6 -2 2 25 23 21 21 4 0.12630977D-01 0.64867337D-01 0.16405177D+05 0.16405177D+05 0.16405177D+05 0.12434133D+01  1  2  6  3  6  5       21 0.969945635372D-01 0.100000000000D+01
0.114120177336D-05 0.000000000000D+00 0.000000000000D+00 0.483672110074D-05 0.000000000000D+00  6 -2 2 25 23 1 -1 4 0.12630977D-01 0.64867337D-01 0.16776870D+05 0.16776870D+05 0.16776870D+05 0.12423176D+01  1  2 12  6  6  5       21 0.901149337824D-03 0.100000000000D+01
0.114120177336D-05 0.000000000000D+00 0.000000000000D+00 0.483672110074D-05 0.000000000000D+00  6 -2 2 25 23 3 -3 4 0.12630977D-01 0.64867337D-01 0.16776870D+05 0.16776870D+05 0.16776870D+05 0.12423176D+01  1  2 12  6  6  5       21 0.901149337824D-03 0.100000000000D+01
0.106087387957D-05 0.000000000000D+00 0.000000000000D+00 0.483672110074D-05 0.000000000000D+00  6 -2 2 25 23 1 -1 4 0.12630977D-01 0.64867337D-01 0.16776870D+05 0.16776870D+05 0.16776870D+05 0.12423176D+01  1  2 12  6  6  5       21 0.837718461724D-03 0.100000000000D+01
0.106087387957D-05 0.000000000000D+00 0.000000000000D+00 0.483672110074D-05 0.000000000000D+00  6 -2 2 25 23 3 -3 4 0.12630977D-01 0.64867337D-01 0.16776870D+05 0.16776870D+05 0.16776870D+05 0.12423176D+01  1  2 12  6  6  5       21 0.837718461724D-03 0.100000000000D+01
-.403141033440D-05 0.000000000000D+00 0.000000000000D+00 0.484525627836D-05 0.000000000000D+00  6 -2 2 25 23 1 -1 4 0.12630977D-01 0.64867337D-01 0.16405177D+05 0.16405177D+05 0.16405177D+05 0.12434133D+01  1  2  5  6  6  5       21 -.319300274600D-02 0.100000000000D+01
-.403141033440D-05 0.000000000000D+00 0.000000000000D+00 0.484525627836D-05 0.000000000000D+00  6 -2 2 25 23 3 -3 4 0.12630977D-01 0.64867337D-01 0.16405177D+05 0.16405177D+05 0.16405177D+05 0.12434133D+01  1  2  5  6  6  5       21 -.319300274600D-02 0.100000000000D+01
0.114120177336D-05 0.000000000000D+00 0.000000000000D+00 0.483672110074D-05 0.000000000000D+00  6 -2 2 25 23 2 -2 4 0.12630977D-01 0.64867337D-01 0.16776870D+05 0.16776870D+05 0.16776870D+05 0.12423176D+01  1  2 12  7  6  5       21 0.901149337824D-03 0.100000000000D+01
0.106087387957D-05 0.000000000000D+00 0.000000000000D+00 0.483672110074D-05 0.000000000000D+00  6 -2 2 25 23 2 -2 4 0.12630977D-01 0.64867337D-01 0.16776870D+05 0.16776870D+05 0.16776870D+05 0.12423176D+01  1  2 12  7  6  5       21 0.837718461724D-03 0.100000000000D+01
-.403141033440D-05 0.000000000000D+00 0.000000000000D+00 0.484525627836D-05 0.000000000000D+00  6 -2 2 25 23 2 -2 4 0.12630977D-01 0.64867337D-01 0.16405177D+05 0.16405177D+05 0.16405177D+05 0.12434133D+01  1  2  5  7  6  5       21 -.319300274600D-02 0.100000000000D+01
0.114120177336D-05 0.000000000000D+00 0.000000000000D+00 0.483672110074D-05 0.000000000000D+00  6 -2 2 25 23 4 -4 4 0.12630977D-01 0.64867337D-01 0.16776870D+05 0.16776870D+05 0.16776870D+05 0.12423176D+01  1  2 12  8  6  5       21 0.901149337824D-03 0.100000000000D+01
0.106087387957D-05 0.000000000000D+00 0.000000000000D+00 0.483672110074D-05 0.000000000000D+00  6 -2 2 25 23 4 -4 4 0.12630977D-01 0.64867337D-01 0.16776870D+05 0.16776870D+05 0.16776870D+05 0.12423176D+01  1  2 12  8  6  5       21 0.837718461724D-03 0.100000000000D+01
-.403141033440D-05 0.000000000000D+00 0.000000000000D+00 0.484525627836D-05 0.000000000000D+00  6 -2 2 25 23 4 -4 4 0.12630977D-01 0.64867337D-01 0.16405177D+05 0.16405177D+05 0.16405177D+05 0.12434133D+01  1  2  5  8  6  5       21 -.319300274600D-02 0.100000000000D+01
  </mgrwgt>
  </event>
  <event>
  5     66 -.42934962E-03 0.35061146E+02 0.75467711E-02 0.10530531E+00
       -2 -1    0    0    0  501 0.00000000E+00 0.00000000E+00 0.22734365E+03 0.22734387E+03 0.32000000E+00 0.0000E+00 0.9000E+01
        2 -1    0    0  502    0 0.00000000E+00 0.00000000E+00 -.66595193E+03 0.66595201E+03 0.32000000E+00 0.0000E+00 0.9000E+01
       25  1    1    2    0    0 0.17307009E+03 -.28773689E+03 -.90264820E+02 0.36948411E+03 0.12500000E+03 0.0000E+00 0.9000E+01
       23  1    1    2    0    0 -.20570978E+03 0.27495412E+03 -.32632260E+03 0.48240851E+03 0.91188000E+02 0.0000E+00 0.9000E+01
       21  1    1    2  502  501 0.32639690E+02 0.12782767E+02 -.22020871E+02 0.41403258E+02 0.75000000E+00 0.0000E+00 0.9000E+01
#aMCatNLO 1  0  0  1  5 0.24476887D+03 0.00000000D+00  -5  6  0 0.00000000D+00 0.00000000D+00 0.00000000D+00 0.00000000D+00 0.00000000D+00
  <mgrwgt>
 -.1412960398D+00    1    2    0
 0.389101625815245D+03 0.000000000000000D+00 0.000000000000000D+00 0.389101625815245D+03
 0.389101625815245D+03 0.000000000000000D+00 0.000000000000000D+00 -.389101625815245D+03
 0.373253818243285D+03 0.173066518154481D+03 -.287738285680295D+03 0.104633035322696D+03
 0.369834517165002D+03 -.205713319538183D+03 0.274952733697965D+03 -.102690521175363D+03
 0.351149162222027D+02 0.326468013837017D+02 0.127855519823300D+02 -.194251414733293D+01
 0.000000000000000D+00 0.000000000000000D+00 -.000000000000000D+00 -.000000000000000D+00
 0.390001930456840D+03 0.000000000000000D+00 0.000000000000000D+00 0.390001930456840D+03
 0.408619266232631D+03 0.000000000000000D+00 0.000000000000000D+00 -.408619266232631D+03
 0.370542149622492D+03 0.169324975287759D+03 -.286456742475747D+03 0.104633035322696D+03
 0.372872603841278D+03 -.209449385140472D+03 0.276232400844624D+03 -.102690521175363D+03
 0.348325035658594D+02 0.322949424319725D+02 0.129060697645954D+02 -.194251414733293D+01
 0.203739396598417D+02 0.782946742074071D+01 -.268172813347241D+01 -.186173357757917D+02
-.235338592879D-02 0.000000000000D+00 0.000000000000D+00 0.518355954005D-05 0.000000000000D+00  6 -2 2 25 23 21 21 4 0.34975969D-01 0.10245417D+00 0.14011582D+06 0.14011582D+06 0.14011582D+06 0.11503502D+01  1  2 14  1  6  1       -2 -.141296039770D+00 0.100000000000D+01
  </mgrwgt>
  </event>
  <event>
  5     66 -.42934962E-03 0.54953366E+02 0.75467711E-02 0.11308266E+00
       -4 -1    0    0    0  501 0.00000000E+00 0.00000000E+00 0.11162952E+03 0.11164029E+03 0.15500000E+01 0.0000E+00 0.9000E+01
        4 -1    0    0  502    0 0.00000000E+00 0.00000000E+00 -.53222961E+03 0.53223187E+03 0.15500000E+01 0.0000E+00 0.9000E+01
       25  1    1    2    0    0 0.64491820E+02 0.14549440E+03 -.91431864E+02 0.22206441E+03 0.12500000E+03 0.0000E+00 0.9000E+01
       23  1    1    2    0    0 -.13030053E+02 -.16476512E+03 -.17224857E+03 0.25554285E+03 0.91188000E+02 0.0000E+00 0.9000E+01
       21  1    1    2  502  501 -.51461767E+02 0.19270723E+02 -.15691966E+03 0.16626489E+03 0.75000000E+00 0.0000E+00 0.9000E+01
#aMCatNLO 1  0  0  2  1 0.23487786D+01 0.00000000D+00  -5  6  0 0.00000000D+00 0.00000000D+00 0.00000000D+00 0.00000000D+00 0.00000000D+00
  <mgrwgt>
 -.7920131119D-02    9    4    0
 0.243755470522386D+03 0.000000000000000D+00 0.000000000000000D+00 0.243755470522386D+03
 0.243755470522386D+03 0.000000000000000D+00 0.000000000000000D+00 -.243755470522386D+03
 0.214405524315512D+03 0.644927174303234D+02 0.145494065891163D+03 0.708300433849925D+02
 0.188896776618798D+03 -.130292617880392D+02 -.164765420829656D+03 -.702390981272073D+01
 0.842086401104619D+02 -.514634556422842D+02 0.192713549384926D+02 -.638061335722717D+02
 0.000000000000000D+00 -.000000000000000D+00 0.000000000000000D+00 -.000000000000000D+00
 0.244754359456694D+03 0.000000000000000D+00 0.000000000000000D+00 0.244754359456694D+03
 0.245142945450461D+03 0.000000000000000D+00 0.000000000000000D+00 -.245142945450461D+03
 0.214360229236894D+03 0.654090577379593D+02 0.145017474803578D+03 0.708300433849925D+02
 0.189209566895936D+03 -.122211886612450D+02 -.165185701861865D+03 -.702390981272073D+01
 0.839468029685930D+02 -.511040808340933D+02 0.190844431228066D+02 -.638061335722717D+02
 0.238070580573110D+01 -.208378824262091D+01 0.108378393548028D+01 -.388585993766526D+00
 0.243755470522386D+03 0.000000000000000D+00 0.000000000000000D+00 0.243755470522386D+03
 0.243755470522386D+03 0.000000000000000D+00 0.000000000000000D+00 -.243755470522386D+03
 0.214405524315512D+03 0.644927174303234D+02 0.145494065891163D+03 0.708300433849925D+02
 0.188896776618798D+03 -.130292617880392D+02 -.164765420829656D+03 -.702390981272073D+01
 0.000000000000000D+00 -.000000000000000D+00 0.000000000000000D+00 -.000000000000000D+00
 0.842086401104619D+02 -.514634556422842D+02 0.192713549384926D+02 -.638061335722717D+02
 0.244754359456694D+03 0.000000000000000D+00 0.000000000000000D+00 0.244754359456694D+03
 0.245142945450461D+03 0.000000000000000D+00 0.000000000000000D+00 -.245142945450461D+03
 0.214360229236894D+03 0.654090577379593D+02 0.145017474803578D+03 0.708300433849925D+02
 0.189209566895936D+03 -.122211886612450D+02 -.165185701861865D+03 -.702390981272073D+01
 0.238070580573110D+01 -.208378824262091D+01 0.108378393548028D+01 -.388585993766526D+00
 0.839468029685930D+02 -.511040808340933D+02 0.190844431228066D+02 -.638061335722717D+02
0.114899459270D-03 0.000000000000D+00 0.000000000000D+00 0.298788397970D-05 0.000000000000D+00  6 -4 4 25 23 21 21 2 0.17174774D-01 0.81882480D-01 0.49748531D+05 0.49748531D+05 0.49748531D+05 0.11924987D+01  1  2  2  2  6  2        4 0.117750008111D-02 0.100000000000D+01
0.738652524390D-05 0.606341104851D-05 -.441244177321D-06 0.298788397970D-05 0.000000000000D+00  6 -4 4 25 23 21 21 4 0.17174774D-01 0.81882480D-01 0.49748531D+05 0.49748531D+05 0.49748531D+05 0.11924987D+01  1  2  3  2  6  2        4 0.107646264295D-03 0.100000000000D+01
0.577875420344D-05 0.000000000000D+00 0.000000000000D+00 0.298788397970D-05 0.000000000000D+00  6 -4 4 25 23 21 21 4 0.17174774D-01 0.81882480D-01 0.49748531D+05 0.49748531D+05 0.49748531D+05 0.11924987D+01  1  2 15  2  6  2        4 0.842156875850D-04 0.100000000000D+01
-.902869893815D-03 0.000000000000D+00 0.000000000000D+00 0.298788397970D-05 0.000000000000D+00  6 -4 4 25 23 21 21 4 0.17174774D-01 0.81882480D-01 0.49748531D+05 0.49748531D+05 0.49748531D+05 0.11924987D+01  1  2  4  2  6  2        4 -.131578202205D-01 0.100000000000D+01
-.364580333447D-01 0.000000000000D+00 -.374544442958D-02 0.298788397970D-05 0.000000000000D+00  6 -4 4 25 23 21 21 4 0.17174774D-01 0.82626575D-01 0.49748531D+05 0.49748531D+05 0.49748531D+05 0.11924987D+01  1  2  5  2  6  2        4 -.520625732300D+00 0.100000000000D+01
0.364905759109D-01 0.000000000000D+00 0.374529117931D-02 0.298788397970D-05 0.000000000000D+00  6 -4 4 25 23 21 21 4 0.17174774D-01 0.81882480D-01 0.49748531D+05 0.49748531D+05 0.49748531D+05 0.11924987D+01  1  2  6  2  6  2        4 0.531789176789D+00 0.100000000000D+01
0.850611127938D-03 0.000000000000D+00 0.000000000000D+00 0.298788397970D-05 0.778423563608D-05  6 -4 4 25 23 21 21 4 0.17245155D-01 0.82348562D-01 0.50243064D+05 0.50243064D+05 0.50243064D+05 0.11920732D+01  1  2 11  2  6  2        4 0.121401459395D-01 0.100000000000D+01
-.608951256886D-04 0.000000000000D+00 -.626761631882D-05 0.298788397970D-05 0.000000000000D+00  6 -4 21 25 23 -4 21 4 0.17174774D-01 0.82626575D-01 0.49748531D+05 0.49748531D+05 0.49748531D+05 0.11924987D+01  3  4  5  5  5  2        4 -.196349213669D-01 0.100000000000D+01
0.619864466233D-06 0.000000000000D+00 0.000000000000D+00 0.298788397970D-05 0.111423850060D-07  6 -4 21 25 23 -4 21 4 0.17245155D-01 0.82348562D-01 0.50243064D+05 0.50243064D+05 0.50243064D+05 0.11920732D+01  3  4 11  5  5  2        4 0.199658007726D-03 0.100000000000D+01
  </mgrwgt>
  </event>
  <event>
  5     66 -.42934962E-03 0.37915889E+02 0.75467711E-02 0.11510255E+00
       -2 -1    0    0    0  501 0.00000000E+00 0.00000000E+00 0.53221854E+02 0.53222816E+02 0.32000000E+00 0.0000E+00 0.9000E+01
        2 -1    0    0  502    0 0.00000000E+00 0.00000000E+00 -.59870084E+03 0.59870093E+03 0.32000000E+00 0.0000E+00 0.9000E+01
       25  1    1    2    0    0 0.66195656E+02 -.65060180E+02 -.28717608E+03 0.32666465E+03 0.12500000E+03 0.0000E+00 0.9000E+01
       23  1    1    2    0    0 -.69780316E+02 0.10280165E+03 -.23408965E+03 0.28026896E+03 0.91188000E+02 0.0000E+00 0.9000E+01
       21  1    1    2  502  501 0.35846600E+01 -.37741469E+02 -.24213257E+02 0.44990139E+02 0.75000000E+00 0.0000E+00 0.9000E+01
#aMCatNLO 1  0  0  1  1 0.51476231D+02 0.00000000D+00  -5  6  0 0.00000000D+00 0.00000000D+00 0.00000000D+00 0.00000000D+00 0.00000000D+00
  <mgrwgt>
 -.1533135732D+00    5    4    0
 0.178505771057877D+03 0.000000000000000D+00 0.000000000000000D+00 0.178505771057877D+03
 0.178505771057877D+03 0.000000000000000D+00 0.000000000000000D+00 -.178505771057877D+03
 0.157730579698180D+03 0.661954376275048D+02 -.650578802582978D+02 -.252897612785116D+02
 0.154122659174051D+03 -.697805295639411D+02 0.102803896930282D+03 0.761049672733137D+00
 0.451583032435221D+02 0.358509193643635D+01 -.377460166719847D+02 0.245287116057785D+02
 0.000000000000000D+00 -.000000000000000D+00 0.000000000000000D+00 0.000000000000000D+00
 0.202271664702463D+04 0.000000000000000D+00 0.000000000000000D+00 0.202271664702463D+04
 0.180234426238204D+03 0.000000000000000D+00 0.000000000000000D+00 -.180234426238204D+03
 0.170769182684253D+03 0.827013418972825D+02 -.778333461795934D+02 -.252897612785116D+02
 0.140302713098032D+03 -.549867380127040D+02 0.913535954672093D+02 0.761049672733137D+00
 0.488339500000808D+02 0.830785679595387D+01 -.414014069208869D+02 0.245287116057785D+02
 0.184304522748047D+04 -.360224606805323D+02 0.278811576332711D+02 0.184248222078643D+04
 0.178505771057877D+03 0.000000000000000D+00 0.000000000000000D+00 0.178505771057877D+03
 0.178505771057877D+03 0.000000000000000D+00 0.000000000000000D+00 -.178505771057877D+03
 0.157730579698180D+03 0.661954376275048D+02 -.650578802582978D+02 -.252897612785116D+02
 0.154122659174051D+03 -.697805295639411D+02 0.102803896930282D+03 0.761049672733137D+00
 0.000000000000000D+00 -.000000000000000D+00 0.000000000000000D+00 0.000000000000000D+00
 0.451583032435221D+02 0.358509193643635D+01 -.377460166719847D+02 0.245287116057785D+02
 0.202271664702463D+04 0.000000000000000D+00 0.000000000000000D+00 0.202271664702463D+04
 0.180234426238204D+03 0.000000000000000D+00 0.000000000000000D+00 -.180234426238204D+03
 0.170769182684253D+03 0.827013418972825D+02 -.778333461795934D+02 -.252897612785116D+02
 0.140302713098032D+03 -.549867380127040D+02 0.913535954672093D+02 0.761049672733137D+00
 0.184304522748047D+04 -.360224606805323D+02 0.278811576332711D+02 0.184248222078643D+04
 0.488339500000808D+02 0.830785679595387D+01 -.414014069208869D+02 0.245287116057785D+02
0.908164957603D-05 0.000000000000D+00 0.000000000000D+00 0.735294965628D-05 0.000000000000D+00  6 -2 2 25 23 21 21 2 0.81880581D-02 0.92107902D-01 0.30228452D+05 0.30228452D+05 0.30228452D+05 0.12145528D+01  1  2  2  1  6  1       -2 0.604988969809D-02 0.100000000000D+01
0.101236950384D-05 0.479251814827D-06 -.348759256252D-07 0.735294965628D-05 0.000000000000D+00  6 -2 2 25 23 21 21 4 0.81880581D-02 0.92107902D-01 0.30228452D+05 0.30228452D+05 0.30228452D+05 0.12145528D+01  1  2  3  1  6  1       -2 0.994842990772D-03 0.100000000000D+01
0.275189276046D-06 0.000000000000D+00 0.000000000000D+00 0.735294965628D-05 0.000000000000D+00  6 -2 2 25 23 21 21 4 0.81880581D-02 0.92107902D-01 0.30228452D+05 0.30228452D+05 0.30228452D+05 0.12145528D+01  1  2 15  1  6  1       -2 0.270425098120D-03 0.100000000000D+01
-.317271262037D-02 0.000000000000D+00 -.110036475271D-04 0.735294965628D-05 0.000000000000D+00  6 -2 2 25 23 21 21 4 0.92886745D-01 0.92107902D-01 0.30228452D+05 0.30228452D+05 0.30228452D+05 0.12145528D+01  1  2  5  1  6  1       -2 -.368056957168D-01 0.100000000000D+01
-.905445214202D-03 0.000000000000D+00 -.313339366539D-05 0.735294965628D-05 0.000000000000D+00  6 21 2 25 23 2 21 4 0.92886745D-01 0.92107902D-01 0.30228452D+05 0.30228452D+05 0.30228452D+05 0.12145528D+01  3  4  5  4  5  1       -2 -.123823035221D+00 0.100000000000D+01
  </mgrwgt>
  </event>
  <event>
  5     66 0.42934962E-03 0.30743777E+02 0.75467711E-02 0.12135303E+00
       -2 -1    0    0    0  501 0.00000000E+00 0.00000000E+00 0.92649053E+02 0.92649606E+02 0.32000000E+00 0.0000E+00 0.9000E+01
        2 -1    0    0  502    0 -.00000000E+00 -.00000000E+00 -.25684792E+03 0.25684812E+03 0.32000000E+00 0.0000E+00 0.9000E+01
       25  1    1    2    0    0 0.22869933E+02 0.66321687E+02 -.14455134E+03 0.20357232E+03 0.12500000E+03 0.0000E+00 0.9000E+01
       23  1    1    2    0    0 0.48596608E+01 -.53063641E+02 0.61450602E+01 0.10579404E+03 0.91188000E+02 0.0000E+00 0.9000E+01
       21  1    1    2  502  501 -.27729594E+02 -.13258046E+02 -.25792586E+02 0.40131361E+02 0.75000000E+00 0.0000E+00 0.9000E+01
#aMCatNLO 1  0  0  5  1 0.10282070D+02 0.00000000D+00  -5  6  0 0.00000000D+00 0.00000000D+00 0.00000000D+00 0.00000000D+00 0.00000000D+00
  <mgrwgt>
 0.1999154669D+00   14    2    0
 0.154262270871838D+03 0.000000000000000D+00 0.000000000000000D+00 0.154262270871838D+03
 0.154262270871838D+03 -.000000000000000D+00 -.000000000000000D+00 -.154262270871838D+03
 0.153677235264118D+03 0.228737920068773D+02 0.663235326017155D+02 -.554046144366911D+02
 0.123114256256163D+03 0.486275244130786D+01 -.530621632015528D+02 0.632663356341617D+02
 0.317330502233946D+02 -.277365444481852D+02 -.132613694001627D+02 -.786172119747061D+01
 0.000000000000000D+00 0.000000000000000D+00 0.000000000000000D+00 0.000000000000000D+00
 0.154262270871838D+03 0.000000000000000D+00 0.000000000000000D+00 0.154262270871838D+03
 0.154262270871838D+03 -.000000000000000D+00 -.000000000000000D+00 -.154262270871838D+03
 0.152086557125159D+03 0.157694813046466D+02 0.629268265436911D+02 -.574182794822948D+02
 0.123408109338722D+03 -.865105218193106D+00 -.558007608821721D+02 0.616428161628766D+02
 0.223695496424048D+02 -.139251418025986D+02 -.982239886240528D+01 -.144916409550249D+02
 0.106603256373887D+02 -.979234283854923D+00 0.269633320088618D+01 0.102671042744431D+02
0.120208232205D-03 0.000000000000D+00 0.000000000000D+00 0.107702098744D-04 0.000000000000D+00  6 -2 2 25 23 21 21 2 0.14253758D-01 0.39515123D-01 0.19558151D+05 0.19558151D+05 0.19558151D+05 0.12348956D+01  1  2  2  3  6  5       21 0.849853357906D-01 0.100000000000D+01
0.146000147055D-04 0.634356269302D-05 -.461631263223D-06 0.107702098744D-04 0.000000000000D+00  6 -2 2 25 23 21 21 4 0.14253758D-01 0.39515123D-01 0.19558151D+05 0.19558151D+05 0.19558151D+05 0.12348956D+01  1  2  3  3  6  5       21 0.157406827669D-01 0.100000000000D+01
0.438882516175D-05 0.000000000000D+00 0.000000000000D+00 0.107702098744D-04 0.000000000000D+00  6 -2 2 25 23 21 21 4 0.14253758D-01 0.39515123D-01 0.19558151D+05 0.19558151D+05 0.19558151D+05 0.12348956D+01  1  2 15  3  6  5       21 0.473171472660D-02 0.100000000000D+01
0.763075685286D-04 0.000000000000D+00 0.000000000000D+00 0.108443809746D-04 0.000000000000D+00  6 -2 2 25 23 21 21 4 0.14253758D-01 0.39515123D-01 0.17909220D+05 0.17909220D+05 0.17909220D+05 0.12391405D+01  1  2 12  3  6  5       21 0.832017363124D-01 0.100000000000D+01
0.661420327190D-04 0.000000000000D+00 0.000000000000D+00 0.108443809746D-04 0.000000000000D+00  6 -2 2 25 23 21 21 4 0.14253758D-01 0.39515123D-01 0.17909220D+05 0.17909220D+05 0.17909220D+05 0.12391405D+01  1  2 12  3  6  5       21 0.721177737880D-01 0.100000000000D+01
-.668065929010D-04 0.000000000000D+00 0.000000000000D+00 0.107702098744D-04 0.000000000000D+00  6 -2 2 25 23 21 21 4 0.14253758D-01 0.39515123D-01 0.19558151D+05 0.19558151D+05 0.19558151D+05 0.12348956D+01  1  2  4  3  6  5       21 -.720260497544D-01 0.100000000000D+01
0.133207746302D-05 0.000000000000D+00 0.000000000000D+00 0.108443809746D-04 0.000000000000D+00  6 -2 2 25 23 1 -1 4 0.14253758D-01 0.39515123D-01 0.17909220D+05 0.17909220D+05 0.17909220D+05 0.12391405D+01  1  2 12  6  6  5       21 0.145242680330D-02 0.100000000000D+01
0.133207746302D-05 0.000000000000D+00 0.000000000000D+00 0.108443809746D-04 0.000000000000D+00  6 -2 2 25 23 3 -3 4 0.14253758D-01 0.39515123D-01 0.17909220D+05 0.17909220D+05 0.17909220D+05 0.12391405D+01  1  2 12  6  6  5       21 0.145242680330D-02 0.100000000000D+01
0.122772052573D-05 0.000000000000D+00 0.000000000000D+00 0.108443809746D-04 0.000000000000D+00  6 -2 2 25 23 1 -1 4 0.14253758D-01 0.39515123D-01 0.17909220D+05 0.17909220D+05 0.17909220D+05 0.12391405D+01  1  2 12  6  6  5       21 0.133864151901D-02 0.100000000000D+01
0.122772052573D-05 0.000000000000D+00 0.000000000000D+00 0.108443809746D-04 0.000000000000D+00  6 -2 2 25 23 3 -3 4 0.14253758D-01 0.39515123D-01 0.17909220D+05 0.17909220D+05 0.17909220D+05 0.12391405D+01  1  2 12  6  6  5       21 0.133864151901D-02 0.100000000000D+01
0.133207746302D-05 0.000000000000D+00 0.000000000000D+00 0.108443809746D-04 0.000000000000D+00  6 -2 2 25 23 2 -2 4 0.14253758D-01 0.39515123D-01 0.17909220D+05 0.17909220D+05 0.17909220D+05 0.12391405D+01  1  2 12  7  6  5       21 0.145242680330D-02 0.100000000000D+01
0.122772052573D-05 0.000000000000D+00 0.000000000000D+00 0.108443809746D-04 0.000000000000D+00  6 -2 2 25 23 2 -2 4 0.14253758D-01 0.39515123D-01 0.17909220D+05 0.17909220D+05 0.17909220D+05 0.12391405D+01  1  2 12  7  6  5       21 0.133864151901D-02 0.100000000000D+01
0.133207746302D-05 0.000000000000D+00 0.000000000000D+00 0.108443809746D-04 0.000000000000D+00  6 -2 2 25 23 4 -4 4 0.14253758D-01 0.39515123D-01 0.17909220D+05 0.17909220D+05 0.17909220D+05 0.12391405D+01  1  2 12  8  6  5       21 0.145242680330D-02 0.100000000000D+01
0.122772052573D-05 0.000000000000D+00 0.000000000000D+00 0.108443809746D-04 0.000000000000D+00  6 -2 2 25 23 4 -4 4 0.14253758D-01 0.39515123D-01 0.17909220D+05 0.17909220D+05 0.17909220D+05 0.12391405D+01  1  2 12  8  6  5       21 0.133864151901D-02 0.100000000000D+01
  </mgrwgt>
  </event>
  <event>
  6     66 0.42934962E-03 0.25234173E+02 0.75467711E-02 0.12084563E+00
       -2 -1    0    0    0  501 0.00000000E+00 0.00000000E+00 0.68753161E+02 0.68753905E+02 0.32000000E+00 0.0000E+00 0.9000E+01
        2 -1    0    0  503    0 0.00000000E+00 0.00000000E+00 -.49077061E+03 0.49077072E+03 0.32000000E+00 0.0000E+00 0.9000E+01
       25  1    1    2    0    0 -.63595866E+02 -.80495077E+01 -.71200623E+02 0.15749209E+03 0.12500000E+03 0.0000E+00 0.9000E+01
       23  1    1    2    0    0 0.49553640E+02 -.23427528E+02 -.96954903E+02 0.14394415E+03 0.91188000E+02 0.0000E+00 0.9000E+01
       21  1    1    2  502  501 0.19716434E+02 0.23032546E+02 -.11769119E+03 0.12153606E+03 0.75000000E+00 0.0000E+00 0.9000E+01
       21  1    1    2  503  502 -.56742084E+01 0.84444895E+01 -.13617074E+03 0.13655233E+03 0.75000000E+00 0.0000E+00 0.9000E+01
#aMCatNLO 2  0  0  2  5 0.10173792D+02 0.00000000D+00  -5  6  0 0.00000000D+00 0.00000000D+00 0.00000000D+00 0.00000000D+00 0.00000000D+00
  <mgrwgt>
 0.4996038165D-01    2    2    0
 0.155799319169113D+03 0.000000000000000D+00 0.000000000000000D+00 0.155799319169113D+03
 0.155799319169113D+03 0.000000000000000D+00 0.000000000000000D+00 -.155799319169113D+03
 0.149408611458157D+03 -.663073451680557D+02 -.401637497003922D+01 0.478031158683080D+02
 0.104914137780299D+03 0.476296456940701D+02 -.205657060969086D+02 0.439938605332831D+00
 0.572758890997704D+02 0.186776994739856D+02 0.245820810669478D+02 -.482430544736408D+02
 0.000000000000000D+00 -.000000000000000D+00 0.000000000000000D+00 -.000000000000000D+00
 0.156313806333612D+03 0.000000000000000D+00 0.000000000000000D+00 0.156313806333612D+03
 0.215855955551747D+03 0.000000000000000D+00 0.000000000000000D+00 -.215855955551747D+03
 0.148389617983131D+03 -.635966158985490D+02 -.805054561585509D+01 0.478031158683080D+02
 0.106394721387706D+03 0.495530994047500D+02 -.234282348582640D+02 0.439938605332831D+00
 0.569803434542142D+02 0.197177248441455D+02 0.230342910067598D+02 -.482430544736408D+02
 0.604050790603088D+02 -.567420835034655D+01 0.844448946735925D+01 -.595421492181352D+02
-.596342825696D-03 0.000000000000D+00 0.000000000000D+00 0.146146092615D-04 0.000000000000D+00  6 -2 2 25 23 21 21 4 0.10542504D-01 0.78910737D-01 0.20645040D+05 0.20645040D+05 0.20645040D+05 0.12323112D+01  1  2 13  2  6  2        2 -.493380191782D+00 0.100000000000D+01
0.628830981265D-03 0.000000000000D+00 0.000000000000D+00 0.146953079232D-04 0.673661447405D-06  6 -2 2 25 23 21 21 4 0.10577318D-01 0.75502115D-01 0.20645040D+05 0.20645040D+05 0.20645040D+05 0.12323112D+01  1  2  1  2  6  2        2 0.543340573436D+00 0.100000000000D+01
  </mgrwgt>
  </event>
  <event>
  5     66 0.42934962E-03 0.21798802E+02 0.75467711E-02 0.12258320E+00
       -2 -1    0    0    0  501 0.00000000E+00 0.00000000E+00 0.22635467E+03 0.22635489E+03 0.32000000E+00 0.0000E+00 0.9000E+01
        2 -1    0    0  502    0 0.00000000E+00 0.00000000E+00 -.93701402E+02 0.93701949E+02 0.32000000E+00 0.0000E+00 0.9000E+01
       25  1    1    2    0    0 -.21933083E+02 0.65735646E+01 0.83184750E+02 0.15188474E+03 0.12500000E+03 0.0000E+00 0.9000E+01
       23  1    1    2    0    0 0.17771478E+01 0.17254999E+01 0.86165702E+02 0.12548273E+03 0.91188000E+02 0.0000E+00 0.9000E+01
       21  1    1    2  502  501 0.20155935E+02 -.82990644E+01 -.36697189E+02 0.42689371E+02 0.75000000E+00 0.0000E+00 0.9000E+01
#aMCatNLO 1  0  0  1  2 0.24688229D+02 0.00000000D+00  -5  6  0 0.00000000D+00 0.00000000D+00 0.00000000D+00 0.00000000D+00 0.00000000D+00
  <mgrwgt>
 0.9495584954D-01    4    2    0
 0.145636098575762D+03 0.000000000000000D+00 0.000000000000000D+00 0.145636098575762D+03
 0.145636098575762D+03 0.000000000000000D+00 0.000000000000000D+00 -.145636098575762D+03
 0.129010420344674D+03 -.219337029609010D+02 0.657382000447827D+01 0.222347953100794D+02
 0.986417472506937D+02 0.177667347891879D+01 0.172569516771408D+01 0.375340960222459D+02
 0.636200295561567D+02 0.201570294819822D+02 -.829951517219235D+01 -.597688913323253D+02
 0.000000000000000D+00 0.000000000000000D+00 -.000000000000000D+00 -.000000000000000D+00
 0.150165183564861D+03 0.000000000000000D+00 0.000000000000000D+00 0.150165183564861D+03
 0.184187207695711D+03 0.000000000000000D+00 0.000000000000000D+00 -.184187207695711D+03
 0.131394536550037D+03 -.319366167661144D+02 0.111888615261892D+02 0.222347953100794D+02
 0.989199848947163D+02 -.581224879592950D+01 0.522699409775267D+01 0.375340960222459D+02
 0.620020902477886D+02 0.153315175124266D+02 -.607317007548607D+01 -.597688913323253D+02
 0.420357795680299D+02 0.224173480496173D+02 -.103426855484558D+02 -.340220241308493D+02
0.166897209205D-03 0.000000000000D+00 0.000000000000D+00 0.381911092557D-04 0.000000000000D+00  6 -2 2 25 23 21 21 2 0.34823854D-01 0.14415660D-01 0.14412043D+05 0.14412043D+05 0.14412043D+05 0.12498071D+01  1  2  2  1  6  1       -2 0.788953844205D-01 0.100000000000D+01
0.216039620637D-04 0.880740769962D-05 -.640929228392D-06 0.381911092557D-04 0.000000000000D+00  6 -2 2 25 23 21 21 4 0.34823854D-01 0.14415660D-01 0.14412043D+05 0.14412043D+05 0.14412043D+05 0.12498071D+01  1  2  3  1  6  1       -2 0.159522487342D-01 0.100000000000D+01
0.603879999491D-05 0.000000000000D+00 0.000000000000D+00 0.381911092557D-04 0.000000000000D+00  6 -2 2 25 23 21 21 4 0.34823854D-01 0.14415660D-01 0.14412043D+05 0.14412043D+05 0.14412043D+05 0.12498071D+01  1  2 15  1  6  1       -2 0.445901725299D-02 0.100000000000D+01
-.589224368526D-05 0.000000000000D+00 0.000000000000D+00 0.381911092557D-04 0.000000000000D+00  6 -2 2 25 23 21 21 4 0.34823854D-01 0.14415660D-01 0.14412043D+05 0.14412043D+05 0.14412043D+05 0.12498071D+01  1  2  4  1  6  1       -2 -.435080086665D-02 0.100000000000D+01
  </mgrwgt>
  </event>
  <event>
  5     66 0.42934962E-03 0.48864254E+02 0.75467711E-02 0.97368931E-01
       -2 -1    0    0    0  501 0.00000000E+00 0.00000000E+00 0.87178905E+03 0.87178910E+03 0.32000000E+00 0.0000E+00 0.9000E+01
        2 -1    0    0  502    0 0.00000000E+00 0.00000000E+00 -.19768060E+03 0.19768086E+03 0.32000000E+00 0.0000E+00 0.9000E+01
       25  1    1    2    0    0 0.31847641E+02 0.12451633E+02 0.26567994E+03 0.29560133E+03 0.12500000E+03 0.0000E+00 0.9000E+01
       23  1    1    2    0    0 -.28495409E+02 0.36297445E+02 0.58335717E+03 0.59224178E+03 0.91188000E+02 0.0000E+00 0.9000E+01
       21  1    1    2  502  501 -.33522326E+01 -.48749078E+02 -.17492867E+03 0.18162685E+03 0.75000000E+00 0.0000E+00 0.9000E+01
#aMCatNLO 1  0  0  1  1 0.73486107D+01 0.00000000D+00  -5  6  0 0.00000000D+00 0.00000000D+00 0.00000000D+00 0.00000000D+00 0.00000000D+00
  <mgrwgt>
 0.1883118692D+00    5    4    0
 0.415133659955886D+03 0.000000000000000D+00 0.000000000000000D+00 0.415133659955886D+03
 0.415133659955886D+03 0.000000000000000D+00 0.000000000000000D+00 -.415133659955886D+03
 0.165054951969247D+03 0.318476425565542D+02 0.124516525936055D+02 0.102219475545752D+03
 0.289230960269245D+03 -.284954062802998D+02 0.362974788634898D+02 0.270573098964669D+03
 0.375981407673280D+03 -.335223627625433D+01 -.487491314570953D+02 -.372792574510422D+03
 0.000000000000000D+00 -.000000000000000D+00 -.000000000000000D+00 0.000000000000000D+00
 0.156855557980985D+04 0.000000000000000D+00 0.000000000000000D+00 0.156855557980985D+04
 0.631355340719744D+03 0.000000000000000D+00 0.000000000000000D+00 -.631355340719744D+03
 0.235268696749920D+03 0.170601636407975D+03 0.131384985625432D+02 0.102219475545752D+03
 0.345906114945934D+03 0.191645987092740D+03 0.373872004955497D+02 0.270573098964669D+03
 0.475824257954823D+03 0.291887474066416D+03 -.472876657414753D+02 -.372792574510422D+03
 0.114291185087892D+04 -.654135097567131D+03 -.323803331661757D+01 0.937200239090105D+03
 0.415133659955886D+03 0.000000000000000D+00 0.000000000000000D+00 0.415133659955886D+03
 0.415133659955886D+03 0.000000000000000D+00 0.000000000000000D+00 -.415133659955886D+03
 0.165054951969247D+03 0.318476425565542D+02 0.124516525936055D+02 0.102219475545752D+03
 0.289230960269245D+03 -.284954062802998D+02 0.362974788634898D+02 0.270573098964669D+03
 0.000000000000000D+00 -.000000000000000D+00 -.000000000000000D+00 0.000000000000000D+00
 0.375981407673280D+03 -.335223627625433D+01 -.487491314570953D+02 -.372792574510422D+03
 0.156855557980985D+04 0.000000000000000D+00 0.000000000000000D+00 0.156855557980985D+04
 0.631355340719744D+03 0.000000000000000D+00 0.000000000000000D+00 -.631355340719744D+03
 0.235268696749920D+03 0.170601636407975D+03 0.131384985625432D+02 0.102219475545752D+03
 0.345906114945934D+03 0.191645987092740D+03 0.373872004955497D+02 0.270573098964669D+03
 0.114291185087892D+04 -.654135097567131D+03 -.323803331661757D+01 0.937200239090105D+03
 0.475824257954823D+03 0.291887474066416D+03 -.472876657414753D+02 -.372792574510422D+03
0.124516472472D-01 0.000000000000D+00 0.000000000000D+00 0.235225902570D-04 0.000000000000D+00  6 -2 2 25 23 21 21 2 0.13412142D+00 0.30412425D-01 0.19692043D+05 0.19692043D+05 0.19692043D+05 0.12345687D+01  1  2  2  1  6  1       -2 0.141656074274D+00 0.100000000000D+01
0.186484208921D-02 0.657091477801D-03 -.478176040231D-04 0.235225902570D-04 0.000000000000D+00  6 -2 2 25 23 21 21 4 0.13412142D+00 0.30412425D-01 0.19692043D+05 0.19692043D+05 0.19692043D+05 0.12345687D+01  1  2  3  1  6  1       -2 0.323356023191D-01 0.100000000000D+01
0.760561713285D-03 0.000000000000D+00 0.000000000000D+00 0.235225902570D-04 0.000000000000D+00  6 -2 2 25 23 21 21 4 0.13412142D+00 0.30412425D-01 0.19692043D+05 0.19692043D+05 0.19692043D+05 0.12345687D+01  1  2 15  1  6  1       -2 0.131878303489D-01 0.100000000000D+01
0.107207596876D-01 0.000000000000D+00 -.610085935314D-02 0.235225902570D-04 0.000000000000D+00  6 -2 2 25 23 21 21 4 0.56035913D+00 0.30412425D-01 0.19692043D+05 0.19692043D+05 0.19692043D+05 0.12345687D+01  1  2  5  1  6  1       -2 0.420654755325D-03 0.100000000000D+01
0.186574636623D-02 0.000000000000D+00 -.104661779855D-02 0.235225902570D-04 0.000000000000D+00  6 21 2 25 23 2 21 4 0.56035913D+00 0.30412425D-01 0.19692043D+05 0.19692043D+05 0.19692043D+05 0.12345687D+01  3  4  5  4  5  1       -2 0.711707542799D-03 0.100000000000D+01
  </mgrwgt>
  </event>
  <event>
  5     66 0.42934962E-03 0.46608168E+02 0.75467711E-02 0.89481749E-01
       -2 -1    0    0    0  501 0.00000000E+00 0.00000000E+00 0.14547914E+03 0.14547950E+03 0.32000000E+00 0.0000E+00 0.9000E+01
        2 -1    0    0  502    0 0.00000000E+00 0.00000000E+00 -.26206231E+03 0.26206250E+03 0.32000000E+00 0.0000E+00 0.9000E+01
       25  1    1    2    0    0 0.64237648E+02 -.78819688E+02 -.16107099E+03 0.22783302E+03 0.12500000E+03 0.0000E+00 0.9000E+01
       23  1    1    2    0    0 -.18224129E+02 0.86220474E+02 0.25344720E+02 0.12932013E+03 0.91188000E+02 0.0000E+00 0.9000E+01
       21  1    1    2  502  501 -.46013519E+02 -.74007862E+01 0.19143110E+02 0.50388855E+02 0.75000000E+00 0.0000E+00 0.9000E+01
#aMCatNLO 1  0  0  1  1 0.73486107D+01 0.00000000D+00  -5  6  0 0.00000000D+00 0.00000000D+00 0.00000000D+00 0.00000000D+00 0.00000000D+00
  <mgrwgt>
 0.5353797641D-01    5    4    0
 0.195255503737911D+03 0.000000000000000D+00 0.000000000000000D+00 0.195255503737911D+03
 0.195255503737911D+03 0.000000000000000D+00 0.000000000000000D+00 -.195255503737911D+03
 0.189684393474496D+03 0.642394973287566D+02 -.788193907648395D+02 -.100079766937156D+03
 0.142525933025870D+03 -.182227393890645D+02 0.862206980180497D+02 0.650562313951033D+02
 0.583006809754576D+02 -.460167579396921D+02 -.740130725321025D+01 0.350235355420528D+02
 0.000000000000000D+00 0.000000000000000D+00 0.000000000000000D+00 0.000000000000000D+00
 0.259175064910208D+04 0.000000000000000D+00 0.000000000000000D+00 0.259175064910208D+04
 0.979132439457713D+03 0.000000000000000D+00 0.000000000000000D+00 -.979132439457713D+03
 0.479179967953438D+03 -.442339144481354D+03 -.911513203259595D+02 -.100079766937156D+03
 0.583858612341871D+03 -.568365515180972D+03 0.728282621755455D+02 0.650562313951033D+02
 0.379625199716735D+03 -.377689232432041D+03 -.154753973454949D+02 0.350235355420528D+02
 0.212821930854775D+04 0.138839389209437D+04 0.337984554959088D+02 0.161261820964436D+04
 0.195255503737911D+03 0.000000000000000D+00 0.000000000000000D+00 0.195255503737911D+03
 0.195255503737911D+03 0.000000000000000D+00 0.000000000000000D+00 -.195255503737911D+03
 0.189684393474496D+03 0.642394973287566D+02 -.788193907648395D+02 -.100079766937156D+03
 0.142525933025870D+03 -.182227393890645D+02 0.862206980180497D+02 0.650562313951033D+02
 0.000000000000000D+00 0.000000000000000D+00 0.000000000000000D+00 0.000000000000000D+00
 0.583006809754576D+02 -.460167579396921D+02 -.740130725321025D+01 0.350235355420528D+02
 0.259175064910208D+04 0.000000000000000D+00 0.000000000000000D+00 0.259175064910208D+04
 0.979132439457713D+03 0.000000000000000D+00 0.000000000000000D+00 -.979132439457713D+03
 0.479179967953438D+03 -.442339144481354D+03 -.911513203259595D+02 -.100079766937156D+03
 0.583858612341871D+03 -.568365515180972D+03 0.728282621755455D+02 0.650562313951033D+02
 0.212821930854775D+04 0.138839389209437D+04 0.337984554959088D+02 0.161261820964436D+04
 0.379625199716735D+03 -.377689232432041D+03 -.154753973454949D+02 0.350235355420528D+02
0.155913634659D-03 0.000000000000D+00 0.000000000000D+00 0.382317538985D-05 0.000000000000D+00  6 -2 2 25 23 21 21 2 0.22381449D-01 0.40317320D-01 0.27981675D+05 0.27981675D+05 0.27981675D+05 0.12180859D+01  1  2  2  1  6  1       -2 0.497407693929D-01 0.100000000000D+01
0.638949116624D-05 0.822778854666D-05 -.598749410092D-06 0.382317538985D-05 0.000000000000D+00  6 -2 2 25 23 21 21 4 0.22381449D-01 0.40317320D-01 0.27981675D+05 0.27981675D+05 0.27981675D+05 0.12180859D+01  1  2  3  1  6  1       -2 0.302447836000D-02 0.100000000000D+01
0.153138870702D-05 0.000000000000D+00 0.000000000000D+00 0.382317538985D-05 0.000000000000D+00  6 -2 2 25 23 21 21 4 0.22381449D-01 0.40317320D-01 0.27981675D+05 0.27981675D+05 0.27981675D+05 0.12180859D+01  1  2 15  1  6  1       -2 0.724885892262D-03 0.100000000000D+01
0.143182836501D-02 0.000000000000D+00 -.431404202591D-03 0.382317538985D-05 0.000000000000D+00  6 -2 2 25 23 21 21 4 0.62607075D+00 0.40317320D-01 0.27981675D+05 0.27981675D+05 0.27981675D+05 0.12180859D+01  1  2  5  1  6  1       -2 0.202702230802D-04 0.100000000000D+01
0.357476520929D-03 0.000000000000D+00 -.145053327704D-03 0.382317538985D-05 0.000000000000D+00  6 21 2 25 23 2 21 4 0.62607075D+00 0.40317320D-01 0.27981675D+05 0.27981675D+05 0.27981675D+05 0.12180859D+01  3  4  5  4  5  1       -2 0.275725466862D-04 0.100000000000D+01
  </mgrwgt>
  </event>
  <event>
  5     66 -.42934962E-03 0.28701469E+02 0.75467711E-02 0.12012695E+00
       -2 -1    0    0    0  501 0.00000000E+00 0.00000000E+00 0.15931375E+02 0.15934589E+02 0.32000000E+00 0.0000E+00 0.9000E+01
        2 -1    0    0  502    0 0.00000000E+00 0.00000000E+00 -.15544486E+04 0.15544486E+04 0.32000000E+00 0.0000E+00 0.9000E+01
       25  1    1    2    0    0 -.69937846E+02 0.48259878E+02 -.64448937E+03 0.66197573E+03 0.12500000E+03 0.0000E+00 0.9000E+01
       23  1    1    2    0    0 0.43078452E+02 -.38150272E+02 -.42372251E+03 0.43722673E+03 0.91188000E+02 0.0000E+00 0.9000E+01
       21  1    1    2  502  501 0.26859394E+02 -.10109605E+02 -.47030535E+03 0.47118077E+03 0.75000000E+00 0.0000E+00 0.9000E+01
#aMCatNLO 1  0  0  1  2 0.10263583D+02 0.00000000D+00  -5  6  0 0.00000000D+00 0.00000000D+00 0.00000000D+00 0.00000000D+00 0.00000000D+00
  <mgrwgt>
 -.2251095183D+00    7    4    0
 0.157375515799617D+03 0.000000000000000D+00 0.000000000000000D+00 0.157375515799617D+03
 0.157375515799617D+03 0.000000000000000D+00 0.000000000000000D+00 -.157375515799617D+03
 0.152494874745707D+03 -.699392009933559D+02 0.482603875111534D+02 0.202269618428776D+02
 0.110274726190933D+03 0.430774726986400D+02 -.381499034164542D+02 0.231123366992268D+02
 0.519814306625929D+02 0.268617282947160D+02 -.101104840946992D+02 -.433392985421043D+02
 0.000000000000000D+00 -.000000000000000D+00 0.000000000000000D+00 0.000000000000000D+00
 0.164285521283929D+03 0.000000000000000D+00 0.000000000000000D+00 0.164285521283929D+03
 0.161317046310472D+03 0.000000000000000D+00 0.000000000000000D+00 -.161317046310472D+03
 0.150085883216882D+03 -.675199826310398D+02 0.439624191907421D+02 0.202269618428776D+02
 0.112106433881076D+03 0.448554726927634D+02 -.413086871655648D+02 0.231123366992268D+02
 0.527260104636362D+02 0.276988937706350D+02 -.115977870808577D+02 -.433392985421043D+02
 0.106842400328052D+02 -.503438383235864D+01 0.894405505568033D+01 0.296847497345717D+01
 0.157375515799617D+03 0.000000000000000D+00 0.000000000000000D+00 0.157375515799617D+03
 0.157375515799617D+03 0.000000000000000D+00 0.000000000000000D+00 -.157375515799617D+03
 0.152494874745707D+03 -.699392009933559D+02 0.482603875111534D+02 0.202269618428776D+02
 0.110274726190933D+03 0.430774726986400D+02 -.381499034164542D+02 0.231123366992268D+02
 0.000000000000000D+00 -.000000000000000D+00 0.000000000000000D+00 0.000000000000000D+00
 0.519814306625929D+02 0.268617282947160D+02 -.101104840946992D+02 -.433392985421043D+02
 0.164285521283929D+03 0.000000000000000D+00 0.000000000000000D+00 0.164285521283929D+03
 0.161317046310472D+03 0.000000000000000D+00 0.000000000000000D+00 -.161317046310472D+03
 0.150085883216882D+03 -.675199826310398D+02 0.439624191907421D+02 0.202269618428776D+02
 0.112106433881076D+03 0.448554726927634D+02 -.413086871655648D+02 0.231123366992268D+02
 0.106842400328052D+02 -.503438383235864D+01 0.894405505568033D+01 0.296847497345717D+01
 0.527260104636362D+02 0.276988937706350D+02 -.115977870808577D+02 -.433392985421043D+02
0.659831524894D-04 0.000000000000D+00 0.000000000000D+00 0.161924446213D-04 0.000000000000D+00  6 -2 2 25 23 21 21 2 0.24512305D-02 0.23914619D+00 0.20689143D+05 0.20689143D+05 0.20689143D+05 0.12322096D+01  1  2  2  1  6  1       -2 0.718957535982D-01 0.100000000000D+01
0.697366659669D-05 0.348202662015D-05 -.253392679322D-06 0.161924446213D-04 0.000000000000D+00  6 -2 2 25 23 21 21 4 0.24512305D-02 0.23914619D+00 0.20689143D+05 0.20689143D+05 0.20689143D+05 0.12322096D+01  1  2  3  1  6  1       -2 0.115372031905D-01 0.100000000000D+01
0.182477331171D-05 0.000000000000D+00 0.000000000000D+00 0.161924446213D-04 0.000000000000D+00  6 -2 2 25 23 21 21 4 0.24512305D-02 0.23914619D+00 0.20689143D+05 0.20689143D+05 0.20689143D+05 0.12322096D+01  1  2 15  1  6  1       -2 0.301889690049D-02 0.100000000000D+01
-.763521409641D-04 0.000000000000D+00 0.000000000000D+00 0.161924446213D-04 0.000000000000D+00  6 -2 2 25 23 21 21 4 0.24512305D-02 0.23914619D+00 0.20689143D+05 0.20689143D+05 0.20689143D+05 0.12322096D+01  1  2  4  1  6  1       -2 -.126316644497D+00 0.100000000000D+01
-.110502933195D-02 0.000000000000D+00 -.190162554532D-03 0.161924446213D-04 0.000000000000D+00  6 -2 2 25 23 21 21 4 0.26290001D-02 0.23914619D+00 0.20689143D+05 0.20689143D+05 0.20689143D+05 0.12322096D+01  1  2  5  1  6  1       -2 -.165007375198D+01 0.100000000000D+01
0.111607184747D-02 0.000000000000D+00 0.189697427662D-03 0.161924446213D-04 0.000000000000D+00  6 -2 2 25 23 21 21 4 0.24512305D-02 0.23914619D+00 0.20689143D+05 0.20689143D+05 0.20689143D+05 0.12322096D+01  1  2  6  1  6  1       -2 0.184642433087D+01 0.100000000000D+01
-.127796159753D-04 0.000000000000D+00 -.225424564066D-05 0.161924446213D-04 0.000000000000D+00  6 21 2 25 23 2 21 4 0.26290001D-02 0.23914619D+00 0.20689143D+05 0.20689143D+05 0.20689143D+05 0.12322096D+01  3  4  5  4  5  1       -2 -.381595306417D+00 0.100000000000D+01
  </mgrwgt>
  </event>
  <event>
  5     66 0.42934962E-03 0.67894310E+02 0.75467711E-02 0.11833607E+00
       -2 -1    0    0    0  501 0.00000000E+00 0.00000000E+00 0.38646995E+02 0.38648320E+02 0.32000000E+00 0.0000E+00 0.9000E+01
        2 -1    0    0  502    0 -.00000000E+00 -.00000000E+00 -.11516866E+04 0.11516867E+04 0.32000000E+00 0.0000E+00 0.9000E+01
       25  1    1    2    0    0 -.30752872E+02 -.41953259E+02 -.25640412E+03 0.28995498E+03 0.12500000E+03 0.0000E+00 0.9000E+01
       23  1    1    2    0    0 -.83132573E+00 -.19713132E+02 -.86796284E+02 0.12742898E+03 0.91188000E+02 0.0000E+00 0.9000E+01
       21  1    1    2  502  501 0.31584198E+02 0.61666391E+02 -.76983924E+03 0.77295105E+03 0.75000000E+00 0.0000E+00 0.9000E+01
#aMCatNLO 1  0  0  5  1 0.26428220D+02 0.00000000D+00  -5  6  0 0.00000000D+00 0.00000000D+00 0.00000000D+00 0.00000000D+00 0.00000000D+00
  <mgrwgt>
 0.8183278248D-01    9    2    0
 0.210974034165536D+03 0.000000000000000D+00 0.000000000000000D+00 0.210974034165536D+03
 0.210974034165536D+03 -.000000000000000D+00 -.000000000000000D+00 -.210974034165536D+03
 0.141618660330165D+03 -.307530050511656D+02 -.419535186663970D+02 0.415331181774474D+02
 0.130527053126388D+03 -.831448186019047D+00 -.197133707315290D+02 0.912839085610068D+02
 0.149802354874519D+03 0.315844532371846D+02 0.616668893979260D+02 -.132817026738454D+03
 0.000000000000000D+00 -.000000000000000D+00 0.000000000000000D+00 0.000000000000000D+00
 0.210974034165536D+03 0.000000000000000D+00 0.000000000000000D+00 0.210974034165536D+03
 0.210974034165536D+03 -.000000000000000D+00 -.000000000000000D+00 -.210974034165536D+03
 0.136784321700499D+03 -.281444552482991D+02 -.368604701664164D+02 0.305638027894571D+02
 0.123097758338995D+03 0.154493782509491D+01 -.150736091306660D+02 0.812908742662917D+02
 0.134929988072543D+03 0.535489369447938D+02 0.549861263165111D+02 -.110973595715575D+03
 0.271360002190346D+02 -.269494195215897D+02 -.305204701942870D+01 -.881081340174070D+00
0.811343510364D-04 0.000000000000D+00 0.000000000000D+00 0.511551994278D-05 0.000000000000D+00  6 -2 2 25 23 21 21 2 0.59457969D-02 0.17718267D+00 0.22197197D+05 0.22197197D+05 0.22197197D+05 0.12288733D+01  1  2  2  3  6  5       21 0.387625963866D-01 0.100000000000D+01
-.203001651242D-05 0.428157733388D-05 -.311577271145D-06 0.511551994278D-05 0.000000000000D+00  6 -2 2 25 23 21 21 4 0.59457969D-02 0.17718267D+00 0.22197197D+05 0.22197197D+05 0.22197197D+05 0.12288733D+01  1  2  3  3  6  5       21 -.146460968342D-02 0.100000000000D+01
0.469126105135D-05 0.000000000000D+00 0.000000000000D+00 0.511551994278D-05 0.000000000000D+00  6 -2 2 25 23 21 21 4 0.59457969D-02 0.17718267D+00 0.22197197D+05 0.22197197D+05 0.22197197D+05 0.12288733D+01  1  2 15  3  6  5       21 0.338463570183D-02 0.100000000000D+01
0.916768813792D-04 0.000000000000D+00 0.000000000000D+00 0.503735509701D-05 0.000000000000D+00  6 -2 2 25 23 21 21 4 0.59457969D-02 0.17718267D+00 0.27165402D+05 0.27165402D+05 0.27165402D+05 0.12194486D+01  1  2 12  3  6  5       21 0.642644540128D-01 0.100000000000D+01
-.350527338428D-04 0.000000000000D+00 0.000000000000D+00 0.511551994278D-05 0.000000000000D+00  6 -2 2 25 23 21 21 4 0.59457969D-02 0.17718267D+00 0.22197197D+05 0.22197197D+05 0.22197197D+05 0.12288733D+01  1  2  4  3  6  5       21 -.252897319319D-01 0.100000000000D+01
0.775846361771D-06 0.000000000000D+00 0.000000000000D+00 0.503735509701D-05 0.000000000000D+00  6 -2 2 25 23 1 -1 4 0.59457969D-02 0.17718267D+00 0.27165402D+05 0.27165402D+05 0.27165402D+05 0.12194486D+01  1  2 12  6  6  5       21 0.543859499657D-03 0.100000000000D+01
0.775846361771D-06 0.000000000000D+00 0.000000000000D+00 0.503735509701D-05 0.000000000000D+00  6 -2 2 25 23 3 -3 4 0.59457969D-02 0.17718267D+00 0.27165402D+05 0.27165402D+05 0.27165402D+05 0.12194486D+01  1  2 12  6  6  5       21 0.543859499657D-03 0.100000000000D+01
0.775846361771D-06 0.000000000000D+00 0.000000000000D+00 0.503735509701D-05 0.000000000000D+00  6 -2 2 25 23 2 -2 4 0.59457969D-02 0.17718267D+00 0.27165402D+05 0.27165402D+05 0.27165402D+05 0.12194486D+01  1  2 12  7  6  5       21 0.543859499657D-03 0.100000000000D+01
0.775846361771D-06 0.000000000000D+00 0.000000000000D+00 0.503735509701D-05 0.000000000000D+00  6 -2 2 25 23 4 -4 4 0.59457969D-02 0.17718267D+00 0.27165402D+05 0.27165402D+05 0.27165402D+05 0.12194486D+01  1  2 12  8  6  5       21 0.543859499657D-03 0.100000000000D+01
  </mgrwgt>
  </event>
  <event>
  5     66 -.42934962E-03 0.24835529E+02 0.75467711E-02 0.11728371E+00
       -2 -1    0    0    0  501 0.00000000E+00 0.00000000E+00 0.22977117E+03 0.22977139E+03 0.32000000E+00 0.0000E+00 0.9000E+01
        2 -1    0    0  502    0 0.00000000E+00 0.00000000E+00 -.15373929E+03 0.15373963E+03 0.32000000E+00 0.0000E+00 0.9000E+01
       25  1    1    2    0    0 0.11354031E+03 -.23683811E+02 0.52741725E+02 0.17849094E+03 0.12500000E+03 0.0000E+00 0.9000E+01
       23  1    1    2    0    0 -.12297905E+03 0.71448765E+00 0.56807067E+02 0.16329927E+03 0.91188000E+02 0.0000E+00 0.9000E+01
       21  1    1    2  502  501 0.94387455E+01 0.22969323E+02 -.33516916E+02 0.41720808E+02 0.75000000E+00 0.0000E+00 0.9000E+01
#aMCatNLO 1  0  0  2  5 0.14161475D+01 0.00000000D+00  -5  6  0 0.00000000D+00 0.00000000D+00 0.00000000D+00 0.00000000D+00 0.00000000D+00
  <mgrwgt>
 -.6418058114D+00   11    4    0
 0.187949364588767D+03 0.000000000000000D+00 0.000000000000000D+00 0.187949364588767D+03
 0.187949364588767D+03 0.000000000000000D+00 0.000000000000000D+00 -.187949364588767D+03
 0.171437702700201D+03 0.113539812106052D+03 -.236850209950395D+02 0.177092279478676D+02
 0.155116719133361D+03 -.122979504912902D+03 0.713392639841262D+00 0.249294535242347D+02
 0.493443073439726D+02 0.943969280684945D+01 0.229716283551982D+02 -.426386814721022D+02
 0.000000000000000D+00 0.000000000000000D+00 0.000000000000000D+00 -.000000000000000D+00
 0.187969758904608D+03 0.000000000000000D+00 0.000000000000000D+00 0.187969758904608D+03
 0.214254705808894D+03 0.000000000000000D+00 0.000000000000000D+00 -.214254705808894D+03
 0.171230665626934D+03 0.113122780036997D+03 -.241776908168388D+02 0.177092279478676D+02
 0.155415105082270D+03 -.123357426370293D+03 0.266926981962770D+00 0.249294535242347D+02
 0.492556260307701D+02 0.931969534567529D+01 0.228298667685005D+02 -.426386814721022D+02
 0.263230679735280D+02 0.914950987620290D+00 0.108089706637544D+01 -.262849469042859D+02
 0.187949364588767D+03 0.000000000000000D+00 0.000000000000000D+00 0.187949364588767D+03
 0.187949364588767D+03 0.000000000000000D+00 0.000000000000000D+00 -.187949364588767D+03
 0.171437702700201D+03 0.113539812106052D+03 -.236850209950395D+02 0.177092279478676D+02
 0.155116719133361D+03 -.122979504912902D+03 0.713392639841262D+00 0.249294535242347D+02
 0.000000000000000D+00 0.000000000000000D+00 0.000000000000000D+00 -.000000000000000D+00
 0.493443073439726D+02 0.943969280684945D+01 0.229716283551982D+02 -.426386814721022D+02
 0.187969758904608D+03 0.000000000000000D+00 0.000000000000000D+00 0.187969758904608D+03
 0.214254705808894D+03 0.000000000000000D+00 0.000000000000000D+00 -.214254705808894D+03
 0.171230665626934D+03 0.113122780036997D+03 -.241776908168388D+02 0.177092279478676D+02
 0.155415105082270D+03 -.123357426370293D+03 0.266926981962770D+00 0.249294535242347D+02
 0.263230679735280D+02 0.914950987620290D+00 0.108089706637544D+01 -.262849469042859D+02
 0.492556260307701D+02 0.931969534567529D+01 0.228298667685005D+02 -.426386814721022D+02
0.118997597533D-04 0.000000000000D+00 0.000000000000D+00 0.169381821827D-04 0.000000000000D+00  6 -2 2 25 23 21 21 2 0.35349453D-01 0.23652242D-01 0.30355477D+05 0.30355477D+05 0.30355477D+05 0.12143618D+01  1  2  2  2  6  2        2 0.298289842715D-02 0.100000000000D+01
0.217033178521D-05 0.627967574614D-06 -.456982107312D-07 0.169381821827D-04 0.000000000000D+00  6 -2 2 25 23 21 21 4 0.35349453D-01 0.23652242D-01 0.30355477D+05 0.30355477D+05 0.30355477D+05 0.12143618D+01  1  2  3  2  6  2        2 0.802273832395D-03 0.100000000000D+01
0.385325954980D-06 0.000000000000D+00 0.000000000000D+00 0.169381821827D-04 0.000000000000D+00  6 -2 2 25 23 21 21 4 0.35349453D-01 0.23652242D-01 0.30355477D+05 0.30355477D+05 0.30355477D+05 0.12143618D+01  1  2 15  2  6  2        2 0.142437636830D-03 0.100000000000D+01
0.233990646747D-05 0.000000000000D+00 0.000000000000D+00 0.169284866267D-04 0.000000000000D+00  6 -2 2 25 23 21 21 4 0.35349453D-01 0.27038835D-01 0.30588279D+05 0.30588279D+05 0.30588279D+05 0.12140142D+01  1  2 12  2  6  2        2 0.744803147756D-03 0.100000000000D+01
-.231887898601D-01 0.000000000000D+00 0.000000000000D+00 0.169381821827D-04 0.000000000000D+00  6 -2 2 25 23 21 21 4 0.35349453D-01 0.23652242D-01 0.30355477D+05 0.30355477D+05 0.30355477D+05 0.12143618D+01  1  2  4  2  6  2        2 -.857185036704D+01 0.100000000000D+01
-.185796864487D-01 0.000000000000D+00 -.305049710663D-04 0.169381821827D-04 0.000000000000D+00  6 -2 2 25 23 21 21 4 0.35349453D-01 0.26963946D-01 0.30355477D+05 0.30355477D+05 0.30355477D+05 0.12143618D+01  1  2  5  2  6  2        2 -.593822400084D+01 0.100000000000D+01
0.184255140903D-01 0.000000000000D+00 0.302449133163D-04 0.169381821827D-04 0.000000000000D+00  6 -2 2 25 23 21 21 4 0.35349453D-01 0.23652242D-01 0.30355477D+05 0.30355477D+05 0.30355477D+05 0.12143618D+01  1  2  6  2  6  2        2 0.681108202157D+01 0.100000000000D+01
0.221509848427D-01 0.000000000000D+00 0.000000000000D+00 0.169381821827D-04 0.406441004210D-04  6 -2 2 25 23 21 21 4 0.35353289D-01 0.26962603D-01 0.30588279D+05 0.30588279D+05 0.30588279D+05 0.12140142D+01  1  2 11  2  6  2        2 0.707132401763D+01 0.100000000000D+01
0.486178676920D-07 0.000000000000D+00 0.000000000000D+00 0.169284866267D-04 0.000000000000D+00  6 -2 21 25 23 -2 21 4 0.35349453D-01 0.27038835D-01 0.30588279D+05 0.30588279D+05 0.30588279D+05 0.12140142D+01  3  4 12  5  5  2        2 0.837110849597D-04 0.100000000000D+01
-.379245453647D-03 0.000000000000D+00 -.622934550723D-06 0.169381821827D-04 0.000000000000D+00  6 -2 21 25 23 -2 21 4 0.35349453D-01 0.26963946D-01 0.30355477D+05 0.30355477D+05 0.30355477D+05 0.12143618D+01  3  4  5  5  5  2        2 -.657275042323D+00 0.100000000000D+01
0.368830184944D-03 0.000000000000D+00 0.000000000000D+00 0.169381821827D-04 0.135347663451D-05  6 -2 21 25 23 -2 21 4 0.35353289D-01 0.26962603D-01 0.30588279D+05 0.30588279D+05 0.30588279D+05 0.12140142D+01  3  4 11  5  5  2        2 0.638381435494D+00 0.100000000000D+01
  </mgrwgt>
  </event>
  <event>
  5     66 0.42934962E-03 0.18207216E+03 0.75467711E-02 0.10423776E+00
       -2 -1    0    0    0  501 0.00000000E+00 0.00000000E+00 0.65848041E+02 0.65848818E+02 0.32000000E+00 0.0000E+00 0.9000E+01
        2 -1    0    0  502    0 0.00000000E+00 0.00000000E+00 -.13175701E+04 0.13175701E+04 0.32000000E+00 0.0000E+00 0.9000E+01
       25  1    1    2    0    0 -.13644087E+03 -.42212682E+02 -.20645068E+03 0.28043699E+03 0.12500000E+03 0.0000E+00 0.9000E+01
       23  1    1    2    0    0 -.35773111E+02 -.16884242E+02 -.10246418E+03 0.14275487E+03 0.91188000E+02 0.0000E+00 0.9000E+01
       21  1    1    2  502  501 0.17221398E+03 0.59096923E+02 -.94280715E+03 0.96022705E+03 0.75000000E+00 0.0000E+00 0.9000E+01
#aMCatNLO 1  0  0  1  2 0.41840864D+02 0.00000000D+00  -5  6  0 0.00000000D+00 0.00000000D+00 0.00000000D+00 0.00000000D+00 0.00000000D+00
  <mgrwgt>
 0.2222681285D-01    3    2    0
 0.294550456471605D+03 0.000000000000000D+00 0.000000000000000D+00 0.294550456471605D+03
 0.294550456471605D+03 0.000000000000000D+00 0.000000000000000D+00 -.294550456471605D+03
 0.219899801605771D+03 -.136441156395755D+03 -.422127799445695D+02 0.111053207054088D+03
 0.117523493201223D+03 -.357732636826013D+02 -.168842938494654D+02 0.627033837756611D+02
 0.251677618136216D+03 0.172214420078356D+03 0.590970737940349D+02 -.173756590829749D+03
 0.000000000000000D+00 -.000000000000000D+00 0.000000000000000D+00 -.000000000000000D+00
 0.361875728403286D+03 0.000000000000000D+00 0.000000000000000D+00 0.361875728403286D+03
 0.775027486245875D+03 0.000000000000000D+00 0.000000000000000D+00 -.775027486245875D+03
 0.180684529316213D+03 -.505488803479815D+02 -.461941017099474D+02 0.111053207054088D+03
 0.113146070731470D+03 0.136863190612502D+02 -.191768691815603D+02 0.627033837756611D+02
 0.352176206501363D+03 0.301691225321583D+03 0.530955001188916D+02 -.173756590829749D+03
 0.490896408100115D+03 -.264828664034852D+03 0.122754707726161D+02 -.413151757842589D+03
0.147877389427D-03 0.000000000000D+00 0.000000000000D+00 0.115824996248D-05 0.000000000000D+00  6 -2 2 25 23 21 21 2 0.10130531D-01 0.20270315D+00 0.55523424D+05 0.55523424D+05 0.55523424D+05 0.11878011D+01  1  2  2  1  6  1       -2 0.233463687352D-01 0.100000000000D+01
-.135751086332D-04 0.780370423476D-05 -.567888112412D-06 0.115824996248D-05 0.000000000000D+00  6 -2 2 25 23 21 21 4 0.10130531D-01 0.20270315D+00 0.55523424D+05 0.55523424D+05 0.55523424D+05 0.11878011D+01  1  2  3  1  6  1       -2 -.302376717800D-02 0.100000000000D+01
0.854889734940D-05 0.000000000000D+00 0.000000000000D+00 0.115824996248D-05 0.000000000000D+00  6 -2 2 25 23 21 21 4 0.10130531D-01 0.20270315D+00 0.55523424D+05 0.55523424D+05 0.55523424D+05 0.11878011D+01  1  2 15  1  6  1       -2 0.190421129670D-02 0.100000000000D+01
  </mgrwgt>
  </event>
  <event>
  5     66 0.42934962E-03 0.50918708E+02 0.75467711E-02 0.11579428E+00
       -2 -1    0    0    0  501 0.00000000E+00 0.00000000E+00 0.59096416E+02 0.59097283E+02 0.32000000E+00 0.0000E+00 0.9000E+01
        2 -1    0    0  502    0 0.00000000E+00 0.00000000E+00 -.14207513E+04 0.14207514E+04 0.32000000E+00 0.0000E+00 0.9000E+01
       25  1    1    2    0    0 -.52645184E+02 -.50358752E+01 -.88526620E+03 0.89561047E+03 0.12500000E+03 0.0000E+00 0.9000E+01
       23  1    1    2    0    0 0.33526890E+02 -.42156231E+02 -.77954156E+00 0.10591062E+03 0.91188000E+02 0.0000E+00 0.9000E+01
       21  1    1    2  502  501 0.19118295E+02 0.47192106E+02 -.47560916E+03 0.47832755E+03 0.75000000E+00 0.0000E+00 0.9000E+01
#aMCatNLO 1  0  0  2  1 0.21581319D+02 0.00000000D+00  -5  6  0 0.00000000D+00 0.00000000D+00 0.00000000D+00 0.00000000D+00 0.00000000D+00
  <mgrwgt>
 0.4680547171D-01    7    4    0
 0.289761935114398D+03 0.000000000000000D+00 0.000000000000000D+00 0.289761935114398D+03
 0.289761935114398D+03 0.000000000000000D+00 0.000000000000000D+00 -.289761935114398D+03
 0.206963935942605D+03 -.526453621879578D+02 -.503631391244143D+01 -.156243950804915D+03
 0.268618504719898D+03 0.335266588641364D+02 -.421568003715872D+02 0.246859103663997D+03
 0.103941429566292D+03 0.191187033238214D+02 0.471931142840286D+02 -.906151528590817D+02
 0.000000000000000D+00 0.000000000000000D+00 -.000000000000000D+00 -.000000000000000D+00
 0.330514438589671D+03 0.000000000000000D+00 0.000000000000000D+00 0.330514438589671D+03
 0.339219102681661D+03 0.000000000000000D+00 0.000000000000000D+00 -.339219102681661D+03
 0.213987121612219D+03 -.740731545665082D+02 0.163243323085456D+02 -.156243950804915D+03
 0.263676757448899D+03 0.643108051331212D+01 -.151461287596875D+02 0.246859103663997D+03
 0.107878812889929D+03 0.833635678859511D+01 0.579416732443818D+02 -.906151528590817D+02
 0.841908493202856D+02 0.593057172646010D+02 -.591198767932399D+02 -.870466409199030D+01
 0.289761935114398D+03 0.000000000000000D+00 0.000000000000000D+00 0.289761935114398D+03
 0.289761935114398D+03 0.000000000000000D+00 0.000000000000000D+00 -.289761935114398D+03
 0.206963935942605D+03 -.526453621879578D+02 -.503631391244143D+01 -.156243950804915D+03
 0.268618504719898D+03 0.335266588641364D+02 -.421568003715872D+02 0.246859103663997D+03
 0.000000000000000D+00 0.000000000000000D+00 -.000000000000000D+00 -.000000000000000D+00
 0.103941429566292D+03 0.191187033238214D+02 0.471931142840286D+02 -.906151528590817D+02
 0.330514438589671D+03 0.000000000000000D+00 0.000000000000000D+00 0.330514438589671D+03
 0.339219102681661D+03 0.000000000000000D+00 0.000000000000000D+00 -.339219102681661D+03
 0.213987121612219D+03 -.740731545665082D+02 0.163243323085456D+02 -.156243950804915D+03
 0.263676757448899D+03 0.643108051331212D+01 -.151461287596875D+02 0.246859103663997D+03
 0.841908493202856D+02 0.593057172646010D+02 -.591198767932399D+02 -.870466409199030D+01
 0.107878812889929D+03 0.833635678859511D+01 0.579416732443818D+02 -.906151528590817D+02
0.128604449495D-03 0.000000000000D+00 0.000000000000D+00 0.120019625363D-05 0.000000000000D+00  6 -2 2 25 23 21 21 2 0.90918258D-02 0.21857720D+00 0.21396947D+05 0.21396947D+05 0.21396947D+05 0.12306110D+01  1  2  2  2  6  2        2 0.228756617848D-01 0.100000000000D+01
-.502901322188D-05 0.678664325237D-05 -.493874948392D-06 0.120019625363D-05 0.000000000000D+00  6 -2 2 25 23 21 21 4 0.90918258D-02 0.21857720D+00 0.21396947D+05 0.21396947D+05 0.21396947D+05 0.12306110D+01  1  2  3  2  6  2        2 -.135469652052D-02 0.100000000000D+01
0.253152353508D-05 0.000000000000D+00 0.000000000000D+00 0.120019625363D-05 0.000000000000D+00  6 -2 2 25 23 21 21 4 0.90918258D-02 0.21857720D+00 0.21396947D+05 0.21396947D+05 0.21396947D+05 0.12306110D+01  1  2 15  2  6  2        2 0.681932214786D-03 0.100000000000D+01
-.483228643923D-04 0.000000000000D+00 0.000000000000D+00 0.120019625363D-05 0.000000000000D+00  6 -2 2 25 23 21 21 4 0.90918258D-02 0.21857720D+00 0.21396947D+05 0.21396947D+05 0.21396947D+05 0.12306110D+01  1  2  4  2  6  2        2 -.130170300545D-01 0.100000000000D+01
-.304952622750D-03 0.000000000000D+00 -.158756067889D-03 0.120019625363D-05 0.000000000000D+00  6 -2 2 25 23 21 21 4 0.90918258D-02 0.27595096D+00 0.21396947D+05 0.21396947D+05 0.21396947D+05 0.12306110D+01  1  2  5  2  6  2        2 -.526465745933D-01 0.100000000000D+01
0.336977854263D-03 0.000000000000D+00 0.154539119194D-03 0.120019625363D-05 0.000000000000D+00  6 -2 2 25 23 21 21 4 0.90918258D-02 0.21857720D+00 0.21396947D+05 0.21396947D+05 0.21396947D+05 0.12306110D+01  1  2  6  2  6  2        2 0.907738171527D-01 0.100000000000D+01
-.742824507950D-05 0.000000000000D+00 -.510071424538D-05 0.120019625363D-05 0.000000000000D+00  6 -2 21 25 23 -2 21 4 0.90918258D-02 0.27595096D+00 0.21396947D+05 0.21396947D+05 0.21396947D+05 0.12306110D+01  3  4  5  5  5  2        2 -.507638278305D-03 0.100000000000D+01
  </mgrwgt>
  </event>
  <event>
  5     66 -.42934962E-03 0.33662654E+02 0.75467711E-02 0.11611560E+00
       -2 -1    0    0    0  501 0.00000000E+00 0.00000000E+00 0.76645389E+02 0.76646057E+02 0.32000000E+00 0.0000E+00 0.9000E+01
        2 -1    0    0  502    0 -.00000000E+00 -.00000000E+00 -.49888051E+03 0.49888061E+03 0.32000000E+00 0.0000E+00 0.9000E+01
       25  1    1    2    0    0 -.14769299E+03 0.11612352E+02 -.21565480E+03 0.28996562E+03 0.12500000E+03 0.0000E+00 0.9000E+01
       23  1    1    2    0    0 0.11405454E+03 -.12781197E+02 -.10996167E+03 0.18324469E+03 0.91188000E+02 0.0000E+00 0.9000E+01
       21  1    1    2  502  501 0.33638451E+02 0.11688450E+01 -.96618647E+02 0.10231636E+03 0.75000000E+00 0.0000E+00 0.9000E+01
#aMCatNLO 1  0  0  5  1 0.37521910D+01 0.00000000D+00  -5  6  0 0.00000000D+00 0.00000000D+00 0.00000000D+00 0.00000000D+00 0.00000000D+00
  <mgrwgt>
 -.9159744393D-02    1    2    0
 0.195543121529649D+03 0.000000000000000D+00 0.000000000000000D+00 0.195543121529649D+03
 0.195543121529649D+03 -.000000000000000D+00 -.000000000000000D+00 -.195543121529649D+03
 0.193887025633725D+03 -.147695182717636D+03 0.116122756747407D+02 -.429729737751844D+01
 0.150944138107519D+03 0.114052832136309D+03 -.127812561645013D+02 0.360204449940022D+02
 0.462550793180548D+02 0.336423505813266D+02 0.116898048976053D+01 -.317231476164837D+02
 0.000000000000000D+00 -.000000000000000D+00 0.000000000000000D+00 0.000000000000000D+00
 0.195543121529649D+03 0.000000000000000D+00 0.000000000000000D+00 0.195543121529649D+03
 0.195543121529649D+03 -.000000000000000D+00 -.000000000000000D+00 -.195543121529649D+03
 0.187719316442455D+03 -.138978023222517D+03 0.119151733379492D+02 -.125171670561126D+02
 0.154884444726486D+03 0.121038975291650D+03 -.125385066269050D+02 0.294328419651646D+02
 0.182884199177174D+02 0.128391436449256D+02 -.340700664144993D+01 0.125704017158103D+02
 0.301940619726402D+02 0.509990428594167D+01 0.403033993040574D+01 -.294860766248623D+02
-.137608992908D-04 0.000000000000D+00 0.000000000000D+00 0.855429424302D-05 0.000000000000D+00  6 -2 2 25 23 21 21 4 0.11791658D-01 0.76750906D-01 0.34984960D+05 0.34984960D+05 0.34984960D+05 0.12079535D+01  1  2 14  3  6  5       21 -.915974439254D-02 0.100000000000D+01
  </mgrwgt>
  </event>
  <event>
  5     66 -.42934962E-03 0.22273472E+02 0.75467711E-02 0.10975064E+00
       -2 -1    0    0    0  501 0.00000000E+00 0.00000000E+00 0.73690044E+02 0.73690738E+02 0.32000000E+00 0.0000E+00 0.9000E+01
        2 -1    0    0  502    0 0.00000000E+00 0.00000000E+00 -.10746874E+04 0.10746874E+04 0.32000000E+00 0.0000E+00 0.9000E+01
       25  1    1    2    0    0 -.21339827E+03 -.10969066E+03 -.46493830E+03 0.53792517E+03 0.12500000E+03 0.0000E+00 0.9000E+01
       23  1    1    2    0    0 0.21243621E+03 0.87441380E+02 -.53356352E+03 0.58803097E+03 0.91188000E+02 0.0000E+00 0.9000E+01
       21  1    1    2  502  501 0.96205772E+00 0.22249280E+02 -.24954833E+01 0.22421997E+02 0.75000000E+00 0.0000E+00 0.9000E+01
#aMCatNLO 1  0  0  2  5 0.13726198D+02 0.00000000D+00  -5  6  0 0.00000000D+00 0.00000000D+00 0.00000000D+00 0.00000000D+00 0.00000000D+00
  <mgrwgt>
 -.1368476146D+00    9    4    0
 0.281414612137806D+03 0.000000000000000D+00 0.000000000000000D+00 0.281414612137806D+03
 0.281414612137806D+03 0.000000000000000D+00 0.000000000000000D+00 -.281414612137806D+03
 0.270668078263828D+03 -.213398345952835D+03 -.109692424223263D+03 0.805770461430451D+01
 0.250850785151182D+03 0.212436141281240D+03 0.874397453340396D+02 -.428490592711178D+02
 0.413103608606015D+02 0.962204671595643D+00 0.222526788892238D+02 0.347913546568133D+02
 0.000000000000000D+00 -.000000000000000D+00 0.000000000000000D+00 -.000000000000000D+00
 0.282612203208098D+03 0.000000000000000D+00 0.000000000000000D+00 0.282612203208098D+03
 0.323783483718792D+03 0.000000000000000D+00 0.000000000000000D+00 -.323783483718792D+03
 0.272794094687834D+03 -.212620291774913D+03 -.116272537679600D+03 0.805770461430451D+01
 0.249416022026841D+03 0.213152354292509D+03 0.813826313093558D+02 -.428490592711178D+02
 0.407864589565938D+02 0.107973957435797D+01 0.212586697093989D+02 0.347913546568133D+02
 0.433991112556214D+02 -.161180209195345D+01 0.136312366608452D+02 -.411712805106935D+02
 0.281414612137806D+03 0.000000000000000D+00 0.000000000000000D+00 0.281414612137806D+03
 0.281414612137806D+03 0.000000000000000D+00 0.000000000000000D+00 -.281414612137806D+03
 0.270668078263828D+03 -.213398345952835D+03 -.109692424223263D+03 0.805770461430451D+01
 0.250850785151182D+03 0.212436141281240D+03 0.874397453340396D+02 -.428490592711178D+02
 0.000000000000000D+00 -.000000000000000D+00 0.000000000000000D+00 -.000000000000000D+00
 0.413103608606015D+02 0.962204671595643D+00 0.222526788892238D+02 0.347913546568133D+02
 0.282612203208098D+03 0.000000000000000D+00 0.000000000000000D+00 0.282612203208098D+03
 0.323783483718792D+03 0.000000000000000D+00 0.000000000000000D+00 -.323783483718792D+03
 0.272794094687834D+03 -.212620291774913D+03 -.116272537679600D+03 0.805770461430451D+01
 0.249416022026841D+03 0.213152354292509D+03 0.813826313093558D+02 -.428490592711178D+02
 0.433991112556214D+02 -.161180209195345D+01 0.136312366608452D+02 -.411712805106935D+02
 0.407864589565938D+02 0.107973957435797D+01 0.212586697093989D+02 0.347913546568133D+02
0.379797996001D-03 0.000000000000D+00 0.000000000000D+00 0.155048038958D-04 0.000000000000D+00  6 -2 2 25 23 21 21 2 0.11336987D-01 0.16533657D+00 0.72896126D+05 0.72896126D+05 0.72896126D+05 0.11763987D+01  1  2  2  2  6  2        2 0.674582876745D-01 0.100000000000D+01
0.133616275054D-03 0.200424908853D-04 -.145852430775D-05 0.155048038958D-04 0.000000000000D+00  6 -2 2 25 23 21 21 4 0.11336987D-01 0.16533657D+00 0.72896126D+05 0.72896126D+05 0.72896126D+05 0.11763987D+01  1  2  3  2  6  2        2 0.328436244702D-01 0.100000000000D+01
0.946259782292D-05 0.000000000000D+00 0.000000000000D+00 0.155048038958D-04 0.000000000000D+00  6 -2 2 25 23 21 21 4 0.11336987D-01 0.16533657D+00 0.72896126D+05 0.72896126D+05 0.72896126D+05 0.11763987D+01  1  2 15  2  6  2        2 0.232595923874D-02 0.100000000000D+01
0.121001131456D-01 0.000000000000D+00 0.000000000000D+00 0.154516244603D-04 0.000000000000D+00  6 -2 2 25 23 21 21 4 0.11336987D-01 0.19291737D+00 0.76561537D+05 0.76561537D+05 0.76561537D+05 0.11743795D+01  1  2 12  2  6  2        2 0.232703984596D+01 0.100000000000D+01
-.134305624443D-01 0.000000000000D+00 0.000000000000D+00 0.155048038958D-04 0.000000000000D+00  6 -2 2 25 23 21 21 4 0.11336987D-01 0.16533657D+00 0.72896126D+05 0.72896126D+05 0.72896126D+05 0.11763987D+01  1  2  4  2  6  2        2 -.330130703887D+01 0.100000000000D+01
-.156171936575D-01 0.000000000000D+00 -.773735321633D-03 0.155048038958D-04 0.000000000000D+00  6 -2 2 25 23 21 21 4 0.11336987D-01 0.19054906D+00 0.72896126D+05 0.72896126D+05 0.72896126D+05 0.11763987D+01  1  2  5  2  6  2        2 -.308624047553D+01 0.100000000000D+01
0.155775809742D-01 0.000000000000D+00 0.766007474674D-03 0.155048038958D-04 0.000000000000D+00  6 -2 2 25 23 21 21 4 0.11336987D-01 0.16533657D+00 0.72896126D+05 0.72896126D+05 0.72896126D+05 0.11763987D+01  1  2  6  2  6  2        2 0.382905614950D+01 0.100000000000D+01
0.282355269934D-03 0.000000000000D+00 0.000000000000D+00 0.154516244603D-04 0.000000000000D+00  6 -2 21 25 23 -2 21 4 0.11336987D-01 0.19291737D+00 0.76561537D+05 0.76561537D+05 0.76561537D+05 0.11743795D+01  3  4 12  5  5  2        2 0.327271048024D-01 0.100000000000D+01
-.335703842059D-03 0.000000000000D+00 -.168728551687D-04 0.155048038958D-04 0.000000000000D+00  6 -2 21 25 23 -2 21 4 0.11336987D-01 0.19054906D+00 0.72896126D+05 0.72896126D+05 0.72896126D+05 0.11763987D+01  3  4  5  5  5  2        2 -.407510718197D-01 0.100000000000D+01
  </mgrwgt>
  </event>
  <event>
  5     66 0.42934962E-03 0.72909843E+02 0.75467711E-02 0.11634353E+00
       -2 -1    0    0    0  501 0.00000000E+00 0.00000000E+00 0.47672748E+02 0.47673822E+02 0.32000000E+00 0.0000E+00 0.9000E+01
        2 -1    0    0  502    0 -.00000000E+00 -.00000000E+00 -.15668200E+04 0.15668201E+04 0.32000000E+00 0.0000E+00 0.9000E+01
       25  1    1    2    0    0 -.87478400E+02 -.48240346E+01 -.66778163E+03 0.68500588E+03 0.12500000E+03 0.0000E+00 0.9000E+01
       23  1    1    2    0    0 0.11314020E+02 0.27996096E+02 -.24948107E+02 0.99244384E+02 0.91188000E+02 0.0000E+00 0.9000E+01
       21  1    1    2  502  501 0.76164379E+02 -.23172061E+02 -.82641756E+03 0.83024364E+03 0.75000000E+00 0.0000E+00 0.9000E+01
#aMCatNLO 1  0  0  5  1 0.50856402D+02 0.00000000D+00  -5  6  0 0.00000000D+00 0.00000000D+00 0.00000000D+00 0.00000000D+00 0.00000000D+00
  <mgrwgt>
 0.3013331494D-01   15    2    0
 0.273304793099662D+03 0.000000000000000D+00 0.000000000000000D+00 0.273304793099662D+03
 0.273304793099662D+03 -.000000000000000D+00 -.000000000000000D+00 -.273304793099662D+03
 0.167357319894486D+03 -.874786710703454D+02 -.482395201418198D+01 -.686125652996342D+02
 0.223797603499545D+03 0.113136575179737D+02 0.279962061812086D+02 0.202134434427103D+03
 0.155454662805292D+03 0.761650135523716D+02 -.231722541670266D+02 -.133521869127469D+03
 0.000000000000000D+00 0.000000000000000D+00 -.000000000000000D+00 0.000000000000000D+00
 0.273304793099662D+03 0.000000000000000D+00 0.000000000000000D+00 0.273304793099662D+03
 0.273304793099662D+03 -.000000000000000D+00 -.000000000000000D+00 -.273304793099662D+03
 0.169270720787866D+03 -.807957916478116D+02 -.685713461763630D+01 -.803280565735463D+02
 0.210552184853607D+03 0.199365495886500D+02 0.253727989579019D+02 0.187017983804148D+03
 0.581725052134413D+02 -.209896496555801D+02 0.234485357712623D+02 -.489248519704219D+02
 0.108614175344409D+03 0.818488917147416D+02 -.419642001115279D+02 -.577650752601798D+02
0.127929719430D-03 0.000000000000D+00 0.000000000000D+00 0.114140218651D-05 0.000000000000D+00  6 -2 2 25 23 21 21 2 0.73343540D-02 0.24104932D+00 0.26947747D+05 0.26947747D+05 0.26947747D+05 0.12198197D+01  1  2  2  3  6  5       21 0.261233376470D-01 0.100000000000D+01
-.713251966023D-05 0.675103676861D-05 -.491283807282D-06 0.114140218651D-05 0.000000000000D+00  6 -2 2 25 23 21 21 4 0.73343540D-02 0.24104932D+00 0.26947747D+05 0.26947747D+05 0.26947747D+05 0.12198197D+01  1  2  3  3  6  5       21 -.216716266130D-02 0.100000000000D+01
0.569979739392D-05 0.000000000000D+00 0.000000000000D+00 0.114140218651D-05 0.000000000000D+00  6 -2 2 25 23 21 21 4 0.73343540D-02 0.24104932D+00 0.26947747D+05 0.26947747D+05 0.26947747D+05 0.12198197D+01  1  2 15  3  6  5       21 0.173184073477D-02 0.100000000000D+01
0.182966995345D-04 0.000000000000D+00 0.000000000000D+00 0.112150053929D-05 0.000000000000D+00  6 -2 2 25 23 21 21 4 0.73343540D-02 0.24104932D+00 0.34072676D+05 0.34072676D+05 0.34072676D+05 0.12091385D+01  1  2 12  3  6  5       21 0.535951140364D-02 0.100000000000D+01
-.460751289204D-04 0.000000000000D+00 0.000000000000D+00 0.114140218651D-05 0.000000000000D+00  6 -2 2 25 23 21 21 4 0.73343540D-02 0.24104932D+00 0.26947747D+05 0.26947747D+05 0.26947747D+05 0.12198197D+01  1  2  4  3  6  5       21 -.139995827236D-01 0.100000000000D+01
-.208380258976D-04 0.000000000000D+00 0.000000000000D+00 0.114140218651D-05 0.000000000000D+00  6 -2 2 25 23 21 21 4 0.73343540D-02 0.24104932D+00 0.26947747D+05 0.26947747D+05 0.26947747D+05 0.12198197D+01  1  2  5  3  6  5       21 -.633147804869D-02 0.100000000000D+01
0.642039986963D-04 0.000000000000D+00 -.000000000000D+00 0.114140218651D-05 0.000000000000D+00  6 -2 2 25 23 21 21 4 0.73343540D-02 0.24104932D+00 0.26947747D+05 0.26947747D+05 0.26947747D+05 0.12198197D+01  1  2  6  3  6  5       21 0.195079039819D-01 0.100000000000D+01
0.139070684595D-05 0.000000000000D+00 0.000000000000D+00 0.112150053929D-05 0.000000000000D+00  6 -2 2 25 23 1 -1 4 0.73343540D-02 0.24104932D+00 0.34072676D+05 0.34072676D+05 0.34072676D+05 0.12091385D+01  1  2 12  6  6  5       21 0.407369055054D-03 0.100000000000D+01
0.139070684595D-05 0.000000000000D+00 0.000000000000D+00 0.112150053929D-05 0.000000000000D+00  6 -2 2 25 23 3 -3 4 0.73343540D-02 0.24104932D+00 0.34072676D+05 0.34072676D+05 0.34072676D+05 0.12091385D+01  1  2 12  6  6  5       21 0.407369055054D-03 0.100000000000D+01
-.141564426153D-05 0.000000000000D+00 0.000000000000D+00 0.114140218651D-05 0.000000000000D+00  6 -2 2 25 23 1 -1 4 0.73343540D-02 0.24104932D+00 0.26947747D+05 0.26947747D+05 0.26947747D+05 0.12198197D+01  1  2  5  6  6  5       21 -.430132902737D-03 0.100000000000D+01
-.141564426153D-05 0.000000000000D+00 0.000000000000D+00 0.114140218651D-05 0.000000000000D+00  6 -2 2 25 23 3 -3 4 0.73343540D-02 0.24104932D+00 0.26947747D+05 0.26947747D+05 0.26947747D+05 0.12198197D+01  1  2  5  6  6  5       21 -.430132902737D-03 0.100000000000D+01
0.139070684595D-05 0.000000000000D+00 0.000000000000D+00 0.112150053929D-05 0.000000000000D+00  6 -2 2 25 23 2 -2 4 0.73343540D-02 0.24104932D+00 0.34072676D+05 0.34072676D+05 0.34072676D+05 0.12091385D+01  1  2 12  7  6  5       21 0.407369055054D-03 0.100000000000D+01
-.141564426153D-05 0.000000000000D+00 0.000000000000D+00 0.114140218651D-05 0.000000000000D+00  6 -2 2 25 23 2 -2 4 0.73343540D-02 0.24104932D+00 0.26947747D+05 0.26947747D+05 0.26947747D+05 0.12198197D+01  1  2  5  7  6  5       21 -.430132902737D-03 0.100000000000D+01
0.139070684595D-05 0.000000000000D+00 0.000000000000D+00 0.112150053929D-05 0.000000000000D+00  6 -2 2 25 23 4 -4 4 0.73343540D-02 0.24104932D+00 0.34072676D+05 0.34072676D+05 0.34072676D+05 0.12091385D+01  1  2 12  8  6  5       21 0.407369055054D-03 0.100000000000D+01
-.141564426153D-05 0.000000000000D+00 0.000000000000D+00 0.114140218651D-05 0.000000000000D+00  6 -2 2 25 23 4 -4 4 0.73343540D-02 0.24104932D+00 0.26947747D+05 0.26947747D+05 0.26947747D+05 0.12198197D+01  1  2  5  8  6  5       21 -.430132902737D-03 0.100000000000D+01
  </mgrwgt>
  </event>
  <event>
  5     66 0.42934962E-03 0.31168148E+02 0.75467711E-02 0.12324899E+00
       -2 -1    0    0    0  501 0.00000000E+00 0.00000000E+00 0.65658503E+02 0.65659282E+02 0.32000000E+00 0.0000E+00 0.9000E+01
        2 -1    0    0  502    0 0.00000000E+00 0.00000000E+00 -.24242173E+03 0.24242194E+03 0.32000000E+00 0.0000E+00 0.9000E+01
       25  1    1    2    0    0 0.25971705E+02 -.22915758E+02 -.96454221E+02 0.16164182E+03 0.12500000E+03 0.0000E+00 0.9000E+01
       23  1    1    2    0    0 -.40304653E+01 0.79014521E+00 -.59336667E+02 0.10887130E+03 0.91188000E+02 0.0000E+00 0.9000E+01
       21  1    1    2  502  501 -.21941240E+02 0.22125613E+02 -.20972340E+02 0.37568102E+02 0.75000000E+00 0.0000E+00 0.9000E+01
#aMCatNLO 1  0  0  2  5 0.11676520D+01 0.00000000D+00  -5  6  0 0.00000000D+00 0.00000000D+00 0.00000000D+00 0.00000000D+00 0.00000000D+00
  <mgrwgt>
 0.7420966337D-01   11    4    0
 0.126163388162507D+03 0.000000000000000D+00 0.000000000000000D+00 0.126163388162507D+03
 0.126163388162507D+03 0.000000000000000D+00 0.000000000000000D+00 -.126163388162507D+03
 0.129790281097324D+03 0.259749719546405D+02 -.229190523765129D+02 -.453154912150582D+01
 0.913602277577041D+02 -.402816564151675D+01 0.787826221153784D+00 0.382008944258308D+01
 0.311762674699867D+02 -.219468063131238D+02 0.221312261553591D+02 0.711459678922736D+00
 0.000000000000000D+00 0.000000000000000D+00 -.000000000000000D+00 -.000000000000000D+00
 0.126189070496114D+03 0.000000000000000D+00 0.000000000000000D+00 0.126189070496114D+03
 0.140173441255587D+03 0.000000000000000D+00 0.000000000000000D+00 -.140173441255587D+03
 0.129655858428988D+03 0.253826270623187D+02 -.228216767774077D+02 -.453154912150582D+01
 0.913801909447499D+02 -.444538269410722D+01 0.856412548105402D+00 0.382008944258308D+01
 0.312934286141720D+02 -.220894316975982D+02 0.221546723476718D+02 0.711459678922736D+00
 0.140330337637910D+02 0.115218732938670D+01 -.189408118369493D+00 -.139843707594726D+02
 0.126163388162507D+03 0.000000000000000D+00 0.000000000000000D+00 0.126163388162507D+03
 0.126163388162507D+03 0.000000000000000D+00 0.000000000000000D+00 -.126163388162507D+03
 0.129790281097324D+03 0.259749719546405D+02 -.229190523765129D+02 -.453154912150582D+01
 0.913602277577041D+02 -.402816564151675D+01 0.787826221153784D+00 0.382008944258308D+01
 0.000000000000000D+00 0.000000000000000D+00 -.000000000000000D+00 -.000000000000000D+00
 0.311762674699867D+02 -.219468063131238D+02 0.221312261553591D+02 0.711459678922736D+00
 0.126189070496114D+03 0.000000000000000D+00 0.000000000000000D+00 0.126189070496114D+03
 0.140173441255587D+03 0.000000000000000D+00 0.000000000000000D+00 -.140173441255587D+03
 0.129655858428988D+03 0.253826270623187D+02 -.228216767774077D+02 -.453154912150582D+01
 0.913801909447499D+02 -.444538269410722D+01 0.856412548105402D+00 0.382008944258308D+01
 0.140330337637910D+02 0.115218732938670D+01 -.189408118369493D+00 -.139843707594726D+02
 0.312934286141720D+02 -.220894316975982D+02 0.221546723476718D+02 0.711459678922736D+00
0.201635010301D-05 0.000000000000D+00 0.000000000000D+00 0.163800630422D-04 0.000000000000D+00  6 -2 2 25 23 21 21 2 0.10101384D-01 0.37295727D-01 0.15896119D+05 0.15896119D+05 0.15896119D+05 0.12449599D+01  1  2  2  2  6  2        2 0.265210074282D-02 0.100000000000D+01
0.198056182307D-06 0.106405718268D-06 -.774331531274D-08 0.163800630422D-04 0.000000000000D+00  6 -2 2 25 23 21 21 4 0.10101384D-01 0.37295727D-01 0.15896119D+05 0.15896119D+05 0.15896119D+05 0.12449599D+01  1  2  3  2  6  2        2 0.403759932182D-03 0.100000000000D+01
0.788195953988D-07 0.000000000000D+00 0.000000000000D+00 0.163800630422D-04 0.000000000000D+00  6 -2 2 25 23 21 21 4 0.10101384D-01 0.37295727D-01 0.15896119D+05 0.15896119D+05 0.15896119D+05 0.12449599D+01  1  2 15  2  6  2        2 0.160682661466D-03 0.100000000000D+01
0.525548919699D-07 0.000000000000D+00 0.000000000000D+00 0.163680922101D-04 0.000000000000D+00  6 -2 2 25 23 21 21 4 0.10101384D-01 0.41468452D-01 0.16044015D+05 0.16044015D+05 0.16044015D+05 0.12445049D+01  1  2 12  2  6  2        2 0.956235969993D-04 0.100000000000D+01
-.149353478729D-02 0.000000000000D+00 0.000000000000D+00 0.163800630422D-04 0.000000000000D+00  6 -2 2 25 23 21 21 4 0.10101384D-01 0.37295727D-01 0.15896119D+05 0.15896119D+05 0.15896119D+05 0.12449599D+01  1  2  4  2  6  2        2 -.304473961581D+01 0.100000000000D+01
-.164363084500D-02 0.000000000000D+00 -.623883935420D-05 0.163800630422D-04 0.000000000000D+00  6 -2 2 25 23 21 21 4 0.10101384D-01 0.41441187D-01 0.15896119D+05 0.15896119D+05 0.15896119D+05 0.12449599D+01  1  2  5  2  6  2        2 -.299605629074D+01 0.100000000000D+01
0.163523205878D-02 0.000000000000D+00 0.620434720636D-05 0.163800630422D-04 0.000000000000D+00  6 -2 2 25 23 21 21 4 0.10101384D-01 0.37295727D-01 0.15896119D+05 0.15896119D+05 0.15896119D+05 0.12449599D+01  1  2  6  2  6  2        2 0.333360553285D+01 0.100000000000D+01
0.152752155473D-02 0.000000000000D+00 0.000000000000D+00 0.163800630422D-04 0.470156136321D-04  6 -2 2 25 23 21 21 4 0.10103441D-01 0.41437302D-01 0.16044015D+05 0.16044015D+05 0.16044015D+05 0.12445049D+01  1  2 11  2  6  2        2 0.278064778033D+01 0.100000000000D+01
0.897888532217D-09 0.000000000000D+00 0.000000000000D+00 0.163680922101D-04 0.000000000000D+00  6 -2 21 25 23 -2 21 4 0.10101384D-01 0.41468452D-01 0.16044015D+05 0.16044015D+05 0.16044015D+05 0.12445049D+01  3  4 12  5  5  2        2 0.614863118830D-05 0.100000000000D+01
-.279090389173D-04 0.000000000000D+00 -.106022348393D-06 0.163800630422D-04 0.000000000000D+00  6 -2 21 25 23 -2 21 4 0.10101384D-01 0.41441187D-01 0.15896119D+05 0.15896119D+05 0.15896119D+05 0.12449599D+01  3  4  5  5  5  2        2 -.191631645550D+00 0.100000000000D+01
0.275765469573D-04 0.000000000000D+00 0.000000000000D+00 0.163800630422D-04 0.169741449092D-05  6 -2 21 25 23 -2 21 4 0.10103441D-01 0.41437302D-01 0.16044015D+05 0.16044015D+05 0.16044015D+05 0.12445049D+01  3  4 11  5  5  2        2 0.189065586730D+00 0.100000000000D+01
  </mgrwgt>
  </event>
  <event>
  5     66 0.42934962E-03 0.22781858E+02 0.75467711E-02 0.12271947E+00
       -2 -1    0    0    0  501 0.00000000E+00 0.00000000E+00 0.20778250E+02 0.20780714E+02 0.32000000E+00 0.0000E+00 0.9000E+01
        2 -1    0    0  502    0 -.00000000E+00 -.00000000E+00 -.84249615E+03 0.84249622E+03 0.32000000E+00 0.0000E+00 0.9000E+01
       25  1    1    2    0    0 0.31888632E+02 0.18220212E+02 -.43211517E+03 0.45132846E+03 0.12500000E+03 0.0000E+00 0.9000E+01
       23  1    1    2    0    0 -.54445672E+02 -.15093601E+02 -.27663423E+03 0.29670506E+03 0.91188000E+02 0.0000E+00 0.9000E+01
       21  1    1    2  502  501 0.22557040E+02 -.31266117E+01 -.11296851E+03 0.11524340E+03 0.75000000E+00 0.0000E+00 0.9000E+01
#aMCatNLO 1  0  0  5  2 0.47160144D+00 0.00000000D+00  -5  6  0 0.00000000D+00 0.00000000D+00 0.00000000D+00 0.00000000D+00 0.00000000D+00
  <mgrwgt>
 0.3901274642D+00   15    2    0
 0.132312832511299D+03 0.000000000000000D+00 0.000000000000000D+00 0.132312832511299D+03
 0.132312832511299D+03 -.000000000000000D+00 -.000000000000000D+00 -.132312832511299D+03
 0.130540414921849D+03 0.318836859099783D+02 0.182208980773772D+02 -.819935204855054D+01
 0.108923500533782D+03 -.544497994533105D+02 -.150930287180273D+02 0.188811400117648D+02
 0.251617495669675D+02 0.225661135433322D+02 -.312786935934995D+01 -.106817879632143D+02
 0.000000000000000D+00 0.000000000000000D+00 0.000000000000000D+00 0.000000000000000D+00
 0.132312832511299D+03 0.000000000000000D+00 0.000000000000000D+00 0.132312832511299D+03
 0.132312832511299D+03 -.000000000000000D+00 -.000000000000000D+00 -.132312832511299D+03
 0.130548863164751D+03 0.319168451220970D+02 0.182163019078434D+02 -.821504813517168D+01
 0.108907935497267D+03 -.544221341319062D+02 -.150968633841505D+02 0.188680444870699D+02
 0.161886945774952D+01 0.128059027824464D+01 -.641041428850499D+00 -.754912410148927D+00
 0.235499969028304D+02 0.212246987315647D+02 -.247839709484237D+01 -.989808394174936D+01
0.910228037433D-04 0.000000000000D+00 0.000000000000D+00 0.267944293714D-04 0.000000000000D+00  6 -2 2 25 23 21 21 2 0.31968481D-02 0.12961499D+00 0.16944109D+05 0.16944109D+05 0.16944109D+05 0.12418335D+01  1  2  2  3  6  5       21 0.171250262076D+00 0.100000000000D+01
0.166263249246D-04 0.480340531964D-05 -.349551533229D-06 0.267944293714D-04 0.000000000000D+00  6 -2 2 25 23 21 21 4 0.31968481D-02 0.12961499D+00 0.16944109D+05 0.16944109D+05 0.16944109D+05 0.12418335D+01  1  2  3  3  6  5       21 0.482396397144D-01 0.100000000000D+01
0.299179786900D-05 0.000000000000D+00 0.000000000000D+00 0.267944293714D-04 0.000000000000D+00  6 -2 2 25 23 21 21 4 0.31968481D-02 0.12961499D+00 0.16944109D+05 0.16944109D+05 0.16944109D+05 0.12418335D+01  1  2 15  3  6  5       21 0.868040603999D-02 0.100000000000D+01
-.123617936709D-02 0.000000000000D+00 0.000000000000D+00 0.267944293714D-04 0.000000000000D+00  6 -2 2 25 23 21 21 4 0.31968481D-02 0.12961499D+00 0.16944109D+05 0.16944109D+05 0.16944109D+05 0.12418335D+01  1  2  4  3  6  5       21 -.358665234566D+01 0.100000000000D+01
-.315971520632D-04 0.000000000000D+00 0.000000000000D+00 0.267944293714D-04 0.000000000000D+00  6 -2 2 25 23 21 21 4 0.31968481D-02 0.12961499D+00 0.16944109D+05 0.16944109D+05 0.16944109D+05 0.12418335D+01  1  2  5  3  6  5       21 -.916760161033D-01 0.100000000000D+01
0.128909138978D-02 0.000000000000D+00 -.000000000000D+00 0.267944293714D-04 0.000000000000D+00  6 -2 2 25 23 21 21 4 0.31968481D-02 0.12961499D+00 0.16944109D+05 0.16944109D+05 0.16944109D+05 0.12418335D+01  1  2  6  3  6  5       21 0.374017135380D+01 0.100000000000D+01
0.325310599588D-04 0.000000000000D+00 0.000000000000D+00 0.267944293714D-04 0.983310585485D-03  6 -2 2 25 23 21 21 4 0.31968481D-02 0.12961499D+00 0.16945815D+05 0.16945815D+05 0.16945815D+05 0.12418286D+01  1  2 11  3  6  5       21 0.943844798869D-01 0.100000000000D+01
-.520683241359D-04 0.000000000000D+00 0.000000000000D+00 0.267944293714D-04 0.000000000000D+00  6 -2 2 25 23 1 -1 4 0.31968481D-02 0.12961499D+00 0.16944109D+05 0.16944109D+05 0.16944109D+05 0.12418335D+01  1  2  5  6  6  5       21 -.151071100092D+00 0.100000000000D+01
-.520683241359D-04 0.000000000000D+00 0.000000000000D+00 0.267944293714D-04 0.000000000000D+00  6 -2 2 25 23 3 -3 4 0.31968481D-02 0.12961499D+00 0.16944109D+05 0.16944109D+05 0.16944109D+05 0.12418335D+01  1  2  5  6  6  5       21 -.151071100092D+00 0.100000000000D+01
0.525683189983D-04 0.000000000000D+00 0.000000000000D+00 0.267944293714D-04 0.108772676153D-04  6 -2 2 25 23 1 -1 4 0.31968481D-02 0.12961499D+00 0.16945815D+05 0.16945815D+05 0.16945815D+05 0.12418286D+01  1  2 11  6  6  5       21 0.152519882643D+00 0.100000000000D+01
0.525683189983D-04 0.000000000000D+00 0.000000000000D+00 0.267944293714D-04 0.108772676153D-04  6 -2 2 25 23 3 -3 4 0.31968481D-02 0.12961499D+00 0.16945815D+05 0.16945815D+05 0.16945815D+05 0.12418286D+01  1  2 11  6  6  5       21 0.152519882643D+00 0.100000000000D+01
-.520683241359D-04 0.000000000000D+00 0.000000000000D+00 0.267944293714D-04 0.000000000000D+00  6 -2 2 25 23 2 -2 4 0.31968481D-02 0.12961499D+00 0.16944109D+05 0.16944109D+05 0.16944109D+05 0.12418335D+01  1  2  5  7  6  5       21 -.151071100092D+00 0.100000000000D+01
0.525443917281D-04 0.000000000000D+00 0.000000000000D+00 0.267944293714D-04 0.108954029734D-04  6 -2 2 25 23 2 -2 4 0.31968481D-02 0.12961499D+00 0.16945815D+05 0.16945815D+05 0.16945815D+05 0.12418286D+01  1  2 11  7  6  5       21 0.152450460898D+00 0.100000000000D+01
-.520683241359D-04 0.000000000000D+00 0.000000000000D+00 0.267944293714D-04 0.000000000000D+00  6 -2 2 25 23 4 -4 4 0.31968481D-02 0.12961499D+00 0.16944109D+05 0.16944109D+05 0.16944109D+05 0.12418335D+01  1  2  5  8  6  5       21 -.151071100092D+00 0.100000000000D+01
0.525696893723D-04 0.000000000000D+00 0.000000000000D+00 0.267944293714D-04 0.108775511687D-04  6 -2 2 25 23 4 -4 4 0.31968481D-02 0.12961499D+00 0.16945815D+05 0.16945815D+05 0.16945815D+05 0.12418286D+01  1  2 11  8  6  5       21 0.152523858599D+00 0.100000000000D+01
  </mgrwgt>
  </event>
  <event>
  5     66 0.42934962E-03 0.60484410E+02 0.75467711E-02 0.10583305E+00
       -2 -1    0    0    0  501 0.00000000E+00 0.00000000E+00 0.39217188E+02 0.39218493E+02 0.32000000E+00 0.0000E+00 0.9000E+01
        2 -1    0    0  502    0 0.00000000E+00 0.00000000E+00 -.18043688E+04 0.18043688E+04 0.32000000E+00 0.0000E+00 0.9000E+01
       25  1    1    2    0    0 0.11513407E+03 0.15135689E+03 -.84629996E+03 0.87636373E+03 0.12500000E+03 0.0000E+00 0.9000E+01
       23  1    1    2    0    0 -.54855524E+02 -.15632272E+03 -.37465345E+03 0.41967413E+03 0.91188000E+02 0.0000E+00 0.9000E+01
       21  1    1    2  502  501 -.60278541E+02 0.49658256E+01 -.54419823E+03 0.54754948E+03 0.75000000E+00 0.0000E+00 0.9000E+01
#aMCatNLO 1  0  0  1  5 0.35160032D+02 0.00000000D+00  -5  6  0 0.00000000D+00 0.00000000D+00 0.00000000D+00 0.00000000D+00 0.00000000D+00
  <mgrwgt>
 0.8998033723D-01    3    2    0
 0.266014097282711D+03 0.000000000000000D+00 0.000000000000000D+00 0.266014097282711D+03
 0.266014097282711D+03 0.000000000000000D+00 0.000000000000000D+00 -.266014097282711D+03
 0.228945515061861D+03 0.115134930598384D+03 0.151356822281822D+03 -.250221696060750D+02
 0.211240511339268D+03 -.548547262539964D+02 -.156322784877211D+03 0.941352655634850D+02
 0.918421681642920D+02 -.602802043443876D+02 0.496596259538944D+01 -.691130959574100D+02
 0.000000000000000D+00 0.000000000000000D+00 -.000000000000000D+00 -.000000000000000D+00
 0.347750191117079D+03 0.000000000000000D+00 0.000000000000000D+00 0.347750191117079D+03
 0.455808209799783D+03 0.000000000000000D+00 0.000000000000000D+00 -.455808209799783D+03
 0.296296712978836D+03 0.992928115005849D+02 0.248357747482491D+03 -.250221696060750D+02
 0.170165886403993D+03 -.663585339357411D+02 -.858852391441512D+02 0.941352655634850D+02
 0.104176427630379D+03 -.661924287889955D+02 0.411663747738746D+02 -.691130959574100D+02
 0.232919373903655D+03 0.332581512241517D+02 -.203638883112215D+03 -.108058018682704D+03
0.415162655740D-03 0.000000000000D+00 0.000000000000D+00 0.226380239481D-05 0.000000000000D+00  6 -2 2 25 23 21 21 2 0.60335161D-02 0.27759531D+00 0.56921493D+05 0.56921493D+05 0.56921493D+05 0.11867453D+01  1  2  2  1  6  1       -2 0.809995348558D-01 0.100000000000D+01
0.235258170944D-04 0.219087352519D-04 -.159433391288D-05 0.226380239481D-05 0.000000000000D+00  6 -2 2 25 23 21 21 4 0.60335161D-02 0.27759531D+00 0.56921493D+05 0.56921493D+05 0.56921493D+05 0.11867453D+01  1  2  3  1  6  1       -2 0.646433770385D-02 0.100000000000D+01
0.915822941015D-05 0.000000000000D+00 0.000000000000D+00 0.226380239481D-05 0.000000000000D+00  6 -2 2 25 23 21 21 4 0.60335161D-02 0.27759531D+00 0.56921493D+05 0.56921493D+05 0.56921493D+05 0.11867453D+01  1  2 15  1  6  1       -2 0.251646467534D-02 0.100000000000D+01
  </mgrwgt>
  </event>
  <event>
  5     66 0.42934962E-03 0.61934849E+02 0.75467711E-02 0.11750089E+00
       -2 -1    0    0    0  501 0.00000000E+00 0.00000000E+00 0.62653379E+01 0.62735045E+01 0.32000000E+00 0.0000E+00 0.9000E+01
        2 -1    0    0  502    0 0.00000000E+00 0.00000000E+00 -.36626675E+04 0.36626676E+04 0.32000000E+00 0.0000E+00 0.9000E+01
       25  1    1    2    0    0 0.45884655E+02 -.26412572E+02 -.15492012E+04 0.15551375E+04 0.12500000E+03 0.0000E+00 0.9000E+01
       23  1    1    2    0    0 0.18000925E+01 -.13106574E+02 -.82943742E+03 0.83453982E+03 0.91188000E+02 0.0000E+00 0.9000E+01
       21  1    1    2  502  501 -.47684748E+02 0.39519145E+02 -.12777635E+04 0.12792638E+04 0.75000000E+00 0.0000E+00 0.9000E+01
#aMCatNLO 1  0  0  2  5 0.52384143D+02 0.00000000D+00  -5  6  0 0.00000000D+00 0.00000000D+00 0.00000000D+00 0.00000000D+00 0.00000000D+00
  <mgrwgt>
 0.4461316595D-01    4    2    0
 0.151535001493434D+03 0.000000000000000D+00 0.000000000000000D+00 0.151535001493434D+03
 0.151535001493434D+03 0.000000000000000D+00 0.000000000000000D+00 -.151535001493434D+03
 0.135958799361917D+03 0.458858478866280D+02 -.264135600590960D+02 0.752382433765519D+01
 0.960856567281917D+02 0.180093537021853D+01 -.131072722782039D+02 0.272425793585192D+02
 0.710255468967596D+02 -.476867832568465D+02 0.395208323372999D+02 -.347664036961744D+02
 0.000000000000000D+00 -.000000000000000D+00 0.000000000000000D+00 0.000000000000000D+00
 0.212803138409244D+03 0.000000000000000D+00 0.000000000000000D+00 0.212803138409244D+03
 0.165405284595906D+03 0.000000000000000D+00 0.000000000000000D+00 -.165405284595906D+03
 0.146212694615744D+03 0.700301131109216D+02 -.281483106385518D+02 0.752382433765519D+01
 0.979832332791012D+02 0.184066196867615D+02 -.143003804644658D+02 0.272425793585192D+02
 0.633679274363523D+02 -.361872811527472D+02 0.386946001967390D+02 -.347664036961744D+02
 0.706445676739524D+02 -.522494516449359D+02 0.375409090627870D+01 0.473978538133379D+02
0.250390824729D-03 0.000000000000D+00 0.000000000000D+00 0.439929440890D-05 0.000000000000D+00  6 -2 2 25 23 21 21 2 0.96452741D-03 0.56348794D+00 0.21000083D+05 0.21000083D+05 0.21000083D+05 0.12314999D+01  1  2  2  2  6  2        2 0.690940894613D-01 0.100000000000D+01
-.726981179705D-05 0.132134868410D-04 -.961566696377D-06 0.439929440890D-05 0.000000000000D+00  6 -2 2 25 23 21 21 4 0.96452741D-03 0.56348794D+00 0.21000083D+05 0.21000083D+05 0.21000083D+05 0.12314999D+01  1  2  3  2  6  2        2 -.304238672345D-02 0.100000000000D+01
0.114168932850D-04 0.000000000000D+00 0.000000000000D+00 0.439929440890D-05 0.000000000000D+00  6 -2 2 25 23 21 21 4 0.96452741D-03 0.56348794D+00 0.21000083D+05 0.21000083D+05 0.21000083D+05 0.12314999D+01  1  2 15  2  6  2        2 0.477792349005D-02 0.100000000000D+01
-.626444793378D-04 0.000000000000D+00 0.000000000000D+00 0.439929440890D-05 0.000000000000D+00  6 -2 2 25 23 21 21 4 0.96452741D-03 0.56348794D+00 0.21000083D+05 0.21000083D+05 0.21000083D+05 0.12314999D+01  1  2  4  2  6  2        2 -.262164602819D-01 0.100000000000D+01
  </mgrwgt>
  </event>
  <event>
  5     66 0.42934962E-03 0.60711848E+02 0.75467711E-02 0.11744962E+00
       -2 -1    0    0    0  501 0.00000000E+00 0.00000000E+00 0.82209800E+02 0.82210423E+02 0.32000000E+00 0.0000E+00 0.9000E+01
        2 -1    0    0  502    0 0.00000000E+00 0.00000000E+00 -.27678179E+03 0.27678197E+03 0.32000000E+00 0.0000E+00 0.9000E+01
       25  1    1    2    0    0 0.56631475E+02 -.62945212E+01 -.80232310E+02 0.15908793E+03 0.12500000E+03 0.0000E+00 0.9000E+01
       23  1    1    2    0    0 -.25025702E+01 -.21194377E+02 -.34952040E+02 0.99961797E+02 0.91188000E+02 0.0000E+00 0.9000E+01
       21  1    1    2  502  501 -.54128905E+02 0.27488898E+02 -.79387636E+02 0.99942669E+02 0.75000000E+00 0.0000E+00 0.9000E+01
#aMCatNLO 1  0  0  1  1 0.49680265D+02 0.00000000D+00  -5  6  0 0.00000000D+00 0.00000000D+00 0.00000000D+00 0.00000000D+00 0.00000000D+00
  <mgrwgt>
 0.2789916489D-01    7    4    0
 0.150845352147343D+03 0.000000000000000D+00 0.000000000000000D+00 0.150845352147343D+03
 0.150845352147343D+03 0.000000000000000D+00 0.000000000000000D+00 -.150845352147343D+03
 0.137560113829703D+03 0.566329889877080D+02 -.629528979699596D+01 0.713153570634651D+01
 0.964063730514867D+02 -.250150941708976D+01 -.211949156981634D+02 0.228791481512399D+02
 0.677242174134951D+02 -.541314795706183D+02 0.274902054951594D+02 -.300106838575864D+02
 0.000000000000000D+00 0.000000000000000D+00 -.000000000000000D+00 0.000000000000000D+00
 0.185494527640835D+03 0.000000000000000D+00 0.000000000000000D+00 0.185494527640835D+03
 0.171794069356267D+03 0.000000000000000D+00 0.000000000000000D+00 -.171794069356267D+03
 0.130039014472323D+03 0.347940504132954D+02 -.486421003239777D+01 0.713153570634651D+01
 0.978875906605495D+02 -.183579659227972D+02 -.201558608940011D+02 0.228791481512399D+02
 0.778272334741645D+02 -.660100279632147D+02 0.282685926946802D+02 -.300106838575864D+02
 0.515347583900641D+02 0.495739434727166D+02 -.324852176828135D+01 0.137004582845680D+02
 0.150845352147343D+03 0.000000000000000D+00 0.000000000000000D+00 0.150845352147343D+03
 0.150845352147343D+03 0.000000000000000D+00 0.000000000000000D+00 -.150845352147343D+03
 0.137560113829703D+03 0.566329889877080D+02 -.629528979699596D+01 0.713153570634651D+01
 0.964063730514867D+02 -.250150941708976D+01 -.211949156981634D+02 0.228791481512399D+02
 0.000000000000000D+00 0.000000000000000D+00 -.000000000000000D+00 0.000000000000000D+00
 0.677242174134951D+02 -.541314795706183D+02 0.274902054951594D+02 -.300106838575864D+02
 0.185494527640835D+03 0.000000000000000D+00 0.000000000000000D+00 0.185494527640835D+03
 0.171794069356267D+03 0.000000000000000D+00 0.000000000000000D+00 -.171794069356267D+03
 0.130039014472323D+03 0.347940504132954D+02 -.486421003239777D+01 0.713153570634651D+01
 0.978875906605495D+02 -.183579659227972D+02 -.201558608940011D+02 0.228791481512399D+02
 0.515347583900641D+02 0.495739434727166D+02 -.324852176828135D+01 0.137004582845680D+02
 0.778272334741645D+02 -.660100279632147D+02 0.282685926946802D+02 -.300106838575864D+02
0.288123815313D-04 0.000000000000D+00 0.000000000000D+00 0.442299656035D-05 0.000000000000D+00  6 -2 2 25 23 21 21 2 0.12647724D-01 0.42581875D-01 0.21277936D+05 0.21277936D+05 0.21277936D+05 0.12308756D+01  1  2  2  1  6  1       -2 0.227313083189D-01 0.100000000000D+01
-.683775967052D-06 0.152047114599D-05 -.110647131555D-06 0.442299656035D-05 0.000000000000D+00  6 -2 2 25 23 21 21 4 0.12647724D-01 0.42581875D-01 0.21277936D+05 0.21277936D+05 0.21277936D+05 0.12308756D+01  1  2  3  1  6  1       -2 -.817311157850D-03 0.100000000000D+01
0.100453990788D-05 0.000000000000D+00 0.000000000000D+00 0.442299656035D-05 0.000000000000D+00  6 -2 2 25 23 21 21 4 0.12647724D-01 0.42581875D-01 0.21277936D+05 0.21277936D+05 0.21277936D+05 0.12308756D+01  1  2 15  1  6  1       -2 0.120071736179D-02 0.100000000000D+01
-.926792071977D-05 0.000000000000D+00 0.000000000000D+00 0.442299656035D-05 0.000000000000D+00  6 -2 2 25 23 21 21 4 0.12647724D-01 0.42581875D-01 0.21277936D+05 0.21277936D+05 0.21277936D+05 0.12308756D+01  1  2  4  1  6  1       -2 -.110778608482D-01 0.100000000000D+01
-.554957888165D-04 0.000000000000D+00 -.207053474045D-04 0.442299656035D-05 0.000000000000D+00  6 -2 2 25 23 21 21 4 0.17631451D-01 0.42581875D-01 0.21277936D+05 0.21277936D+05 0.21277936D+05 0.12308756D+01  1  2  5  1  6  1       -2 -.385155841011D-01 0.100000000000D+01
0.601185002848D-04 0.000000000000D+00 0.196130919044D-04 0.442299656035D-05 0.000000000000D+00  6 -2 2 25 23 21 21 4 0.12647724D-01 0.42581875D-01 0.21277936D+05 0.21277936D+05 0.21277936D+05 0.12308756D+01  1  2  6  1  6  1       -2 0.718590933925D-01 0.100000000000D+01
-.176666881442D-05 0.000000000000D+00 -.861431762286D-06 0.442299656035D-05 0.000000000000D+00  6 21 2 25 23 2 21 4 0.17631451D-01 0.42581875D-01 0.21277936D+05 0.21277936D+05 0.21277936D+05 0.12308756D+01  3  4  5  4  5  1       -2 -.174811980742D-01 0.100000000000D+01
  </mgrwgt>
  </event>
  <event>
  5     66 0.42934962E-03 0.94311537E+02 0.75467711E-02 0.11645456E+00
       -2 -1    0    0    0  501 0.00000000E+00 0.00000000E+00 0.51222880E+02 0.51223879E+02 0.32000000E+00 0.0000E+00 0.9000E+01
        2 -1    0    0  502    0 -.00000000E+00 -.00000000E+00 -.12307993E+04 0.12307994E+04 0.32000000E+00 0.0000E+00 0.9000E+01
       25  1    1    2    0    0 -.88219316E+02 -.65793150E+02 -.64840848E+03 0.66945496E+03 0.12500000E+03 0.0000E+00 0.9000E+01
       23  1    1    2    0    0 -.12095945E+02 0.30603708E+02 -.48848030E+03 0.49800718E+03 0.91188000E+02 0.0000E+00 0.9000E+01
       21  1    1    2  502  501 0.10031526E+03 0.35189442E+02 -.42687673E+02 0.11456111E+03 0.75000000E+00 0.0000E+00 0.9000E+01
#aMCatNLO 1  0  0  5  2 0.45959281D+02 0.00000000D+00  -5  6  0 0.00000000D+00 0.00000000D+00 0.00000000D+00 0.00000000D+00 0.00000000D+00
  <mgrwgt>
 0.1189062823D-01   15    2    0
 0.251089134831348D+03 0.000000000000000D+00 0.000000000000000D+00 0.251089134831348D+03
 0.251089134831348D+03 -.000000000000000D+00 -.000000000000000D+00 -.251089134831348D+03
 0.186008918673404D+03 -.882195993321257D+02 -.657932488732884D+02 -.828424318958935D+02
 0.123973950099589D+03 -.120961331181142D+02 0.306036413761805D+02 -.772747672749797D+02
 0.192195400889703D+03 0.100315732450240D+03 0.351896074971079D+02 0.160117199170873D+03
 0.000000000000000D+00 0.000000000000000D+00 0.000000000000000D+00 0.000000000000000D+00
 0.251089134831348D+03 0.000000000000000D+00 0.000000000000000D+00 0.251089134831348D+03
 0.251089134831348D+03 -.000000000000000D+00 -.000000000000000D+00 -.251089134831348D+03
 0.178265866998349D+03 -.821508836932249D+02 -.636644130852388D+02 -.731559577314620D+02
 0.120067592642009D+03 -.803046954426485D+01 0.320298294912901D+02 -.707854295777376D+02
 0.147461300623480D+03 0.505301444426325D+02 -.805230060438689D+01 0.138299313588866D+03
 0.563835093988582D+02 0.396512087948572D+02 0.396868841983356D+02 0.564207372033365D+01
0.372379928544D-04 0.000000000000D+00 0.000000000000D+00 0.232581936169D-05 0.000000000000D+00  6 -2 2 25 23 21 21 2 0.78805231D-02 0.18935382D+00 0.34187171D+05 0.34187171D+05 0.34187171D+05 0.12089879D+01  1  2  2  3  6  5       21 0.101121781528D-01 0.100000000000D+01
-.201770692366D-05 0.196510287108D-05 -.143003697549D-06 0.232581936169D-05 0.000000000000D+00  6 -2 2 25 23 21 21 4 0.78805231D-02 0.18935382D+00 0.34187171D+05 0.34187171D+05 0.34187171D+05 0.12089879D+01  1  2  3  3  6  5       21 -.800867013724D-03 0.100000000000D+01
0.147551871876D-05 0.000000000000D+00 0.000000000000D+00 0.232581936169D-05 0.000000000000D+00  6 -2 2 25 23 21 21 4 0.78805231D-02 0.18935382D+00 0.34187171D+05 0.34187171D+05 0.34187171D+05 0.12089879D+01  1  2 15  3  6  5       21 0.585661998841D-03 0.100000000000D+01
0.299085673482D-04 0.000000000000D+00 0.000000000000D+00 0.232861917542D-05 0.000000000000D+00  6 -2 2 25 23 21 21 4 0.78805231D-02 0.18935382D+00 0.33638230D+05 0.33638230D+05 0.33638230D+05 0.12097153D+01  1  2 12  3  6  5       21 0.118996255862D-01 0.100000000000D+01
-.379848267827D-04 0.000000000000D+00 0.000000000000D+00 0.232581936169D-05 0.000000000000D+00  6 -2 2 25 23 21 21 4 0.78805231D-02 0.18935382D+00 0.34187171D+05 0.34187171D+05 0.34187171D+05 0.12089879D+01  1  2  4  3  6  5       21 -.150769145090D-01 0.100000000000D+01
-.480447117187D-04 0.000000000000D+00 0.000000000000D+00 0.232581936169D-05 0.000000000000D+00  6 -2 2 25 23 21 21 4 0.78805231D-02 0.18935382D+00 0.34187171D+05 0.34187171D+05 0.34187171D+05 0.12089879D+01  1  2  5  3  6  5       21 -.190698779631D-01 0.100000000000D+01
0.620153359945D-04 0.000000000000D+00 -.000000000000D+00 0.232581936169D-05 0.000000000000D+00  6 -2 2 25 23 21 21 4 0.78805231D-02 0.18935382D+00 0.34187171D+05 0.34187171D+05 0.34187171D+05 0.12089879D+01  1  2  6  3  6  5       21 0.246150897143D-01 0.100000000000D+01
0.509347903223D-06 0.000000000000D+00 0.000000000000D+00 0.232861917542D-05 0.000000000000D+00  6 -2 2 25 23 1 -1 4 0.78805231D-02 0.18935382D+00 0.33638230D+05 0.33638230D+05 0.33638230D+05 0.12097153D+01  1  2 12  6  6  5       21 0.202652613578D-03 0.100000000000D+01
0.509347903223D-06 0.000000000000D+00 0.000000000000D+00 0.232861917542D-05 0.000000000000D+00  6 -2 2 25 23 3 -3 4 0.78805231D-02 0.18935382D+00 0.33638230D+05 0.33638230D+05 0.33638230D+05 0.12097153D+01  1  2 12  6  6  5       21 0.202652613578D-03 0.100000000000D+01
-.746296478740D-06 0.000000000000D+00 0.000000000000D+00 0.232581936169D-05 0.000000000000D+00  6 -2 2 25 23 1 -1 4 0.78805231D-02 0.18935382D+00 0.34187171D+05 0.34187171D+05 0.34187171D+05 0.12089879D+01  1  2  5  6  6  5       21 -.296219547682D-03 0.100000000000D+01
-.746296478740D-06 0.000000000000D+00 0.000000000000D+00 0.232581936169D-05 0.000000000000D+00  6 -2 2 25 23 3 -3 4 0.78805231D-02 0.18935382D+00 0.34187171D+05 0.34187171D+05 0.34187171D+05 0.12089879D+01  1  2  5  6  6  5       21 -.296219547682D-03 0.100000000000D+01
0.509347903223D-06 0.000000000000D+00 0.000000000000D+00 0.232861917542D-05 0.000000000000D+00  6 -2 2 25 23 2 -2 4 0.78805231D-02 0.18935382D+00 0.33638230D+05 0.33638230D+05 0.33638230D+05 0.12097153D+01  1  2 12  7  6  5       21 0.202652613578D-03 0.100000000000D+01
-.746296478740D-06 0.000000000000D+00 0.000000000000D+00 0.232581936169D-05 0.000000000000D+00  6 -2 2 25 23 2 -2 4 0.78805231D-02 0.18935382D+00 0.34187171D+05 0.34187171D+05 0.34187171D+05 0.12089879D+01  1  2  5  7  6  5       21 -.296219547682D-03 0.100000000000D+01
0.509347903223D-06 0.000000000000D+00 0.000000000000D+00 0.232861917542D-05 0.000000000000D+00  6 -2 2 25 23 4 -4 4 0.78805231D-02 0.18935382D+00 0.33638230D+05 0.33638230D+05 0.33638230D+05 0.12097153D+01  1  2 12  8  6  5       21 0.202652613578D-03 0.100000000000D+01
-.746296478740D-06 0.000000000000D+00 0.000000000000D+00 0.232581936169D-05 0.000000000000D+00  6 -2 2 25 23 4 -4 4 0.78805231D-02 0.18935382D+00 0.34187171D+05 0.34187171D+05 0.34187171D+05 0.12089879D+01  1  2  5  8  6  5       21 -.296219547682D-03 0.100000000000D+01
  </mgrwgt>
  </event>
  <event>
  5     66 0.42934962E-03 0.93506708E+02 0.75467711E-02 0.11219883E+00
       -2 -1    0    0    0  501 0.00000000E+00 0.00000000E+00 0.32186906E+02 0.32188497E+02 0.32000000E+00 0.0000E+00 0.9000E+01
        2 -1    0    0  502    0 -.00000000E+00 -.00000000E+00 -.20893536E+04 0.20893537E+04 0.32000000E+00 0.0000E+00 0.9000E+01
       25  1    1    2    0    0 0.22299576E+02 -.66951150E+02 -.39531731E+03 0.42057163E+03 0.12500000E+03 0.0000E+00 0.9000E+01
       23  1    1    2    0    0 -.10675188E+03 0.10709086E+03 -.42004750E+03 0.45565290E+03 0.91188000E+02 0.0000E+00 0.9000E+01
       21  1    1    2  502  501 0.84452299E+02 -.40139713E+02 -.12418019E+04 0.12453176E+04 0.75000000E+00 0.0000E+00 0.9000E+01
#aMCatNLO 1  0  0  5  1 0.60148539D+02 0.00000000D+00  -5  6  0 0.00000000D+00 0.00000000D+00 0.00000000D+00 0.00000000D+00 0.00000000D+00
  <mgrwgt>
 0.2303058428D-01    8    2    0
 0.259329023462850D+03 0.000000000000000D+00 0.000000000000000D+00 0.259329023462850D+03
 0.259329023462850D+03 -.000000000000000D+00 -.000000000000000D+00 -.259329023462850D+03
 0.152367961627023D+03 0.222993301999152D+02 -.669510331771328D+02 0.511008293428160D+02
 0.197778402512259D+03 -.106752194365663D+03 0.107091014561229D+03 0.890871974790068D+02
 0.168511682786417D+03 0.844528641657480D+02 -.401399813840962D+02 -.140188026821823D+03
 0.000000000000000D+00 0.000000000000000D+00 0.000000000000000D+00 0.000000000000000D+00
 0.259329023462850D+03 0.000000000000000D+00 0.000000000000000D+00 0.259329023462850D+03
 0.259329023462850D+03 -.000000000000000D+00 -.000000000000000D+00 -.259329023462850D+03
 0.152078326448665D+03 0.361209798319775D+02 -.735203871523825D+02 0.281575010320251D+02
 0.173079699925361D+03 -.899154945737119D+02 0.990886238442942D+02 0.611390189851113D+02
 0.610809973583904D+02 0.141493747896658D+01 0.609451444608950D+02 -.381779476490774D+01
 0.132419023193282D+03 0.523795772627679D+02 -.865133811528067D+02 -.854787252522287D+02
0.946025173495D-04 0.000000000000D+00 0.000000000000D+00 0.167455969081D-05 0.000000000000D+00  6 -2 2 25 23 21 21 2 0.49519559D-02 0.32143915D+00 0.42772035D+05 0.42772035D+05 0.42772035D+05 0.11990563D+01  1  2  2  3  6  5       21 0.181435287022D-01 0.100000000000D+01
-.286780838471D-05 0.499231199656D-05 -.363298576037D-06 0.167455969081D-05 0.000000000000D+00  6 -2 2 25 23 21 21 4 0.49519559D-02 0.32143915D+00 0.42772035D+05 0.42772035D+05 0.42772035D+05 0.11990563D+01  1  2  3  3  6  5       21 -.790766710273D-03 0.100000000000D+01
0.320611320607D-05 0.000000000000D+00 0.000000000000D+00 0.167455969081D-05 0.000000000000D+00  6 -2 2 25 23 21 21 4 0.49519559D-02 0.32143915D+00 0.42772035D+05 0.42772035D+05 0.42772035D+05 0.11990563D+01  1  2 15  3  6  5       21 0.884050554509D-03 0.100000000000D+01
0.136678478754D-04 0.000000000000D+00 0.000000000000D+00 0.164217580488D-05 0.000000000000D+00  6 -2 2 25 23 21 21 4 0.49519559D-02 0.32143915D+00 0.56042643D+05 0.56042643D+05 0.56042643D+05 0.11874056D+01  1  2 12  3  6  5       21 0.361143643924D-02 0.100000000000D+01
0.111866698845D-05 0.000000000000D+00 0.000000000000D+00 0.164217580488D-05 0.000000000000D+00  6 -2 2 25 23 1 -1 4 0.49519559D-02 0.32143915D+00 0.56042643D+05 0.56042643D+05 0.56042643D+05 0.11874056D+01  1  2 12  6  6  5       21 0.295583822875D-03 0.100000000000D+01
0.111866698845D-05 0.000000000000D+00 0.000000000000D+00 0.164217580488D-05 0.000000000000D+00  6 -2 2 25 23 3 -3 4 0.49519559D-02 0.32143915D+00 0.56042643D+05 0.56042643D+05 0.56042643D+05 0.11874056D+01  1  2 12  6  6  5       21 0.295583822875D-03 0.100000000000D+01
0.111866698845D-05 0.000000000000D+00 0.000000000000D+00 0.164217580488D-05 0.000000000000D+00  6 -2 2 25 23 2 -2 4 0.49519559D-02 0.32143915D+00 0.56042643D+05 0.56042643D+05 0.56042643D+05 0.11874056D+01  1  2 12  7  6  5       21 0.295583822875D-03 0.100000000000D+01
0.111866698845D-05 0.000000000000D+00 0.000000000000D+00 0.164217580488D-05 0.000000000000D+00  6 -2 2 25 23 4 -4 4 0.49519559D-02 0.32143915D+00 0.56042643D+05 0.56042643D+05 0.56042643D+05 0.11874056D+01  1  2 12  8  6  5       21 0.295583822875D-03 0.100000000000D+01
  </mgrwgt>
  </event>
  <event>
  6     66 0.42934962E-03 0.22183084E+02 0.75467711E-02 0.11609087E+00
       -2 -1    0    0    0  503 0.00000000E+00 0.00000000E+00 0.18855352E+02 0.18858068E+02 0.32000000E+00 0.0000E+00 0.9000E+01
        2 -1    0    0  502    0 0.00000000E+00 0.00000000E+00 -.19150074E+04 0.19150074E+04 0.32000000E+00 0.0000E+00 0.9000E+01
       25  1    1    2    0    0 -.37642410E+02 0.13847441E+03 -.95396433E+03 0.97276156E+03 0.12500000E+03 0.0000E+00 0.9000E+01
       23  1    1    2    0    0 0.52845944E+02 -.11949699E+03 -.87134682E+03 0.88579498E+03 0.91188000E+02 0.0000E+00 0.9000E+01
       21  1    1    2  502  501 0.15546132E+00 -.17056855E+01 -.10950697E+02 0.11109176E+02 0.75000000E+00 0.0000E+00 0.9000E+01
       21  1    1    2  501  503 -.15358995E+02 -.17271741E+02 -.59890186E+02 0.64199756E+02 0.75000000E+00 0.0000E+00 0.9000E+01
#aMCatNLO 2  0  0  1  1 0.66307702D+00 0.00000000D+00  -5  6  0 0.00000000D+00 0.00000000D+00 0.00000000D+00 0.00000000D+00 0.00000000D+00
  <mgrwgt>
 0.1494934119D-01    1    2    0
 0.175540690877904D+03 0.000000000000000D+00 0.000000000000000D+00 0.175540690877904D+03
 0.175540690877904D+03 0.000000000000000D+00 0.000000000000000D+00 -.175540690877904D+03
 0.185759244678585D+03 -.458646952588374D+02 0.129309847257449D+03 0.754255358797290D+01
 0.163359942243486D+03 0.457874094705526D+02 -.127362701794454D+03 -.731264052090798D+01
 0.196219483373636D+01 0.772857882847829D-01 -.194714546299545D+01 -.229913067064928D+00
 0.000000000000000D+00 -.000000000000000D+00 -.000000000000000D+00 0.000000000000000D+00
 0.198611651946111D+03 0.000000000000000D+00 0.000000000000000D+00 0.198611651946111D+03
 0.181806415641190D+03 0.000000000000000D+00 0.000000000000000D+00 -.181806415641190D+03
 0.190516389769313D+03 -.376430012950787D+02 0.138555436954325D+03 0.754255358797290D+01
 0.159450946425371D+03 0.528408886008146D+02 -.119430811570695D+03 -.731264052090798D+01
 0.187403203071838D+01 0.161108072715650D+00 -.185288429823808D+01 -.229913067064928D+00
 0.285766993618990D+02 -.153589953784515D+02 -.172717410853921D+02 0.168052363049211D+02
0.191709323802D-04 0.000000000000D+00 0.000000000000D+00 0.257289011250D-02 0.398135266408D-04  6 -2 2 25 23 21 21 4 0.29009573D-02 0.29460891D+00 0.35085616D+05 0.35085616D+05 0.35085616D+05 0.12078249D+01  1  2  1  1  6  1       -2 0.149493411863D-01 0.100000000000D+01
  </mgrwgt>
  </event>
  <event>
  5     66 0.42934962E-03 0.32664279E+02 0.75467711E-02 0.11873166E+00
       -2 -1    0    0    0  501 0.00000000E+00 0.00000000E+00 0.43326218E+03 0.43326230E+03 0.32000000E+00 0.0000E+00 0.9000E+01
        2 -1    0    0  502    0 0.00000000E+00 0.00000000E+00 -.36525841E+03 0.36525855E+03 0.32000000E+00 0.0000E+00 0.9000E+01
       25  1    1    2    0    0 0.72323345E+01 0.89008214E+02 0.25731768E+03 0.29968676E+03 0.12500000E+03 0.0000E+00 0.9000E+01
       23  1    1    2    0    0 -.39647556E+02 -.93033831E+02 0.12379102E+03 0.18402905E+03 0.91188000E+02 0.0000E+00 0.9000E+01
       21  1    1    2  502  501 0.32415222E+02 0.40256179E+01 -.31310492E+03 0.31480503E+03 0.75000000E+00 0.0000E+00 0.9000E+01
#aMCatNLO 1  0  0  5  2 0.24590507D+02 0.00000000D+00  -5  6  0 0.00000000D+00 0.00000000D+00 0.00000000D+00 0.00000000D+00 0.00000000D+00
  <mgrwgt>
 0.1649648819D-01    1    2    0
 0.397809949709179D+03 0.000000000000000D+00 0.000000000000000D+00 0.397809949709179D+03
 0.397809949709179D+03 -.000000000000000D+00 -.000000000000000D+00 -.397809949709179D+03
 0.278786064655260D+03 0.723230726371323D+01 0.890082102029774D+02 0.232641144456592D+03
 0.174119411004711D+03 -.396475730329148D+02 -.930338335495022D+02 0.108513103873729D+03
 0.342714423758386D+03 0.324152657692013D+02 0.402562334652478D+01 -.341154248330321D+03
 0.000000000000000D+00 0.000000000000000D+00 0.000000000000000D+00 0.000000000000000D+00
 0.397809949709179D+03 0.000000000000000D+00 0.000000000000000D+00 0.397809949709179D+03
 0.397809949709179D+03 -.000000000000000D+00 -.000000000000000D+00 -.397809949709179D+03
 0.237297457577629D+03 0.122068504667559D+02 0.896259943482331D+02 0.180286597703710D+03
 0.154529149690061D+03 -.364797205567876D+02 -.926404207366305D+02 0.751730616229771D+02
 0.326407142560003D+03 -.620700001653121D+01 0.107183122811776D+02 -.326172061413641D+03
 0.773861495906654D+02 0.304798701065626D+02 -.770388589278025D+01 0.707124020869531D+02
0.389584534611D-03 0.000000000000D+00 0.000000000000D+00 0.359167741713D-04 0.000000000000D+00  6 -2 2 25 23 21 21 4 0.66655740D-01 0.56193621D-01 0.25994661D+05 0.25994661D+05 0.25994661D+05 0.12214852D+01  1  2 14  3  6  5       21 0.164964881923D-01 0.100000000000D+01
  </mgrwgt>
  </event>
  <event>
  5     66 0.42934962E-03 0.54756096E+02 0.75467711E-02 0.11884163E+00
       -2 -1    0    0    0  501 0.00000000E+00 0.00000000E+00 0.11319011E+03 0.11319056E+03 0.32000000E+00 0.0000E+00 0.9000E+01
        2 -1    0    0  502    0 -.00000000E+00 -.00000000E+00 -.22832013E+03 0.22832035E+03 0.32000000E+00 0.0000E+00 0.9000E+01
       25  1    1    2    0    0 -.10153378E+03 -.13582354E+02 -.54206829E+02 0.17046105E+03 0.12500000E+03 0.0000E+00 0.9000E+01
       23  1    1    2    0    0 0.50698638E+02 -.67537207E+01 -.46489917E+02 0.11442259E+03 0.91188000E+02 0.0000E+00 0.9000E+01
       21  1    1    2  502  501 0.50835141E+02 0.20336074E+02 -.14433272E+02 0.56627284E+02 0.75000000E+00 0.0000E+00 0.9000E+01
#aMCatNLO 1  0  0  5  1 0.89850206D+01 0.00000000D+00  -5  6  0 0.00000000D+00 0.00000000D+00 0.00000000D+00 0.00000000D+00 0.00000000D+00
  <mgrwgt>
 0.3038762926D-01   25    2    0
 0.160759748312022D+03 0.000000000000000D+00 0.000000000000000D+00 0.160759748312022D+03
 0.160759748312022D+03 -.000000000000000D+00 -.000000000000000D+00 -.160759748312022D+03
 0.161651100229171D+03 -.101536157194798D+03 -.135833052328084D+02 0.346133014421597D+01
 0.104889298927616D+03 0.506970946880068D+02 -.675433802216191D+01 -.840816232029464D+01
 0.549790974672572D+02 0.508390625067914D+02 0.203376432549703D+02 0.494683217607866D+01
 0.000000000000000D+00 0.000000000000000D+00 0.000000000000000D+00 0.000000000000000D+00
 0.160759748312022D+03 0.000000000000000D+00 0.000000000000000D+00 0.160759748312022D+03
 0.160759748312022D+03 -.000000000000000D+00 -.000000000000000D+00 -.160759748312022D+03
 0.160601983852337D+03 -.999368797361976D+02 -.129435307598942D+02 0.361694586174865D+01
 0.105363614510947D+03 0.517405377508584D+02 -.633691937353291D+01 -.830663138202191D+01
 0.370399358825722D+02 0.304300516917856D+02 0.211171724408589D+02 -.183935650020542D+00
 0.185139623781882D+02 0.177662902935536D+02 -.183672230743174D+01 0.487362117029380D+01
0.333835777231D-04 0.000000000000D+00 0.000000000000D+00 0.418820269167D-05 0.000000000000D+00  6 -2 2 25 23 21 21 2 0.17413915D-01 0.35126226D-01 0.25747713D+05 0.25747713D+05 0.25747713D+05 0.12219278D+01  1  2  2  3  6  5       21 0.189893776506D-01 0.100000000000D+01
0.678260177043D-06 0.176169979642D-05 -.128201728555D-06 0.418820269167D-05 0.000000000000D+00  6 -2 2 25 23 21 21 4 0.17413915D-01 0.35126226D-01 0.25747713D+05 0.25747713D+05 0.25747713D+05 0.12219278D+01  1  2  3  3  6  5       21 0.576056781446D-03 0.100000000000D+01
0.153431411214D-05 0.000000000000D+00 0.000000000000D+00 0.418820269167D-05 0.000000000000D+00  6 -2 2 25 23 21 21 4 0.17413915D-01 0.35126226D-01 0.25747713D+05 0.25747713D+05 0.25747713D+05 0.12219278D+01  1  2 15  3  6  5       21 0.130311653121D-02 0.100000000000D+01
0.496397875077D-04 0.000000000000D+00 0.000000000000D+00 0.418904491712D-05 0.000000000000D+00  6 -2 2 25 23 21 21 4 0.17413915D-01 0.35126226D-01 0.25679642D+05 0.25679642D+05 0.25679642D+05 0.12220507D+01  1  2 12  3  6  5       21 0.421740883493D-01 0.100000000000D+01
0.499218058907D-04 0.000000000000D+00 0.000000000000D+00 0.418904491712D-05 0.000000000000D+00  6 -2 2 25 23 21 21 4 0.17413915D-01 0.35126226D-01 0.25679642D+05 0.25679642D+05 0.25679642D+05 0.12220507D+01  1  2 12  3  6  5       21 0.424136918770D-01 0.100000000000D+01
-.140408433099D-03 0.000000000000D+00 0.000000000000D+00 0.418820269167D-05 0.000000000000D+00  6 -2 2 25 23 21 21 4 0.17413915D-01 0.35126226D-01 0.25747713D+05 0.25747713D+05 0.25747713D+05 0.12219278D+01  1  2  4  3  6  5       21 -.119251037871D+00 0.100000000000D+01
-.867632185946D-04 0.000000000000D+00 0.000000000000D+00 0.418820269167D-05 0.000000000000D+00  6 -2 2 25 23 21 21 4 0.17413915D-01 0.35126226D-01 0.25747713D+05 0.25747713D+05 0.25747713D+05 0.12219278D+01  1  2  5  3  6  5       21 -.736893335967D-01 0.100000000000D+01
0.142626446861D-03 0.000000000000D+00 -.000000000000D+00 0.418820269167D-05 0.000000000000D+00  6 -2 2 25 23 21 21 4 0.17413915D-01 0.35126226D-01 0.25747713D+05 0.25747713D+05 0.25747713D+05 0.12219278D+01  1  2  6  3  6  5       21 0.121134831011D+00 0.100000000000D+01
0.193710262193D-07 0.000000000000D+00 0.000000000000D+00 0.418820269167D-05 0.288780317584D-06  6 -2 2 25 23 21 21 4 0.17413915D-01 0.35126226D-01 0.25679642D+05 0.25679642D+05 0.25679642D+05 0.12220507D+01  1  2 11  3  6  5       21 0.164576726092D-04 0.100000000000D+01
0.104012611834D-05 0.000000000000D+00 0.000000000000D+00 0.418904491712D-05 0.000000000000D+00  6 -2 2 25 23 1 -1 4 0.17413915D-01 0.35126226D-01 0.25679642D+05 0.25679642D+05 0.25679642D+05 0.12220507D+01  1  2 12  6  6  5       21 0.883693766867D-03 0.100000000000D+01
0.104012611834D-05 0.000000000000D+00 0.000000000000D+00 0.418904491712D-05 0.000000000000D+00  6 -2 2 25 23 3 -3 4 0.17413915D-01 0.35126226D-01 0.25679642D+05 0.25679642D+05 0.25679642D+05 0.12220507D+01  1  2 12  6  6  5       21 0.883693766867D-03 0.100000000000D+01
0.104514697396D-05 0.000000000000D+00 0.000000000000D+00 0.418904491712D-05 0.000000000000D+00  6 -2 2 25 23 1 -1 4 0.17413915D-01 0.35126226D-01 0.25679642D+05 0.25679642D+05 0.25679642D+05 0.12220507D+01  1  2 12  6  6  5       21 0.887959498432D-03 0.100000000000D+01
0.104514697396D-05 0.000000000000D+00 0.000000000000D+00 0.418904491712D-05 0.000000000000D+00  6 -2 2 25 23 3 -3 4 0.17413915D-01 0.35126226D-01 0.25679642D+05 0.25679642D+05 0.25679642D+05 0.12220507D+01  1  2 12  6  6  5       21 0.887959498432D-03 0.100000000000D+01
-.305200341441D-05 0.000000000000D+00 0.000000000000D+00 0.418820269167D-05 0.000000000000D+00  6 -2 2 25 23 1 -1 4 0.17413915D-01 0.35126226D-01 0.25747713D+05 0.25747713D+05 0.25747713D+05 0.12219278D+01  1  2  5  6  6  5       21 -.259211335616D-02 0.100000000000D+01
-.305200341441D-05 0.000000000000D+00 0.000000000000D+00 0.418820269167D-05 0.000000000000D+00  6 -2 2 25 23 3 -3 4 0.17413915D-01 0.35126226D-01 0.25747713D+05 0.25747713D+05 0.25747713D+05 0.12219278D+01  1  2  5  6  6  5       21 -.259211335616D-02 0.100000000000D+01
0.653821071256D-09 0.000000000000D+00 0.000000000000D+00 0.418820269167D-05 0.149977725512D-07  6 -2 2 25 23 1 -1 4 0.17413915D-01 0.35126226D-01 0.25679642D+05 0.25679642D+05 0.25679642D+05 0.12220507D+01  1  2 11  6  6  5       21 0.555488027009D-06 0.100000000000D+01
0.653821071256D-09 0.000000000000D+00 0.000000000000D+00 0.418820269167D-05 0.149977725512D-07  6 -2 2 25 23 3 -3 4 0.17413915D-01 0.35126226D-01 0.25679642D+05 0.25679642D+05 0.25679642D+05 0.12220507D+01  1  2 11  6  6  5       21 0.555488027009D-06 0.100000000000D+01
0.104012611834D-05 0.000000000000D+00 0.000000000000D+00 0.418904491712D-05 0.000000000000D+00  6 -2 2 25 23 2 -2 4 0.17413915D-01 0.35126226D-01 0.25679642D+05 0.25679642D+05 0.25679642D+05 0.12220507D+01  1  2 12  7  6  5       21 0.883693766867D-03 0.100000000000D+01
0.104514697396D-05 0.000000000000D+00 0.000000000000D+00 0.418904491712D-05 0.000000000000D+00  6 -2 2 25 23 2 -2 4 0.17413915D-01 0.35126226D-01 0.25679642D+05 0.25679642D+05 0.25679642D+05 0.12220507D+01  1  2 12  7  6  5       21 0.887959498432D-03 0.100000000000D+01
-.305200341441D-05 0.000000000000D+00 0.000000000000D+00 0.418820269167D-05 0.000000000000D+00  6 -2 2 25 23 2 -2 4 0.17413915D-01 0.35126226D-01 0.25747713D+05 0.25747713D+05 0.25747713D+05 0.12219278D+01  1  2  5  7  6  5       21 -.259211335616D-02 0.100000000000D+01
0.651384006037D-09 0.000000000000D+00 0.000000000000D+00 0.418820269167D-05 0.153897664559D-07  6 -2 2 25 23 2 -2 4 0.17413915D-01 0.35126226D-01 0.25679642D+05 0.25679642D+05 0.25679642D+05 0.12220507D+01  1  2 11  7  6  5       21 0.553417490267D-06 0.100000000000D+01
0.104012611834D-05 0.000000000000D+00 0.000000000000D+00 0.418904491712D-05 0.000000000000D+00  6 -2 2 25 23 4 -4 4 0.17413915D-01 0.35126226D-01 0.25679642D+05 0.25679642D+05 0.25679642D+05 0.12220507D+01  1  2 12  8  6  5       21 0.883693766867D-03 0.100000000000D+01
0.104514697396D-05 0.000000000000D+00 0.000000000000D+00 0.418904491712D-05 0.000000000000D+00  6 -2 2 25 23 4 -4 4 0.17413915D-01 0.35126226D-01 0.25679642D+05 0.25679642D+05 0.25679642D+05 0.12220507D+01  1  2 12  8  6  5       21 0.887959498432D-03 0.100000000000D+01
-.305200341441D-05 0.000000000000D+00 0.000000000000D+00 0.418820269167D-05 0.000000000000D+00  6 -2 2 25 23 4 -4 4 0.17413915D-01 0.35126226D-01 0.25747713D+05 0.25747713D+05 0.25747713D+05 0.12219278D+01  1  2  5  8  6  5       21 -.259211335616D-02 0.100000000000D+01
0.655392284651D-09 0.000000000000D+00 0.000000000000D+00 0.418820269167D-05 0.150338140649D-07  6 -2 2 25 23 4 -4 4 0.17413915D-01 0.35126226D-01 0.25679642D+05 0.25679642D+05 0.25679642D+05 0.12220507D+01  1  2 11  8  6  5       21 0.556822933861D-06 0.100000000000D+01
  </mgrwgt>
  </event>
  <event>
  5     66 0.42934962E-03 0.39068870E+02 0.75467711E-02 0.12222386E+00
       -2 -1    0    0    0  501 0.00000000E+00 0.00000000E+00 0.42512362E+02 0.42513566E+02 0.32000000E+00 0.0000E+00 0.9000E+01
        2 -1    0    0  502    0 -.00000000E+00 -.00000000E+00 -.48728403E+03 0.48728414E+03 0.32000000E+00 0.0000E+00 0.9000E+01
       25  1    1    2    0    0 -.30433826E+01 0.16722914E+02 -.14802951E+03 0.19449076E+03 0.12500000E+03 0.0000E+00 0.9000E+01
       23  1    1    2    0    0 -.35420985E+02 -.23553571E+02 -.13190678E+03 0.16590379E+03 0.91188000E+02 0.0000E+00 0.9000E+01
       21  1    1    2  502  501 0.38464367E+02 0.68306569E+01 -.16483538E+03 0.16940316E+03 0.75000000E+00 0.0000E+00 0.9000E+01
#aMCatNLO 1  0  0  5  1 0.71454874D+01 0.00000000D+00  -5  6  0 0.00000000D+00 0.00000000D+00 0.00000000D+00 0.00000000D+00 0.00000000D+00
  <mgrwgt>
 0.1345869837D+00   25    2    0
 0.143930336777578D+03 0.000000000000000D+00 0.000000000000000D+00 0.143930336777578D+03
 0.143930336777578D+03 -.000000000000000D+00 -.000000000000000D+00 -.143930336777578D+03
 0.129234478429247D+03 -.304487265257476D+01 0.167226493126642D+02 0.280647851474897D+02
 0.101532545906633D+03 -.354221554347157D+02 -.235537787006117D+02 0.135682330302791D+02
 0.570936492192757D+02 0.384670280872905D+02 0.683112938794751D+01 -.416330181777688D+02
 0.000000000000000D+00 0.000000000000000D+00 0.000000000000000D+00 0.000000000000000D+00
 0.143930336777578D+03 0.000000000000000D+00 0.000000000000000D+00 0.143930336777578D+03
 0.143930336777578D+03 -.000000000000000D+00 -.000000000000000D+00 -.143930336777578D+03
 0.129098914809428D+03 -.245733124189345D+01 0.168269872768041D+02 0.274288867314338D+02
 0.101287908294165D+03 -.349608700612601D+02 -.234718617907924D+02 0.130689820277156D+02
 0.359227495498964D+02 0.213473962525793D+02 0.108620238274223D+02 -.267721692589984D+02
 0.215511009016664D+02 0.160708050505743D+02 -.421714931343404D+01 -.137256995001510D+02
0.317489127296D-04 0.000000000000D+00 0.000000000000D+00 0.108153338605D-04 0.000000000000D+00  6 -2 2 25 23 21 21 2 0.65404641D-02 0.74966875D-01 0.17667875D+05 0.17667875D+05 0.17667875D+05 0.12397984D+01  1  2  2  3  6  5       21 0.386663538600D-01 0.100000000000D+01
0.101236220555D-05 0.167543615475D-05 -.121924184562D-06 0.108153338605D-04 0.000000000000D+00  6 -2 2 25 23 21 21 4 0.65404641D-02 0.74966875D-01 0.17667875D+05 0.17667875D+05 0.17667875D+05 0.12397984D+01  1  2  3  3  6  5       21 0.189514492665D-02 0.100000000000D+01
0.140032542284D-05 0.000000000000D+00 0.000000000000D+00 0.108153338605D-04 0.000000000000D+00  6 -2 2 25 23 21 21 4 0.65404641D-02 0.74966875D-01 0.17667875D+05 0.17667875D+05 0.17667875D+05 0.12397984D+01  1  2 15  3  6  5       21 0.262141317228D-02 0.100000000000D+01
0.716102517774D-04 0.000000000000D+00 0.000000000000D+00 0.108069628788D-04 0.000000000000D+00  6 -2 2 25 23 21 21 4 0.65404641D-02 0.74966875D-01 0.17843551D+05 0.17843551D+05 0.17843551D+05 0.12393185D+01  1  2 12  3  6  5       21 0.133888419345D+00 0.100000000000D+01
0.678751070783D-04 0.000000000000D+00 0.000000000000D+00 0.108069628788D-04 0.000000000000D+00  6 -2 2 25 23 21 21 4 0.65404641D-02 0.74966875D-01 0.17843551D+05 0.17843551D+05 0.17843551D+05 0.12393185D+01  1  2 12  3  6  5       21 0.126904885460D+00 0.100000000000D+01
-.176863084383D-03 0.000000000000D+00 0.000000000000D+00 0.108153338605D-04 0.000000000000D+00  6 -2 2 25 23 21 21 4 0.65404641D-02 0.74966875D-01 0.17667875D+05 0.17667875D+05 0.17667875D+05 0.12397984D+01  1  2  4  3  6  5       21 -.331088196735D+00 0.100000000000D+01
-.130473771954D-03 0.000000000000D+00 0.000000000000D+00 0.108153338605D-04 0.000000000000D+00  6 -2 2 25 23 21 21 4 0.65404641D-02 0.74966875D-01 0.17667875D+05 0.17667875D+05 0.17667875D+05 0.12397984D+01  1  2  5  3  6  5       21 -.244247271997D+00 0.100000000000D+01
0.222395175945D-03 0.000000000000D+00 -.000000000000D+00 0.108153338605D-04 0.000000000000D+00  6 -2 2 25 23 21 21 4 0.65404641D-02 0.74966875D-01 0.17667875D+05 0.17667875D+05 0.17667875D+05 0.12397984D+01  1  2  6  3  6  5       21 0.416324401575D+00 0.100000000000D+01
0.392779453213D-05 0.000000000000D+00 0.000000000000D+00 0.108153338605D-04 0.995937530939D-06  6 -2 2 25 23 21 21 4 0.65404641D-02 0.74966875D-01 0.17843551D+05 0.17843551D+05 0.17843551D+05 0.12393185D+01  1  2 11  3  6  5       21 0.734372786528D-02 0.100000000000D+01
0.170935365971D-05 0.000000000000D+00 0.000000000000D+00 0.108069628788D-04 0.000000000000D+00  6 -2 2 25 23 1 -1 4 0.65404641D-02 0.74966875D-01 0.17843551D+05 0.17843551D+05 0.17843551D+05 0.12393185D+01  1  2 12  6  6  5       21 0.319594826046D-02 0.100000000000D+01
0.170935365971D-05 0.000000000000D+00 0.000000000000D+00 0.108069628788D-04 0.000000000000D+00  6 -2 2 25 23 3 -3 4 0.65404641D-02 0.74966875D-01 0.17843551D+05 0.17843551D+05 0.17843551D+05 0.12393185D+01  1  2 12  6  6  5       21 0.319594826046D-02 0.100000000000D+01
0.162722862057D-05 0.000000000000D+00 0.000000000000D+00 0.108069628788D-04 0.000000000000D+00  6 -2 2 25 23 1 -1 4 0.65404641D-02 0.74966875D-01 0.17843551D+05 0.17843551D+05 0.17843551D+05 0.12393185D+01  1  2 12  6  6  5       21 0.304240052944D-02 0.100000000000D+01
0.162722862057D-05 0.000000000000D+00 0.000000000000D+00 0.108069628788D-04 0.000000000000D+00  6 -2 2 25 23 3 -3 4 0.65404641D-02 0.74966875D-01 0.17843551D+05 0.17843551D+05 0.17843551D+05 0.12393185D+01  1  2 12  6  6  5       21 0.304240052944D-02 0.100000000000D+01
-.588369712257D-05 0.000000000000D+00 0.000000000000D+00 0.108153338605D-04 0.000000000000D+00  6 -2 2 25 23 1 -1 4 0.65404641D-02 0.74966875D-01 0.17667875D+05 0.17667875D+05 0.17667875D+05 0.12397984D+01  1  2  5  6  6  5       21 -.110142977391D-01 0.100000000000D+01
-.588369712257D-05 0.000000000000D+00 0.000000000000D+00 0.108153338605D-04 0.000000000000D+00  6 -2 2 25 23 3 -3 4 0.65404641D-02 0.74966875D-01 0.17667875D+05 0.17667875D+05 0.17667875D+05 0.12397984D+01  1  2  5  6  6  5       21 -.110142977391D-01 0.100000000000D+01
0.184314466130D-06 0.000000000000D+00 0.000000000000D+00 0.108153338605D-04 0.652913353720D-07  6 -2 2 25 23 1 -1 4 0.65404641D-02 0.74966875D-01 0.17843551D+05 0.17843551D+05 0.17843551D+05 0.12393185D+01  1  2 11  6  6  5       21 0.344609492636D-03 0.100000000000D+01
0.184314466130D-06 0.000000000000D+00 0.000000000000D+00 0.108153338605D-04 0.652913353720D-07  6 -2 2 25 23 3 -3 4 0.65404641D-02 0.74966875D-01 0.17843551D+05 0.17843551D+05 0.17843551D+05 0.12393185D+01  1  2 11  6  6  5       21 0.344609492636D-03 0.100000000000D+01
0.170935365971D-05 0.000000000000D+00 0.000000000000D+00 0.108069628788D-04 0.000000000000D+00  6 -2 2 25 23 2 -2 4 0.65404641D-02 0.74966875D-01 0.17843551D+05 0.17843551D+05 0.17843551D+05 0.12393185D+01  1  2 12  7  6  5       21 0.319594826046D-02 0.100000000000D+01
0.162722862057D-05 0.000000000000D+00 0.000000000000D+00 0.108069628788D-04 0.000000000000D+00  6 -2 2 25 23 2 -2 4 0.65404641D-02 0.74966875D-01 0.17843551D+05 0.17843551D+05 0.17843551D+05 0.12393185D+01  1  2 12  7  6  5       21 0.304240052944D-02 0.100000000000D+01
-.588369712257D-05 0.000000000000D+00 0.000000000000D+00 0.108153338605D-04 0.000000000000D+00  6 -2 2 25 23 2 -2 4 0.65404641D-02 0.74966875D-01 0.17667875D+05 0.17667875D+05 0.17667875D+05 0.12397984D+01  1  2  5  7  6  5       21 -.110142977391D-01 0.100000000000D+01
0.185850533089D-06 0.000000000000D+00 0.000000000000D+00 0.108153338605D-04 0.676208935746D-07  6 -2 2 25 23 2 -2 4 0.65404641D-02 0.74966875D-01 0.17843551D+05 0.17843551D+05 0.17843551D+05 0.12393185D+01  1  2 11  7  6  5       21 0.347481449822D-03 0.100000000000D+01
0.170935365971D-05 0.000000000000D+00 0.000000000000D+00 0.108069628788D-04 0.000000000000D+00  6 -2 2 25 23 4 -4 4 0.65404641D-02 0.74966875D-01 0.17843551D+05 0.17843551D+05 0.17843551D+05 0.12393185D+01  1  2 12  8  6  5       21 0.319594826046D-02 0.100000000000D+01
0.162722862057D-05 0.000000000000D+00 0.000000000000D+00 0.108069628788D-04 0.000000000000D+00  6 -2 2 25 23 4 -4 4 0.65404641D-02 0.74966875D-01 0.17843551D+05 0.17843551D+05 0.17843551D+05 0.12393185D+01  1  2 12  8  6  5       21 0.304240052944D-02 0.100000000000D+01
-.588369712257D-05 0.000000000000D+00 0.000000000000D+00 0.108153338605D-04 0.000000000000D+00  6 -2 2 25 23 4 -4 4 0.65404641D-02 0.74966875D-01 0.17667875D+05 0.17667875D+05 0.17667875D+05 0.12397984D+01  1  2  5  8  6  5       21 -.110142977391D-01 0.100000000000D+01
0.184631133932D-06 0.000000000000D+00 0.000000000000D+00 0.108153338605D-04 0.654035113942D-07  6 -2 2 25 23 4 -4 4 0.65404641D-02 0.74966875D-01 0.17843551D+05 0.17843551D+05 0.17843551D+05 0.12393185D+01  1  2 11  8  6  5       21 0.345201560816D-03 0.100000000000D+01
  </mgrwgt>
  </event>
  <event>
  5     66 0.42934962E-03 0.86354368E+02 0.75467711E-02 0.95873286E-01
       -4 -1    0    0    0  501 0.00000000E+00 0.00000000E+00 0.39095539E+03 0.39095846E+03 0.15500000E+01 0.0000E+00 0.9000E+01
        4 -1    0    0  502    0 0.00000000E+00 0.00000000E+00 -.24258243E+03 0.24258738E+03 0.15500000E+01 0.0000E+00 0.9000E+01
       25  1    1    2    0    0 0.18258622E+03 0.62385168E+02 -.10774795E+03 0.25389813E+03 0.12500000E+03 0.0000E+00 0.9000E+01
       23  1    1    2    0    0 -.11293791E+03 -.11343147E+03 0.21755073E+03 0.28507059E+03 0.91188000E+02 0.0000E+00 0.9000E+01
       21  1    1    2  502  501 -.69648315E+02 0.51046299E+02 0.38570183E+02 0.94577133E+02 0.75000000E+00 0.0000E+00 0.9000E+01
#aMCatNLO 1  0  0  1  1 0.70200588D+03 0.00000000D+00  -5  6  0 0.00000000D+00 0.00000000D+00 0.00000000D+00 0.00000000D+00 0.00000000D+00
  <mgrwgt>
 0.6363445443D-02    5    4    0
 0.307963392964686D+03 0.000000000000000D+00 0.000000000000000D+00 0.307963392964686D+03
 0.307963392964686D+03 0.000000000000000D+00 0.000000000000000D+00 -.307963392964686D+03
 0.287117629423060D+03 0.182587401245921D+03 0.623843039753043D+02 -.171992943603205D+03
 0.240818347280496D+03 -.112936917115213D+03 -.113432192869569D+03 0.155101951684117D+03
 0.879908092258161D+02 -.696504841307085D+02 0.510478888942645D+02 0.168909919190885D+02
 0.000000000000000D+00 0.000000000000000D+00 0.000000000000000D+00 0.000000000000000D+00
 0.146160488935941D+04 0.000000000000000D+00 0.000000000000000D+00 0.146160488935941D+04
 0.590817802935965D+03 0.000000000000000D+00 0.000000000000000D+00 -.590817802935965D+03
 0.336162030484221D+03 0.143568033452335D+03 -.217224671390263D+03 -.171992943603205D+03
 0.510977777268044D+03 -.160001840578167D+03 -.450694833688127D+03 0.155101951684117D+03
 0.867649327242512D+02 -.805907714652977D+02 -.273491407042576D+02 0.168909919190885D+02
 0.111851795181886D+04 0.970245785911292D+02 0.695268645782647D+03 0.870787086423449D+03
 0.307963392964686D+03 0.000000000000000D+00 0.000000000000000D+00 0.307963392964686D+03
 0.307963392964686D+03 0.000000000000000D+00 0.000000000000000D+00 -.307963392964686D+03
 0.287117629423060D+03 0.182587401245921D+03 0.623843039753043D+02 -.171992943603205D+03
 0.240818347280496D+03 -.112936917115213D+03 -.113432192869569D+03 0.155101951684117D+03
 0.000000000000000D+00 0.000000000000000D+00 0.000000000000000D+00 0.000000000000000D+00
 0.879908092258161D+02 -.696504841307085D+02 0.510478888942645D+02 0.168909919190885D+02
 0.146160488935941D+04 0.000000000000000D+00 0.000000000000000D+00 0.146160488935941D+04
 0.590817802935965D+03 0.000000000000000D+00 0.000000000000000D+00 -.590817802935965D+03
 0.336162030484221D+03 0.143568033452335D+03 -.217224671390263D+03 -.171992943603205D+03
 0.510977777268044D+03 -.160001840578167D+03 -.450694833688127D+03 0.155101951684117D+03
 0.111851795181886D+04 0.970245785911292D+02 0.695268645782647D+03 0.870787086423449D+03
 0.867649327242512D+02 -.805907714652977D+02 -.273491407042576D+02 0.168909919190885D+02
0.127673981723D-02 0.000000000000D+00 0.000000000000D+00 0.684805881004D-06 0.000000000000D+00  6 -4 4 25 23 21 21 2 0.60147600D-01 0.37320992D-01 0.62619065D+05 0.62619065D+05 0.62619065D+05 0.11827219D+01  1  2  2  1  6  1       -4 0.597741367802D-02 0.100000000000D+01
0.108716801063D-04 0.673754111900D-04 -.490301707147D-05 0.684805881004D-06 0.000000000000D+00  6 -4 4 25 23 21 21 4 0.60147600D-01 0.37320992D-01 0.62619065D+05 0.62619065D+05 0.62619065D+05 0.11827219D+01  1  2  3  1  6  1       -4 0.711988329953D-04 0.100000000000D+01
0.289358764050D-04 0.000000000000D+00 0.000000000000D+00 0.684805881004D-06 0.000000000000D+00  6 -4 4 25 23 21 21 4 0.60147600D-01 0.37320992D-01 0.62619065D+05 0.62619065D+05 0.62619065D+05 0.11827219D+01  1  2 15  1  6  1       -4 0.189501586838D-03 0.100000000000D+01
0.112537029594D-02 0.000000000000D+00 -.919857554692D-03 0.684805881004D-06 0.000000000000D+00  6 -4 4 25 23 21 21 4 0.39119744D+00 0.37320992D-01 0.62619065D+05 0.62619065D+05 0.62619065D+05 0.11827219D+01  1  2  5  1  6  1       -4 0.271975798533D-04 0.100000000000D+01
0.184713915107D-03 0.000000000000D+00 -.210960654056D-03 0.684805881004D-06 0.000000000000D+00  6 21 4 25 23 4 21 4 0.39119744D+00 0.37320992D-01 0.62619065D+05 0.62619065D+05 0.62619065D+05 0.11827219D+01  3  4  5  4  5  1       -4 0.981337657208D-04 0.100000000000D+01
  </mgrwgt>
  </event>
  <event>
  5     66 0.42934962E-03 0.91549653E+02 0.75467711E-02 0.11718584E+00
       -2 -1    0    0    0  501 0.00000000E+00 0.00000000E+00 0.55431717E+02 0.55432640E+02 0.32000000E+00 0.0000E+00 0.9000E+01
        2 -1    0    0  502    0 -.00000000E+00 -.00000000E+00 -.14475329E+04 0.14475329E+04 0.32000000E+00 0.0000E+00 0.9000E+01
       25  1    1    2    0    0 0.14004651E+02 0.90019462E+01 -.69520901E+03 0.70655342E+03 0.12500000E+03 0.0000E+00 0.9000E+01
       23  1    1    2    0    0 -.86012989E+02 0.47561811E+02 -.69182987E+03 0.70470149E+03 0.91188000E+02 0.0000E+00 0.9000E+01
       21  1    1    2  502  501 0.72008339E+02 -.56563757E+02 -.50623095E+01 0.91710680E+02 0.75000000E+00 0.0000E+00 0.9000E+01
#aMCatNLO 1  0  0  5  1 0.71454874D+01 0.00000000D+00  -5  6  0 0.00000000D+00 0.00000000D+00 0.00000000D+00 0.00000000D+00 0.00000000D+00
  <mgrwgt>
 0.3296300927D-01    1    2    0
 0.283266578932684D+03 0.000000000000000D+00 0.000000000000000D+00 0.283266578932684D+03
 0.283266578932684D+03 -.000000000000000D+00 -.000000000000000D+00 -.283266578932684D+03
 0.166140845350269D+03 0.140045390681501D+02 0.900203368936573D+01 -.108169389240423D+03
 0.169531212555357D+03 -.860131027896277D+02 0.475619001862148D+02 -.103755445571146D+03
 0.230861099959742D+03 0.720085637214776D+02 -.565639338755805D+02 0.211924834811569D+03
 0.000000000000000D+00 -.000000000000000D+00 0.000000000000000D+00 0.000000000000000D+00
 0.283266578932684D+03 0.000000000000000D+00 0.000000000000000D+00 0.283266578932684D+03
 0.283266578932684D+03 -.000000000000000D+00 -.000000000000000D+00 -.283266578932684D+03
 0.154661870601192D+03 0.206446993484912D+02 0.378607648081438D+01 -.886270626363735D+02
 0.153204174687481D+03 -.793329389603581D+02 0.423145195194046D+02 -.840953865050058D+02
 0.924983430487939D+02 0.860210685948436D+02 0.236739477440855D+02 0.244103138608230D+02
 0.166168769527901D+03 -.273328289829766D+02 -.697745437443045D+02 0.148312135280556D+03
0.121235788510D-03 0.000000000000D+00 0.000000000000D+00 0.403509767320D-05 0.000000000000D+00  6 -2 2 25 23 21 21 4 0.85280302D-02 0.22269744D+00 0.30931157D+05 0.30931157D+05 0.30931157D+05 0.12135076D+01  1  2 14  3  6  5       21 0.329630092713D-01 0.100000000000D+01
  </mgrwgt>
  </event>
  <event>
  5     66 0.42934962E-03 0.36794164E+02 0.75467711E-02 0.10981930E+00
       -2 -1    0    0    0  501 0.00000000E+00 0.00000000E+00 0.85000238E+01 0.85060452E+01 0.32000000E+00 0.0000E+00 0.9000E+01
        2 -1    0    0  502    0 0.00000000E+00 0.00000000E+00 -.22243180E+04 0.22243181E+04 0.32000000E+00 0.0000E+00 0.9000E+01
       25  1    1    2    0    0 0.33782504E+02 -.90576820E+01 -.88002363E+03 0.88954476E+03 0.12500000E+03 0.0000E+00 0.9000E+01
       23  1    1    2    0    0 -.32907968E+02 -.27721246E+02 -.82037554E+03 0.82654865E+03 0.91188000E+02 0.0000E+00 0.9000E+01
       21  1    1    2  502  501 -.87453649E+00 0.36778928E+02 -.51541885E+03 0.51673069E+03 0.75000000E+00 0.0000E+00 0.9000E+01
#aMCatNLO 1  0  0  1  1 0.70200588D+03 0.00000000D+00  -5  6  0 0.00000000D+00 0.00000000D+00 0.00000000D+00 0.00000000D+00 0.00000000D+00
  <mgrwgt>
 0.9476129427D-01    3    2    0
 0.137526376682373D+03 0.000000000000000D+00 0.000000000000000D+00 0.137526376682373D+03
 0.137526376682373D+03 0.000000000000000D+00 0.000000000000000D+00 -.137526376682373D+03
 0.131701689955071D+03 0.337825696621444D+02 -.906042266374286D+01 0.222930900773834D+02
 0.100835252205441D+03 -.329079181068821D+02 -.277233440377894D+02 -.990890795193941D+00
 0.425158112042330D+02 -.874651555262274D+00 0.367837667015323D+02 -.213021992821894D+02
 0.000000000000000D+00 -.000000000000000D+00 -.000000000000000D+00 -.000000000000000D+00
 0.238635578273675D+03 0.000000000000000D+00 0.000000000000000D+00 0.238635578273675D+03
 0.340863127389401D+03 0.000000000000000D+00 0.000000000000000D+00 -.340863127389401D+03
 0.186758691486571D+03 0.132995989262132D+03 0.326939416523119D+02 0.222930900773834D+02
 0.954911049557600D+02 0.282557631127254D+02 -.198236425046576D+01 -.990890795193941D+00
 0.637581335854337D+02 0.322340240961083D+02 0.507176852252881D+02 -.213021992821894D+02
 0.233490775635312D+03 -.193485776470965D+03 -.814292626271343D+02 -.102227549115727D+03
0.676983975431D-04 0.000000000000D+00 0.000000000000D+00 0.111645245690D-04 0.000000000000D+00  6 -2 2 25 23 21 21 2 0.13081609D-02 0.34220324D+00 0.17879134D+05 0.17879134D+05 0.17879134D+05 0.12392220D+01  1  2  2  1  6  1       -2 0.837614695667D-01 0.100000000000D+01
0.388155268714D-05 0.357254258841D-05 -.259979671963D-06 0.111645245690D-04 0.000000000000D+00  6 -2 2 25 23 21 21 4 0.13081609D-02 0.34220324D+00 0.17879134D+05 0.17879134D+05 0.17879134D+05 0.12392220D+01  1  2  3  1  6  1       -2 0.737512831707D-02 0.100000000000D+01
0.190768884382D-05 0.000000000000D+00 0.000000000000D+00 0.111645245690D-04 0.000000000000D+00  6 -2 2 25 23 21 21 4 0.13081609D-02 0.34220324D+00 0.17879134D+05 0.17879134D+05 0.17879134D+05 0.12392220D+01  1  2 15  1  6  1       -2 0.362469638989D-02 0.100000000000D+01
  </mgrwgt>
  </event>
  <event>
  5     66 0.42934962E-03 0.61577435E+02 0.75467711E-02 0.11758056E+00
       -2 -1    0    0    0  501 0.00000000E+00 0.00000000E+00 0.19537342E+03 0.19537368E+03 0.32000000E+00 0.0000E+00 0.9000E+01
        2 -1    0    0  502    0 0.00000000E+00 0.00000000E+00 -.16799505E+03 0.16799536E+03 0.32000000E+00 0.0000E+00 0.9000E+01
       25  1    1    2    0    0 -.48964925E+02 0.18651386E+02 -.58733652E+02 0.14771621E+03 0.12500000E+03 0.0000E+00 0.9000E+01
       23  1    1    2    0    0 -.39275092E+02 -.93361238E+01 0.12782060E+02 0.10054018E+03 0.91188000E+02 0.0000E+00 0.9000E+01
       21  1    1    2  502  501 0.88240018E+02 -.93152622E+01 0.73329962E+02 0.11511264E+03 0.75000000E+00 0.0000E+00 0.9000E+01
#aMCatNLO 1  0  0  2  5 0.20094057D+02 0.00000000D+00  -5  6  0 0.00000000D+00 0.00000000D+00 0.00000000D+00 0.00000000D+00 0.00000000D+00
  <mgrwgt>
 0.2812345174D-01    9    4    0
 0.181168074639693D+03 0.000000000000000D+00 0.000000000000000D+00 0.181168074639693D+03
 0.181168074639693D+03 0.000000000000000D+00 0.000000000000000D+00 -.181168074639693D+03
 0.152575837211168D+03 -.489657904760819D+02 0.186514773209070D+02 -.700632561153777D+02
 0.998611620430784D+02 -.392756587760491D+02 -.933606398059577D+01 0.522119504055807D+01
 0.109899150025139D+03 0.882414492521311D+02 -.931541334031123D+01 0.648420610748196D+02
 0.000000000000000D+00 0.000000000000000D+00 0.000000000000000D+00 -.000000000000000D+00
 0.188583251337379D+03 0.000000000000000D+00 0.000000000000000D+00 0.188583251337379D+03
 0.195590429244875D+03 0.000000000000000D+00 0.000000000000000D+00 -.195590429244875D+03
 0.154655878313734D+03 -.563587542600026D+02 0.144316200672087D+02 -.700632561153777D+02
 0.102162909393909D+03 -.441369949211868D+02 -.121108840925706D+02 0.522119504055807D+01
 0.106074111360702D+03 0.830444516147197D+02 -.122818269220173D+02 0.648420610748196D+02
 0.212807815139090D+02 0.174512975664698D+02 0.996109094737912D+01 -.700717790749596D+01
 0.181168074639693D+03 0.000000000000000D+00 0.000000000000000D+00 0.181168074639693D+03
 0.181168074639693D+03 0.000000000000000D+00 0.000000000000000D+00 -.181168074639693D+03
 0.152575837211168D+03 -.489657904760819D+02 0.186514773209070D+02 -.700632561153777D+02
 0.998611620430784D+02 -.392756587760491D+02 -.933606398059577D+01 0.522119504055807D+01
 0.000000000000000D+00 0.000000000000000D+00 0.000000000000000D+00 -.000000000000000D+00
 0.109899150025139D+03 0.882414492521311D+02 -.931541334031123D+01 0.648420610748196D+02
 0.188583251337379D+03 0.000000000000000D+00 0.000000000000000D+00 0.188583251337379D+03
 0.195590429244875D+03 0.000000000000000D+00 0.000000000000000D+00 -.195590429244875D+03
 0.154655878313734D+03 -.563587542600026D+02 0.144316200672087D+02 -.700632561153777D+02
 0.102162909393909D+03 -.441369949211868D+02 -.121108840925706D+02 0.522119504055807D+01
 0.212807815139090D+02 0.174512975664698D+02 0.996109094737912D+01 -.700717790749596D+01
 0.106074111360702D+03 0.830444516147197D+02 -.122818269220173D+02 0.648420610748196D+02
0.324971262547D-04 0.000000000000D+00 0.000000000000D+00 0.226348040393D-05 0.000000000000D+00  6 -2 2 25 23 21 21 2 0.30057493D-01 0.25845436D-01 0.26243073D+05 0.26243073D+05 0.26243073D+05 0.12210446D+01  1  2  2  2  6  2        2 0.100180329902D-01 0.100000000000D+01
-.213961322898D-05 0.171492046724D-05 -.124797521508D-06 0.226348040393D-05 0.000000000000D+00  6 -2 2 25 23 21 21 4 0.30057493D-01 0.25845436D-01 0.26243073D+05 0.26243073D+05 0.26243073D+05 0.12210446D+01  1  2  3  2  6  2        2 -.983412746565D-03 0.100000000000D+01
0.131744225123D-05 0.000000000000D+00 0.000000000000D+00 0.226348040393D-05 0.000000000000D+00  6 -2 2 25 23 21 21 4 0.30057493D-01 0.25845436D-01 0.26243073D+05 0.26243073D+05 0.26243073D+05 0.12210446D+01  1  2 15  2  6  2        2 0.605525094523D-03 0.100000000000D+01
0.131054079982D-03 0.000000000000D+00 0.000000000000D+00 0.224315381746D-05 0.000000000000D+00  6 -2 2 25 23 21 21 4 0.30057493D-01 0.28956583D-01 0.29574789D+05 0.29574789D+05 0.29574789D+05 0.12155496D+01  1  2 12  2  6  2        2 0.523217346171D-01 0.100000000000D+01
-.110652640073D-03 0.000000000000D+00 0.000000000000D+00 0.226348040393D-05 0.000000000000D+00  6 -2 2 25 23 21 21 4 0.30057493D-01 0.25845436D-01 0.26243073D+05 0.26243073D+05 0.26243073D+05 0.12210446D+01  1  2  4  2  6  2        2 -.508583585177D-01 0.100000000000D+01
-.462666064194D-03 0.000000000000D+00 -.948091937329D-04 0.226348040393D-05 0.000000000000D+00  6 -2 2 25 23 21 21 4 0.30057493D-01 0.28956797D-01 0.26243073D+05 0.26243073D+05 0.26243073D+05 0.12210446D+01  1  2  5  2  6  2        2 -.187690532227D+00 0.100000000000D+01
0.471006120069D-03 0.000000000000D+00 0.941999554838D-04 0.226348040393D-05 0.000000000000D+00  6 -2 2 25 23 21 21 4 0.30057493D-01 0.25845436D-01 0.26243073D+05 0.26243073D+05 0.26243073D+05 0.12210446D+01  1  2  6  2  6  2        2 0.216484650549D+00 0.100000000000D+01
0.237525377345D-05 0.000000000000D+00 0.000000000000D+00 0.224315381746D-05 0.000000000000D+00  6 -2 21 25 23 -2 21 4 0.30057493D-01 0.28956583D-01 0.29574789D+05 0.29574789D+05 0.29574789D+05 0.12155496D+01  3  4 12  5  5  2        2 0.484975506882D-02 0.100000000000D+01
-.798913750165D-05 0.000000000000D+00 -.171843814131D-05 0.226348040393D-05 0.000000000000D+00  6 -2 21 25 23 -2 21 4 0.30057493D-01 0.28956797D-01 0.26243073D+05 0.26243073D+05 0.26243073D+05 0.12210446D+01  3  4  5  5  5  2        2 -.166239430864D-01 0.100000000000D+01
  </mgrwgt>
  </event>
  <event>
  5     66 0.42934962E-03 0.56360077E+02 0.75467711E-02 0.11956740E+00
       -2 -1    0    0    0  501 0.00000000E+00 0.00000000E+00 0.37355744E+02 0.37357114E+02 0.32000000E+00 0.0000E+00 0.9000E+01
        2 -1    0    0  502    0 0.00000000E+00 0.00000000E+00 -.64478433E+03 0.64478441E+03 0.32000000E+00 0.0000E+00 0.9000E+01
       25  1    1    2    0    0 0.32141215E+02 0.23556197E+02 -.27781795E+03 0.30723894E+03 0.12500000E+03 0.0000E+00 0.9000E+01
       23  1    1    2    0    0 -.78070652E+02 0.91014043E+01 -.24858703E+03 0.27620395E+03 0.91188000E+02 0.0000E+00 0.9000E+01
       21  1    1    2  502  501 0.45929437E+02 -.32657602E+02 -.81023604E+02 0.98698627E+02 0.75000000E+00 0.0000E+00 0.9000E+01
#aMCatNLO 1  0  0  2  5 0.20094057D+02 0.00000000D+00  -5  6  0 0.00000000D+00 0.00000000D+00 0.00000000D+00 0.00000000D+00 0.00000000D+00
  <mgrwgt>
 0.2026652648D-02    1    2    0
 0.155199525474729D+03 0.000000000000000D+00 0.000000000000000D+00 0.155199525474729D+03
 0.155199525474729D+03 0.000000000000000D+00 0.000000000000000D+00 -.155199525474729D+03
 0.131526904845237D+03 0.321396072570202D+02 0.235573409007845D+02 -.929645272223771D+01
 0.120527581680942D+03 -.780721256807959D+02 0.910245208212502D+01 -.579095498435849D+01
 0.583445644232782D+02 0.459325184237757D+02 -.326597929829095D+02 0.150874077065962D+02
 0.000000000000000D+00 0.000000000000000D+00 0.000000000000000D+00 0.000000000000000D+00
 0.387812647695832D+03 0.000000000000000D+00 0.000000000000000D+00 0.387812647695832D+03
 0.167371764908075D+03 0.000000000000000D+00 0.000000000000000D+00 -.167371764908075D+03
 0.126967922260887D+03 -.556411971649972D+00 0.202267064977900D+02 -.929645272223771D+01
 0.144324373852745D+03 -.111572233701623D+03 0.568990783636070D+01 -.579095498435849D+01
 0.493066904058236D+02 0.323161240947792D+02 -.340468496481174D+02 0.150874077065962D+02
 0.234585426084452D+03 0.798125215784942D+02 0.813023531396669D+01 0.220440882787757D+03
0.126469927689D-05 0.000000000000D+00 0.000000000000D+00 0.434212606229D-05 0.000000000000D+00  6 -2 2 25 23 21 21 4 0.57471490D-02 0.99197700D-01 0.23707748D+05 0.23707748D+05 0.23707748D+05 0.12257766D+01  1  2 14  2  6  2        2 0.202665264761D-02 0.100000000000D+01
  </mgrwgt>
  </event>
  <event>
  6     66 0.42934962E-03 0.27165771E+02 0.75467711E-02 0.11687623E+00
       -2 -1    0    0    0  503 0.00000000E+00 0.00000000E+00 0.22990780E+02 0.22993007E+02 0.32000000E+00 0.0000E+00 0.9000E+01
        2 -1    0    0  502    0 0.00000000E+00 0.00000000E+00 -.20301026E+04 0.20301026E+04 0.32000000E+00 0.0000E+00 0.9000E+01
       25  1    1    2    0    0 0.49282315E+02 0.81506435E+02 -.53922456E+03 0.56165841E+03 0.12500000E+03 0.0000E+00 0.9000E+01
       23  1    1    2    0    0 -.97003682E+02 -.44853767E+02 -.81817346E+03 0.83014735E+03 0.91188000E+02 0.0000E+00 0.9000E+01
       21  1    1    2  502  501 0.18929550E+02 -.11489089E+02 -.58975916E+03 0.59017519E+03 0.75000000E+00 0.0000E+00 0.9000E+01
       21  1    1    2  501  503 0.28791817E+02 -.25163579E+02 -.59954618E+02 0.71114648E+02 0.75000000E+00 0.0000E+00 0.9000E+01
#aMCatNLO 2  0  0  1  2 0.38238390D+02 0.00000000D+00  -5  6  0 0.00000000D+00 0.00000000D+00 0.00000000D+00 0.00000000D+00 0.00000000D+00
  <mgrwgt>
 0.2498413193D-01    1    2    0
 0.183960100455338D+03 0.000000000000000D+00 0.000000000000000D+00 0.183960100455338D+03
 0.183960100455338D+03 0.000000000000000D+00 0.000000000000000D+00 -.183960100455338D+03
 0.170171376202544D+03 0.625936199292746D+02 0.698723910988071D+02 0.673289312625166D+02
 0.137420385141878D+03 -.861325004106586D+02 -.543551495034811D+02 -.139936058256685D+02
 0.603284395662534D+02 0.235388804813840D+02 -.155172415953260D+02 -.533353254368481D+02
 0.000000000000000D+00 0.000000000000000D+00 -.000000000000000D+00 0.000000000000000D+00
 0.244219814419267D+03 0.000000000000000D+00 0.000000000000000D+00 0.244219814419267D+03
 0.191118523398979D+03 0.000000000000000D+00 0.000000000000000D+00 -.191118523398979D+03
 0.170968536763688D+03 0.492814173114308D+02 0.815070394870318D+02 0.673289312625166D+02
 0.141183356170884D+03 -.970043723713339D+02 -.448533103852342D+02 -.139936058256685D+02
 0.577500517443109D+02 0.189311381991400D+02 -.114901498467670D+02 -.533353254368481D+02
 0.654363931393627D+02 0.287918168607631D+02 -.251635792550305D+02 0.531012910202880D+02
0.486642766282D-04 0.000000000000D+00 0.000000000000D+00 0.136601074469D-04 0.631777393618D-07  6 -2 2 25 23 21 21 4 0.35371775D-02 0.31232022D+00 0.32045429D+05 0.32045429D+05 0.32045429D+05 0.12119035D+01  1  2  1  1  6  1       -2 0.249841319313D-01 0.100000000000D+01
  </mgrwgt>
  </event>
  <event>
  5     66 0.42934962E-03 0.64077382E+02 0.75467711E-02 0.11909907E+00
       -2 -1    0    0    0  501 0.00000000E+00 0.00000000E+00 0.18283498E+03 0.18283526E+03 0.32000000E+00 0.0000E+00 0.9000E+01
        2 -1    0    0  502    0 -.00000000E+00 -.00000000E+00 -.91938486E+03 0.91938491E+03 0.32000000E+00 0.0000E+00 0.9000E+01
       25  1    1    2    0    0 -.41357027E+02 0.35838682E+02 0.79664292E+02 0.15800701E+03 0.12500000E+03 0.0000E+00 0.9000E+01
       23  1    1    2    0    0 0.42553217E+02 0.36214986E+02 0.16651750E+02 0.10823509E+03 0.91188000E+02 0.0000E+00 0.9000E+01
       21  1    1    2  502  501 -.11961905E+01 -.72053669E+02 -.83286591E+03 0.83597808E+03 0.75000000E+00 0.0000E+00 0.9000E+01
#aMCatNLO 1  0  0  5  1 0.66298571D+01 0.00000000D+00  -5  6  0 0.00000000D+00 0.00000000D+00 0.00000000D+00 0.00000000D+00 0.00000000D+00
  <mgrwgt>
 0.2439880984D+00   25    2    0
 0.409995000300603D+03 0.000000000000000D+00 0.000000000000000D+00 0.409995000300603D+03
 0.409995000300603D+03 -.000000000000000D+00 -.000000000000000D+00 -.409995000300603D+03
 0.283949101141935D+03 -.413570259792722D+02 0.358387320299275D+02 0.249012597528619D+03
 0.160445653812872D+03 0.425532177409720D+02 0.362150144200360D+02 0.119604568783496D+03
 0.375595245646400D+03 -.119619176169974D+01 -.720537464499635D+02 -.368617166312114D+03
 0.000000000000000D+00 0.000000000000000D+00 -.000000000000000D+00 0.000000000000000D+00
 0.409995000300603D+03 0.000000000000000D+00 0.000000000000000D+00 0.409995000300603D+03
 0.409995000300603D+03 -.000000000000000D+00 -.000000000000000D+00 -.409995000300603D+03
 0.283862165358816D+03 -.413573390482562D+02 0.358198740224493D+02 0.248916122527367D+03
 0.160402567715029D+03 0.425530408377779D+02 0.362043584881834D+02 0.119550054485524D+03
 0.266494295085369D+03 -.502136024946995D+01 -.460493949448926D+02 -.262437513476070D+03
 0.109230972441993D+03 0.382565845994823D+01 -.259748375657401D+02 -.106028663536822D+03
0.425011612444D-04 0.000000000000D+00 0.000000000000D+00 0.150106235831D-04 0.000000000000D+00  6 -2 2 25 23 21 21 2 0.28128485D-01 0.14144385D+00 0.24879484D+05 0.24879484D+05 0.24879484D+05 0.12235227D+01  1  2  2  3  6  5       21 0.220772990217D-02 0.100000000000D+01
0.311084255508D-05 0.224284789763D-05 -.163215649991D-06 0.150106235831D-04 0.000000000000D+00  6 -2 2 25 23 21 21 4 0.28128485D-01 0.14144385D+00 0.24879484D+05 0.24879484D+05 0.24879484D+05 0.12235227D+01  1  2  3  3  6  5       21 0.241906335344D-03 0.100000000000D+01
0.244317187161D-05 0.000000000000D+00 0.000000000000D+00 0.150106235831D-04 0.000000000000D+00  6 -2 2 25 23 21 21 4 0.28128485D-01 0.14144385D+00 0.24879484D+05 0.24879484D+05 0.24879484D+05 0.12235227D+01  1  2 15  3  6  5       21 0.189986713764D-03 0.100000000000D+01
0.482864396399D-02 0.000000000000D+00 0.000000000000D+00 0.150069661104D-04 0.000000000000D+00  6 -2 2 25 23 21 21 4 0.28128485D-01 0.14144385D+00 0.24959234D+05 0.24959234D+05 0.24959234D+05 0.12233736D+01  1  2 12  3  6  5       21 0.375288746590D+00 0.100000000000D+01
0.453829593152D-02 0.000000000000D+00 0.000000000000D+00 0.150069661104D-04 0.000000000000D+00  6 -2 2 25 23 21 21 4 0.28128485D-01 0.14144385D+00 0.24959234D+05 0.24959234D+05 0.24959234D+05 0.12233736D+01  1  2 12  3  6  5       21 0.352722504391D+00 0.100000000000D+01
-.101927712795D-01 0.000000000000D+00 0.000000000000D+00 0.150106235831D-04 0.000000000000D+00  6 -2 2 25 23 21 21 4 0.28128485D-01 0.14144385D+00 0.24879484D+05 0.24879484D+05 0.24879484D+05 0.12235227D+01  1  2  4  3  6  5       21 -.792613545553D+00 0.100000000000D+01
-.105100788149D-01 0.000000000000D+00 0.000000000000D+00 0.150106235831D-04 0.000000000000D+00  6 -2 2 25 23 21 21 4 0.28128485D-01 0.14144385D+00 0.24879484D+05 0.24879484D+05 0.24879484D+05 0.12235227D+01  1  2  5  3  6  5       21 -.817288115769D+00 0.100000000000D+01
0.137163133403D-01 0.000000000000D+00 -.000000000000D+00 0.150106235831D-04 0.000000000000D+00  6 -2 2 25 23 21 21 4 0.28128485D-01 0.14144385D+00 0.24879484D+05 0.24879484D+05 0.24879484D+05 0.12235227D+01  1  2  6  3  6  5       21 0.106661235207D+01 0.100000000000D+01
0.756016839996D-03 0.000000000000D+00 0.000000000000D+00 0.150106235831D-04 0.172593997087D-05  6 -2 2 25 23 21 21 4 0.28128485D-01 0.14144385D+00 0.24959234D+05 0.24959234D+05 0.24959234D+05 0.12233736D+01  1  2 11  3  6  5       21 0.587586524081D-01 0.100000000000D+01
0.865940185641D-04 0.000000000000D+00 0.000000000000D+00 0.150069661104D-04 0.000000000000D+00  6 -2 2 25 23 1 -1 4 0.28128485D-01 0.14144385D+00 0.24959234D+05 0.24959234D+05 0.24959234D+05 0.12233736D+01  1  2 12  6  6  5       21 0.673020436616D-02 0.100000000000D+01
0.865940185641D-04 0.000000000000D+00 0.000000000000D+00 0.150069661104D-04 0.000000000000D+00  6 -2 2 25 23 3 -3 4 0.28128485D-01 0.14144385D+00 0.24959234D+05 0.24959234D+05 0.24959234D+05 0.12233736D+01  1  2 12  6  6  5       21 0.673020436616D-02 0.100000000000D+01
0.823392081566D-04 0.000000000000D+00 0.000000000000D+00 0.150069661104D-04 0.000000000000D+00  6 -2 2 25 23 1 -1 4 0.28128485D-01 0.14144385D+00 0.24959234D+05 0.24959234D+05 0.24959234D+05 0.12233736D+01  1  2 12  6  6  5       21 0.639951474052D-02 0.100000000000D+01
0.823392081566D-04 0.000000000000D+00 0.000000000000D+00 0.150069661104D-04 0.000000000000D+00  6 -2 2 25 23 3 -3 4 0.28128485D-01 0.14144385D+00 0.24959234D+05 0.24959234D+05 0.24959234D+05 0.12233736D+01  1  2 12  6  6  5       21 0.639951474052D-02 0.100000000000D+01
-.192014394826D-03 0.000000000000D+00 0.000000000000D+00 0.150106235831D-04 0.000000000000D+00  6 -2 2 25 23 1 -1 4 0.28128485D-01 0.14144385D+00 0.24879484D+05 0.24879484D+05 0.24879484D+05 0.12235227D+01  1  2  5  6  6  5       21 -.149314848833D-01 0.100000000000D+01
-.192014394826D-03 0.000000000000D+00 0.000000000000D+00 0.150106235831D-04 0.000000000000D+00  6 -2 2 25 23 3 -3 4 0.28128485D-01 0.14144385D+00 0.24879484D+05 0.24879484D+05 0.24879484D+05 0.12235227D+01  1  2  5  6  6  5       21 -.149314848833D-01 0.100000000000D+01
0.157967532803D-04 0.000000000000D+00 0.000000000000D+00 0.150106235831D-04 0.597598305530D-07  6 -2 2 25 23 1 -1 4 0.28128485D-01 0.14144385D+00 0.24959234D+05 0.24959234D+05 0.24959234D+05 0.12233736D+01  1  2 11  6  6  5       21 0.122774505285D-02 0.100000000000D+01
0.157967532803D-04 0.000000000000D+00 0.000000000000D+00 0.150106235831D-04 0.597598305530D-07  6 -2 2 25 23 3 -3 4 0.28128485D-01 0.14144385D+00 0.24959234D+05 0.24959234D+05 0.24959234D+05 0.12233736D+01  1  2 11  6  6  5       21 0.122774505285D-02 0.100000000000D+01
0.865940185641D-04 0.000000000000D+00 0.000000000000D+00 0.150069661104D-04 0.000000000000D+00  6 -2 2 25 23 2 -2 4 0.28128485D-01 0.14144385D+00 0.24959234D+05 0.24959234D+05 0.24959234D+05 0.12233736D+01  1  2 12  7  6  5       21 0.673020436616D-02 0.100000000000D+01
0.823392081566D-04 0.000000000000D+00 0.000000000000D+00 0.150069661104D-04 0.000000000000D+00  6 -2 2 25 23 2 -2 4 0.28128485D-01 0.14144385D+00 0.24959234D+05 0.24959234D+05 0.24959234D+05 0.12233736D+01  1  2 12  7  6  5       21 0.639951474052D-02 0.100000000000D+01
-.192014394826D-03 0.000000000000D+00 0.000000000000D+00 0.150106235831D-04 0.000000000000D+00  6 -2 2 25 23 2 -2 4 0.28128485D-01 0.14144385D+00 0.24879484D+05 0.24879484D+05 0.24879484D+05 0.12235227D+01  1  2  5  7  6  5       21 -.149314848833D-01 0.100000000000D+01
0.180044144870D-04 0.000000000000D+00 0.000000000000D+00 0.150106235831D-04 0.692197680233D-07  6 -2 2 25 23 2 -2 4 0.28128485D-01 0.14144385D+00 0.24959234D+05 0.24959234D+05 0.24959234D+05 0.12233736D+01  1  2 11  7  6  5       21 0.139932747088D-02 0.100000000000D+01
0.865940185641D-04 0.000000000000D+00 0.000000000000D+00 0.150069661104D-04 0.000000000000D+00  6 -2 2 25 23 4 -4 4 0.28128485D-01 0.14144385D+00 0.24959234D+05 0.24959234D+05 0.24959234D+05 0.12233736D+01  1  2 12  8  6  5       21 0.673020436616D-02 0.100000000000D+01
0.823392081566D-04 0.000000000000D+00 0.000000000000D+00 0.150069661104D-04 0.000000000000D+00  6 -2 2 25 23 4 -4 4 0.28128485D-01 0.14144385D+00 0.24959234D+05 0.24959234D+05 0.24959234D+05 0.12233736D+01  1  2 12  8  6  5       21 0.639951474052D-02 0.100000000000D+01
-.192014394826D-03 0.000000000000D+00 0.000000000000D+00 0.150106235831D-04 0.000000000000D+00  6 -2 2 25 23 4 -4 4 0.28128485D-01 0.14144385D+00 0.24879484D+05 0.24879484D+05 0.24879484D+05 0.12235227D+01  1  2  5  8  6  5       21 -.149314848833D-01 0.100000000000D+01
0.156987331918D-04 0.000000000000D+00 0.000000000000D+00 0.150106235831D-04 0.593890161347D-07  6 -2 2 25 23 4 -4 4 0.28128485D-01 0.14144385D+00 0.24959234D+05 0.24959234D+05 0.24959234D+05 0.12233736D+01  1  2 11  8  6  5       21 0.122012679886D-02 0.100000000000D+01
  </mgrwgt>
  </event>
  <event>
  5     66 -.42934962E-03 0.29962631E+02 0.75467711E-02 0.11844410E+00
       -2 -1    0    0    0  501 0.00000000E+00 0.00000000E+00 0.29994125E+02 0.29995832E+02 0.32000000E+00 0.0000E+00 0.9000E+01
        2 -1    0    0  502    0 0.00000000E+00 0.00000000E+00 -.81722512E+03 0.81722518E+03 0.32000000E+00 0.0000E+00 0.9000E+01
       25  1    1    2    0    0 -.79803404E+02 0.25969166E+01 -.29184614E+03 0.32737516E+03 0.12500000E+03 0.0000E+00 0.9000E+01
       23  1    1    2    0    0 0.63327949E+02 0.22425693E+02 -.27468045E+03 0.29711604E+03 0.91188000E+02 0.0000E+00 0.9000E+01
       21  1    1    2  502  501 0.16475456E+02 -.25022610E+02 -.22070441E+03 0.22272981E+03 0.75000000E+00 0.0000E+00 0.9000E+01
#aMCatNLO 1  0  0  1  5 0.13444515D+02 0.00000000D+00  -5  6  0 0.00000000D+00 0.00000000D+00 0.00000000D+00 0.00000000D+00 0.00000000D+00
  <mgrwgt>
 -.1679414668D+00    7    4    0
 0.156565327043105D+03 0.000000000000000D+00 0.000000000000000D+00 0.156565327043105D+03
 0.156565327043105D+03 0.000000000000000D+00 0.000000000000000D+00 -.156565327043105D+03
 0.152042325889992D+03 -.798043906280341D+02 0.259841482356818D+01 0.334122184078144D+02
 0.113326328031925D+03 0.633272132915046D+02 0.224268096925013D+02 0.378253155282793D+01
 0.477620001642920D+02 0.164771773365294D+02 -.250252245160695D+02 -.371947499606423D+02
 0.000000000000000D+00 -.000000000000000D+00 0.000000000000000D+00 0.000000000000000D+00
 0.286418268725129D+03 0.000000000000000D+00 0.000000000000000D+00 0.286418268725129D+03
 0.159593188238241D+03 0.000000000000000D+00 0.000000000000000D+00 -.159593188238241D+03
 0.144449802459021D+03 -.642181103136509D+02 0.635137199813369D+00 0.334122184078144D+02
 0.120343402583295D+03 0.756109860265029D+02 0.208795222281756D+02 0.378253155282793D+01
 0.501005278933478D+02 0.216217078273526D+02 -.256732393979805D+02 -.371947499606423D+02
 0.131117724027705D+03 -.330145835402046D+02 0.415857996999157D+01 0.126825080486888D+03
 0.156565327043105D+03 0.000000000000000D+00 0.000000000000000D+00 0.156565327043105D+03
 0.156565327043105D+03 0.000000000000000D+00 0.000000000000000D+00 -.156565327043105D+03
 0.152042325889992D+03 -.798043906280341D+02 0.259841482356818D+01 0.334122184078144D+02
 0.113326328031925D+03 0.633272132915046D+02 0.224268096925013D+02 0.378253155282793D+01
 0.000000000000000D+00 -.000000000000000D+00 0.000000000000000D+00 0.000000000000000D+00
 0.477620001642920D+02 0.164771773365294D+02 -.250252245160695D+02 -.371947499606423D+02
 0.286418268725129D+03 0.000000000000000D+00 0.000000000000000D+00 0.286418268725129D+03
 0.159593188238241D+03 0.000000000000000D+00 0.000000000000000D+00 -.159593188238241D+03
 0.144449802459021D+03 -.642181103136509D+02 0.635137199813369D+00 0.334122184078144D+02
 0.120343402583295D+03 0.756109860265029D+02 0.208795222281756D+02 0.378253155282793D+01
 0.131117724027705D+03 -.330145835402046D+02 0.415857996999157D+01 0.126825080486888D+03
 0.501005278933478D+02 0.216217078273526D+02 -.256732393979805D+02 -.371947499606423D+02
0.193903123309D-04 0.000000000000D+00 0.000000000000D+00 0.143336577271D-04 0.000000000000D+00  6 -2 2 25 23 21 21 2 0.46146168D-02 0.12572708D+00 0.21250561D+05 0.21250561D+05 0.21250561D+05 0.12309367D+01  1  2  2  1  6  1       -2 0.217434510905D-01 0.100000000000D+01
0.201000330092D-05 0.102325489404D-05 -.744639049370D-07 0.143336577271D-04 0.000000000000D+00  6 -2 2 25 23 21 21 4 0.46146168D-02 0.12572708D+00 0.21250561D+05 0.21250561D+05 0.21250561D+05 0.12309367D+01  1  2  3  1  6  1       -2 0.341516647128D-02 0.100000000000D+01
0.974068253708D-06 0.000000000000D+00 0.000000000000D+00 0.143336577271D-04 0.000000000000D+00  6 -2 2 25 23 21 21 4 0.46146168D-02 0.12572708D+00 0.21250561D+05 0.21250561D+05 0.21250561D+05 0.12309367D+01  1  2 15  1  6  1       -2 0.165502476502D-02 0.100000000000D+01
-.127876751831D-03 0.000000000000D+00 0.000000000000D+00 0.143336577271D-04 0.000000000000D+00  6 -2 2 25 23 21 21 4 0.46146168D-02 0.12572708D+00 0.21250561D+05 0.21250561D+05 0.21250561D+05 0.12309367D+01  1  2  4  1  6  1       -2 -.217273471695D+00 0.100000000000D+01
-.167478003856D-03 0.000000000000D+00 -.975718307895D-05 0.143336577271D-04 0.000000000000D+00  6 -2 2 25 23 21 21 4 0.85760952D-02 0.12572708D+00 0.21250561D+05 0.21250561D+05 0.21250561D+05 0.12309367D+01  1  2  5  1  6  1       -2 -.110639195607D+00 0.100000000000D+01
0.146160152499D-03 0.000000000000D+00 0.814271773126D-05 0.143336577271D-04 0.000000000000D+00  6 -2 2 25 23 21 21 4 0.46146168D-02 0.12572708D+00 0.21250561D+05 0.21250561D+05 0.21250561D+05 0.12309367D+01  1  2  6  1  6  1       -2 0.248338523635D+00 0.100000000000D+01
-.107712989224D-04 0.000000000000D+00 -.659134362282D-06 0.143336577271D-04 0.000000000000D+00  6 21 2 25 23 2 21 4 0.85760952D-02 0.12572708D+00 0.21250561D+05 0.21250561D+05 0.21250561D+05 0.12309367D+01  3  4  5  4  5  1       -2 -.115180965452D+00 0.100000000000D+01
  </mgrwgt>
  </event>
  <event>
  5     66 0.42934962E-03 0.71004265E+02 0.75467711E-02 0.11101023E+00
       -2 -1    0    0    0  501 0.00000000E+00 0.00000000E+00 0.15797503E+03 0.15797535E+03 0.32000000E+00 0.0000E+00 0.9000E+01
        2 -1    0    0  502    0 -.00000000E+00 -.00000000E+00 -.42803560E+03 0.42803572E+03 0.32000000E+00 0.0000E+00 0.9000E+01
       25  1    1    2    0    0 -.15485625E+03 -.39231758E+02 -.53433477E+02 0.20976112E+03 0.12500000E+03 0.0000E+00 0.9000E+01
       23  1    1    2    0    0 0.19286402E+03 0.10015933E+03 -.16119107E+03 0.28552799E+03 0.91188000E+02 0.0000E+00 0.9000E+01
       21  1    1    2  502  501 -.38007771E+02 -.60927571E+02 -.55436026E+02 0.90721966E+02 0.75000000E+00 0.0000E+00 0.9000E+01
#aMCatNLO 1  0  0  5  1 0.64966251D+01 0.00000000D+00  -5  6  0 0.00000000D+00 0.00000000D+00 0.00000000D+00 0.00000000D+00 0.00000000D+00
  <mgrwgt>
 0.4035868876D-01   25    2    0
 0.260036662981800D+03 0.000000000000000D+00 0.000000000000000D+00 0.260036662981800D+03
 0.260036662981800D+03 -.000000000000000D+00 -.000000000000000D+00 -.260036662981800D+03
 0.208608406772254D+03 -.154855454932885D+03 -.392304831448750D+02 0.487157535691203D+02
 0.238027754550451D+03 0.192864928576948D+03 0.100160783357335D+03 -.333601168250861D+02
 0.734371646408950D+02 -.380094736440626D+02 -.609303002124600D+02 -.153556367440343D+02
 0.000000000000000D+00 0.000000000000000D+00 0.000000000000000D+00 -.000000000000000D+00
 0.260036662981800D+03 0.000000000000000D+00 0.000000000000000D+00 0.260036662981800D+03
 0.260036662981800D+03 -.000000000000000D+00 -.000000000000000D+00 -.260036662981800D+03
 0.209372579407101D+03 -.155655756171718D+03 -.405133894855179D+02 0.483924358819460D+02
 0.236732464973322D+03 0.191955913084864D+03 0.987036048825928D+02 -.337273545253984D+02
 0.662060073465054D+02 -.394727178930106D+02 -.519237406993316D+02 -.113606823163446D+02
 0.776227423667223D+01 0.317256097986371D+01 -.626647469774336D+01 -.330439904020291D+01
0.114652859499D-03 0.000000000000D+00 0.000000000000D+00 0.156012801550D-05 0.000000000000D+00  6 -2 2 25 23 21 21 2 0.24303885D-01 0.65851665D-01 0.65109853D+05 0.65109853D+05 0.65109853D+05 0.11810889D+01  1  2  2  3  6  5       21 0.177167260250D-01 0.100000000000D+01
0.712032054797D-05 0.605039762108D-05 -.440297169269D-06 0.156012801550D-05 0.000000000000D+00  6 -2 2 25 23 21 21 4 0.24303885D-01 0.65851665D-01 0.65109853D+05 0.65109853D+05 0.65109853D+05 0.11810889D+01  1  2  3  3  6  5       21 0.153484068799D-02 0.100000000000D+01
0.358123545883D-05 0.000000000000D+00 0.000000000000D+00 0.156012801550D-05 0.000000000000D+00  6 -2 2 25 23 21 21 4 0.24303885D-01 0.65851665D-01 0.65109853D+05 0.65109853D+05 0.65109853D+05 0.11810889D+01  1  2 15  3  6  5       21 0.771963264638D-03 0.100000000000D+01
0.544741866896D-04 0.000000000000D+00 0.000000000000D+00 0.156015566995D-05 0.000000000000D+00  6 -2 2 25 23 21 21 4 0.24303885D-01 0.65851665D-01 0.65093541D+05 0.65093541D+05 0.65093541D+05 0.11810994D+01  1  2 12  3  6  5       21 0.117427385141D-01 0.100000000000D+01
0.524322175597D-04 0.000000000000D+00 0.000000000000D+00 0.156015566995D-05 0.000000000000D+00  6 -2 2 25 23 21 21 4 0.24303885D-01 0.65851665D-01 0.65093541D+05 0.65093541D+05 0.65093541D+05 0.11810994D+01  1  2 12  3  6  5       21 0.113025610465D-01 0.100000000000D+01
-.186171039615D-03 0.000000000000D+00 0.000000000000D+00 0.156012801550D-05 0.000000000000D+00  6 -2 2 25 23 21 21 4 0.24303885D-01 0.65851665D-01 0.65109853D+05 0.65109853D+05 0.65109853D+05 0.11810889D+01  1  2  4  3  6  5       21 -.401306211708D-01 0.100000000000D+01
-.623991896331D-03 0.000000000000D+00 0.000000000000D+00 0.156012801550D-05 0.000000000000D+00  6 -2 2 25 23 21 21 4 0.24303885D-01 0.65851665D-01 0.65109853D+05 0.65109853D+05 0.65109853D+05 0.11810889D+01  1  2  5  3  6  5       21 -.134506325244D+00 0.100000000000D+01
0.735628812553D-03 0.000000000000D+00 -.000000000000D+00 0.156012801550D-05 0.000000000000D+00  6 -2 2 25 23 21 21 4 0.24303885D-01 0.65851665D-01 0.65109853D+05 0.65109853D+05 0.65109853D+05 0.11810889D+01  1  2  6  3  6  5       21 0.158570534171D+00 0.100000000000D+01
0.633663414165D-04 0.000000000000D+00 0.000000000000D+00 0.156012801550D-05 0.225962417093D-06  6 -2 2 25 23 21 21 4 0.24303885D-01 0.65851665D-01 0.65093541D+05 0.65093541D+05 0.65093541D+05 0.11810994D+01  1  2 11  3  6  5       21 0.136595775553D-01 0.100000000000D+01
0.239403543558D-05 0.000000000000D+00 0.000000000000D+00 0.156015566995D-05 0.000000000000D+00  6 -2 2 25 23 1 -1 4 0.24303885D-01 0.65851665D-01 0.65093541D+05 0.65093541D+05 0.65093541D+05 0.11810994D+01  1  2 12  6  6  5       21 0.516070708383D-03 0.100000000000D+01
0.239403543558D-05 0.000000000000D+00 0.000000000000D+00 0.156015566995D-05 0.000000000000D+00  6 -2 2 25 23 3 -3 4 0.24303885D-01 0.65851665D-01 0.65093541D+05 0.65093541D+05 0.65093541D+05 0.11810994D+01  1  2 12  6  6  5       21 0.516070708383D-03 0.100000000000D+01
0.236601604217D-05 0.000000000000D+00 0.000000000000D+00 0.156015566995D-05 0.000000000000D+00  6 -2 2 25 23 1 -1 4 0.24303885D-01 0.65851665D-01 0.65093541D+05 0.65093541D+05 0.65093541D+05 0.11810994D+01  1  2 12  6  6  5       21 0.510030702461D-03 0.100000000000D+01
0.236601604217D-05 0.000000000000D+00 0.000000000000D+00 0.156015566995D-05 0.000000000000D+00  6 -2 2 25 23 3 -3 4 0.24303885D-01 0.65851665D-01 0.65093541D+05 0.65093541D+05 0.65093541D+05 0.11810994D+01  1  2 12  6  6  5       21 0.510030702461D-03 0.100000000000D+01
-.574056664237D-05 0.000000000000D+00 0.000000000000D+00 0.156012801550D-05 0.000000000000D+00  6 -2 2 25 23 1 -1 4 0.24303885D-01 0.65851665D-01 0.65109853D+05 0.65109853D+05 0.65109853D+05 0.11810889D+01  1  2  5  6  6  5       21 -.123742396083D-02 0.100000000000D+01
-.574056664237D-05 0.000000000000D+00 0.000000000000D+00 0.156012801550D-05 0.000000000000D+00  6 -2 2 25 23 3 -3 4 0.24303885D-01 0.65851665D-01 0.65109853D+05 0.65109853D+05 0.65109853D+05 0.11810889D+01  1  2  5  6  6  5       21 -.123742396083D-02 0.100000000000D+01
0.627959072728D-06 0.000000000000D+00 0.000000000000D+00 0.156012801550D-05 0.384892650281D-08  6 -2 2 25 23 1 -1 4 0.24303885D-01 0.65851665D-01 0.65093541D+05 0.65093541D+05 0.65093541D+05 0.11810994D+01  1  2 11  6  6  5       21 0.135366118096D-03 0.100000000000D+01
0.627959072728D-06 0.000000000000D+00 0.000000000000D+00 0.156012801550D-05 0.384892650281D-08  6 -2 2 25 23 3 -3 4 0.24303885D-01 0.65851665D-01 0.65093541D+05 0.65093541D+05 0.65093541D+05 0.11810994D+01  1  2 11  6  6  5       21 0.135366118096D-03 0.100000000000D+01
0.239403543558D-05 0.000000000000D+00 0.000000000000D+00 0.156015566995D-05 0.000000000000D+00  6 -2 2 25 23 2 -2 4 0.24303885D-01 0.65851665D-01 0.65093541D+05 0.65093541D+05 0.65093541D+05 0.11810994D+01  1  2 12  7  6  5       21 0.516070708383D-03 0.100000000000D+01
0.236601604217D-05 0.000000000000D+00 0.000000000000D+00 0.156015566995D-05 0.000000000000D+00  6 -2 2 25 23 2 -2 4 0.24303885D-01 0.65851665D-01 0.65093541D+05 0.65093541D+05 0.65093541D+05 0.11810994D+01  1  2 12  7  6  5       21 0.510030702461D-03 0.100000000000D+01
-.574056664237D-05 0.000000000000D+00 0.000000000000D+00 0.156012801550D-05 0.000000000000D+00  6 -2 2 25 23 2 -2 4 0.24303885D-01 0.65851665D-01 0.65109853D+05 0.65109853D+05 0.65109853D+05 0.11810889D+01  1  2  5  7  6  5       21 -.123742396083D-02 0.100000000000D+01
0.629451851360D-06 0.000000000000D+00 0.000000000000D+00 0.156012801550D-05 0.398320471238D-08  6 -2 2 25 23 2 -2 4 0.24303885D-01 0.65851665D-01 0.65093541D+05 0.65093541D+05 0.65093541D+05 0.11810994D+01  1  2 11  7  6  5       21 0.135687909208D-03 0.100000000000D+01
0.239403543558D-05 0.000000000000D+00 0.000000000000D+00 0.156015566995D-05 0.000000000000D+00  6 -2 2 25 23 4 -4 4 0.24303885D-01 0.65851665D-01 0.65093541D+05 0.65093541D+05 0.65093541D+05 0.11810994D+01  1  2 12  8  6  5       21 0.516070708383D-03 0.100000000000D+01
0.236601604217D-05 0.000000000000D+00 0.000000000000D+00 0.156015566995D-05 0.000000000000D+00  6 -2 2 25 23 4 -4 4 0.24303885D-01 0.65851665D-01 0.65093541D+05 0.65093541D+05 0.65093541D+05 0.11810994D+01  1  2 12  8  6  5       21 0.510030702461D-03 0.100000000000D+01
-.574056664237D-05 0.000000000000D+00 0.000000000000D+00 0.156012801550D-05 0.000000000000D+00  6 -2 2 25 23 4 -4 4 0.24303885D-01 0.65851665D-01 0.65109853D+05 0.65109853D+05 0.65109853D+05 0.11810889D+01  1  2  5  8  6  5       21 -.123742396083D-02 0.100000000000D+01
0.628876852100D-06 0.000000000000D+00 0.000000000000D+00 0.156012801550D-05 0.385455181424D-08  6 -2 2 25 23 4 -4 4 0.24303885D-01 0.65851665D-01 0.65093541D+05 0.65093541D+05 0.65093541D+05 0.11810994D+01  1  2 11  8  6  5       21 0.135563959382D-03 0.100000000000D+01
  </mgrwgt>
  </event>
  <event>
  5     66 0.42934962E-03 0.73699577E+02 0.75467711E-02 0.11167809E+00
       -2 -1    0    0    0  501 0.00000000E+00 0.00000000E+00 0.24899829E+02 0.24901885E+02 0.32000000E+00 0.0000E+00 0.9000E+01
        2 -1    0    0  502    0 0.00000000E+00 0.00000000E+00 -.98611677E+03 0.98611682E+03 0.32000000E+00 0.0000E+00 0.9000E+01
       25  1    1    2    0    0 -.26992630E+02 0.31078055E+01 -.46811092E+03 0.48527425E+03 0.12500000E+03 0.0000E+00 0.9000E+01
       23  1    1    2    0    0 -.30795588E+02 -.48843391E+02 -.31562717E+03 0.33357129E+03 0.91188000E+02 0.0000E+00 0.9000E+01
       21  1    1    2  502  501 0.57788219E+02 0.45735586E+02 -.17747886E+03 0.19217317E+03 0.75000000E+00 0.0000E+00 0.9000E+01
#aMCatNLO 1  0  0  1  1 0.14742644D+03 0.00000000D+00  -5  6  0 0.00000000D+00 0.00000000D+00 0.00000000D+00 0.00000000D+00 0.00000000D+00
  <mgrwgt>
 0.2199323087D-01    5    4    0
 0.156701004886221D+03 0.000000000000000D+00 0.000000000000000D+00 0.156701004886221D+03
 0.156701004886221D+03 0.000000000000000D+00 0.000000000000000D+00 -.156701004886221D+03
 0.129754376838388D+03 -.269938076373723D+02 0.310687377824881D+01 -.217458040385035D+02
 0.108042789342448D+03 -.307965686377639D+02 -.488441672298804D+02 0.487972055096191D+01
 0.756048435916060D+02 0.577903762751363D+02 0.457372934516316D+02 0.168660834875415D+02
 0.000000000000000D+00 0.000000000000000D+00 0.000000000000000D+00 0.000000000000000D+00
 0.250265276605375D+03 0.000000000000000D+00 0.000000000000000D+00 0.250265276605375D+03
 0.243655025055646D+03 0.000000000000000D+00 0.000000000000000D+00 -.243655025055646D+03
 0.153423621564388D+03 -.808077076156165D+02 -.301834731361491D+02 -.217458040385035D+02
 0.143807761724824D+03 -.786571384597270D+02 -.784516659158713D+02 0.487972055096191D+01
 0.491143606964008D+02 0.340892878333189D+02 0.310753295947859D+02 0.168660834875415D+02
 0.147574557675409D+03 0.125375558242025D+03 0.775598094572345D+02 0.661025154972938D+01
 0.156701004886221D+03 0.000000000000000D+00 0.000000000000000D+00 0.156701004886221D+03
 0.156701004886221D+03 0.000000000000000D+00 0.000000000000000D+00 -.156701004886221D+03
 0.129754376838388D+03 -.269938076373723D+02 0.310687377824881D+01 -.217458040385035D+02
 0.108042789342448D+03 -.307965686377639D+02 -.488441672298804D+02 0.487972055096191D+01
 0.000000000000000D+00 0.000000000000000D+00 0.000000000000000D+00 0.000000000000000D+00
 0.756048435916060D+02 0.577903762751363D+02 0.457372934516316D+02 0.168660834875415D+02
 0.250265276605375D+03 0.000000000000000D+00 0.000000000000000D+00 0.250265276605375D+03
 0.243655025055646D+03 0.000000000000000D+00 0.000000000000000D+00 -.243655025055646D+03
 0.153423621564388D+03 -.808077076156165D+02 -.301834731361491D+02 -.217458040385035D+02
 0.143807761724824D+03 -.786571384597270D+02 -.784516659158713D+02 0.487972055096191D+01
 0.147574557675409D+03 0.125375558242025D+03 0.775598094572345D+02 0.661025154972938D+01
 0.491143606964008D+02 0.340892878333189D+02 0.310753295947859D+02 0.168660834875415D+02
0.164483857446D-04 0.000000000000D+00 0.000000000000D+00 0.295925253200D-05 0.000000000000D+00  6 -2 2 25 23 21 21 2 0.38309051D-02 0.15171043D+00 0.23955502D+05 0.23955502D+05 0.23955502D+05 0.12252898D+01  1  2  2  1  6  1       -2 0.189128262592D-01 0.100000000000D+01
-.722127826844D-06 0.868005162837D-06 -.631661322187D-07 0.295925253200D-05 0.000000000000D+00  6 -2 2 25 23 21 21 4 0.38309051D-02 0.15171043D+00 0.23955502D+05 0.23955502D+05 0.23955502D+05 0.12252898D+01  1  2  3  1  6  1       -2 -.124659352568D-02 0.100000000000D+01
0.974757156488D-06 0.000000000000D+00 0.000000000000D+00 0.295925253200D-05 0.000000000000D+00  6 -2 2 25 23 21 21 4 0.38309051D-02 0.15171043D+00 0.23955502D+05 0.23955502D+05 0.23955502D+05 0.12252898D+01  1  2 15  1  6  1       -2 0.168270203033D-02 0.100000000000D+01
-.396907351285D-06 0.000000000000D+00 -.772853839341D-05 0.295925253200D-05 0.000000000000D+00  6 -2 2 25 23 21 21 4 0.97778381D-02 0.15171043D+00 0.23955502D+05 0.23955502D+05 0.23955502D+05 0.12252898D+01  1  2  5  1  6  1       -2 -.164060591399D-03 0.100000000000D+01
0.430702501572D-06 0.000000000000D+00 -.799848461643D-06 0.295925253200D-05 0.000000000000D+00  6 21 2 25 23 2 21 4 0.97778381D-02 0.15171043D+00 0.23955502D+05 0.23955502D+05 0.23955502D+05 0.12252898D+01  3  4  5  4  5  1       -2 0.280835669402D-02 0.100000000000D+01
  </mgrwgt>
  </event>
  <event>
  5     66 0.42934962E-03 0.23496173E+02 0.75467711E-02 0.12231905E+00
       -2 -1    0    0    0  501 0.00000000E+00 0.00000000E+00 0.24296777E+02 0.24298884E+02 0.32000000E+00 0.0000E+00 0.9000E+01
        2 -1    0    0  502    0 -.00000000E+00 -.00000000E+00 -.97595924E+03 0.97595929E+03 0.32000000E+00 0.0000E+00 0.9000E+01
       25  1    1    2    0    0 -.12059571E+02 -.56659204E+02 -.36190845E+03 0.38724465E+03 0.12500000E+03 0.0000E+00 0.9000E+01
       23  1    1    2    0    0 -.10497571E+02 0.50088561E+02 -.23186633E+03 0.25435469E+03 0.91188000E+02 0.0000E+00 0.9000E+01
       21  1    1    2  502  501 0.22557141E+02 0.65706423E+01 -.35788769E+03 0.35865883E+03 0.75000000E+00 0.0000E+00 0.9000E+01
#aMCatNLO 1  0  0  5  1 0.11978021D+02 0.00000000D+00  -5  6  0 0.00000000D+00 0.00000000D+00 0.00000000D+00 0.00000000D+00 0.00000000D+00
  <mgrwgt>
 0.2533868715D+00    9    2    0
 0.153992675424620D+03 0.000000000000000D+00 0.000000000000000D+00 0.153992675424620D+03
 0.153992675424620D+03 -.000000000000000D+00 -.000000000000000D+00 -.153992675424620D+03
 0.139390048393171D+03 -.120603963881442D+02 -.566594441499366D+02 0.211858400501765D+02
 0.109622142871467D+03 -.104982199491539D+02 0.500883721995484D+02 0.329044861991659D+02
 0.589731595846016D+02 0.225586163372981D+02 0.657107195038825D+01 -.540903262493423D+02
 0.000000000000000D+00 -.000000000000000D+00 0.000000000000000D+00 0.000000000000000D+00
 0.153992675424620D+03 0.000000000000000D+00 0.000000000000000D+00 0.153992675424620D+03
 0.153992675424620D+03 -.000000000000000D+00 -.000000000000000D+00 -.153992675424620D+03
 0.138015215435686D+03 -.933866201948300D+01 -.558666334518467D+02 0.146597527333085D+02
 0.108297616872400D+03 -.836012173314024D+01 0.507111762316908D+02 0.277778229176906D+02
 0.121153958593069D+02 0.566805820392088D+01 -.102484662327588D+02 0.310239792751981D+01
 0.495571226818472D+02 0.120307255487024D+02 0.154039234529147D+02 -.455399735785189D+02
0.188046540012D-03 0.000000000000D+00 0.000000000000D+00 0.271819460716D-04 0.000000000000D+00  6 -2 2 25 23 21 21 2 0.37381318D-02 0.15014774D+00 0.17666935D+05 0.17666935D+05 0.17666935D+05 0.12398010D+01  1  2  2  3  6  5       21 0.231151017970D+00 0.100000000000D+01
0.244154882198D-04 0.992348854890D-05 -.722148227438D-06 0.271819460716D-04 0.000000000000D+00  6 -2 2 25 23 21 21 4 0.37381318D-02 0.15014774D+00 0.17666935D+05 0.17666935D+05 0.17666935D+05 0.12398010D+01  1  2  3  3  6  5       21 0.461317389306D-01 0.100000000000D+01
0.419804345946D-05 0.000000000000D+00 0.000000000000D+00 0.271819460716D-04 0.000000000000D+00  6 -2 2 25 23 21 21 4 0.37381318D-02 0.15014774D+00 0.17666935D+05 0.17666935D+05 0.17666935D+05 0.12398010D+01  1  2 15  3  6  5       21 0.793197511135D-02 0.100000000000D+01
0.150719292041D-04 0.000000000000D+00 0.000000000000D+00 0.270666538101D-04 0.000000000000D+00  6 -2 2 25 23 21 21 4 0.37381318D-02 0.15014774D+00 0.18654884D+05 0.18654884D+05 0.18654884D+05 0.12371689D+01  1  2 12  3  6  5       21 0.282745881190D-01 0.100000000000D+01
-.414025742457D-04 0.000000000000D+00 0.000000000000D+00 0.271819460716D-04 0.000000000000D+00  6 -2 2 25 23 21 21 4 0.37381318D-02 0.15014774D+00 0.17666935D+05 0.17666935D+05 0.17666935D+05 0.12398010D+01  1  2  4  3  6  5       21 -.782279153692D-01 0.100000000000D+01
0.241547066065D-05 0.000000000000D+00 0.000000000000D+00 0.270666538101D-04 0.000000000000D+00  6 -2 2 25 23 1 -1 4 0.37381318D-02 0.15014774D+00 0.18654884D+05 0.18654884D+05 0.18654884D+05 0.12371689D+01  1  2 12  6  6  5       21 0.453136669623D-02 0.100000000000D+01
0.241547066065D-05 0.000000000000D+00 0.000000000000D+00 0.270666538101D-04 0.000000000000D+00  6 -2 2 25 23 3 -3 4 0.37381318D-02 0.15014774D+00 0.18654884D+05 0.18654884D+05 0.18654884D+05 0.12371689D+01  1  2 12  6  6  5       21 0.453136669623D-02 0.100000000000D+01
0.241547066065D-05 0.000000000000D+00 0.000000000000D+00 0.270666538101D-04 0.000000000000D+00  6 -2 2 25 23 2 -2 4 0.37381318D-02 0.15014774D+00 0.18654884D+05 0.18654884D+05 0.18654884D+05 0.12371689D+01  1  2 12  7  6  5       21 0.453136669623D-02 0.100000000000D+01
0.241547066065D-05 0.000000000000D+00 0.000000000000D+00 0.270666538101D-04 0.000000000000D+00  6 -2 2 25 23 4 -4 4 0.37381318D-02 0.15014774D+00 0.18654884D+05 0.18654884D+05 0.18654884D+05 0.12371689D+01  1  2 12  8  6  5       21 0.453136669623D-02 0.100000000000D+01
  </mgrwgt>
  </event>
  <event>
  6     66 0.42934962E-03 0.20842396E+02 0.75467711E-02 0.11203526E+00
       -2 -1    0    0    0  501 0.00000000E+00 0.00000000E+00 0.10991000E+03 0.10991046E+03 0.32000000E+00 0.0000E+00 0.9000E+01
        2 -1    0    0  502    0 -.00000000E+00 -.00000000E+00 -.70033468E+03 0.70033475E+03 0.32000000E+00 0.0000E+00 0.9000E+01
       25  1    1    2    0    0 -.11767252E+03 0.14696635E+03 -.84424711E+02 0.24124357E+03 0.12500000E+03 0.0000E+00 0.9000E+01
       23  1    1    2    0    0 0.11817510E+03 -.16997552E+03 -.44785902E+03 0.50174694E+03 0.91188000E+02 0.0000E+00 0.9000E+01
       21  1    1    2  502  503 -.38434500E+01 0.22601446E+02 -.59327961E+02 0.63607916E+02 0.75000000E+00 0.0000E+00 0.9000E+01
       21  1    1    2  503  501 0.33408622E+01 0.40772420E+00 0.11870123E+01 0.36467927E+01 0.75000000E+00 0.0000E+00 0.9000E+01
#aMCatNLO 2  0  0  5  2 0.63155606D+01 0.00000000D+00  -5  6  0 0.00000000D+00 0.00000000D+00 0.00000000D+00 0.00000000D+00 0.00000000D+00
  <mgrwgt>
 0.1500032710D+00    4    2    0
 0.277441885775764D+03 0.000000000000000D+00 0.000000000000000D+00 0.277441885775764D+03
 0.277441885775764D+03 -.000000000000000D+00 -.000000000000000D+00 -.277441885775764D+03
 0.261368041158196D+03 -.117584865433600D+03 0.142953603690695D+03 0.135743580149038D+03
 0.257727373231860D+03 0.118261086009686D+03 -.173911924472125D+03 -.117801127461524D+03
 0.357883571614722D+02 -.676220576085900D+00 0.309583207814297D+02 -.179424526875140D+02
 0.000000000000000D+00 0.000000000000000D+00 0.000000000000000D+00 0.000000000000000D+00
 0.277441885775764D+03 0.000000000000000D+00 0.000000000000000D+00 0.277441885775764D+03
 0.277441885775764D+03 -.000000000000000D+00 -.000000000000000D+00 -.277441885775764D+03
 0.262470843093917D+03 -.117675487222701D+03 0.147102395543530D+03 0.133339073068199D+03
 0.256056220616817D+03 0.118172203740948D+03 -.169842770286820D+03 -.120159479097050D+03
 0.295390960365681D+02 -.398936976043022D+01 0.222509851153460D+02 -.190141206730369D+02
 0.681761180422574D+01 0.349265324218349D+01 0.489389627944274D+00 0.583452670188798D+01
-.623656310532D-04 0.000000000000D+00 0.000000000000D+00 0.638335378746D-05 0.000000000000D+00  6 -2 2 25 23 21 21 4 0.16909272D-01 0.10774384D+00 0.57198235D+05 0.57198235D+05 0.57198235D+05 0.11865398D+01  1  2 13  3  6  5       21 -.145195899158D-01 0.100000000000D+01
-.470112511790D-04 0.000000000000D+00 0.000000000000D+00 0.638335378746D-05 0.000000000000D+00  6 -2 2 25 23 21 21 4 0.16909272D-01 0.10774384D+00 0.57198235D+05 0.57198235D+05 0.57198235D+05 0.11865398D+01  1  2 13  3  6  5       21 -.109448758398D-01 0.100000000000D+01
-.685731212119D-03 0.000000000000D+00 0.000000000000D+00 0.637346023248D-05 0.000000000000D+00  6 -2 2 25 23 21 21 4 0.16909272D-01 0.10774384D+00 0.58454986D+05 0.58454986D+05 0.58454986D+05 0.11856199D+01  1  2  8  3  6  5       21 -.159157861452D+00 0.100000000000D+01
0.143730895435D-02 0.000000000000D+00 0.000000000000D+00 0.637346023248D-05 0.352708497319D-05  6 -2 2 25 23 21 21 4 0.16909272D-01 0.10774384D+00 0.57198235D+05 0.57198235D+05 0.57198235D+05 0.11865398D+01  1  2  1  3  6  5       21 0.334625598220D+00 0.100000000000D+01
  </mgrwgt>
  </event>
  <event>
  6     66 0.42934962E-03 0.16632203E+02 0.75467711E-02 0.11491604E+00
       -2 -1    0    0    0  503 0.00000000E+00 0.00000000E+00 0.60181304E+02 0.60182155E+02 0.32000000E+00 0.0000E+00 0.9000E+01
        2 -1    0    0  502    0 0.00000000E+00 0.00000000E+00 -.11714063E+04 0.11714063E+04 0.32000000E+00 0.0000E+00 0.9000E+01
       25  1    1    2    0    0 -.66491393E+02 0.11341316E+03 -.91642289E+03 0.93420532E+03 0.12500000E+03 0.0000E+00 0.9000E+01
       23  1    1    2    0    0 0.64037503E+02 -.14498816E+03 -.17888662E+03 0.25580860E+03 0.91188000E+02 0.0000E+00 0.9000E+01
       21  1    1    2  502  501 0.10833588E+02 0.20799809E+02 -.15051457E+02 0.27876648E+02 0.75000000E+00 0.0000E+00 0.9000E+01
       21  1    1    2  501  503 -.83796988E+01 0.10775192E+02 -.86401783E+00 0.13697924E+02 0.75000000E+00 0.0000E+00 0.9000E+01
#aMCatNLO 2  0  0  1  5 0.13650059D+02 0.00000000D+00  -5  6  0 0.00000000D+00 0.00000000D+00 0.00000000D+00 0.00000000D+00 0.00000000D+00
  <mgrwgt>
 0.1887385493D+00    1    2    0
 0.250084796897413D+03 0.000000000000000D+00 0.000000000000000D+00 0.250084796897413D+03
 0.250084796897413D+03 0.000000000000000D+00 0.000000000000000D+00 -.250084796897413D+03
 0.243875983156514D+03 -.705470680757619D+02 0.118624271400209D+03 -.157486153617516D+03
 0.221562960299684D+03 0.602906826781697D+02 -.140173824957620D+03 0.132254400349138D+03
 0.347306503386272D+02 0.102563853975922D+02 0.215495535574111D+02 0.252317532683782D+02
 0.000000000000000D+00 -.000000000000000D+00 0.000000000000000D+00 0.000000000000000D+00
 0.280032272634057D+03 0.000000000000000D+00 0.000000000000000D+00 0.280032272634057D+03
 0.251738185413109D+03 0.000000000000000D+00 0.000000000000000D+00 -.251738185413109D+03
 0.240229327389702D+03 -.664925416671000D+02 0.113410683180720D+03 -.157486153617516D+03
 0.225675322312739D+03 0.640364367286069D+02 -.144990372495390D+03 0.132254400349138D+03
 0.344511703548920D+02 0.108358037862992D+02 0.208044976418634D+02 0.252317532683782D+02
 0.314146379898333D+02 -.837969884780615D+01 0.107751916728064D+02 0.282940872209485D+02
0.580463499298D-03 0.000000000000D+00 0.000000000000D+00 0.953323525640D-05 0.240929269796D-06  6 -2 2 25 23 21 21 4 0.92585673D-02 0.18021323D+00 0.40275377D+05 0.40275377D+05 0.40275377D+05 0.12016978D+01  1  2  1  1  6  1       -2 0.188738549314D+00 0.100000000000D+01
  </mgrwgt>
  </event>
  <event>
  6     66 0.42934962E-03 0.17231551E+02 0.75467711E-02 0.11105320E+00
       -2 -1    0    0    0  501 0.00000000E+00 0.00000000E+00 0.42318293E+03 0.42318305E+03 0.32000000E+00 0.0000E+00 0.9000E+01
        2 -1    0    0  503    0 0.00000000E+00 0.00000000E+00 -.23988959E+03 0.23988981E+03 0.32000000E+00 0.0000E+00 0.9000E+01
       25  1    1    2    0    0 -.20535717E+03 0.13919349E+02 0.18402619E+03 0.30307747E+03 0.12500000E+03 0.0000E+00 0.9000E+01
       23  1    1    2    0    0 0.20255823E+03 0.25460059E+02 -.35275404E+02 0.22635737E+03 0.91188000E+02 0.0000E+00 0.9000E+01
       21  1    1    2  502  501 -.89151189E+01 -.15819290E+02 0.79494982E+02 0.81545962E+02 0.75000000E+00 0.0000E+00 0.9000E+01
       21  1    1    2  503  502 0.11714056E+02 -.23560119E+02 -.44952430E+02 0.52092051E+02 0.75000000E+00 0.0000E+00 0.9000E+01
#aMCatNLO 2  0  0  2  5 0.39584757D+02 0.00000000D+00  -5  6  0 0.00000000D+00 0.00000000D+00 0.00000000D+00 0.00000000D+00 0.00000000D+00
  <mgrwgt>
 0.6518944811D+00    1    2    0
 0.283067620598955D+03 0.000000000000000D+00 0.000000000000000D+00 0.283067620598955D+03
 0.283067620598955D+03 0.000000000000000D+00 0.000000000000000D+00 -.283067620598955D+03
 0.248063206249039D+03 -.200179773182235D+03 0.350751588461223D+01 0.763289593508351D+02
 0.261642735282570D+03 0.207934058205365D+03 0.146492072204961D+02 -.129191709285866D+03
 0.564292996663007D+02 -.775428502313025D+01 -.181567231051083D+02 0.528627499350313D+02
 0.000000000000000D+00 0.000000000000000D+00 -.000000000000000D+00 -.000000000000000D+00
 0.285782053010139D+03 0.000000000000000D+00 0.000000000000000D+00 0.285782053010139D+03
 0.355221589909020D+03 0.000000000000000D+00 0.000000000000000D+00 -.355221589909020D+03
 0.252618910548989D+03 -.205356852989392D+03 0.139200165829573D+02 0.763289593508351D+02
 0.258232374271016D+03 0.202558521828860D+03 0.254608574865322D+02 -.129191709285866D+03
 0.558950514163011D+02 -.891572480763987D+01 -.158207551429042D+02 0.528627499350313D+02
 0.742573066828533D+02 0.117140559681712D+02 -.235601189265852D+02 -.694395368988809D+02
0.107082959515D-01 0.000000000000D+00 0.000000000000D+00 0.165206898776D-04 0.113689509760D-06  6 -2 2 25 23 21 21 4 0.65104663D-01 0.36905874D-01 0.64738521D+05 0.64738521D+05 0.64738521D+05 0.11813279D+01  1  2  1  2  6  2        2 0.651894481062D+00 0.100000000000D+01
  </mgrwgt>
  </event>
  <event>
  6     66 -.42934962E-03 0.62467063E+02 0.75467711E-02 0.11742047E+00
       -2 -1    0    0    0  501 0.00000000E+00 0.00000000E+00 0.29628786E+02 0.29630514E+02 0.32000000E+00 0.0000E+00 0.9000E+01
        2 -1    0    0  502    0 -.00000000E+00 -.00000000E+00 -.27965039E+04 0.27965039E+04 0.32000000E+00 0.0000E+00 0.9000E+01
       25  1    1    2    0    0 -.55963257E+02 0.33099719E+02 -.19035863E+04 0.19087936E+04 0.12500000E+03 0.0000E+00 0.9000E+01
       23  1    1    2    0    0 0.84936264E+02 0.21929758E+02 -.77285714E+03 0.78314653E+03 0.91188000E+02 0.0000E+00 0.9000E+01
       21  1    1    2  503  501 -.40379232E+02 -.54927024E+02 -.33197054E+02 0.75829198E+02 0.75000000E+00 0.0000E+00 0.9000E+01
       21  1    1    2  502  503 0.11406226E+02 -.10245355E+00 -.57234633E+02 0.58365042E+02 0.75000000E+00 0.0000E+00 0.9000E+01
#aMCatNLO 2  0  0  5  2 0.11290468D+02 0.00000000D+00  -5  6  0 0.00000000D+00 0.00000000D+00 0.00000000D+00 0.00000000D+00 0.00000000D+00
  <mgrwgt>
 -.7620458478D-01    3    2    0
 0.287853233453224D+03 0.000000000000000D+00 0.000000000000000D+00 0.287853233453224D+03
 0.287853233453224D+03 -.000000000000000D+00 -.000000000000000D+00 -.287853233453224D+03
 0.225531546299199D+03 -.552208948271476D+02 0.345097155089882D+02 -.176065927101429D+03
 0.131215216963063D+03 0.853701511407330D+02 0.227538551762933D+02 -.331116473085906D+02
 0.218959703644186D+03 -.301492563135853D+02 -.572635706852815D+02 0.209177574410019D+03
 0.000000000000000D+00 0.000000000000000D+00 0.000000000000000D+00 0.000000000000000D+00
 0.287853233453224D+03 0.000000000000000D+00 0.000000000000000D+00 0.287853233453224D+03
 0.287853233453224D+03 -.000000000000000D+00 -.000000000000000D+00 -.287853233453224D+03
 0.221490485770345D+03 -.559659842919261D+02 0.330945401962235D+02 -.170896446125190D+03
 0.130059023551099D+03 0.849346632451502D+02 0.219267172982670D+02 -.300902029075928D+02
 0.212689959290192D+03 -.404254492398567D+02 -.549220497368203D+02 0.201460592397932D+03
 0.114669982948119D+02 0.114567702866326D+02 -.992077576702277D-01 -.473943365149117D+00
-.534689054532D-03 0.000000000000D+00 0.000000000000D+00 0.523033613326D-05 0.000000000000D+00  6 -2 2 25 23 21 21 4 0.45584092D-02 0.43023150D+00 0.30116461D+05 0.30116461D+05 0.30116461D+05 0.12147218D+01  1  2 13  3  6  5       21 -.736691445332D-01 0.100000000000D+01
-.526234782347D-03 0.000000000000D+00 0.000000000000D+00 0.526393212129D-05 0.000000000000D+00  6 -2 2 25 23 21 21 4 0.45584092D-02 0.43023150D+00 0.27660412D+05 0.27660412D+05 0.27660412D+05 0.12186168D+01  1  2  8  3  6  5       21 -.736084769370D-01 0.100000000000D+01
0.515846560102D-03 0.000000000000D+00 0.000000000000D+00 0.526393212129D-05 0.120992841372D-06  6 -2 2 25 23 21 21 4 0.45584092D-02 0.43023150D+00 0.30116461D+05 0.30116461D+05 0.30116461D+05 0.12147218D+01  1  2  1  3  6  5       21 0.710730366949D-01 0.100000000000D+01
  </mgrwgt>
  </event>
  <event>
  5     66 0.42934962E-03 0.42538836E+02 0.75467711E-02 0.12184789E+00
       -2 -1    0    0    0  501 0.00000000E+00 0.00000000E+00 0.10289344E+03 0.10289394E+03 0.32000000E+00 0.0000E+00 0.9000E+01
        2 -1    0    0  502    0 -.00000000E+00 -.00000000E+00 -.24342005E+03 0.24342026E+03 0.32000000E+00 0.0000E+00 0.9000E+01
       25  1    1    2    0    0 0.16930480E+02 0.29737045E+02 -.42881727E+01 0.12967005E+03 0.12500000E+03 0.0000E+00 0.9000E+01
       23  1    1    2    0    0 0.25217132E+02 -.35481059E+02 -.35176960E+02 0.10699289E+03 0.91188000E+02 0.0000E+00 0.9000E+01
       21  1    1    2  502  501 -.42147612E+02 0.57440137E+01 -.10106147E+03 0.10965126E+03 0.75000000E+00 0.0000E+00 0.9000E+01
#aMCatNLO 1  0  0  5  1 0.57524943D+01 0.00000000D+00  -5  6  0 0.00000000D+00 0.00000000D+00 0.00000000D+00 0.00000000D+00 0.00000000D+00
  <mgrwgt>
 0.1273582437D+00   20    2    0
 0.158260701084419D+03 0.000000000000000D+00 0.000000000000000D+00 0.158260701084419D+03
 0.158260701084419D+03 -.000000000000000D+00 -.000000000000000D+00 -.158260701084419D+03
 0.139972104611195D+03 0.169314091816152D+02 0.297369182454911D+02 0.528794208144638D+02
 0.101446379463089D+03 0.252178058249798D+02 -.354811504424819D+02 0.901480974955595D+01
 0.751029180945531D+02 -.421492150065950D+02 0.574423219699077D+01 -.618942305640198D+02
 0.000000000000000D+00 0.000000000000000D+00 0.000000000000000D+00 -.000000000000000D+00
 0.158260701084419D+03 0.000000000000000D+00 0.000000000000000D+00 0.158260701084419D+03
 0.158260701084419D+03 -.000000000000000D+00 -.000000000000000D+00 -.158260701084419D+03
 0.139438864318311D+03 0.160962838482907D+02 0.298507318438572D+02 0.516530767432267D+02
 0.101193343059873D+03 0.246121403907804D+02 -.353986083859528D+02 0.812541724193442D+01
 0.687103997500434D+01 -.639539606065280D+01 -.247421410224640D+01 -.434009379781763D+00
 0.690181548156503D+02 -.343130281784183D+02 0.802209064434200D+01 -.593444846053793D+02
0.115669206809D-03 0.000000000000D+00 0.000000000000D+00 0.928260133997D-05 0.000000000000D+00  6 -2 2 25 23 21 21 2 0.15829815D-01 0.37449293D-01 0.18657251D+05 0.18657251D+05 0.18657251D+05 0.12371628D+01  1  2  2  3  6  5       21 0.731249961249D-01 0.100000000000D+01
0.228197402081D-05 0.610403174212D-05 -.444200210549D-06 0.928260133997D-05 0.000000000000D+00  6 -2 2 25 23 21 21 4 0.15829815D-01 0.37449293D-01 0.18657251D+05 0.18657251D+05 0.18657251D+05 0.12371628D+01  1  2  3  3  6  5       21 0.220806813958D-02 0.100000000000D+01
0.277948890143D-05 0.000000000000D+00 0.000000000000D+00 0.928260133997D-05 0.000000000000D+00  6 -2 2 25 23 21 21 4 0.15829815D-01 0.37449293D-01 0.18657251D+05 0.18657251D+05 0.18657251D+05 0.12371628D+01  1  2 15  3  6  5       21 0.268947009546D-02 0.100000000000D+01
0.297985872117D-05 0.000000000000D+00 0.000000000000D+00 0.928632567919D-05 0.000000000000D+00  6 -2 2 25 23 21 21 4 0.15829815D-01 0.37449293D-01 0.18561496D+05 0.18561496D+05 0.18561496D+05 0.12374109D+01  1  2 12  3  6  5       21 0.288526721472D-02 0.100000000000D+01
-.278481048826D-04 0.000000000000D+00 0.000000000000D+00 0.928260133997D-05 0.000000000000D+00  6 -2 2 25 23 21 21 4 0.15829815D-01 0.37449293D-01 0.18657251D+05 0.18657251D+05 0.18657251D+05 0.12371628D+01  1  2  4  3  6  5       21 -.269461933301D-01 0.100000000000D+01
-.529844831425D-05 0.000000000000D+00 0.000000000000D+00 0.928260133997D-05 0.000000000000D+00  6 -2 2 25 23 21 21 4 0.15829815D-01 0.37449293D-01 0.18657251D+05 0.18657251D+05 0.18657251D+05 0.12371628D+01  1  2  5  3  6  5       21 -.512684842388D-02 0.100000000000D+01
0.864043221824D-04 0.000000000000D+00 -.000000000000D+00 0.928260133997D-05 0.000000000000D+00  6 -2 2 25 23 21 21 4 0.15829815D-01 0.37449293D-01 0.18657251D+05 0.18657251D+05 0.18657251D+05 0.12371628D+01  1  2  6  3  6  5       21 0.836059609765D-01 0.100000000000D+01
0.173538010139D-05 0.000000000000D+00 0.000000000000D+00 0.928260133997D-05 0.187868879696D-05  6 -2 2 25 23 21 21 4 0.15829815D-01 0.37449293D-01 0.18561496D+05 0.18561496D+05 0.18561496D+05 0.12374109D+01  1  2 11  3  6  5       21 0.168029285283D-02 0.100000000000D+01
0.219425331513D-05 0.000000000000D+00 0.000000000000D+00 0.928632567919D-05 0.000000000000D+00  6 -2 2 25 23 1 -1 4 0.15829815D-01 0.37449293D-01 0.18561496D+05 0.18561496D+05 0.18561496D+05 0.12374109D+01  1  2 12  6  6  5       21 0.212459976910D-02 0.100000000000D+01
0.219425331513D-05 0.000000000000D+00 0.000000000000D+00 0.928632567919D-05 0.000000000000D+00  6 -2 2 25 23 3 -3 4 0.15829815D-01 0.37449293D-01 0.18561496D+05 0.18561496D+05 0.18561496D+05 0.12374109D+01  1  2 12  6  6  5       21 0.212459976910D-02 0.100000000000D+01
-.511526718169D-05 0.000000000000D+00 0.000000000000D+00 0.928260133997D-05 0.000000000000D+00  6 -2 2 25 23 1 -1 4 0.15829815D-01 0.37449293D-01 0.18657251D+05 0.18657251D+05 0.18657251D+05 0.12371628D+01  1  2  5  6  6  5       21 -.494959994564D-02 0.100000000000D+01
-.511526718169D-05 0.000000000000D+00 0.000000000000D+00 0.928260133997D-05 0.000000000000D+00  6 -2 2 25 23 3 -3 4 0.15829815D-01 0.37449293D-01 0.18657251D+05 0.18657251D+05 0.18657251D+05 0.12371628D+01  1  2  5  6  6  5       21 -.494959994564D-02 0.100000000000D+01
0.117794524506D-05 0.000000000000D+00 0.000000000000D+00 0.928260133997D-05 0.157563616920D-07  6 -2 2 25 23 1 -1 4 0.15829815D-01 0.37449293D-01 0.18561496D+05 0.18561496D+05 0.18561496D+05 0.12374109D+01  1  2 11  6  6  5       21 0.114055299742D-02 0.100000000000D+01
0.117794524506D-05 0.000000000000D+00 0.000000000000D+00 0.928260133997D-05 0.157563616920D-07  6 -2 2 25 23 3 -3 4 0.15829815D-01 0.37449293D-01 0.18561496D+05 0.18561496D+05 0.18561496D+05 0.12374109D+01  1  2 11  6  6  5       21 0.114055299742D-02 0.100000000000D+01
0.219425331513D-05 0.000000000000D+00 0.000000000000D+00 0.928632567919D-05 0.000000000000D+00  6 -2 2 25 23 2 -2 4 0.15829815D-01 0.37449293D-01 0.18561496D+05 0.18561496D+05 0.18561496D+05 0.12374109D+01  1  2 12  7  6  5       21 0.212459976910D-02 0.100000000000D+01
-.511526718169D-05 0.000000000000D+00 0.000000000000D+00 0.928260133997D-05 0.000000000000D+00  6 -2 2 25 23 2 -2 4 0.15829815D-01 0.37449293D-01 0.18657251D+05 0.18657251D+05 0.18657251D+05 0.12371628D+01  1  2  5  7  6  5       21 -.494959994564D-02 0.100000000000D+01
0.115649588717D-05 0.000000000000D+00 0.000000000000D+00 0.928260133997D-05 0.173583326813D-07  6 -2 2 25 23 2 -2 4 0.15829815D-01 0.37449293D-01 0.18561496D+05 0.18561496D+05 0.18561496D+05 0.12374109D+01  1  2 11  7  6  5       21 0.111978451982D-02 0.100000000000D+01
0.219425331513D-05 0.000000000000D+00 0.000000000000D+00 0.928632567919D-05 0.000000000000D+00  6 -2 2 25 23 4 -4 4 0.15829815D-01 0.37449293D-01 0.18561496D+05 0.18561496D+05 0.18561496D+05 0.12374109D+01  1  2 12  8  6  5       21 0.212459976910D-02 0.100000000000D+01
-.511526718169D-05 0.000000000000D+00 0.000000000000D+00 0.928260133997D-05 0.000000000000D+00  6 -2 2 25 23 4 -4 4 0.15829815D-01 0.37449293D-01 0.18657251D+05 0.18657251D+05 0.18657251D+05 0.12371628D+01  1  2  5  8  6  5       21 -.494959994564D-02 0.100000000000D+01
0.117359438945D-05 0.000000000000D+00 0.000000000000D+00 0.928260133997D-05 0.156981640338D-07  6 -2 2 25 23 4 -4 4 0.15829815D-01 0.37449293D-01 0.18561496D+05 0.18561496D+05 0.18561496D+05 0.12374109D+01  1  2 11  8  6  5       21 0.113634025372D-02 0.100000000000D+01
  </mgrwgt>
  </event>
  <event>
  5     66 -.42934962E-03 0.23692182E+02 0.75467711E-02 0.12330567E+00
       -2 -1    0    0    0  501 0.00000000E+00 0.00000000E+00 0.59496729E+02 0.59497590E+02 0.32000000E+00 0.0000E+00 0.9000E+01
        2 -1    0    0  502    0 -.00000000E+00 -.00000000E+00 -.31527177E+03 0.31527193E+03 0.32000000E+00 0.0000E+00 0.9000E+01
       25  1    1    2    0    0 0.39771283E+02 -.28515872E+02 -.11934546E+03 0.17961973E+03 0.12500000E+03 0.0000E+00 0.9000E+01
       23  1    1    2    0    0 -.19427657E+02 0.16379394E+02 -.53148905E+02 0.10856231E+03 0.91188000E+02 0.0000E+00 0.9000E+01
       21  1    1    2  502  501 -.20343626E+02 0.12136478E+02 -.83280682E+02 0.86587480E+02 0.75000000E+00 0.0000E+00 0.9000E+01
#aMCatNLO 1  0  0  5  1 0.40507684D+01 0.00000000D+00  -5  6  0 0.00000000D+00 0.00000000D+00 0.00000000D+00 0.00000000D+00 0.00000000D+00
  <mgrwgt>
 -.6313451894D+00   20    2    0
 0.136959230925719D+03 0.000000000000000D+00 0.000000000000000D+00 0.136959230925719D+03
 0.136959230925719D+03 -.000000000000000D+00 -.000000000000000D+00 -.136959230925719D+03
 0.134312352915861D+03 0.397729770225434D+02 -.285168824056271D+02 0.443912856569631D+01
 0.989044076303561D+02 -.194264101082205D+02 0.163786496569467D+02 0.286563244404071D+02
 0.407017013052201D+02 -.203465669143229D+02 0.121382327486804D+02 -.330954530061034D+02
 0.000000000000000D+00 0.000000000000000D+00 0.000000000000000D+00 0.000000000000000D+00
 0.136959230925719D+03 0.000000000000000D+00 0.000000000000000D+00 0.136959230925719D+03
 0.136959230925719D+03 -.000000000000000D+00 -.000000000000000D+00 -.136959230925719D+03
 0.134005725221559D+03 0.391168148769425D+02 -.281254331317660D+02 0.337182401522535D+01
 0.988239664259547D+02 -.199099476881987D+02 0.166671156037191D+02 0.278698086944221D+02
 0.365076621440177D+02 -.154734061073405D+02 0.887491905195801D+01 -.318530832178025D+02
 0.458110805990584D+01 -.373346108140326D+01 0.258339847608888D+01 0.611450508155041D+00
0.109876356418D-03 0.000000000000D+00 0.000000000000D+00 0.270902202601D-04 0.000000000000D+00  6 -2 2 25 23 21 21 2 0.91534217D-02 0.48503428D-01 0.15950827D+05 0.15950827D+05 0.15950827D+05 0.12447911D+01  1  2  2  3  6  5       21 0.127625690061D+00 0.100000000000D+01
0.132840763719D-04 0.579833462844D-05 -.421954139755D-06 0.270902202601D-04 0.000000000000D+00  6 -2 2 25 23 21 21 4 0.91534217D-02 0.48503428D-01 0.15950827D+05 0.15950827D+05 0.15950827D+05 0.12447911D+01  1  2  3  3  6  5       21 0.239088197181D-01 0.100000000000D+01
0.429907912185D-05 0.000000000000D+00 0.000000000000D+00 0.270902202601D-04 0.000000000000D+00  6 -2 2 25 23 21 21 4 0.91534217D-02 0.48503428D-01 0.15950827D+05 0.15950827D+05 0.15950827D+05 0.12447911D+01  1  2 15  3  6  5       21 0.773752760829D-02 0.100000000000D+01
0.737387435217D-05 0.000000000000D+00 0.000000000000D+00 0.271146841387D-04 0.000000000000D+00  6 -2 2 25 23 21 21 4 0.91534217D-02 0.48503428D-01 0.15769586D+05 0.15769586D+05 0.15769586D+05 0.12453530D+01  1  2 12  3  6  5       21 0.132902657639D-01 0.100000000000D+01
0.446524642389D-05 0.000000000000D+00 0.000000000000D+00 0.271146841387D-04 0.000000000000D+00  6 -2 2 25 23 21 21 4 0.91534217D-02 0.48503428D-01 0.15769586D+05 0.15769586D+05 0.15769586D+05 0.12453530D+01  1  2 12  3  6  5       21 0.804791468372D-02 0.100000000000D+01
-.518860898244D-03 0.000000000000D+00 0.000000000000D+00 0.270902202601D-04 0.000000000000D+00  6 -2 2 25 23 21 21 4 0.91534217D-02 0.48503428D-01 0.15950827D+05 0.15950827D+05 0.15950827D+05 0.12447911D+01  1  2  4  3  6  5       21 -.933851276339D+00 0.100000000000D+01
-.482277281636D-03 0.000000000000D+00 0.000000000000D+00 0.270902202601D-04 0.000000000000D+00  6 -2 2 25 23 21 21 4 0.91534217D-02 0.48503428D-01 0.15950827D+05 0.15950827D+05 0.15950827D+05 0.12447911D+01  1  2  5  3  6  5       21 -.868007700195D+00 0.100000000000D+01
0.560349987750D-03 0.000000000000D+00 -.000000000000D+00 0.270902202601D-04 0.000000000000D+00  6 -2 2 25 23 21 21 4 0.91534217D-02 0.48503428D-01 0.15950827D+05 0.15950827D+05 0.15950827D+05 0.12447911D+01  1  2  6  3  6  5       21 0.100852377396D+01 0.100000000000D+01
0.248172995530D-06 0.000000000000D+00 0.000000000000D+00 0.271146841387D-04 0.000000000000D+00  6 -2 2 25 23 1 -1 4 0.91534217D-02 0.48503428D-01 0.15769586D+05 0.15769586D+05 0.15769586D+05 0.12453530D+01  1  2 12  6  6  5       21 0.447293364178D-03 0.100000000000D+01
0.248172995530D-06 0.000000000000D+00 0.000000000000D+00 0.271146841387D-04 0.000000000000D+00  6 -2 2 25 23 3 -3 4 0.91534217D-02 0.48503428D-01 0.15769586D+05 0.15769586D+05 0.15769586D+05 0.12453530D+01  1  2 12  6  6  5       21 0.447293364178D-03 0.100000000000D+01
0.207003279060D-06 0.000000000000D+00 0.000000000000D+00 0.271146841387D-04 0.000000000000D+00  6 -2 2 25 23 1 -1 4 0.91534217D-02 0.48503428D-01 0.15769586D+05 0.15769586D+05 0.15769586D+05 0.12453530D+01  1  2 12  6  6  5       21 0.373091330461D-03 0.100000000000D+01
0.207003279060D-06 0.000000000000D+00 0.000000000000D+00 0.271146841387D-04 0.000000000000D+00  6 -2 2 25 23 3 -3 4 0.91534217D-02 0.48503428D-01 0.15769586D+05 0.15769586D+05 0.15769586D+05 0.12453530D+01  1  2 12  6  6  5       21 0.373091330461D-03 0.100000000000D+01
-.304222913875D-05 0.000000000000D+00 0.000000000000D+00 0.270902202601D-04 0.000000000000D+00  6 -2 2 25 23 1 -1 4 0.91534217D-02 0.48503428D-01 0.15950827D+05 0.15950827D+05 0.15950827D+05 0.12447911D+01  1  2  5  6  6  5       21 -.547543585140D-02 0.100000000000D+01
-.304222913875D-05 0.000000000000D+00 0.000000000000D+00 0.270902202601D-04 0.000000000000D+00  6 -2 2 25 23 3 -3 4 0.91534217D-02 0.48503428D-01 0.15950827D+05 0.15950827D+05 0.15950827D+05 0.12447911D+01  1  2  5  6  6  5       21 -.547543585140D-02 0.100000000000D+01
0.248172995530D-06 0.000000000000D+00 0.000000000000D+00 0.271146841387D-04 0.000000000000D+00  6 -2 2 25 23 2 -2 4 0.91534217D-02 0.48503428D-01 0.15769586D+05 0.15769586D+05 0.15769586D+05 0.12453530D+01  1  2 12  7  6  5       21 0.447293364178D-03 0.100000000000D+01
0.207003279060D-06 0.000000000000D+00 0.000000000000D+00 0.271146841387D-04 0.000000000000D+00  6 -2 2 25 23 2 -2 4 0.91534217D-02 0.48503428D-01 0.15769586D+05 0.15769586D+05 0.15769586D+05 0.12453530D+01  1  2 12  7  6  5       21 0.373091330461D-03 0.100000000000D+01
-.304222913875D-05 0.000000000000D+00 0.000000000000D+00 0.270902202601D-04 0.000000000000D+00  6 -2 2 25 23 2 -2 4 0.91534217D-02 0.48503428D-01 0.15950827D+05 0.15950827D+05 0.15950827D+05 0.12447911D+01  1  2  5  7  6  5       21 -.547543585140D-02 0.100000000000D+01
0.248172995530D-06 0.000000000000D+00 0.000000000000D+00 0.271146841387D-04 0.000000000000D+00  6 -2 2 25 23 4 -4 4 0.91534217D-02 0.48503428D-01 0.15769586D+05 0.15769586D+05 0.15769586D+05 0.12453530D+01  1  2 12  8  6  5       21 0.447293364178D-03 0.100000000000D+01
0.207003279060D-06 0.000000000000D+00 0.000000000000D+00 0.271146841387D-04 0.000000000000D+00  6 -2 2 25 23 4 -4 4 0.91534217D-02 0.48503428D-01 0.15769586D+05 0.15769586D+05 0.15769586D+05 0.12453530D+01  1  2 12  8  6  5       21 0.373091330461D-03 0.100000000000D+01
-.304222913875D-05 0.000000000000D+00 0.000000000000D+00 0.270902202601D-04 0.000000000000D+00  6 -2 2 25 23 4 -4 4 0.91534217D-02 0.48503428D-01 0.15950827D+05 0.15950827D+05 0.15950827D+05 0.12447911D+01  1  2  5  8  6  5       21 -.547543585140D-02 0.100000000000D+01
  </mgrwgt>
  </event>
  <event>
  5     66 0.42934962E-03 0.41658944E+02 0.75467711E-02 0.11444363E+00
       -2 -1    0    0    0  501 0.00000000E+00 0.00000000E+00 0.24192762E+03 0.24192783E+03 0.32000000E+00 0.0000E+00 0.9000E+01
        2 -1    0    0  502    0 0.00000000E+00 0.00000000E+00 -.18234050E+03 0.18234078E+03 0.32000000E+00 0.0000E+00 0.9000E+01
       25  1    1    2    0    0 -.76169710E+02 0.11657065E+03 0.42740880E+02 0.19194354E+03 0.12500000E+03 0.0000E+00 0.9000E+01
       23  1    1    2    0    0 0.11701548E+03 -.10840560E+03 -.78300356E+01 0.18390475E+03 0.91188000E+02 0.0000E+00 0.9000E+01
       21  1    1    2  502  501 -.40845775E+02 -.81650465E+01 0.24676275E+02 0.48420309E+02 0.75000000E+00 0.0000E+00 0.9000E+01
#aMCatNLO 1  0  0  5  2 0.32497644D+01 0.00000000D+00  -5  6  0 0.00000000D+00 0.00000000D+00 0.00000000D+00 0.00000000D+00 0.00000000D+00
  <mgrwgt>
 0.1006708823D+00   25    2    0
 0.210031678868318D+03 0.000000000000000D+00 0.000000000000000D+00 0.210031678868318D+03
 0.210031678868318D+03 -.000000000000000D+00 -.000000000000000D+00 -.210031678868318D+03
 0.187801381491013D+03 -.761672180921191D+02 0.116571144969044D+03 0.159399478872080D+02
 0.186857997767179D+03 0.117017963732915D+03 -.108405104738557D+03 -.339969030351853D+02
 0.454039784784439D+02 -.408507456407960D+02 -.816604023048658D+01 0.180569551479772D+02
 0.000000000000000D+00 -.000000000000000D+00 0.000000000000000D+00 0.000000000000000D+00
 0.210031678868318D+03 0.000000000000000D+00 0.000000000000000D+00 0.210031678868318D+03
 0.210031678868318D+03 -.000000000000000D+00 -.000000000000000D+00 -.210031678868318D+03
 0.188135244018004D+03 -.772036318750028D+02 0.116363966458255D+03 0.163980662617619D+02
 0.186252917372999D+03 0.115989340106600D+03 -.108610726001590D+03 -.335422280863401D+02
 0.338359930990941D+01 0.386850047175213D+00 -.267605482721389D+01 0.203416368386753D+01
 0.422915970357237D+02 -.391725582787728D+02 -.507718562945086D+01 0.151099981407107D+02
0.479105777552D-03 0.000000000000D+00 0.000000000000D+00 0.519471242817D-05 0.000000000000D+00  6 -2 2 25 23 21 21 2 0.37219671D-01 0.28052422D-01 0.42543583D+05 0.42543583D+05 0.42543583D+05 0.11992908D+01  1  2  2  3  6  5       21 0.884520514582D-01 0.100000000000D+01
0.682167974199D-04 0.252831064956D-04 -.183989233725D-05 0.519471242817D-05 0.000000000000D+00  6 -2 2 25 23 21 21 4 0.37219671D-01 0.28052422D-01 0.42543583D+05 0.42543583D+05 0.42543583D+05 0.11992908D+01  1  2  3  3  6  5       21 0.181141037709D-01 0.100000000000D+01
0.144607124237D-05 0.000000000000D+00 0.000000000000D+00 0.519471242817D-05 0.000000000000D+00  6 -2 2 25 23 21 21 4 0.37219671D-01 0.28052422D-01 0.42543583D+05 0.42543583D+05 0.42543583D+05 0.11992908D+01  1  2 15  3  6  5       21 0.383985844178D-03 0.100000000000D+01
0.248862108431D-06 0.000000000000D+00 0.000000000000D+00 0.519414406557D-05 0.000000000000D+00  6 -2 2 25 23 21 21 4 0.37219671D-01 0.28052422D-01 0.42607369D+05 0.42607369D+05 0.42607369D+05 0.11992252D+01  1  2 12  3  6  5       21 0.660689218703D-04 0.100000000000D+01
0.277680010338D-06 0.000000000000D+00 0.000000000000D+00 0.519414406557D-05 0.000000000000D+00  6 -2 2 25 23 21 21 4 0.37219671D-01 0.28052422D-01 0.42607369D+05 0.42607369D+05 0.42607369D+05 0.11992252D+01  1  2 12  3  6  5       21 0.737196153471D-04 0.100000000000D+01
-.429753210477D-03 0.000000000000D+00 0.000000000000D+00 0.519471242817D-05 0.000000000000D+00  6 -2 2 25 23 21 21 4 0.37219671D-01 0.28052422D-01 0.42543583D+05 0.42543583D+05 0.42543583D+05 0.11992908D+01  1  2  4  3  6  5       21 -.114115504463D+00 0.100000000000D+01
-.113961747148D-04 0.000000000000D+00 0.000000000000D+00 0.519471242817D-05 0.000000000000D+00  6 -2 2 25 23 21 21 4 0.37219671D-01 0.28052422D-01 0.42543583D+05 0.42543583D+05 0.42543583D+05 0.11992908D+01  1  2  5  3  6  5       21 -.302610939215D-02 0.100000000000D+01
0.395545660743D-03 0.000000000000D+00 -.000000000000D+00 0.519471242817D-05 0.000000000000D+00  6 -2 2 25 23 21 21 4 0.37219671D-01 0.28052422D-01 0.42543583D+05 0.42543583D+05 0.42543583D+05 0.11992908D+01  1  2  6  3  6  5       21 0.105032124283D+00 0.100000000000D+01
0.117979631108D-04 0.000000000000D+00 0.000000000000D+00 0.519471242817D-05 0.280876541096D-05  6 -2 2 25 23 21 21 4 0.37219671D-01 0.28052422D-01 0.42607369D+05 0.42607369D+05 0.42607369D+05 0.11992252D+01  1  2 11  3  6  5       21 0.313217109633D-02 0.100000000000D+01
0.230969772454D-06 0.000000000000D+00 0.000000000000D+00 0.519414406557D-05 0.000000000000D+00  6 -2 2 25 23 1 -1 4 0.37219671D-01 0.28052422D-01 0.42607369D+05 0.42607369D+05 0.42607369D+05 0.11992252D+01  1  2 12  6  6  5       21 0.613187919483D-04 0.100000000000D+01
0.230969772454D-06 0.000000000000D+00 0.000000000000D+00 0.519414406557D-05 0.000000000000D+00  6 -2 2 25 23 3 -3 4 0.37219671D-01 0.28052422D-01 0.42607369D+05 0.42607369D+05 0.42607369D+05 0.11992252D+01  1  2 12  6  6  5       21 0.613187919483D-04 0.100000000000D+01
0.236079869881D-06 0.000000000000D+00 0.000000000000D+00 0.519414406557D-05 0.000000000000D+00  6 -2 2 25 23 1 -1 4 0.37219671D-01 0.28052422D-01 0.42607369D+05 0.42607369D+05 0.42607369D+05 0.11992252D+01  1  2 12  6  6  5       21 0.626754413385D-04 0.100000000000D+01
0.236079869881D-06 0.000000000000D+00 0.000000000000D+00 0.519414406557D-05 0.000000000000D+00  6 -2 2 25 23 3 -3 4 0.37219671D-01 0.28052422D-01 0.42607369D+05 0.42607369D+05 0.42607369D+05 0.11992252D+01  1  2 12  6  6  5       21 0.626754413385D-04 0.100000000000D+01
-.159049296097D-04 0.000000000000D+00 0.000000000000D+00 0.519471242817D-05 0.000000000000D+00  6 -2 2 25 23 1 -1 4 0.37219671D-01 0.28052422D-01 0.42543583D+05 0.42543583D+05 0.42543583D+05 0.11992908D+01  1  2  5  6  6  5       21 -.422335196484D-02 0.100000000000D+01
-.159049296097D-04 0.000000000000D+00 0.000000000000D+00 0.519471242817D-05 0.000000000000D+00  6 -2 2 25 23 3 -3 4 0.37219671D-01 0.28052422D-01 0.42543583D+05 0.42543583D+05 0.42543583D+05 0.11992908D+01  1  2  5  6  6  5       21 -.422335196484D-02 0.100000000000D+01
0.178622175980D-04 0.000000000000D+00 0.000000000000D+00 0.519471242817D-05 0.321066637771D-07  6 -2 2 25 23 1 -1 4 0.37219671D-01 0.28052422D-01 0.42607369D+05 0.42607369D+05 0.42607369D+05 0.11992252D+01  1  2 11  6  6  5       21 0.474213397273D-02 0.100000000000D+01
0.178622175980D-04 0.000000000000D+00 0.000000000000D+00 0.519471242817D-05 0.321066637771D-07  6 -2 2 25 23 3 -3 4 0.37219671D-01 0.28052422D-01 0.42607369D+05 0.42607369D+05 0.42607369D+05 0.11992252D+01  1  2 11  6  6  5       21 0.474213397273D-02 0.100000000000D+01
0.230969772454D-06 0.000000000000D+00 0.000000000000D+00 0.519414406557D-05 0.000000000000D+00  6 -2 2 25 23 2 -2 4 0.37219671D-01 0.28052422D-01 0.42607369D+05 0.42607369D+05 0.42607369D+05 0.11992252D+01  1  2 12  7  6  5       21 0.613187919483D-04 0.100000000000D+01
0.236079869881D-06 0.000000000000D+00 0.000000000000D+00 0.519414406557D-05 0.000000000000D+00  6 -2 2 25 23 2 -2 4 0.37219671D-01 0.28052422D-01 0.42607369D+05 0.42607369D+05 0.42607369D+05 0.11992252D+01  1  2 12  7  6  5       21 0.626754413385D-04 0.100000000000D+01
-.159049296097D-04 0.000000000000D+00 0.000000000000D+00 0.519471242817D-05 0.000000000000D+00  6 -2 2 25 23 2 -2 4 0.37219671D-01 0.28052422D-01 0.42543583D+05 0.42543583D+05 0.42543583D+05 0.11992908D+01  1  2  5  7  6  5       21 -.422335196484D-02 0.100000000000D+01
0.178022434834D-04 0.000000000000D+00 0.000000000000D+00 0.519471242817D-05 0.331028113603D-07  6 -2 2 25 23 2 -2 4 0.37219671D-01 0.28052422D-01 0.42607369D+05 0.42607369D+05 0.42607369D+05 0.11992252D+01  1  2 11  7  6  5       21 0.472621180153D-02 0.100000000000D+01
0.230969772454D-06 0.000000000000D+00 0.000000000000D+00 0.519414406557D-05 0.000000000000D+00  6 -2 2 25 23 4 -4 4 0.37219671D-01 0.28052422D-01 0.42607369D+05 0.42607369D+05 0.42607369D+05 0.11992252D+01  1  2 12  8  6  5       21 0.613187919483D-04 0.100000000000D+01
0.236079869881D-06 0.000000000000D+00 0.000000000000D+00 0.519414406557D-05 0.000000000000D+00  6 -2 2 25 23 4 -4 4 0.37219671D-01 0.28052422D-01 0.42607369D+05 0.42607369D+05 0.42607369D+05 0.11992252D+01  1  2 12  8  6  5       21 0.626754413385D-04 0.100000000000D+01
-.159049296097D-04 0.000000000000D+00 0.000000000000D+00 0.519471242817D-05 0.000000000000D+00  6 -2 2 25 23 4 -4 4 0.37219671D-01 0.28052422D-01 0.42543583D+05 0.42543583D+05 0.42543583D+05 0.11992908D+01  1  2  5  8  6  5       21 -.422335196484D-02 0.100000000000D+01
0.178738506858D-04 0.000000000000D+00 0.000000000000D+00 0.519471242817D-05 0.321275738145D-07  6 -2 2 25 23 4 -4 4 0.37219671D-01 0.28052422D-01 0.42607369D+05 0.42607369D+05 0.42607369D+05 0.11992252D+01  1  2 11  8  6  5       21 0.474522237206D-02 0.100000000000D+01
  </mgrwgt>
  </event>
  <event>
  5     66 0.42934962E-03 0.68753486E+02 0.75467711E-02 0.10609103E+00
       -2 -1    0    0    0  501 0.00000000E+00 0.00000000E+00 0.12079022E+03 0.12079064E+03 0.32000000E+00 0.0000E+00 0.9000E+01
        2 -1    0    0  502    0 -.00000000E+00 -.00000000E+00 -.15561112E+04 0.15561113E+04 0.32000000E+00 0.0000E+00 0.9000E+01
       25  1    1    2    0    0 0.20719877E+02 0.33186450E+03 -.58430168E+03 0.68381051E+03 0.12500000E+03 0.0000E+00 0.9000E+01
       23  1    1    2    0    0 -.29944178E+02 -.26373307E+03 -.21545577E+03 0.35381948E+03 0.91188000E+02 0.0000E+00 0.9000E+01
       21  1    1    2  502  501 0.92243013E+01 -.68131435E+02 -.63556359E+03 0.63927194E+03 0.75000000E+00 0.0000E+00 0.9000E+01
#aMCatNLO 1  0  0  5  1 0.33370512D+01 0.00000000D+00  -5  6  0 0.00000000D+00 0.00000000D+00 0.00000000D+00 0.00000000D+00 0.00000000D+00
  <mgrwgt>
 0.1554024533D+00   20    2    0
 0.433547462317253D+03 0.000000000000000D+00 0.000000000000000D+00 0.433547462317253D+03
 0.433547462317253D+03 -.000000000000000D+00 -.000000000000000D+00 -.433547462317253D+03
 0.355235454542440D+03 0.207198453019655D+02 0.331864731712531D+03 0.192769811082720D+01
 0.327614029506947D+03 -.299442067388200D+02 -.263732852399253D+03 0.169008958442785D+03
 0.184245440585118D+03 0.922436143685451D+01 -.681318793132776D+02 -.170936656553612D+03
 0.000000000000000D+00 0.000000000000000D+00 0.000000000000000D+00 0.000000000000000D+00
 0.433547462317253D+03 0.000000000000000D+00 0.000000000000000D+00 0.433547462317253D+03
 0.433547462317253D+03 -.000000000000000D+00 -.000000000000000D+00 -.433547462317253D+03
 0.355000235664306D+03 0.207538089430221D+02 0.331613873513907D+03 0.129831782403541D+01
 0.327498529453650D+03 -.299128790991210D+02 -.263964240878744D+03 0.168428425901370D+03
 0.424061097863162D+01 -.525937950690606D+00 0.205927286782876D+01 -.366954574844518D+01
 0.180355548537917D+03 0.968500810678950D+01 -.697089055029918D+02 -.166057197976960D+03
0.234294939191D-02 0.000000000000D+00 0.000000000000D+00 0.161390617994D-05 0.000000000000D+00  6 -2 2 25 23 21 21 2 0.18583146D-01 0.23940177D+00 0.12412874D+06 0.12412874D+06 0.12412874D+06 0.11550456D+01  1  2  2  3  6  5       21 0.943118598499D-01 0.100000000000D+01
0.253051270738D-03 0.123640836251D-03 -.899754257767D-05 0.161390617994D-05 0.000000000000D+00  6 -2 2 25 23 21 21 4 0.18583146D-01 0.23940177D+00 0.12412874D+06 0.12412874D+06 0.12412874D+06 0.11550456D+01  1  2  3  3  6  5       21 0.135897097915D-01 0.100000000000D+01
0.100446172318D-03 0.000000000000D+00 0.000000000000D+00 0.161390617994D-05 0.000000000000D+00  6 -2 2 25 23 21 21 4 0.18583146D-01 0.23940177D+00 0.12412874D+06 0.12412874D+06 0.12412874D+06 0.11550456D+01  1  2 15  3  6  5       21 0.539429945357D-02 0.100000000000D+01
0.317952781055D-06 0.000000000000D+00 0.000000000000D+00 0.161275553630D-05 0.000000000000D+00  6 -2 2 25 23 21 21 4 0.18583146D-01 0.23940177D+00 0.12544712D+06 0.12544712D+06 0.12544712D+06 0.11546338D+01  1  2 12  3  6  5       21 0.170463834488D-04 0.100000000000D+01
-.158464092485D-02 0.000000000000D+00 0.000000000000D+00 0.161390617994D-05 0.000000000000D+00  6 -2 2 25 23 21 21 4 0.18583146D-01 0.23940177D+00 0.12412874D+06 0.12412874D+06 0.12412874D+06 0.11550456D+01  1  2  4  3  6  5       21 -.851005815128D-01 0.100000000000D+01
-.123686962165D-04 0.000000000000D+00 0.000000000000D+00 0.161390617994D-05 0.000000000000D+00  6 -2 2 25 23 21 21 4 0.18583146D-01 0.23940177D+00 0.12412874D+06 0.12412874D+06 0.12412874D+06 0.11550456D+01  1  2  5  3  6  5       21 -.664240853604D-03 0.100000000000D+01
0.239859263267D-02 0.000000000000D+00 -.000000000000D+00 0.161390617994D-05 0.000000000000D+00  6 -2 2 25 23 21 21 4 0.18583146D-01 0.23940177D+00 0.12412874D+06 0.12412874D+06 0.12412874D+06 0.11550456D+01  1  2  6  3  6  5       21 0.128812543367D+00 0.100000000000D+01
0.414921747616D-05 0.000000000000D+00 0.000000000000D+00 0.161390617994D-05 0.548797748078D-06  6 -2 2 25 23 21 21 4 0.18583146D-01 0.23940177D+00 0.12544712D+06 0.12544712D+06 0.12544712D+06 0.11546338D+01  1  2 11  3  6  5       21 0.222451748578D-03 0.100000000000D+01
0.282997948456D-05 0.000000000000D+00 0.000000000000D+00 0.161275553630D-05 0.000000000000D+00  6 -2 2 25 23 1 -1 4 0.18583146D-01 0.23940177D+00 0.12544712D+06 0.12544712D+06 0.12544712D+06 0.11546338D+01  1  2 12  6  6  5       21 0.151723520977D-03 0.100000000000D+01
0.282997948456D-05 0.000000000000D+00 0.000000000000D+00 0.161275553630D-05 0.000000000000D+00  6 -2 2 25 23 3 -3 4 0.18583146D-01 0.23940177D+00 0.12544712D+06 0.12544712D+06 0.12544712D+06 0.11546338D+01  1  2 12  6  6  5       21 0.151723520977D-03 0.100000000000D+01
-.155908741530D-03 0.000000000000D+00 0.000000000000D+00 0.161390617994D-05 0.000000000000D+00  6 -2 2 25 23 1 -1 4 0.18583146D-01 0.23940177D+00 0.12412874D+06 0.12412874D+06 0.12412874D+06 0.11550456D+01  1  2  5  6  6  5       21 -.837282715540D-02 0.100000000000D+01
-.155908741530D-03 0.000000000000D+00 0.000000000000D+00 0.161390617994D-05 0.000000000000D+00  6 -2 2 25 23 3 -3 4 0.18583146D-01 0.23940177D+00 0.12412874D+06 0.12412874D+06 0.12412874D+06 0.11550456D+01  1  2  5  6  6  5       21 -.837282715540D-02 0.100000000000D+01
0.166207713081D-03 0.000000000000D+00 0.000000000000D+00 0.161390617994D-05 0.329791842887D-08  6 -2 2 25 23 1 -1 4 0.18583146D-01 0.23940177D+00 0.12544712D+06 0.12544712D+06 0.12544712D+06 0.11546338D+01  1  2 11  6  6  5       21 0.891088418829D-02 0.100000000000D+01
0.166207713081D-03 0.000000000000D+00 0.000000000000D+00 0.161390617994D-05 0.329791842887D-08  6 -2 2 25 23 3 -3 4 0.18583146D-01 0.23940177D+00 0.12544712D+06 0.12544712D+06 0.12544712D+06 0.11546338D+01  1  2 11  6  6  5       21 0.891088418829D-02 0.100000000000D+01
0.282997948456D-05 0.000000000000D+00 0.000000000000D+00 0.161275553630D-05 0.000000000000D+00  6 -2 2 25 23 2 -2 4 0.18583146D-01 0.23940177D+00 0.12544712D+06 0.12544712D+06 0.12544712D+06 0.11546338D+01  1  2 12  7  6  5       21 0.151723520977D-03 0.100000000000D+01
-.155908741530D-03 0.000000000000D+00 0.000000000000D+00 0.161390617994D-05 0.000000000000D+00  6 -2 2 25 23 2 -2 4 0.18583146D-01 0.23940177D+00 0.12412874D+06 0.12412874D+06 0.12412874D+06 0.11550456D+01  1  2  5  7  6  5       21 -.837282715540D-02 0.100000000000D+01
0.925968902980D-04 0.000000000000D+00 0.000000000000D+00 0.161390617994D-05 0.433864244801D-08  6 -2 2 25 23 2 -2 4 0.18583146D-01 0.23940177D+00 0.12544712D+06 0.12544712D+06 0.12544712D+06 0.11546338D+01  1  2 11  7  6  5       21 0.496439154565D-02 0.100000000000D+01
0.282997948456D-05 0.000000000000D+00 0.000000000000D+00 0.161275553630D-05 0.000000000000D+00  6 -2 2 25 23 4 -4 4 0.18583146D-01 0.23940177D+00 0.12544712D+06 0.12544712D+06 0.12544712D+06 0.11546338D+01  1  2 12  8  6  5       21 0.151723520977D-03 0.100000000000D+01
-.155908741530D-03 0.000000000000D+00 0.000000000000D+00 0.161390617994D-05 0.000000000000D+00  6 -2 2 25 23 4 -4 4 0.18583146D-01 0.23940177D+00 0.12412874D+06 0.12412874D+06 0.12412874D+06 0.11550456D+01  1  2  5  8  6  5       21 -.837282715540D-02 0.100000000000D+01
0.166333345508D-03 0.000000000000D+00 0.000000000000D+00 0.161390617994D-05 0.330041124637D-08  6 -2 2 25 23 4 -4 4 0.18583146D-01 0.23940177D+00 0.12544712D+06 0.12544712D+06 0.12544712D+06 0.11546338D+01  1  2 11  8  6  5       21 0.891761971207D-02 0.100000000000D+01
  </mgrwgt>
  </event>
  <event>
  5     66 0.42934962E-03 0.54481770E+02 0.75467711E-02 0.11896577E+00
       -2 -1    0    0    0  501 0.00000000E+00 0.00000000E+00 0.55395945E+02 0.55396869E+02 0.32000000E+00 0.0000E+00 0.9000E+01
        2 -1    0    0  502    0 -.00000000E+00 -.00000000E+00 -.48834476E+03 0.48834486E+03 0.32000000E+00 0.0000E+00 0.9000E+01
       25  1    1    2    0    0 0.40385856E+02 -.37499769E+02 -.24084687E+03 0.27689251E+03 0.12500000E+03 0.0000E+00 0.9000E+01
       23  1    1    2    0    0 -.11559797E+02 0.83727383E+02 -.16322251E+03 0.20518466E+03 0.91188000E+02 0.0000E+00 0.9000E+01
       21  1    1    2  502  501 -.28826059E+02 -.46227614E+02 -.28879431E+02 0.61664560E+02 0.75000000E+00 0.0000E+00 0.9000E+01
#aMCatNLO 1  0  0  5  1 0.20946080D+02 0.00000000D+00  -5  6  0 0.00000000D+00 0.00000000D+00 0.00000000D+00 0.00000000D+00 0.00000000D+00
  <mgrwgt>
 0.7460656956D-01   20    2    0
 0.164476743135198D+03 0.000000000000000D+00 0.000000000000000D+00 0.164476743135198D+03
 0.164476743135198D+03 -.000000000000000D+00 -.000000000000000D+00 -.164476743135198D+03
 0.140699792628590D+03 0.403867047488724D+02 -.374984073416526D+02 -.336781111717273D+02
 0.124335847750998D+03 -.115590466617387D+02 0.837285855927059D+02 0.253153858242433D+00
 0.639178458908084D+02 -.288276580871336D+02 -.462301782510533D+02 0.334249573134849D+02
 0.000000000000000D+00 0.000000000000000D+00 0.000000000000000D+00 0.000000000000000D+00
 0.164476743135198D+03 0.000000000000000D+00 0.000000000000000D+00 0.164476743135198D+03
 0.164476743135198D+03 -.000000000000000D+00 -.000000000000000D+00 -.164476743135198D+03
 0.140434755704307D+03 0.369671922054517D+02 -.429821921824548D+02 -.297132708627680D+02
 0.121536603224283D+03 -.145496571547472D+02 0.789326200046112D+02 0.372069283653645D+01
 0.245478524749301D+02 0.995236318589779D+01 -.223345962334830D+02 0.217102262406611D+01
 0.424342748668755D+02 -.323698982366022D+02 -.136158315886735D+02 0.238215554021655D+02
0.582448443964D-04 0.000000000000D+00 0.000000000000D+00 0.443613887574D-05 0.000000000000D+00  6 -2 2 25 23 21 21 2 0.85225322D-02 0.75130042D-01 0.24873561D+05 0.24873561D+05 0.24873561D+05 0.12235338D+01  1  2  2  3  6  5       21 0.462989643158D-01 0.100000000000D+01
0.478316997429D-06 0.307366488297D-05 -.223675538702D-06 0.443613887574D-05 0.000000000000D+00  6 -2 2 25 23 21 21 4 0.85225322D-02 0.75130042D-01 0.24873561D+05 0.24873561D+05 0.24873561D+05 0.12235338D+01  1  2  3  3  6  5       21 0.569195611376D-03 0.100000000000D+01
0.157861241999D-05 0.000000000000D+00 0.000000000000D+00 0.443613887574D-05 0.000000000000D+00  6 -2 2 25 23 21 21 4 0.85225322D-02 0.75130042D-01 0.24873561D+05 0.24873561D+05 0.24873561D+05 0.12235338D+01  1  2 15  3  6  5       21 0.187854344786D-02 0.100000000000D+01
0.742158252266D-05 0.000000000000D+00 0.000000000000D+00 0.443001358189D-05 0.000000000000D+00  6 -2 2 25 23 21 21 4 0.85225322D-02 0.75130042D-01 0.25329304D+05 0.25329304D+05 0.25329304D+05 0.12226888D+01  1  2 12  3  6  5       21 0.881138690797D-02 0.100000000000D+01
0.955220263600D-05 0.000000000000D+00 0.000000000000D+00 0.443001358189D-05 0.000000000000D+00  6 -2 2 25 23 21 21 4 0.85225322D-02 0.75130042D-01 0.25329304D+05 0.25329304D+05 0.25329304D+05 0.12226888D+01  1  2 12  3  6  5       21 0.113409980947D-01 0.100000000000D+01
-.196130407081D-04 0.000000000000D+00 0.000000000000D+00 0.443613887574D-05 0.000000000000D+00  6 -2 2 25 23 21 21 4 0.85225322D-02 0.75130042D-01 0.24873561D+05 0.24873561D+05 0.24873561D+05 0.12235338D+01  1  2  4  3  6  5       21 -.233394521976D-01 0.100000000000D+01
-.104069501042D-04 0.000000000000D+00 0.000000000000D+00 0.443613887574D-05 0.000000000000D+00  6 -2 2 25 23 21 21 4 0.85225322D-02 0.75130042D-01 0.24873561D+05 0.24873561D+05 0.24873561D+05 0.12235338D+01  1  2  5  3  6  5       21 -.123842354735D-01 0.100000000000D+01
0.363807574317D-04 0.000000000000D+00 -.000000000000D+00 0.443613887574D-05 0.000000000000D+00  6 -2 2 25 23 21 21 4 0.85225322D-02 0.75130042D-01 0.24873561D+05 0.24873561D+05 0.24873561D+05 0.12235338D+01  1  2  6  3  6  5       21 0.432929784641D-01 0.100000000000D+01
0.526987665859D-06 0.000000000000D+00 0.000000000000D+00 0.443001358189D-05 0.000000000000D+00  6 -2 2 25 23 1 -1 4 0.85225322D-02 0.75130042D-01 0.25329304D+05 0.25329304D+05 0.25329304D+05 0.12226888D+01  1  2 12  6  6  5       21 0.625674134247D-03 0.100000000000D+01
0.526987665859D-06 0.000000000000D+00 0.000000000000D+00 0.443001358189D-05 0.000000000000D+00  6 -2 2 25 23 3 -3 4 0.85225322D-02 0.75130042D-01 0.25329304D+05 0.25329304D+05 0.25329304D+05 0.12226888D+01  1  2 12  6  6  5       21 0.625674134247D-03 0.100000000000D+01
0.658246976329D-06 0.000000000000D+00 0.000000000000D+00 0.443001358189D-05 0.000000000000D+00  6 -2 2 25 23 1 -1 4 0.85225322D-02 0.75130042D-01 0.25329304D+05 0.25329304D+05 0.25329304D+05 0.12226888D+01  1  2 12  6  6  5       21 0.781513750164D-03 0.100000000000D+01
0.658246976329D-06 0.000000000000D+00 0.000000000000D+00 0.443001358189D-05 0.000000000000D+00  6 -2 2 25 23 3 -3 4 0.85225322D-02 0.75130042D-01 0.25329304D+05 0.25329304D+05 0.25329304D+05 0.12226888D+01  1  2 12  6  6  5       21 0.781513750164D-03 0.100000000000D+01
-.157365176636D-05 0.000000000000D+00 0.000000000000D+00 0.443613887574D-05 0.000000000000D+00  6 -2 2 25 23 1 -1 4 0.85225322D-02 0.75130042D-01 0.24873561D+05 0.24873561D+05 0.24873561D+05 0.12235338D+01  1  2  5  6  6  5       21 -.187264028680D-02 0.100000000000D+01
-.157365176636D-05 0.000000000000D+00 0.000000000000D+00 0.443613887574D-05 0.000000000000D+00  6 -2 2 25 23 3 -3 4 0.85225322D-02 0.75130042D-01 0.24873561D+05 0.24873561D+05 0.24873561D+05 0.12235338D+01  1  2  5  6  6  5       21 -.187264028680D-02 0.100000000000D+01
0.526987665859D-06 0.000000000000D+00 0.000000000000D+00 0.443001358189D-05 0.000000000000D+00  6 -2 2 25 23 2 -2 4 0.85225322D-02 0.75130042D-01 0.25329304D+05 0.25329304D+05 0.25329304D+05 0.12226888D+01  1  2 12  7  6  5       21 0.625674134247D-03 0.100000000000D+01
0.658246976329D-06 0.000000000000D+00 0.000000000000D+00 0.443001358189D-05 0.000000000000D+00  6 -2 2 25 23 2 -2 4 0.85225322D-02 0.75130042D-01 0.25329304D+05 0.25329304D+05 0.25329304D+05 0.12226888D+01  1  2 12  7  6  5       21 0.781513750164D-03 0.100000000000D+01
-.157365176636D-05 0.000000000000D+00 0.000000000000D+00 0.443613887574D-05 0.000000000000D+00  6 -2 2 25 23 2 -2 4 0.85225322D-02 0.75130042D-01 0.24873561D+05 0.24873561D+05 0.24873561D+05 0.12235338D+01  1  2  5  7  6  5       21 -.187264028680D-02 0.100000000000D+01
0.526987665859D-06 0.000000000000D+00 0.000000000000D+00 0.443001358189D-05 0.000000000000D+00  6 -2 2 25 23 4 -4 4 0.85225322D-02 0.75130042D-01 0.25329304D+05 0.25329304D+05 0.25329304D+05 0.12226888D+01  1  2 12  8  6  5       21 0.625674134247D-03 0.100000000000D+01
0.658246976329D-06 0.000000000000D+00 0.000000000000D+00 0.443001358189D-05 0.000000000000D+00  6 -2 2 25 23 4 -4 4 0.85225322D-02 0.75130042D-01 0.25329304D+05 0.25329304D+05 0.25329304D+05 0.12226888D+01  1  2 12  8  6  5       21 0.781513750164D-03 0.100000000000D+01
-.157365176636D-05 0.000000000000D+00 0.000000000000D+00 0.443613887574D-05 0.000000000000D+00  6 -2 2 25 23 4 -4 4 0.85225322D-02 0.75130042D-01 0.24873561D+05 0.24873561D+05 0.24873561D+05 0.12235338D+01  1  2  5  8  6  5       21 -.187264028680D-02 0.100000000000D+01
  </mgrwgt>
  </event>
  <event>
  5     66 0.42934962E-03 0.24251898E+02 0.75467711E-02 0.11288229E+00
       -2 -1    0    0    0  501 0.00000000E+00 0.00000000E+00 0.21358299E+02 0.21360696E+02 0.32000000E+00 0.0000E+00 0.9000E+01
        2 -1    0    0  502    0 0.00000000E+00 0.00000000E+00 -.23999943E+04 0.23999944E+04 0.32000000E+00 0.0000E+00 0.9000E+01
       25  1    1    2    0    0 0.17083110E+03 -.91147986E+02 -.10805864E+04 0.11048905E+04 0.12500000E+03 0.0000E+00 0.9000E+01
       23  1    1    2    0    0 -.15427949E+03 0.73434651E+02 -.10980484E+04 0.11149980E+04 0.91188000E+02 0.0000E+00 0.9000E+01
       21  1    1    2  502  501 -.16551607E+02 0.17713335E+02 -.20000125E+03 0.20146657E+03 0.75000000E+00 0.0000E+00 0.9000E+01
#aMCatNLO 1  0  0  2  2 0.54349248D+01 0.00000000D+00  -5  6  0 0.00000000D+00 0.00000000D+00 0.00000000D+00 0.00000000D+00 0.00000000D+00
  <mgrwgt>
 0.7368105925D+00    9    4    0
 0.226412730941465D+03 0.000000000000000D+00 0.000000000000000D+00 0.226412730941465D+03
 0.226412730941465D+03 0.000000000000000D+00 0.000000000000000D+00 -.226412730941465D+03
 0.231905020467048D+03 0.170834445406251D+03 -.911515659055694D+02 0.257278606480017D+02
 0.194217780235188D+03 -.154276691221469D+03 0.734316527682978D+02 -.145529973873247D+02
 0.267026611806944D+02 -.165577541847825D+02 0.177199131372716D+02 -.111748632606770D+02
 0.000000000000000D+00 0.000000000000000D+00 0.000000000000000D+00 -.000000000000000D+00
 0.227303440573567D+03 0.000000000000000D+00 0.000000000000000D+00 0.227303440573567D+03
 0.234874351267119D+03 0.000000000000000D+00 0.000000000000000D+00 -.234874351267119D+03
 0.232647057212259D+03 0.170355306601471D+03 -.938978164214680D+02 0.257278606480017D+02
 0.193681792148391D+03 -.154676770666630D+03 0.711385419375448D+02 -.145529973873247D+02
 0.265292270133279D+02 -.166126575304158D+02 0.174052269967093D+02 -.111748632606770D+02
 0.931971546670802D+01 0.934121595574670D+00 0.535404748721387D+01 -.757091069355178D+01
 0.226412730941465D+03 0.000000000000000D+00 0.000000000000000D+00 0.226412730941465D+03
 0.226412730941465D+03 0.000000000000000D+00 0.000000000000000D+00 -.226412730941465D+03
 0.231905020467048D+03 0.170834445406251D+03 -.911515659055694D+02 0.257278606480017D+02
 0.194217780235188D+03 -.154276691221469D+03 0.734316527682978D+02 -.145529973873247D+02
 0.000000000000000D+00 0.000000000000000D+00 0.000000000000000D+00 -.000000000000000D+00
 0.267026611806944D+02 -.165577541847825D+02 0.177199131372716D+02 -.111748632606770D+02
 0.227303440573567D+03 0.000000000000000D+00 0.000000000000000D+00 0.227303440573567D+03
 0.234874351267119D+03 0.000000000000000D+00 0.000000000000000D+00 -.234874351267119D+03
 0.232647057212259D+03 0.170355306601471D+03 -.938978164214680D+02 0.257278606480017D+02
 0.193681792148391D+03 -.154676770666630D+03 0.711385419375448D+02 -.145529973873247D+02
 0.931971546670802D+01 0.934121595574670D+00 0.535404748721387D+01 -.757091069355178D+01
 0.265292270133279D+02 -.166126575304158D+02 0.174052269967093D+02 -.111748632606770D+02
0.358473340991D-03 0.000000000000D+00 0.000000000000D+00 0.142167083753D-04 0.000000000000D+00  6 -2 2 25 23 21 21 2 0.32860782D-02 0.36923009D+00 0.50264997D+05 0.50264997D+05 0.50264997D+05 0.11920545D+01  1  2  2  2  6  2        2 0.859988594491D-01 0.100000000000D+01
0.124381666244D-03 0.189171579237D-04 -.137663201761D-05 0.142167083753D-04 0.000000000000D+00  6 -2 2 25 23 21 21 4 0.32860782D-02 0.36923009D+00 0.50264997D+05 0.50264997D+05 0.50264997D+05 0.11920545D+01  1  2  3  2  6  2        2 0.424018105915D-01 0.100000000000D+01
0.854934896343D-05 0.000000000000D+00 0.000000000000D+00 0.142167083753D-04 0.000000000000D+00  6 -2 2 25 23 21 21 4 0.32860782D-02 0.36923009D+00 0.50264997D+05 0.50264997D+05 0.50264997D+05 0.11920545D+01  1  2 15  2  6  2        2 0.291447997422D-02 0.100000000000D+01
-.118218613535D-02 0.000000000000D+00 0.000000000000D+00 0.142167083753D-04 0.000000000000D+00  6 -2 2 25 23 21 21 4 0.32860782D-02 0.36923009D+00 0.50264997D+05 0.50264997D+05 0.50264997D+05 0.11920545D+01  1  2  4  2  6  2        2 -.403008209400D+00 0.100000000000D+01
-.213714900484D-01 0.000000000000D+00 -.194242246984D-02 0.142167083753D-04 0.000000000000D+00  6 -2 2 25 23 21 21 4 0.32860782D-02 0.38351430D+00 0.50264997D+05 0.50264997D+05 0.50264997D+05 0.11920545D+01  1  2  5  2  6  2        2 -.648988108826D+01 0.100000000000D+01
0.214311767231D-01 0.000000000000D+00 0.194102405903D-02 0.142167083753D-04 0.000000000000D+00  6 -2 2 25 23 21 21 4 0.32860782D-02 0.36923009D+00 0.50264997D+05 0.50264997D+05 0.50264997D+05 0.11920545D+01  1  2  6  2  6  2        2 0.730590547311D+01 0.100000000000D+01
0.665938255633D-03 0.000000000000D+00 0.000000000000D+00 0.142167083753D-04 0.301658974465D-05  6 -2 2 25 23 21 21 4 0.32990056D-02 0.38302915D+00 0.51494976D+05 0.51494976D+05 0.51494976D+05 0.11910167D+01  1  2 11  2  6  2        2 0.201059120817D+00 0.100000000000D+01
-.142801029242D-03 0.000000000000D+00 -.130698889450D-04 0.142167083753D-04 0.000000000000D+00  6 -2 21 25 23 -2 21 4 0.32860782D-02 0.38351430D+00 0.50264997D+05 0.50264997D+05 0.50264997D+05 0.11920545D+01  3  4  5  5  5  2        2 -.877247227708D-02 0.100000000000D+01
0.315173844870D-05 0.000000000000D+00 0.000000000000D+00 0.142167083753D-04 0.284683912472D-07  6 -2 21 25 23 -2 21 4 0.32990056D-02 0.38302915D+00 0.51494976D+05 0.51494976D+05 0.51494976D+05 0.11910167D+01  3  4 11  5  5  2        2 0.192618476173D-03 0.100000000000D+01
  </mgrwgt>
  </event>
  <event>
  5     66 0.42934962E-03 0.50788439E+02 0.75467711E-02 0.11047258E+00
       -2 -1    0    0    0  501 0.00000000E+00 0.00000000E+00 0.11817229E+03 0.11817273E+03 0.32000000E+00 0.0000E+00 0.9000E+01
        2 -1    0    0  502    0 0.00000000E+00 0.00000000E+00 -.19983805E+03 0.19983831E+03 0.32000000E+00 0.0000E+00 0.9000E+01
       25  1    1    2    0    0 0.40949413E+02 -.31202149E+02 -.84181983E+01 0.13544849E+03 0.12500000E+03 0.0000E+00 0.9000E+01
       23  1    1    2    0    0 0.34842964E+01 0.55795058E+02 -.19701752E+02 0.10875955E+03 0.91188000E+02 0.0000E+00 0.9000E+01
       21  1    1    2  502  501 -.44433709E+02 -.24592909E+02 -.53545811E+02 0.73802995E+02 0.75000000E+00 0.0000E+00 0.9000E+01
#aMCatNLO 1  0  0  2  2 0.54349248D+01 0.00000000D+00  -5  6  0 0.00000000D+00 0.00000000D+00 0.00000000D+00 0.00000000D+00 0.00000000D+00
  <mgrwgt>
 0.4636859393D-01    3    2    0
 0.153673129572821D+03 0.000000000000000D+00 0.000000000000000D+00 0.153673129572821D+03
 0.153673129572821D+03 0.000000000000000D+00 0.000000000000000D+00 -.153673129572821D+03
 0.137912156205243D+03 0.409508651937373D+02 -.312013453700852D+02 0.272812301071704D+02
 0.107298886778017D+03 0.348542654447415D+01 0.557956840022839D+02 0.851429435256091D+01
 0.621352161623819D+02 -.444362917382115D+02 -.245943386321987D+02 -.357955244597313D+02
 0.000000000000000D+00 0.000000000000000D+00 -.000000000000000D+00 0.000000000000000D+00
 0.339269639429584D+03 0.000000000000000D+00 0.000000000000000D+00 0.339269639429584D+03
 0.229902667038377D+03 0.000000000000000D+00 0.000000000000000D+00 -.229902667038377D+03
 0.130252120104303D+03 -.243129857456066D+02 0.228648193504077D+01 0.272812301071704D+02
 0.137883389891058D+03 -.561852342076265D+02 0.864135644014389D+02 0.851429435256091D+01
 0.889248197079249D+02 -.812001731903089D+02 -.573025851105807D+01 -.357955244597313D+02
 0.212111976764675D+03 0.161698393143542D+03 -.829697878254216D+02 0.109366972391207D+03
0.715708844696D-04 0.000000000000D+00 0.000000000000D+00 0.578242950932D-05 0.000000000000D+00  6 -2 2 25 23 21 21 2 0.18180406D-01 0.30744369D-01 0.21452857D+05 0.21452857D+05 0.21452857D+05 0.12304872D+01  1  2  2  2  6  2        2 0.441455737075D-01 0.100000000000D+01
0.437644245665D-06 0.377689933791D-05 -.274851041410D-06 0.578242950932D-05 0.000000000000D+00  6 -2 2 25 23 21 21 4 0.18180406D-01 0.30744369D-01 0.21452857D+05 0.21452857D+05 0.21452857D+05 0.12304872D+01  1  2  3  2  6  2        2 0.408720311753D-03 0.100000000000D+01
0.194269258085D-05 0.000000000000D+00 0.000000000000D+00 0.578242950932D-05 0.000000000000D+00  6 -2 2 25 23 21 21 4 0.18180406D-01 0.30744369D-01 0.21452857D+05 0.21452857D+05 0.21452857D+05 0.12304872D+01  1  2 15  2  6  2        2 0.181429991404D-02 0.100000000000D+01
  </mgrwgt>
  </event>
  <event>
  5     66 0.42934962E-03 0.50614933E+02 0.75467711E-02 0.11216526E+00
       -4 -1    0    0    0  501 0.00000000E+00 0.00000000E+00 0.16443143E+04 0.16443150E+04 0.15500000E+01 0.0000E+00 0.9000E+01
        4 -1    0    0  502    0 0.00000000E+00 0.00000000E+00 -.42252623E+02 0.42281043E+02 0.15500000E+01 0.0000E+00 0.9000E+01
       25  1    1    2    0    0 0.46523473E+02 0.19391531E+03 0.60472721E+03 0.64891261E+03 0.12500000E+03 0.0000E+00 0.9000E+01
       23  1    1    2    0    0 -.14260649E+02 -.15491787E+03 0.95446570E+03 0.97135109E+03 0.91188000E+02 0.0000E+00 0.9000E+01
       21  1    1    2  502  501 -.32262824E+02 -.38997439E+02 0.42868770E+02 0.66332376E+02 0.75000000E+00 0.0000E+00 0.9000E+01
#aMCatNLO 1  0  0  5  1 0.17008728D+02 0.00000000D+00  -5  6  0 0.00000000D+00 0.00000000D+00 0.00000000D+00 0.00000000D+00 0.00000000D+00
  <mgrwgt>
 0.1627159246D-01   20    2    0
 0.263630754936106D+03 0.000000000000000D+00 0.000000000000000D+00 0.263630754936106D+03
 0.263630754936106D+03 -.000000000000000D+00 -.000000000000000D+00 -.263630754936106D+03
 0.238294383625298D+03 0.465240844836385D+02 0.193916047964645D+03 -.372999889020561D+02
 0.207039603481187D+03 -.142601183569897D+02 -.154917228372567D+03 0.101722403842290D+03
 0.819275227657267D+02 -.322639661266488D+02 -.389988195920783D+02 -.644224149402338D+02
 0.000000000000000D+00 0.000000000000000D+00 0.000000000000000D+00 -.000000000000000D+00
 0.263630754936106D+03 0.000000000000000D+00 0.000000000000000D+00 0.263630754936106D+03
 0.263630754936106D+03 -.000000000000000D+00 -.000000000000000D+00 -.263630754936106D+03
 0.236879051461416D+03 0.448515306862927D+02 0.191894361494212D+03 -.406396265126187D+02
 0.207061442496760D+03 -.157177046313757D+02 -.156679074511740D+03 0.988119982396094D+02
 0.587124370407274D+02 -.946784596413373D+01 -.380936527909616D+02 -.436621549296697D+02
 0.246085788733080D+02 -.196659800907832D+02 0.287836580848949D+01 -.145102167973211D+02
0.221384883708D-02 0.000000000000D+00 0.000000000000D+00 0.310107989055D-05 0.000000000000D+00  6 -4 4 25 23 21 21 2 0.25297367D+00 0.65026459D-02 0.54358757D+05 0.54358757D+05 0.54358757D+05 0.11887034D+01  1  2  2  3  6  5       21 0.608703641399D-02 0.100000000000D+01
0.189552316306D-03 0.116828012801D-03 -.850176245419D-05 0.310107989055D-05 0.000000000000D+00  6 -4 4 25 23 21 21 4 0.25297367D+00 0.65026459D-02 0.54358757D+05 0.54358757D+05 0.54358757D+05 0.11887034D+01  1  2  3  3  6  5       21 0.736434418535D-03 0.100000000000D+01
0.436460790005D-04 0.000000000000D+00 0.000000000000D+00 0.310107989055D-05 0.000000000000D+00  6 -4 4 25 23 21 21 4 0.25297367D+00 0.65026459D-02 0.54358757D+05 0.54358757D+05 0.54358757D+05 0.11887034D+01  1  2 15  3  6  5       21 0.169570467069D-03 0.100000000000D+01
0.228672546936D-02 0.000000000000D+00 0.000000000000D+00 0.309338604623D-05 0.000000000000D+00  6 -4 4 25 23 21 21 4 0.25297367D+00 0.65026459D-02 0.56277660D+05 0.56277660D+05 0.56277660D+05 0.11872279D+01  1  2 12  3  6  5       21 0.884959008814D-02 0.100000000000D+01
0.172481829848D-02 0.000000000000D+00 0.000000000000D+00 0.309338604623D-05 0.000000000000D+00  6 -4 4 25 23 21 21 4 0.25297367D+00 0.65026459D-02 0.56277660D+05 0.56277660D+05 0.56277660D+05 0.11872279D+01  1  2 12  3  6  5       21 0.667501854622D-02 0.100000000000D+01
-.359186569818D-02 0.000000000000D+00 0.000000000000D+00 0.310107989055D-05 0.000000000000D+00  6 -4 4 25 23 21 21 4 0.25297367D+00 0.65026459D-02 0.54358757D+05 0.54358757D+05 0.54358757D+05 0.11887034D+01  1  2  4  3  6  5       21 -.139548467591D-01 0.100000000000D+01
-.352532503353D-02 0.000000000000D+00 0.000000000000D+00 0.310107989055D-05 0.000000000000D+00  6 -4 4 25 23 21 21 4 0.25297367D+00 0.65026459D-02 0.54358757D+05 0.54358757D+05 0.54358757D+05 0.11887034D+01  1  2  5  3  6  5       21 -.136963279679D-01 0.100000000000D+01
0.569401198135D-02 0.000000000000D+00 -.000000000000D+00 0.310107989055D-05 0.000000000000D+00  6 -4 4 25 23 21 21 4 0.25297367D+00 0.65026459D-02 0.54358757D+05 0.54358757D+05 0.54358757D+05 0.11887034D+01  1  2  6  3  6  5       21 0.221219475674D-01 0.100000000000D+01
0.417776719883D-04 0.000000000000D+00 0.000000000000D+00 0.309338604623D-05 0.000000000000D+00  6 -4 4 25 23 1 -1 4 0.25297367D+00 0.65026459D-02 0.56277660D+05 0.56277660D+05 0.56277660D+05 0.11872279D+01  1  2 12  6  6  5       21 0.161678905880D-03 0.100000000000D+01
0.417776719883D-04 0.000000000000D+00 0.000000000000D+00 0.309338604623D-05 0.000000000000D+00  6 -4 4 25 23 3 -3 4 0.25297367D+00 0.65026459D-02 0.56277660D+05 0.56277660D+05 0.56277660D+05 0.11872279D+01  1  2 12  6  6  5       21 0.161678905880D-03 0.100000000000D+01
0.334274744338D-04 0.000000000000D+00 0.000000000000D+00 0.309338604623D-05 0.000000000000D+00  6 -4 4 25 23 1 -1 4 0.25297367D+00 0.65026459D-02 0.56277660D+05 0.56277660D+05 0.56277660D+05 0.11872279D+01  1  2 12  6  6  5       21 0.129363778199D-03 0.100000000000D+01
0.334274744338D-04 0.000000000000D+00 0.000000000000D+00 0.309338604623D-05 0.000000000000D+00  6 -4 4 25 23 3 -3 4 0.25297367D+00 0.65026459D-02 0.56277660D+05 0.56277660D+05 0.56277660D+05 0.11872279D+01  1  2 12  6  6  5       21 0.129363778199D-03 0.100000000000D+01
-.121038647916D-03 0.000000000000D+00 0.000000000000D+00 0.310107989055D-05 0.000000000000D+00  6 -4 4 25 23 1 -1 4 0.25297367D+00 0.65026459D-02 0.54358757D+05 0.54358757D+05 0.54358757D+05 0.11887034D+01  1  2  5  6  6  5       21 -.470250261434D-03 0.100000000000D+01
-.121038647916D-03 0.000000000000D+00 0.000000000000D+00 0.310107989055D-05 0.000000000000D+00  6 -4 4 25 23 3 -3 4 0.25297367D+00 0.65026459D-02 0.54358757D+05 0.54358757D+05 0.54358757D+05 0.11887034D+01  1  2  5  6  6  5       21 -.470250261434D-03 0.100000000000D+01
0.417776719883D-04 0.000000000000D+00 0.000000000000D+00 0.309338604623D-05 0.000000000000D+00  6 -4 4 25 23 4 -4 4 0.25297367D+00 0.65026459D-02 0.56277660D+05 0.56277660D+05 0.56277660D+05 0.11872279D+01  1  2 12  7  6  5       21 0.161678905880D-03 0.100000000000D+01
0.334274744338D-04 0.000000000000D+00 0.000000000000D+00 0.309338604623D-05 0.000000000000D+00  6 -4 4 25 23 4 -4 4 0.25297367D+00 0.65026459D-02 0.56277660D+05 0.56277660D+05 0.56277660D+05 0.11872279D+01  1  2 12  7  6  5       21 0.129363778199D-03 0.100000000000D+01
-.121038647916D-03 0.000000000000D+00 0.000000000000D+00 0.310107989055D-05 0.000000000000D+00  6 -4 4 25 23 4 -4 4 0.25297367D+00 0.65026459D-02 0.54358757D+05 0.54358757D+05 0.54358757D+05 0.11887034D+01  1  2  5  7  6  5       21 -.470250261434D-03 0.100000000000D+01
0.417776719883D-04 0.000000000000D+00 0.000000000000D+00 0.309338604623D-05 0.000000000000D+00  6 -4 4 25 23 2 -2 4 0.25297367D+00 0.65026459D-02 0.56277660D+05 0.56277660D+05 0.56277660D+05 0.11872279D+01  1  2 12  8  6  5       21 0.161678905880D-03 0.100000000000D+01
0.334274744338D-04 0.000000000000D+00 0.000000000000D+00 0.309338604623D-05 0.000000000000D+00  6 -4 4 25 23 2 -2 4 0.25297367D+00 0.65026459D-02 0.56277660D+05 0.56277660D+05 0.56277660D+05 0.11872279D+01  1  2 12  8  6  5       21 0.129363778199D-03 0.100000000000D+01
-.121038647916D-03 0.000000000000D+00 0.000000000000D+00 0.310107989055D-05 0.000000000000D+00  6 -4 4 25 23 2 -2 4 0.25297367D+00 0.65026459D-02 0.54358757D+05 0.54358757D+05 0.54358757D+05 0.11887034D+01  1  2  5  8  6  5       21 -.470250261434D-03 0.100000000000D+01
  </mgrwgt>
  </event>
  <event>
  6     66 0.42934962E-03 0.49169821E+02 0.75467711E-02 0.11118028E+00
       -2 -1    0    0    0  503 0.00000000E+00 0.00000000E+00 0.11700926E+03 0.11700970E+03 0.32000000E+00 0.0000E+00 0.9000E+01
        2 -1    0    0  502    0 0.00000000E+00 0.00000000E+00 -.24512782E+04 0.24512782E+04 0.32000000E+00 0.0000E+00 0.9000E+01
       25  1    1    2    0    0 -.14042402E+03 0.17235202E+02 -.16450414E+04 0.16558388E+04 0.12500000E+03 0.0000E+00 0.9000E+01
       23  1    1    2    0    0 0.18615100E+03 -.60767986E+01 -.49148368E+03 0.53344220E+03 0.91188000E+02 0.0000E+00 0.9000E+01
       21  1    1    2  502  501 0.97599777E+00 0.39615227E+02 -.27360808E+03 0.27646386E+03 0.75000000E+00 0.0000E+00 0.9000E+01
       21  1    1    2  501  503 -.46702979E+02 -.50773631E+02 0.75864239E+02 0.10254304E+03 0.75000000E+00 0.0000E+00 0.9000E+01
#aMCatNLO 2  0  0  1  2 0.11725736D+02 0.00000000D+00  -5  6  0 0.00000000D+00 0.00000000D+00 0.00000000D+00 0.00000000D+00 0.00000000D+00
  <mgrwgt>
 0.4685878410D-01    1    2    0
 0.258068187631581D+03 0.000000000000000D+00 0.000000000000000D+00 0.258068187631581D+03
 0.258068187631581D+03 0.000000000000000D+00 0.000000000000000D+00 -.258068187631581D+03
 0.239839572156085D+03 -.161443036627023D+03 -.561913497699314D+01 -.125708359383018D+03
 0.237159568652229D+03 0.164155623003573D+03 -.299925536597524D+02 0.141713753110229D+03
 0.391372344548486D+02 -.271258637655012D+01 0.356116886367455D+02 -.160053937272105D+02
 0.000000000000000D+00 -.000000000000000D+00 -.000000000000000D+00 0.000000000000000D+00
 0.109563055140436D+04 0.000000000000000D+00 0.000000000000000D+00 0.109563055140436D+04
 0.261787586968153D+03 0.000000000000000D+00 0.000000000000000D+00 -.261787586968153D+03
 0.226811373619324D+03 -.140423870148120D+03 0.172320711737915D+02 -.125708359383018D+03
 0.251171896714048D+03 0.186151336202793D+03 -.607968455272146D+01 0.141713753110229D+03
 0.427430375556925D+02 0.975513014028968D+00 0.396212443707131D+02 -.160053937272105D+02
 0.836691830483449D+03 -.467029790687020D+02 -.507736309917831D+02 0.833842964436208D+03
0.220796476085D-02 0.000000000000D+00 0.000000000000D+00 0.455594546604D-05 0.724303988288D-08  6 -2 2 25 23 21 21 4 0.18001449D-01 0.37711952D+00 0.63701413D+05 0.63701413D+05 0.63701413D+05 0.11820036D+01  1  2  1  1  6  1       -2 0.468587840987D-01 0.100000000000D+01
  </mgrwgt>
  </event>
  <event>
  5     66 0.42934962E-03 0.37698902E+02 0.75467711E-02 0.11728416E+00
       -2 -1    0    0    0  501 0.00000000E+00 0.00000000E+00 0.52063501E+02 0.52064484E+02 0.32000000E+00 0.0000E+00 0.9000E+01
        2 -1    0    0  502    0 -.00000000E+00 -.00000000E+00 -.64150471E+03 0.64150479E+03 0.32000000E+00 0.0000E+00 0.9000E+01
       25  1    1    2    0    0 0.16845945E+01 -.10639771E+03 -.17882847E+03 0.24275076E+03 0.12500000E+03 0.0000E+00 0.9000E+01
       23  1    1    2    0    0 0.35716739E+02 0.11107280E+03 -.33754158E+03 0.36859520E+03 0.91188000E+02 0.0000E+00 0.9000E+01
       21  1    1    2  502  501 -.37401333E+02 -.46750831E+01 -.73071170E+02 0.82223321E+02 0.75000000E+00 0.0000E+00 0.9000E+01
#aMCatNLO 1  0  0  5  1 0.31804511D+01 0.00000000D+00  -5  6  0 0.00000000D+00 0.00000000D+00 0.00000000D+00 0.00000000D+00 0.00000000D+00
  <mgrwgt>
 0.7141785854D-01   25    2    0
 0.182754889982446D+03 0.000000000000000D+00 0.000000000000000D+00 0.182754889982446D+03
 0.182754889982446D+03 -.000000000000000D+00 -.000000000000000D+00 -.182754889982446D+03
 0.172240475859376D+03 0.168799545556415D+01 -.106397288046306D+03 0.521397093585828D+02
 0.155086662304349D+03 0.357198008573746D+02 0.111073179022328D+03 -.460810829873466D+02
 0.381826418011666D+02 -.374077963129387D+02 -.467589097602171D+01 -.605862637123619D+01
 0.000000000000000D+00 0.000000000000000D+00 0.000000000000000D+00 -.000000000000000D+00
 0.182754889982446D+03 0.000000000000000D+00 0.000000000000000D+00 0.182754889982446D+03
 0.182754889982446D+03 -.000000000000000D+00 -.000000000000000D+00 -.182754889982446D+03
 0.172251897467833D+03 0.111985611689023D+01 -.106468304194507D+03 0.520476926048817D+02
 0.154948544565207D+03 0.352084885293388D+02 0.111009266123514D+03 -.461638959477429D+02
 0.524148399504166D+01 -.389647719515484D+01 -.347259119738684D+01 0.481383748944276D+00
 0.330678539368102D+02 -.324318674510742D+02 -.106837073162031D+01 -.636518040608313D+01
0.949464759524D-04 0.000000000000D+00 0.000000000000D+00 0.659244765475D-05 0.000000000000D+00  6 -2 2 25 23 21 21 2 0.80098511D-02 0.98693114D-01 0.30614589D+05 0.30614589D+05 0.30614589D+05 0.12139751D+01  1  2  2  3  6  5       21 0.603771902585D-01 0.100000000000D+01
0.125568150844D-04 0.501046319071D-05 -.364619467639D-06 0.659244765475D-05 0.000000000000D+00  6 -2 2 25 23 21 21 4 0.80098511D-02 0.98693114D-01 0.30614589D+05 0.30614589D+05 0.30614589D+05 0.12139751D+01  1  2  3  3  6  5       21 0.117677418763D-01 0.100000000000D+01
0.109137757911D-05 0.000000000000D+00 0.000000000000D+00 0.659244765475D-05 0.000000000000D+00  6 -2 2 25 23 21 21 4 0.80098511D-02 0.98693114D-01 0.30614589D+05 0.30614589D+05 0.30614589D+05 0.12139751D+01  1  2 15  3  6  5       21 0.102279515579D-02 0.100000000000D+01
0.230372181350D-06 0.000000000000D+00 0.000000000000D+00 0.659289774979D-05 0.000000000000D+00  6 -2 2 25 23 21 21 4 0.80098511D-02 0.98693114D-01 0.30586703D+05 0.30586703D+05 0.30586703D+05 0.12140166D+01  1  2 12  3  6  5       21 0.215921212600D-03 0.100000000000D+01
0.228300663182D-06 0.000000000000D+00 0.000000000000D+00 0.659289774979D-05 0.000000000000D+00  6 -2 2 25 23 21 21 4 0.80098511D-02 0.98693114D-01 0.30586703D+05 0.30586703D+05 0.30586703D+05 0.12140166D+01  1  2 12  3  6  5       21 0.213979638265D-03 0.100000000000D+01
-.251374393392D-03 0.000000000000D+00 0.000000000000D+00 0.659244765475D-05 0.000000000000D+00  6 -2 2 25 23 21 21 4 0.80098511D-02 0.98693114D-01 0.30614589D+05 0.30614589D+05 0.30614589D+05 0.12139751D+01  1  2  4  3  6  5       21 -.235577967491D+00 0.100000000000D+01
-.166951439506D-04 0.000000000000D+00 0.000000000000D+00 0.659244765475D-05 0.000000000000D+00  6 -2 2 25 23 21 21 4 0.80098511D-02 0.98693114D-01 0.30614589D+05 0.30614589D+05 0.30614589D+05 0.12139751D+01  1  2  5  3  6  5       21 -.156460171849D-01 0.100000000000D+01
0.247654904935D-03 0.000000000000D+00 -.000000000000D+00 0.659244765475D-05 0.000000000000D+00  6 -2 2 25 23 21 21 4 0.80098511D-02 0.98693114D-01 0.30614589D+05 0.30614589D+05 0.30614589D+05 0.12139751D+01  1  2  6  3  6  5       21 0.232092212561D+00 0.100000000000D+01
0.174281157064D-04 0.000000000000D+00 0.000000000000D+00 0.659244765475D-05 0.424629943802D-05  6 -2 2 25 23 21 21 4 0.80098511D-02 0.98693114D-01 0.30586703D+05 0.30586703D+05 0.30586703D+05 0.12140166D+01  1  2 11  3  6  5       21 0.163348710535D-01 0.100000000000D+01
0.968939866868D-07 0.000000000000D+00 0.000000000000D+00 0.659289774979D-05 0.000000000000D+00  6 -2 2 25 23 1 -1 4 0.80098511D-02 0.98693114D-01 0.30586703D+05 0.30586703D+05 0.30586703D+05 0.12140166D+01  1  2 12  6  6  5       21 0.908159439064D-04 0.100000000000D+01
0.968939866868D-07 0.000000000000D+00 0.000000000000D+00 0.659289774979D-05 0.000000000000D+00  6 -2 2 25 23 3 -3 4 0.80098511D-02 0.98693114D-01 0.30586703D+05 0.30586703D+05 0.30586703D+05 0.12140166D+01  1  2 12  6  6  5       21 0.908159439064D-04 0.100000000000D+01
0.965308740722D-07 0.000000000000D+00 0.000000000000D+00 0.659289774979D-05 0.000000000000D+00  6 -2 2 25 23 1 -1 4 0.80098511D-02 0.98693114D-01 0.30586703D+05 0.30586703D+05 0.30586703D+05 0.12140166D+01  1  2 12  6  6  5       21 0.904756089076D-04 0.100000000000D+01
0.965308740722D-07 0.000000000000D+00 0.000000000000D+00 0.659289774979D-05 0.000000000000D+00  6 -2 2 25 23 3 -3 4 0.80098511D-02 0.98693114D-01 0.30586703D+05 0.30586703D+05 0.30586703D+05 0.12140166D+01  1  2 12  6  6  5       21 0.904756089076D-04 0.100000000000D+01
-.946945627179D-05 0.000000000000D+00 0.000000000000D+00 0.659244765475D-05 0.000000000000D+00  6 -2 2 25 23 1 -1 4 0.80098511D-02 0.98693114D-01 0.30614589D+05 0.30614589D+05 0.30614589D+05 0.12139751D+01  1  2  5  6  6  5       21 -.887439341631D-02 0.100000000000D+01
-.946945627179D-05 0.000000000000D+00 0.000000000000D+00 0.659244765475D-05 0.000000000000D+00  6 -2 2 25 23 3 -3 4 0.80098511D-02 0.98693114D-01 0.30614589D+05 0.30614589D+05 0.30614589D+05 0.12139751D+01  1  2  5  6  6  5       21 -.887439341631D-02 0.100000000000D+01
0.942553101380D-05 0.000000000000D+00 0.000000000000D+00 0.659244765475D-05 0.970525827375D-07  6 -2 2 25 23 1 -1 4 0.80098511D-02 0.98693114D-01 0.30586703D+05 0.30586703D+05 0.30586703D+05 0.12140166D+01  1  2 11  6  6  5       21 0.883427883511D-02 0.100000000000D+01
0.942553101380D-05 0.000000000000D+00 0.000000000000D+00 0.659244765475D-05 0.970525827375D-07  6 -2 2 25 23 3 -3 4 0.80098511D-02 0.98693114D-01 0.30586703D+05 0.30586703D+05 0.30586703D+05 0.12140166D+01  1  2 11  6  6  5       21 0.883427883511D-02 0.100000000000D+01
0.968939866868D-07 0.000000000000D+00 0.000000000000D+00 0.659289774979D-05 0.000000000000D+00  6 -2 2 25 23 2 -2 4 0.80098511D-02 0.98693114D-01 0.30586703D+05 0.30586703D+05 0.30586703D+05 0.12140166D+01  1  2 12  7  6  5       21 0.908159439064D-04 0.100000000000D+01
0.965308740722D-07 0.000000000000D+00 0.000000000000D+00 0.659289774979D-05 0.000000000000D+00  6 -2 2 25 23 2 -2 4 0.80098511D-02 0.98693114D-01 0.30586703D+05 0.30586703D+05 0.30586703D+05 0.12140166D+01  1  2 12  7  6  5       21 0.904756089076D-04 0.100000000000D+01
-.946945627179D-05 0.000000000000D+00 0.000000000000D+00 0.659244765475D-05 0.000000000000D+00  6 -2 2 25 23 2 -2 4 0.80098511D-02 0.98693114D-01 0.30614589D+05 0.30614589D+05 0.30614589D+05 0.12139751D+01  1  2  5  7  6  5       21 -.887439341631D-02 0.100000000000D+01
0.947955531772D-05 0.000000000000D+00 0.000000000000D+00 0.659244765475D-05 0.985685460073D-07  6 -2 2 25 23 2 -2 4 0.80098511D-02 0.98693114D-01 0.30586703D+05 0.30586703D+05 0.30586703D+05 0.12140166D+01  1  2 11  7  6  5       21 0.888491425969D-02 0.100000000000D+01
0.968939866868D-07 0.000000000000D+00 0.000000000000D+00 0.659289774979D-05 0.000000000000D+00  6 -2 2 25 23 4 -4 4 0.80098511D-02 0.98693114D-01 0.30586703D+05 0.30586703D+05 0.30586703D+05 0.12140166D+01  1  2 12  8  6  5       21 0.908159439064D-04 0.100000000000D+01
0.965308740722D-07 0.000000000000D+00 0.000000000000D+00 0.659289774979D-05 0.000000000000D+00  6 -2 2 25 23 4 -4 4 0.80098511D-02 0.98693114D-01 0.30586703D+05 0.30586703D+05 0.30586703D+05 0.12140166D+01  1  2 12  8  6  5       21 0.904756089076D-04 0.100000000000D+01
-.946945627179D-05 0.000000000000D+00 0.000000000000D+00 0.659244765475D-05 0.000000000000D+00  6 -2 2 25 23 4 -4 4 0.80098511D-02 0.98693114D-01 0.30614589D+05 0.30614589D+05 0.30614589D+05 0.12139751D+01  1  2  5  8  6  5       21 -.887439341631D-02 0.100000000000D+01
0.942743884262D-05 0.000000000000D+00 0.000000000000D+00 0.659244765475D-05 0.970722272238D-07  6 -2 2 25 23 4 -4 4 0.80098511D-02 0.98693114D-01 0.30586703D+05 0.30586703D+05 0.30586703D+05 0.12140166D+01  1  2 11  8  6  5       21 0.883606698813D-02 0.100000000000D+01
  </mgrwgt>
  </event>
  <event>
  6     66 -.42934962E-03 0.22212155E+02 0.75467711E-02 0.11342044E+00
       -2 -1    0    0    0  501 0.00000000E+00 0.00000000E+00 0.10193027E+04 0.10193028E+04 0.32000000E+00 0.0000E+00 0.9000E+01
        2 -1    0    0  502    0 0.00000000E+00 0.00000000E+00 -.48719852E+02 0.48720903E+02 0.32000000E+00 0.0000E+00 0.9000E+01
       25  1    1    2    0    0 -.30218613E+02 0.16678070E+03 0.43107107E+03 0.47976685E+03 0.12500000E+03 0.0000E+00 0.9000E+01
       23  1    1    2    0    0 0.58305283E+02 -.16629874E+03 0.50181464E+03 0.53961835E+03 0.91188000E+02 0.0000E+00 0.9000E+01
       21  1    1    2  502  503 -.15092460E+02 -.29071689E+01 0.11248706E+02 0.19061214E+02 0.75000000E+00 0.0000E+00 0.9000E+01
       21  1    1    2  503  501 -.12994210E+02 0.24252176E+01 0.26448475E+02 0.29577280E+02 0.75000000E+00 0.0000E+00 0.9000E+01
#aMCatNLO 2  0  0  5  1 0.60765583D+01 0.00000000D+00  -5  6  0 0.00000000D+00 0.00000000D+00 0.00000000D+00 0.00000000D+00 0.00000000D+00
  <mgrwgt>
 -.1074949983D+00    3    2    0
 0.222847180796682D+03 0.000000000000000D+00 0.000000000000000D+00 0.222847180796682D+03
 0.222847180796682D+03 -.000000000000000D+00 -.000000000000000D+00 -.222847180796682D+03
 0.210781294377154D+03 -.292498924122100D+02 0.166797317986277D+03 -.112628844337157D+02
 0.200627108084924D+03 0.592262496842768D+02 -.166282940629470D+03 0.278965976146170D+02
 0.342859591312869D+02 -.299763572720667D+02 -.514377356807638D+00 -.166337131809013D+02
 0.000000000000000D+00 -.000000000000000D+00 0.000000000000000D+00 0.000000000000000D+00
 0.222847180796682D+03 0.000000000000000D+00 0.000000000000000D+00 0.222847180796682D+03
 0.222847180796682D+03 -.000000000000000D+00 -.000000000000000D+00 -.222847180796682D+03
 0.210933026242216D+03 -.302116322989812D+02 0.166780815073118D+03 -.117965485239183D+02
 0.200302109311225D+03 0.583119112298095D+02 -.166298630160828D+03 0.273892363143816D+02
 0.205891250427991D+02 -.145085145682331D+02 -.293210231578571D+01 -.143114587328178D+02
 0.138701009971240D+02 -.135917643625951D+02 0.244991740349599D+01 -.128122905764554D+01
-.658690832536D-03 0.000000000000D+00 0.000000000000D+00 0.952279043018D-05 0.000000000000D+00  6 -2 2 25 23 21 21 4 0.15681589D+00 0.74954465D-02 0.47881363D+05 0.47881363D+05 0.47881363D+05 0.11941485D+01  1  2 13  3  6  5       21 -.349117727034D-01 0.100000000000D+01
-.648830693319D-03 0.000000000000D+00 0.000000000000D+00 0.952279043018D-05 0.000000000000D+00  6 -2 2 25 23 21 21 4 0.15681589D+00 0.74954465D-02 0.47881363D+05 0.47881363D+05 0.47881363D+05 0.11941485D+01  1  2 13  3  6  5       21 -.343891679818D-01 0.100000000000D+01
-.721312640783D-03 0.000000000000D+00 0.000000000000D+00 0.951806661970D-05 0.000000000000D+00  6 -2 2 25 23 21 21 4 0.15681589D+00 0.74954465D-02 0.48210790D+05 0.48210790D+05 0.48210790D+05 0.11938523D+01  1  2  8  3  6  5       21 -.381940575942D-01 0.100000000000D+01
  </mgrwgt>
  </event>
  <event>
  5     66 0.42934962E-03 0.46769034E+02 0.75467711E-02 0.11014706E+00
       -2 -1    0    0    0  501 0.00000000E+00 0.00000000E+00 0.24708142E+02 0.24710214E+02 0.32000000E+00 0.0000E+00 0.9000E+01
        2 -1    0    0  502    0 0.00000000E+00 0.00000000E+00 -.12444437E+04 0.12444437E+04 0.32000000E+00 0.0000E+00 0.9000E+01
       25  1    1    2    0    0 -.38772859E+02 0.10543026E+03 -.49027209E+03 0.51827656E+03 0.12500000E+03 0.0000E+00 0.9000E+01
       23  1    1    2    0    0 -.48554662E+01 -.88594475E+02 -.59678640E+03 0.61019818E+03 0.91188000E+02 0.0000E+00 0.9000E+01
       21  1    1    2  502  501 0.43628325E+02 -.16835784E+02 -.13267705E+03 0.14067920E+03 0.75000000E+00 0.0000E+00 0.9000E+01
#aMCatNLO 1  0  0  2  5 0.18759814D+02 0.00000000D+00  -5  6  0 0.00000000D+00 0.00000000D+00 0.00000000D+00 0.00000000D+00 0.00000000D+00
  <mgrwgt>
 0.4163118283D-01    5    4    0
 0.175354590674362D+03 0.000000000000000D+00 0.000000000000000D+00 0.175354590674362D+03
 0.175354590674362D+03 0.000000000000000D+00 0.000000000000000D+00 -.175354590674362D+03
 0.170428519132610D+03 -.387754854229834D+02 0.105431272502710D+03 0.283123408146665D+02
 0.132627611530357D+03 -.485751000357917D+01 -.885936866876379D+02 -.374485683558822D+02
 0.476530506857558D+02 0.436329954265625D+02 -.168375858150722D+02 0.913622754121576D+01
 0.000000000000000D+00 -.000000000000000D+00 0.000000000000000D+00 -.000000000000000D+00
 0.206654584468249D+03 0.000000000000000D+00 0.000000000000000D+00 0.206654584468249D+03
 0.667342598592668D+03 0.000000000000000D+00 0.000000000000000D+00 -.667342598592668D+03
 0.157159869347526D+03 0.301355219020614D+02 0.858165847060807D+02 0.283123408146665D+02
 0.154949754078665D+03 0.556368379186520D+02 -.105812673813429D+03 -.374485683558822D+02
 0.738381648493393D+02 0.691897072578648D+02 -.241119958569238D+02 0.913622754121576D+01
 0.488049394785387D+03 -.154962067078578D+03 0.441080849642721D+02 -.460688014124420D+03
 0.175354590674362D+03 0.000000000000000D+00 0.000000000000000D+00 0.175354590674362D+03
 0.175354590674362D+03 0.000000000000000D+00 0.000000000000000D+00 -.175354590674362D+03
 0.170428519132610D+03 -.387754854229834D+02 0.105431272502710D+03 0.283123408146665D+02
 0.132627611530357D+03 -.485751000357917D+01 -.885936866876379D+02 -.374485683558822D+02
 0.000000000000000D+00 -.000000000000000D+00 0.000000000000000D+00 -.000000000000000D+00
 0.476530506857558D+02 0.436329954265625D+02 -.168375858150722D+02 0.913622754121576D+01
 0.206654584468249D+03 0.000000000000000D+00 0.000000000000000D+00 0.206654584468249D+03
 0.667342598592668D+03 0.000000000000000D+00 0.000000000000000D+00 -.667342598592668D+03
 0.157159869347526D+03 0.301355219020614D+02 0.858165847060807D+02 0.283123408146665D+02
 0.154949754078665D+03 0.556368379186520D+02 -.105812673813429D+03 -.374485683558822D+02
 0.488049394785387D+03 -.154962067078578D+03 0.441080849642721D+02 -.460688014124420D+03
 0.738381648493393D+02 0.691897072578648D+02 -.241119958569238D+02 0.913622754121576D+01
0.450143175069D-04 0.000000000000D+00 0.000000000000D+00 0.478693134640D-05 0.000000000000D+00  6 -2 2 25 23 21 21 2 0.38014152D-02 0.19145304D+00 0.29251305D+05 0.29251305D+05 0.29251305D+05 0.12160521D+01  1  2  2  2  6  2        2 0.367631496714D-01 0.100000000000D+01
0.311335874078D-05 0.237547079721D-05 -.172866831768D-06 0.478693134640D-05 0.000000000000D+00  6 -2 2 25 23 21 21 4 0.38014152D-02 0.19145304D+00 0.29251305D+05 0.29251305D+05 0.29251305D+05 0.12160521D+01  1  2  3  2  6  2        2 0.376006665220D-02 0.100000000000D+01
0.153701592617D-05 0.000000000000D+00 0.000000000000D+00 0.478693134640D-05 0.000000000000D+00  6 -2 2 25 23 21 21 4 0.38014152D-02 0.19145304D+00 0.29251305D+05 0.29251305D+05 0.29251305D+05 0.12160521D+01  1  2 15  2  6  2        2 0.185628538472D-02 0.100000000000D+01
-.124867488566D-03 0.000000000000D+00 -.323303130965D-04 0.478693134640D-05 0.000000000000D+00  6 -2 2 25 23 21 21 4 0.38014152D-02 0.73831457D+00 0.29251305D+05 0.29251305D+05 0.29251305D+05 0.12160521D+01  1  2  5  2  6  2        2 -.746164006468D-03 0.100000000000D+01
-.194457706439D-04 0.000000000000D+00 -.518200557221D-05 0.478693134640D-05 0.000000000000D+00  6 -2 21 25 23 -2 21 4 0.38014152D-02 0.73831457D+00 0.29251305D+05 0.29251305D+05 0.29251305D+05 0.12160521D+01  3  4  5  5  5  2        2 -.215487020639D-05 0.100000000000D+01
  </mgrwgt>
  </event>
  <event>
  5     66 0.42934962E-03 0.27485294E+02 0.75467711E-02 0.11015676E+00
       -2 -1    0    0    0  501 0.00000000E+00 0.00000000E+00 0.66258047E+02 0.66258819E+02 0.32000000E+00 0.0000E+00 0.9000E+01
        2 -1    0    0  502    0 0.00000000E+00 0.00000000E+00 -.95015077E+03 0.95015082E+03 0.32000000E+00 0.0000E+00 0.9000E+01
       25  1    1    2    0    0 -.33367381E+01 0.18026406E+03 -.51228084E+03 0.55728173E+03 0.12500000E+03 0.0000E+00 0.9000E+01
       23  1    1    2    0    0 0.65900826E+01 -.20755037E+03 -.26390330E+03 0.34796665E+03 0.91188000E+02 0.0000E+00 0.9000E+01
       21  1    1    2  502  501 -.32533445E+01 0.27286308E+02 -.10770858E+03 0.11116127E+03 0.75000000E+00 0.0000E+00 0.9000E+01
#aMCatNLO 1  0  0  1  1 0.61678717D+02 0.00000000D+00  -5  6  0 0.00000000D+00 0.00000000D+00 0.00000000D+00 0.00000000D+00 0.00000000D+00
  <mgrwgt>
 0.2134966149D+00    3    2    0
 0.250909453548053D+03 0.000000000000000D+00 0.000000000000000D+00 0.250909453548053D+03
 0.250909453548053D+03 0.000000000000000D+00 0.000000000000000D+00 -.250909453548053D+03
 0.226423969695558D+03 -.333640918738790D+01 0.180261298271220D+03 -.560138087617986D+02
 0.239959298867393D+03 0.659043114088926D+01 -.207553288546500D+03 0.783799234488119D+02
 0.354356385331552D+02 -.325402195350136D+01 0.272919902752792D+02 -.223661146870133D+02
 0.000000000000000D+00 -.000000000000000D+00 0.000000000000000D+00 -.000000000000000D+00
 0.256749796606252D+03 0.000000000000000D+00 0.000000000000000D+00 0.256749796606252D+03
 0.493439171145356D+03 0.000000000000000D+00 0.000000000000000D+00 -.493439171145356D+03
 0.213666623825421D+03 0.174016268376553D+02 0.163058464203345D+03 -.560138087617986D+02
 0.258675757444509D+03 0.300872109252831D+02 -.227044584794235D+03 0.783799234488119D+02
 0.332527923762465D+02 -.172721213671814D-01 0.246070074633010D+02 -.223661146870133D+02
 0.244593794105431D+03 -.474715656415712D+02 0.393791131275885D+02 -.236689374539105D+03
0.570687101364D-03 0.000000000000D+00 0.000000000000D+00 0.991524812873D-05 0.000000000000D+00  6 -2 2 25 23 21 21 2 0.10193609D-01 0.14617710D+00 0.56090531D+05 0.56090531D+05 0.56090531D+05 0.11873693D+01  1  2  2  1  6  1       -2 0.145878547131D+00 0.100000000000D+01
0.164125972971D-03 0.301159857290D-04 -.219158873460D-05 0.991524812873D-05 0.000000000000D+00  6 -2 2 25 23 21 21 4 0.10193609D-01 0.14617710D+00 0.56090531D+05 0.56090531D+05 0.56090531D+05 0.11873693D+01  1  2  3  1  6  1       -2 0.591483117533D-01 0.100000000000D+01
0.235020560988D-04 0.000000000000D+00 0.000000000000D+00 0.991524812873D-05 0.000000000000D+00  6 -2 2 25 23 21 21 4 0.10193609D-01 0.14617710D+00 0.56090531D+05 0.56090531D+05 0.56090531D+05 0.11873693D+01  1  2 15  1  6  1       -2 0.846975597955D-02 0.100000000000D+01
  </mgrwgt>
  </event>
  <event>
  5     66 0.42934962E-03 0.10494041E+03 0.75467711E-02 0.11101512E+00
       -2 -1    0    0    0  501 0.00000000E+00 0.00000000E+00 0.32701115E+02 0.32702681E+02 0.32000000E+00 0.0000E+00 0.9000E+01
        2 -1    0    0  502    0 0.00000000E+00 0.00000000E+00 -.14139630E+04 0.14139630E+04 0.32000000E+00 0.0000E+00 0.9000E+01
       25  1    1    2    0    0 -.17134887E+02 -.42614228E+02 -.61282956E+03 0.62713208E+03 0.12500000E+03 0.0000E+00 0.9000E+01
       23  1    1    2    0    0 -.32656852E+02 0.13498833E+03 -.58572829E+03 0.60883594E+03 0.91188000E+02 0.0000E+00 0.9000E+01
       21  1    1    2  502  501 0.49791739E+02 -.92374104E+02 -.18270403E+03 0.21069769E+03 0.75000000E+00 0.0000E+00 0.9000E+01
#aMCatNLO 1  0  0  1  1 0.98873605D+02 0.00000000D+00  -5  6  0 0.00000000D+00 0.00000000D+00 0.00000000D+00 0.00000000D+00 0.00000000D+00
  <mgrwgt>
 0.5219145804D-01    7    4    0
 0.215033311222780D+03 0.000000000000000D+00 0.000000000000000D+00 0.215033311222780D+03
 0.215033311222780D+03 0.000000000000000D+00 0.000000000000000D+00 -.215033311222780D+03
 0.141309186467918D+03 -.171351966075696D+02 -.426136543921527D+02 -.472625398893332D+02
 0.166807183715283D+03 -.326572170421701D+02 0.134989009511676D+03 -.148613149196558D+02
 0.121950252262360D+03 0.497924136497397D+02 -.923753551195238D+02 0.621238548089891D+02
 0.000000000000000D+00 0.000000000000000D+00 -.000000000000000D+00 0.000000000000000D+00
 0.272920105511126D+03 0.000000000000000D+00 0.000000000000000D+00 0.272920105511126D+03
 0.267393770314084D+03 0.000000000000000D+00 0.000000000000000D+00 -.267393770314084D+03
 0.139772256248600D+03 -.369671078987533D+02 -.176343095593634D+02 -.472625398893332D+02
 0.200132720806372D+03 -.585469362827540D+02 0.167598484969654D+03 -.148613149196558D+02
 0.101380972747793D+03 0.340351121354605D+02 -.725281975571365D+02 0.621238548089891D+02
 0.990279260224443D+02 0.614789320460468D+02 -.774359778531542D+02 0.552633519704259D+01
 0.215033311222780D+03 0.000000000000000D+00 0.000000000000000D+00 0.215033311222780D+03
 0.215033311222780D+03 0.000000000000000D+00 0.000000000000000D+00 -.215033311222780D+03
 0.141309186467918D+03 -.171351966075696D+02 -.426136543921527D+02 -.472625398893332D+02
 0.166807183715283D+03 -.326572170421701D+02 0.134989009511676D+03 -.148613149196558D+02
 0.000000000000000D+00 0.000000000000000D+00 -.000000000000000D+00 0.000000000000000D+00
 0.121950252262360D+03 0.497924136497397D+02 -.923753551195238D+02 0.621238548089891D+02
 0.272920105511126D+03 0.000000000000000D+00 0.000000000000000D+00 0.272920105511126D+03
 0.267393770314084D+03 0.000000000000000D+00 0.000000000000000D+00 -.267393770314084D+03
 0.139772256248600D+03 -.369671078987533D+02 -.176343095593634D+02 -.472625398893332D+02
 0.200132720806372D+03 -.585469362827540D+02 0.167598484969654D+03 -.148613149196558D+02
 0.990279260224443D+02 0.614789320460468D+02 -.774359778531542D+02 0.552633519704259D+01
 0.101380972747793D+03 0.340351121354605D+02 -.725281975571365D+02 0.621238548089891D+02
0.882321318546D-04 0.000000000000D+00 0.000000000000D+00 0.118206742645D-05 0.000000000000D+00  6 -2 2 25 23 21 21 2 0.50310640D-02 0.21753289D+00 0.40855597D+05 0.40855597D+05 0.40855597D+05 0.12010680D+01  1  2  2  1  6  1       -2 0.374185022117D-01 0.100000000000D+01
-.514513910968D-05 0.465613751812D-05 -.338834618375D-06 0.118206742645D-05 0.000000000000D+00  6 -2 2 25 23 21 21 4 0.50310640D-02 0.21753289D+00 0.40855597D+05 0.40855597D+05 0.40855597D+05 0.12010680D+01  1  2  3  1  6  1       -2 -.314768978982D-02 0.100000000000D+01
0.224618531855D-05 0.000000000000D+00 0.000000000000D+00 0.118206742645D-05 0.000000000000D+00  6 -2 2 25 23 21 21 4 0.50310640D-02 0.21753289D+00 0.40855597D+05 0.40855597D+05 0.40855597D+05 0.12010680D+01  1  2 15  1  6  1       -2 0.137416976344D-02 0.100000000000D+01
-.154901758778D-04 0.000000000000D+00 0.000000000000D+00 0.118206742645D-05 0.000000000000D+00  6 -2 2 25 23 21 21 4 0.50310640D-02 0.21753289D+00 0.40855597D+05 0.40855597D+05 0.40855597D+05 0.12010680D+01  1  2  4  1  6  1       -2 -.947656951805D-02 0.100000000000D+01
-.790034629122D-04 0.000000000000D+00 -.501552274665D-04 0.118206742645D-05 0.000000000000D+00  6 -2 2 25 23 21 21 4 0.81294478D-02 0.21753289D+00 0.40855597D+05 0.40855597D+05 0.40855597D+05 0.12010680D+01  1  2  5  1  6  1       -2 -.231134792632D-01 0.100000000000D+01
0.969598009472D-04 0.000000000000D+00 0.448872648852D-04 0.118206742645D-05 0.000000000000D+00  6 -2 2 25 23 21 21 4 0.50310640D-02 0.21753289D+00 0.40855597D+05 0.40855597D+05 0.40855597D+05 0.12010680D+01  1  2  6  1  6  1       -2 0.593180026736D-01 0.100000000000D+01
-.215543320865D-05 0.000000000000D+00 -.273808725859D-05 0.118206742645D-05 0.000000000000D+00  6 21 2 25 23 2 21 4 0.81294478D-02 0.21753289D+00 0.40855597D+05 0.40855597D+05 0.40855597D+05 0.12010680D+01  3  4  5  4  5  1       -2 -.101814780389D-01 0.100000000000D+01
  </mgrwgt>
  </event>
  <event>
  5     66 0.42934962E-03 0.24249919E+02 0.75467711E-02 0.12130445E+00
       -2 -1    0    0    0  501 0.00000000E+00 0.00000000E+00 0.50724356E+03 0.50724366E+03 0.32000000E+00 0.0000E+00 0.9000E+01
        2 -1    0    0  502    0 0.00000000E+00 0.00000000E+00 -.88778462E+02 0.88779038E+02 0.32000000E+00 0.0000E+00 0.9000E+01
       25  1    1    2    0    0 -.63597509E+02 0.36045105E+02 0.25528091E+02 0.14703937E+03 0.12500000E+03 0.0000E+00 0.9000E+01
       23  1    1    2    0    0 0.42469916E+02 -.47943688E+02 0.40628815E+03 0.42129278E+03 0.91188000E+02 0.0000E+00 0.9000E+01
       21  1    1    2  502  501 0.21127593E+02 0.11898582E+02 -.13351140E+02 0.27690556E+02 0.75000000E+00 0.0000E+00 0.9000E+01
#aMCatNLO 1  0  0  5  1 0.37518557D+01 0.00000000D+00  -5  6  0 0.00000000D+00 0.00000000D+00 0.00000000D+00 0.00000000D+00 0.00000000D+00
  <mgrwgt>
 0.8144930967D-01   14    2    0
 0.212208635987940D+03 0.000000000000000D+00 0.000000000000000D+00 0.212208635987940D+03
 0.212208635987940D+03 -.000000000000000D+00 -.000000000000000D+00 -.212208635987940D+03
 0.181320991146303D+03 -.635984459528561D+02 0.360445775650561D+02 -.109125285478738D+03
 0.191046313427039D+03 0.424689282374856D+02 -.479442436413687D+02 0.155181126964844D+03
 0.520499674025368D+02 0.211295177153705D+02 0.118996660763125D+02 -.460558414861052D+02
 0.000000000000000D+00 0.000000000000000D+00 0.000000000000000D+00 0.000000000000000D+00
 0.212208635987940D+03 0.000000000000000D+00 0.000000000000000D+00 0.212208635987940D+03
 0.212208635987940D+03 -.000000000000000D+00 -.000000000000000D+00 -.212208635987940D+03
 0.182039000232406D+03 -.629348389883679D+02 0.364183059856334D+02 -.110571744294186D+03
 0.189875035122312D+03 0.431646076348251D+02 -.475524527526212D+02 0.153664760122939D+03
 0.487501537881937D+02 0.164495887251501D+02 0.125295246429225D+02 -.441474748696724D+02
 0.375308283296830D+01 0.332064262839264D+01 -.139537787593468D+01 0.105445904091859D+01
0.640210767304D-03 0.000000000000D+00 0.000000000000D+00 0.932461221289D-05 0.000000000000D+00  6 -2 2 25 23 21 21 2 0.78037523D-01 0.13658277D-01 0.19668728D+05 0.19668728D+05 0.19668728D+05 0.12346254D+01  1  2  2  3  6  5       21 0.631977497923D-01 0.100000000000D+01
0.596558182971D-04 0.337848503770D-04 -.245857791781D-05 0.932461221289D-05 0.000000000000D+00  6 -2 2 25 23 21 21 4 0.78037523D-01 0.13658277D-01 0.19668728D+05 0.19668728D+05 0.19668728D+05 0.12346254D+01  1  2  3  3  6  5       21 0.897639333808D-02 0.100000000000D+01
0.882926043964D-05 0.000000000000D+00 0.000000000000D+00 0.932461221289D-05 0.000000000000D+00  6 -2 2 25 23 21 21 4 0.78037523D-01 0.13658277D-01 0.19668728D+05 0.19668728D+05 0.19668728D+05 0.12346254D+01  1  2 15  3  6  5       21 0.132853620741D-02 0.100000000000D+01
0.762893120494D-05 0.000000000000D+00 0.000000000000D+00 0.932495915912D-05 0.000000000000D+00  6 -2 2 25 23 21 21 4 0.78037523D-01 0.13658277D-01 0.19659301D+05 0.19659301D+05 0.19659301D+05 0.12346484D+01  1  2 12  3  6  5       21 0.114800123035D-02 0.100000000000D+01
-.291389892184D-02 0.000000000000D+00 0.000000000000D+00 0.932461221289D-05 0.000000000000D+00  6 -2 2 25 23 21 21 4 0.78037523D-01 0.13658277D-01 0.19668728D+05 0.19668728D+05 0.19668728D+05 0.12346254D+01  1  2  4  3  6  5       21 -.438453509088D+00 0.100000000000D+01
0.293302815373D-02 0.000000000000D+00 0.000000000000D+00 0.932461221289D-05 0.452880609831D-05  6 -2 2 25 23 21 21 4 0.78037523D-01 0.13658277D-01 0.19659301D+05 0.19659301D+05 0.19659301D+05 0.12346484D+01  1  2 11  3  6  5       21 0.441361946868D+00 0.100000000000D+01
0.585494452403D-06 0.000000000000D+00 0.000000000000D+00 0.932495915912D-05 0.000000000000D+00  6 -2 2 25 23 1 -1 4 0.78037523D-01 0.13658277D-01 0.19659301D+05 0.19659301D+05 0.19659301D+05 0.12346484D+01  1  2 12  6  6  5       21 0.881051793058D-04 0.100000000000D+01
0.585494452403D-06 0.000000000000D+00 0.000000000000D+00 0.932495915912D-05 0.000000000000D+00  6 -2 2 25 23 3 -3 4 0.78037523D-01 0.13658277D-01 0.19659301D+05 0.19659301D+05 0.19659301D+05 0.12346484D+01  1  2 12  6  6  5       21 0.881051793058D-04 0.100000000000D+01
0.609608411418D-05 0.000000000000D+00 0.000000000000D+00 0.932495915912D-05 0.137305442198D-07  6 -2 2 25 23 1 -1 4 0.78037523D-01 0.13658277D-01 0.19659301D+05 0.19659301D+05 0.19659301D+05 0.12346484D+01  1  2 11  6  6  5       21 0.917338467920D-03 0.100000000000D+01
0.609608411418D-05 0.000000000000D+00 0.000000000000D+00 0.932495915912D-05 0.137305442198D-07  6 -2 2 25 23 3 -3 4 0.78037523D-01 0.13658277D-01 0.19659301D+05 0.19659301D+05 0.19659301D+05 0.12346484D+01  1  2 11  6  6  5       21 0.917338467920D-03 0.100000000000D+01
0.585494452403D-06 0.000000000000D+00 0.000000000000D+00 0.932495915912D-05 0.000000000000D+00  6 -2 2 25 23 2 -2 4 0.78037523D-01 0.13658277D-01 0.19659301D+05 0.19659301D+05 0.19659301D+05 0.12346484D+01  1  2 12  7  6  5       21 0.881051793058D-04 0.100000000000D+01
0.522346749380D-05 0.000000000000D+00 0.000000000000D+00 0.932495915912D-05 0.150841594124D-07  6 -2 2 25 23 2 -2 4 0.78037523D-01 0.13658277D-01 0.19659301D+05 0.19659301D+05 0.19659301D+05 0.12346484D+01  1  2 11  7  6  5       21 0.786027157474D-03 0.100000000000D+01
0.585494452403D-06 0.000000000000D+00 0.000000000000D+00 0.932495915912D-05 0.000000000000D+00  6 -2 2 25 23 4 -4 4 0.78037523D-01 0.13658277D-01 0.19659301D+05 0.19659301D+05 0.19659301D+05 0.12346484D+01  1  2 12  8  6  5       21 0.881051793058D-04 0.100000000000D+01
0.609427687600D-05 0.000000000000D+00 0.000000000000D+00 0.932495915912D-05 0.137264736783D-07  6 -2 2 25 23 4 -4 4 0.78037523D-01 0.13658277D-01 0.19659301D+05 0.19659301D+05 0.19659301D+05 0.12346484D+01  1  2 11  8  6  5       21 0.917066514798D-03 0.100000000000D+01
  </mgrwgt>
  </event>
  <event>
  5     66 0.42934962E-03 0.31663052E+02 0.75467711E-02 0.12051719E+00
       -2 -1    0    0    0  501 0.00000000E+00 0.00000000E+00 0.19848875E+02 0.19851454E+02 0.32000000E+00 0.0000E+00 0.9000E+01
        2 -1    0    0  502    0 0.00000000E+00 0.00000000E+00 -.11529267E+04 0.11529267E+04 0.32000000E+00 0.0000E+00 0.9000E+01
       25  1    1    2    0    0 0.56302773E+02 -.74661651E+01 -.64119686E+03 0.65573178E+03 0.12500000E+03 0.0000E+00 0.9000E+01
       23  1    1    2    0    0 -.60988132E+02 0.38776976E+02 -.44843057E+03 0.46328008E+03 0.91188000E+02 0.0000E+00 0.9000E+01
       21  1    1    2  502  501 0.46853586E+01 -.31310811E+02 -.43450350E+02 0.53766299E+02 0.75000000E+00 0.0000E+00 0.9000E+01
#aMCatNLO 1  0  0  2  5 0.73082007D+01 0.00000000D+00  -5  6  0 0.00000000D+00 0.00000000D+00 0.00000000D+00 0.00000000D+00 0.00000000D+00
  <mgrwgt>
 0.5598373339D-01   11    4    0
 0.151280651490775D+03 0.000000000000000D+00 0.000000000000000D+00 0.151280651490775D+03
 0.151280651490775D+03 0.000000000000000D+00 0.000000000000000D+00 -.151280651490775D+03
 0.140474173736048D+03 0.563024800802850D+02 -.746420594292647D+01 -.297037010030089D+02
 0.116400410444668D+03 -.609883748029630D+02 0.387785992118056D+02 -.323149961329766D+01
 0.456867188008331D+02 0.468589472267804D+01 -.313143932688791D+02 0.329352006163065D+02
 0.000000000000000D+00 -.000000000000000D+00 -.000000000000000D+00 -.000000000000000D+00
 0.152645588450267D+03 0.000000000000000D+00 0.000000000000000D+00 0.152645588450267D+03
 0.161434049482820D+03 0.000000000000000D+00 0.000000000000000D+00 -.161434049482820D+03
 0.141124657982833D+03 0.582005464615082D+02 -.464280401021329D+01 -.297037010030089D+02
 0.116389255685125D+03 -.594192978416699D+02 0.411109711535682D+02 -.323149961329766D+01
 0.451356392127258D+02 0.529806652522675D+01 -.304044236682636D+02 0.329352006163065D+02
 0.114300850524033D+02 -.407931514506505D+01 -.606374347509131D+01 -.878846103255312D+01
 0.151280651490775D+03 0.000000000000000D+00 0.000000000000000D+00 0.151280651490775D+03
 0.151280651490775D+03 0.000000000000000D+00 0.000000000000000D+00 -.151280651490775D+03
 0.140474173736048D+03 0.563024800802850D+02 -.746420594292647D+01 -.297037010030089D+02
 0.116400410444668D+03 -.609883748029630D+02 0.387785992118056D+02 -.323149961329766D+01
 0.000000000000000D+00 -.000000000000000D+00 -.000000000000000D+00 -.000000000000000D+00
 0.456867188008331D+02 0.468589472267804D+01 -.313143932688791D+02 0.329352006163065D+02
 0.152645588450267D+03 0.000000000000000D+00 0.000000000000000D+00 0.152645588450267D+03
 0.161434049482820D+03 0.000000000000000D+00 0.000000000000000D+00 -.161434049482820D+03
 0.141124657982833D+03 0.582005464615082D+02 -.464280401021329D+01 -.297037010030089D+02
 0.116389255685125D+03 -.594192978416699D+02 0.411109711535682D+02 -.323149961329766D+01
 0.114300850524033D+02 -.407931514506505D+01 -.606374347509131D+01 -.878846103255312D+01
 0.451356392127258D+02 0.529806652522675D+01 -.304044236682636D+02 0.329352006163065D+02
0.137392676733D-04 0.000000000000D+00 0.000000000000D+00 0.132960104311D-04 0.000000000000D+00  6 -2 2 25 23 21 21 2 0.30538749D-02 0.17737353D+00 0.20351360D+05 0.20351360D+05 0.20351360D+05 0.12329942D+01  1  2  2  2  6  2        2 0.178236343355D-01 0.100000000000D+01
0.125633690955D-05 0.725041074499D-06 -.527624054978D-07 0.132960104311D-04 0.000000000000D+00  6 -2 2 25 23 21 21 4 0.30538749D-02 0.17737353D+00 0.20351360D+05 0.20351360D+05 0.20351360D+05 0.12329942D+01  1  2  3  2  6  2        2 0.247776946405D-02 0.100000000000D+01
0.530971208472D-06 0.000000000000D+00 0.000000000000D+00 0.132960104311D-04 0.000000000000D+00  6 -2 2 25 23 21 21 4 0.30538749D-02 0.17737353D+00 0.20351360D+05 0.20351360D+05 0.20351360D+05 0.12329942D+01  1  2 15  2  6  2        2 0.104719063544D-02 0.100000000000D+01
0.166248228429D-03 0.000000000000D+00 0.000000000000D+00 0.132451869763D-04 0.000000000000D+00  6 -2 2 25 23 21 21 4 0.30538749D-02 0.19235107D+00 0.21385906D+05 0.21385906D+05 0.21385906D+05 0.12306355D+01  1  2 12  2  6  2        2 0.287625293436D+00 0.100000000000D+01
-.180169104115D-03 0.000000000000D+00 0.000000000000D+00 0.132960104311D-04 0.000000000000D+00  6 -2 2 25 23 21 21 4 0.30538749D-02 0.17737353D+00 0.20351360D+05 0.20351360D+05 0.20351360D+05 0.12329942D+01  1  2  4  2  6  2        2 -.355332635018D+00 0.100000000000D+01
-.468720850971D-03 0.000000000000D+00 -.542016572938D-04 0.132960104311D-04 0.000000000000D+00  6 -2 2 25 23 21 21 4 0.30538749D-02 0.19007627D+00 0.20351360D+05 0.20351360D+05 0.20351360D+05 0.12329942D+01  1  2  5  2  6  2        2 -.831729628381D+00 0.100000000000D+01
0.471470999961D-03 0.000000000000D+00 0.540722607633D-04 0.132960104311D-04 0.000000000000D+00  6 -2 2 25 23 21 21 4 0.30538749D-02 0.17737353D+00 0.20351360D+05 0.20351360D+05 0.20351360D+05 0.12329942D+01  1  2  6  2  6  2        2 0.929843291245D+00 0.100000000000D+01
0.432484655736D-05 0.000000000000D+00 0.000000000000D+00 0.132960104311D-04 0.122342791084D-05  6 -2 2 25 23 21 21 4 0.30814286D-02 0.18927819D+00 0.21385906D+05 0.21385906D+05 0.21385906D+05 0.12306355D+01  1  2 11  2  6  2        2 0.757282503886D-02 0.100000000000D+01
0.261171346085D-05 0.000000000000D+00 0.000000000000D+00 0.132451869763D-04 0.000000000000D+00  6 -2 21 25 23 -2 21 4 0.30538749D-02 0.19235107D+00 0.21385906D+05 0.21385906D+05 0.21385906D+05 0.12306355D+01  3  4 12  5  5  2        2 0.292255192892D-02 0.100000000000D+01
-.540673929549D-05 0.000000000000D+00 -.635518118781D-06 0.132960104311D-04 0.000000000000D+00  6 -2 21 25 23 -2 21 4 0.30538749D-02 0.19007627D+00 0.20351360D+05 0.20351360D+05 0.20351360D+05 0.12329942D+01  3  4  5  5  5  2        2 -.631614791150D-02 0.100000000000D+01
0.428908866714D-07 0.000000000000D+00 0.000000000000D+00 0.132960104311D-04 0.235364243464D-07  6 -2 21 25 23 -2 21 4 0.30814286D-02 0.18927819D+00 0.21385906D+05 0.21385906D+05 0.21385906D+05 0.12306355D+01  3  4 11  5  5  2        2 0.495886148202D-04 0.100000000000D+01
  </mgrwgt>
  </event>
  <event>
  6     66 0.42934962E-03 0.30357562E+02 0.75467711E-02 0.11741773E+00
       -2 -1    0    0    0  501 0.00000000E+00 0.00000000E+00 0.65539392E+02 0.65540173E+02 0.32000000E+00 0.0000E+00 0.9000E+01
        2 -1    0    0  503    0 0.00000000E+00 0.00000000E+00 -.73833145E+03 0.73833152E+03 0.32000000E+00 0.0000E+00 0.9000E+01
       25  1    1    2    0    0 0.21487651E+02 -.10061089E+03 -.93927529E+02 0.18716744E+03 0.12500000E+03 0.0000E+00 0.9000E+01
       23  1    1    2    0    0 -.58580634E+02 0.99387903E+02 -.29255377E+03 0.32743336E+03 0.91188000E+02 0.0000E+00 0.9000E+01
       21  1    1    2  502  501 0.23834573E+02 -.35435230E+01 -.12224266E+03 0.12459725E+03 0.75000000E+00 0.0000E+00 0.9000E+01
       21  1    1    2  503  502 0.13258410E+02 0.47665130E+01 -.16406810E+03 0.16467364E+03 0.75000000E+00 0.0000E+00 0.9000E+01
#aMCatNLO 2  0  0  2  5 0.14089183D+02 0.00000000D+00  -5  6  0 0.00000000D+00 0.00000000D+00 0.00000000D+00 0.00000000D+00 0.00000000D+00
  <mgrwgt>
 0.2163637583D+00    1    2    0
 0.193375008531230D+03 0.000000000000000D+00 0.000000000000000D+00 0.193375008531230D+03
 0.193375008531230D+03 0.000000000000000D+00 0.000000000000000D+00 -.193375008531230D+03
 0.185286450920688D+03 0.278423226421777D+02 -.983255590812666D+02 0.909008162561245D+02
 0.155559536971912D+03 -.532392852345582D+02 0.101308814706584D+03 -.527789803745388D+02
 0.459040291698596D+02 0.253969625923805D+02 -.298325562531786D+01 -.381218358815857D+02
 0.000000000000000D+00 0.000000000000000D+00 0.000000000000000D+00 -.000000000000000D+00
 0.194398864994479D+03 0.000000000000000D+00 0.000000000000000D+00 0.194398864994479D+03
 0.248915540029037D+03 0.000000000000000D+00 0.000000000000000D+00 -.248915540029037D+03
 0.185666696166002D+03 0.214859969693050D+02 -.100610713164175D+03 0.909008162561245D+02
 0.156239270192050D+03 -.585819943564846D+02 0.993880645449202D+02 -.527789803745388D+02
 0.451005978930482D+02 0.238375876365590D+02 -.354386441575288D+01 -.381218358815857D+02
 0.563078407724167D+02 0.132584097506206D+02 0.476651303500733D+01 -.545166750345579D+02
0.390814175772D-03 0.000000000000D+00 0.000000000000D+00 0.132425250139D-04 0.679120238794D-06  6 -2 2 25 23 21 21 4 0.10082920D-01 0.11358807D+00 0.30125836D+05 0.30125836D+05 0.30125836D+05 0.12147077D+01  1  2  1  2  6  2        2 0.216363758310D+00 0.100000000000D+01
  </mgrwgt>
  </event>
  <event>
  5     66 -.42934962E-03 0.22197344E+02 0.75467711E-02 0.12040210E+00
       -2 -1    0    0    0  501 0.00000000E+00 0.00000000E+00 0.22656902E+03 0.22656924E+03 0.32000000E+00 0.0000E+00 0.9000E+01
        2 -1    0    0  502    0 0.00000000E+00 0.00000000E+00 -.10888718E+03 0.10888765E+03 0.32000000E+00 0.0000E+00 0.9000E+01
       25  1    1    2    0    0 -.54371356E+00 0.76164574E+02 0.29713168E+02 0.14936268E+03 0.12500000E+03 0.0000E+00 0.9000E+01
       23  1    1    2    0    0 -.20153598E+02 -.84170464E+02 0.10017878E+03 0.16075408E+03 0.91188000E+02 0.0000E+00 0.9000E+01
       21  1    1    2  502  501 0.20697312E+02 0.80058902E+01 -.12210106E+02 0.25340130E+02 0.75000000E+00 0.0000E+00 0.9000E+01
#aMCatNLO 1  0  0  5  2 0.21700247D+01 0.00000000D+00  -5  6  0 0.00000000D+00 0.00000000D+00 0.00000000D+00 0.00000000D+00 0.00000000D+00
  <mgrwgt>
 -.6339331938D+00   20    2    0
 0.157068701497150D+03 0.000000000000000D+00 0.000000000000000D+00 0.157068701497150D+03
 0.157068701497150D+03 -.000000000000000D+00 -.000000000000000D+00 -.157068701497150D+03
 0.148367298525832D+03 -.546462129109013D+00 0.761635106527661D+02 -.242214016118162D+02
 0.134136980033059D+03 -.201560830925815D+02 -.841714251979731D+02 0.467587592104020D+02
 0.316331244354081D+02 0.207025452216905D+02 0.800791454520708D+01 -.225373575985858D+02
 0.000000000000000D+00 0.000000000000000D+00 0.000000000000000D+00 -.000000000000000D+00
 0.157068701497150D+03 0.000000000000000D+00 0.000000000000000D+00 0.157068701497150D+03
 0.157068701497150D+03 -.000000000000000D+00 -.000000000000000D+00 -.157068701497150D+03
 0.148436876603073D+03 -.360414751319152D+00 0.762354753067131D+02 -.244239378815661D+02
 0.134007324218409D+03 -.199880007377642D+02 -.841064095624790D+02 0.465757801565723D+02
 0.268499548611408D+02 0.188805450014404D+02 0.524601699670012D+01 -.183555005969387D+02
 0.484324731167712D+01 0.146787048764299D+01 0.262491725906582D+01 -.379634167806756D+01
0.785979846942D-04 0.000000000000D+00 0.000000000000D+00 0.224380569796D-04 0.000000000000D+00  6 -2 2 25 23 21 21 2 0.34856825D-01 0.16751927D-01 0.21652752D+05 0.21652752D+05 0.21652752D+05 0.12300477D+01  1  2  2  3  6  5       21 0.304942203107D-01 0.100000000000D+01
0.149855356146D-04 0.414772960475D-05 -.301836956550D-06 0.224380569796D-04 0.000000000000D+00  6 -2 2 25 23 21 21 4 0.34856825D-01 0.16751927D-01 0.21652752D+05 0.21652752D+05 0.21652752D+05 0.12300477D+01  1  2  3  3  6  5       21 0.879675136783D-02 0.100000000000D+01
0.322622557690D-05 0.000000000000D+00 0.000000000000D+00 0.224380569796D-04 0.000000000000D+00  6 -2 2 25 23 21 21 4 0.34856825D-01 0.16751927D-01 0.21652752D+05 0.21652752D+05 0.21652752D+05 0.12300477D+01  1  2 15  3  6  5       21 0.189384650548D-02 0.100000000000D+01
0.192388201267D-06 0.000000000000D+00 0.000000000000D+00 0.224336872624D-04 0.000000000000D+00  6 -2 2 25 23 21 21 4 0.34856825D-01 0.16751927D-01 0.21707591D+05 0.21707591D+05 0.21707591D+05 0.12299279D+01  1  2 12  3  6  5       21 0.112898093706D-03 0.100000000000D+01
0.184991784154D-06 0.000000000000D+00 0.000000000000D+00 0.224336872624D-04 0.000000000000D+00  6 -2 2 25 23 21 21 4 0.34856825D-01 0.16751927D-01 0.21707591D+05 0.21707591D+05 0.21707591D+05 0.12299279D+01  1  2 12  3  6  5       21 0.108557695559D-03 0.100000000000D+01
-.143713173987D-02 0.000000000000D+00 0.000000000000D+00 0.224380569796D-04 0.000000000000D+00  6 -2 2 25 23 21 21 4 0.34856825D-01 0.16751927D-01 0.21652752D+05 0.21652752D+05 0.21652752D+05 0.12300477D+01  1  2  4  3  6  5       21 -.843619535768D+00 0.100000000000D+01
-.104401901957D-02 0.000000000000D+00 0.000000000000D+00 0.224380569796D-04 0.000000000000D+00  6 -2 2 25 23 21 21 4 0.34856825D-01 0.16751927D-01 0.21652752D+05 0.21652752D+05 0.21652752D+05 0.12300477D+01  1  2  5  3  6  5       21 -.612856021611D+00 0.100000000000D+01
0.138524593661D-02 0.000000000000D+00 -.000000000000D+00 0.224380569796D-04 0.000000000000D+00  6 -2 2 25 23 21 21 4 0.34856825D-01 0.16751927D-01 0.21652752D+05 0.21652752D+05 0.21652752D+05 0.12300477D+01  1  2  6  3  6  5       21 0.813161731489D+00 0.100000000000D+01
0.122138370353D-07 0.000000000000D+00 0.000000000000D+00 0.224336872624D-04 0.000000000000D+00  6 -2 2 25 23 1 -1 4 0.34856825D-01 0.16751927D-01 0.21707591D+05 0.21707591D+05 0.21707591D+05 0.12299279D+01  1  2 12  6  6  5       21 0.716737777599D-05 0.100000000000D+01
0.122138370353D-07 0.000000000000D+00 0.000000000000D+00 0.224336872624D-04 0.000000000000D+00  6 -2 2 25 23 3 -3 4 0.34856825D-01 0.16751927D-01 0.21707591D+05 0.21707591D+05 0.21707591D+05 0.12299279D+01  1  2 12  6  6  5       21 0.716737777599D-05 0.100000000000D+01
0.119894774780D-07 0.000000000000D+00 0.000000000000D+00 0.224336872624D-04 0.000000000000D+00  6 -2 2 25 23 1 -1 4 0.34856825D-01 0.16751927D-01 0.21707591D+05 0.21707591D+05 0.21707591D+05 0.12299279D+01  1  2 12  6  6  5       21 0.703571810996D-05 0.100000000000D+01
0.119894774780D-07 0.000000000000D+00 0.000000000000D+00 0.224336872624D-04 0.000000000000D+00  6 -2 2 25 23 3 -3 4 0.34856825D-01 0.16751927D-01 0.21707591D+05 0.21707591D+05 0.21707591D+05 0.12299279D+01  1  2 12  6  6  5       21 0.703571810996D-05 0.100000000000D+01
-.136633610922D-04 0.000000000000D+00 0.000000000000D+00 0.224380569796D-04 0.000000000000D+00  6 -2 2 25 23 1 -1 4 0.34856825D-01 0.16751927D-01 0.21652752D+05 0.21652752D+05 0.21652752D+05 0.12300477D+01  1  2  5  6  6  5       21 -.802061357483D-02 0.100000000000D+01
-.136633610922D-04 0.000000000000D+00 0.000000000000D+00 0.224380569796D-04 0.000000000000D+00  6 -2 2 25 23 3 -3 4 0.34856825D-01 0.16751927D-01 0.21652752D+05 0.21652752D+05 0.21652752D+05 0.12300477D+01  1  2  5  6  6  5       21 -.802061357483D-02 0.100000000000D+01
0.122138370353D-07 0.000000000000D+00 0.000000000000D+00 0.224336872624D-04 0.000000000000D+00  6 -2 2 25 23 2 -2 4 0.34856825D-01 0.16751927D-01 0.21707591D+05 0.21707591D+05 0.21707591D+05 0.12299279D+01  1  2 12  7  6  5       21 0.716737777599D-05 0.100000000000D+01
0.119894774780D-07 0.000000000000D+00 0.000000000000D+00 0.224336872624D-04 0.000000000000D+00  6 -2 2 25 23 2 -2 4 0.34856825D-01 0.16751927D-01 0.21707591D+05 0.21707591D+05 0.21707591D+05 0.12299279D+01  1  2 12  7  6  5       21 0.703571810996D-05 0.100000000000D+01
-.136633610922D-04 0.000000000000D+00 0.000000000000D+00 0.224380569796D-04 0.000000000000D+00  6 -2 2 25 23 2 -2 4 0.34856825D-01 0.16751927D-01 0.21652752D+05 0.21652752D+05 0.21652752D+05 0.12300477D+01  1  2  5  7  6  5       21 -.802061357483D-02 0.100000000000D+01
0.122138370353D-07 0.000000000000D+00 0.000000000000D+00 0.224336872624D-04 0.000000000000D+00  6 -2 2 25 23 4 -4 4 0.34856825D-01 0.16751927D-01 0.21707591D+05 0.21707591D+05 0.21707591D+05 0.12299279D+01  1  2 12  8  6  5       21 0.716737777599D-05 0.100000000000D+01
0.119894774780D-07 0.000000000000D+00 0.000000000000D+00 0.224336872624D-04 0.000000000000D+00  6 -2 2 25 23 4 -4 4 0.34856825D-01 0.16751927D-01 0.21707591D+05 0.21707591D+05 0.21707591D+05 0.12299279D+01  1  2 12  8  6  5       21 0.703571810996D-05 0.100000000000D+01
-.136633610922D-04 0.000000000000D+00 0.000000000000D+00 0.224380569796D-04 0.000000000000D+00  6 -2 2 25 23 4 -4 4 0.34856825D-01 0.16751927D-01 0.21652752D+05 0.21652752D+05 0.21652752D+05 0.12300477D+01  1  2  5  8  6  5       21 -.802061357483D-02 0.100000000000D+01
  </mgrwgt>
  </event>
  <event>
  5     66 0.42934962E-03 0.43414175E+02 0.75467711E-02 0.12215976E+00
       -2 -1    0    0    0  501 0.00000000E+00 0.00000000E+00 0.13986703E+04 0.13986704E+04 0.32000000E+00 0.0000E+00 0.9000E+01
        2 -1    0    0  502    0 0.00000000E+00 0.00000000E+00 -.18962294E+02 0.18964994E+02 0.32000000E+00 0.0000E+00 0.9000E+01
       25  1    1    2    0    0 -.26533143E+02 0.12125639E+02 0.99698266E+03 0.10052116E+04 0.12500000E+03 0.0000E+00 0.9000E+01
       23  1    1    2    0    0 0.27627048E+01 0.24200995E+02 0.33436724E+03 0.34743348E+03 0.91188000E+02 0.0000E+00 0.9000E+01
       21  1    1    2  502  501 0.23770439E+02 -.36326634E+02 0.48358136E+02 0.64990230E+02 0.75000000E+00 0.0000E+00 0.9000E+01
#aMCatNLO 1  0  0  5  2 0.80854748D+01 0.00000000D+00  -5  6  0 0.00000000D+00 0.00000000D+00 0.00000000D+00 0.00000000D+00 0.00000000D+00
  <mgrwgt>
 0.6186393013D-01   25    2    0
 0.162861713082345D+03 0.000000000000000D+00 0.000000000000000D+00 0.162861713082345D+03
 0.162861713082345D+03 -.000000000000000D+00 -.000000000000000D+00 -.162861713082345D+03
 0.151904597714921D+03 -.265336556929495D+02 0.121264222016598D+02 0.812337479566663D+02
 0.958015447961937D+02 0.276238174668402D+01 0.242014883987418D+02 -.164116375693669D+02
 0.780172836535752D+02 0.237712739462655D+02 -.363279106004016D+02 -.648221103872995D+02
 0.000000000000000D+00 0.000000000000000D+00 0.000000000000000D+00 -.000000000000000D+00
 0.162861713082345D+03 0.000000000000000D+00 0.000000000000000D+00 0.162861713082345D+03
 0.162861713082345D+03 -.000000000000000D+00 -.000000000000000D+00 -.162861713082345D+03
 0.151308458722092D+03 -.261922748047945D+02 0.116047145971951D+02 0.803028332035858D+02
 0.958278724126905D+02 0.297813307814750D+01 0.238717713167276D+02 -.169999719033175D+02
 0.185843314927565D+02 0.145982338098533D+00 -.139675566958242D+02 -.122581983235123D+02
 0.600027635371509D+02 0.230681593885485D+02 -.215089292180985D+02 -.510446629767560D+02
0.492164898007D-03 0.000000000000D+00 0.000000000000D+00 0.800420994683D-05 0.000000000000D+00  6 -2 2 25 23 21 21 2 0.21518026D+00 0.29174865D-02 0.17710117D+05 0.17710117D+05 0.17710117D+05 0.12396825D+01  1  2  2  3  6  5       21 0.280833513510D-01 0.100000000000D+01
0.383806431812D-05 0.259722552152D-04 -.189004279834D-05 0.800420994683D-05 0.000000000000D+00  6 -2 2 25 23 21 21 4 0.21518026D+00 0.29174865D-02 0.17710117D+05 0.17710117D+05 0.17710117D+05 0.12396825D+01  1  2  3  3  6  5       21 0.336566975091D-03 0.100000000000D+01
0.314603620138D-04 0.000000000000D+00 0.000000000000D+00 0.800420994683D-05 0.000000000000D+00  6 -2 2 25 23 21 21 4 0.21518026D+00 0.29174865D-02 0.17710117D+05 0.17710117D+05 0.17710117D+05 0.12396825D+01  1  2 15  3  6  5       21 0.275881746646D-02 0.100000000000D+01
0.167782218448D-03 0.000000000000D+00 0.000000000000D+00 0.799531459414D-05 0.000000000000D+00  6 -2 2 25 23 21 21 4 0.21518026D+00 0.29174865D-02 0.17963649D+05 0.17963649D+05 0.17963649D+05 0.12389935D+01  1  2 12  3  6  5       21 0.146834025834D-01 0.100000000000D+01
0.140365515883D-03 0.000000000000D+00 0.000000000000D+00 0.799531459414D-05 0.000000000000D+00  6 -2 2 25 23 21 21 4 0.21518026D+00 0.29174865D-02 0.17963649D+05 0.17963649D+05 0.17963649D+05 0.12389935D+01  1  2 12  3  6  5       21 0.122840393791D-01 0.100000000000D+01
-.954311871047D-03 0.000000000000D+00 0.000000000000D+00 0.800420994683D-05 0.000000000000D+00  6 -2 2 25 23 21 21 4 0.21518026D+00 0.29174865D-02 0.17710117D+05 0.17710117D+05 0.17710117D+05 0.12396825D+01  1  2  4  3  6  5       21 -.836853770833D-01 0.100000000000D+01
-.293733070414D-03 0.000000000000D+00 0.000000000000D+00 0.800420994683D-05 0.000000000000D+00  6 -2 2 25 23 21 21 4 0.21518026D+00 0.29174865D-02 0.17710117D+05 0.17710117D+05 0.17710117D+05 0.12396825D+01  1  2  5  3  6  5       21 -.257579974693D-01 0.100000000000D+01
0.136519651043D-02 0.000000000000D+00 -.000000000000D+00 0.800420994683D-05 0.000000000000D+00  6 -2 2 25 23 21 21 4 0.21518026D+00 0.29174865D-02 0.17710117D+05 0.17710117D+05 0.17710117D+05 0.12396825D+01  1  2  6  3  6  5       21 0.119716612812D+00 0.100000000000D+01
0.951784080489D-06 0.000000000000D+00 0.000000000000D+00 0.800420994683D-05 0.607616530470D-06  6 -2 2 25 23 21 21 4 0.21518026D+00 0.29174865D-02 0.17963649D+05 0.17963649D+05 0.17963649D+05 0.12389935D+01  1  2 11  3  6  5       21 0.832950532871D-04 0.100000000000D+01
0.285297567606D-04 0.000000000000D+00 0.000000000000D+00 0.799531459414D-05 0.000000000000D+00  6 -2 2 25 23 1 -1 4 0.21518026D+00 0.29174865D-02 0.17963649D+05 0.17963649D+05 0.17963649D+05 0.12389935D+01  1  2 12  6  6  5       21 0.249677175565D-02 0.100000000000D+01
0.285297567606D-04 0.000000000000D+00 0.000000000000D+00 0.799531459414D-05 0.000000000000D+00  6 -2 2 25 23 3 -3 4 0.21518026D+00 0.29174865D-02 0.17963649D+05 0.17963649D+05 0.17963649D+05 0.12389935D+01  1  2 12  6  6  5       21 0.249677175565D-02 0.100000000000D+01
0.252196193908D-04 0.000000000000D+00 0.000000000000D+00 0.799531459414D-05 0.000000000000D+00  6 -2 2 25 23 1 -1 4 0.21518026D+00 0.29174865D-02 0.17963649D+05 0.17963649D+05 0.17963649D+05 0.12389935D+01  1  2 12  6  6  5       21 0.220708623321D-02 0.100000000000D+01
0.252196193908D-04 0.000000000000D+00 0.000000000000D+00 0.799531459414D-05 0.000000000000D+00  6 -2 2 25 23 3 -3 4 0.21518026D+00 0.29174865D-02 0.17963649D+05 0.17963649D+05 0.17963649D+05 0.12389935D+01  1  2 12  6  6  5       21 0.220708623321D-02 0.100000000000D+01
-.728229869421D-04 0.000000000000D+00 0.000000000000D+00 0.800420994683D-05 0.000000000000D+00  6 -2 2 25 23 1 -1 4 0.21518026D+00 0.29174865D-02 0.17710117D+05 0.17710117D+05 0.17710117D+05 0.12396825D+01  1  2  5  6  6  5       21 -.638598272480D-02 0.100000000000D+01
-.728229869421D-04 0.000000000000D+00 0.000000000000D+00 0.800420994683D-05 0.000000000000D+00  6 -2 2 25 23 3 -3 4 0.21518026D+00 0.29174865D-02 0.17710117D+05 0.17710117D+05 0.17710117D+05 0.12396825D+01  1  2  5  6  6  5       21 -.638598272480D-02 0.100000000000D+01
0.256453601638D-06 0.000000000000D+00 0.000000000000D+00 0.800420994683D-05 0.240089107804D-07  6 -2 2 25 23 1 -1 4 0.21518026D+00 0.29174865D-02 0.17963649D+05 0.17963649D+05 0.17963649D+05 0.12389935D+01  1  2 11  6  6  5       21 0.224434478911D-04 0.100000000000D+01
0.256453601638D-06 0.000000000000D+00 0.000000000000D+00 0.800420994683D-05 0.240089107804D-07  6 -2 2 25 23 3 -3 4 0.21518026D+00 0.29174865D-02 0.17963649D+05 0.17963649D+05 0.17963649D+05 0.12389935D+01  1  2 11  6  6  5       21 0.224434478911D-04 0.100000000000D+01
0.285297567606D-04 0.000000000000D+00 0.000000000000D+00 0.799531459414D-05 0.000000000000D+00  6 -2 2 25 23 2 -2 4 0.21518026D+00 0.29174865D-02 0.17963649D+05 0.17963649D+05 0.17963649D+05 0.12389935D+01  1  2 12  7  6  5       21 0.249677175565D-02 0.100000000000D+01
0.252196193908D-04 0.000000000000D+00 0.000000000000D+00 0.799531459414D-05 0.000000000000D+00  6 -2 2 25 23 2 -2 4 0.21518026D+00 0.29174865D-02 0.17963649D+05 0.17963649D+05 0.17963649D+05 0.12389935D+01  1  2 12  7  6  5       21 0.220708623321D-02 0.100000000000D+01
-.728229869421D-04 0.000000000000D+00 0.000000000000D+00 0.800420994683D-05 0.000000000000D+00  6 -2 2 25 23 2 -2 4 0.21518026D+00 0.29174865D-02 0.17710117D+05 0.17710117D+05 0.17710117D+05 0.12396825D+01  1  2  5  7  6  5       21 -.638598272480D-02 0.100000000000D+01
0.255528409721D-06 0.000000000000D+00 0.000000000000D+00 0.800420994683D-05 0.257762638372D-07  6 -2 2 25 23 2 -2 4 0.21518026D+00 0.29174865D-02 0.17963649D+05 0.17963649D+05 0.17963649D+05 0.12389935D+01  1  2 11  7  6  5       21 0.223624800419D-04 0.100000000000D+01
0.285297567606D-04 0.000000000000D+00 0.000000000000D+00 0.799531459414D-05 0.000000000000D+00  6 -2 2 25 23 4 -4 4 0.21518026D+00 0.29174865D-02 0.17963649D+05 0.17963649D+05 0.17963649D+05 0.12389935D+01  1  2 12  8  6  5       21 0.249677175565D-02 0.100000000000D+01
0.252196193908D-04 0.000000000000D+00 0.000000000000D+00 0.799531459414D-05 0.000000000000D+00  6 -2 2 25 23 4 -4 4 0.21518026D+00 0.29174865D-02 0.17963649D+05 0.17963649D+05 0.17963649D+05 0.12389935D+01  1  2 12  8  6  5       21 0.220708623321D-02 0.100000000000D+01
-.728229869421D-04 0.000000000000D+00 0.000000000000D+00 0.800420994683D-05 0.000000000000D+00  6 -2 2 25 23 4 -4 4 0.21518026D+00 0.29174865D-02 0.17710117D+05 0.17710117D+05 0.17710117D+05 0.12396825D+01  1  2  5  8  6  5       21 -.638598272480D-02 0.100000000000D+01
0.256741401256D-06 0.000000000000D+00 0.000000000000D+00 0.800420994683D-05 0.240358542716D-07  6 -2 2 25 23 4 -4 4 0.21518026D+00 0.29174865D-02 0.17963649D+05 0.17963649D+05 0.17963649D+05 0.12389935D+01  1  2 11  8  6  5       21 0.224686345747D-04 0.100000000000D+01
  </mgrwgt>
  </event>
  <event>
  5     66 0.42934962E-03 0.29111462E+02 0.75467711E-02 0.11853784E+00
       -2 -1    0    0    0  501 0.00000000E+00 0.00000000E+00 0.45101021E+03 0.45101033E+03 0.32000000E+00 0.0000E+00 0.9000E+01
        2 -1    0    0  502    0 0.00000000E+00 0.00000000E+00 -.86603207E+02 0.86603798E+02 0.32000000E+00 0.0000E+00 0.9000E+01
       25  1    1    2    0    0 0.87949155E+02 -.70958303E+02 0.41341950E+02 0.17350588E+03 0.12500000E+03 0.0000E+00 0.9000E+01
       23  1    1    2    0    0 -.58947899E+02 0.68530146E+02 0.30203510E+03 0.32819459E+03 0.91188000E+02 0.0000E+00 0.9000E+01
       21  1    1    2  502  501 -.29001257E+02 0.24281573E+01 0.21029957E+02 0.35913652E+02 0.75000000E+00 0.0000E+00 0.9000E+01
#aMCatNLO 1  0  0  5  2 0.46545618D+01 0.00000000D+00  -5  6  0 0.00000000D+00 0.00000000D+00 0.00000000D+00 0.00000000D+00 0.00000000D+00
  <mgrwgt>
 0.7041997096D-01   25    2    0
 0.197633803288705D+03 0.000000000000000D+00 0.000000000000000D+00 0.197633803288705D+03
 0.197633803288705D+03 -.000000000000000D+00 -.000000000000000D+00 -.197633803288705D+03
 0.197877709672548D+03 0.879538629320789D+02 -.709586972095564D+02 -.103728343623625D+03
 0.167931520599654D+03 -.589439035915963D+02 0.685298112467794D+02 0.108235971223884D+03
 0.294583763052082D+02 -.290099593404827D+02 0.242888596277694D+01 -.450762760025905D+01
 0.000000000000000D+00 0.000000000000000D+00 0.000000000000000D+00 0.000000000000000D+00
 0.197633803288705D+03 0.000000000000000D+00 0.000000000000000D+00 0.197633803288705D+03
 0.197633803288705D+03 -.000000000000000D+00 -.000000000000000D+00 -.197633803288705D+03
 0.197584801209584D+03 0.872054978388216D+02 -.708960396425908D+02 -.103844626142668D+03
 0.168113914045522D+03 -.595798290361497D+02 0.685830546990546D+02 0.108137159810468D+03
 0.160455354581553D+02 -.152959220288117D+02 -.320332371220599D+01 -.363767709153151D+01
 0.135233558641492D+02 -.123297467738604D+02 0.551630865574223D+01 -.654856576268797D+00
0.301881569744D-03 0.000000000000D+00 0.000000000000D+00 0.791030963089D-05 0.000000000000D+00  6 -2 2 25 23 21 21 2 0.69386241D-01 0.13323624D-01 0.26572317D+05 0.26572317D+05 0.26572317D+05 0.12204678D+01  1  2  2  3  6  5       21 0.387858159240D-01 0.100000000000D+01
0.551487239358D-04 0.159307281074D-04 -.115930471506D-05 0.791030963089D-05 0.000000000000D+00  6 -2 2 25 23 21 21 4 0.69386241D-01 0.13323624D-01 0.26572317D+05 0.26572317D+05 0.26572317D+05 0.12204678D+01  1  2  3  3  6  5       21 0.105541789001D-01 0.100000000000D+01
0.563478523517D-05 0.000000000000D+00 0.000000000000D+00 0.791030963089D-05 0.000000000000D+00  6 -2 2 25 23 21 21 4 0.69386241D-01 0.13323624D-01 0.26572317D+05 0.26572317D+05 0.26572317D+05 0.12204678D+01  1  2 15  3  6  5       21 0.107836640979D-02 0.100000000000D+01
0.797934332619D-04 0.000000000000D+00 0.000000000000D+00 0.791056890345D-05 0.000000000000D+00  6 -2 2 25 23 21 21 4 0.69386241D-01 0.13323624D-01 0.26560823D+05 0.26560823D+05 0.26560823D+05 0.12204878D+01  1  2 12  3  6  5       21 0.152715083623D-01 0.100000000000D+01
0.795980548913D-04 0.000000000000D+00 0.000000000000D+00 0.791056890345D-05 0.000000000000D+00  6 -2 2 25 23 21 21 4 0.69386241D-01 0.13323624D-01 0.26560823D+05 0.26560823D+05 0.26560823D+05 0.12204878D+01  1  2 12  3  6  5       21 0.152341152799D-01 0.100000000000D+01
-.165370477913D-02 0.000000000000D+00 0.000000000000D+00 0.791030963089D-05 0.000000000000D+00  6 -2 2 25 23 21 21 4 0.69386241D-01 0.13323624D-01 0.26572317D+05 0.26572317D+05 0.26572317D+05 0.12204678D+01  1  2  4  3  6  5       21 -.316480506550D+00 0.100000000000D+01
-.623107513209D-03 0.000000000000D+00 0.000000000000D+00 0.791030963089D-05 0.000000000000D+00  6 -2 2 25 23 21 21 4 0.69386241D-01 0.13323624D-01 0.26572317D+05 0.26572317D+05 0.26572317D+05 0.12204678D+01  1  2  5  3  6  5       21 -.119248238201D+00 0.100000000000D+01
0.174678602896D-02 0.000000000000D+00 -.000000000000D+00 0.791030963089D-05 0.000000000000D+00  6 -2 2 25 23 21 21 4 0.69386241D-01 0.13323624D-01 0.26572317D+05 0.26572317D+05 0.26572317D+05 0.12204678D+01  1  2  6  3  6  5       21 0.334294085776D+00 0.100000000000D+01
0.491201490735D-03 0.000000000000D+00 0.000000000000D+00 0.791030963089D-05 0.179639086519D-05  6 -2 2 25 23 21 21 4 0.69386241D-01 0.13323624D-01 0.26560823D+05 0.26560823D+05 0.26560823D+05 0.12204878D+01  1  2 11  3  6  5       21 0.940100878817D-01 0.100000000000D+01
0.304008739313D-05 0.000000000000D+00 0.000000000000D+00 0.791056890345D-05 0.000000000000D+00  6 -2 2 25 23 1 -1 4 0.69386241D-01 0.13323624D-01 0.26560823D+05 0.26560823D+05 0.26560823D+05 0.12204878D+01  1  2 12  6  6  5       21 0.581836351042D-03 0.100000000000D+01
0.304008739313D-05 0.000000000000D+00 0.000000000000D+00 0.791056890345D-05 0.000000000000D+00  6 -2 2 25 23 3 -3 4 0.69386241D-01 0.13323624D-01 0.26560823D+05 0.26560823D+05 0.26560823D+05 0.12204878D+01  1  2 12  6  6  5       21 0.581836351042D-03 0.100000000000D+01
0.303272206758D-05 0.000000000000D+00 0.000000000000D+00 0.791056890345D-05 0.000000000000D+00  6 -2 2 25 23 1 -1 4 0.69386241D-01 0.13323624D-01 0.26560823D+05 0.26560823D+05 0.26560823D+05 0.12204878D+01  1  2 12  6  6  5       21 0.580426715862D-03 0.100000000000D+01
0.303272206758D-05 0.000000000000D+00 0.000000000000D+00 0.791056890345D-05 0.000000000000D+00  6 -2 2 25 23 3 -3 4 0.69386241D-01 0.13323624D-01 0.26560823D+05 0.26560823D+05 0.26560823D+05 0.12204878D+01  1  2 12  6  6  5       21 0.580426715862D-03 0.100000000000D+01
-.389592410978D-04 0.000000000000D+00 0.000000000000D+00 0.791030963089D-05 0.000000000000D+00  6 -2 2 25 23 1 -1 4 0.69386241D-01 0.13323624D-01 0.26572317D+05 0.26572317D+05 0.26572317D+05 0.12204678D+01  1  2  5  6  6  5       21 -.745588965641D-02 0.100000000000D+01
-.389592410978D-04 0.000000000000D+00 0.000000000000D+00 0.791030963089D-05 0.000000000000D+00  6 -2 2 25 23 3 -3 4 0.69386241D-01 0.13323624D-01 0.26572317D+05 0.26572317D+05 0.26572317D+05 0.12204678D+01  1  2  5  6  6  5       21 -.745588965641D-02 0.100000000000D+01
0.288428165989D-04 0.000000000000D+00 0.000000000000D+00 0.791030963089D-05 0.122753029779D-06  6 -2 2 25 23 1 -1 4 0.69386241D-01 0.13323624D-01 0.26560823D+05 0.26560823D+05 0.26560823D+05 0.12204878D+01  1  2 11  6  6  5       21 0.552016997986D-02 0.100000000000D+01
0.288428165989D-04 0.000000000000D+00 0.000000000000D+00 0.791030963089D-05 0.122753029779D-06  6 -2 2 25 23 3 -3 4 0.69386241D-01 0.13323624D-01 0.26560823D+05 0.26560823D+05 0.26560823D+05 0.12204878D+01  1  2 11  6  6  5       21 0.552016997986D-02 0.100000000000D+01
0.304008739313D-05 0.000000000000D+00 0.000000000000D+00 0.791056890345D-05 0.000000000000D+00  6 -2 2 25 23 2 -2 4 0.69386241D-01 0.13323624D-01 0.26560823D+05 0.26560823D+05 0.26560823D+05 0.12204878D+01  1  2 12  7  6  5       21 0.581836351042D-03 0.100000000000D+01
0.303272206758D-05 0.000000000000D+00 0.000000000000D+00 0.791056890345D-05 0.000000000000D+00  6 -2 2 25 23 2 -2 4 0.69386241D-01 0.13323624D-01 0.26560823D+05 0.26560823D+05 0.26560823D+05 0.12204878D+01  1  2 12  7  6  5       21 0.580426715862D-03 0.100000000000D+01
-.389592410978D-04 0.000000000000D+00 0.000000000000D+00 0.791030963089D-05 0.000000000000D+00  6 -2 2 25 23 2 -2 4 0.69386241D-01 0.13323624D-01 0.26572317D+05 0.26572317D+05 0.26572317D+05 0.12204678D+01  1  2  5  7  6  5       21 -.745588965641D-02 0.100000000000D+01
0.289127361625D-04 0.000000000000D+00 0.000000000000D+00 0.791030963089D-05 0.123582675584D-06  6 -2 2 25 23 2 -2 4 0.69386241D-01 0.13323624D-01 0.26560823D+05 0.26560823D+05 0.26560823D+05 0.12204878D+01  1  2 11  7  6  5       21 0.553355174771D-02 0.100000000000D+01
0.304008739313D-05 0.000000000000D+00 0.000000000000D+00 0.791056890345D-05 0.000000000000D+00  6 -2 2 25 23 4 -4 4 0.69386241D-01 0.13323624D-01 0.26560823D+05 0.26560823D+05 0.26560823D+05 0.12204878D+01  1  2 12  8  6  5       21 0.581836351042D-03 0.100000000000D+01
0.303272206758D-05 0.000000000000D+00 0.000000000000D+00 0.791056890345D-05 0.000000000000D+00  6 -2 2 25 23 4 -4 4 0.69386241D-01 0.13323624D-01 0.26560823D+05 0.26560823D+05 0.26560823D+05 0.12204878D+01  1  2 12  8  6  5       21 0.580426715862D-03 0.100000000000D+01
-.389592410978D-04 0.000000000000D+00 0.000000000000D+00 0.791030963089D-05 0.000000000000D+00  6 -2 2 25 23 4 -4 4 0.69386241D-01 0.13323624D-01 0.26572317D+05 0.26572317D+05 0.26572317D+05 0.12204678D+01  1  2  5  8  6  5       21 -.745588965641D-02 0.100000000000D+01
0.288480512248D-04 0.000000000000D+00 0.000000000000D+00 0.791030963089D-05 0.122775307984D-06  6 -2 2 25 23 4 -4 4 0.69386241D-01 0.13323624D-01 0.26560823D+05 0.26560823D+05 0.26560823D+05 0.12204878D+01  1  2 11  8  6  5       21 0.552117182462D-02 0.100000000000D+01
  </mgrwgt>
  </event>
  <event>
  5     66 0.42934962E-03 0.40926675E+02 0.75467711E-02 0.11767648E+00
       -2 -1    0    0    0  501 0.00000000E+00 0.00000000E+00 0.51590512E+02 0.51591504E+02 0.32000000E+00 0.0000E+00 0.9000E+01
        2 -1    0    0  502    0 -.00000000E+00 -.00000000E+00 -.58999364E+03 0.58999372E+03 0.32000000E+00 0.0000E+00 0.9000E+01
       25  1    1    2    0    0 -.12062754E+03 -.25564029E+02 -.28469195E+03 0.33448323E+03 0.12500000E+03 0.0000E+00 0.9000E+01
       23  1    1    2    0    0 0.80048012E+02 0.30848491E+02 -.22369033E+03 0.25634338E+03 0.91188000E+02 0.0000E+00 0.9000E+01
       21  1    1    2  502  501 0.40579530E+02 -.52844623E+01 -.30020844E+02 0.50758619E+02 0.75000000E+00 0.0000E+00 0.9000E+01
#aMCatNLO 1  0  0  5  1 0.25909235D+01 0.00000000D+00  -5  6  0 0.00000000D+00 0.00000000D+00 0.00000000D+00 0.00000000D+00 0.00000000D+00
  <mgrwgt>
 0.5380286358D-01   25    2    0
 0.174466099724677D+03 0.000000000000000D+00 0.000000000000000D+00 0.174466099724677D+03
 0.174466099724677D+03 -.000000000000000D+00 -.000000000000000D+00 -.174466099724677D+03
 0.175739270526743D+03 -.120630143636996D+03 -.255636898126173D+02 -.735917213780156D+01
 0.126185565857235D+03 0.800461435035187D+02 0.308487342315054D+02 -.157643963804093D+02
 0.470073630653762D+02 0.405840001334773D+02 -.528504441888810D+01 0.231235685182108D+02
 0.000000000000000D+00 0.000000000000000D+00 0.000000000000000D+00 0.000000000000000D+00
 0.174466099724677D+03 0.000000000000000D+00 0.000000000000000D+00 0.174466099724677D+03
 0.174466099724677D+03 -.000000000000000D+00 -.000000000000000D+00 -.174466099724677D+03
 0.175256939240830D+03 -.119930715916977D+03 -.256547726668442D+02 -.696065881348160D+01
 0.126454119054910D+03 0.805495768566066D+02 0.307831747099139D+02 -.154775548764621D+02
 0.295770283003820D+01 0.838564236140659D+00 -.271916685655014D+01 0.806813273887366D+00
 0.442634383235768D+02 0.385425748242299D+02 -.240923518651960D+01 0.216314004160563D+02
0.492114133756D-04 0.000000000000D+00 0.000000000000D+00 0.652488706820D-05 0.000000000000D+00  6 -2 2 25 23 21 21 2 0.79370848D-02 0.90768335D-01 0.29191219D+05 0.29191219D+05 0.29191219D+05 0.12161461D+01  1  2  2  3  6  5       21 0.350567208924D-01 0.100000000000D+01
0.449315761329D-05 0.259695763121D-05 -.188984785025D-06 0.652488706820D-05 0.000000000000D+00  6 -2 2 25 23 21 21 4 0.79370848D-02 0.90768335D-01 0.29191219D+05 0.29191219D+05 0.29191219D+05 0.12161461D+01  1  2  3  3  6  5       21 0.473400364699D-02 0.100000000000D+01
0.175526328905D-05 0.000000000000D+00 0.000000000000D+00 0.652488706820D-05 0.000000000000D+00  6 -2 2 25 23 21 21 4 0.79370848D-02 0.90768335D-01 0.29191219D+05 0.29191219D+05 0.29191219D+05 0.12161461D+01  1  2 15  3  6  5       21 0.184935039608D-02 0.100000000000D+01
0.562380028352D-08 0.000000000000D+00 0.000000000000D+00 0.652380641500D-05 0.000000000000D+00  6 -2 2 25 23 21 21 4 0.79370848D-02 0.90768335D-01 0.29255594D+05 0.29255594D+05 0.29255594D+05 0.12160454D+01  1  2 12  3  6  5       21 0.592356919449D-05 0.100000000000D+01
0.633654928808D-08 0.000000000000D+00 0.000000000000D+00 0.652380641500D-05 0.000000000000D+00  6 -2 2 25 23 21 21 4 0.79370848D-02 0.90768335D-01 0.29255594D+05 0.29255594D+05 0.29255594D+05 0.12160454D+01  1  2 12  3  6  5       21 0.667431030086D-05 0.100000000000D+01
-.388250361549D-04 0.000000000000D+00 0.000000000000D+00 0.652488706820D-05 0.000000000000D+00  6 -2 2 25 23 21 21 4 0.79370848D-02 0.90768335D-01 0.29191219D+05 0.29191219D+05 0.29191219D+05 0.12161461D+01  1  2  4  3  6  5       21 -.409061685725D-01 0.100000000000D+01
-.129280649194D-05 0.000000000000D+00 0.000000000000D+00 0.652488706820D-05 0.000000000000D+00  6 -2 2 25 23 21 21 4 0.79370848D-02 0.90768335D-01 0.29191219D+05 0.29191219D+05 0.29191219D+05 0.12161461D+01  1  2  5  3  6  5       21 -.136210459869D-02 0.100000000000D+01
0.498877485282D-04 0.000000000000D+00 -.000000000000D+00 0.652488706820D-05 0.000000000000D+00  6 -2 2 25 23 21 21 4 0.79370848D-02 0.90768335D-01 0.29191219D+05 0.29191219D+05 0.29191219D+05 0.12161461D+01  1  2  6  3  6  5       21 0.525618738088D-01 0.100000000000D+01
0.120392510812D-05 0.000000000000D+00 0.000000000000D+00 0.652488706820D-05 0.516891179436D-05  6 -2 2 25 23 21 21 4 0.79370848D-02 0.90768335D-01 0.29255594D+05 0.29255594D+05 0.29255594D+05 0.12160454D+01  1  2 11  3  6  5       21 0.126809867410D-02 0.100000000000D+01
0.761496661814D-08 0.000000000000D+00 0.000000000000D+00 0.652380641500D-05 0.000000000000D+00  6 -2 2 25 23 1 -1 4 0.79370848D-02 0.90768335D-01 0.29255594D+05 0.29255594D+05 0.29255594D+05 0.12160454D+01  1  2 12  6  6  5       21 0.802087190196D-05 0.100000000000D+01
0.761496661814D-08 0.000000000000D+00 0.000000000000D+00 0.652380641500D-05 0.000000000000D+00  6 -2 2 25 23 3 -3 4 0.79370848D-02 0.90768335D-01 0.29255594D+05 0.29255594D+05 0.29255594D+05 0.12160454D+01  1  2 12  6  6  5       21 0.802087190196D-05 0.100000000000D+01
0.779097000189D-08 0.000000000000D+00 0.000000000000D+00 0.652380641500D-05 0.000000000000D+00  6 -2 2 25 23 1 -1 4 0.79370848D-02 0.90768335D-01 0.29255594D+05 0.29255594D+05 0.29255594D+05 0.12160454D+01  1  2 12  6  6  5       21 0.820625690312D-05 0.100000000000D+01
0.779097000189D-08 0.000000000000D+00 0.000000000000D+00 0.652380641500D-05 0.000000000000D+00  6 -2 2 25 23 3 -3 4 0.79370848D-02 0.90768335D-01 0.29255594D+05 0.29255594D+05 0.29255594D+05 0.12160454D+01  1  2 12  6  6  5       21 0.820625690312D-05 0.100000000000D+01
-.246648329665D-05 0.000000000000D+00 0.000000000000D+00 0.652488706820D-05 0.000000000000D+00  6 -2 2 25 23 1 -1 4 0.79370848D-02 0.90768335D-01 0.29191219D+05 0.29191219D+05 0.29191219D+05 0.12161461D+01  1  2  5  6  6  5       21 -.259869381993D-02 0.100000000000D+01
-.246648329665D-05 0.000000000000D+00 0.000000000000D+00 0.652488706820D-05 0.000000000000D+00  6 -2 2 25 23 3 -3 4 0.79370848D-02 0.90768335D-01 0.29191219D+05 0.29191219D+05 0.29191219D+05 0.12161461D+01  1  2  5  6  6  5       21 -.259869381993D-02 0.100000000000D+01
0.260092800969D-05 0.000000000000D+00 0.000000000000D+00 0.652488706820D-05 0.634636101767D-07  6 -2 2 25 23 1 -1 4 0.79370848D-02 0.90768335D-01 0.29255594D+05 0.29255594D+05 0.29255594D+05 0.12160454D+01  1  2 11  6  6  5       21 0.273956688690D-02 0.100000000000D+01
0.260092800969D-05 0.000000000000D+00 0.000000000000D+00 0.652488706820D-05 0.634636101767D-07  6 -2 2 25 23 3 -3 4 0.79370848D-02 0.90768335D-01 0.29255594D+05 0.29255594D+05 0.29255594D+05 0.12160454D+01  1  2 11  6  6  5       21 0.273956688690D-02 0.100000000000D+01
0.761496661814D-08 0.000000000000D+00 0.000000000000D+00 0.652380641500D-05 0.000000000000D+00  6 -2 2 25 23 2 -2 4 0.79370848D-02 0.90768335D-01 0.29255594D+05 0.29255594D+05 0.29255594D+05 0.12160454D+01  1  2 12  7  6  5       21 0.802087190196D-05 0.100000000000D+01
0.779097000189D-08 0.000000000000D+00 0.000000000000D+00 0.652380641500D-05 0.000000000000D+00  6 -2 2 25 23 2 -2 4 0.79370848D-02 0.90768335D-01 0.29255594D+05 0.29255594D+05 0.29255594D+05 0.12160454D+01  1  2 12  7  6  5       21 0.820625690312D-05 0.100000000000D+01
-.246648329665D-05 0.000000000000D+00 0.000000000000D+00 0.652488706820D-05 0.000000000000D+00  6 -2 2 25 23 2 -2 4 0.79370848D-02 0.90768335D-01 0.29191219D+05 0.29191219D+05 0.29191219D+05 0.12161461D+01  1  2  5  7  6  5       21 -.259869381993D-02 0.100000000000D+01
0.256149498637D-05 0.000000000000D+00 0.000000000000D+00 0.652488706820D-05 0.650560226035D-07  6 -2 2 25 23 2 -2 4 0.79370848D-02 0.90768335D-01 0.29255594D+05 0.29255594D+05 0.29255594D+05 0.12160454D+01  1  2 11  7  6  5       21 0.269803194071D-02 0.100000000000D+01
0.761496661814D-08 0.000000000000D+00 0.000000000000D+00 0.652380641500D-05 0.000000000000D+00  6 -2 2 25 23 4 -4 4 0.79370848D-02 0.90768335D-01 0.29255594D+05 0.29255594D+05 0.29255594D+05 0.12160454D+01  1  2 12  8  6  5       21 0.802087190196D-05 0.100000000000D+01
0.779097000189D-08 0.000000000000D+00 0.000000000000D+00 0.652380641500D-05 0.000000000000D+00  6 -2 2 25 23 4 -4 4 0.79370848D-02 0.90768335D-01 0.29255594D+05 0.29255594D+05 0.29255594D+05 0.12160454D+01  1  2 12  8  6  5       21 0.820625690312D-05 0.100000000000D+01
-.246648329665D-05 0.000000000000D+00 0.000000000000D+00 0.652488706820D-05 0.000000000000D+00  6 -2 2 25 23 4 -4 4 0.79370848D-02 0.90768335D-01 0.29191219D+05 0.29191219D+05 0.29191219D+05 0.12161461D+01  1  2  5  8  6  5       21 -.259869381993D-02 0.100000000000D+01
0.260247135669D-05 0.000000000000D+00 0.000000000000D+00 0.652488706820D-05 0.635012684172D-07  6 -2 2 25 23 4 -4 4 0.79370848D-02 0.90768335D-01 0.29255594D+05 0.29255594D+05 0.29255594D+05 0.12160454D+01  1  2 11  8  6  5       21 0.274119249988D-02 0.100000000000D+01
  </mgrwgt>
  </event>
  <event>
  6     66 -.42934962E-03 0.40407794E+02 0.75467711E-02 0.11731446E+00
       -2 -1    0    0    0  501 0.00000000E+00 0.00000000E+00 0.18216077E+02 0.18218887E+02 0.32000000E+00 0.0000E+00 0.9000E+01
        2 -1    0    0  502    0 -.00000000E+00 -.00000000E+00 -.31654802E+04 0.31654802E+04 0.32000000E+00 0.0000E+00 0.9000E+01
       25  1    1    2    0    0 0.51504884E+02 0.76956327E+02 -.10495185E+04 0.10609850E+04 0.12500000E+03 0.0000E+00 0.9000E+01
       23  1    1    2    0    0 -.12571278E+02 -.85390093E+02 -.32143964E+03 0.34509158E+03 0.91188000E+02 0.0000E+00 0.9000E+01
       21  1    1    2  503  501 -.41892236E+02 0.26527583E+02 -.13828909E+04 0.13837798E+04 0.75000000E+00 0.0000E+00 0.9000E+01
       21  1    1    2  502  503 0.29586309E+01 -.18093817E+02 -.39341510E+03 0.39384279E+03 0.75000000E+00 0.0000E+00 0.9000E+01
#aMCatNLO 2  0  0  5  1 0.22555488D+02 0.00000000D+00  -5  6  0 0.00000000D+00 0.00000000D+00 0.00000000D+00 0.00000000D+00 0.00000000D+00
  <mgrwgt>
 -.3729717065D-01    2    2    0
 0.240139815381098D+03 0.000000000000000D+00 0.000000000000000D+00 0.240139815381098D+03
 0.240139815381098D+03 -.000000000000000D+00 -.000000000000000D+00 -.240139815381098D+03
 0.155812830925982D+03 0.525876866644265D+02 0.767217714794362D+02 -.971222688134688D+00
 0.184204316861966D+03 -.113009617499337D+02 -.856652680495966D+02 0.134720930519725D+03
 0.140262482974249D+03 -.412867249144928D+02 0.894349657016046D+01 -.133749707831591D+03
 0.000000000000000D+00 0.000000000000000D+00 0.000000000000000D+00 -.000000000000000D+00
 0.240139815381098D+03 0.000000000000000D+00 0.000000000000000D+00 0.240139815381098D+03
 0.240139815381098D+03 -.000000000000000D+00 -.000000000000000D+00 -.240139815381098D+03
 0.155627376861163D+03 0.514997009318004D+02 0.769574500586472D+02 -.449578837274763D+01
 0.181155812600561D+03 -.125773114253658D+02 -.853887862272144D+02 0.130586153626340D+03
 0.110576563059312D+03 -.418761887933297D+02 0.266271921491970D+02 -.988157565796318D+02
 0.329198782411598D+02 0.295379928689513D+01 -.181958559806298D+02 -.272746086739609D+02
-.297516126120D-03 0.000000000000D+00 0.000000000000D+00 0.684226694153D-05 0.000000000000D+00  6 -2 2 25 23 21 21 4 0.28026908D-02 0.48699718D+00 0.30481456D+05 0.30481456D+05 0.30481456D+05 0.12141734D+01  1  2 13  3  6  5       21 -.514590340572D-01 0.100000000000D+01
0.818783876838D-04 0.000000000000D+00 0.000000000000D+00 0.692095285121D-05 0.305692933119D-07  6 -2 2 25 23 21 21 4 0.28026908D-02 0.48699718D+00 0.30481456D+05 0.30481456D+05 0.30481456D+05 0.12141734D+01  1  2  1  3  6  5       21 0.141618634100D-01 0.100000000000D+01
  </mgrwgt>
  </event>
  <event>
  6     66 -.42934962E-03 0.29542273E+02 0.75467711E-02 0.12096049E+00
       -2 -1    0    0    0  501 0.00000000E+00 0.00000000E+00 0.12026512E+03 0.12026555E+03 0.32000000E+00 0.0000E+00 0.9000E+01
        2 -1    0    0  502    0 -.00000000E+00 -.00000000E+00 -.46982133E+03 0.46982144E+03 0.32000000E+00 0.0000E+00 0.9000E+01
       25  1    1    2    0    0 -.30593375E+02 -.32398506E+02 0.37222287E+02 0.13782640E+03 0.12500000E+03 0.0000E+00 0.9000E+01
       23  1    1    2    0    0 0.55757197E+02 0.26516017E+02 -.66263748E+02 0.12852276E+03 0.91188000E+02 0.0000E+00 0.9000E+01
       21  1    1    2  503  501 -.33688229E+02 0.38207220E+01 -.29008560E+03 0.29206115E+03 0.75000000E+00 0.0000E+00 0.9000E+01
       21  1    1    2  502  503 0.85244072E+01 0.20617667E+01 -.30429144E+02 0.31676675E+02 0.75000000E+00 0.0000E+00 0.9000E+01
#aMCatNLO 2  0  0  5  1 0.10852278D+02 0.00000000D+00  -5  6  0 0.00000000D+00 0.00000000D+00 0.00000000D+00 0.00000000D+00 0.00000000D+00
  <mgrwgt>
 -.3450886679D+00    3    2    0
 0.237704177129969D+03 0.000000000000000D+00 0.000000000000000D+00 0.237704177129969D+03
 0.237704177129969D+03 -.000000000000000D+00 -.000000000000000D+00 -.237704177129969D+03
 0.199739012318440D+03 -.303125423982886D+02 -.324641552708743D+02 0.149324818559562D+03
 0.110987279372944D+03 0.559136232144573D+02 0.264794494738014D+02 0.132450116347258D+02
 0.164682062568554D+03 -.256010808161688D+02 0.598470579707291D+01 -.162569830194288D+03
 0.000000000000000D+00 0.000000000000000D+00 0.000000000000000D+00 -.000000000000000D+00
 0.237704177129969D+03 0.000000000000000D+00 0.000000000000000D+00 0.237704177129969D+03
 0.237704177129969D+03 -.000000000000000D+00 -.000000000000000D+00 -.237704177129969D+03
 0.198437013283180D+03 -.305943945425052D+02 -.323982673431918D+02 0.147535024778816D+03
 0.110802411159758D+03 0.557566275747844D+02 0.265161499835030D+02 0.122480711279501D+02
 0.149168725002823D+03 -.337403145005094D+02 0.380968019750117D+01 -.145252834854151D+03
 0.170002048141764D+02 0.857808146823012D+01 0.207243716218759D+01 -.145302610526150D+02
-.112273438914D-02 0.000000000000D+00 0.000000000000D+00 0.279089638574D-04 0.000000000000D+00  6 -2 2 25 23 21 21 4 0.18502367D-01 0.72280245D-01 0.20393004D+05 0.20393004D+05 0.20393004D+05 0.12328967D+01  1  2 13  3  6  5       21 -.410728296139D+00 0.100000000000D+01
-.826000242819D-04 0.000000000000D+00 0.000000000000D+00 0.281678788720D-04 0.000000000000D+00  6 -2 2 25 23 21 21 4 0.18502367D-01 0.72280245D-01 0.18109356D+05 0.18109356D+05 0.18109356D+05 0.12386024D+01  1  2  8  3  6  5       21 -.307374198292D-01 0.100000000000D+01
0.263448676861D-03 0.000000000000D+00 0.000000000000D+00 0.281678788720D-04 0.535453781731D-06  6 -2 2 25 23 21 21 4 0.18502367D-01 0.72280245D-01 0.20393004D+05 0.20393004D+05 0.20393004D+05 0.12328967D+01  1  2  1  3  6  5       21 0.963770480480D-01 0.100000000000D+01
  </mgrwgt>
  </event>
  <event>
  5     66 0.42934962E-03 0.24745804E+02 0.75467711E-02 0.11646339E+00
       -2 -1    0    0    0  501 0.00000000E+00 0.00000000E+00 0.10972744E+02 0.10977409E+02 0.32000000E+00 0.0000E+00 0.9000E+01
        2 -1    0    0  502    0 0.00000000E+00 0.00000000E+00 -.30728688E+04 0.30728688E+04 0.32000000E+00 0.0000E+00 0.9000E+01
       25  1    1    2    0    0 -.73549628E+02 0.74592242E+02 -.20545611E+04 0.20610240E+04 0.12500000E+03 0.0000E+00 0.9000E+01
       23  1    1    2    0    0 0.98100397E+02 -.71575077E+02 -.83142549E+03 0.84518062E+03 0.91188000E+02 0.0000E+00 0.9000E+01
       21  1    1    2  502  501 -.24550769E+02 -.30171651E+01 -.17590943E+03 0.17764159E+03 0.75000000E+00 0.0000E+00 0.9000E+01
#aMCatNLO 1  0  0  2  1 0.22126995D+03 0.00000000D+00  -5  6  0 0.00000000D+00 0.00000000D+00 0.00000000D+00 0.00000000D+00 0.00000000D+00
  <mgrwgt>
 0.3182319605D+00    7    4    0
 0.183643733278122D+03 0.000000000000000D+00 0.000000000000000D+00 0.183643733278122D+03
 0.183643733278122D+03 0.000000000000000D+00 0.000000000000000D+00 -.183643733278122D+03
 0.177049108221984D+03 -.735443223606162D+02 0.745928943465258D+02 -.689095021294285D+02
 0.165182594692102D+03 0.981053464075553D+02 -.715744689849269D+02 0.649805712578351D+02
 0.250557636421568D+02 -.245610240469391D+02 -.301842536159888D+01 0.392893087159345D+01
 0.000000000000000D+00 0.000000000000000D+00 -.000000000000000D+00 -.000000000000000D+00
 0.187878888090576D+03 0.000000000000000D+00 0.000000000000000D+00 0.187878888090576D+03
 0.229340451509443D+03 0.000000000000000D+00 0.000000000000000D+00 -.229340451509443D+03
 0.184612224282739D+03 -.848662091726390D+02 0.806590380029444D+02 -.689095021294285D+02
 0.157045582326667D+03 0.880179231196279D+02 -.661697374411802D+02 0.649805712578351D+02
 0.265573862421533D+02 -.261767849494251D+02 -.215271826598505D+01 0.392893087159345D+01
 0.490041467484590D+02 0.230250710024362D+02 -.123365822957792D+02 -.414615634188671D+02
 0.183643733278122D+03 0.000000000000000D+00 0.000000000000000D+00 0.183643733278122D+03
 0.183643733278122D+03 0.000000000000000D+00 0.000000000000000D+00 -.183643733278122D+03
 0.177049108221984D+03 -.735443223606162D+02 0.745928943465258D+02 -.689095021294285D+02
 0.165182594692102D+03 0.981053464075553D+02 -.715744689849269D+02 0.649805712578351D+02
 0.000000000000000D+00 0.000000000000000D+00 -.000000000000000D+00 -.000000000000000D+00
 0.250557636421568D+02 -.245610240469391D+02 -.301842536159888D+01 0.392893087159345D+01
 0.187878888090576D+03 0.000000000000000D+00 0.000000000000000D+00 0.187878888090576D+03
 0.229340451509443D+03 0.000000000000000D+00 0.000000000000000D+00 -.229340451509443D+03
 0.184612224282739D+03 -.848662091726390D+02 0.806590380029444D+02 -.689095021294285D+02
 0.157045582326667D+03 0.880179231196279D+02 -.661697374411802D+02 0.649805712578351D+02
 0.490041467484590D+02 0.230250710024362D+02 -.123365822957792D+02 -.414615634188671D+02
 0.265573862421533D+02 -.261767849494251D+02 -.215271826598505D+01 0.392893087159345D+01
0.214526379113D-03 0.000000000000D+00 0.000000000000D+00 0.138871673643D-04 0.000000000000D+00  6 -2 2 25 23 21 21 2 0.16884746D-02 0.47274940D+00 0.28848817D+05 0.28848817D+05 0.28848817D+05 0.12166860D+01  1  2  2  2  6  2        2 0.603583993467D-01 0.100000000000D+01
0.543933705815D-04 0.113208680491D-04 -.823837781887D-06 0.138871673643D-04 0.000000000000D+00  6 -2 2 25 23 21 21 4 0.16884746D-02 0.47274940D+00 0.28848817D+05 0.28848817D+05 0.28848817D+05 0.12166860D+01  1  2  3  2  6  2        2 0.226547864600D-01 0.100000000000D+01
0.172932528133D-05 0.000000000000D+00 0.000000000000D+00 0.138871673643D-04 0.000000000000D+00  6 -2 2 25 23 21 21 4 0.16884746D-02 0.47274940D+00 0.28848817D+05 0.28848817D+05 0.28848817D+05 0.12166860D+01  1  2 15  2  6  2        2 0.720262314130D-03 0.100000000000D+01
-.393010595382D-03 0.000000000000D+00 0.000000000000D+00 0.138871673643D-04 0.000000000000D+00  6 -2 2 25 23 21 21 4 0.16884746D-02 0.47274940D+00 0.28848817D+05 0.28848817D+05 0.28848817D+05 0.12166860D+01  1  2  4  2  6  2        2 -.163688534461D+00 0.100000000000D+01
-.137291622648D-02 0.000000000000D+00 -.182971758827D-03 0.138871673643D-04 0.000000000000D+00  6 -2 2 25 23 21 21 4 0.16884746D-02 0.59296966D+00 0.28848817D+05 0.28848817D+05 0.28848817D+05 0.12166860D+01  1  2  5  2  6  2        2 -.177690283976D+00 0.100000000000D+01
0.138331176139D-02 0.000000000000D+00 0.178373512539D-03 0.138871673643D-04 0.000000000000D+00  6 -2 2 25 23 21 21 4 0.16884746D-02 0.47274940D+00 0.28848817D+05 0.28848817D+05 0.28848817D+05 0.12166860D+01  1  2  6  2  6  2        2 0.576148016329D+00 0.100000000000D+01
-.405818274324D-04 0.000000000000D+00 -.575558904103D-05 0.138871673643D-04 0.000000000000D+00  6 -2 21 25 23 -2 21 4 0.16884746D-02 0.59296966D+00 0.28848817D+05 0.28848817D+05 0.28848817D+05 0.12166860D+01  3  4  5  5  5  2        2 -.270685507416D-03 0.100000000000D+01
  </mgrwgt>
  </event>
  <event>
  5     66 0.42934962E-03 0.22337902E+02 0.75467711E-02 0.10265071E+00
       -2 -1    0    0    0  501 0.00000000E+00 0.00000000E+00 0.14046436E+03 0.14046472E+03 0.32000000E+00 0.0000E+00 0.9000E+01
        2 -1    0    0  502    0 -.00000000E+00 -.00000000E+00 -.18166584E+04 0.18166584E+04 0.32000000E+00 0.0000E+00 0.9000E+01
       25  1    1    2    0    0 0.41127913E+03 -.76386948E+02 -.12516644E+04 0.13256222E+04 0.12500000E+03 0.0000E+00 0.9000E+01
       23  1    1    2    0    0 -.40746295E+03 0.54378713E+02 -.43621153E+03 0.60628281E+03 0.91188000E+02 0.0000E+00 0.9000E+01
       21  1    1    2  502  501 -.38161789E+01 0.22008235E+02 0.11681876E+02 0.25218136E+02 0.75000000E+00 0.0000E+00 0.9000E+01
#aMCatNLO 1  0  0  5  1 0.21245805D+02 0.00000000D+00  -5  6  0 0.00000000D+00 0.00000000D+00 0.00000000D+00 0.00000000D+00 0.00000000D+00
  <mgrwgt>
 0.1611293984D+01   10    2    0
 0.505149619367118D+03 0.000000000000000D+00 0.000000000000000D+00 0.505149619367118D+03
 0.505149619367118D+03 -.000000000000000D+00 -.000000000000000D+00 -.505149619367118D+03
 0.491314418711138D+03 0.411279237679401D+03 -.763875950578659D+02 -.225342366208819D+03
 0.450751763437157D+03 -.407462843759138D+03 0.543781198671425D+02 0.160869362941293D+03
 0.682330565859407D+02 -.381639392026348D+01 0.220094751907234D+02 0.644730032675266D+02
 0.000000000000000D+00 0.000000000000000D+00 0.000000000000000D+00 0.000000000000000D+00
 0.505149619367118D+03 0.000000000000000D+00 0.000000000000000D+00 0.505149619367118D+03
 0.505149619367118D+03 -.000000000000000D+00 -.000000000000000D+00 -.505149619367118D+03
 0.486263667151742D+03 0.410739310941851D+03 -.732737906699489D+02 -.216221007396901D+03
 0.454638558275273D+03 -.407962900429476D+03 0.572619901147425D+02 0.169317168910560D+03
 0.342463634902688D+02 -.254095757314366D+02 0.991217727285833D+01 0.207102780079707D+02
 0.351506498169516D+02 0.226331652190625D+02 0.609962328234811D+01 0.261935604783698D+02
0.483230666211D-01 0.000000000000D+00 0.000000000000D+00 0.111113621627D-04 0.000000000000D+00  6 -2 2 25 23 21 21 2 0.21609932D-01 0.27948593D+00 0.19359809D+06 0.19359809D+06 0.19359809D+06 0.11381017D+01  1  2  2  3  6  5       21 0.104107279949D+01 0.100000000000D+01
0.217630322815D-01 0.255007828504D-02 -.185573299581D-03 0.111113621627D-04 0.000000000000D+00  6 -2 2 25 23 21 21 4 0.21609932D-01 0.27948593D+00 0.19359809D+06 0.19359809D+06 0.19359809D+06 0.11381017D+01  1  2  3  3  6  5       21 0.607306815406D+00 0.100000000000D+01
0.120362442841D-02 0.000000000000D+00 0.000000000000D+00 0.111113621627D-04 0.000000000000D+00  6 -2 2 25 23 21 21 4 0.21609932D-01 0.27948593D+00 0.19359809D+06 0.19359809D+06 0.19359809D+06 0.11381017D+01  1  2 15  3  6  5       21 0.335876595277D-01 0.100000000000D+01
-.362659917259D-01 0.000000000000D+00 0.000000000000D+00 0.111113621627D-04 0.000000000000D+00  6 -2 2 25 23 21 21 4 0.21609932D-01 0.27948593D+00 0.19359809D+06 0.19359809D+06 0.19359809D+06 0.11381017D+01  1  2  4  3  6  5       21 -.101201816262D+01 0.100000000000D+01
-.162692963444D-01 0.000000000000D+00 0.000000000000D+00 0.111113621627D-04 0.000000000000D+00  6 -2 2 25 23 21 21 4 0.21609932D-01 0.27948593D+00 0.19359809D+06 0.19359809D+06 0.19359809D+06 0.11381017D+01  1  2  5  3  6  5       21 -.454001741303D+00 0.100000000000D+01
0.552642460557D-01 0.000000000000D+00 -.000000000000D+00 0.111113621627D-04 0.000000000000D+00  6 -2 2 25 23 21 21 4 0.21609932D-01 0.27948593D+00 0.19359809D+06 0.19359809D+06 0.19359809D+06 0.11381017D+01  1  2  6  3  6  5       21 0.154217265516D+01 0.100000000000D+01
-.131538943515D-02 0.000000000000D+00 0.000000000000D+00 0.111113621627D-04 0.000000000000D+00  6 -2 2 25 23 1 -1 4 0.21609932D-01 0.27948593D+00 0.19359809D+06 0.19359809D+06 0.19359809D+06 0.11381017D+01  1  2  5  6  6  5       21 -.367065103128D-01 0.100000000000D+01
-.131538943515D-02 0.000000000000D+00 0.000000000000D+00 0.111113621627D-04 0.000000000000D+00  6 -2 2 25 23 3 -3 4 0.21609932D-01 0.27948593D+00 0.19359809D+06 0.19359809D+06 0.19359809D+06 0.11381017D+01  1  2  5  6  6  5       21 -.367065103128D-01 0.100000000000D+01
-.131538943515D-02 0.000000000000D+00 0.000000000000D+00 0.111113621627D-04 0.000000000000D+00  6 -2 2 25 23 2 -2 4 0.21609932D-01 0.27948593D+00 0.19359809D+06 0.19359809D+06 0.19359809D+06 0.11381017D+01  1  2  5  7  6  5       21 -.367065103128D-01 0.100000000000D+01
-.131538943515D-02 0.000000000000D+00 0.000000000000D+00 0.111113621627D-04 0.000000000000D+00  6 -2 2 25 23 4 -4 4 0.21609932D-01 0.27948593D+00 0.19359809D+06 0.19359809D+06 0.19359809D+06 0.11381017D+01  1  2  5  8  6  5       21 -.367065103128D-01 0.100000000000D+01
  </mgrwgt>
  </event>
  <event>
  6     66 -.42934962E-03 0.23999470E+02 0.75467711E-02 0.11818919E+00
       -2 -1    0    0    0  501 0.00000000E+00 0.00000000E+00 0.15243030E+02 0.15246389E+02 0.32000000E+00 0.0000E+00 0.9000E+01
        2 -1    0    0  502    0 -.00000000E+00 -.00000000E+00 -.19651848E+04 0.19651848E+04 0.32000000E+00 0.0000E+00 0.9000E+01
       25  1    1    2    0    0 -.11652860E+02 -.88258131E+02 -.98830931E+03 0.10001528E+04 0.12500000E+03 0.0000E+00 0.9000E+01
       23  1    1    2    0    0 -.13731164E+02 0.10187669E+03 -.83684537E+03 0.84805238E+03 0.91188000E+02 0.0000E+00 0.9000E+01
       21  1    1    2  502  503 0.77596207E+01 0.99112073E+01 -.56251350E+02 0.57647381E+02 0.75000000E+00 0.0000E+00 0.9000E+01
       21  1    1    2  503  501 0.17624403E+02 -.23529770E+02 -.68535764E+02 0.74578704E+02 0.75000000E+00 0.0000E+00 0.9000E+01
#aMCatNLO 2  0  0  5  2 0.11494516D+02 0.00000000D+00  -5  6  0 0.00000000D+00 0.00000000D+00 0.00000000D+00 0.00000000D+00 0.00000000D+00
  <mgrwgt>
 -.2465545601D-02    2    2    0
 0.173085882640407D+03 0.000000000000000D+00 0.000000000000000D+00 0.173085882640407D+03
 0.173085882640407D+03 -.000000000000000D+00 -.000000000000000D+00 -.173085882640407D+03
 0.154669475475415D+03 -.147362678445667D+02 -.866038791111557D+02 -.240885279075625D+02
 0.139516500888266D+03 -.164944005450317D+02 0.103359174600453D+03 -.139434017613606D+02
 0.519857889171324D+02 0.312306683895984D+02 -.167552954892974D+02 0.380319296689231D+02
 0.000000000000000D+00 0.000000000000000D+00 0.000000000000000D+00 -.000000000000000D+00
 0.173085882640407D+03 0.000000000000000D+00 0.000000000000000D+00 0.173085882640407D+03
 0.173085882640407D+03 -.000000000000000D+00 -.000000000000000D+00 -.173085882640407D+03
 0.154787015889850D+03 -.118750621177110D+02 -.881389198221353D+02 -.206042228771797D+02
 0.137937805629661D+03 -.139290840210592D+02 0.101982878843778D+03 -.108194232284278D+02
 0.118817633258320D+02 0.699447396687076D+01 0.928466286241734D+01 0.245940423458667D+01
 0.415651804354696D+02 0.188096721718995D+02 -.231286218840599D+02 0.289642418710208D+02
-.108772414861D-04 0.000000000000D+00 0.000000000000D+00 0.915461512241D-05 0.000000000000D+00  6 -2 2 25 23 21 21 4 0.23453419D-02 0.30233639D+00 0.27615543D+05 0.27615543D+05 0.27615543D+05 0.12186916D+01  1  2 13  3  6  5       21 -.113172800488D-01 0.100000000000D+01
0.850756124635D-05 0.000000000000D+00 0.000000000000D+00 0.917697169258D-05 0.274268201473D-06  6 -2 2 25 23 21 21 4 0.23453419D-02 0.30233639D+00 0.27615543D+05 0.27615543D+05 0.27615543D+05 0.12186916D+01  1  2  1  3  6  5       21 0.885173444759D-02 0.100000000000D+01
  </mgrwgt>
  </event>
  <event>
  6     66 -.42934962E-03 0.79292669E+01 0.75467711E-02 0.11697889E+00
       -2 -1    0    0    0  501 0.00000000E+00 0.00000000E+00 0.29324563E+02 0.29326308E+02 0.32000000E+00 0.0000E+00 0.9000E+01
        2 -1    0    0  502    0 -.00000000E+00 -.00000000E+00 -.13238125E+04 0.13238125E+04 0.32000000E+00 0.0000E+00 0.9000E+01
       25  1    1    2    0    0 -.12310277E+03 -.21889195E+02 -.60547118E+03 0.63075652E+03 0.12500000E+03 0.0000E+00 0.9000E+01
       23  1    1    2    0    0 0.11817559E+03 0.43835019E+02 -.67090531E+03 0.68870615E+03 0.91188000E+02 0.0000E+00 0.9000E+01
       21  1    1    2  502  503 0.34723431E+00 -.13508678E+02 -.19715905E+02 0.23914104E+02 0.75000000E+00 0.0000E+00 0.9000E+01
       21  1    1    2  503  501 0.45799492E+01 -.84371462E+01 0.16044583E+01 0.97620775E+01 0.75000000E+00 0.0000E+00 0.9000E+01
#aMCatNLO 2  0  0  5  1 0.76289901D+01 0.00000000D+00  -5  6  0 0.00000000D+00 0.00000000D+00 0.00000000D+00 0.00000000D+00 0.00000000D+00
  <mgrwgt>
 -.5341456275D-01    2    2    0
 0.197031545438161D+03 0.000000000000000D+00 0.000000000000000D+00 0.197031545438161D+03
 0.197031545438161D+03 -.000000000000000D+00 -.000000000000000D+00 -.197031545438161D+03
 0.177006653413298D+03 -.123216706890089D+03 -.213817107680972D+02 -.817440764623389D+01
 0.161295269963838D+03 0.118071842798478D+03 0.442970908944025D+02 -.423995335489903D+02
 0.557611674991854D+02 0.514486409161093D+01 -.229153801263054D+02 0.505739411952242D+02
 0.000000000000000D+00 0.000000000000000D+00 0.000000000000000D+00 0.000000000000000D+00
 0.197031545438161D+03 0.000000000000000D+00 0.000000000000000D+00 0.197031545438161D+03
 0.197031545438161D+03 -.000000000000000D+00 -.000000000000000D+00 -.197031545438161D+03
 0.176944381610310D+03 -.123108651069600D+03 -.218629946576747D+02 -.711222046035503D+01
 0.160995946459024D+03 0.118170233362090D+03 0.438588563510106D+02 -.414323557014023D+02
 0.166103368245224D+02 0.321605249409844D+00 -.129868415318026D+02 0.103509326398873D+02
 0.395124259824662D+02 0.461681245810081D+01 -.900902016153324D+01 0.381936435218701D+02
-.280336124851D-04 0.000000000000D+00 0.000000000000D+00 0.184884148268D-04 0.000000000000D+00  6 -2 2 25 23 21 21 4 0.45116084D-02 0.20366360D+00 0.31593042D+05 0.31593042D+05 0.31593042D+05 0.12125471D+01  1  2 13  3  6  5       21 -.234526788523D-01 0.100000000000D+01
-.358142388665D-04 0.000000000000D+00 0.000000000000D+00 0.184884148268D-04 0.000000000000D+00  6 -2 2 25 23 21 21 4 0.45116084D-02 0.20366360D+00 0.31593042D+05 0.31593042D+05 0.31593042D+05 0.12125471D+01  1  2 13  3  6  5       21 -.299618838964D-01 0.100000000000D+01
  </mgrwgt>
  </event>
  <event>
  5     66 0.42934962E-03 0.36981446E+02 0.75467711E-02 0.11524143E+00
       -2 -1    0    0    0  501 0.00000000E+00 0.00000000E+00 0.16338997E+02 0.16342130E+02 0.32000000E+00 0.0000E+00 0.9000E+01
        2 -1    0    0  502    0 0.00000000E+00 0.00000000E+00 -.20525400E+04 0.20525400E+04 0.32000000E+00 0.0000E+00 0.9000E+01
       25  1    1    2    0    0 0.11615263E+02 0.11397633E+03 -.71983044E+03 0.73953119E+03 0.12500000E+03 0.0000E+00 0.9000E+01
       23  1    1    2    0    0 0.25091434E+02 -.10951459E+03 -.92669907E+03 0.93792828E+03 0.91188000E+02 0.0000E+00 0.9000E+01
       21  1    1    2  502  501 -.36706697E+02 -.44617389E+01 -.38967144E+03 0.39142264E+03 0.75000000E+00 0.0000E+00 0.9000E+01
#aMCatNLO 1  0  0  2  5 0.14311532D+02 0.00000000D+00  -5  6  0 0.00000000D+00 0.00000000D+00 0.00000000D+00 0.00000000D+00 0.00000000D+00
  <mgrwgt>
 0.1189029728D+00    7    4    0
 0.183138500459891D+03 0.000000000000000D+00 0.000000000000000D+00 0.183138500459891D+03
 0.183138500459891D+03 0.000000000000000D+00 0.000000000000000D+00 -.183138500459891D+03
 0.175505720387095D+03 0.116177435709259D+02 0.113976634862221D+03 0.452947306912983D+02
 0.146112035172558D+03 0.250934990980283D+02 -.109514343372099D+03 -.202583409257071D+02
 0.446592453601297D+02 -.367112426689542D+02 -.446229149012231D+01 -.250363897655913D+02
 0.000000000000000D+00 0.000000000000000D+00 -.000000000000000D+00 -.000000000000000D+00
 0.188035556379830D+03 0.000000000000000D+00 0.000000000000000D+00 0.188035556379830D+03
 0.287629216229575D+03 0.000000000000000D+00 0.000000000000000D+00 -.287629216229575D+03
 0.187165248180148D+03 0.318203839321418D+01 0.131696970844448D+03 0.452947306912983D+02
 0.135066205277499D+03 0.185533099337427D+02 -.957757943193568D+02 -.202583409257071D+02
 0.461970495606890D+02 -.388245546898174D+02 -.229946849282125D-01 -.250363897655913D+02
 0.107236269591070D+03 0.170892063628605D+02 -.358981818401628D+02 -.995936598497451D+02
 0.183138500459891D+03 0.000000000000000D+00 0.000000000000000D+00 0.183138500459891D+03
 0.183138500459891D+03 0.000000000000000D+00 0.000000000000000D+00 -.183138500459891D+03
 0.175505720387095D+03 0.116177435709259D+02 0.113976634862221D+03 0.452947306912983D+02
 0.146112035172558D+03 0.250934990980283D+02 -.109514343372099D+03 -.202583409257071D+02
 0.000000000000000D+00 0.000000000000000D+00 -.000000000000000D+00 -.000000000000000D+00
 0.446592453601297D+02 -.367112426689542D+02 -.446229149012231D+01 -.250363897655913D+02
 0.188035556379830D+03 0.000000000000000D+00 0.000000000000000D+00 0.188035556379830D+03
 0.287629216229575D+03 0.000000000000000D+00 0.000000000000000D+00 -.287629216229575D+03
 0.187165248180148D+03 0.318203839321418D+01 0.131696970844448D+03 0.452947306912983D+02
 0.135066205277499D+03 0.185533099337427D+02 -.957757943193568D+02 -.202583409257071D+02
 0.107236269591070D+03 0.170892063628605D+02 -.358981818401628D+02 -.995936598497451D+02
 0.461970495606890D+02 -.388245546898174D+02 -.229946849282125D-01 -.250363897655913D+02
0.511926569144D-04 0.000000000000D+00 0.000000000000D+00 0.734549522712D-05 0.000000000000D+00  6 -2 2 25 23 21 21 2 0.25139347D-02 0.31577562D+00 0.30842809D+05 0.30842809D+05 0.30842809D+05 0.12136376D+01  1  2  2  2  6  2        2 0.289564711447D-01 0.100000000000D+01
0.604501773615D-05 0.270151072519D-05 -.196593281887D-06 0.734549522712D-05 0.000000000000D+00  6 -2 2 25 23 21 21 4 0.25139347D-02 0.31577562D+00 0.30842809D+05 0.30842809D+05 0.30842809D+05 0.12136376D+01  1  2  3  2  6  2        2 0.503632276590D-02 0.100000000000D+01
0.862605033722D-07 0.000000000000D+00 0.000000000000D+00 0.734549522712D-05 0.000000000000D+00  6 -2 2 25 23 21 21 4 0.25139347D-02 0.31577562D+00 0.30842809D+05 0.30842809D+05 0.30842809D+05 0.12136376D+01  1  2 15  2  6  2        2 0.718667431417D-04 0.100000000000D+01
-.146705821331D-03 0.000000000000D+00 0.000000000000D+00 0.734549522712D-05 0.000000000000D+00  6 -2 2 25 23 21 21 4 0.25139347D-02 0.31577562D+00 0.30842809D+05 0.30842809D+05 0.30842809D+05 0.12136376D+01  1  2  4  2  6  2        2 -.122225922257D+00 0.100000000000D+01
-.338521558250D-03 0.000000000000D+00 -.337774197187D-04 0.734549522712D-05 0.000000000000D+00  6 -2 2 25 23 21 21 4 0.25139347D-02 0.49867819D+00 0.30842809D+05 0.30842809D+05 0.30842809D+05 0.12136376D+01  1  2  5  2  6  2        2 -.616555630063D-01 0.100000000000D+01
0.322900019247D-03 0.000000000000D+00 0.305340593194D-04 0.734549522712D-05 0.000000000000D+00  6 -2 2 25 23 21 21 4 0.25139347D-02 0.31577562D+00 0.30842809D+05 0.30842809D+05 0.30842809D+05 0.12136376D+01  1  2  6  2  6  2        2 0.269019676868D+00 0.100000000000D+01
-.164270919413D-04 0.000000000000D+00 -.177576231204D-05 0.734549522712D-05 0.000000000000D+00  6 -2 21 25 23 -2 21 4 0.25139347D-02 0.49867819D+00 0.30842809D+05 0.30842809D+05 0.30842809D+05 0.12136376D+01  3  4  5  5  5  2        2 -.299879485408D-03 0.100000000000D+01
  </mgrwgt>
  </event>
  <event>
  6     66 0.42934962E-03 0.25355066E+02 0.75467711E-02 0.12098977E+00
       21 -1    0    0  503  501 0.00000000E+00 0.00000000E+00 0.23990820E+02 0.24002541E+02 0.75000000E+00 0.0000E+00 0.9000E+01
        2 -1    0    0  502    0 0.00000000E+00 0.00000000E+00 -.16277057E+04 0.16277057E+04 0.32000000E+00 0.0000E+00 0.9000E+01
       25  1    1    2    0    0 -.13695509E+02 -.22604145E+01 -.79536620E+03 0.80524845E+03 0.12500000E+03 0.0000E+00 0.9000E+01
       23  1    1    2    0    0 -.29880313E+02 0.84487586E+01 -.54003963E+03 0.54856383E+03 0.91188000E+02 0.0000E+00 0.9000E+01
        2  1    1    2  503    0 0.33898488E+02 0.17004034E+02 -.11177704E+02 0.39538438E+02 0.32000000E+00 0.0000E+00 0.9000E+01
       21  1    1    2  502  501 0.96773345E+01 -.23192378E+02 -.25713136E+03 0.25835757E+03 0.75000000E+00 0.0000E+00 0.9000E+01
#aMCatNLO 2  0  0  1  1 0.37924196D+02 0.00000000D+00  -5  6  0 0.00000000D+00 0.00000000D+00 0.00000000D+00 0.00000000D+00 0.00000000D+00
  <mgrwgt>
 0.1550247812D+00    1    2    0
 0.123974467023721D+03 0.000000000000000D+00 0.000000000000000D+00 0.123974467023721D+03
 0.123974467023721D+03 0.000000000000000D+00 0.000000000000000D+00 -.123974467023721D+03
 0.125204657427099D+03 0.335889478898734D+01 0.629941233006888D+01 0.491397527071264D+00
 0.946802760830645D+02 -.168513043239391D+02 0.149881481839110D+02 0.118529444343772D+02
 0.000000000000000D+00 0.000000000000000D+00 0.000000000000000D+00 0.000000000000000D+00
 0.280640005372789D+02 0.134924095349518D+02 -.212875605139799D+02 -.123443419614484D+02
 0.306588313716829D+03 0.000000000000000D+00 0.000000000000000D+00 0.306588313716829D+03
 0.127400864382852D+03 0.000000000000000D+00 0.000000000000000D+00 -.127400864382852D+03
 0.125769503136409D+03 -.136979656450883D+02 -.225658698824719D+01 0.491397527071264D+00
 0.970573257866212D+02 -.298822932819757D+02 0.845159164275481D+01 0.118529444343772D+02
 0.183156726980270D+03 0.338984876164297D+02 0.170040341280331D+02 0.179187449333977D+03
 0.280056221963809D+02 0.968177131063426D+01 -.231990387825407D+02 -.123443419614484D+02
0.988118538357D-05 0.000000000000D+00 0.000000000000D+00 0.252718530610D-04 0.221200592158D-07  6 21 2 25 23 2 21 4 0.36917954D-02 0.25041690D+00 0.20329320D+05 0.20329320D+05 0.20329320D+05 0.12330459D+01  1  2  1  4  5  1       -2 0.155024781172D+00 0.100000000000D+01
  </mgrwgt>
  </event>
  <event>
  5     66 0.42934962E-03 0.31266904E+02 0.75467711E-02 0.11859462E+00
       -2 -1    0    0    0  501 0.00000000E+00 0.00000000E+00 0.10855137E+03 0.10855184E+03 0.32000000E+00 0.0000E+00 0.9000E+01
        2 -1    0    0  502    0 -.00000000E+00 -.00000000E+00 -.50855097E+03 0.50855107E+03 0.32000000E+00 0.0000E+00 0.9000E+01
       25  1    1    2    0    0 -.82942820E+02 0.57603713E+02 -.36657206E+03 0.40024715E+03 0.12500000E+03 0.0000E+00 0.9000E+01
       23  1    1    2    0    0 0.87134901E+02 -.26623488E+02 0.41697955E+02 0.13548163E+03 0.91188000E+02 0.0000E+00 0.9000E+01
       21  1    1    2  502  501 -.41920808E+01 -.30980226E+02 -.75125490E+02 0.81374134E+02 0.75000000E+00 0.0000E+00 0.9000E+01
#aMCatNLO 1  0  0  5  1 0.62802803D+01 0.00000000D+00  -5  6  0 0.00000000D+00 0.00000000D+00 0.00000000D+00 0.00000000D+00 0.00000000D+00
  <mgrwgt>
 0.1598333197D+00   16    2    0
 0.234955485769742D+03 0.000000000000000D+00 0.000000000000000D+00 0.234955485769742D+03
 0.234955485769742D+03 -.000000000000000D+00 -.000000000000000D+00 -.234955485769742D+03
 0.213582131690445D+03 -.829425291678786D+02 0.576058641954649D+02 -.140692673025157D+03
 0.213414822229010D+03 0.871351917955775D+02 -.266213383317935D+02 0.170086441844176D+03
 0.429140176200285D+02 -.419266262769896D+01 -.309845258636714D+02 -.293937688190184D+02
 0.000000000000000D+00 0.000000000000000D+00 0.000000000000000D+00 0.000000000000000D+00
 0.234955485769742D+03 0.000000000000000D+00 0.000000000000000D+00 0.234955485769742D+03
 0.234955485769742D+03 -.000000000000000D+00 -.000000000000000D+00 -.234955485769742D+03
 0.216550335796089D+03 -.838651270178592D+02 0.507877012563250D+02 -.147160788951322D+03
 0.208973231456614D+03 0.862292050597586D+02 -.333167421696006D+02 0.163734782521571D+03
 0.335823969405845D+02 -.920978687571323D+01 -.246346970816148D+02 -.208827419099121D+02
 0.108050073461957D+02 0.684570883381391D+01 0.716373799489044D+01 0.430874833966304D+01
0.278939278450D-03 0.000000000000D+00 0.000000000000D+00 0.475030932399D-05 0.000000000000D+00  6 -2 2 25 23 21 21 2 0.16700255D-01 0.78238654D-01 0.25738894D+05 0.25738894D+05 0.25738894D+05 0.12219437D+01  1  2  2  3  6  5       21 0.719170129411D-01 0.100000000000D+01
0.286294017966D-04 0.147200301338D-04 -.107120027565D-05 0.475030932399D-05 0.000000000000D+00  6 -2 2 25 23 21 21 4 0.16700255D-01 0.78238654D-01 0.25738894D+05 0.25738894D+05 0.25738894D+05 0.12219437D+01  1  2  3  3  6  5       21 0.110213974170D-01 0.100000000000D+01
0.114714328630D-04 0.000000000000D+00 0.000000000000D+00 0.475030932399D-05 0.000000000000D+00  6 -2 2 25 23 21 21 4 0.16700255D-01 0.78238654D-01 0.25738894D+05 0.25738894D+05 0.25738894D+05 0.12219437D+01  1  2 15  3  6  5       21 0.441613210867D-02 0.100000000000D+01
0.285143054043D-03 0.000000000000D+00 0.000000000000D+00 0.474126614984D-05 0.000000000000D+00  6 -2 2 25 23 21 21 4 0.16700255D-01 0.78238654D-01 0.26393498D+05 0.26393498D+05 0.26393498D+05 0.12207801D+01  1  2 12  3  6  5       21 0.109383121657D+00 0.100000000000D+01
-.135760258619D-03 0.000000000000D+00 0.000000000000D+00 0.475030932399D-05 0.000000000000D+00  6 -2 2 25 23 21 21 4 0.16700255D-01 0.78238654D-01 0.25738894D+05 0.25738894D+05 0.25738894D+05 0.12219437D+01  1  2  4  3  6  5       21 -.522633261534D-01 0.100000000000D+01
0.576962820493D-06 0.000000000000D+00 0.000000000000D+00 0.475030932399D-05 0.000000000000D+00  6 -2 2 25 23 21 21 4 0.16700255D-01 0.78238654D-01 0.25738894D+05 0.25738894D+05 0.25738894D+05 0.12219437D+01  1  2  5  3  6  5       21 0.222112099465D-03 0.100000000000D+01
-.756441111389D-06 0.000000000000D+00 0.000000000000D+00 0.475030932399D-05 0.000000000000D+00  6 -2 2 25 23 21 21 4 0.16700255D-01 0.78238654D-01 0.25738894D+05 0.25738894D+05 0.25738894D+05 0.12219437D+01  1  2  6  3  6  5       21 -.291205459702D-03 0.100000000000D+01
0.274114160551D-04 0.000000000000D+00 0.000000000000D+00 0.475030932399D-05 0.181520122257D-06  6 -2 2 25 23 21 21 4 0.16700255D-01 0.78238654D-01 0.26393498D+05 0.26393498D+05 0.26393498D+05 0.12207801D+01  1  2 11  3  6  5       21 0.105152351237D-01 0.100000000000D+01
0.287975320532D-05 0.000000000000D+00 0.000000000000D+00 0.474126614984D-05 0.000000000000D+00  6 -2 2 25 23 1 -1 4 0.16700255D-01 0.78238654D-01 0.26393498D+05 0.26393498D+05 0.26393498D+05 0.12207801D+01  1  2 12  6  6  5       21 0.110469601392D-02 0.100000000000D+01
0.287975320532D-05 0.000000000000D+00 0.000000000000D+00 0.474126614984D-05 0.000000000000D+00  6 -2 2 25 23 3 -3 4 0.16700255D-01 0.78238654D-01 0.26393498D+05 0.26393498D+05 0.26393498D+05 0.12207801D+01  1  2 12  6  6  5       21 0.110469601392D-02 0.100000000000D+01
0.336119984874D-06 0.000000000000D+00 0.000000000000D+00 0.474126614984D-05 0.267500269319D-08  6 -2 2 25 23 1 -1 4 0.16700255D-01 0.78238654D-01 0.26393498D+05 0.26393498D+05 0.26393498D+05 0.12207801D+01  1  2 11  6  6  5       21 0.128938273879D-03 0.100000000000D+01
0.336119984874D-06 0.000000000000D+00 0.000000000000D+00 0.474126614984D-05 0.267500269319D-08  6 -2 2 25 23 3 -3 4 0.16700255D-01 0.78238654D-01 0.26393498D+05 0.26393498D+05 0.26393498D+05 0.12207801D+01  1  2 11  6  6  5       21 0.128938273879D-03 0.100000000000D+01
0.287975320532D-05 0.000000000000D+00 0.000000000000D+00 0.474126614984D-05 0.000000000000D+00  6 -2 2 25 23 2 -2 4 0.16700255D-01 0.78238654D-01 0.26393498D+05 0.26393498D+05 0.26393498D+05 0.12207801D+01  1  2 12  7  6  5       21 0.110469601392D-02 0.100000000000D+01
0.279059584867D-06 0.000000000000D+00 0.000000000000D+00 0.474126614984D-05 0.314762487014D-08  6 -2 2 25 23 2 -2 4 0.16700255D-01 0.78238654D-01 0.26393498D+05 0.26393498D+05 0.26393498D+05 0.12207801D+01  1  2 11  7  6  5       21 0.107049454960D-03 0.100000000000D+01
0.287975320532D-05 0.000000000000D+00 0.000000000000D+00 0.474126614984D-05 0.000000000000D+00  6 -2 2 25 23 4 -4 4 0.16700255D-01 0.78238654D-01 0.26393498D+05 0.26393498D+05 0.26393498D+05 0.12207801D+01  1  2 12  8  6  5       21 0.110469601392D-02 0.100000000000D+01
0.336619596883D-06 0.000000000000D+00 0.000000000000D+00 0.474126614984D-05 0.267897884317D-08  6 -2 2 25 23 4 -4 4 0.16700255D-01 0.78238654D-01 0.26393498D+05 0.26393498D+05 0.26393498D+05 0.12207801D+01  1  2 11  8  6  5       21 0.129129928981D-03 0.100000000000D+01
  </mgrwgt>
  </event>
  <event>
  5     66 0.42934962E-03 0.35341130E+02 0.75467711E-02 0.11576619E+00
       -2 -1    0    0    0  501 0.00000000E+00 0.00000000E+00 0.19177887E+03 0.19177914E+03 0.32000000E+00 0.0000E+00 0.9000E+01
        2 -1    0    0  502    0 0.00000000E+00 0.00000000E+00 -.14357018E+03 0.14357054E+03 0.32000000E+00 0.0000E+00 0.9000E+01
       25  1    1    2    0    0 0.58050965E+02 -.46409728E+02 0.25593284E+02 0.14766108E+03 0.12500000E+03 0.0000E+00 0.9000E+01
       23  1    1    2    0    0 -.61654961E+02 0.81562707E+02 0.46899004E+02 0.14480531E+03 0.91188000E+02 0.0000E+00 0.9000E+01
       21  1    1    2  502  501 0.36039964E+01 -.35152979E+02 -.24283602E+02 0.42883290E+02 0.75000000E+00 0.0000E+00 0.9000E+01
#aMCatNLO 1  0  0  1  1 0.20770316D+02 0.00000000D+00  -5  6  0 0.00000000D+00 0.00000000D+00 0.00000000D+00 0.00000000D+00 0.00000000D+00
  <mgrwgt>
 0.1081598964D+00    4    2    0
 0.165933214812093D+03 0.000000000000000D+00 0.000000000000000D+00 0.165933214812093D+03
 0.165933214812093D+03 0.000000000000000D+00 0.000000000000000D+00 -.165933214812093D+03
 0.145492441383610D+03 0.580507624724546D+02 -.464077535802908D+02 0.441360212988985D+01
 0.139513880498679D+03 -.616551553679034D+02 0.815646000432009D+02 0.263577188723157D+02
 0.468601077418967D+02 0.360439289544888D+01 -.351568464629100D+02 -.307713210022055D+02
 0.000000000000000D+00 -.000000000000000D+00 0.000000000000000D+00 -.000000000000000D+00
 0.177214961570220D+03 0.000000000000000D+00 0.000000000000000D+00 0.177214961570220D+03
 0.263282601423796D+03 0.000000000000000D+00 0.000000000000000D+00 -.263282601423796D+03
 0.160340734796321D+03 0.748971478955121D+02 -.667464500058308D+02 0.441360212988985D+01
 0.123836745565788D+03 -.471488607810945D+02 0.640511029664486D+02 0.263577188723157D+02
 0.526754518858260D+02 0.908716759547626D+01 -.417762183574211D+02 -.307713210022055D+02
 0.103644630746081D+03 -.368354547098938D+02 0.444715653968033D+02 -.860676398535756D+02
0.245111954002D-03 0.000000000000D+00 0.000000000000D+00 0.933627440398D-05 0.000000000000D+00  6 -2 2 25 23 21 21 2 0.29504489D-01 0.22087768D-01 0.25244133D+05 0.25244133D+05 0.25244133D+05 0.12228454D+01  1  2  2  1  6  1       -2 0.932757510828D-01 0.100000000000D+01
0.237443286981D-04 0.129349131794D-04 -.941294442827D-06 0.933627440398D-05 0.000000000000D+00  6 -2 2 25 23 21 21 4 0.29504489D-01 0.22087768D-01 0.25244133D+05 0.25244133D+05 0.25244133D+05 0.12228454D+01  1  2  3  1  6  1       -2 0.135116155186D-01 0.100000000000D+01
0.944473868860D-05 0.000000000000D+00 0.000000000000D+00 0.933627440398D-05 0.000000000000D+00  6 -2 2 25 23 21 21 4 0.29504489D-01 0.22087768D-01 0.25244133D+05 0.25244133D+05 0.25244133D+05 0.12228454D+01  1  2 15  1  6  1       -2 0.537449087133D-02 0.100000000000D+01
-.703275479038D-05 0.000000000000D+00 0.000000000000D+00 0.933627440398D-05 0.000000000000D+00  6 -2 2 25 23 21 21 4 0.29504489D-01 0.22087768D-01 0.25244133D+05 0.25244133D+05 0.25244133D+05 0.12228454D+01  1  2  4  1  6  1       -2 -.400196105656D-02 0.100000000000D+01
  </mgrwgt>
  </event>
  <event>
  5     66 0.42934962E-03 0.43420171E+02 0.75467711E-02 0.11532657E+00
       -2 -1    0    0    0  501 0.00000000E+00 0.00000000E+00 0.57457890E+02 0.57458781E+02 0.32000000E+00 0.0000E+00 0.9000E+01
        2 -1    0    0  502    0 -.00000000E+00 -.00000000E+00 -.15736578E+04 0.15736578E+04 0.32000000E+00 0.0000E+00 0.9000E+01
       25  1    1    2    0    0 0.10702606E+02 0.26876405E+02 -.10215563E+03 0.16400506E+03 0.12500000E+03 0.0000E+00 0.9000E+01
       23  1    1    2    0    0 -.54075310E+02 -.28903822E+02 -.89137219E+02 0.14149299E+03 0.91188000E+02 0.0000E+00 0.9000E+01
       21  1    1    2  502  501 0.43372704E+02 0.20274176E+01 -.13249071E+04 0.13256186E+04 0.75000000E+00 0.0000E+00 0.9000E+01
#aMCatNLO 1  0  0  5  1 0.31708317D+00 0.00000000D+00  -5  6  0 0.00000000D+00 0.00000000D+00 0.00000000D+00 0.00000000D+00 0.00000000D+00
  <mgrwgt>
 0.7314895722D-01   10    2    0
 0.300698870356946D+03 0.000000000000000D+00 0.000000000000000D+00 0.300698870356946D+03
 0.300698870356946D+03 -.000000000000000D+00 -.000000000000000D+00 -.300698870356946D+03
 0.187269023637722D+03 0.107025474481183D+02 0.268764019903259D+02 0.136410416421918D+03
 0.159032612308077D+03 -.540753596295218D+02 -.289038246631429D+02 0.114963232532455D+03
 0.255096104768093D+03 0.433728121814034D+02 0.202742267281702D+01 -.251373648954373D+03
 0.000000000000000D+00 0.000000000000000D+00 0.000000000000000D+00 0.000000000000000D+00
 0.300698870356946D+03 0.000000000000000D+00 0.000000000000000D+00 0.300698870356946D+03
 0.300698870356946D+03 -.000000000000000D+00 -.000000000000000D+00 -.300698870356946D+03
 0.176555082830924D+03 0.133628717037886D+02 0.270007564290105D+02 0.120992107534020D+03
 0.149047912003831D+03 -.518226389412701D+02 -.287985232826425D+02 0.101907251354375D+03
 0.144914902042330D+03 -.490792664492003D+02 0.355332138186471D+02 -.131639451360391D+03
 0.130879843836807D+03 0.875390336866818D+02 -.337354469650151D+02 -.912599075280033D+02
0.394600166308D-03 0.000000000000D+00 0.000000000000D+00 0.247532909960D-04 0.000000000000D+00  6 -2 2 25 23 21 21 2 0.88397464D-02 0.24210127D+00 0.19825987D+05 0.19825987D+05 0.19825987D+05 0.12342441D+01  1  2  2  3  6  5       21 0.614065025587D-01 0.100000000000D+01
0.492114547281D-04 0.208236228728D-04 -.151536853923D-05 0.247532909960D-04 0.000000000000D+00  6 -2 2 25 23 21 21 4 0.88397464D-02 0.24210127D+00 0.19825987D+05 0.19825987D+05 0.19825987D+05 0.12342441D+01  1  2  3  3  6  5       21 0.116660922780D-01 0.100000000000D+01
0.125508126381D-04 0.000000000000D+00 0.000000000000D+00 0.247532909960D-04 0.000000000000D+00  6 -2 2 25 23 21 21 4 0.88397464D-02 0.24210127D+00 0.19825987D+05 0.19825987D+05 0.19825987D+05 0.12342441D+01  1  2 15  3  6  5       21 0.297530197409D-02 0.100000000000D+01
-.161831749127D-03 0.000000000000D+00 0.000000000000D+00 0.247532909960D-04 0.000000000000D+00  6 -2 2 25 23 21 21 4 0.88397464D-02 0.24210127D+00 0.19825987D+05 0.19825987D+05 0.19825987D+05 0.12342441D+01  1  2  4  3  6  5       21 -.383639160691D-01 0.100000000000D+01
-.224335719693D-03 0.000000000000D+00 0.000000000000D+00 0.247532909960D-04 0.000000000000D+00  6 -2 2 25 23 21 21 4 0.88397464D-02 0.24210127D+00 0.19825987D+05 0.19825987D+05 0.19825987D+05 0.12342441D+01  1  2  5  3  6  5       21 -.531811388558D-01 0.100000000000D+01
0.402832138268D-03 0.000000000000D+00 -.000000000000D+00 0.247532909960D-04 0.000000000000D+00  6 -2 2 25 23 21 21 4 0.88397464D-02 0.24210127D+00 0.19825987D+05 0.19825987D+05 0.19825987D+05 0.12342441D+01  1  2  6  3  6  5       21 0.954955898693D-01 0.100000000000D+01
-.722334004670D-05 0.000000000000D+00 0.000000000000D+00 0.247532909960D-04 0.000000000000D+00  6 -2 2 25 23 1 -1 4 0.88397464D-02 0.24210127D+00 0.19825987D+05 0.19825987D+05 0.19825987D+05 0.12342441D+01  1  2  5  6  6  5       21 -.171236863462D-02 0.100000000000D+01
-.722334004670D-05 0.000000000000D+00 0.000000000000D+00 0.247532909960D-04 0.000000000000D+00  6 -2 2 25 23 3 -3 4 0.88397464D-02 0.24210127D+00 0.19825987D+05 0.19825987D+05 0.19825987D+05 0.12342441D+01  1  2  5  6  6  5       21 -.171236863462D-02 0.100000000000D+01
-.722334004670D-05 0.000000000000D+00 0.000000000000D+00 0.247532909960D-04 0.000000000000D+00  6 -2 2 25 23 2 -2 4 0.88397464D-02 0.24210127D+00 0.19825987D+05 0.19825987D+05 0.19825987D+05 0.12342441D+01  1  2  5  7  6  5       21 -.171236863462D-02 0.100000000000D+01
-.722334004670D-05 0.000000000000D+00 0.000000000000D+00 0.247532909960D-04 0.000000000000D+00  6 -2 2 25 23 4 -4 4 0.88397464D-02 0.24210127D+00 0.19825987D+05 0.19825987D+05 0.19825987D+05 0.12342441D+01  1  2  5  8  6  5       21 -.171236863462D-02 0.100000000000D+01
  </mgrwgt>
  </event>
  <event>
  5     66 0.42934962E-03 0.88163437E+02 0.75467711E-02 0.11517361E+00
       -2 -1    0    0    0  501 0.00000000E+00 0.00000000E+00 0.19375658E+02 0.19378300E+02 0.32000000E+00 0.0000E+00 0.9000E+01
        2 -1    0    0  502    0 -.00000000E+00 -.00000000E+00 -.38024949E+04 0.38024949E+04 0.32000000E+00 0.0000E+00 0.9000E+01
       25  1    1    2    0    0 -.65495874E+02 -.32348638E+02 -.24272999E+04 0.24316138E+04 0.12500000E+03 0.0000E+00 0.9000E+01
       23  1    1    2    0    0 0.11082813E+03 -.48858954E+02 -.11942327E+04 0.12038177E+04 0.91188000E+02 0.0000E+00 0.9000E+01
       21  1    1    2  502  501 -.45332255E+02 0.81207592E+02 -.16158668E+03 0.18644169E+03 0.75000000E+00 0.0000E+00 0.9000E+01
#aMCatNLO 1  0  0  5  1 0.21349331D+02 0.00000000D+00  -5  6  0 0.00000000D+00 0.00000000D+00 0.00000000D+00 0.00000000D+00 0.00000000D+00
  <mgrwgt>
 0.7104681255D-01   20    2    0
 0.271442287673056D+03 0.000000000000000D+00 0.000000000000000D+00 0.271442287673056D+03
 0.271442287673056D+03 -.000000000000000D+00 -.000000000000000D+00 -.271442287673056D+03
 0.203643824449494D+03 -.654957362882564D+02 -.323488845077987D+02 -.143211959820319D+03
 0.152728647926069D+03 0.110828231907863D+03 -.488591387928258D+02 -.184574137388063D+02
 0.186512102970549D+03 -.453324956196068D+02 0.812080233006244D+02 0.161669373559126D+03
 0.000000000000000D+00 0.000000000000000D+00 0.000000000000000D+00 0.000000000000000D+00
 0.271442287673056D+03 0.000000000000000D+00 0.000000000000000D+00 0.271442287673056D+03
 0.271442287673056D+03 -.000000000000000D+00 -.000000000000000D+00 -.271442287673056D+03
 0.202393215665849D+03 -.660046664686202D+02 -.314371938236550D+02 -.141396961057949D+03
 0.152074506638121D+03 0.110446189115945D+03 -.481747524707434D+02 -.170949337341656D+02
 0.627453526637404D+02 -.103370775518091D+01 0.418041833844299D+02 0.467794931645800D+02
 0.125671500378401D+03 -.434078148921439D+02 0.378077629099684D+02 0.111712401627534D+03
0.593624655660D-03 0.000000000000D+00 0.000000000000D+00 0.184200768440D-05 0.000000000000D+00  6 -2 2 25 23 21 21 2 0.29810748D-02 0.58499941D+00 0.37906739D+05 0.37906739D+05 0.37906739D+05 0.12043780D+01  1  2  2  3  6  5       21 0.237866800956D-01 0.100000000000D+01
-.204010967261D-04 0.313264337243D-04 -.227967498270D-05 0.184200768440D-05 0.000000000000D+00  6 -2 2 25 23 21 21 4 0.29810748D-02 0.58499941D+00 0.37906739D+05 0.37906739D+05 0.37906739D+05 0.12043780D+01  1  2  3  3  6  5       21 -.118577166055D-02 0.100000000000D+01
0.377960650328D-04 0.000000000000D+00 0.000000000000D+00 0.184200768440D-05 0.000000000000D+00  6 -2 2 25 23 21 21 4 0.29810748D-02 0.58499941D+00 0.37906739D+05 0.37906739D+05 0.37906739D+05 0.12043780D+01  1  2 15  3  6  5       21 0.219681830824D-02 0.100000000000D+01
0.343226154646D-03 0.000000000000D+00 0.000000000000D+00 0.183792862489D-05 0.000000000000D+00  6 -2 2 25 23 21 21 4 0.29810748D-02 0.58499941D+00 0.39065907D+05 0.39065907D+05 0.39065907D+05 0.12030438D+01  1  2 12  3  6  5       21 0.198350504607D-01 0.100000000000D+01
0.432541025409D-03 0.000000000000D+00 0.000000000000D+00 0.183792862489D-05 0.000000000000D+00  6 -2 2 25 23 21 21 4 0.29810748D-02 0.58499941D+00 0.39065907D+05 0.39065907D+05 0.39065907D+05 0.12030438D+01  1  2 12  3  6  5       21 0.249965597003D-01 0.100000000000D+01
-.139846006791D-02 0.000000000000D+00 0.000000000000D+00 0.184200768440D-05 0.000000000000D+00  6 -2 2 25 23 21 21 4 0.29810748D-02 0.58499941D+00 0.37906739D+05 0.37906739D+05 0.37906739D+05 0.12043780D+01  1  2  4  3  6  5       21 -.812826064791D-01 0.100000000000D+01
-.769892051055D-03 0.000000000000D+00 0.000000000000D+00 0.184200768440D-05 0.000000000000D+00  6 -2 2 25 23 21 21 4 0.29810748D-02 0.58499941D+00 0.37906739D+05 0.37906739D+05 0.37906739D+05 0.12043780D+01  1  2  5  3  6  5       21 -.447483872106D-01 0.100000000000D+01
0.230945025877D-02 0.000000000000D+00 -.000000000000D+00 0.184200768440D-05 0.000000000000D+00  6 -2 2 25 23 21 21 4 0.29810748D-02 0.58499941D+00 0.37906739D+05 0.37906739D+05 0.37906739D+05 0.12043780D+01  1  2  6  3  6  5       21 0.134232031986D+00 0.100000000000D+01
0.307249956418D-04 0.000000000000D+00 0.000000000000D+00 0.183792862489D-05 0.000000000000D+00  6 -2 2 25 23 1 -1 4 0.29810748D-02 0.58499941D+00 0.39065907D+05 0.39065907D+05 0.39065907D+05 0.12030438D+01  1  2 12  6  6  5       21 0.177559848138D-02 0.100000000000D+01
0.307249956418D-04 0.000000000000D+00 0.000000000000D+00 0.183792862489D-05 0.000000000000D+00  6 -2 2 25 23 3 -3 4 0.29810748D-02 0.58499941D+00 0.39065907D+05 0.39065907D+05 0.39065907D+05 0.12030438D+01  1  2 12  6  6  5       21 0.177559848138D-02 0.100000000000D+01
0.376317704601D-04 0.000000000000D+00 0.000000000000D+00 0.183792862489D-05 0.000000000000D+00  6 -2 2 25 23 1 -1 4 0.29810748D-02 0.58499941D+00 0.39065907D+05 0.39065907D+05 0.39065907D+05 0.12030438D+01  1  2 12  6  6  5       21 0.217474121916D-02 0.100000000000D+01
0.376317704601D-04 0.000000000000D+00 0.000000000000D+00 0.183792862489D-05 0.000000000000D+00  6 -2 2 25 23 3 -3 4 0.29810748D-02 0.58499941D+00 0.39065907D+05 0.39065907D+05 0.39065907D+05 0.12030438D+01  1  2 12  6  6  5       21 0.217474121916D-02 0.100000000000D+01
-.971428948670D-04 0.000000000000D+00 0.000000000000D+00 0.184200768440D-05 0.000000000000D+00  6 -2 2 25 23 1 -1 4 0.29810748D-02 0.58499941D+00 0.37906739D+05 0.37906739D+05 0.37906739D+05 0.12043780D+01  1  2  5  6  6  5       21 -.564623036218D-02 0.100000000000D+01
-.971428948670D-04 0.000000000000D+00 0.000000000000D+00 0.184200768440D-05 0.000000000000D+00  6 -2 2 25 23 3 -3 4 0.29810748D-02 0.58499941D+00 0.37906739D+05 0.37906739D+05 0.37906739D+05 0.12043780D+01  1  2  5  6  6  5       21 -.564623036218D-02 0.100000000000D+01
0.307249956418D-04 0.000000000000D+00 0.000000000000D+00 0.183792862489D-05 0.000000000000D+00  6 -2 2 25 23 2 -2 4 0.29810748D-02 0.58499941D+00 0.39065907D+05 0.39065907D+05 0.39065907D+05 0.12030438D+01  1  2 12  7  6  5       21 0.177559848138D-02 0.100000000000D+01
0.376317704601D-04 0.000000000000D+00 0.000000000000D+00 0.183792862489D-05 0.000000000000D+00  6 -2 2 25 23 2 -2 4 0.29810748D-02 0.58499941D+00 0.39065907D+05 0.39065907D+05 0.39065907D+05 0.12030438D+01  1  2 12  7  6  5       21 0.217474121916D-02 0.100000000000D+01
-.971428948670D-04 0.000000000000D+00 0.000000000000D+00 0.184200768440D-05 0.000000000000D+00  6 -2 2 25 23 2 -2 4 0.29810748D-02 0.58499941D+00 0.37906739D+05 0.37906739D+05 0.37906739D+05 0.12043780D+01  1  2  5  7  6  5       21 -.564623036218D-02 0.100000000000D+01
0.307249956418D-04 0.000000000000D+00 0.000000000000D+00 0.183792862489D-05 0.000000000000D+00  6 -2 2 25 23 4 -4 4 0.29810748D-02 0.58499941D+00 0.39065907D+05 0.39065907D+05 0.39065907D+05 0.12030438D+01  1  2 12  8  6  5       21 0.177559848138D-02 0.100000000000D+01
0.376317704601D-04 0.000000000000D+00 0.000000000000D+00 0.183792862489D-05 0.000000000000D+00  6 -2 2 25 23 4 -4 4 0.29810748D-02 0.58499941D+00 0.39065907D+05 0.39065907D+05 0.39065907D+05 0.12030438D+01  1  2 12  8  6  5       21 0.217474121916D-02 0.100000000000D+01
-.971428948670D-04 0.000000000000D+00 0.000000000000D+00 0.184200768440D-05 0.000000000000D+00  6 -2 2 25 23 4 -4 4 0.29810748D-02 0.58499941D+00 0.37906739D+05 0.37906739D+05 0.37906739D+05 0.12043780D+01  1  2  5  8  6  5       21 -.564623036218D-02 0.100000000000D+01
  </mgrwgt>
  </event>
  <event>
  5     66 0.42934962E-03 0.17171105E+03 0.75467711E-02 0.11037185E+00
       -4 -1    0    0    0  501 0.00000000E+00 0.00000000E+00 0.18338642E+03 0.18339297E+03 0.15500000E+01 0.0000E+00 0.9000E+01
        4 -1    0    0  502    0 -.00000000E+00 -.00000000E+00 -.42106470E+03 0.42106756E+03 0.15500000E+01 0.0000E+00 0.9000E+01
       25  1    1    2    0    0 -.20903545E+03 -.72966155E+02 -.19403831E+03 0.31983706E+03 0.12500000E+03 0.0000E+00 0.9000E+01
       23  1    1    2    0    0 0.52611339E+02 0.21438415E+01 0.71976930E+01 0.10554434E+03 0.91188000E+02 0.0000E+00 0.9000E+01
       21  1    1    2  502  501 0.15642411E+03 0.70822313E+02 -.50837672E+02 0.17907913E+03 0.75000000E+00 0.0000E+00 0.9000E+01
#aMCatNLO 1  0  0  5  2 0.85593913D+02 0.00000000D+00  -5  6  0 0.00000000D+00 0.00000000D+00 0.00000000D+00 0.00000000D+00 0.00000000D+00
  <mgrwgt>
 0.7886739821D-03    4    2    0
 0.277885570039459D+03 0.000000000000000D+00 0.000000000000000D+00 0.277885570039459D+03
 0.277885570039459D+03 -.000000000000000D+00 -.000000000000000D+00 -.277885570039459D+03
 0.264876214143490D+03 -.209036152391830D+03 -.729664716935222D+02 -.742575909978638D+02
 0.117868717750151D+03 0.526110268830202D+02 0.214370041739931D+01 0.529647777197191D+02
 0.173026208185277D+03 0.156425125508810D+03 0.708227712761229D+02 0.212928132781447D+02
 0.000000000000000D+00 -.000000000000000D+00 0.000000000000000D+00 0.000000000000000D+00
 0.277885570039459D+03 0.000000000000000D+00 0.000000000000000D+00 0.277885570039459D+03
 0.277885570039459D+03 -.000000000000000D+00 -.000000000000000D+00 -.277885570039459D+03
 0.223526360218254D+03 -.164095071185830D+03 -.526190249211367D+02 -.681401463256943D+02
 0.131641125425642D+03 0.755700420735389D+02 0.125385847192282D+02 0.560899919198782D+02
 0.900339005016816D+02 0.611461298499383D+02 -.660318350829824D+02 -.265533415882112D+01
 0.110569753933339D+03 0.273788992623525D+02 0.106112275284891D+03 0.147054885646373D+02
0.137664347097D-03 0.000000000000D+00 0.000000000000D+00 0.319498617019D-06 0.000000000000D+00  6 -4 4 25 23 21 21 2 0.28214018D-01 0.64779909D-01 0.70560295D+05 0.70560295D+05 0.70560295D+05 0.11777451D+01  1  2  2  3  6  5       21 0.942519591575D-03 0.100000000000D+01
-.121849744431D-04 0.726474718398D-05 -.528667340708D-06 0.319498617019D-06 0.000000000000D+00  6 -4 4 25 23 21 21 4 0.28214018D-01 0.64779909D-01 0.70560295D+05 0.70560295D+05 0.70560295D+05 0.11777451D+01  1  2  3  3  6  5       21 -.115716718814D-03 0.100000000000D+01
0.985598658738D-05 0.000000000000D+00 0.000000000000D+00 0.319498617019D-06 0.000000000000D+00  6 -4 4 25 23 21 21 4 0.28214018D-01 0.64779909D-01 0.70560295D+05 0.70560295D+05 0.70560295D+05 0.11777451D+01  1  2 15  3  6  5       21 0.935990825334D-04 0.100000000000D+01
-.138709600728D-04 0.000000000000D+00 0.000000000000D+00 0.319498617019D-06 0.000000000000D+00  6 -4 4 25 23 21 21 4 0.28214018D-01 0.64779909D-01 0.70560295D+05 0.70560295D+05 0.70560295D+05 0.11777451D+01  1  2  4  3  6  5       21 -.131727973162D-03 0.100000000000D+01
  </mgrwgt>
  </event>
  <event>
  6     66 -.42934962E-03 0.22844377E+02 0.75467711E-02 0.11580673E+00
       -2 -1    0    0    0  501 0.00000000E+00 0.00000000E+00 0.15330138E+02 0.15333478E+02 0.32000000E+00 0.0000E+00 0.9000E+01
        2 -1    0    0  502    0 -.00000000E+00 -.00000000E+00 -.26011116E+04 0.26011116E+04 0.32000000E+00 0.0000E+00 0.9000E+01
       25  1    1    2    0    0 -.13047988E+03 -.62130800E+02 -.12699104E+04 0.12842050E+04 0.12500000E+03 0.0000E+00 0.9000E+01
       23  1    1    2    0    0 0.11059348E+03 0.61529669E+02 -.78846986E+03 0.80375170E+03 0.91188000E+02 0.0000E+00 0.9000E+01
       21  1    1    2  503  501 0.26148631E+02 0.41475373E+01 -.39180740E+03 0.39270161E+03 0.75000000E+00 0.0000E+00 0.9000E+01
       21  1    1    2  502  503 -.62622250E+01 -.35464071E+01 -.13559384E+03 0.13578676E+03 0.75000000E+00 0.0000E+00 0.9000E+01
#aMCatNLO 2  0  0  5  1 0.10958326D+02 0.00000000D+00  -5  6  0 0.00000000D+00 0.00000000D+00 0.00000000D+00 0.00000000D+00 0.00000000D+00
  <mgrwgt>
 -.3508175360D-01    3    2    0
 0.199699262378493D+03 0.000000000000000D+00 0.000000000000000D+00 0.199699262378493D+03
 0.199699262378493D+03 -.000000000000000D+00 -.000000000000000D+00 -.199699262378493D+03
 0.192581172909653D+03 -.132636411871093D+03 -.621959876828639D+02 -.132269473894522D+01
 0.160146104844263D+03 0.108790617818758D+03 0.614751722671172D+02 0.414358325864344D+02
 0.466712470030707D+02 0.238457940523352D+02 0.720815415746698D+00 -.401131378474892D+02
 0.000000000000000D+00 0.000000000000000D+00 0.000000000000000D+00 -.000000000000000D+00
 0.199699262378493D+03 0.000000000000000D+00 0.000000000000000D+00 0.199699262378493D+03
 0.199699262378493D+03 -.000000000000000D+00 -.000000000000000D+00 -.199699262378493D+03
 0.191114845672609D+03 -.130440117518624D+03 -.621295976593946D+02 -.501727743645853D+01
 0.160655122535228D+03 0.110626899379775D+03 0.615306797521658D+02 0.383468595280309D+02
 0.356378776338711D+02 0.261612405197865D+02 0.423063265217448D+01 -.238274959673694D+02
 0.119906789152785D+02 -.634802238093726D+01 -.363171474494564D+01 -.950208612420290D+01
-.143080050404D-03 0.000000000000D+00 0.000000000000D+00 0.168487805312D-04 0.000000000000D+00  6 -2 2 25 23 21 21 4 0.23587412D-02 0.40017127D+00 0.36266450D+05 0.36266450D+05 0.36266450D+05 0.12063458D+01  1  2 13  3  6  5       21 -.652807463868D-01 0.100000000000D+01
-.451638704417D-04 0.000000000000D+00 0.000000000000D+00 0.169136379877D-04 0.000000000000D+00  6 -2 2 25 23 21 21 4 0.23587412D-02 0.40017127D+00 0.34433639D+05 0.34433639D+05 0.34433639D+05 0.12086655D+01  1  2  8  3  6  5       21 -.207781174456D-01 0.100000000000D+01
0.111729842344D-03 0.000000000000D+00 0.000000000000D+00 0.169136379877D-04 0.474174214864D-06  6 -2 2 25 23 21 21 4 0.23587412D-02 0.40017127D+00 0.36266450D+05 0.36266450D+05 0.36266450D+05 0.12063458D+01  1  2  1  3  6  5       21 0.509771102354D-01 0.100000000000D+01
  </mgrwgt>
  </event>
  <event>
  6     66 0.42934962E-03 0.32941869E+02 0.75467711E-02 0.11662884E+00
       -2 -1    0    0    0  501 0.00000000E+00 0.00000000E+00 0.11724717E+03 0.11724760E+03 0.32000000E+00 0.0000E+00 0.9000E+01
        2 -1    0    0  502    0 -.00000000E+00 -.00000000E+00 -.39630847E+03 0.39630860E+03 0.32000000E+00 0.0000E+00 0.9000E+01
       25  1    1    2    0    0 -.87401577E+02 -.40684644E+01 -.23715862E+03 0.28200142E+03 0.12500000E+03 0.0000E+00 0.9000E+01
       23  1    1    2    0    0 0.93747243E+02 0.67065597E+02 -.59854048E+02 0.15869499E+03 0.91188000E+02 0.0000E+00 0.9000E+01
       21  1    1    2  503  501 -.70542940E+01 -.43033958E+02 -.32312241E+01 0.43734288E+02 0.75000000E+00 0.0000E+00 0.9000E+01
       21  1    1    2  502  503 0.70862802E+00 -.19963174E+02 0.21182592E+02 0.29125508E+02 0.75000000E+00 0.0000E+00 0.9000E+01
#aMCatNLO 2  0  0  5  2 0.15600624D+02 0.00000000D+00  -5  6  0 0.00000000D+00 0.00000000D+00 0.00000000D+00 0.00000000D+00 0.00000000D+00
  <mgrwgt>
 0.5513734796D-01    3    2    0
 0.215560177445896D+03 0.000000000000000D+00 0.000000000000000D+00 0.215560177445896D+03
 0.215560177445896D+03 -.000000000000000D+00 -.000000000000000D+00 -.215560177445896D+03
 0.183195665377718D+03 -.872537049332805D+02 -.260045158269365D+01 -.101566138255655D+03
 0.150646897656859D+03 0.938689610242436D+02 0.682739632997448D+02 0.301084792244684D+02
 0.972777918572166D+02 -.661525609096315D+01 -.656735117170512D+02 0.714576590311862D+02
 0.000000000000000D+00 0.000000000000000D+00 0.000000000000000D+00 0.000000000000000D+00
 0.215560177445896D+03 0.000000000000000D+00 0.000000000000000D+00 0.215560177445896D+03
 0.215560177445896D+03 -.000000000000000D+00 -.000000000000000D+00 -.215560177445896D+03
 0.182415702900362D+03 -.874009818686341D+02 -.406255575622852D+01 -.999752603085354D+02
 0.150297788742160D+03 0.937477333629361D+02 0.670704654871372D+02 0.314179742414033D+02
 0.493764812156852D+02 -.700727274971352D+01 -.425856713307172D+02 0.239874055113547D+02
 0.490303820335858D+02 0.660521255411584D+00 -.204222384001915D+02 0.445698805557775D+02
-.966051304844D-04 0.000000000000D+00 0.000000000000D+00 0.233225065161D-05 0.000000000000D+00  6 -2 2 25 23 21 21 4 0.18038069D-01 0.60970577D-01 0.32969091D+05 0.32969091D+05 0.32969091D+05 0.12106202D+01  1  2 13  3  6  5       21 -.414862064452D-01 0.100000000000D+01
-.104920568317D-03 0.000000000000D+00 0.000000000000D+00 0.233225065161D-05 0.000000000000D+00  6 -2 2 25 23 21 21 4 0.18038069D-01 0.60970577D-01 0.32969091D+05 0.32969091D+05 0.32969091D+05 0.12106202D+01  1  2 13  3  6  5       21 -.450571966077D-01 0.100000000000D+01
0.329918992643D-03 0.000000000000D+00 0.000000000000D+00 0.232946351360D-05 0.106967770770D-06  6 -2 2 25 23 21 21 4 0.18038069D-01 0.60970577D-01 0.32969091D+05 0.32969091D+05 0.32969091D+05 0.12106202D+01  1  2  1  3  6  5       21 0.141680751016D+00 0.100000000000D+01
  </mgrwgt>
  </event>
  <event>
  6     66 0.42934962E-03 0.31993816E+02 0.75467711E-02 0.11279071E+00
       -2 -1    0    0    0  501 0.00000000E+00 0.00000000E+00 0.17670498E+03 0.17670527E+03 0.32000000E+00 0.0000E+00 0.9000E+01
        2 -1    0    0  503    0 0.00000000E+00 0.00000000E+00 -.57978863E+03 0.57978872E+03 0.32000000E+00 0.0000E+00 0.9000E+01
       25  1    1    2    0    0 -.18535482E+03 -.39523586E+02 -.35105004E+03 0.41806657E+03 0.12500000E+03 0.0000E+00 0.9000E+01
       23  1    1    2    0    0 0.13684492E+03 0.44509444E+01 0.80684405E+02 0.18322545E+03 0.91188000E+02 0.0000E+00 0.9000E+01
       21  1    1    2  502  501 0.21880282E+02 0.13665647E+01 -.96645454E+02 0.99103585E+02 0.75000000E+00 0.0000E+00 0.9000E+01
       21  1    1    2  503  502 0.26629621E+02 0.33706077E+02 -.36072562E+02 0.56098383E+02 0.75000000E+00 0.0000E+00 0.9000E+01
#aMCatNLO 2  0  0  2  5 0.42956215D+02 0.00000000D+00  -5  6  0 0.00000000D+00 0.00000000D+00 0.00000000D+00 0.00000000D+00 0.00000000D+00
  <mgrwgt>
 0.2142085234D-01    1    2    0
 0.297494382432441D+03 0.000000000000000D+00 0.000000000000000D+00 0.297494382432441D+03
 0.297494382432441D+03 0.000000000000000D+00 0.000000000000000D+00 -.297494382432441D+03
 0.265054249103281D+03 -.173288764672083D+03 -.242501635019857D+02 -.154957053973849D+03
 0.271832232384156D+03 0.148836474220748D+03 0.196300933031692D+02 0.207460537446039D+03
 0.581022833774447D+02 0.244522904513350D+02 0.462007019881643D+01 -.525034834721891D+02
 0.000000000000000D+00 0.000000000000000D+00 0.000000000000000D+00 -.000000000000000D+00
 0.316181986732273D+03 0.000000000000000D+00 0.000000000000000D+00 0.316181986732273D+03
 0.324021039331826D+03 0.000000000000000D+00 0.000000000000000D+00 -.324021039331826D+03
 0.274873701207592D+03 -.185355706298373D+03 -.395237293525944D+02 -.154957053973849D+03
 0.264766310636922D+03 0.136843942084452D+03 0.445071024390312D+01 0.207460537446039D+03
 0.568973857114087D+02 0.218821432805154D+02 0.136694167006457D+01 -.525034834721891D+02
 0.436656285081774D+02 0.266296209334060D+02 0.337060774386267D+02 -.783905259955321D+01
0.165105161897D-03 0.000000000000D+00 0.000000000000D+00 0.747643383956D-05 0.242104867472D-07  6 -2 2 25 23 21 21 4 0.27185136D-01 0.89197381D-01 0.52079123D+05 0.52079123D+05 0.52079123D+05 0.11905334D+01  1  2  1  2  6  2        2 0.214208523386D-01 0.100000000000D+01
  </mgrwgt>
  </event>
  <event>
  6     66 -.42934962E-03 0.27583047E+02 0.75467711E-02 0.11945079E+00
       21 -1    0    0  503  501 0.00000000E+00 0.00000000E+00 0.34938753E+02 0.34946802E+02 0.75000000E+00 0.0000E+00 0.9000E+01
        2 -1    0    0  502    0 0.00000000E+00 0.00000000E+00 -.12858385E+04 0.12858385E+04 0.32000000E+00 0.0000E+00 0.9000E+01
       25  1    1    2    0    0 0.10026395E+02 0.51483670E+02 -.95783007E+03 0.96737508E+03 0.12500000E+03 0.0000E+00 0.9000E+01
       23  1    1    2    0    0 -.96627825E+01 -.68418452E+02 -.12485600E+03 0.16934794E+03 0.91188000E+02 0.0000E+00 0.9000E+01
        2  1    1    2  503    0 -.33757755E+01 -.21312073E+02 -.15418240E+02 0.26522157E+02 0.32000000E+00 0.0000E+00 0.9000E+01
       21  1    1    2  502  501 0.30121631E+01 0.38246855E+02 -.15279541E+03 0.15754013E+03 0.75000000E+00 0.0000E+00 0.9000E+01
#aMCatNLO 2  0  0  1  5 0.21577773D+02 0.00000000D+00  -5  6  0 0.00000000D+00 0.00000000D+00 0.00000000D+00 0.00000000D+00 0.00000000D+00
  <mgrwgt>
 -.1200481703D-01    2    2    0
 0.192507814358999D+03 0.000000000000000D+00 0.000000000000000D+00 0.192507814358999D+03
 0.192507814358999D+03 0.000000000000000D+00 0.000000000000000D+00 -.192507814358999D+03
 0.175382586197919D+03 0.847795974986316D+01 0.417062434117641D+02 -.115424282542405D+03
 0.172499675066666D+03 -.111561638125643D+02 -.778482806954226D+02 0.123515471726659D+03
 0.000000000000000D+00 -.000000000000000D+00 -.000000000000000D+00 0.000000000000000D+00
 0.371333674534134D+02 0.267820406270114D+01 0.361420372836585D+02 -.809118918425389D+01
 0.229231138779639D+03 0.000000000000000D+00 0.000000000000000D+00 0.229231138779639D+03
 0.196005842654951D+03 0.000000000000000D+00 0.000000000000000D+00 -.196005842654951D+03
 0.178040733678061D+03 0.100261338038981D+02 0.514802339654692D+02 -.115424282542405D+03
 0.168363353214645D+03 -.966301022963132D+01 -.684216474452513D+02 0.123515471726659D+03
 0.396171755939367D+02 -.337577550152117D+01 -.213120726169677D+02 0.332252961246885D+02
 0.392157189479475D+02 0.301265192725442D+01 0.382534860967498D+02 -.809118918425389D+01
-.683242912181D-05 0.000000000000D+00 0.000000000000D+00 0.444954702193D-05 0.000000000000D+00  6 21 2 25 23 2 21 4 0.57236273D-02 0.19429085D+00 0.24012451D+05 0.24012451D+05 0.24012451D+05 0.12251787D+01  1  2 13  4  5  1       -2 -.779076379708D-01 0.100000000000D+01
0.534863997057D-05 0.000000000000D+00 0.000000000000D+00 0.449827876209D-05 0.209536940539D-08  6 21 2 25 23 2 21 4 0.53757975D-02 0.19782128D+00 0.24012451D+05 0.24012451D+05 0.24012451D+05 0.12251787D+01  1  2  1  4  5  1       -2 0.659028209372D-01 0.100000000000D+01
  </mgrwgt>
  </event>
  <event>
  5     66 0.42934962E-03 0.55752567E+02 0.75467711E-02 0.10811668E+00
       -2 -1    0    0    0  501 0.00000000E+00 0.00000000E+00 0.15477545E+04 0.15477545E+04 0.32000000E+00 0.0000E+00 0.9000E+01
        2 -1    0    0  502    0 0.00000000E+00 0.00000000E+00 -.31421224E+03 0.31421241E+03 0.32000000E+00 0.0000E+00 0.9000E+01
       25  1    1    2    0    0 0.71006718E+02 -.35237124E+02 -.14182546E+03 0.20499529E+03 0.12500000E+03 0.0000E+00 0.9000E+01
       23  1    1    2    0    0 -.55149944E+02 -.18212941E+02 -.11945190E+03 0.16111250E+03 0.91188000E+02 0.0000E+00 0.9000E+01
       21  1    1    2  502  501 -.15856774E+02 0.53450065E+02 0.14948196E+04 0.14958591E+04 0.75000000E+00 0.0000E+00 0.9000E+01
#aMCatNLO 1  0  0  5  1 0.30106928D+02 0.00000000D+00  -5  6  0 0.00000000D+00 0.00000000D+00 0.00000000D+00 0.00000000D+00 0.00000000D+00
  <mgrwgt>
 0.3629049958D+00    3    2    0
 0.697369045408067D+03 0.000000000000000D+00 0.000000000000000D+00 0.697369045408067D+03
 0.697369045408067D+03 -.000000000000000D+00 -.000000000000000D+00 -.697369045408067D+03
 0.399101666271537D+03 0.710067210179394D+02 -.352371339139486D+02 -.370639352989572D+03
 0.320730630703728D+03 -.551499421741596D+02 -.182129480958878D+02 -.301959696859456D+03
 0.674905793840869D+03 -.158567788437799D+02 0.534500820098366D+02 0.672599049849028D+03
 0.000000000000000D+00 0.000000000000000D+00 0.000000000000000D+00 -.000000000000000D+00
 0.697369045408067D+03 0.000000000000000D+00 0.000000000000000D+00 0.697369045408067D+03
 0.697369045408067D+03 -.000000000000000D+00 -.000000000000000D+00 -.697369045408067D+03
 0.352225104498744D+03 0.698197653058823D+02 -.312361397160389D+02 -.320292098228200D+03
 0.282971131351626D+03 -.561036779955465D+02 -.149980922685426D+02 -.261504960522923D+03
 0.166587814396495D+03 0.156342697361615D+03 -.529453020206541D+02 0.224778976115941D+02
 0.592954040569269D+03 -.170058784671950D+03 0.991795340052360D+02 0.559319161139529D+03
0.181545660180D+00 0.000000000000D+00 0.000000000000D+00 0.634821807483D-04 0.000000000000D+00  6 -2 2 25 23 21 21 2 0.23811609D+00 0.48340360D-01 0.24317503D+05 0.24317503D+05 0.24317503D+05 0.12245885D+01  1  2  2  3  6  5       21 0.251888412315D+00 0.100000000000D+01
0.431239556892D-01 0.958042769507D-02 -.697183137160D-03 0.634821807483D-04 0.000000000000D+00  6 -2 2 25 23 21 21 4 0.23811609D+00 0.48340360D-01 0.24317503D+05 0.24317503D+05 0.24317503D+05 0.12245885D+01  1  2  3  3  6  5       21 0.897266174621D-01 0.100000000000D+01
0.102322764329D-01 0.000000000000D+00 0.000000000000D+00 0.634821807483D-04 0.000000000000D+00  6 -2 2 25 23 21 21 4 0.23811609D+00 0.48340360D-01 0.24317503D+05 0.24317503D+05 0.24317503D+05 0.12245885D+01  1  2 15  3  6  5       21 0.212899660662D-01 0.100000000000D+01
  </mgrwgt>
  </event>
  <event>
  5     66 -.42934962E-03 0.23357471E+02 0.75467711E-02 0.12084354E+00
       -2 -1    0    0    0  501 0.00000000E+00 0.00000000E+00 0.15064307E+03 0.15064341E+03 0.32000000E+00 0.0000E+00 0.9000E+01
        2 -1    0    0  502    0 -.00000000E+00 -.00000000E+00 -.15384696E+03 0.15384729E+03 0.32000000E+00 0.0000E+00 0.9000E+01
       25  1    1    2    0    0 -.73503444E+02 -.12363954E+02 -.43368441E+02 0.15185995E+03 0.12500000E+03 0.0000E+00 0.9000E+01
       23  1    1    2    0    0 0.74890763E+02 -.10942297E+02 0.48192554E+02 0.12793019E+03 0.91188000E+02 0.0000E+00 0.9000E+01
       21  1    1    2  502  501 -.13873192E+01 0.23306251E+02 -.80280064E+01 0.24700554E+02 0.75000000E+00 0.0000E+00 0.9000E+01
#aMCatNLO 1  0  0  5  1 0.33819526D+01 0.00000000D+00  -5  6  0 0.00000000D+00 0.00000000D+00 0.00000000D+00 0.00000000D+00 0.00000000D+00
  <mgrwgt>
 -.6158694675D+00   20    2    0
 0.152236920809392D+03 0.000000000000000D+00 0.000000000000000D+00 0.152236920809392D+03
 0.152236920809392D+03 -.000000000000000D+00 -.000000000000000D+00 -.152236920809392D+03
 0.151411795112065D+03 -.735031231090403D+02 -.123693363583761D+02 -.417710678619610D+02
 0.128445525126170D+03 0.748910344934671D+02 -.109468634581171D+02 0.495429178981737D+02
 0.246165213805492D+02 -.138791138442676D+01 0.233161998164931D+02 -.777185003621276D+01
 0.000000000000000D+00 0.000000000000000D+00 0.000000000000000D+00 -.000000000000000D+00
 0.152236920809392D+03 0.000000000000000D+00 0.000000000000000D+00 0.152236920809392D+03
 0.152236920809392D+03 -.000000000000000D+00 -.000000000000000D+00 -.152236920809392D+03
 0.151447322735864D+03 -.735531773944330D+02 -.115284500215520D+02 -.420513554971130D+02
 0.128270487204289D+03 0.748486063947611D+02 -.102340931484543D+02 0.493053344154209D+02
 0.201820821324699D+02 -.242938791061589D+01 0.197616423651291D+02 -.330030371545545D+01
 0.457394954616135D+01 0.113395891028775D+01 0.200090080487723D+01 -.395367520285244D+01
0.901051660356D-04 0.000000000000D+00 0.000000000000D+00 0.195702907238D-04 0.000000000000D+00  6 -2 2 25 23 21 21 2 0.23175908D-01 0.23668815D-01 0.20649654D+05 0.20649654D+05 0.20649654D+05 0.12323006D+01  1  2  2  3  6  5       21 0.490867215541D-01 0.100000000000D+01
0.189811053155D-04 0.475498024741D-05 -.346027562812D-06 0.195702907238D-04 0.000000000000D+00  6 -2 2 25 23 21 21 4 0.23175908D-01 0.23668815D-01 0.20649654D+05 0.20649654D+05 0.20649654D+05 0.12323006D+01  1  2  3  3  6  5       21 0.157025126045D-01 0.100000000000D+01
0.238514345602D-05 0.000000000000D+00 0.000000000000D+00 0.195702907238D-04 0.000000000000D+00  6 -2 2 25 23 21 21 4 0.23175908D-01 0.23668815D-01 0.20649654D+05 0.20649654D+05 0.20649654D+05 0.12323006D+01  1  2 15  3  6  5       21 0.197315933710D-02 0.100000000000D+01
0.101398259394D-05 0.000000000000D+00 0.000000000000D+00 0.195838212817D-04 0.000000000000D+00  6 -2 2 25 23 21 21 4 0.23175908D-01 0.23668815D-01 0.20465917D+05 0.20465917D+05 0.20465917D+05 0.12327265D+01  1  2 12  3  6  5       21 0.839796009502D-03 0.100000000000D+01
0.988210851869D-06 0.000000000000D+00 0.000000000000D+00 0.195838212817D-04 0.000000000000D+00  6 -2 2 25 23 21 21 4 0.23175908D-01 0.23668815D-01 0.20465917D+05 0.20465917D+05 0.20465917D+05 0.12327265D+01  1  2 12  3  6  5       21 0.818451455582D-03 0.100000000000D+01
-.942435809165D-03 0.000000000000D+00 0.000000000000D+00 0.195702907238D-04 0.000000000000D+00  6 -2 2 25 23 21 21 4 0.23175908D-01 0.23668815D-01 0.20649654D+05 0.20649654D+05 0.20649654D+05 0.12323006D+01  1  2  4  3  6  5       21 -.779649547610D+00 0.100000000000D+01
-.312720527159D-03 0.000000000000D+00 0.000000000000D+00 0.195702907238D-04 0.000000000000D+00  6 -2 2 25 23 21 21 4 0.23175908D-01 0.23668815D-01 0.20649654D+05 0.20649654D+05 0.20649654D+05 0.12323006D+01  1  2  5  3  6  5       21 -.258704534735D+00 0.100000000000D+01
0.438264882006D-03 0.000000000000D+00 -.000000000000D+00 0.195702907238D-04 0.000000000000D+00  6 -2 2 25 23 21 21 4 0.23175908D-01 0.23668815D-01 0.20649654D+05 0.20649654D+05 0.20649654D+05 0.12323006D+01  1  2  6  3  6  5       21 0.362563703190D+00 0.100000000000D+01
0.756755410502D-07 0.000000000000D+00 0.000000000000D+00 0.195838212817D-04 0.000000000000D+00  6 -2 2 25 23 1 -1 4 0.23175908D-01 0.23668815D-01 0.20465917D+05 0.20465917D+05 0.20465917D+05 0.12327265D+01  1  2 12  6  6  5       21 0.626756492375D-04 0.100000000000D+01
0.756755410502D-07 0.000000000000D+00 0.000000000000D+00 0.195838212817D-04 0.000000000000D+00  6 -2 2 25 23 3 -3 4 0.23175908D-01 0.23668815D-01 0.20465917D+05 0.20465917D+05 0.20465917D+05 0.12327265D+01  1  2 12  6  6  5       21 0.626756492375D-04 0.100000000000D+01
0.746820325000D-07 0.000000000000D+00 0.000000000000D+00 0.195838212817D-04 0.000000000000D+00  6 -2 2 25 23 1 -1 4 0.23175908D-01 0.23668815D-01 0.20465917D+05 0.20465917D+05 0.20465917D+05 0.12327265D+01  1  2 12  6  6  5       21 0.618528101465D-04 0.100000000000D+01
0.746820325000D-07 0.000000000000D+00 0.000000000000D+00 0.195838212817D-04 0.000000000000D+00  6 -2 2 25 23 3 -3 4 0.23175908D-01 0.23668815D-01 0.20465917D+05 0.20465917D+05 0.20465917D+05 0.12327265D+01  1  2 12  6  6  5       21 0.618528101465D-04 0.100000000000D+01
-.271913503094D-05 0.000000000000D+00 0.000000000000D+00 0.195702907238D-04 0.000000000000D+00  6 -2 2 25 23 1 -1 4 0.23175908D-01 0.23668815D-01 0.20649654D+05 0.20649654D+05 0.20649654D+05 0.12323006D+01  1  2  5  6  6  5       21 -.224946078677D-02 0.100000000000D+01
-.271913503094D-05 0.000000000000D+00 0.000000000000D+00 0.195702907238D-04 0.000000000000D+00  6 -2 2 25 23 3 -3 4 0.23175908D-01 0.23668815D-01 0.20649654D+05 0.20649654D+05 0.20649654D+05 0.12323006D+01  1  2  5  6  6  5       21 -.224946078677D-02 0.100000000000D+01
0.756755410502D-07 0.000000000000D+00 0.000000000000D+00 0.195838212817D-04 0.000000000000D+00  6 -2 2 25 23 2 -2 4 0.23175908D-01 0.23668815D-01 0.20465917D+05 0.20465917D+05 0.20465917D+05 0.12327265D+01  1  2 12  7  6  5       21 0.626756492375D-04 0.100000000000D+01
0.746820325000D-07 0.000000000000D+00 0.000000000000D+00 0.195838212817D-04 0.000000000000D+00  6 -2 2 25 23 2 -2 4 0.23175908D-01 0.23668815D-01 0.20465917D+05 0.20465917D+05 0.20465917D+05 0.12327265D+01  1  2 12  7  6  5       21 0.618528101465D-04 0.100000000000D+01
-.271913503094D-05 0.000000000000D+00 0.000000000000D+00 0.195702907238D-04 0.000000000000D+00  6 -2 2 25 23 2 -2 4 0.23175908D-01 0.23668815D-01 0.20649654D+05 0.20649654D+05 0.20649654D+05 0.12323006D+01  1  2  5  7  6  5       21 -.224946078677D-02 0.100000000000D+01
0.756755410502D-07 0.000000000000D+00 0.000000000000D+00 0.195838212817D-04 0.000000000000D+00  6 -2 2 25 23 4 -4 4 0.23175908D-01 0.23668815D-01 0.20465917D+05 0.20465917D+05 0.20465917D+05 0.12327265D+01  1  2 12  8  6  5       21 0.626756492375D-04 0.100000000000D+01
0.746820325000D-07 0.000000000000D+00 0.000000000000D+00 0.195838212817D-04 0.000000000000D+00  6 -2 2 25 23 4 -4 4 0.23175908D-01 0.23668815D-01 0.20465917D+05 0.20465917D+05 0.20465917D+05 0.12327265D+01  1  2 12  8  6  5       21 0.618528101465D-04 0.100000000000D+01
-.271913503094D-05 0.000000000000D+00 0.000000000000D+00 0.195702907238D-04 0.000000000000D+00  6 -2 2 25 23 4 -4 4 0.23175908D-01 0.23668815D-01 0.20649654D+05 0.20649654D+05 0.20649654D+05 0.12323006D+01  1  2  5  8  6  5       21 -.224946078677D-02 0.100000000000D+01
  </mgrwgt>
  </event>
  <event>
  6     66 -.42934962E-03 0.10796490E+02 0.75467711E-02 0.12273244E+00
       -2 -1    0    0    0  501 0.00000000E+00 0.00000000E+00 0.10540923E+02 0.10545779E+02 0.32000000E+00 0.0000E+00 0.9000E+01
        2 -1    0    0  502    0 -.00000000E+00 -.00000000E+00 -.17199026E+04 0.17199026E+04 0.32000000E+00 0.0000E+00 0.9000E+01
       25  1    1    2    0    0 -.50253624E+02 0.14158688E+01 -.10894772E+04 0.10977764E+04 0.12500000E+03 0.0000E+00 0.9000E+01
       23  1    1    2    0    0 0.48562810E+02 -.96884369E+01 -.47779550E+03 0.48893354E+03 0.91188000E+02 0.0000E+00 0.9000E+01
       21  1    1    2  502  503 -.15863693E+01 -.17798195E+01 -.10823643E+03 0.10826529E+03 0.75000000E+00 0.0000E+00 0.9000E+01
       21  1    1    2  503  501 0.32771826E+01 0.10052388E+02 -.33852541E+02 0.35473193E+02 0.75000000E+00 0.0000E+00 0.9000E+01
#aMCatNLO 2  0  0  5  2 0.74022849D+01 0.00000000D+00  -5  6  0 0.00000000D+00 0.00000000D+00 0.00000000D+00 0.00000000D+00 0.00000000D+00
  <mgrwgt>
 -.4113892485D+00    2    2    0
 0.134661012584282D+03 0.000000000000000D+00 0.000000000000000D+00 0.134661012584282D+03
 0.134661012584282D+03 -.000000000000000D+00 -.000000000000000D+00 -.134661012584282D+03
 0.139110992464629D+03 -.516524767137195D+02 -.542823733594188D+01 -.320846398336868D+02
 0.109230620528329D+03 0.474637987400874D+02 -.150655229238419D+02 0.337089742530889D+02
 0.209804121756065D+02 0.418867797363217D+01 0.204937602597837D+02 -.162433441940215D+01
 0.000000000000000D+00 0.000000000000000D+00 0.000000000000000D+00 0.000000000000000D+00
 0.134661012584282D+03 0.000000000000000D+00 0.000000000000000D+00 0.134661012584282D+03
 0.134661012584282D+03 -.000000000000000D+00 -.000000000000000D+00 -.134661012584282D+03
 0.138649225561995D+03 -.503575786006662D+02 0.907253636821797D+00 -.325867905332373D+02
 0.108983002399707D+03 0.484810949194306D+02 -.100882427070539D+02 0.333144752705375D+02
 0.777614931437406D+01 -.160993275212378D+01 -.267417785086364D+01 -.712217575710047D+01
 0.139136478924884D+02 0.348641643335937D+01 0.118551669210957D+02 0.639449101980033D+01
-.815178163199D-04 0.000000000000D+00 0.000000000000D+00 0.290303792965D-04 0.000000000000D+00  6 -2 2 25 23 21 21 4 0.16220563D-02 0.26460077D+00 0.16130301D+05 0.16130301D+05 0.16130301D+05 0.12442416D+01  1  2 13  3  6  5       21 -.208959886455D+00 0.100000000000D+01
-.789701786005D-04 0.000000000000D+00 0.000000000000D+00 0.290303792965D-04 0.000000000000D+00  6 -2 2 25 23 21 21 4 0.16220563D-02 0.26460077D+00 0.16130301D+05 0.16130301D+05 0.16130301D+05 0.12442416D+01  1  2 13  3  6  5       21 -.202429362054D+00 0.100000000000D+01
  </mgrwgt>
  </event>
  <event>
  6     66 -.42934962E-03 0.99091078E+01 0.75467711E-02 0.10602941E+00
       -2 -1    0    0    0  501 0.00000000E+00 0.00000000E+00 0.15240929E+03 0.15240963E+03 0.32000000E+00 0.0000E+00 0.9000E+01
        2 -1    0    0  502    0 -.00000000E+00 -.00000000E+00 -.10251294E+04 0.10251295E+04 0.32000000E+00 0.0000E+00 0.9000E+01
       25  1    1    2    0    0 0.76542106E+01 -.31866166E+03 -.57503068E+03 0.66924519E+03 0.12500000E+03 0.0000E+00 0.9000E+01
       23  1    1    2    0    0 0.10082241E+02 0.33333728E+03 -.32191514E+03 0.47239814E+03 0.91188000E+02 0.0000E+00 0.9000E+01
       21  1    1    2  502  503 -.94581150E+01 -.11264972E+02 0.66566198E+01 0.16162569E+02 0.75000000E+00 0.0000E+00 0.9000E+01
       21  1    1    2  503  501 -.82783361E+01 -.34106455E+01 0.17569089E+02 0.19733189E+02 0.75000000E+00 0.0000E+00 0.9000E+01
#aMCatNLO 2  0  0  5  1 0.62417244D+01 0.00000000D+00  -5  6  0 0.00000000D+00 0.00000000D+00 0.00000000D+00 0.00000000D+00 0.00000000D+00
  <mgrwgt>
 -.1252924883D+01    2    2    0
 0.395271397801662D+03 0.000000000000000D+00 0.000000000000000D+00 0.395271397801662D+03
 0.395271397801662D+03 -.000000000000000D+00 -.000000000000000D+00 -.395271397801662D+03
 0.362132641960389D+03 0.776488127975825D+01 -.318570090294879D+03 -.118185678326248D+03
 0.348306850810780D+03 0.101886921315502D+02 0.333425360800701D+03 0.415467243629834D+02
 0.801033028321538D+02 -.179535734113085D+02 -.148552705058220D+02 0.766389539632643D+02
 0.000000000000000D+00 0.000000000000000D+00 0.000000000000000D+00 0.000000000000000D+00
 0.395271397801662D+03 0.000000000000000D+00 0.000000000000000D+00 0.395271397801662D+03
 0.395271397801662D+03 -.000000000000000D+00 -.000000000000000D+00 -.395271397801662D+03
 0.362060097065694D+03 0.765879764631183D+01 -.318657866752244D+03 -.117732835958119D+03
 0.348275295974500D+03 0.100866530456236D+02 0.333340930910958D+03 0.419823016505587D+02
 0.309739359417133D+02 -.931962748608411D+01 -.110932264600875D+02 0.273764420249819D+02
 0.492334666214163D+02 -.842582320585134D+01 -.358983769862667D+01 0.483740922825780D+02
-.844170916484D-02 0.000000000000D+00 0.000000000000D+00 0.125264846307D-04 0.000000000000D+00  6 -2 2 25 23 21 21 4 0.23447613D-01 0.15771225D+00 0.12665284D+06 0.12665284D+06 0.12665284D+06 0.11542613D+01  1  2 13  3  6  5       21 -.603626205545D+00 0.100000000000D+01
-.908043842811D-02 0.000000000000D+00 0.000000000000D+00 0.125264846307D-04 0.000000000000D+00  6 -2 2 25 23 21 21 4 0.23447613D-01 0.15771225D+00 0.12665284D+06 0.12665284D+06 0.12665284D+06 0.11542613D+01  1  2 13  3  6  5       21 -.649298677083D+00 0.100000000000D+01
  </mgrwgt>
  </event>
  <event>
  5     66 0.42934962E-03 0.21169744E+02 0.75467711E-02 0.11145304E+00
       -2 -1    0    0    0  501 0.00000000E+00 0.00000000E+00 0.80601733E+02 0.80602369E+02 0.32000000E+00 0.0000E+00 0.9000E+01
        2 -1    0    0  502    0 -.00000000E+00 -.00000000E+00 -.88838489E+03 0.88838495E+03 0.32000000E+00 0.0000E+00 0.9000E+01
       25  1    1    2    0    0 -.21064130E+03 -.69332174E+02 -.25225042E+03 0.35837408E+03 0.12500000E+03 0.0000E+00 0.9000E+01
       23  1    1    2    0    0 0.19008611E+03 0.64281828E+02 -.42887597E+03 0.48219782E+03 0.91188000E+02 0.0000E+00 0.9000E+01
       21  1    1    2  502  501 0.20555192E+02 0.50503460E+01 -.12665676E+03 0.12841542E+03 0.75000000E+00 0.0000E+00 0.9000E+01
#aMCatNLO 1  0  0  5  2 0.10708154D+01 0.00000000D+00  -5  6  0 0.00000000D+00 0.00000000D+00 0.00000000D+00 0.00000000D+00 0.00000000D+00
  <mgrwgt>
 0.5921321400D+00   20    2    0
 0.267592410430064D+03 0.000000000000000D+00 0.000000000000000D+00 0.267592410430064D+03
 0.267592410430064D+03 -.000000000000000D+00 -.000000000000000D+00 -.267592410430064D+03
 0.268127113933945D+03 -.210642996261363D+03 -.693325902444756D+02 0.842001738868387D+02
 0.225723515474365D+03 0.190084681447101D+03 0.642814768694697D+02 -.486986622479514D+02
 0.413341914518178D+02 0.205583148142621D+02 0.505111337500586D+01 -.355015116388875D+02
 0.000000000000000D+00 0.000000000000000D+00 0.000000000000000D+00 -.000000000000000D+00
 0.267592410430064D+03 0.000000000000000D+00 0.000000000000000D+00 0.267592410430064D+03
 0.267592410430064D+03 -.000000000000000D+00 -.000000000000000D+00 -.267592410430064D+03
 0.267835141152607D+03 -.210433035383837D+03 -.692810035163669D+02 0.838375990063331D+02
 0.225950988281040D+03 0.190261622965397D+03 0.643249508447315D+02 -.490042170284837D+02
 0.110636252620530D+01 0.959518856204430D+00 -.528048152587183D+00 0.156610192928046D+00
 0.402923289002759D+02 0.192118935622363D+02 0.548410082422259D+01 -.349899921707775D+02
0.153898751626D-02 0.000000000000D+00 0.000000000000D+00 0.166009024141D-04 0.000000000000D+00  6 -2 2 25 23 21 21 2 0.12400320D-01 0.13667465D+00 0.61538908D+05 0.61538908D+05 0.61538908D+05 0.11834527D+01  1  2  2  3  6  5       21 0.312311805008D+00 0.100000000000D+01
0.507463522593D-03 0.812146024781D-04 -.591011728715D-05 0.166009024141D-04 0.000000000000D+00  6 -2 2 25 23 21 21 4 0.12400320D-01 0.13667465D+00 0.61538908D+05 0.61538908D+05 0.61538908D+05 0.11834527D+01  1  2  3  3  6  5       21 0.144231430362D+00 0.100000000000D+01
0.156405213511D-04 0.000000000000D+00 0.000000000000D+00 0.166009024141D-04 0.000000000000D+00  6 -2 2 25 23 21 21 4 0.12400320D-01 0.13667465D+00 0.61538908D+05 0.61538908D+05 0.61538908D+05 0.11834527D+01  1  2 15  3  6  5       21 0.444535353901D-02 0.100000000000D+01
0.103117096424D-09 0.000000000000D+00 0.000000000000D+00 0.166014620323D-04 0.000000000000D+00  6 -2 2 25 23 21 21 4 0.12400320D-01 0.13667465D+00 0.61509713D+05 0.61509713D+05 0.61509713D+05 0.11834726D+01  1  2 12  3  6  5       21 0.293099341858D-07 0.100000000000D+01
0.639508905591D-10 0.000000000000D+00 0.000000000000D+00 0.166014620323D-04 0.000000000000D+00  6 -2 2 25 23 21 21 4 0.12400320D-01 0.13667465D+00 0.61509713D+05 0.61509713D+05 0.61509713D+05 0.11834726D+01  1  2 12  3  6  5       21 0.181773581531D-07 0.100000000000D+01
-.819305554318D-03 0.000000000000D+00 0.000000000000D+00 0.166009024141D-04 0.000000000000D+00  6 -2 2 25 23 21 21 4 0.12400320D-01 0.13667465D+00 0.61538908D+05 0.61538908D+05 0.61538908D+05 0.11834527D+01  1  2  4  3  6  5       21 -.232863263548D+00 0.100000000000D+01
-.657018363752D-05 0.000000000000D+00 0.000000000000D+00 0.166009024141D-04 0.000000000000D+00  6 -2 2 25 23 21 21 4 0.12400320D-01 0.13667465D+00 0.61538908D+05 0.61538908D+05 0.61538908D+05 0.11834527D+01  1  2  5  3  6  5       21 -.186737950924D-02 0.100000000000D+01
0.150336235928D-02 0.000000000000D+00 -.000000000000D+00 0.166009024141D-04 0.000000000000D+00  6 -2 2 25 23 21 21 4 0.12400320D-01 0.13667465D+00 0.61538908D+05 0.61538908D+05 0.61538908D+05 0.11834527D+01  1  2  6  3  6  5       21 0.427286088118D+00 0.100000000000D+01
0.495786012612D-09 0.000000000000D+00 0.000000000000D+00 0.166014620323D-04 0.000000000000D+00  6 -2 2 25 23 1 -1 4 0.12400320D-01 0.13667465D+00 0.61509713D+05 0.61509713D+05 0.61509713D+05 0.11834726D+01  1  2 12  6  6  5       21 0.140921883022D-06 0.100000000000D+01
0.495786012612D-09 0.000000000000D+00 0.000000000000D+00 0.166014620323D-04 0.000000000000D+00  6 -2 2 25 23 3 -3 4 0.12400320D-01 0.13667465D+00 0.61509713D+05 0.61509713D+05 0.61509713D+05 0.11834726D+01  1  2 12  6  6  5       21 0.140921883022D-06 0.100000000000D+01
0.475915177859D-09 0.000000000000D+00 0.000000000000D+00 0.166014620323D-04 0.000000000000D+00  6 -2 2 25 23 1 -1 4 0.12400320D-01 0.13667465D+00 0.61509713D+05 0.61509713D+05 0.61509713D+05 0.11834726D+01  1  2 12  6  6  5       21 0.135273810307D-06 0.100000000000D+01
0.475915177859D-09 0.000000000000D+00 0.000000000000D+00 0.166014620323D-04 0.000000000000D+00  6 -2 2 25 23 3 -3 4 0.12400320D-01 0.13667465D+00 0.61509713D+05 0.61509713D+05 0.61509713D+05 0.11834726D+01  1  2 12  6  6  5       21 0.135273810307D-06 0.100000000000D+01
-.540188790872D-04 0.000000000000D+00 0.000000000000D+00 0.166009024141D-04 0.000000000000D+00  6 -2 2 25 23 1 -1 4 0.12400320D-01 0.13667465D+00 0.61538908D+05 0.61538908D+05 0.61538908D+05 0.11834527D+01  1  2  5  6  6  5       21 -.153532615654D-01 0.100000000000D+01
-.540188790872D-04 0.000000000000D+00 0.000000000000D+00 0.166009024141D-04 0.000000000000D+00  6 -2 2 25 23 3 -3 4 0.12400320D-01 0.13667465D+00 0.61538908D+05 0.61538908D+05 0.61538908D+05 0.11834527D+01  1  2  5  6  6  5       21 -.153532615654D-01 0.100000000000D+01
0.495786012612D-09 0.000000000000D+00 0.000000000000D+00 0.166014620323D-04 0.000000000000D+00  6 -2 2 25 23 2 -2 4 0.12400320D-01 0.13667465D+00 0.61509713D+05 0.61509713D+05 0.61509713D+05 0.11834726D+01  1  2 12  7  6  5       21 0.140921883022D-06 0.100000000000D+01
0.475915177859D-09 0.000000000000D+00 0.000000000000D+00 0.166014620323D-04 0.000000000000D+00  6 -2 2 25 23 2 -2 4 0.12400320D-01 0.13667465D+00 0.61509713D+05 0.61509713D+05 0.61509713D+05 0.11834726D+01  1  2 12  7  6  5       21 0.135273810307D-06 0.100000000000D+01
-.540188790872D-04 0.000000000000D+00 0.000000000000D+00 0.166009024141D-04 0.000000000000D+00  6 -2 2 25 23 2 -2 4 0.12400320D-01 0.13667465D+00 0.61538908D+05 0.61538908D+05 0.61538908D+05 0.11834527D+01  1  2  5  7  6  5       21 -.153532615654D-01 0.100000000000D+01
0.495786012612D-09 0.000000000000D+00 0.000000000000D+00 0.166014620323D-04 0.000000000000D+00  6 -2 2 25 23 4 -4 4 0.12400320D-01 0.13667465D+00 0.61509713D+05 0.61509713D+05 0.61509713D+05 0.11834726D+01  1  2 12  8  6  5       21 0.140921883022D-06 0.100000000000D+01
0.475915177859D-09 0.000000000000D+00 0.000000000000D+00 0.166014620323D-04 0.000000000000D+00  6 -2 2 25 23 4 -4 4 0.12400320D-01 0.13667465D+00 0.61509713D+05 0.61509713D+05 0.61509713D+05 0.11834726D+01  1  2 12  8  6  5       21 0.135273810307D-06 0.100000000000D+01
-.540188790872D-04 0.000000000000D+00 0.000000000000D+00 0.166009024141D-04 0.000000000000D+00  6 -2 2 25 23 4 -4 4 0.12400320D-01 0.13667465D+00 0.61538908D+05 0.61538908D+05 0.61538908D+05 0.11834527D+01  1  2  5  8  6  5       21 -.153532615654D-01 0.100000000000D+01
  </mgrwgt>
  </event>
  <event>
  5     66 0.42934962E-03 0.12082930E+03 0.75467711E-02 0.10297370E+00
       -2 -1    0    0    0  501 0.00000000E+00 0.00000000E+00 0.29861980E+02 0.29863694E+02 0.32000000E+00 0.0000E+00 0.9000E+01
        2 -1    0    0  502    0 0.00000000E+00 0.00000000E+00 -.25811714E+04 0.25811715E+04 0.32000000E+00 0.0000E+00 0.9000E+01
       25  1    1    2    0    0 -.20604472E+03 -.29295962E+02 -.11931269E+04 0.12175753E+04 0.12500000E+03 0.0000E+00 0.9000E+01
       23  1    1    2    0    0 0.10949226E+03 -.43347192E+02 -.38499812E+03 0.41280302E+03 0.91188000E+02 0.0000E+00 0.9000E+01
       21  1    1    2  502  501 0.96552459E+02 0.72643154E+02 -.97318442E+03 0.98065686E+03 0.75000000E+00 0.0000E+00 0.9000E+01
#aMCatNLO 1  0  0  2  5 0.37585850D+02 0.00000000D+00  -5  6  0 0.00000000D+00 0.00000000D+00 0.00000000D+00 0.00000000D+00 0.00000000D+00
  <mgrwgt>
 0.3367359510D-01    6    4    0
 0.277634929181047D+03 0.000000000000000D+00 0.000000000000000D+00 0.277634929181047D+03
 0.277634929181047D+03 0.000000000000000D+00 0.000000000000000D+00 -.277634929181047D+03
 0.243298139762349D+03 -.206045328090263D+03 -.292964203829236D+02 -.160008542504065D+02
 0.172157456912667D+03 0.109491830062417D+03 -.433475159796290D+02 0.863450672280430D+02
 0.139814261687078D+03 0.965534980278455D+02 0.726439363625526D+02 -.703442129776365D+02
 0.000000000000000D+00 -.000000000000000D+00 -.000000000000000D+00 -.000000000000000D+00
 0.451276286374588D+03 0.000000000000000D+00 0.000000000000000D+00 0.451276286374588D+03
 0.464708748856592D+03 0.000000000000000D+00 0.000000000000000D+00 -.464708748856592D+03
 0.175512592795986D+03 -.119424412148832D+03 0.257187222881035D+02 -.160008542504065D+02
 0.230216161099258D+03 0.192713124631332D+03 0.950844085500176D+01 0.863450672280430D+02
 0.220467485781897D+03 0.171069102659336D+03 0.119970688515476D+03 -.703442129776365D+02
 0.289788795554040D+03 -.244357815141836D+03 -.155197851658581D+03 -.134324624820044D+02
 0.277634929181047D+03 0.000000000000000D+00 0.000000000000000D+00 0.277634929181047D+03
 0.277634929181047D+03 0.000000000000000D+00 0.000000000000000D+00 -.277634929181047D+03
 0.243298139762349D+03 -.206045328090263D+03 -.292964203829236D+02 -.160008542504065D+02
 0.172157456912667D+03 0.109491830062417D+03 -.433475159796290D+02 0.863450672280430D+02
 0.000000000000000D+00 -.000000000000000D+00 -.000000000000000D+00 -.000000000000000D+00
 0.139814261687078D+03 0.965534980278455D+02 0.726439363625526D+02 -.703442129776365D+02
 0.451276286374588D+03 0.000000000000000D+00 0.000000000000000D+00 0.451276286374588D+03
 0.464708748856592D+03 0.000000000000000D+00 0.000000000000000D+00 -.464708748856592D+03
 0.175512592795986D+03 -.119424412148832D+03 0.257187222881035D+02 -.160008542504065D+02
 0.230216161099258D+03 0.192713124631332D+03 0.950844085500176D+01 0.863450672280430D+02
 0.289788795554040D+03 -.244357815141836D+03 -.155197851658581D+03 -.134324624820044D+02
 0.220467485781897D+03 0.171069102659336D+03 0.119970688515476D+03 -.703442129776365D+02
0.149139257725D-03 0.000000000000D+00 0.000000000000D+00 0.631747806768D-06 0.000000000000D+00  6 -2 2 25 23 21 21 2 0.45942842D-02 0.39710343D+00 0.65674147D+05 0.65674147D+05 0.65674147D+05 0.11807286D+01  1  2  2  2  6  2        2 0.168025755782D-01 0.100000000000D+01
-.691407554332D-05 0.787029485431D-05 -.572734018934D-06 0.631747806768D-06 0.000000000000D+00  6 -2 2 25 23 21 21 4 0.45942842D-02 0.39710343D+00 0.65674147D+05 0.65674147D+05 0.65674147D+05 0.11807286D+01  1  2  3  2  6  2        2 -.108597078007D-02 0.100000000000D+01
0.630478225774D-05 0.000000000000D+00 0.000000000000D+00 0.631747806768D-06 0.000000000000D+00  6 -2 2 25 23 21 21 4 0.45942842D-02 0.39710343D+00 0.65674147D+05 0.65674147D+05 0.65674147D+05 0.11807286D+01  1  2 15  2  6  2        2 0.990271116320D-03 0.100000000000D+01
-.732390728114D-04 0.000000000000D+00 -.750346883353D-04 0.631747806768D-06 0.000000000000D+00  6 -2 2 25 23 21 21 4 0.45942842D-02 0.73085317D+00 0.65674147D+05 0.65674147D+05 0.65674147D+05 0.11807286D+01  1  2  5  2  6  2        2 -.308338906469D-03 0.100000000000D+01
0.109985889840D-03 0.000000000000D+00 0.629537725745D-04 0.631747806768D-06 0.000000000000D+00  6 -2 2 25 23 21 21 4 0.45942842D-02 0.39710343D+00 0.65674147D+05 0.65674147D+05 0.65674147D+05 0.11807286D+01  1  2  6  2  6  2        2 0.172751168016D-01 0.100000000000D+01
-.759586675406D-06 0.000000000000D+00 -.499760022113D-05 0.631747806768D-06 0.000000000000D+00  6 -2 21 25 23 -2 21 4 0.45942842D-02 0.73085317D+00 0.65674147D+05 0.65674147D+05 0.65674147D+05 0.11807286D+01  3  4  5  5  5  2        2 -.587093474311D-07 0.100000000000D+01
  </mgrwgt>
  </event>
  <event>
  6     66 -.42934962E-03 0.87073659E+01 0.75467711E-02 0.12240461E+00
       -2 -1    0    0    0  501 0.00000000E+00 0.00000000E+00 0.10869703E+02 0.10874413E+02 0.32000000E+00 0.0000E+00 0.9000E+01
        2 -1    0    0  502    0 -.00000000E+00 -.00000000E+00 -.30035496E+04 0.30035496E+04 0.32000000E+00 0.0000E+00 0.9000E+01
       25  1    1    2    0    0 -.33219057E+02 -.49632017E+02 -.25089844E+04 0.25128061E+04 0.12500000E+03 0.0000E+00 0.9000E+01
       23  1    1    2    0    0 0.20345079E+02 0.33880507E+02 -.30306714E+03 0.31894632E+03 0.91188000E+02 0.0000E+00 0.9000E+01
       21  1    1    2  502  503 0.14788176E+02 0.42531140E+01 -.92838432E+02 0.94108002E+02 0.75000000E+00 0.0000E+00 0.9000E+01
       21  1    1    2  503  501 -.19141984E+01 0.11498396E+02 -.87789969E+02 0.88563641E+02 0.75000000E+00 0.0000E+00 0.9000E+01
#aMCatNLO 2  0  0  5  2 0.89788344D+01 0.00000000D+00  -5  6  0 0.00000000D+00 0.00000000D+00 0.00000000D+00 0.00000000D+00 0.00000000D+00
  <mgrwgt>
 -.7981433631D-01    3    2    0
 0.180706437346961D+03 0.000000000000000D+00 0.000000000000000D+00 0.180706437346961D+03
 0.180706437346961D+03 -.000000000000000D+00 -.000000000000000D+00 -.180706437346961D+03
 0.184557754568501D+03 -.352992558065625D+02 -.521771721360535D+02 -.120283290688086D+03
 0.149400163149554D+03 0.186459890009729D+02 0.318016444337184D+02 0.112455057292237D+03
 0.274549569758661D+02 0.166532668055896D+02 0.203755277023351D+02 0.782823339584887D+01
 0.000000000000000D+00 0.000000000000000D+00 0.000000000000000D+00 0.000000000000000D+00
 0.180706437346961D+03 0.000000000000000D+00 0.000000000000000D+00 0.180706437346961D+03
 0.180706437346961D+03 -.000000000000000D+00 -.000000000000000D+00 -.180706437346961D+03
 0.182816668879195D+03 -.332067302794771D+02 -.496169350160513D+02 -.119299653158944D+03
 0.150684479905149D+03 0.203552391169317D+02 0.338929382017524D+02 0.113258527806210D+03
 0.155722432169628D+02 0.144092248128964D+02 0.355530726189045D+01 0.471474170800510D+01
 0.123394826926145D+02 -.155773365035101D+01 0.121686895524084D+02 0.132638364472913D+01
-.640737785077D-04 0.000000000000D+00 0.000000000000D+00 0.876728129292D-05 0.000000000000D+00  6 -2 2 25 23 21 21 4 0.16726256D-02 0.46208492D+00 0.17559609D+05 0.17559609D+05 0.17559609D+05 0.12400968D+01  1  2 13  3  6  5       21 -.322879272016D-01 0.100000000000D+01
-.656229393250D-04 0.000000000000D+00 0.000000000000D+00 0.876728129292D-05 0.000000000000D+00  6 -2 2 25 23 21 21 4 0.16726256D-02 0.46208492D+00 0.17559609D+05 0.17559609D+05 0.17559609D+05 0.12400968D+01  1  2 13  3  6  5       21 -.330685771470D-01 0.100000000000D+01
-.286769069789D-04 0.000000000000D+00 0.000000000000D+00 0.876922884447D-05 0.000000000000D+00  6 -2 2 25 23 21 21 4 0.16726256D-02 0.46208492D+00 0.17509892D+05 0.17509892D+05 0.17509892D+05 0.12402345D+01  1  2  8  3  6  5       21 -.144578319654D-01 0.100000000000D+01
  </mgrwgt>
  </event>
  <event>
  6     66 -.42934962E-03 0.14636642E+02 0.75467711E-02 0.11195160E+00
       -2 -1    0    0    0  501 0.00000000E+00 0.00000000E+00 0.91684614E+02 0.91685172E+02 0.32000000E+00 0.0000E+00 0.9000E+01
        2 -1    0    0  502    0 -.00000000E+00 -.00000000E+00 -.63700538E+03 0.63700546E+03 0.32000000E+00 0.0000E+00 0.9000E+01
       25  1    1    2    0    0 0.18939903E+03 -.80659922E+02 -.25387734E+03 0.34993817E+03 0.12500000E+03 0.0000E+00 0.9000E+01
       23  1    1    2    0    0 -.17127649E+03 0.89419601E+02 -.24677614E+03 0.32641265E+03 0.91188000E+02 0.0000E+00 0.9000E+01
       21  1    1    2  502  503 -.18295296E+02 -.24300723E+01 -.21665763E+02 0.28470878E+02 0.75000000E+00 0.0000E+00 0.9000E+01
       21  1    1    2  503  501 0.17275732E+00 -.63296059E+01 -.23001524E+02 0.23868942E+02 0.75000000E+00 0.0000E+00 0.9000E+01
#aMCatNLO 2  0  0  5  2 0.87151038D+01 0.00000000D+00  -5  6  0 0.00000000D+00 0.00000000D+00 0.00000000D+00 0.00000000D+00 0.00000000D+00
  <mgrwgt>
 -.1513683975D+00    3    2    0
 0.241668833733572D+03 0.000000000000000D+00 0.000000000000000D+00 0.241668833733572D+03
 0.241668833733572D+03 -.000000000000000D+00 -.000000000000000D+00 -.241668833733572D+03
 0.242988122014325D+03 0.192230843313365D+03 -.792911432255438D+02 0.133583279293227D+02
 0.212187099620137D+03 -.168785444262543D+03 0.906236700045021D+02 -.263403515867499D+01
 0.281624458326806D+02 -.234453990508222D+02 -.113325267789583D+02 -.107242927706477D+02
 0.000000000000000D+00 0.000000000000000D+00 0.000000000000000D+00 -.000000000000000D+00
 0.241668833733572D+03 0.000000000000000D+00 0.000000000000000D+00 0.241668833733572D+03
 0.241668833733572D+03 -.000000000000000D+00 -.000000000000000D+00 -.241668833733572D+03
 0.241106574505578D+03 0.189347225425363D+03 -.806849636875132D+02 0.120393159388430D+02
 0.213712221302814D+03 -.171322408433253D+03 0.893974074725868D+02 -.379448230893924D+01
 0.179817879882221D+02 -.178671460740997D+02 -.202460801064179D+01 -.103695821489944D+00
 0.105370836705296D+02 -.157670918010152D+00 -.668783577443185D+01 -.814113780841380D+01
-.797594547730D-04 0.000000000000D+00 0.000000000000D+00 0.120192893392D-04 0.000000000000D+00  6 -2 2 25 23 21 21 4 0.14105374D-01 0.98000877D-01 0.57397503D+05 0.57397503D+05 0.57397503D+05 0.11863924D+01  1  2 13  3  6  5       21 -.280924687894D-01 0.100000000000D+01
-.771397079387D-04 0.000000000000D+00 0.000000000000D+00 0.120192893392D-04 0.000000000000D+00  6 -2 2 25 23 21 21 4 0.14105374D-01 0.98000877D-01 0.57397503D+05 0.57397503D+05 0.57397503D+05 0.11863924D+01  1  2 13  3  6  5       21 -.271697549069D-01 0.100000000000D+01
-.273122045429D-03 0.000000000000D+00 0.000000000000D+00 0.120132970440D-04 0.000000000000D+00  6 -2 2 25 23 21 21 4 0.14105374D-01 0.98000877D-01 0.57799855D+05 0.57799855D+05 0.57799855D+05 0.11860967D+01  1  2  8  3  6  5       21 -.961061738489D-01 0.100000000000D+01
  </mgrwgt>
  </event>
  <event>
  6     66 0.42934962E-03 0.41355680E+02 0.75467711E-02 0.11945947E+00
       -2 -1    0    0    0  501 0.00000000E+00 0.00000000E+00 0.47689943E+02 0.47691016E+02 0.32000000E+00 0.0000E+00 0.9000E+01
        2 -1    0    0  502    0 -.00000000E+00 -.00000000E+00 -.64210042E+03 0.64210050E+03 0.32000000E+00 0.0000E+00 0.9000E+01
       25  1    1    2    0    0 0.48806271E+02 -.29301443E+02 -.11468765E+03 0.17893821E+03 0.12500000E+03 0.0000E+00 0.9000E+01
       23  1    1    2    0    0 -.69535253E+02 -.18721182E+02 -.34527063E+03 0.36429753E+03 0.91188000E+02 0.0000E+00 0.9000E+01
       21  1    1    2  502  503 0.34041817E+01 0.33349748E+02 -.60224342E+02 0.68929878E+02 0.75000000E+00 0.0000E+00 0.9000E+01
       21  1    1    2  503  501 0.17324800E+02 0.14672877E+02 -.74227857E+02 0.77625893E+02 0.75000000E+00 0.0000E+00 0.9000E+01
#aMCatNLO 2  0  0  5  1 0.12824282D+02 0.00000000D+00  -5  6  0 0.00000000D+00 0.00000000D+00 0.00000000D+00 0.00000000D+00 0.00000000D+00
  <mgrwgt>
 0.5509135545D-02    3    2    0
 0.174991799423206D+03 0.000000000000000D+00 0.000000000000000D+00 0.174991799423206D+03
 0.174991799423206D+03 -.000000000000000D+00 -.000000000000000D+00 -.174991799423206D+03
 0.158411772616118D+03 0.478096278964506D+02 -.316103560998020D+02 0.786404130903903D+02
 0.132024855975984D+03 -.703659089376253D+02 -.206455546000059D+02 -.611368234873174D+02
 0.595469702543091D+02 0.225562810411748D+02 0.522559106998080D+02 -.175035896030730D+02
 0.000000000000000D+00 0.000000000000000D+00 0.000000000000000D+00 -.000000000000000D+00
 0.174991799423206D+03 0.000000000000000D+00 0.000000000000000D+00 0.174991799423206D+03
 0.174991799423206D+03 -.000000000000000D+00 -.000000000000000D+00 -.174991799423206D+03
 0.157889570816707D+03 0.488049073032640D+02 -.293046022519552D+02 0.778680799985366D+02
 0.131597779657302D+03 -.695363892853592D+02 -.187238147177343D+02 -.617805276304979D+02
 0.329784427538149D+02 0.312826480073022D+01 0.327994507568914D+02 -.140984958396861D+01
 0.275178056185872D+02 0.176032171813650D+02 0.152289662127981D+02 -.146777027840700D+02
-.180153291296D-04 0.000000000000D+00 0.000000000000D+00 0.297961846506D-05 0.000000000000D+00  6 -2 2 25 23 21 21 4 0.73370030D-02 0.98784769D-01 0.23989608D+05 0.23989608D+05 0.23989608D+05 0.12252232D+01  1  2 13  3  6  5       21 -.199421744000D-01 0.100000000000D+01
-.176102214392D-04 0.000000000000D+00 0.000000000000D+00 0.297961846506D-05 0.000000000000D+00  6 -2 2 25 23 21 21 4 0.73370030D-02 0.98784769D-01 0.23989608D+05 0.23989608D+05 0.23989608D+05 0.12252232D+01  1  2 13  3  6  5       21 -.194937380626D-01 0.100000000000D+01
0.406023844920D-04 0.000000000000D+00 0.000000000000D+00 0.297716650899D-05 0.120761333313D-06  6 -2 2 25 23 21 21 4 0.73370030D-02 0.98784769D-01 0.23989608D+05 0.23989608D+05 0.23989608D+05 0.12252232D+01  1  2  1  3  6  5       21 0.449450480074D-01 0.100000000000D+01
  </mgrwgt>
  </event>
  <event>
  6     66 -.42934962E-03 0.37369484E+02 0.75467711E-02 0.12077062E+00
       -2 -1    0    0    0  501 0.00000000E+00 0.00000000E+00 0.15820514E+03 0.15820546E+03 0.32000000E+00 0.0000E+00 0.9000E+01
        2 -1    0    0  503    0 0.00000000E+00 0.00000000E+00 -.23122716E+03 0.23122738E+03 0.32000000E+00 0.0000E+00 0.9000E+01
       25  1    1    2    0    0 -.72798848E+02 0.55559544E+01 -.26847729E+02 0.14722887E+03 0.12500000E+03 0.0000E+00 0.9000E+01
       23  1    1    2    0    0 0.27370650E+02 -.70784010E+01 -.11662926E+03 0.15072124E+03 0.91188000E+02 0.0000E+00 0.9000E+01
       21  1    1    2  502  501 0.40437862E+02 0.68271075E+01 0.72997811E+02 0.83732151E+02 0.75000000E+00 0.0000E+00 0.9000E+01
       21  1    1    2  503  502 0.49903359E+01 -.53046610E+01 -.25428398E+01 0.77505751E+01 0.75000000E+00 0.0000E+00 0.9000E+01
#aMCatNLO 2  0  0  2  5 0.72830543D+01 0.00000000D+00  -5  6  0 0.00000000D+00 0.00000000D+00 0.00000000D+00 0.00000000D+00 0.00000000D+00
  <mgrwgt>
 -.3161132415D-01    3    2    0
 0.187523993936616D+03 0.000000000000000D+00 0.000000000000000D+00 0.187523993936616D+03
 0.187523993936616D+03 0.000000000000000D+00 0.000000000000000D+00 -.187523993936616D+03
 0.143740976522962D+03 -.708801052524030D+02 0.351581205092076D+01 0.343623057204709D+00
 0.131935183063417D+03 0.291223167367540D+02 -.894089843635485D+01 -.903525992377210D+02
 0.993718282868532D+02 0.417577885156490D+02 0.542508638543408D+01 0.900089761805163D+02
 0.000000000000000D+00 0.000000000000000D+00 -.000000000000000D+00 -.000000000000000D+00
 0.190679021013635D+03 0.000000000000000D+00 0.000000000000000D+00 0.190679021013635D+03
 0.191810024286965D+03 0.000000000000000D+00 0.000000000000000D+00 -.191810024286965D+03
 0.144760924350081D+03 -.727993072455542D+02 0.555589834786125D+01 0.343623057204709D+00
 0.131446099814885D+03 0.273702247001709D+02 -.707844780970514D+01 -.903525992377210D+02
 0.989116718342857D+02 0.404387466393567D+02 0.682721042788379D+01 0.900089761805163D+02
 0.737034930134852D+01 0.499033590602666D+01 -.530466096603990D+01 -.113100327332959D+01
-.727364846788D-04 0.000000000000D+00 0.000000000000D+00 0.811972680548D-05 0.000000000000D+00  6 -2 2 25 23 21 21 4 0.23934187D-01 0.36139800D-01 0.20811581D+05 0.20811581D+05 0.20811581D+05 0.12319287D+01  1  2 13  2  6  2        2 -.358572451359D-01 0.100000000000D+01
-.105394651491D-03 0.000000000000D+00 0.000000000000D+00 0.814856423641D-05 0.000000000000D+00  6 -2 2 25 23 21 21 4 0.23934187D-01 0.34775093D-01 0.19879783D+05 0.19879783D+05 0.19879783D+05 0.12341144D+01  1  2  8  2  6  2        2 -.544817298158D-01 0.100000000000D+01
0.120565892950D-03 0.000000000000D+00 0.000000000000D+00 0.814856423641D-05 0.765021703000D-06  6 -2 2 25 23 21 21 4 0.24336871D-01 0.35569909D-01 0.20811581D+05 0.20811581D+05 0.20811581D+05 0.12319287D+01  1  2  1  2  6  2        2 0.587276507996D-01 0.100000000000D+01
  </mgrwgt>
  </event>
  <event>
  5     66 0.42934962E-03 0.24365185E+02 0.75467711E-02 0.12067560E+00
       -2 -1    0    0    0  501 0.00000000E+00 0.00000000E+00 0.15019644E+02 0.15023053E+02 0.32000000E+00 0.0000E+00 0.9000E+01
        2 -1    0    0  502    0 -.00000000E+00 -.00000000E+00 -.20975719E+04 0.20975719E+04 0.32000000E+00 0.0000E+00 0.9000E+01
       25  1    1    2    0    0 0.13128582E+02 -.63331558E+02 -.62611102E+03 0.64173457E+03 0.12500000E+03 0.0000E+00 0.9000E+01
       23  1    1    2    0    0 -.25905575E+01 0.85299048E+02 -.54635326E+03 0.56044605E+03 0.91188000E+02 0.0000E+00 0.9000E+01
       21  1    1    2  502  501 -.10538024E+02 -.21967490E+02 -.91008797E+03 0.91041435E+03 0.75000000E+00 0.0000E+00 0.9000E+01
#aMCatNLO 1  0  0  5  1 0.59212131D+01 0.00000000D+00  -5  6  0 0.00000000D+00 0.00000000D+00 0.00000000D+00 0.00000000D+00 0.00000000D+00
  <mgrwgt>
 0.1595668866D+00    9    2    0
 0.177506083772070D+03 0.000000000000000D+00 0.000000000000000D+00 0.177506083772070D+03
 0.177506083772070D+03 -.000000000000000D+00 -.000000000000000D+00 -.177506083772070D+03
 0.145956635522560D+03 0.131287774018001D+02 -.633311503666360D+02 0.386670408777018D+02
 0.130098363543938D+03 -.259038329302457D+01 0.852994108731873D+02 0.364367022642421D+02
 0.789571684776414D+02 -.105383941087755D+02 -.219682605065513D+02 -.751037431419438D+02
 0.000000000000000D+00 0.000000000000000D+00 0.000000000000000D+00 0.000000000000000D+00
 0.177506083772070D+03 0.000000000000000D+00 0.000000000000000D+00 0.177506083772070D+03
 0.177506083772070D+03 -.000000000000000D+00 -.000000000000000D+00 -.177506083772070D+03
 0.145574105690992D+03 0.127467416078600D+02 -.641275394328899D+02 0.359443947284927D+02
 0.128983519793874D+03 -.292989655527760D+01 0.845916639704222D+02 0.340171005129371D+02
 0.596300547500087D+01 0.267144100586488D+01 -.500696180856766D+01 0.183062030323586D+01
 0.744915365842720D+02 -.124882860584473D+02 -.154571627289647D+02 -.717921155446657D+02
0.230433883628D-03 0.000000000000D+00 0.000000000000D+00 0.239136880336D-04 0.000000000000D+00  6 -2 2 25 23 21 21 2 0.23109786D-02 0.32270363D+00 0.21024789D+05 0.21024789D+05 0.21024789D+05 0.12314440D+01  1  2  2  3  6  5       21 0.143782267145D+00 0.100000000000D+01
0.347058917809D-04 0.121603301253D-04 -.884926787768D-06 0.239136880336D-04 0.000000000000D+00  6 -2 2 25 23 21 21 4 0.23109786D-02 0.32270363D+00 0.21024789D+05 0.21024789D+05 0.21024789D+05 0.12314440D+01  1  2  3  3  6  5       21 0.328391222262D-01 0.100000000000D+01
0.521795577117D-05 0.000000000000D+00 0.000000000000D+00 0.239136880336D-04 0.000000000000D+00  6 -2 2 25 23 21 21 4 0.23109786D-02 0.32270363D+00 0.21024789D+05 0.21024789D+05 0.21024789D+05 0.12314440D+01  1  2 15  3  6  5       21 0.493729100587D-02 0.100000000000D+01
0.381125052344D-05 0.000000000000D+00 0.000000000000D+00 0.239005831920D-04 0.000000000000D+00  6 -2 2 25 23 21 21 4 0.23109786D-02 0.32270363D+00 0.21174670D+05 0.21174670D+05 0.21174670D+05 0.12311065D+01  1  2 12  3  6  5       21 0.360236998704D-02 0.100000000000D+01
-.378059969231D-04 0.000000000000D+00 0.000000000000D+00 0.239136880336D-04 0.000000000000D+00  6 -2 2 25 23 21 21 4 0.23109786D-02 0.32270363D+00 0.21024789D+05 0.21024789D+05 0.21024789D+05 0.12314440D+01  1  2  4  3  6  5       21 -.357724781049D-01 0.100000000000D+01
0.269212393681D-05 0.000000000000D+00 0.000000000000D+00 0.239005831920D-04 0.000000000000D+00  6 -2 2 25 23 1 -1 4 0.23109786D-02 0.32270363D+00 0.21174670D+05 0.21174670D+05 0.21174670D+05 0.12311065D+01  1  2 12  6  6  5       21 0.254457858693D-02 0.100000000000D+01
0.269212393681D-05 0.000000000000D+00 0.000000000000D+00 0.239005831920D-04 0.000000000000D+00  6 -2 2 25 23 3 -3 4 0.23109786D-02 0.32270363D+00 0.21174670D+05 0.21174670D+05 0.21174670D+05 0.12311065D+01  1  2 12  6  6  5       21 0.254457858693D-02 0.100000000000D+01
0.269212393681D-05 0.000000000000D+00 0.000000000000D+00 0.239005831920D-04 0.000000000000D+00  6 -2 2 25 23 2 -2 4 0.23109786D-02 0.32270363D+00 0.21174670D+05 0.21174670D+05 0.21174670D+05 0.12311065D+01  1  2 12  7  6  5       21 0.254457858693D-02 0.100000000000D+01
0.269212393681D-05 0.000000000000D+00 0.000000000000D+00 0.239005831920D-04 0.000000000000D+00  6 -2 2 25 23 4 -4 4 0.23109786D-02 0.32270363D+00 0.21174670D+05 0.21174670D+05 0.21174670D+05 0.12311065D+01  1  2 12  8  6  5       21 0.254457858693D-02 0.100000000000D+01
  </mgrwgt>
  </event>
  <event>
  6     66 0.42934962E-03 0.25837370E+02 0.75467711E-02 0.12197762E+00
       -2 -1    0    0    0  501 0.00000000E+00 0.00000000E+00 0.25369623E+03 0.25369644E+03 0.32000000E+00 0.0000E+00 0.9000E+01
        2 -1    0    0  502    0 0.00000000E+00 0.00000000E+00 -.80749740E+02 0.80750374E+02 0.32000000E+00 0.0000E+00 0.9000E+01
       25  1    1    2    0    0 -.99287511E+01 -.60819413E+02 0.47947399E+02 0.14738227E+03 0.12500000E+03 0.0000E+00 0.9000E+01
       23  1    1    2    0    0 -.97696748E+01 0.35077818E+02 0.11147574E+03 0.14855299E+03 0.91188000E+02 0.0000E+00 0.9000E+01
       21  1    1    2  502  503 0.19089699E+02 0.21165674E+02 0.16524290E+02 0.32954772E+02 0.75000000E+00 0.0000E+00 0.9000E+01
       21  1    1    2  503  501 0.60872664E+00 0.45759210E+01 -.30009346E+01 0.55567715E+01 0.75000000E+00 0.0000E+00 0.9000E+01
#aMCatNLO 2  0  0  5  1 0.64137994D+01 0.00000000D+00  -5  6  0 0.00000000D+00 0.00000000D+00 0.00000000D+00 0.00000000D+00 0.00000000D+00
  <mgrwgt>
 0.1821342445D+00    4    2    0
 0.143129467915032D+03 0.000000000000000D+00 0.000000000000000D+00 0.143129467915032D+03
 0.143129467915032D+03 -.000000000000000D+00 -.000000000000000D+00 -.143129467915032D+03
 0.143805423353760D+03 -.109927138483445D+02 -.622097827462469D+02 -.326205910257208D+02
 0.106065317348043D+03 -.105565402884011D+02 0.340495541580361D+02 0.407895515900762D+02
 0.363881951282600D+02 0.215492541367456D+02 0.281602285882107D+02 -.816896056435544D+01
 0.000000000000000D+00 0.000000000000000D+00 0.000000000000000D+00 -.000000000000000D+00
 0.143129467915032D+03 0.000000000000000D+00 0.000000000000000D+00 0.143129467915032D+03
 0.143129467915032D+03 -.000000000000000D+00 -.000000000000000D+00 -.143129467915032D+03
 0.143214669920898D+03 -.991106508716758D+01 -.607963010464344D+02 -.330306259168807D+02
 0.106213170870097D+03 -.975655879168428D+01 0.350949574778416D+02 0.404862920314194D+02
 0.282544953150659D+02 0.189877738540464D+02 0.209199783593267D+02 -.368042147005215D+00
 0.857659972400272D+01 0.679850024805446D+00 0.478136520926618D+01 -.708762396753344D+01
-.117819675243D-03 0.000000000000D+00 0.000000000000D+00 0.100139633478D-04 0.000000000000D+00  6 -2 2 25 23 21 21 4 0.39030254D-01 0.12423101D-01 0.18310057D+05 0.18310057D+05 0.18310057D+05 0.12380694D+01  1  2 13  3  6  5       21 -.813760754518D-01 0.100000000000D+01
-.114440575938D-03 0.000000000000D+00 0.000000000000D+00 0.100139633478D-04 0.000000000000D+00  6 -2 2 25 23 21 21 4 0.39030254D-01 0.12423101D-01 0.18310057D+05 0.18310057D+05 0.18310057D+05 0.12380694D+01  1  2 13  3  6  5       21 -.790421881839D-01 0.100000000000D+01
-.161868912948D-03 0.000000000000D+00 0.000000000000D+00 0.999792438116D-05 0.000000000000D+00  6 -2 2 25 23 21 21 4 0.39030254D-01 0.12423101D-01 0.18690254D+05 0.18690254D+05 0.18690254D+05 0.12370776D+01  1  2  8  3  6  5       21 -.111506101157D+00 0.100000000000D+01
0.657404987724D-03 0.000000000000D+00 0.000000000000D+00 0.999792438116D-05 0.468316297457D-05  6 -2 2 25 23 21 21 4 0.39030254D-01 0.12423101D-01 0.18310057D+05 0.18310057D+05 0.18310057D+05 0.12380694D+01  1  2  1  3  6  5       21 0.454058609253D+00 0.100000000000D+01
  </mgrwgt>
  </event>
  <event>
  5     66 0.42934962E-03 0.21762855E+02 0.75467711E-02 0.12047343E+00
       -2 -1    0    0    0  501 0.00000000E+00 0.00000000E+00 0.14503310E+02 0.14506840E+02 0.32000000E+00 0.0000E+00 0.9000E+01
        2 -1    0    0  502    0 0.00000000E+00 0.00000000E+00 -.14526000E+04 0.14526001E+04 0.32000000E+00 0.0000E+00 0.9000E+01
       25  1    1    2    0    0 0.34528637E+02 0.69186103E+02 -.75514743E+03 0.76931891E+03 0.12500000E+03 0.0000E+00 0.9000E+01
       23  1    1    2    0    0 -.14928968E+02 -.78617960E+02 -.58565806E+03 0.59809220E+03 0.91188000E+02 0.0000E+00 0.9000E+01
       21  1    1    2  502  501 -.19599669E+02 0.94318570E+01 -.97291233E+02 0.99695804E+02 0.75000000E+00 0.0000E+00 0.9000E+01
#aMCatNLO 1  0  0  2  1 0.30837954D+01 0.00000000D+00  -5  6  0 0.00000000D+00 0.00000000D+00 0.00000000D+00 0.00000000D+00 0.00000000D+00
  <mgrwgt>
 0.4386283240D+00    9    4    0
 0.145155515680086D+03 0.000000000000000D+00 0.000000000000000D+00 0.145155515680086D+03
 0.145155515680086D+03 0.000000000000000D+00 0.000000000000000D+00 -.145155515680086D+03
 0.147076957862032D+03 0.345344795161163D+02 0.691832913043991D+02 -.526055727006101D+01
 0.121361259684691D+03 -.149241478788008D+02 -.786202794718754D+02 0.307009350199050D+01
 0.218728138134492D+02 -.196103316373154D+02 0.943698816747632D+01 0.219046376807052D+01
 0.000000000000000D+00 0.000000000000000D+00 0.000000000000000D+00 -.000000000000000D+00
 0.146128269445720D+03 0.000000000000000D+00 0.000000000000000D+00 0.146128269445720D+03
 0.147628493823831D+03 0.000000000000000D+00 0.000000000000000D+00 -.147628493823831D+03
 0.146287735131535D+03 0.335253667648164D+02 0.679961599680979D+02 -.526055727006101D+01
 0.122107089682785D+03 -.157616277178966D+02 -.796054999630747D+02 0.307009350199050D+01
 0.219325847137960D+02 -.197610129813400D+02 0.925972497755320D+01 0.219046376807052D+01
 0.342935374143496D+01 0.199727393442018D+01 0.234961501742359D+01 -.150022437811057D+01
 0.145155515680086D+03 0.000000000000000D+00 0.000000000000000D+00 0.145155515680086D+03
 0.145155515680086D+03 0.000000000000000D+00 0.000000000000000D+00 -.145155515680086D+03
 0.147076957862032D+03 0.345344795161163D+02 0.691832913043991D+02 -.526055727006101D+01
 0.121361259684691D+03 -.149241478788008D+02 -.786202794718754D+02 0.307009350199050D+01
 0.000000000000000D+00 0.000000000000000D+00 0.000000000000000D+00 -.000000000000000D+00
 0.218728138134492D+02 -.196103316373154D+02 0.943698816747632D+01 0.219046376807052D+01
 0.146128269445720D+03 0.000000000000000D+00 0.000000000000000D+00 0.146128269445720D+03
 0.147628493823831D+03 0.000000000000000D+00 0.000000000000000D+00 -.147628493823831D+03
 0.146287735131535D+03 0.335253667648164D+02 0.679961599680979D+02 -.526055727006101D+01
 0.122107089682785D+03 -.157616277178966D+02 -.796054999630747D+02 0.307009350199050D+01
 0.342935374143496D+01 0.199727393442018D+01 0.234961501742359D+01 -.150022437811057D+01
 0.219325847137960D+02 -.197610129813400D+02 0.925972497755320D+01 0.219046376807052D+01
0.466372416855D-04 0.000000000000D+00 0.000000000000D+00 0.255420035050D-04 0.000000000000D+00  6 -2 2 25 23 21 21 2 0.22315527D-02 0.22347720D+00 0.21034879D+05 0.21034879D+05 0.21034879D+05 0.12314212D+01  1  2  2  2  6  2        2 0.658124878563D-01 0.100000000000D+01
0.115972208122D-04 0.246111485906D-05 -.179099287940D-06 0.255420035050D-04 0.000000000000D+00  6 -2 2 25 23 21 21 4 0.22315527D-02 0.22347720D+00 0.21034879D+05 0.21034879D+05 0.21034879D+05 0.12314212D+01  1  2  3  2  6  2        2 0.248166204177D-01 0.100000000000D+01
0.160799135740D-05 0.000000000000D+00 0.000000000000D+00 0.255420035050D-04 0.000000000000D+00  6 -2 2 25 23 21 21 4 0.22315527D-02 0.22347720D+00 0.21034879D+05 0.21034879D+05 0.21034879D+05 0.12314212D+01  1  2 15  2  6  2        2 0.344090293681D-02 0.100000000000D+01
-.174779570420D-03 0.000000000000D+00 0.000000000000D+00 0.255420035050D-04 0.000000000000D+00  6 -2 2 25 23 21 21 4 0.22315527D-02 0.22347720D+00 0.21034879D+05 0.21034879D+05 0.21034879D+05 0.12314212D+01  1  2  4  2  6  2        2 -.374006697478D+00 0.100000000000D+01
-.507818737678D-02 0.000000000000D+00 -.573538606599D-03 0.255420035050D-04 0.000000000000D+00  6 -2 2 25 23 21 21 4 0.22315527D-02 0.22808279D+00 0.21034879D+05 0.21034879D+05 0.21034879D+05 0.12314212D+01  1  2  5  2  6  2        2 -.104807657994D+02 0.100000000000D+01
0.508894758974D-02 0.000000000000D+00 0.573419293901D-03 0.255420035050D-04 0.000000000000D+00  6 -2 2 25 23 21 21 4 0.22315527D-02 0.22347720D+00 0.21034879D+05 0.21034879D+05 0.21034879D+05 0.12314212D+01  1  2  6  2  6  2        2 0.108897194169D+02 0.100000000000D+01
0.160330450818D-03 0.000000000000D+00 0.000000000000D+00 0.255420035050D-04 0.801401341180D-05  6 -2 2 25 23 21 21 4 0.22465073D-02 0.22728453D+00 0.21486917D+05 0.21486917D+05 0.21486917D+05 0.12304120D+01  1  2 11  2  6  2        2 0.328806752680D+00 0.100000000000D+01
-.187552118728D-04 0.000000000000D+00 -.212809608234D-05 0.255420035050D-04 0.000000000000D+00  6 -2 21 25 23 -2 21 4 0.22315527D-02 0.22808279D+00 0.21034879D+05 0.21034879D+05 0.21034879D+05 0.12314212D+01  3  4  5  5  5  2        2 -.200492898533D-01 0.100000000000D+01
0.801119703339D-06 0.000000000000D+00 0.000000000000D+00 0.255420035050D-04 0.769737164741D-07  6 -2 21 25 23 -2 21 4 0.22465073D-02 0.22728453D+00 0.21486917D+05 0.21486917D+05 0.21486917D+05 0.12304120D+01  3  4 11  5  5  2        2 0.853929993965D-03 0.100000000000D+01
  </mgrwgt>
  </event>
  <event>
  5     66 0.42934962E-03 0.25544037E+02 0.75467711E-02 0.11144578E+00
       -2 -1    0    0    0  501 0.00000000E+00 0.00000000E+00 0.25327507E+02 0.25329528E+02 0.32000000E+00 0.0000E+00 0.9000E+01
        2 -1    0    0  502    0 0.00000000E+00 0.00000000E+00 -.15144181E+04 0.15144181E+04 0.32000000E+00 0.0000E+00 0.9000E+01
       25  1    1    2    0    0 0.79040915E+02 -.45169718E+02 -.50507371E+03 0.52821607E+03 0.12500000E+03 0.0000E+00 0.9000E+01
       23  1    1    2    0    0 -.60805648E+02 0.63056589E+02 -.28201795E+03 0.30906769E+03 0.91188000E+02 0.0000E+00 0.9000E+01
       21  1    1    2  502  501 -.18235267E+02 -.17886871E+02 -.70199891E+03 0.70246387E+03 0.75000000E+00 0.0000E+00 0.9000E+01
#aMCatNLO 1  0  0  1  1 0.36330406D+02 0.00000000D+00  -5  6  0 0.00000000D+00 0.00000000D+00 0.00000000D+00 0.00000000D+00 0.00000000D+00
  <mgrwgt>
 0.1391324460D+00    3    2    0
 0.195852027199614D+03 0.000000000000000D+00 0.000000000000000D+00 0.195852027199614D+03
 0.195852027199614D+03 0.000000000000000D+00 0.000000000000000D+00 -.195852027199614D+03
 0.156289020502559D+03 0.790411532451797D+02 -.451694840121007D+02 0.226599147704018D+02
 0.142802113542110D+03 -.608054295812096D+02 0.630568032276432D+02 0.663606177506555D+02
 0.926129203545597D+02 -.182357236639701D+02 -.178873192155425D+02 -.890205325210573D+02
 0.000000000000000D+00 0.000000000000000D+00 -.000000000000000D+00 -.000000000000000D+00
 0.266025374108453D+03 0.000000000000000D+00 0.000000000000000D+00 0.266025374108453D+03
 0.299014100075877D+03 0.000000000000000D+00 0.000000000000000D+00 -.299014100075877D+03
 0.134829805216549D+03 0.281791795427824D+02 -.353063518028459D+02 0.226599147704018D+02
 0.178498011255038D+03 -.116940440629164D+03 0.739424805860083D+02 0.663606177506555D+02
 0.104000033285413D+03 -.525863804890143D+02 -.112260545205749D+02 -.890205325210573D+02
 0.147711624427331D+03 0.141347641575395D+03 -.274100742625876D+02 -.329887259674237D+02
0.188820387403D-03 0.000000000000D+00 0.000000000000D+00 0.203164779871D-04 0.000000000000D+00  6 -2 2 25 23 21 21 2 0.38966976D-02 0.23298755D+00 0.23505200D+05 0.23505200D+05 0.23505200D+05 0.12261788D+01  1  2  2  1  6  1       -2 0.108053885227D+00 0.100000000000D+01
0.297508875068D-04 0.996432559764D-05 -.725120005177D-06 0.203164779871D-04 0.000000000000D+00  6 -2 2 25 23 21 21 4 0.38966976D-02 0.23298755D+00 0.23505200D+05 0.23505200D+05 0.23505200D+05 0.12261788D+01  1  2  3  1  6  1       -2 0.255975884048D-01 0.100000000000D+01
0.637027952407D-05 0.000000000000D+00 0.000000000000D+00 0.203164779871D-04 0.000000000000D+00  6 -2 2 25 23 21 21 4 0.38966976D-02 0.23298755D+00 0.23505200D+05 0.23505200D+05 0.23505200D+05 0.12261788D+01  1  2 15  1  6  1       -2 0.548097239934D-02 0.100000000000D+01
  </mgrwgt>
  </event>
  <event>
  6     66 0.42934962E-03 0.21663805E+02 0.75467711E-02 0.12216354E+00
       -2 -1    0    0    0  503 0.00000000E+00 0.00000000E+00 0.27873766E+03 0.27873784E+03 0.32000000E+00 0.0000E+00 0.9000E+01
        2 -1    0    0  502    0 0.00000000E+00 0.00000000E+00 -.17960861E+03 0.17960889E+03 0.32000000E+00 0.0000E+00 0.9000E+01
       25  1    1    2    0    0 -.54551230E+02 0.16055656E+02 -.81745264E+02 0.15981523E+03 0.12500000E+03 0.0000E+00 0.9000E+01
       23  1    1    2    0    0 0.25588603E+02 -.28803630E+02 -.22708897E+01 0.99019362E+02 0.91188000E+02 0.0000E+00 0.9000E+01
       21  1    1    2  502  501 0.61653250E+01 0.24810373E+01 -.58398994E+01 0.88788345E+01 0.75000000E+00 0.0000E+00 0.9000E+01
       21  1    1    2  501  503 0.22797301E+02 0.10266937E+02 0.18898510E+03 0.19063331E+03 0.75000000E+00 0.0000E+00 0.9000E+01
#aMCatNLO 2  0  0  1  5 0.15807230D+03 0.00000000D+00  -5  6  0 0.00000000D+00 0.00000000D+00 0.00000000D+00 0.00000000D+00 0.00000000D+00
  <mgrwgt>
 0.1756020765D+00    1    2    0
 0.125470358355281D+03 0.000000000000000D+00 0.000000000000000D+00 0.125470358355281D+03
 0.125470358355281D+03 0.000000000000000D+00 0.000000000000000D+00 -.125470358355281D+03
 0.136929545361250D+03 -.419956051602580D+02 0.217108820409648D+02 -.298279590496190D+02
 0.105969522557315D+03 0.351039733485116D+02 -.245177649292996D+02 0.328767185869245D+02
 0.804164879199615D+01 0.689163181174642D+01 0.280688288833482D+01 -.304875953730551D+01
 0.000000000000000D+00 0.000000000000000D+00 0.000000000000000D+00 0.000000000000000D+00
 0.395219639996881D+03 0.000000000000000D+00 0.000000000000000D+00 0.395219639996881D+03
 0.126672300449642D+03 0.000000000000000D+00 0.000000000000000D+00 -.126672300449642D+03
 0.140534444375978D+03 -.545679156779119D+02 0.160488471102289D+02 -.298279590496190D+02
 0.104308224430478D+03 0.255759724984306D+02 -.288087720244144D+02 0.328767185869245D+02
 0.734053889276168D+01 0.619464176198625D+01 0.249298815891528D+01 -.304875953730551D+01
 0.269708732747304D+03 0.227973014174951D+02 0.102669367552702D+02 0.268547339547239D+03
0.755555835032D-03 0.000000000000D+00 0.000000000000D+00 0.217463138742D-03 0.326821534300D-05  6 -2 2 25 23 21 21 4 0.42882577D-01 0.27632017D-01 0.17956547D+05 0.17956547D+05 0.17956547D+05 0.12390126D+01  1  2  1  1  6  1       -2 0.175602076522D+00 0.100000000000D+01
  </mgrwgt>
  </event>
  <event>
  6     66 0.42934962E-03 0.21094605E+02 0.75467711E-02 0.11857565E+00
       21 -1    0    0  503  501 0.00000000E+00 0.00000000E+00 0.12942130E+03 0.12942347E+03 0.75000000E+00 0.0000E+00 0.9000E+01
        2 -1    0    0  502    0 0.00000000E+00 0.00000000E+00 -.21362037E+03 0.21362061E+03 0.32000000E+00 0.0000E+00 0.9000E+01
       25  1    1    2    0    0 -.64573599E+02 0.65448267E+02 -.15719941E+02 0.15596584E+03 0.12500000E+03 0.0000E+00 0.9000E+01
       23  1    1    2    0    0 0.87106784E+02 -.72320072E+02 -.63266144E+02 0.15854224E+03 0.91188000E+02 0.0000E+00 0.9000E+01
        2  1    1    2  503    0 -.20673206E+02 0.83691242E+01 0.48714881E+00 0.22310612E+02 0.32000000E+00 0.0000E+00 0.9000E+01
       21  1    1    2  502  501 -.18599788E+01 -.14973195E+01 -.57001319E+01 0.62253908E+01 0.75000000E+00 0.0000E+00 0.9000E+01
#aMCatNLO 2  0  0  1  5 0.15807230D+03 0.00000000D+00  -5  6  0 0.00000000D+00 0.00000000D+00 0.00000000D+00 0.00000000D+00 0.00000000D+00
  <mgrwgt>
 0.2412067068D-02    1    2    0
 0.154273114834445D+03 0.000000000000000D+00 0.000000000000000D+00 0.154273114834445D+03
 0.154273114834445D+03 0.000000000000000D+00 0.000000000000000D+00 -.154273114834445D+03
 0.163915023022257D+03 -.753105582445781D+02 0.698086383480848D+02 0.264236371694608D+02
 0.139641329535971D+03 0.775260148420277D+02 -.684297944689419D+02 -.221704718539257D+02
 0.000000000000000D+00 -.000000000000000D+00 0.000000000000000D+00 0.000000000000000D+00
 0.498987711066155D+01 -.221545659744960D+01 -.137884387914298D+01 -.425316531553509D+01
 0.169613279497839D+03 0.000000000000000D+00 0.000000000000000D+00 0.169613279497839D+03
 0.163000626116125D+03 0.000000000000000D+00 0.000000000000000D+00 -.163000626116125D+03
 0.157403221013660D+03 -.645601046437036D+02 0.654565372793730D+02 0.264236371694608D+02
 0.147056178400600D+03 0.871181507190491D+02 -.723129743189734D+02 -.221704718539257D+02
 0.232626497095323D+02 -.206732059945232D+02 0.836912424747789D+01 0.661265338171392D+01
 0.489185649017034D+01 -.188484008082234D+01 -.151268720787753D+01 -.425316531553509D+01
0.238776384710D-06 0.000000000000D+00 0.000000000000D+00 0.152586397182D-02 0.474558079372D-06  6 21 2 25 23 2 21 4 0.19911022D-01 0.32864639D-01 0.26449264D+05 0.26449264D+05 0.26449264D+05 0.12206824D+01  1  2  1  4  5  1       -2 0.241206706783D-02 0.100000000000D+01
  </mgrwgt>
  </event>
  <event>
  6     66 0.42934962E-03 0.37889088E+02 0.75467711E-02 0.10424029E+00
       21 -1    0    0  503  501 0.00000000E+00 0.00000000E+00 0.10890861E+04 0.10890863E+04 0.75000000E+00 0.0000E+00 0.9000E+01
        2 -1    0    0  502    0 0.00000000E+00 0.00000000E+00 -.18145247E+04 0.18145248E+04 0.32000000E+00 0.0000E+00 0.9000E+01
       25  1    1    2    0    0 0.61332446E+01 0.34805476E+03 -.10214172E+04 0.10863230E+04 0.12500000E+03 0.0000E+00 0.9000E+01
       23  1    1    2    0    0 0.27731657E+02 -.37087224E+03 -.48025905E+03 0.61423063E+03 0.91188000E+02 0.0000E+00 0.9000E+01
        2  1    1    2  503    0 -.28527113E+02 0.33054101E+02 0.98900865E+03 0.98997201E+03 0.32000000E+00 0.0000E+00 0.9000E+01
       21  1    1    2  502  501 -.53377880E+01 -.10236627E+02 -.21277112E+03 0.21308541E+03 0.75000000E+00 0.0000E+00 0.9000E+01
#aMCatNLO 2  0  0  1  5 0.24843789D+02 0.00000000D+00  -5  6  0 0.00000000D+00 0.00000000D+00 0.00000000D+00 0.00000000D+00 0.00000000D+00
  <mgrwgt>
 0.1266685822D+01    1    2    0
 0.424493380648314D+03 0.000000000000000D+00 0.000000000000000D+00 0.424493380648314D+03
 0.424493380648314D+03 0.000000000000000D+00 0.000000000000000D+00 -.424493380648314D+03
 0.399292108801016D+03 -.704169131191367D+01 0.363321292778115D+03 -.108430811803053D+03
 0.399284773006503D+03 0.140755031688775D+02 -.355048123369651D+03 0.157657187952492D+03
 0.000000000000000D+00 -.000000000000000D+00 0.000000000000000D+00 0.000000000000000D+00
 0.504098794891077D+02 -.703381185696388D+01 -.827316940846448D+01 -.492263761494388D+02
 0.464799213428227D+04 0.000000000000000D+00 0.000000000000000D+00 0.464799213428227D+04
 0.425167234150269D+03 0.000000000000000D+00 0.000000000000000D+00 -.425167234150269D+03
 0.385437787248553D+03 0.613360024809165D+01 0.348055205159740D+03 -.108430811803053D+03
 0.414108707088459D+03 0.277320444924690D+02 -.370871830606823D+03 0.157657187952492D+03
 0.422305061619538D+04 -.285271134587826D+02 0.330541006684891D+02 0.422282490013200D+04
 0.505622579001518D+02 -.533853128177808D+01 -.102374752214059D+02 -.492263761494388D+02
0.329594681198D+00 0.000000000000D+00 0.000000000000D+00 0.514499799871D-04 0.269306037947D-06  6 21 2 25 23 2 21 4 0.16755172D+00 0.27915767D+00 0.16321711D+06 0.16321711D+06 0.16321711D+06 0.11445183D+01  1  2  1  4  5  1       -2 0.126668582156D+01 0.100000000000D+01
  </mgrwgt>
  </event>
  <event>
  5     66 0.42934962E-03 0.24283101E+02 0.75467711E-02 0.12154446E+00
       -2 -1    0    0    0  501 0.00000000E+00 0.00000000E+00 0.23568698E+02 0.23570871E+02 0.32000000E+00 0.0000E+00 0.9000E+01
        2 -1    0    0  502    0 -.00000000E+00 -.00000000E+00 -.98353596E+03 0.98353602E+03 0.32000000E+00 0.0000E+00 0.9000E+01
       25  1    1    2    0    0 0.60340493E+02 0.10690585E+01 -.26217793E+03 0.29665533E+03 0.12500000E+03 0.0000E+00 0.9000E+01
       23  1    1    2    0    0 -.50252330E+02 0.21014152E+02 -.49871063E+03 0.50989650E+03 0.91188000E+02 0.0000E+00 0.9000E+01
       21  1    1    2  502  501 -.10088163E+02 -.22083211E+02 -.19907871E+03 0.20055506E+03 0.75000000E+00 0.0000E+00 0.9000E+01
#aMCatNLO 1  0  0  5  1 0.95019533D+01 0.00000000D+00  -5  6  0 0.00000000D+00 0.00000000D+00 0.00000000D+00 0.00000000D+00 0.00000000D+00
  <mgrwgt>
 0.2757084232D+00   14    2    0
 0.152255648735313D+03 0.000000000000000D+00 0.000000000000000D+00 0.152255648735313D+03
 0.152255648735313D+03 -.000000000000000D+00 -.000000000000000D+00 -.152255648735313D+03
 0.154614718956410D+03 0.603416232045986D+02 0.107153360866935D+01 0.681061791816963D+02
 0.114196550452973D+03 -.502514947615883D+02 0.210159805149435D+02 -.419370555544850D+02
 0.357000280612426D+02 -.100901284430103D+02 -.220875141236128D+02 -.261691236272113D+02
 0.000000000000000D+00 0.000000000000000D+00 0.000000000000000D+00 0.000000000000000D+00
 0.152255648735313D+03 0.000000000000000D+00 0.000000000000000D+00 0.152255648735313D+03
 0.152255648735313D+03 -.000000000000000D+00 -.000000000000000D+00 -.152255648735313D+03
 0.151809837311954D+03 0.584526442560604D+02 -.306348305050396D+01 0.632070419791624D+02
 0.115699264042940D+03 -.516687060948716D+02 0.179136735902261D+02 -.456126458897366D+02
 0.273576726374763D+02 -.818804434297860D+01 -.229170700306607D+02 -.124982432040077D+02
 0.964452347825553D+01 0.140410618178985D+01 0.806687949093867D+01 -.509615288541806D+01
0.122199038879D-03 0.000000000000D+00 0.000000000000D+00 0.186070820682D-04 0.000000000000D+00  6 -2 2 25 23 21 21 2 0.36261247D-02 0.15131340D+00 0.18131572D+05 0.18131572D+05 0.18131572D+05 0.12385431D+01  1  2  2  3  6  5       21 0.155270291341D+00 0.100000000000D+01
0.163651665983D-04 0.644862044751D-05 -.469276485043D-06 0.186070820682D-04 0.000000000000D+00  6 -2 2 25 23 21 21 4 0.36261247D-02 0.15131340D+00 0.18131572D+05 0.18131572D+05 0.18131572D+05 0.12385431D+01  1  2  3  3  6  5       21 0.318979841550D-01 0.100000000000D+01
0.380640053458D-05 0.000000000000D+00 0.000000000000D+00 0.186070820682D-04 0.000000000000D+00  6 -2 2 25 23 21 21 4 0.36261247D-02 0.15131340D+00 0.18131572D+05 0.18131572D+05 0.18131572D+05 0.12385431D+01  1  2 15  3  6  5       21 0.741920366106D-02 0.100000000000D+01
0.854431279948D-04 0.000000000000D+00 0.000000000000D+00 0.185268278598D-04 0.000000000000D+00  6 -2 2 25 23 21 21 4 0.36261247D-02 0.15131340D+00 0.19165432D+05 0.19165432D+05 0.19165432D+05 0.12358692D+01  1  2 12  3  6  5       21 0.165336254482D+00 0.100000000000D+01
-.483865227325D-04 0.000000000000D+00 0.000000000000D+00 0.186070820682D-04 0.000000000000D+00  6 -2 2 25 23 21 21 4 0.36261247D-02 0.15131340D+00 0.18131572D+05 0.18131572D+05 0.18131572D+05 0.12385431D+01  1  2  4  3  6  5       21 -.943120576360D-01 0.100000000000D+01
0.370804290602D-09 0.000000000000D+00 0.000000000000D+00 0.186070820682D-04 0.515672787317D-06  6 -2 2 25 23 21 21 4 0.36261247D-02 0.15131340D+00 0.19165432D+05 0.19165432D+05 0.19165432D+05 0.12358692D+01  1  2 11  3  6  5       21 0.717522801340D-06 0.100000000000D+01
0.130435162789D-05 0.000000000000D+00 0.000000000000D+00 0.185268278598D-04 0.000000000000D+00  6 -2 2 25 23 1 -1 4 0.36261247D-02 0.15131340D+00 0.19165432D+05 0.19165432D+05 0.19165432D+05 0.12358692D+01  1  2 12  6  6  5       21 0.252397843741D-02 0.100000000000D+01
0.130435162789D-05 0.000000000000D+00 0.000000000000D+00 0.185268278598D-04 0.000000000000D+00  6 -2 2 25 23 3 -3 4 0.36261247D-02 0.15131340D+00 0.19165432D+05 0.19165432D+05 0.19165432D+05 0.12358692D+01  1  2 12  6  6  5       21 0.252397843741D-02 0.100000000000D+01
0.151356736835D-10 0.000000000000D+00 0.000000000000D+00 0.185268278598D-04 0.235672459303D-07  6 -2 2 25 23 1 -1 4 0.36261247D-02 0.15131340D+00 0.19165432D+05 0.19165432D+05 0.19165432D+05 0.12358692D+01  1  2 11  6  6  5       21 0.292882020430D-07 0.100000000000D+01
0.151356736835D-10 0.000000000000D+00 0.000000000000D+00 0.185268278598D-04 0.235672459303D-07  6 -2 2 25 23 3 -3 4 0.36261247D-02 0.15131340D+00 0.19165432D+05 0.19165432D+05 0.19165432D+05 0.12358692D+01  1  2 11  6  6  5       21 0.292882020430D-07 0.100000000000D+01
0.130435162789D-05 0.000000000000D+00 0.000000000000D+00 0.185268278598D-04 0.000000000000D+00  6 -2 2 25 23 2 -2 4 0.36261247D-02 0.15131340D+00 0.19165432D+05 0.19165432D+05 0.19165432D+05 0.12358692D+01  1  2 12  7  6  5       21 0.252397843741D-02 0.100000000000D+01
0.144627913003D-10 0.000000000000D+00 0.000000000000D+00 0.185268278598D-04 0.258442272129D-07  6 -2 2 25 23 2 -2 4 0.36261247D-02 0.15131340D+00 0.19165432D+05 0.19165432D+05 0.19165432D+05 0.12358692D+01  1  2 11  7  6  5       21 0.279861446914D-07 0.100000000000D+01
0.130435162789D-05 0.000000000000D+00 0.000000000000D+00 0.185268278598D-04 0.000000000000D+00  6 -2 2 25 23 4 -4 4 0.36261247D-02 0.15131340D+00 0.19165432D+05 0.19165432D+05 0.19165432D+05 0.12358692D+01  1  2 12  8  6  5       21 0.252397843741D-02 0.100000000000D+01
0.151940606821D-10 0.000000000000D+00 0.000000000000D+00 0.185268278598D-04 0.236581583525D-07  6 -2 2 25 23 4 -4 4 0.36261247D-02 0.15131340D+00 0.19165432D+05 0.19165432D+05 0.19165432D+05 0.12358692D+01  1  2 11  8  6  5       21 0.294011834833D-07 0.100000000000D+01
  </mgrwgt>
  </event>
  <event>
  5     66 0.42934962E-03 0.91618691E+02 0.75467711E-02 0.11368935E+00
       -2 -1    0    0    0  501 0.00000000E+00 0.00000000E+00 0.29070484E+02 0.29072245E+02 0.32000000E+00 0.0000E+00 0.9000E+01
        2 -1    0    0  502    0 -.00000000E+00 -.00000000E+00 -.27713546E+04 0.27713547E+04 0.32000000E+00 0.0000E+00 0.9000E+01
       25  1    1    2    0    0 0.14841580E+02 0.17489324E+03 -.15890026E+04 0.16035468E+04 0.12500000E+03 0.0000E+00 0.9000E+01
       23  1    1    2    0    0 -.18498346E+02 -.83348038E+02 -.10555573E+04 0.10629231E+04 0.91188000E+02 0.0000E+00 0.9000E+01
       21  1    1    2  502  501 0.36567657E+01 -.91545203E+02 -.97724266E+02 0.13395705E+03 0.75000000E+00 0.0000E+00 0.9000E+01
#aMCatNLO 1  0  0  5  1 0.95019533D+01 0.00000000D+00  -5  6  0 0.00000000D+00 0.00000000D+00 0.00000000D+00 0.00000000D+00 0.00000000D+00
  <mgrwgt>
 0.3625309617D-02    1    2    0
 0.283843465521958D+03 0.000000000000000D+00 0.000000000000000D+00 0.283843465521958D+03
 0.283843465521958D+03 -.000000000000000D+00 -.000000000000000D+00 -.283843465521958D+03
 0.234493780678060D+03 0.148415681800687D+02 0.174893539425314D+03 -.924895177732727D+02
 0.144446628929274D+03 -.184983531491825D+02 -.833478544042202D+02 -.725294654744695D+02
 0.188746521436582D+03 0.365678496911373D+01 -.915456850210937D+02 0.165018983247742D+03
 0.000000000000000D+00 0.000000000000000D+00 -.000000000000000D+00 0.000000000000000D+00
 0.283843465521958D+03 0.000000000000000D+00 0.000000000000000D+00 0.283843465521958D+03
 0.283843465521958D+03 -.000000000000000D+00 -.000000000000000D+00 -.283843465521958D+03
 0.223875359868941D+03 0.151405707624241D+02 0.167408167314021D+03 -.789964897321160D+02
 0.143200696524856D+03 -.183107155324447D+02 -.880452632770618D+02 -.640619813334461D+02
 0.106239565973322D+03 0.595460914058689D+02 -.406182237053819D+02 0.780465776283838D+02
 0.943713086767964D+02 -.563759466358483D+02 -.387446803315777D+02 0.650118934371783D+02
0.267170326567D-04 0.000000000000D+00 0.000000000000D+00 0.177579854680D-05 0.000000000000D+00  6 -2 2 25 23 21 21 4 0.44725191D-02 0.42636239D+00 0.46660129D+05 0.46660129D+05 0.46660129D+05 0.11952667D+01  1  2 14  3  6  5       21 0.362530961693D-02 0.100000000000D+01
  </mgrwgt>
  </event>
  <event>
  5     66 -.42934962E-03 0.27853852E+02 0.75467711E-02 0.11370564E+00
       -2 -1    0    0    0  501 0.00000000E+00 0.00000000E+00 0.63315697E+03 0.63315705E+03 0.32000000E+00 0.0000E+00 0.9000E+01
        2 -1    0    0  502    0 0.00000000E+00 0.00000000E+00 -.51464863E+02 0.51465858E+02 0.32000000E+00 0.0000E+00 0.9000E+01
       25  1    1    2    0    0 -.83175543E+02 0.47873942E+02 0.16237793E+03 0.22627788E+03 0.12500000E+03 0.0000E+00 0.9000E+01
       23  1    1    2    0    0 0.61972263E+02 -.29816299E+02 0.41465527E+03 0.43009746E+03 0.91188000E+02 0.0000E+00 0.9000E+01
       21  1    1    2  502  501 0.21203280E+02 -.18057643E+02 0.46588994E+01 0.28247574E+02 0.75000000E+00 0.0000E+00 0.9000E+01
#aMCatNLO 1  0  0  2  1 0.35130136D+02 0.00000000D+00  -5  6  0 0.00000000D+00 0.00000000D+00 0.00000000D+00 0.00000000D+00 0.00000000D+00
  <mgrwgt>
 -.1592890565D+00    5    4    0
 0.180515109992652D+03 0.000000000000000D+00 0.000000000000000D+00 0.180515109992652D+03
 0.180515109992652D+03 0.000000000000000D+00 0.000000000000000D+00 -.180515109992652D+03
 0.167468337900642D+03 -.831768476054507D+02 0.478750530523758D+02 -.566589403082647D+02
 0.147503106933290D+03 0.619711143523373D+02 -.298153209221647D+02 0.933410029687460D+02
 0.460587751513721D+02 0.212057332531134D+02 -.180597321302111D+02 -.366820626604813D+02
 0.000000000000000D+00 -.000000000000000D+00 -.000000000000000D+00 -.000000000000000D+00
 0.193351060499160D+03 0.000000000000000D+00 0.000000000000000D+00 0.193351060499160D+03
 0.897250196807111D+03 0.000000000000000D+00 0.000000000000000D+00 -.897250196807111D+03
 0.174293072968498D+03 -.559204614411883D+02 0.917373520445793D+02 -.566589403082647D+02
 0.156679866472769D+03 0.862305196686494D+02 0.922409108735192D+01 0.933410029687460D+02
 0.469286641757643D+02 0.286217301273094D+02 -.612555016416128D+01 -.366820626604813D+02
 0.712699653689241D+03 -.589317883547705D+02 -.948358929677699D+02 -.703899136307950D+03
 0.180515109992652D+03 0.000000000000000D+00 0.000000000000000D+00 0.180515109992652D+03
 0.180515109992652D+03 0.000000000000000D+00 0.000000000000000D+00 -.180515109992652D+03
 0.167468337900642D+03 -.831768476054507D+02 0.478750530523758D+02 -.566589403082647D+02
 0.147503106933290D+03 0.619711143523373D+02 -.298153209221647D+02 0.933410029687460D+02
 0.000000000000000D+00 -.000000000000000D+00 -.000000000000000D+00 -.000000000000000D+00
 0.460587751513721D+02 0.212057332531134D+02 -.180597321302111D+02 -.366820626604813D+02
 0.193351060499160D+03 0.000000000000000D+00 0.000000000000000D+00 0.193351060499160D+03
 0.897250196807111D+03 0.000000000000000D+00 0.000000000000000D+00 -.897250196807111D+03
 0.174293072968498D+03 -.559204614411883D+02 0.917373520445793D+02 -.566589403082647D+02
 0.156679866472769D+03 0.862305196686494D+02 0.922409108735192D+01 0.933410029687460D+02
 0.712699653689241D+03 -.589317883547705D+02 -.948358929677699D+02 -.703899136307950D+03
 0.469286641757643D+02 0.286217301273094D+02 -.612555016416128D+01 -.366820626604813D+02
0.268478012508D-03 0.000000000000D+00 0.000000000000D+00 0.113380717683D-04 0.000000000000D+00  6 -2 2 25 23 21 21 2 0.97408847D-01 0.79177540D-02 0.22448947D+05 0.22448947D+05 0.22448947D+05 0.12283411D+01  1  2  2  2  6  2        2 0.312262027710D-01 0.100000000000D+01
0.301911639071D-04 0.141679739632D-04 -.103102625992D-05 0.113380717683D-04 0.000000000000D+00  6 -2 2 25 23 21 21 4 0.97408847D-01 0.79177540D-02 0.22448947D+05 0.22448947D+05 0.22448947D+05 0.12283411D+01  1  2  3  2  6  2        2 0.529819947118D-02 0.100000000000D+01
0.574764099207D-05 0.000000000000D+00 0.000000000000D+00 0.113380717683D-04 0.000000000000D+00  6 -2 2 25 23 21 21 4 0.97408847D-01 0.79177540D-02 0.22448947D+05 0.22448947D+05 0.22448947D+05 0.12283411D+01  1  2 15  2  6  2        2 0.100864440200D-02 0.100000000000D+01
-.423947798342D-02 0.000000000000D+00 -.283951779533D-03 0.113380717683D-04 0.000000000000D+00  6 -2 2 25 23 21 21 4 0.97408847D-01 0.41105307D-01 0.22448947D+05 0.22448947D+05 0.22448947D+05 0.12283411D+01  1  2  5  2  6  2        2 -.111454636411D+00 0.100000000000D+01
-.862811743173D-03 0.000000000000D+00 -.571120191700D-04 0.113380717683D-04 0.000000000000D+00  6 -2 21 25 23 -2 21 4 0.97408847D-01 0.41105307D-01 0.22448947D+05 0.22448947D+05 0.22448947D+05 0.12283411D+01  3  4  5  5  5  2        2 -.853674667176D-01 0.100000000000D+01
  </mgrwgt>
  </event>
  <event>
  5     66 0.42934962E-03 0.35671481E+02 0.75467711E-02 0.12152900E+00
       -2 -1    0    0    0  501 0.00000000E+00 0.00000000E+00 0.27659360E+02 0.27661211E+02 0.32000000E+00 0.0000E+00 0.9000E+01
        2 -1    0    0  502    0 -.00000000E+00 -.00000000E+00 -.92451393E+03 0.92451399E+03 0.32000000E+00 0.0000E+00 0.9000E+01
       25  1    1    2    0    0 0.33147150E+02 -.17480640E+02 -.21426613E+03 0.25087702E+03 0.12500000E+03 0.0000E+00 0.9000E+01
       23  1    1    2    0    0 -.68787294E+02 0.16152728E+02 -.60502621E+03 0.61592578E+03 0.91188000E+02 0.0000E+00 0.9000E+01
       21  1    1    2  502  501 0.35640144E+02 0.13279118E+01 -.77562238E+02 0.85372399E+02 0.75000000E+00 0.0000E+00 0.9000E+01
#aMCatNLO 1  0  0  5  2 0.11236891D+02 0.00000000D+00  -5  6  0 0.00000000D+00 0.00000000D+00 0.00000000D+00 0.00000000D+00 0.00000000D+00
  <mgrwgt>
 0.1663791720D+00   14    2    0
 0.159913637227404D+03 0.000000000000000D+00 0.000000000000000D+00 0.159913637227404D+03
 0.159913637227404D+03 -.000000000000000D+00 -.000000000000000D+00 -.159913637227404D+03
 0.146056845343804D+03 0.331437446755891D+02 -.174807665162271D+02 0.656011971130736D+02
 0.137103288080811D+03 -.687904912882210D+02 0.161526086958665D+02 -.740879328852763D+02
 0.366671410301943D+02 0.356467466126319D+02 0.132815782036061D+01 0.848673577220271D+01
 0.000000000000000D+00 0.000000000000000D+00 0.000000000000000D+00 -.000000000000000D+00
 0.159913637227404D+03 0.000000000000000D+00 0.000000000000000D+00 0.159913637227404D+03
 0.159913637227404D+03 -.000000000000000D+00 -.000000000000000D+00 -.159913637227404D+03
 0.149570011117651D+03 0.428924181860577D+02 -.171175418690588D+02 0.679221499089032D+02
 0.131752089686984D+03 -.599246415113633D+02 0.164829403203268D+02 -.719771617321643D+02
 0.126366361611921D+02 -.821823115816702D+01 -.323421189653460D+00 0.959378177964060D+01
 0.258685374889823D+02 0.252504544834727D+02 0.958022738385455D+00 -.553876995637943D+01
0.972277144648D-04 0.000000000000D+00 0.000000000000D+00 0.739035475446D-05 0.000000000000D+00  6 -2 2 25 23 21 21 2 0.42554328D-02 0.14223306D+00 0.19814585D+05 0.19814585D+05 0.19814585D+05 0.12342716D+01  1  2  2  3  6  5       21 0.105348555447D+00 0.100000000000D+01
0.803976708905D-05 0.513084745438D-05 -.373380024190D-06 0.739035475446D-05 0.000000000000D+00  6 -2 2 25 23 21 21 4 0.42554328D-02 0.14223306D+00 0.19814585D+05 0.19814585D+05 0.19814585D+05 0.12342716D+01  1  2  3  3  6  5       21 0.132709941604D-01 0.100000000000D+01
0.567380063773D-05 0.000000000000D+00 0.000000000000D+00 0.739035475446D-05 0.000000000000D+00  6 -2 2 25 23 21 21 4 0.42554328D-02 0.14223306D+00 0.19814585D+05 0.19814585D+05 0.19814585D+05 0.12342716D+01  1  2 15  3  6  5       21 0.936556672556D-02 0.100000000000D+01
0.185882332122D-04 0.000000000000D+00 0.000000000000D+00 0.740855648914D-05 0.000000000000D+00  6 -2 2 25 23 21 21 4 0.42554328D-02 0.14223306D+00 0.19196799D+05 0.19196799D+05 0.19196799D+05 0.12357906D+01  1  2 12  3  6  5       21 0.308112126160D-01 0.100000000000D+01
0.226232466501D-04 0.000000000000D+00 0.000000000000D+00 0.740855648914D-05 0.000000000000D+00  6 -2 2 25 23 21 21 4 0.42554328D-02 0.14223306D+00 0.19196799D+05 0.19196799D+05 0.19196799D+05 0.12357906D+01  1  2 12  3  6  5       21 0.374995113652D-01 0.100000000000D+01
-.279287879351D-04 0.000000000000D+00 0.000000000000D+00 0.739035475446D-05 0.000000000000D+00  6 -2 2 25 23 21 21 4 0.42554328D-02 0.14223306D+00 0.19814585D+05 0.19814585D+05 0.19814585D+05 0.12342716D+01  1  2  4  3  6  5       21 -.461011839631D-01 0.100000000000D+01
0.115898520350D-05 0.000000000000D+00 0.000000000000D+00 0.740855648914D-05 0.000000000000D+00  6 -2 2 25 23 1 -1 4 0.42554328D-02 0.14223306D+00 0.19196799D+05 0.19196799D+05 0.19196799D+05 0.12357906D+01  1  2 12  6  6  5       21 0.192109379714D-02 0.100000000000D+01
0.115898520350D-05 0.000000000000D+00 0.000000000000D+00 0.740855648914D-05 0.000000000000D+00  6 -2 2 25 23 3 -3 4 0.42554328D-02 0.14223306D+00 0.19196799D+05 0.19196799D+05 0.19196799D+05 0.12357906D+01  1  2 12  6  6  5       21 0.192109379714D-02 0.100000000000D+01
0.128202186575D-05 0.000000000000D+00 0.000000000000D+00 0.740855648914D-05 0.000000000000D+00  6 -2 2 25 23 1 -1 4 0.42554328D-02 0.14223306D+00 0.19196799D+05 0.19196799D+05 0.19196799D+05 0.12357906D+01  1  2 12  6  6  5       21 0.212503511404D-02 0.100000000000D+01
0.128202186575D-05 0.000000000000D+00 0.000000000000D+00 0.740855648914D-05 0.000000000000D+00  6 -2 2 25 23 3 -3 4 0.42554328D-02 0.14223306D+00 0.19196799D+05 0.19196799D+05 0.19196799D+05 0.12357906D+01  1  2 12  6  6  5       21 0.212503511404D-02 0.100000000000D+01
0.115898520350D-05 0.000000000000D+00 0.000000000000D+00 0.740855648914D-05 0.000000000000D+00  6 -2 2 25 23 2 -2 4 0.42554328D-02 0.14223306D+00 0.19196799D+05 0.19196799D+05 0.19196799D+05 0.12357906D+01  1  2 12  7  6  5       21 0.192109379714D-02 0.100000000000D+01
0.128202186575D-05 0.000000000000D+00 0.000000000000D+00 0.740855648914D-05 0.000000000000D+00  6 -2 2 25 23 2 -2 4 0.42554328D-02 0.14223306D+00 0.19196799D+05 0.19196799D+05 0.19196799D+05 0.12357906D+01  1  2 12  7  6  5       21 0.212503511404D-02 0.100000000000D+01
0.115898520350D-05 0.000000000000D+00 0.000000000000D+00 0.740855648914D-05 0.000000000000D+00  6 -2 2 25 23 4 -4 4 0.42554328D-02 0.14223306D+00 0.19196799D+05 0.19196799D+05 0.19196799D+05 0.12357906D+01  1  2 12  8  6  5       21 0.192109379714D-02 0.100000000000D+01
0.128202186575D-05 0.000000000000D+00 0.000000000000D+00 0.740855648914D-05 0.000000000000D+00  6 -2 2 25 23 4 -4 4 0.42554328D-02 0.14223306D+00 0.19196799D+05 0.19196799D+05 0.19196799D+05 0.12357906D+01  1  2 12  8  6  5       21 0.212503511404D-02 0.100000000000D+01
  </mgrwgt>
  </event>
  <event>
  5     66 0.42934962E-03 0.12070798E+03 0.75467711E-02 0.11445059E+00
       -2 -1    0    0    0  501 0.00000000E+00 0.00000000E+00 0.66969924E+02 0.66970688E+02 0.32000000E+00 0.0000E+00 0.9000E+01
        2 -1    0    0  502    0 0.00000000E+00 0.00000000E+00 -.97764175E+03 0.97764180E+03 0.32000000E+00 0.0000E+00 0.9000E+01
       25  1    1    2    0    0 -.14167415E+03 -.59582159E+01 -.11837286E+03 0.22303408E+03 0.12500000E+03 0.0000E+00 0.9000E+01
       23  1    1    2    0    0 0.21915876E+02 0.21197477E+02 -.32374592E+03 0.33772224E+03 0.91188000E+02 0.0000E+00 0.9000E+01
       21  1    1    2  502  501 0.11975828E+03 -.15239261E+02 -.46855304E+03 0.48385617E+03 0.75000000E+00 0.0000E+00 0.9000E+01
#aMCatNLO 1  0  0  2  5 0.67170393D+01 0.00000000D+00  -5  6  0 0.00000000D+00 0.00000000D+00 0.00000000D+00 0.00000000D+00 0.00000000D+00
  <mgrwgt>
 0.5946527185D-01   11    4    0
 0.255876962404450D+03 0.000000000000000D+00 0.000000000000000D+00 0.255876962404450D+03
 0.255876962404450D+03 0.000000000000000D+00 0.000000000000000D+00 -.255876962404450D+03
 0.244620945137017D+03 -.141674831224201D+03 -.595812932707188D+01 0.155264772863144D+03
 0.113262416004436D+03 0.219155608108345D+02 0.211975170151908D+02 -.598623170441918D+02
 0.153870563667447D+03 0.119759270413366D+03 -.152393876881189D+02 -.954024558189526D+02
 0.000000000000000D+00 -.000000000000000D+00 0.000000000000000D+00 -.000000000000000D+00
 0.256259915066629D+03 0.000000000000000D+00 0.000000000000000D+00 0.256259915066629D+03
 0.287152162614496D+03 0.000000000000000D+00 0.000000000000000D+00 -.287152162614496D+03
 0.243635734696062D+03 -.139830726047820D+03 -.857843701297644D+01 0.155264772863144D+03
 0.113210196094196D+03 0.227709291724561D+02 0.199821154638351D+02 -.598623170441918D+02
 0.154952074456574D+03 0.120925668025669D+03 -.168967338457472D+02 -.954024558189526D+02
 0.316140724342939D+02 -.386587115030559D+01 0.549305539488860D+01 -.308922475478671D+02
 0.255876962404450D+03 0.000000000000000D+00 0.000000000000000D+00 0.255876962404450D+03
 0.255876962404450D+03 0.000000000000000D+00 0.000000000000000D+00 -.255876962404450D+03
 0.244620945137017D+03 -.141674831224201D+03 -.595812932707188D+01 0.155264772863144D+03
 0.113262416004436D+03 0.219155608108345D+02 0.211975170151908D+02 -.598623170441918D+02
 0.000000000000000D+00 -.000000000000000D+00 0.000000000000000D+00 -.000000000000000D+00
 0.153870563667447D+03 0.119759270413366D+03 -.152393876881189D+02 -.954024558189526D+02
 0.256259915066629D+03 0.000000000000000D+00 0.000000000000000D+00 0.256259915066629D+03
 0.287152162614496D+03 0.000000000000000D+00 0.000000000000000D+00 -.287152162614496D+03
 0.243635734696062D+03 -.139830726047820D+03 -.857843701297644D+01 0.155264772863144D+03
 0.113210196094196D+03 0.227709291724561D+02 0.199821154638351D+02 -.598623170441918D+02
 0.316140724342939D+02 -.386587115030559D+01 0.549305539488860D+01 -.308922475478671D+02
 0.154952074456574D+03 0.120925668025669D+03 -.168967338457472D+02 -.954024558189526D+02
0.758052248939D-05 0.000000000000D+00 0.000000000000D+00 0.586654164207D-06 0.000000000000D+00  6 -2 2 25 23 21 21 2 0.10303128D-01 0.15040649D+00 0.41189727D+05 0.41189727D+05 0.41189727D+05 0.12007098D+01  1  2  2  2  6  2        2 0.187127806254D-02 0.100000000000D+01
-.611940610511D-06 0.400035162111D-06 -.291112023567D-07 0.586654164207D-06 0.000000000000D+00  6 -2 2 25 23 21 21 4 0.10303128D-01 0.15040649D+00 0.41189727D+05 0.41189727D+05 0.41189727D+05 0.12007098D+01  1  2  3  2  6  2        2 -.217783293824D-03 0.100000000000D+01
0.375760244949D-06 0.000000000000D+00 0.000000000000D+00 0.586654164207D-06 0.000000000000D+00  6 -2 2 25 23 21 21 4 0.10303128D-01 0.15040649D+00 0.41189727D+05 0.41189727D+05 0.41189727D+05 0.12007098D+01  1  2 15  2  6  2        2 0.133729160032D-03 0.100000000000D+01
0.655971868346D-03 0.000000000000D+00 0.000000000000D+00 0.585239932512D-06 0.000000000000D+00  6 -2 2 25 23 21 21 4 0.10303128D-01 0.16981131D+00 0.42571931D+05 0.42571931D+05 0.42571931D+05 0.11992617D+01  1  2 12  2  6  2        2 0.195335693833D+00 0.100000000000D+01
-.538607137011D-03 0.000000000000D+00 0.000000000000D+00 0.586654164207D-06 0.000000000000D+00  6 -2 2 25 23 21 21 4 0.10303128D-01 0.15040649D+00 0.41189727D+05 0.41189727D+05 0.41189727D+05 0.12007098D+01  1  2  4  2  6  2        2 -.191684673906D+00 0.100000000000D+01
-.800887091738D-03 0.000000000000D+00 -.189402961510D-04 0.586654164207D-06 0.000000000000D+00  6 -2 2 25 23 21 21 4 0.10303128D-01 0.16889152D+00 0.41189727D+05 0.41189727D+05 0.41189727D+05 0.12007098D+01  1  2  5  2  6  2        2 -.241577891158D+00 0.100000000000D+01
0.797843055658D-03 0.000000000000D+00 0.188137608004D-04 0.586654164207D-06 0.000000000000D+00  6 -2 2 25 23 21 21 4 0.10303128D-01 0.15040649D+00 0.41189727D+05 0.41189727D+05 0.41189727D+05 0.12007098D+01  1  2  6  2  6  2        2 0.283944039065D+00 0.100000000000D+01
0.399046416994D-04 0.000000000000D+00 0.000000000000D+00 0.586654164207D-06 0.378754505814D-07  6 -2 2 25 23 21 21 4 0.10318548D-01 0.16879029D+00 0.42571931D+05 0.42571931D+05 0.42571931D+05 0.11992617D+01  1  2 11  2  6  2        2 0.119606327299D-01 0.100000000000D+01
0.125634608410D-04 0.000000000000D+00 0.000000000000D+00 0.585239932512D-06 0.000000000000D+00  6 -2 21 25 23 -2 21 4 0.10303128D-01 0.16981131D+00 0.42571931D+05 0.42571931D+05 0.42571931D+05 0.11992617D+01  3  4 12  5  5  2        2 0.274452147297D-02 0.100000000000D+01
-.146763566426D-04 0.000000000000D+00 -.349026862619D-06 0.586654164207D-06 0.000000000000D+00  6 -2 21 25 23 -2 21 4 0.10303128D-01 0.16889152D+00 0.41189727D+05 0.41189727D+05 0.41189727D+05 0.12007098D+01  3  4  5  5  5  2        2 -.327557560411D-02 0.100000000000D+01
0.104384731022D-05 0.000000000000D+00 0.000000000000D+00 0.586654164207D-06 0.197869226838D-08  6 -2 21 25 23 -2 21 4 0.10318548D-01 0.16879029D+00 0.42571931D+05 0.42571931D+05 0.42571931D+05 0.11992617D+01  3  4 11  5  5  2        2 0.231301486005D-03 0.100000000000D+01
  </mgrwgt>
  </event>
  <event>
  5     66 0.42934962E-03 0.35622337E+02 0.75467711E-02 0.92566591E-01
       -2 -1    0    0    0  501 0.00000000E+00 0.00000000E+00 0.20123083E+03 0.20123108E+03 0.32000000E+00 0.0000E+00 0.9000E+01
        2 -1    0    0  502    0 0.00000000E+00 0.00000000E+00 -.48911322E+03 0.48911333E+03 0.32000000E+00 0.0000E+00 0.9000E+01
       25  1    1    2    0    0 0.73796180E+02 -.21428817E+03 0.47683371E+02 0.26318055E+03 0.12500000E+03 0.0000E+00 0.9000E+01
       23  1    1    2    0    0 -.95318710E+02 0.18591055E+03 -.30048122E+03 0.37716390E+03 0.91188000E+02 0.0000E+00 0.9000E+01
       21  1    1    2  502  501 0.21522531E+02 0.28377622E+02 -.35084538E+02 0.49999960E+02 0.75000000E+00 0.0000E+00 0.9000E+01
#aMCatNLO 1  0  0  2  2 0.98444553D+03 0.00000000D+00  -5  6  0 0.00000000D+00 0.00000000D+00 0.00000000D+00 0.00000000D+00 0.00000000D+00
  <mgrwgt>
 0.2613119154D+00    5    4    0
 0.313727243335137D+03 0.000000000000000D+00 0.000000000000000D+00 0.313727243335137D+03
 0.313727243335137D+03 0.000000000000000D+00 0.000000000000000D+00 -.313727243335137D+03
 0.311438943441176D+03 0.737941949123175D+02 -.214290790416057D+03 0.173213998948874D+03
 0.277101659023679D+03 -.953204761364868D+02 0.185908223824680D+03 -.157550681474696D+03
 0.389138842054200D+02 0.215262812241692D+02 0.283825665913768D+02 -.156633174741775D+02
 0.000000000000000D+00 0.000000000000000D+00 0.000000000000000D+00 -.000000000000000D+00
 0.102477435016354D+04 0.000000000000000D+00 0.000000000000000D+00 0.102477435016354D+04
 0.113300702204624D+04 0.000000000000000D+00 0.000000000000000D+00 -.113300702204624D+04
 0.515001846479170D+03 -.374442683118023D+03 -.281764954358185D+03 0.173213998948874D+03
 0.620027408258994D+03 -.581896571137575D+03 0.112662766314151D+03 -.157550681474696D+03
 0.323747595702676D+02 -.171385566138943D+02 0.225622565389213D+02 -.156633174741775D+02
 0.990377357901346D+03 0.973477810869492D+03 0.146539931505113D+03 -.108232671882704D+03
 0.313727243335137D+03 0.000000000000000D+00 0.000000000000000D+00 0.313727243335137D+03
 0.313727243335137D+03 0.000000000000000D+00 0.000000000000000D+00 -.313727243335137D+03
 0.311438943441176D+03 0.737941949123175D+02 -.214290790416057D+03 0.173213998948874D+03
 0.277101659023679D+03 -.953204761364868D+02 0.185908223824680D+03 -.157550681474696D+03
 0.000000000000000D+00 0.000000000000000D+00 0.000000000000000D+00 -.000000000000000D+00
 0.389138842054200D+02 0.215262812241692D+02 0.283825665913768D+02 -.156633174741775D+02
 0.102477435016354D+04 0.000000000000000D+00 0.000000000000000D+00 0.102477435016354D+04
 0.113300702204624D+04 0.000000000000000D+00 0.000000000000000D+00 -.113300702204624D+04
 0.515001846479170D+03 -.374442683118023D+03 -.281764954358185D+03 0.173213998948874D+03
 0.620027408258994D+03 -.581896571137575D+03 0.112662766314151D+03 -.157550681474696D+03
 0.990377357901346D+03 0.973477810869492D+03 0.146539931505113D+03 -.108232671882704D+03
 0.323747595702676D+02 -.171385566138943D+02 0.225622565389213D+02 -.156633174741775D+02
0.209535794499D-02 0.000000000000D+00 0.000000000000D+00 0.416059679487D-05 0.000000000000D+00  6 -2 2 25 23 21 21 2 0.30958617D-01 0.75248215D-01 0.68226215D+05 0.68226215D+05 0.68226215D+05 0.11791407D+01  1  2  2  2  6  2        2 0.180240832064D+00 0.100000000000D+01
0.536628114939D-03 0.110575076636D-03 -.804672622917D-05 0.416059679487D-05 0.000000000000D+00  6 -2 2 25 23 21 21 4 0.30958617D-01 0.75248215D-01 0.68226215D+05 0.68226215D+05 0.68226215D+05 0.11791407D+01  1  2  3  2  6  2        2 0.641799879532D-01 0.100000000000D+01
0.144039886749D-04 0.000000000000D+00 0.000000000000D+00 0.416059679487D-05 0.000000000000D+00  6 -2 2 25 23 21 21 4 0.30958617D-01 0.75248215D-01 0.68226215D+05 0.68226215D+05 0.68226215D+05 0.11791407D+01  1  2 15  2  6  2        2 0.172269732781D-02 0.100000000000D+01
0.575375587361D-02 0.000000000000D+00 -.250752891186D-02 0.416059679487D-05 0.000000000000D+00  6 -2 2 25 23 21 21 4 0.30958617D-01 0.50769599D+00 0.68226215D+05 0.68226215D+05 0.68226215D+05 0.11791407D+01  1  2  5  2  6  2        2 0.149147319858D-01 0.100000000000D+01
0.112625195742D-02 0.000000000000D+00 -.585846992196D-03 0.416059679487D-05 0.000000000000D+00  6 -2 21 25 23 -2 21 4 0.30958617D-01 0.50769599D+00 0.68226215D+05 0.68226215D+05 0.68226215D+05 0.11791407D+01  3  4  5  5  5  2        2 0.253666114805D-03 0.100000000000D+01
  </mgrwgt>
  </event>
  <event>
  5     66 -.42934962E-03 0.25064776E+02 0.75467711E-02 0.11348907E+00
       -2 -1    0    0    0  501 0.00000000E+00 0.00000000E+00 0.13571977E+03 0.13572015E+03 0.32000000E+00 0.0000E+00 0.9000E+01
        2 -1    0    0  502    0 -.00000000E+00 -.00000000E+00 -.42852799E+03 0.42852811E+03 0.32000000E+00 0.0000E+00 0.9000E+01
       25  1    1    2    0    0 0.62239018E+02 0.16775417E+03 -.26484216E+03 0.34319313E+03 0.12500000E+03 0.0000E+00 0.9000E+01
       23  1    1    2    0    0 -.80809408E+02 -.15093447E+03 -.21468191E+02 0.19516021E+03 0.91188000E+02 0.0000E+00 0.9000E+01
       21  1    1    2  502  501 0.18570390E+02 -.16819702E+02 -.64978659E+01 0.25894913E+02 0.75000000E+00 0.0000E+00 0.9000E+01
#aMCatNLO 1  0  0  5  1 0.59863434D+00 0.00000000D+00  -5  6  0 0.00000000D+00 0.00000000D+00 0.00000000D+00 0.00000000D+00 0.00000000D+00
  <mgrwgt>
 -.6028558622D-01    1    2    0
 0.241163557059375D+03 0.000000000000000D+00 0.000000000000000D+00 0.241163557059375D+03
 0.241163557059375D+03 -.000000000000000D+00 -.000000000000000D+00 -.241163557059375D+03
 0.240706302258246D+03 0.622352611577948D+02 0.167757572979962D+03 -.101482475942066D+03
 0.215273029667000D+03 -.808127677428303D+02 -.150931425120650D+03 0.933607382083184D+02
 0.263477821935027D+02 0.185775065850356D+02 -.168261478593124D+02 0.812173773374736D+01
 0.000000000000000D+00 0.000000000000000D+00 0.000000000000000D+00 -.000000000000000D+00
 0.241163557059375D+03 0.000000000000000D+00 0.000000000000000D+00 0.241163557059375D+03
 0.241163557059375D+03 -.000000000000000D+00 -.000000000000000D+00 -.241163557059375D+03
 0.239892841126736D+03 0.637095290234024D+02 0.166422288883714D+03 -.100837953659221D+03
 0.215874490361891D+03 -.794901958180489D+02 -.152129314119321D+03 0.939389418686387D+02
 0.360338332024426D+01 -.270507920927468D+01 -.235241927838054D+01 0.364748355538638D+00
 0.229563993098783D+02 0.184857460039212D+02 -.119405554860128D+02 0.653426343504333D+01
-.206109481730D-03 0.000000000000D+00 0.000000000000D+00 0.109543733855D-04 0.000000000000D+00  6 -2 2 25 23 21 21 4 0.20880003D-01 0.65927421D-01 0.47809450D+05 0.47809450D+05 0.47809450D+05 0.11942134D+01  1  2 14  3  6  5       21 -.602855862200D-01 0.100000000000D+01
  </mgrwgt>
  </event>
  <event>
  6     66 -.42934962E-03 0.35351885E+02 0.75467711E-02 0.12130673E+00
       -2 -1    0    0    0  501 0.00000000E+00 0.00000000E+00 0.45991888E+02 0.45993001E+02 0.32000000E+00 0.0000E+00 0.9000E+01
        2 -1    0    0  502    0 -.00000000E+00 -.00000000E+00 -.68794812E+03 0.68794820E+03 0.32000000E+00 0.0000E+00 0.9000E+01
       25  1    1    2    0    0 0.29679936E+02 0.17777234E+02 -.14128271E+03 0.19178825E+03 0.12500000E+03 0.0000E+00 0.9000E+01
       23  1    1    2    0    0 -.64702030E+02 -.19603357E+02 -.14484856E+03 0.18402989E+03 0.91188000E+02 0.0000E+00 0.9000E+01
       21  1    1    2  503  501 0.35944550E+02 0.10444732E+01 -.28201207E+03 0.28429645E+03 0.75000000E+00 0.0000E+00 0.9000E+01
       21  1    1    2  502  503 -.92245654E+00 0.78164984E+00 -.73812891E+02 0.73826603E+02 0.75000000E+00 0.0000E+00 0.9000E+01
#aMCatNLO 2  0  0  5  1 0.80008864D+01 0.00000000D+00  -5  6  0 0.00000000D+00 0.00000000D+00 0.00000000D+00 0.00000000D+00 0.00000000D+00
  <mgrwgt>
 -.1480363228D+00    3    2    0
 0.177877679679761D+03 0.000000000000000D+00 0.000000000000000D+00 0.177877679679761D+03
 0.177877679679761D+03 -.000000000000000D+00 -.000000000000000D+00 -.177877679679761D+03
 0.140966867010456D+03 0.293642658380780D+02 0.177607743488817D+02 0.553981261511818D+02
 0.118621865604966D+03 -.649675122875352D+02 -.196171998608514D+02 0.339158292304776D+02
 0.961666267441015D+02 0.356032464494572D+02 0.185642551196971D+01 -.893139553816594D+02
 0.000000000000000D+00 0.000000000000000D+00 0.000000000000000D+00 -.000000000000000D+00
 0.177877679679761D+03 0.000000000000000D+00 0.000000000000000D+00 0.177877679679761D+03
 0.177877679679761D+03 -.000000000000000D+00 -.000000000000000D+00 -.177877679679761D+03
 0.140725391197948D+03 0.296805671077783D+02 0.177772669388867D+02 0.546046558835399D+02
 0.118284780629140D+03 -.647014990378959D+02 -.196033293902511D+02 0.332485109974915D+02
 0.774506747279713D+02 0.359443068013955D+02 0.103677256194450D+01 -.685969308864469D+02
 0.192945128044629D+02 -.923374871277941D+00 0.789289889419851D+00 -.192562359945846D+02
-.964468428442D-04 0.000000000000D+00 0.000000000000D+00 0.137612631166D-04 0.000000000000D+00  6 -2 2 25 23 21 21 4 0.70757665D-02 0.10583826D+00 0.19654537D+05 0.19654537D+05 0.19654537D+05 0.12346600D+01  1  2 13  3  6  5       21 -.106877641806D+00 0.100000000000D+01
-.613066368603D-04 0.000000000000D+00 0.000000000000D+00 0.137612631166D-04 0.000000000000D+00  6 -2 2 25 23 21 21 4 0.70757665D-02 0.10583826D+00 0.19654537D+05 0.19654537D+05 0.19654537D+05 0.12346600D+01  1  2 13  3  6  5       21 -.679369959807D-01 0.100000000000D+01
0.241648664298D-04 0.000000000000D+00 0.000000000000D+00 0.137722893430D-04 0.293790541899D-04  6 -2 2 25 23 21 21 4 0.70757665D-02 0.10583826D+00 0.19654537D+05 0.19654537D+05 0.19654537D+05 0.12346600D+01  1  2  1  3  6  5       21 0.267783150013D-01 0.100000000000D+01
  </mgrwgt>
  </event>
  <event>
  6     66 0.42934962E-03 0.18928302E+02 0.75467711E-02 0.12116419E+00
       21 -1    0    0  503  501 0.00000000E+00 0.00000000E+00 0.13660881E+03 0.13661087E+03 0.75000000E+00 0.0000E+00 0.9000E+01
        2 -1    0    0  502    0 0.00000000E+00 0.00000000E+00 -.41685120E+03 0.41685132E+03 0.32000000E+00 0.0000E+00 0.9000E+01
       25  1    1    2    0    0 -.48546037E+02 0.28618539E+01 -.14502140E+03 0.19753762E+03 0.12500000E+03 0.0000E+00 0.9000E+01
       23  1    1    2    0    0 0.71756649E+02 0.14083768E+01 -.18190137E+03 0.21576460E+03 0.91188000E+02 0.0000E+00 0.9000E+01
        2  1    1    2  503    0 -.19770962E+02 -.12521829E+02 0.91502747E+02 0.94448622E+02 0.32000000E+00 0.0000E+00 0.9000E+01
       21  1    1    2  502  501 -.34396502E+01 0.82515981E+01 -.44822365E+02 0.45711344E+02 0.75000000E+00 0.0000E+00 0.9000E+01
#aMCatNLO 2  0  0  1  1 0.14383966D+02 0.00000000D+00  -5  6  0 0.00000000D+00 0.00000000D+00 0.00000000D+00 0.00000000D+00 0.00000000D+00
  <mgrwgt>
 0.3354640425D+00    1    2    0
 0.134118717118699D+03 0.000000000000000D+00 0.000000000000000D+00 0.134118717118699D+03
 0.134118717118699D+03 0.000000000000000D+00 0.000000000000000D+00 -.134118717118699D+03
 0.140493150540293D+03 -.587332452019239D+02 -.359619090123871D+01 0.255107559235307D+02
 0.111773247681049D+03 0.633553143323670D+02 -.391736127514733D+01 -.121969660020897D+02
 0.000000000000000D+00 -.000000000000000D+00 -.000000000000000D+00 0.000000000000000D+00
 0.159710360160553D+02 -.462206913044311D+01 0.751355217638605D+01 -.133137899214410D+02
 0.421493375421747D+03 0.000000000000000D+00 0.000000000000000D+00 0.421493375421747D+03
 0.135105502945111D+03 0.000000000000000D+00 0.000000000000000D+00 -.135105502945111D+03
 0.136529922611555D+03 -.485433375398945D+02 0.285753057990937D+01 0.255107559235307D+02
 0.116684702070830D+03 0.717588216147807D+02 0.140495343704478D+01 -.121969660020897D+02
 0.287342479662570D+03 -.197709615458053D+02 -.125218287999389D+02 0.286387872476636D+03
 0.160417740219037D+02 -.344452252908085D+01 0.825934478298471D+01 -.133137899214410D+02
0.718047651149D-04 0.000000000000D+00 0.000000000000D+00 0.163711206919D-03 0.538766651237D-06  6 21 2 25 23 2 21 4 0.21016894D-01 0.64131079D-01 0.19954729D+05 0.19954729D+05 0.19954729D+05 0.12339344D+01  1  2  1  4  5  1       -2 0.335464042513D+00 0.100000000000D+01
  </mgrwgt>
  </event>
  <event>
  5     66 -.42934962E-03 0.21650687E+02 0.75467711E-02 0.11976738E+00
       -2 -1    0    0    0  501 0.00000000E+00 0.00000000E+00 0.50351674E+03 0.50351684E+03 0.32000000E+00 0.0000E+00 0.9000E+01
        2 -1    0    0  502    0 0.00000000E+00 0.00000000E+00 -.57268845E+02 0.57269739E+02 0.32000000E+00 0.0000E+00 0.9000E+01
       25  1    1    2    0    0 0.73823655E+02 0.31248033E+02 0.25320126E+03 0.29353407E+03 0.12500000E+03 0.0000E+00 0.9000E+01
       23  1    1    2    0    0 -.85539841E+02 -.49452476E+02 0.20293958E+03 0.24343857E+03 0.91188000E+02 0.0000E+00 0.9000E+01
       21  1    1    2  502  501 0.11716186E+02 0.18204443E+02 -.98929489E+01 0.23813939E+02 0.75000000E+00 0.0000E+00 0.9000E+01
#aMCatNLO 1  0  0  1  1 0.14383966D+02 0.00000000D+00  -5  6  0 0.00000000D+00 0.00000000D+00 0.00000000D+00 0.00000000D+00 0.00000000D+00
  <mgrwgt>
 -.2418854145D-01    1    2    0
 0.169811957495645D+03 0.000000000000000D+00 0.000000000000000D+00 0.169811957495645D+03
 0.169811957495645D+03 0.000000000000000D+00 0.000000000000000D+00 -.169811957495645D+03
 0.151990028648715D+03 0.738231165480217D+02 0.312471954332699D+02 0.323995223626754D+02
 0.135314355810775D+03 -.855403207584540D+02 -.494532212459102D+02 0.152301010314727D+02
 0.523195305317993D+02 0.117172042104324D+02 0.182060258126403D+02 -.476296233941481D+02
 0.000000000000000D+00 0.000000000000000D+00 0.000000000000000D+00 0.000000000000000D+00
 0.333595892995262D+03 0.000000000000000D+00 0.000000000000000D+00 0.333595892995262D+03
 0.259012545522905D+03 0.000000000000000D+00 0.000000000000000D+00 -.259012545522905D+03
 0.149255605831972D+03 0.592389307921868D+02 -.457521136291850D+02 0.323995223626754D+02
 0.190958764133783D+03 -.101336160577379D+03 -.132849632432719D+03 0.152301010314727D+02
 0.487157054052842D+02 0.682579175451012D+01 -.761889069288438D+01 -.476296233941481D+02
 0.203678363147128D+03 0.352714380306817D+02 0.186220636754788D+03 0.745833474723568D+02
-.949245326111D-04 0.000000000000D+00 0.000000000000D+00 0.256786385128D-04 0.000000000000D+00  6 -2 2 25 23 21 21 4 0.77464190D-01 0.88106681D-02 0.23195566D+05 0.23195566D+05 0.23195566D+05 0.12268013D+01  1  2 14  1  6  1       -2 -.241885414463D-01 0.100000000000D+01
  </mgrwgt>
  </event>
  <event>
  5     66 0.42934962E-03 0.27893164E+02 0.75467711E-02 0.11767945E+00
       -2 -1    0    0    0  501 0.00000000E+00 0.00000000E+00 0.44100396E+02 0.44101556E+02 0.32000000E+00 0.0000E+00 0.9000E+01
        2 -1    0    0  502    0 -.00000000E+00 -.00000000E+00 -.72413384E+03 0.72413391E+03 0.32000000E+00 0.0000E+00 0.9000E+01
       25  1    1    2    0    0 -.10380494E+03 0.78019240E+01 -.21479162E+03 0.26943789E+03 0.12500000E+03 0.0000E+00 0.9000E+01
       23  1    1    2    0    0 0.11673121E+03 -.32508855E+02 -.40307010E+03 0.43065503E+03 0.91188000E+02 0.0000E+00 0.9000E+01
       21  1    1    2  502  501 -.12926265E+02 0.24706931E+02 -.62171731E+02 0.68142552E+02 0.75000000E+00 0.0000E+00 0.9000E+01
#aMCatNLO 1  0  0  5  1 0.74485329D+00 0.00000000D+00  -5  6  0 0.00000000D+00 0.00000000D+00 0.00000000D+00 0.00000000D+00 0.00000000D+00
  <mgrwgt>
 0.1148850197D+00   25    2    0
 0.178703838405000D+03 0.000000000000000D+00 0.000000000000000D+00 0.178703838405000D+03
 0.178703838405000D+03 -.000000000000000D+00 -.000000000000000D+00 -.178703838405000D+03
 0.170465798644097D+03 -.103802755439813D+03 0.779774733019087D+01 0.509683392612183D+02
 0.158765684892130D+03 0.116733241151247D+03 -.325127452199677D+02 -.469847120226719D+02
 0.281761932737723D+02 -.129304857114346D+02 0.247149978897768D+02 -.398362723854634D+01
 0.000000000000000D+00 0.000000000000000D+00 0.000000000000000D+00 -.000000000000000D+00
 0.178703838405000D+03 0.000000000000000D+00 0.000000000000000D+00 0.178703838405000D+03
 0.178703838405000D+03 -.000000000000000D+00 -.000000000000000D+00 -.178703838405000D+03
 0.170552077494725D+03 -.103945109965963D+03 0.806984011092028D+01 0.509244826435662D+02
 0.158628691373237D+03 0.116600748020542D+03 -.322595012569129D+02 -.470255305391744D+02
 0.753527337001952D+00 -.613728369229787D+00 -.123525219883398D+00 0.419383424165241D+00
 0.274733806050352D+02 -.120419096853493D+02 0.243131863658760D+02 -.431833552855696D+01
0.124024310425D-03 0.000000000000D+00 0.000000000000D+00 0.119362477759D-04 0.000000000000D+00  6 -2 2 25 23 21 21 2 0.67847710D-02 0.11140530D+00 0.29277797D+05 0.29277797D+05 0.29277797D+05 0.12160107D+01  1  2  2  3  6  5       21 0.884612742977D-01 0.100000000000D+01
0.270277994128D-04 0.654494267327D-05 -.476286008382D-06 0.119362477759D-04 0.000000000000D+00  6 -2 2 25 23 21 21 4 0.67847710D-02 0.11140530D+00 0.29277797D+05 0.29277797D+05 0.29277797D+05 0.12160107D+01  1  2  3  3  6  5       21 0.285057081917D-01 0.100000000000D+01
0.529494402366D-06 0.000000000000D+00 0.000000000000D+00 0.119362477759D-04 0.000000000000D+00  6 -2 2 25 23 21 21 4 0.67847710D-02 0.11140530D+00 0.29277797D+05 0.29277797D+05 0.29277797D+05 0.12160107D+01  1  2 15  3  6  5       21 0.558447718679D-03 0.100000000000D+01
0.225251010799D-12 0.000000000000D+00 0.000000000000D+00 0.119372298946D-04 0.000000000000D+00  6 -2 2 25 23 21 21 4 0.67847710D-02 0.11140530D+00 0.29245774D+05 0.29245774D+05 0.29245774D+05 0.12160607D+01  1  2 12  3  6  5       21 0.237601970458D-09 0.100000000000D+01
0.218447167082D-12 0.000000000000D+00 0.000000000000D+00 0.119372298946D-04 0.000000000000D+00  6 -2 2 25 23 21 21 4 0.67847710D-02 0.11140530D+00 0.29245774D+05 0.29245774D+05 0.29245774D+05 0.12160607D+01  1  2 12  3  6  5       21 0.230425058497D-09 0.100000000000D+01
-.110170630050D-03 0.000000000000D+00 0.000000000000D+00 0.119362477759D-04 0.000000000000D+00  6 -2 2 25 23 21 21 4 0.67847710D-02 0.11140530D+00 0.29277797D+05 0.29277797D+05 0.29277797D+05 0.12160107D+01  1  2  4  3  6  5       21 -.116194877116D+00 0.100000000000D+01
-.456794217431D-06 0.000000000000D+00 0.000000000000D+00 0.119362477759D-04 0.000000000000D+00  6 -2 2 25 23 21 21 4 0.67847710D-02 0.11140530D+00 0.29277797D+05 0.29277797D+05 0.29277797D+05 0.12160107D+01  1  2  5  3  6  5       21 -.481772210415D-03 0.100000000000D+01
0.106137336242D-03 0.000000000000D+00 -.000000000000D+00 0.119362477759D-04 0.000000000000D+00  6 -2 2 25 23 21 21 4 0.67847710D-02 0.11140530D+00 0.29277797D+05 0.29277797D+05 0.29277797D+05 0.12160107D+01  1  2  6  3  6  5       21 0.111941038519D+00 0.100000000000D+01
0.709721183963D-06 0.000000000000D+00 0.000000000000D+00 0.119362477759D-04 0.157815957523D-03  6 -2 2 25 23 21 21 4 0.67847710D-02 0.11140530D+00 0.29245774D+05 0.29245774D+05 0.29245774D+05 0.12160607D+01  1  2 11  3  6  5       21 0.748636604060D-03 0.100000000000D+01
0.104891412718D-11 0.000000000000D+00 0.000000000000D+00 0.119372298946D-04 0.000000000000D+00  6 -2 2 25 23 1 -1 4 0.67847710D-02 0.11140530D+00 0.29245774D+05 0.29245774D+05 0.29245774D+05 0.12160607D+01  1  2 12  6  6  5       21 0.110642816907D-08 0.100000000000D+01
0.104891412718D-11 0.000000000000D+00 0.000000000000D+00 0.119372298946D-04 0.000000000000D+00  6 -2 2 25 23 3 -3 4 0.67847710D-02 0.11140530D+00 0.29245774D+05 0.29245774D+05 0.29245774D+05 0.12160607D+01  1  2 12  6  6  5       21 0.110642816907D-08 0.100000000000D+01
0.104675996542D-11 0.000000000000D+00 0.000000000000D+00 0.119372298946D-04 0.000000000000D+00  6 -2 2 25 23 1 -1 4 0.67847710D-02 0.11140530D+00 0.29245774D+05 0.29245774D+05 0.29245774D+05 0.12160607D+01  1  2 12  6  6  5       21 0.110415589035D-08 0.100000000000D+01
0.104675996542D-11 0.000000000000D+00 0.000000000000D+00 0.119372298946D-04 0.000000000000D+00  6 -2 2 25 23 3 -3 4 0.67847710D-02 0.11140530D+00 0.29245774D+05 0.29245774D+05 0.29245774D+05 0.12160607D+01  1  2 12  6  6  5       21 0.110415589035D-08 0.100000000000D+01
-.391505423185D-05 0.000000000000D+00 0.000000000000D+00 0.119362477759D-04 0.000000000000D+00  6 -2 2 25 23 1 -1 4 0.67847710D-02 0.11140530D+00 0.29277797D+05 0.29277797D+05 0.29277797D+05 0.12160107D+01  1  2  5  6  6  5       21 -.412913355554D-02 0.100000000000D+01
-.391505423185D-05 0.000000000000D+00 0.000000000000D+00 0.119362477759D-04 0.000000000000D+00  6 -2 2 25 23 3 -3 4 0.67847710D-02 0.11140530D+00 0.29277797D+05 0.29277797D+05 0.29277797D+05 0.12160107D+01  1  2  5  6  6  5       21 -.412913355554D-02 0.100000000000D+01
0.423031836894D-05 0.000000000000D+00 0.000000000000D+00 0.119362477759D-04 0.473486517605D-06  6 -2 2 25 23 1 -1 4 0.67847710D-02 0.11140530D+00 0.29245774D+05 0.29245774D+05 0.29245774D+05 0.12160607D+01  1  2 11  6  6  5       21 0.446227511504D-02 0.100000000000D+01
0.423031836894D-05 0.000000000000D+00 0.000000000000D+00 0.119362477759D-04 0.473486517605D-06  6 -2 2 25 23 3 -3 4 0.67847710D-02 0.11140530D+00 0.29245774D+05 0.29245774D+05 0.29245774D+05 0.12160607D+01  1  2 11  6  6  5       21 0.446227511504D-02 0.100000000000D+01
0.104891412718D-11 0.000000000000D+00 0.000000000000D+00 0.119372298946D-04 0.000000000000D+00  6 -2 2 25 23 2 -2 4 0.67847710D-02 0.11140530D+00 0.29245774D+05 0.29245774D+05 0.29245774D+05 0.12160607D+01  1  2 12  7  6  5       21 0.110642816907D-08 0.100000000000D+01
0.104675996542D-11 0.000000000000D+00 0.000000000000D+00 0.119372298946D-04 0.000000000000D+00  6 -2 2 25 23 2 -2 4 0.67847710D-02 0.11140530D+00 0.29245774D+05 0.29245774D+05 0.29245774D+05 0.12160607D+01  1  2 12  7  6  5       21 0.110415589035D-08 0.100000000000D+01
-.391505423185D-05 0.000000000000D+00 0.000000000000D+00 0.119362477759D-04 0.000000000000D+00  6 -2 2 25 23 2 -2 4 0.67847710D-02 0.11140530D+00 0.29277797D+05 0.29277797D+05 0.29277797D+05 0.12160107D+01  1  2  5  7  6  5       21 -.412913355554D-02 0.100000000000D+01
0.424330743185D-05 0.000000000000D+00 0.000000000000D+00 0.119362477759D-04 0.487103707899D-06  6 -2 2 25 23 2 -2 4 0.67847710D-02 0.11140530D+00 0.29245774D+05 0.29245774D+05 0.29245774D+05 0.12160607D+01  1  2 11  7  6  5       21 0.447597639403D-02 0.100000000000D+01
0.104891412718D-11 0.000000000000D+00 0.000000000000D+00 0.119372298946D-04 0.000000000000D+00  6 -2 2 25 23 4 -4 4 0.67847710D-02 0.11140530D+00 0.29245774D+05 0.29245774D+05 0.29245774D+05 0.12160607D+01  1  2 12  8  6  5       21 0.110642816907D-08 0.100000000000D+01
0.104675996542D-11 0.000000000000D+00 0.000000000000D+00 0.119372298946D-04 0.000000000000D+00  6 -2 2 25 23 4 -4 4 0.67847710D-02 0.11140530D+00 0.29245774D+05 0.29245774D+05 0.29245774D+05 0.12160607D+01  1  2 12  8  6  5       21 0.110415589035D-08 0.100000000000D+01
-.391505423185D-05 0.000000000000D+00 0.000000000000D+00 0.119362477759D-04 0.000000000000D+00  6 -2 2 25 23 4 -4 4 0.67847710D-02 0.11140530D+00 0.29277797D+05 0.29277797D+05 0.29277797D+05 0.12160107D+01  1  2  5  8  6  5       21 -.412913355554D-02 0.100000000000D+01
0.423059036330D-05 0.000000000000D+00 0.000000000000D+00 0.119362477759D-04 0.473516961096D-06  6 -2 2 25 23 4 -4 4 0.67847710D-02 0.11140530D+00 0.29245774D+05 0.29245774D+05 0.29245774D+05 0.12160607D+01  1  2 11  8  6  5       21 0.446256202339D-02 0.100000000000D+01
  </mgrwgt>
  </event>
  <event>
  5     66 0.42934962E-03 0.34362873E+02 0.75467711E-02 0.12051499E+00
       -2 -1    0    0    0  501 0.00000000E+00 0.00000000E+00 0.52994612E+02 0.52995578E+02 0.32000000E+00 0.0000E+00 0.9000E+01
        2 -1    0    0  502    0 -.00000000E+00 -.00000000E+00 -.45960061E+03 0.45960072E+03 0.32000000E+00 0.0000E+00 0.9000E+01
       25  1    1    2    0    0 -.53192439E+02 0.28146561E+02 -.27569732E+03 0.30863518E+03 0.12500000E+03 0.0000E+00 0.9000E+01
       23  1    1    2    0    0 0.76835193E+02 -.23136327E+01 -.11431140E+03 0.16520093E+03 0.91188000E+02 0.0000E+00 0.9000E+01
       21  1    1    2  502  501 -.23642754E+02 -.25832928E+02 -.16597282E+02 0.38760189E+02 0.75000000E+00 0.0000E+00 0.9000E+01
#aMCatNLO 1  0  0  5  2 0.59553971D+01 0.00000000D+00  -5  6  0 0.00000000D+00 0.00000000D+00 0.00000000D+00 0.00000000D+00 0.00000000D+00
  <mgrwgt>
 0.4833398998D-01   25    2    0
 0.156066114825617D+03 0.000000000000000D+00 0.000000000000000D+00 0.156066114825617D+03
 0.156066114825617D+03 -.000000000000000D+00 -.000000000000000D+00 -.156066114825617D+03
 0.147710386537675D+03 -.531906577618068D+02 0.281485073306454D+02 -.507126587060110D+02
 0.122389997490416D+03 0.768366692603163D+02 -.231201980470175D+01 0.274743692030843D+02
 0.420318456231430D+02 -.236460114985095D+02 -.258364875259437D+02 0.232382895029268D+02
 0.000000000000000D+00 0.000000000000000D+00 -.000000000000000D+00 0.000000000000000D+00
 0.156066114825617D+03 0.000000000000000D+00 0.000000000000000D+00 0.156066114825617D+03
 0.156066114825617D+03 -.000000000000000D+00 -.000000000000000D+00 -.156066114825617D+03
 0.147578315587980D+03 -.539340872305353D+02 0.273362094005513D+02 -.499820479972914D+02
 0.122156677254062D+03 0.762209897467559D+02 -.298473351259637D+01 0.280794327157210D+02
 0.901951016507892D+01 -.451294566690008D+01 0.133314742201942D+00 0.780814396672355D+01
 0.333777266441136D+02 -.177739568493206D+02 -.244847906301569D+02 0.140944713148468D+02
0.406406239472D-04 0.000000000000D+00 0.000000000000D+00 0.950890571898D-05 0.000000000000D+00  6 -2 2 25 23 21 21 2 0.81531001D-02 0.70707869D-01 0.21465491D+05 0.21465491D+05 0.21465491D+05 0.12304593D+01  1  2  2  3  6  5       21 0.372538353821D-01 0.100000000000D+01
0.345963897526D-05 0.214466464703D-05 -.156070696879D-06 0.950890571898D-05 0.000000000000D+00  6 -2 2 25 23 21 21 4 0.81531001D-02 0.70707869D-01 0.21465491D+05 0.21465491D+05 0.21465491D+05 0.12304593D+01  1  2  3  3  6  5       21 0.480148879351D-02 0.100000000000D+01
0.168428470877D-05 0.000000000000D+00 0.000000000000D+00 0.950890571898D-05 0.000000000000D+00  6 -2 2 25 23 21 21 4 0.81531001D-02 0.70707869D-01 0.21465491D+05 0.21465491D+05 0.21465491D+05 0.12304593D+01  1  2 15  3  6  5       21 0.233754857430D-02 0.100000000000D+01
0.412264130680D-05 0.000000000000D+00 0.000000000000D+00 0.951145469515D-05 0.000000000000D+00  6 -2 2 25 23 21 21 4 0.81531001D-02 0.70707869D-01 0.21390971D+05 0.21390971D+05 0.21390971D+05 0.12306242D+01  1  2 12  3  6  5       21 0.572415501126D-02 0.100000000000D+01
0.444057832901D-05 0.000000000000D+00 0.000000000000D+00 0.951145469515D-05 0.000000000000D+00  6 -2 2 25 23 21 21 4 0.81531001D-02 0.70707869D-01 0.21390971D+05 0.21390971D+05 0.21390971D+05 0.12306242D+01  1  2 12  3  6  5       21 0.616560035261D-02 0.100000000000D+01
-.714649708590D-04 0.000000000000D+00 0.000000000000D+00 0.950890571898D-05 0.000000000000D+00  6 -2 2 25 23 21 21 4 0.81531001D-02 0.70707869D-01 0.21465491D+05 0.21465491D+05 0.21465491D+05 0.12304593D+01  1  2  4  3  6  5       21 -.991832555830D-01 0.100000000000D+01
-.937963451844D-05 0.000000000000D+00 0.000000000000D+00 0.950890571898D-05 0.000000000000D+00  6 -2 2 25 23 21 21 4 0.81531001D-02 0.70707869D-01 0.21465491D+05 0.21465491D+05 0.21465491D+05 0.12304593D+01  1  2  5  3  6  5       21 -.130176039609D-01 0.100000000000D+01
0.692546128449D-04 0.000000000000D+00 -.000000000000D+00 0.950890571898D-05 0.000000000000D+00  6 -2 2 25 23 21 21 4 0.81531001D-02 0.70707869D-01 0.21465491D+05 0.21465491D+05 0.21465491D+05 0.12304593D+01  1  2  6  3  6  5       21 0.961155917862D-01 0.100000000000D+01
0.383649572062D-05 0.000000000000D+00 0.000000000000D+00 0.950890571898D-05 0.380477432011D-05  6 -2 2 25 23 21 21 4 0.81531001D-02 0.70707869D-01 0.21390971D+05 0.21390971D+05 0.21390971D+05 0.12306242D+01  1  2 11  3  6  5       21 0.532685105751D-02 0.100000000000D+01
0.844982595126D-06 0.000000000000D+00 0.000000000000D+00 0.951145469515D-05 0.000000000000D+00  6 -2 2 25 23 1 -1 4 0.81531001D-02 0.70707869D-01 0.21390971D+05 0.21390971D+05 0.21390971D+05 0.12306242D+01  1  2 12  6  6  5       21 0.117323118757D-02 0.100000000000D+01
0.844982595126D-06 0.000000000000D+00 0.000000000000D+00 0.951145469515D-05 0.000000000000D+00  6 -2 2 25 23 3 -3 4 0.81531001D-02 0.70707869D-01 0.21390971D+05 0.21390971D+05 0.21390971D+05 0.12306242D+01  1  2 12  6  6  5       21 0.117323118757D-02 0.100000000000D+01
0.883486856585D-06 0.000000000000D+00 0.000000000000D+00 0.951145469515D-05 0.000000000000D+00  6 -2 2 25 23 1 -1 4 0.81531001D-02 0.70707869D-01 0.21390971D+05 0.21390971D+05 0.21390971D+05 0.12306242D+01  1  2 12  6  6  5       21 0.122669311763D-02 0.100000000000D+01
0.883486856585D-06 0.000000000000D+00 0.000000000000D+00 0.951145469515D-05 0.000000000000D+00  6 -2 2 25 23 3 -3 4 0.81531001D-02 0.70707869D-01 0.21390971D+05 0.21390971D+05 0.21390971D+05 0.12306242D+01  1  2 12  6  6  5       21 0.122669311763D-02 0.100000000000D+01
-.176227703465D-05 0.000000000000D+00 0.000000000000D+00 0.950890571898D-05 0.000000000000D+00  6 -2 2 25 23 1 -1 4 0.81531001D-02 0.70707869D-01 0.21465491D+05 0.21465491D+05 0.21465491D+05 0.12304593D+01  1  2  5  6  6  5       21 -.244579087397D-02 0.100000000000D+01
-.176227703465D-05 0.000000000000D+00 0.000000000000D+00 0.950890571898D-05 0.000000000000D+00  6 -2 2 25 23 3 -3 4 0.81531001D-02 0.70707869D-01 0.21465491D+05 0.21465491D+05 0.21465491D+05 0.12304593D+01  1  2  5  6  6  5       21 -.244579087397D-02 0.100000000000D+01
0.537514021346D-06 0.000000000000D+00 0.000000000000D+00 0.950890571898D-05 0.456754007338D-07  6 -2 2 25 23 1 -1 4 0.81531001D-02 0.70707869D-01 0.21390971D+05 0.21390971D+05 0.21390971D+05 0.12306242D+01  1  2 11  6  6  5       21 0.746320950559D-03 0.100000000000D+01
0.537514021346D-06 0.000000000000D+00 0.000000000000D+00 0.950890571898D-05 0.456754007338D-07  6 -2 2 25 23 3 -3 4 0.81531001D-02 0.70707869D-01 0.21390971D+05 0.21390971D+05 0.21390971D+05 0.12306242D+01  1  2 11  6  6  5       21 0.746320950559D-03 0.100000000000D+01
0.844982595126D-06 0.000000000000D+00 0.000000000000D+00 0.951145469515D-05 0.000000000000D+00  6 -2 2 25 23 2 -2 4 0.81531001D-02 0.70707869D-01 0.21390971D+05 0.21390971D+05 0.21390971D+05 0.12306242D+01  1  2 12  7  6  5       21 0.117323118757D-02 0.100000000000D+01
0.883486856585D-06 0.000000000000D+00 0.000000000000D+00 0.951145469515D-05 0.000000000000D+00  6 -2 2 25 23 2 -2 4 0.81531001D-02 0.70707869D-01 0.21390971D+05 0.21390971D+05 0.21390971D+05 0.12306242D+01  1  2 12  7  6  5       21 0.122669311763D-02 0.100000000000D+01
-.176227703465D-05 0.000000000000D+00 0.000000000000D+00 0.950890571898D-05 0.000000000000D+00  6 -2 2 25 23 2 -2 4 0.81531001D-02 0.70707869D-01 0.21465491D+05 0.21465491D+05 0.21465491D+05 0.12304593D+01  1  2  5  7  6  5       21 -.244579087397D-02 0.100000000000D+01
0.542077477761D-06 0.000000000000D+00 0.000000000000D+00 0.950890571898D-05 0.468198846669D-07  6 -2 2 25 23 2 -2 4 0.81531001D-02 0.70707869D-01 0.21390971D+05 0.21390971D+05 0.21390971D+05 0.12306242D+01  1  2 11  7  6  5       21 0.752657163186D-03 0.100000000000D+01
0.844982595126D-06 0.000000000000D+00 0.000000000000D+00 0.951145469515D-05 0.000000000000D+00  6 -2 2 25 23 4 -4 4 0.81531001D-02 0.70707869D-01 0.21390971D+05 0.21390971D+05 0.21390971D+05 0.12306242D+01  1  2 12  8  6  5       21 0.117323118757D-02 0.100000000000D+01
0.883486856585D-06 0.000000000000D+00 0.000000000000D+00 0.951145469515D-05 0.000000000000D+00  6 -2 2 25 23 4 -4 4 0.81531001D-02 0.70707869D-01 0.21390971D+05 0.21390971D+05 0.21390971D+05 0.12306242D+01  1  2 12  8  6  5       21 0.122669311763D-02 0.100000000000D+01
-.176227703465D-05 0.000000000000D+00 0.000000000000D+00 0.950890571898D-05 0.000000000000D+00  6 -2 2 25 23 4 -4 4 0.81531001D-02 0.70707869D-01 0.21465491D+05 0.21465491D+05 0.21465491D+05 0.12304593D+01  1  2  5  8  6  5       21 -.244579087397D-02 0.100000000000D+01
0.538684254306D-06 0.000000000000D+00 0.000000000000D+00 0.950890571898D-05 0.457748415991D-07  6 -2 2 25 23 4 -4 4 0.81531001D-02 0.70707869D-01 0.21390971D+05 0.21390971D+05 0.21390971D+05 0.12306242D+01  1  2 11  8  6  5       21 0.747945781430D-03 0.100000000000D+01
  </mgrwgt>
  </event>
  <event>
  5     66 0.42934962E-03 0.22736183E+02 0.75467711E-02 0.11750143E+00
       -2 -1    0    0    0  501 0.00000000E+00 0.00000000E+00 0.15175847E+02 0.15179221E+02 0.32000000E+00 0.0000E+00 0.9000E+01
        2 -1    0    0  502    0 0.00000000E+00 0.00000000E+00 -.19781708E+04 0.19781708E+04 0.32000000E+00 0.0000E+00 0.9000E+01
       25  1    1    2    0    0 -.69902293E+02 0.66693676E+02 -.11886263E+04 0.11990796E+04 0.12500000E+03 0.0000E+00 0.9000E+01
       23  1    1    2    0    0 0.51180243E+02 -.53799316E+02 -.34871947E+03 0.36801400E+03 0.91188000E+02 0.0000E+00 0.9000E+01
       21  1    1    2  502  501 0.18722050E+02 -.12894360E+02 -.42564912E+03 0.42625640E+03 0.75000000E+00 0.0000E+00 0.9000E+01
#aMCatNLO 1  0  0  2  5 0.47891968D+02 0.00000000D+00  -5  6  0 0.00000000D+00 0.00000000D+00 0.00000000D+00 0.00000000D+00 0.00000000D+00
  <mgrwgt>
 0.1033624813D+00    4    2    0
 0.173273786854970D+03 0.000000000000000D+00 0.000000000000000D+00 0.173273786854970D+03
 0.173273786854970D+03 0.000000000000000D+00 0.000000000000000D+00 -.173273786854970D+03
 0.164243061226652D+03 -.699037945213982D+02 0.666947100880923D+02 -.449005380689040D+02
 0.141528430438504D+03 0.511789495088811D+02 -.537984247013500D+02 0.787495390793307D+02
 0.407760820447840D+02 0.187248450125171D+02 -.128962853867424D+02 -.338490010104267D+02
 0.000000000000000D+00 0.000000000000000D+00 -.000000000000000D+00 0.000000000000000D+00
 0.215183081575089D+03 0.000000000000000D+00 0.000000000000000D+00 0.215183081575089D+03
 0.189162394929268D+03 0.000000000000000D+00 0.000000000000000D+00 -.189162394929268D+03
 0.179125570990709D+03 -.858468738364197D+02 0.841143633179500D+02 -.449005380689040D+02
 0.132613823094922D+03 0.384501464628434D+02 -.398907390709951D+02 0.787495390793307D+02
 0.381018005359852D+02 0.150624361021129D+02 -.889468118315095D+01 -.338490010104267D+02
 0.545042818827412D+02 0.323342912714634D+02 -.353289430638039D+02 0.260206866458204D+02
0.151790904953D-03 0.000000000000D+00 0.000000000000D+00 0.184606366875D-04 0.000000000000D+00  6 -2 2 25 23 21 21 2 0.23350072D-02 0.30433422D+00 0.22248497D+05 0.22248497D+05 0.22248497D+05 0.12287643D+01  1  2  2  2  6  2        2 0.107024006859D+00 0.100000000000D+01
0.242918877906D-04 0.801022612292D-05 -.582917042483D-06 0.184606366875D-04 0.000000000000D+00  6 -2 2 25 23 21 21 4 0.23350072D-02 0.30433422D+00 0.22248497D+05 0.22248497D+05 0.22248497D+05 0.12287643D+01  1  2  3  2  6  2        2 0.258603215627D-01 0.100000000000D+01
0.249685802662D-05 0.000000000000D+00 0.000000000000D+00 0.184606366875D-04 0.000000000000D+00  6 -2 2 25 23 21 21 4 0.23350072D-02 0.30433422D+00 0.22248497D+05 0.22248497D+05 0.22248497D+05 0.12287643D+01  1  2 15  2  6  2        2 0.265807054690D-02 0.100000000000D+01
-.302281991053D-04 0.000000000000D+00 0.000000000000D+00 0.184606366875D-04 0.000000000000D+00  6 -2 2 25 23 21 21 4 0.23350072D-02 0.30433422D+00 0.22248497D+05 0.22248497D+05 0.22248497D+05 0.12287643D+01  1  2  4  2  6  2        2 -.321799176689D-01 0.100000000000D+01
  </mgrwgt>
  </event>
  <event>
  5     66 0.42934962E-03 0.43948409E+02 0.75467711E-02 0.12209421E+00
       -2 -1    0    0    0  501 0.00000000E+00 0.00000000E+00 0.56173921E+02 0.56174833E+02 0.32000000E+00 0.0000E+00 0.9000E+01
        2 -1    0    0  502    0 -.00000000E+00 -.00000000E+00 -.37837795E+03 0.37837809E+03 0.32000000E+00 0.0000E+00 0.9000E+01
       25  1    1    2    0    0 0.27583194E+02 0.99074247E+01 -.82716194E+02 0.15272838E+03 0.12500000E+03 0.0000E+00 0.9000E+01
       23  1    1    2    0    0 -.26329399E+02 0.36807383E+02 -.16647664E+03 0.19513519E+03 0.91188000E+02 0.0000E+00 0.9000E+01
       21  1    1    2  502  501 -.12537950E+01 -.46714808E+02 -.73011195E+02 0.86689344E+02 0.75000000E+00 0.0000E+00 0.9000E+01
#aMCatNLO 1  0  0  5  1 0.16382208D+02 0.00000000D+00  -5  6  0 0.00000000D+00 0.00000000D+00 0.00000000D+00 0.00000000D+00 0.00000000D+00
  <mgrwgt>
 0.1653618510D+00    9    2    0
 0.145791634528031D+03 0.000000000000000D+00 0.000000000000000D+00 0.145791634528031D+03
 0.145791634528031D+03 -.000000000000000D+00 -.000000000000000D+00 -.145791634528031D+03
 0.136212215334139D+03 0.275832637533513D+02 0.991003270325991D+01 0.454942020346256D+02
 0.106855495541565D+03 -.263293438100365D+02 0.368094290992488D+02 -.324757935600294D+02
 0.485155581803585D+02 -.125391994331480D+01 -.467194618025087D+02 -.130184084745963D+02
 0.000000000000000D+00 0.000000000000000D+00 0.000000000000000D+00 0.000000000000000D+00
 0.145791634528031D+03 0.000000000000000D+00 0.000000000000000D+00 0.145791634528031D+03
 0.145791634528031D+03 -.000000000000000D+00 -.000000000000000D+00 -.145791634528031D+03
 0.134563308118039D+03 0.271997375133556D+02 -.437966706208077D+01 0.415123678835619D+02
 0.104635271446924D+03 -.266288991672668D+02 0.256483775947509D+02 -.355858278345201D+02
 0.341880083774020D+02 0.119566548540153D+02 -.264479133739080D+02 -.180656082012625D+02
 0.181966811136976D+02 -.125274932001041D+02 0.517920284123782D+01 0.121390681522207D+02
0.831896457627D-04 0.000000000000D+00 0.000000000000D+00 0.609473743232D-05 0.000000000000D+00  6 -2 2 25 23 21 21 2 0.86422223D-02 0.58212073D-01 0.19172193D+05 0.19172193D+05 0.19172193D+05 0.12358523D+01  1  2  2  3  6  5       21 0.863363983319D-01 0.100000000000D+01
0.149164004723D-05 0.439003821639D-05 -.319470144066D-06 0.609473743232D-05 0.000000000000D+00  6 -2 2 25 23 21 21 4 0.86422223D-02 0.58212073D-01 0.19172193D+05 0.19172193D+05 0.19172193D+05 0.12358523D+01  1  2  3  3  6  5       21 0.236440460809D-02 0.100000000000D+01
0.481479088583D-05 0.000000000000D+00 0.000000000000D+00 0.609473743232D-05 0.000000000000D+00  6 -2 2 25 23 21 21 4 0.86422223D-02 0.58212073D-01 0.19172193D+05 0.19172193D+05 0.19172193D+05 0.12358523D+01  1  2 15  3  6  5       21 0.763194430087D-02 0.100000000000D+01
0.626912235461D-04 0.000000000000D+00 0.000000000000D+00 0.612247211120D-05 0.000000000000D+00  6 -2 2 25 23 21 21 4 0.86422223D-02 0.58212073D-01 0.18087437D+05 0.18087437D+05 0.18087437D+05 0.12386610D+01  1  2 12  3  6  5       21 0.100099614828D+00 0.100000000000D+01
-.235495787820D-04 0.000000000000D+00 0.000000000000D+00 0.609473743232D-05 0.000000000000D+00  6 -2 2 25 23 21 21 4 0.86422223D-02 0.58212073D-01 0.19172193D+05 0.19172193D+05 0.19172193D+05 0.12358523D+01  1  2  4  3  6  5       21 -.373285315676D-01 0.100000000000D+01
0.979831341546D-06 0.000000000000D+00 0.000000000000D+00 0.612247211120D-05 0.000000000000D+00  6 -2 2 25 23 1 -1 4 0.86422223D-02 0.58212073D-01 0.18087437D+05 0.18087437D+05 0.18087437D+05 0.12386610D+01  1  2 12  6  6  5       21 0.156450511470D-02 0.100000000000D+01
0.979831341546D-06 0.000000000000D+00 0.000000000000D+00 0.612247211120D-05 0.000000000000D+00  6 -2 2 25 23 3 -3 4 0.86422223D-02 0.58212073D-01 0.18087437D+05 0.18087437D+05 0.18087437D+05 0.12386610D+01  1  2 12  6  6  5       21 0.156450511470D-02 0.100000000000D+01
0.979831341546D-06 0.000000000000D+00 0.000000000000D+00 0.612247211120D-05 0.000000000000D+00  6 -2 2 25 23 2 -2 4 0.86422223D-02 0.58212073D-01 0.18087437D+05 0.18087437D+05 0.18087437D+05 0.12386610D+01  1  2 12  7  6  5       21 0.156450511470D-02 0.100000000000D+01
0.979831341546D-06 0.000000000000D+00 0.000000000000D+00 0.612247211120D-05 0.000000000000D+00  6 -2 2 25 23 4 -4 4 0.86422223D-02 0.58212073D-01 0.18087437D+05 0.18087437D+05 0.18087437D+05 0.12386610D+01  1  2 12  8  6  5       21 0.156450511470D-02 0.100000000000D+01
  </mgrwgt>
  </event>
  <event>
  5     66 -.42934962E-03 0.20814249E+02 0.75467711E-02 0.11011624E+00
       -4 -1    0    0    0  501 0.00000000E+00 0.00000000E+00 0.23592555E+03 0.23593064E+03 0.15500000E+01 0.0000E+00 0.9000E+01
        4 -1    0    0  502    0 -.00000000E+00 -.00000000E+00 -.40079669E+03 0.40079968E+03 0.15500000E+01 0.0000E+00 0.9000E+01
       25  1    1    2    0    0 0.12704563E+03 -.18576480E+03 0.19615215E+02 0.25818386E+03 0.12500000E+03 0.0000E+00 0.9000E+01
       23  1    1    2    0    0 -.13719104E+03 0.20393642E+03 -.21674167E+03 0.34015238E+03 0.91188000E+02 0.0000E+00 0.9000E+01
       21  1    1    2  502  501 0.10145412E+02 -.18171619E+02 0.32255311E+02 0.38394071E+02 0.75000000E+00 0.0000E+00 0.9000E+01
#aMCatNLO 1  0  0  5  1 0.16382208D+02 0.00000000D+00  -5  6  0 0.00000000D+00 0.00000000D+00 0.00000000D+00 0.00000000D+00 0.00000000D+00
  <mgrwgt>
 -.1702347137D-01    1    2    0
 0.307507320259186D+03 0.000000000000000D+00 0.000000000000000D+00 0.307507320259186D+03
 0.307507320259186D+03 -.000000000000000D+00 -.000000000000000D+00 -.307507320259186D+03
 0.272556841420694D+03 0.127045086169892D+03 -.185763830784908D+03 0.895185849833782D+02
 0.294061620761325D+03 -.137191620794348D+03 0.203937460004773D+03 -.133210198751441D+03
 0.483961783363522D+02 0.101465346244559D+02 -.181736292198655D+02 0.436916137680628D+02
 0.000000000000000D+00 -.000000000000000D+00 0.000000000000000D+00 0.000000000000000D+00
 0.307507320259186D+03 0.000000000000000D+00 0.000000000000000D+00 0.307507320259186D+03
 0.307507320259186D+03 -.000000000000000D+00 -.000000000000000D+00 -.307507320259186D+03
 0.281900236962642D+03 0.129992673150195D+03 -.191043303516830D+03 0.102211079185364D+03
 0.282991410367772D+03 -.134123909933014D+03 0.198442831364442D+03 -.120000443592034D+03
 0.224517705795397D+02 0.141754914502328D+02 -.161691009583737D+02 -.645736931718940D+01
 0.276712226084177D+02 -.100442546674138D+02 0.876957311076151D+01 0.242467337238596D+02
-.263128747261D-02 0.000000000000D+00 0.000000000000D+00 0.149758678645D-04 0.000000000000D+00  6 -4 4 25 23 21 21 4 0.36296860D-01 0.61661651D-01 0.73010697D+05 0.73010697D+05 0.73010697D+05 0.11763339D+01  1  2 14  3  6  5       21 -.170234713700D-01 0.100000000000D+01
  </mgrwgt>
  </event>
  <event>
  5     66 0.42934962E-03 0.46318872E+02 0.75467711E-02 0.11221492E+00
       -2 -1    0    0    0  501 0.00000000E+00 0.00000000E+00 0.49223245E+03 0.49223255E+03 0.32000000E+00 0.0000E+00 0.9000E+01
        2 -1    0    0  502    0 0.00000000E+00 0.00000000E+00 -.66391606E+02 0.66392377E+02 0.32000000E+00 0.0000E+00 0.9000E+01
       25  1    1    2    0    0 -.11843663E+03 -.54224327E+02 0.26332730E+03 0.31927070E+03 0.12500000E+03 0.0000E+00 0.9000E+01
       23  1    1    2    0    0 0.80831629E+02 0.27190426E+02 0.92416185E+02 0.15533536E+03 0.91188000E+02 0.0000E+00 0.9000E+01
       21  1    1    2  502  501 0.37605003E+02 0.27033901E+02 0.70097359E+02 0.84018869E+02 0.75000000E+00 0.0000E+00 0.9000E+01
#aMCatNLO 1  0  0  2  5 0.95589784D+02 0.00000000D+00  -5  6  0 0.00000000D+00 0.00000000D+00 0.00000000D+00 0.00000000D+00 0.00000000D+00
  <mgrwgt>
 0.3945253667D-01    3    2    0
 0.180777064079442D+03 0.000000000000000D+00 0.000000000000000D+00 0.180777064079442D+03
 0.180777064079442D+03 0.000000000000000D+00 0.000000000000000D+00 -.180777064079442D+03
 0.183147577138251D+03 -.118439032084184D+03 -.542260522683849D+02 0.308182729230546D+02
 0.131153778572858D+03 0.808299103683290D+02 0.271891905181429D+02 -.401663515738521D+02
 0.472527724477744D+02 0.376091217158545D+02 0.270368617502420D+02 0.934807865079750D+01
 0.000000000000000D+00 -.000000000000000D+00 -.000000000000000D+00 0.000000000000000D+00
 0.342070062201021D+03 0.000000000000000D+00 0.000000000000000D+00 0.342070062201021D+03
 0.206396720707610D+03 0.000000000000000D+00 0.000000000000000D+00 -.206396720707610D+03
 0.168134132857662D+03 -.108018504659948D+03 -.513062733656671D+01 0.308182729230546D+02
 0.149273655077300D+03 0.891485950015069D+02 0.663819626603473D+02 -.401663515738521D+02
 0.592147868725536D+02 0.407674077584207D+02 0.419168566874845D+02 0.934807865079750D+01
 0.171844208101116D+03 -.218974980999795D+02 -.103168192011265D+03 0.135673341493411D+03
0.231696954700D-03 0.000000000000D+00 0.000000000000D+00 0.467170579429D-05 0.000000000000D+00  6 -2 2 25 23 21 21 2 0.75728136D-01 0.10214160D-01 0.30924411D+05 0.30924411D+05 0.30924411D+05 0.12135175D+01  1  2  2  2  6  2        2 0.337487191312D-01 0.100000000000D+01
0.181342964139D-04 0.122269842169D-04 -.889777313258D-06 0.467170579429D-05 0.000000000000D+00  6 -2 2 25 23 21 21 4 0.75728136D-01 0.10214160D-01 0.30924411D+05 0.30924411D+05 0.30924411D+05 0.12135175D+01  1  2  3  2  6  2        2 0.388982247521D-02 0.100000000000D+01
0.845681888984D-05 0.000000000000D+00 0.000000000000D+00 0.467170579429D-05 0.000000000000D+00  6 -2 2 25 23 21 21 4 0.75728136D-01 0.10214160D-01 0.30924411D+05 0.30924411D+05 0.30924411D+05 0.12135175D+01  1  2 15  2  6  2        2 0.181399506414D-02 0.100000000000D+01
  </mgrwgt>
  </event>
  <event>
  5     66 0.42934962E-03 0.23066342E+02 0.75467711E-02 0.82487161E-01
       -2 -1    0    0    0  501 0.00000000E+00 0.00000000E+00 0.81261583E+02 0.81262213E+02 0.32000000E+00 0.0000E+00 0.9000E+01
        2 -1    0    0  502    0 0.00000000E+00 0.00000000E+00 -.31915869E+03 0.31915885E+03 0.32000000E+00 0.0000E+00 0.9000E+01
       25  1    1    2    0    0 -.71447854E+02 0.61686246E+02 -.88215244E+02 0.17976907E+03 0.12500000E+03 0.0000E+00 0.9000E+01
       23  1    1    2    0    0 0.63336565E+02 -.83267277E+02 -.13263475E+03 0.19196924E+03 0.91188000E+02 0.0000E+00 0.9000E+01
       21  1    1    2  502  501 0.81112892E+01 0.21581032E+02 -.17047114E+02 0.28682757E+02 0.75000000E+00 0.0000E+00 0.9000E+01
#aMCatNLO 1  0  0  2  5 0.18848986D+01 0.00000000D+00  -5  6  0 0.00000000D+00 0.00000000D+00 0.00000000D+00 0.00000000D+00 0.00000000D+00
  <mgrwgt>
 0.4252759223D+00    3    2    0
 0.161045019633854D+03 0.000000000000000D+00 0.000000000000000D+00 0.161045019633854D+03
 0.161045019633854D+03 0.000000000000000D+00 0.000000000000000D+00 -.161045019633854D+03
 0.158330796595306D+03 -.714499634729822D+02 0.616806335544211D+02 0.231093771992838D+02
 0.140692899018091D+03 0.633346907423646D+02 -.832722638496089D+02 -.231016776889640D+02
 0.230663436543124D+02 0.811527273061766D+01 0.215916302951878D+02 -.769951031975324D-02
 0.000000000000000D+00 -.000000000000000D+00 -.000000000000000D+00 0.000000000000000D+00
 0.107361003902727D+05 0.000000000000000D+00 0.000000000000000D+00 0.107361003902727D+05
 0.173508425021351D+04 0.000000000000000D+00 0.000000000000000D+00 -.173508425021351D+04
 0.171149860250695D+04 0.631313230304845D+03 0.158572129591261D+04 0.231093771992838D+02
 0.853364369555430D+03 0.436944636760005D+03 0.726953363550483D+03 -.231016776889640D+02
 0.426669064704077D+03 0.177145394989185D+03 0.388157184334253D+03 -.769951031975324D-02
 0.947965260371979D+04 -.124540326205403D+04 -.270083184379735D+04 0.900101614005924D+04
0.426959282313D-03 0.000000000000D+00 0.000000000000D+00 0.199880346402D-04 0.000000000000D+00  6 -2 2 25 23 21 21 2 0.12501843D-01 0.49101397D-01 0.25358155D+05 0.25358155D+05 0.25358155D+05 0.12226359D+01  1  2  2  2  6  2        2 0.292415901653D+00 0.100000000000D+01
0.111527097534D-03 0.225312603391D-04 -.163963606504D-05 0.199880346402D-04 0.000000000000D+00  6 -2 2 25 23 21 21 4 0.12501843D-01 0.49101397D-01 0.25358155D+05 0.25358155D+05 0.25358155D+05 0.12226359D+01  1  2  3  2  6  2        2 0.114179778829D+00 0.100000000000D+01
0.182462532073D-04 0.000000000000D+00 0.000000000000D+00 0.199880346402D-04 0.000000000000D+00  6 -2 2 25 23 21 21 4 0.12501843D-01 0.49101397D-01 0.25358155D+05 0.25358155D+05 0.25358155D+05 0.12226359D+01  1  2 15  2  6  2        2 0.186802418582D-01 0.100000000000D+01
  </mgrwgt>
  </event>
  <event>
  6     66 -.42934962E-03 0.20913422E+02 0.75467711E-02 0.11555124E+00
       -2 -1    0    0    0  503 0.00000000E+00 0.00000000E+00 0.10103674E+03 0.10103724E+03 0.32000000E+00 0.0000E+00 0.9000E+01
        2 -1    0    0  502    0 0.00000000E+00 0.00000000E+00 -.85755851E+03 0.85755857E+03 0.32000000E+00 0.0000E+00 0.9000E+01
       25  1    1    2    0    0 0.13176264E+03 -.30519766E+02 -.45031117E+03 0.48651618E+03 0.12500000E+03 0.0000E+00 0.9000E+01
       23  1    1    2    0    0 -.78170680E+02 -.12660653E+02 0.11434705E+02 0.12131344E+03 0.91188000E+02 0.0000E+00 0.9000E+01
       21  1    1    2  502  501 -.12696948E+02 0.38463111E+02 -.30502343E+03 0.30770193E+03 0.75000000E+00 0.0000E+00 0.9000E+01
       21  1    1    2  501  503 -.40895016E+02 0.47173073E+01 -.12621880E+02 0.43064251E+02 0.75000000E+00 0.0000E+00 0.9000E+01
#aMCatNLO 2  0  0  1  5 0.41166192D+02 0.00000000D+00  -5  6  0 0.00000000D+00 0.00000000D+00 0.00000000D+00 0.00000000D+00 0.00000000D+00
  <mgrwgt>
 -.4836565362D-01    2    2    0
 0.266043384350188D+03 0.000000000000000D+00 0.000000000000000D+00 0.266043384350188D+03
 0.266043384350188D+03 0.000000000000000D+00 0.000000000000000D+00 -.266043384350188D+03
 0.197151954419561D+03 0.116257522419934D+03 -.287315786447522D+02 -.943534737082391D+02
 0.230620370332827D+03 -.956169938617112D+02 -.106486063198479D+02 0.188718047723964D+03
 0.104314443947990D+03 -.206405285582231D+02 0.393801849646001D+02 -.943645740157253D+02
 0.000000000000000D+00 -.000000000000000D+00 0.000000000000000D+00 0.000000000000000D+00
 0.314164870584867D+03 0.000000000000000D+00 0.000000000000000D+00 0.314164870584867D+03
 0.275790374486104D+03 0.000000000000000D+00 0.000000000000000D+00 -.275790374486104D+03
 0.206931144028251D+03 0.131762822499177D+03 -.305201404826331D+02 -.943534737082391D+02
 0.224055050843451D+03 -.781703872823351D+02 -.126611010519020D+02 0.188718047723964D+03
 0.102690659366769D+03 -.126974191899788D+02 0.384639342491963D+02 -.943645740157253D+02
 0.562783908325003D+02 -.408950160268632D+02 0.471730728533879D+01 0.383744960987626D+02
-.320113582373D-03 0.000000000000D+00 0.000000000000D+00 0.293882232832D-05 0.000000000000D+00  6 -2 2 25 23 21 21 4 0.16169000D-01 0.12726825D+00 0.37367424D+05 0.37367424D+05 0.37367424D+05 0.12050144D+01  1  2 13  1  6  1       -2 -.694140287931D-01 0.100000000000D+01
0.952445280306D-04 0.000000000000D+00 0.000000000000D+00 0.298245549220D-05 0.808700498556D-08  6 -2 2 25 23 21 21 4 0.15544019D-01 0.13193095D+00 0.37367424D+05 0.37367424D+05 0.37367424D+05 0.12050144D+01  1  2  1  1  6  1       -2 0.210483751687D-01 0.100000000000D+01
  </mgrwgt>
  </event>
  <event>
  6     66 0.42934962E-03 0.74299578E+02 0.75467711E-02 0.11417260E+00
       21 -1    0    0  503  501 0.00000000E+00 0.00000000E+00 0.43204064E+03 0.43204129E+03 0.75000000E+00 0.0000E+00 0.9000E+01
        2 -1    0    0  502    0 0.00000000E+00 0.00000000E+00 -.16288280E+03 0.16288312E+03 0.32000000E+00 0.0000E+00 0.9000E+01
       25  1    1    2    0    0 -.27129808E+02 -.33500742E+02 -.49647777E+02 0.14123820E+03 0.12500000E+03 0.0000E+00 0.9000E+01
       23  1    1    2    0    0 -.26328548E+02 -.34767287E+02 0.55131446E+02 0.11513768E+03 0.91188000E+02 0.0000E+00 0.9000E+01
        2  1    1    2  503    0 0.60957871E+02 -.43109260E+02 0.31701852E+02 0.81113378E+02 0.32000000E+00 0.0000E+00 0.9000E+01
       21  1    1    2  502  501 -.74995150E+01 0.11137729E+03 0.23197231E+03 0.25743516E+03 0.75000000E+00 0.0000E+00 0.9000E+01
#aMCatNLO 2  0  0  1  1 0.74661036D+02 0.00000000D+00  -5  6  0 0.00000000D+00 0.00000000D+00 0.00000000D+00 0.00000000D+00 0.00000000D+00
  <mgrwgt>
 0.1777865019D-01    1    2    0
 0.224745500331284D+03 0.000000000000000D+00 0.000000000000000D+00 0.224745500331284D+03
 0.224745500331284D+03 0.000000000000000D+00 0.000000000000000D+00 -.224745500331284D+03
 0.187210771166064D+03 -.205346454495569D+01 -.512351566984578D+02 -.129590180345732D+03
 0.102252595740566D+03 -.126333148981495D+02 -.444527887392887D+02 0.216585310396463D+01
 0.000000000000000D+00 0.000000000000000D+00 -.000000000000000D+00 -.000000000000000D+00
 0.160027633755938D+03 0.146867794431052D+02 0.956879454377464D+02 0.127424327241768D+03
 0.262036062483461D+03 0.000000000000000D+00 0.000000000000000D+00 0.262036062483461D+03
 0.268558822123848D+03 0.000000000000000D+00 0.000000000000000D+00 -.268558822123848D+03
 0.185140418189396D+03 -.271299435315067D+02 -.335011308657232D+02 -.129590180345732D+03
 0.101103499437263D+03 -.263285977206404D+02 -.347675175538516D+02 0.216585310396463D+01
 0.749454250270370D+02 0.609578709025920D+02 -.431092601905889D+02 -.652275964038696D+01
 0.169405541953612D+03 -.749932965044478D+01 0.111377908610164D+03 0.127424327241768D+03
0.158737334201D-04 0.000000000000D+00 0.000000000000D+00 0.205848354278D-05 0.629888554208D-09  6 21 2 25 23 2 21 4 0.66467779D-01 0.25058935D-01 0.44015219D+05 0.44015219D+05 0.44015219D+05 0.11978043D+01  1  2  1  4  5  1       -2 0.177786501856D-01 0.100000000000D+01
  </mgrwgt>
  </event>
</LesHouchesEvents>
