<event>
 5    0  0.1911311E+001  0.2460697E+03  0.7546771E-02  0.1115814E+00
         21   -1    0    0  502  501  0.00000000000E+00  0.00000000000E+00  0.10947131545E+04  0.10947131545E+04  0.00000000000E+00 0.  1.
         21   -1    0    0  504  502 -0.00000000000E+00 -0.00000000000E+00 -0.59003577460E+03  0.59003577460E+03  0.00000000000E+00 0.  1.
         25    1    1    2    0    0 -0.70482510091E+02  0.20805634877E+03 -0.43871775929E+03  0.50631363877E+03  0.12500000000E+03 0.  0.
         21    1    1    2  503  501  0.91929332291E+02 -0.19083035713E+03  0.10485556337E+04  0.10697364836E+04  0.00000000000E+00 0.  1.
         21    1    1    2  504  503 -0.21446822200E+02 -0.17225991639E+02 -0.10516049454E+03  0.10869880672E+03  0.00000000000E+00 0.  1.
<mgrwt>
<rscale>  4 0.24606965E+03</rscale>
<asrwt>0</asrwt>
<pdfrwt beam="1">  1       21 0.16841741E+00 0.24606965E+03</pdfrwt>
<pdfrwt beam="2">  1       21 0.90774735E-01 0.24606965E+03</pdfrwt>
<totfact> 0.21207571E+02</totfact>
</mgrwt>
</event>
<event>
 5    0  0.1911311E+001  0.1948769E+03  0.7546771E-02  0.1154135E+00
         21   -1    0    0  502  501  0.00000000000E+00  0.00000000000E+00  0.11424083317E+04  0.11424083317E+04  0.00000000000E+00 0.  1.
         21   -1    0    0  504  502 -0.00000000000E+00 -0.00000000000E+00 -0.96438084197E+02  0.96438084197E+02  0.00000000000E+00 0.  1.
         25    1    1    2    0    0  0.16613208381E+03 -0.14537931790E+03  0.72348916978E+03  0.76667893811E+03  0.12500000000E+03 0.  0.
         21    1    1    2  503  501 -0.24983730256E+02  0.11518984924E+03  0.30473999012E+03  0.32674049293E+03  0.00000000000E+00 0.  1.
         21    1    1    2  504  503 -0.14114835355E+03  0.30189468663E+02  0.17741087571E+02  0.14542698483E+03  0.00000000000E+00 0.  1.
<mgrwt>
<rscale>  4 0.19487692E+03</rscale>
<asrwt>0</asrwt>
<pdfrwt beam="1">  1       21 0.17575512E+00 0.19487692E+03</pdfrwt>
<pdfrwt beam="2">  1       21 0.14836629E-01 0.19487692E+03</pdfrwt>
<totfact> 0.77721454E+03</totfact>
</mgrwt>
</event>
<event>
 5    0  0.1911311E+001  0.2302726E+03  0.7546771E-02  0.1126448E+00
         21   -1    0    0  502  501  0.00000000000E+00  0.00000000000E+00  0.41960346782E+03  0.41960346782E+03  0.00000000000E+00 0. -1.
         21   -1    0    0  504  502 -0.00000000000E+00 -0.00000000000E+00 -0.16367377706E+03  0.16367377706E+03  0.00000000000E+00 0. -1.
         25    1    1    2    0    0 -0.21289154504E+03 -0.45309106077E+01  0.25062636630E+03  0.35182654048E+03  0.12500000000E+03 0.  0.
         21    1    1    2  503  501  0.26217383209E+02 -0.19312192766E+02  0.26617113051E+02  0.42056898114E+02  0.00000000000E+00 0.  1.
         21    1    1    2  504  503  0.18667416183E+03  0.23843103373E+02 -0.21313788593E+02  0.18939380628E+03  0.00000000000E+00 0. -1.
<mgrwt>
<rscale>  4 0.23027256E+03</rscale>
<asrwt>0</asrwt>
<pdfrwt beam="1">  1       21 0.64554379E-01 0.23027256E+03</pdfrwt>
<pdfrwt beam="2">  1       21 0.25180581E-01 0.23027256E+03</pdfrwt>
<totfact> 0.32415455E+04</totfact>
</mgrwt>
</event>
