<event>
 5    0  0.1257040E+001  0.2747888E+03  0.7546771E-02  0.1098570E+00
         21   -1    0    0  502  501  0.00000000000E+00  0.00000000000E+00  0.15413181632E+03  0.15413181632E+03  0.00000000000E+00 0.  1.
         21   -1    0    0  504  502 -0.00000000000E+00 -0.00000000000E+00 -0.65790295295E+03  0.65790295295E+03  0.00000000000E+00 0.  1.
         25    1    1    2    0    0 -0.18537884894E+03  0.97556484342E+02 -0.99354174919E+02  0.26339862821E+03  0.12500000000E+03 0.  0.
         21    1    1    2  503  501 -0.31337485257E+02  0.48507462132E+02  0.10084829496E+02  0.58623507663E+02  0.00000000000E+00 0.  1.
         21    1    1    2  504  503  0.21671633420E+03 -0.14606394647E+03 -0.41450179121E+03  0.49001263339E+03  0.00000000000E+00 0.  1.
<mgrwt>
<rscale>  4 0.27478881E+03</rscale>
<asrwt>0</asrwt>
<pdfrwt beam="1">  1       21 0.23712587E-01 0.27478881E+03</pdfrwt>
<pdfrwt beam="2">  1       21 0.10121584E+00 0.27478881E+03</pdfrwt>
<totfact> 0.12738096E+04</totfact>
</mgrwt>
</event>
<event>
 5    0  0.1257040E+001  0.2517783E+03  0.7546771E-02  0.1112186E+00
         21   -1    0    0  503  501  0.00000000000E+00  0.00000000000E+00  0.65025925526E+03  0.65025925526E+03  0.00000000000E+00 0.  1.
         21   -1    0    0  504  502 -0.00000000000E+00 -0.00000000000E+00 -0.13480327178E+03  0.13480327178E+03  0.00000000000E+00 0. -1.
         25    1    1    2    0    0  0.18537763168E+03 -0.93888737812E+02  0.37840133198E+03  0.44943579014E+03  0.12500000000E+03 0.  0.
         21    1    1    2  503  502  0.31656467249E+02 -0.21194532401E+01 -0.31367685116E+02  0.44615643784E+02  0.00000000000E+00 0. -1.
         21    1    1    2  504  501 -0.21703409893E+03  0.96008191052E+02  0.16842233661E+03  0.29101109312E+03  0.00000000000E+00 0.  1.
<mgrwt>
<rscale>  4 0.25177834E+03</rscale>
<asrwt>0</asrwt>
<pdfrwt beam="1">  1       21 0.10003988E+00 0.25177834E+03</pdfrwt>
<pdfrwt beam="2">  1       21 0.20738965E-01 0.25177834E+03</pdfrwt>
<totfact> 0.17095426E+04</totfact>
</mgrwt>
</event>
<event>
 5    0  0.1257040E+001  0.4349542E+03  0.7546771E-02  0.1032306E+00
         21   -1    0    0  504  501  0.00000000000E+00  0.00000000000E+00  0.14107600205E+04  0.14107600205E+04  0.00000000000E+00 0.  1.
         21   -1    0    0  503  502 -0.00000000000E+00 -0.00000000000E+00 -0.35071733091E+03  0.35071733091E+03  0.00000000000E+00 0. -1.
         25    1    1    2    0    0 -0.35432910193E+03  0.34838677471E+03  0.10053409970E+04  0.11283873349E+04  0.12500000000E+03 0.  0.
         21    1    1    2  503  501  0.22587637428E+03 -0.33767542445E+03 -0.11290101507E+03  0.42165325558E+03  0.00000000000E+00 0. -1.
         21    1    1    2  504  502  0.12845272764E+03 -0.10711350268E+02  0.16760270762E+03  0.21143676091E+03  0.00000000000E+00 0.  1.
<mgrwt>
<rscale>  4 0.43495419E+03</rscale>
<asrwt>0</asrwt>
<pdfrwt beam="1">  1       21 0.21704000E+00 0.43495419E+03</pdfrwt>
<pdfrwt beam="2">  1       21 0.53956513E-01 0.43495419E+03</pdfrwt>
<totfact> 0.27816743E+02</totfact>
</mgrwt>
</event>
<event>
 5    0  0.1257040E+001  0.2384899E+03  0.7546771E-02  0.1120803E+00
         21   -1    0    0  502  501  0.00000000000E+00  0.00000000000E+00  0.17200122525E+03  0.17200122525E+03  0.00000000000E+00 0.  1.
         21   -1    0    0  504  502 -0.00000000000E+00 -0.00000000000E+00 -0.49969245203E+03  0.49969245203E+03  0.00000000000E+00 0.  1.
         25    1    1    2    0    0 -0.18223047126E+03  0.11486893299E+03 -0.33814335073E+03  0.41996278652E+03  0.12500000000E+03 0.  0.
         21    1    1    2  503  501  0.33322291000E+02 -0.10672759639E+02  0.54463896383E+02  0.64734835174E+02  0.00000000000E+00 0.  1.
         21    1    1    2  504  503  0.14890818026E+03 -0.10419617335E+03 -0.44011772435E+02  0.18699605558E+03  0.00000000000E+00 0.  1.
<mgrwt>
<rscale>  4 0.23848987E+03</rscale>
<asrwt>0</asrwt>
<pdfrwt beam="1">  1       21 0.26461727E-01 0.23848987E+03</pdfrwt>
<pdfrwt beam="2">  1       21 0.76875760E-01 0.23848987E+03</pdfrwt>
<totfact> 0.19914125E+04</totfact>
</mgrwt>
</event>
<event>
 5    0  0.1257040E+001  0.2971054E+03  0.7546771E-02  0.1086697E+00
         21   -1    0    0  502  501  0.00000000000E+00  0.00000000000E+00  0.37633347628E+03  0.37633347628E+03  0.00000000000E+00 0. -1.
         21   -1    0    0  504  502 -0.00000000000E+00 -0.00000000000E+00 -0.34320231056E+03  0.34320231056E+03  0.00000000000E+00 0. -1.
         25    1    1    2    0    0  0.23532104432E+03  0.99364444220E+02  0.20607100331E+03  0.35119730221E+03  0.12500000000E+03 0.  0.
         21    1    1    2  503  501  0.20423227178E+02 -0.35348378048E+01  0.23938158824E+02  0.31664471171E+02  0.00000000000E+00 0. -1.
         21    1    1    2  504  503 -0.25574427150E+03 -0.95829606415E+02 -0.19687799641E+03  0.33667401346E+03  0.00000000000E+00 0. -1.
<mgrwt>
<rscale>  4 0.29710537E+03</rscale>
<asrwt>0</asrwt>
<pdfrwt beam="1">  1       21 0.57897458E-01 0.29710537E+03</pdfrwt>
<pdfrwt beam="2">  1       21 0.52800355E-01 0.29710537E+03</pdfrwt>
<totfact> 0.89525699E+03</totfact>
</mgrwt>
</event>
<event>
 5    0  0.1257040E+001  0.2340923E+03  0.7546771E-02  0.1123792E+00
         21   -1    0    0  502  501  0.00000000000E+00  0.00000000000E+00  0.54699348268E+02  0.54699348268E+02  0.00000000000E+00 0. -1.
         21   -1    0    0  504  502 -0.00000000000E+00 -0.00000000000E+00 -0.15498589327E+04  0.15498589327E+04  0.00000000000E+00 0. -1.
         25    1    1    2    0    0 -0.61950073298E+02 -0.20987671247E+03 -0.37037630973E+03  0.44798399171E+03  0.12500000000E+03 0.  0.
         21    1    1    2  503  501  0.37541870364E+02  0.17668204288E+02 -0.52447194141E+02  0.66875000160E+02  0.00000000000E+00 0. -1.
         21    1    1    2  504  503  0.24408202934E+02  0.19220850818E+03 -0.10723360805E+04  0.10896992891E+04  0.00000000000E+00 0. -1.
<mgrwt>
<rscale>  4 0.23409234E+03</rscale>
<asrwt>0</asrwt>
<pdfrwt beam="1">  1       21 0.84152833E-02 0.23409234E+03</pdfrwt>
<pdfrwt beam="2">  1       21 0.23843987E+00 0.23409234E+03</pdfrwt>
<totfact> 0.82442976E+03</totfact>
</mgrwt>
</event>
<event>
 5    0  0.1257040E+001  0.2166668E+03  0.7546771E-02  0.1136393E+00
         21   -1    0    0  502  501  0.00000000000E+00  0.00000000000E+00  0.17079374740E+03  0.17079374740E+03  0.00000000000E+00 0. -1.
         21   -1    0    0  504  502 -0.00000000000E+00 -0.00000000000E+00 -0.38324635435E+03  0.38324635435E+03  0.00000000000E+00 0. -1.
         25    1    1    2    0    0  0.19820604348E+03  0.35634937737E+02 -0.14175985078E+02  0.23744776902E+03  0.12500000000E+03 0.  0.
         21    1    1    2  503  501 -0.39370782601E+02  0.27923712440E+02  0.76518650089E+01  0.48870679115E+02  0.00000000000E+00 0. -1.
         21    1    1    2  504  503 -0.15883526088E+03 -0.63558650177E+02 -0.20592848687E+03  0.26772165362E+03  0.00000000000E+00 0. -1.
<mgrwt>
<rscale>  4 0.21666677E+03</rscale>
<asrwt>0</asrwt>
<pdfrwt beam="1">  1       21 0.26275961E-01 0.21666677E+03</pdfrwt>
<pdfrwt beam="2">  1       21 0.58960977E-01 0.21666677E+03</pdfrwt>
<totfact> 0.36586678E+04</totfact>
</mgrwt>
</event>
<event>
 5    0  0.1257040E+001  0.2689386E+03  0.7546771E-02  0.1101889E+00
         21   -1    0    0  502  501  0.00000000000E+00  0.00000000000E+00  0.44659520654E+03  0.44659520654E+03  0.00000000000E+00 0.  1.
         21   -1    0    0  504  502 -0.00000000000E+00 -0.00000000000E+00 -0.21850564077E+03  0.21850564077E+03  0.00000000000E+00 0.  1.
         25    1    1    2    0    0 -0.17079378014E+03 -0.18471670515E+03  0.22016994013E+03  0.35691816854E+03  0.12500000000E+03 0.  0.
         21    1    1    2  503  501  0.23550419676E+02  0.29251831170E+01  0.63448161294E+02  0.67741037302E+02  0.00000000000E+00 0. -1.
         21    1    1    2  504  503  0.14724336047E+03  0.18179152203E+03 -0.55528535654E+02  0.24044164147E+03  0.00000000000E+00 0.  1.
<mgrwt>
<rscale>  4 0.26893863E+03</rscale>
<asrwt>0</asrwt>
<pdfrwt beam="1">  1       21 0.68706955E-01 0.26893863E+03</pdfrwt>
<pdfrwt beam="2">  1       21 0.33616253E-01 0.26893863E+03</pdfrwt>
<totfact> 0.15776911E+04</totfact>
</mgrwt>
</event>
<event>
 5    0  0.1257040E+001  0.3433845E+03  0.7546771E-02  0.1065364E+00
         21   -1    0    0  503  501  0.00000000000E+00  0.00000000000E+00  0.23104072435E+03  0.23104072435E+03  0.00000000000E+00 0. -1.
         21   -1    0    0  501  502 -0.00000000000E+00 -0.00000000000E+00 -0.52380209019E+03  0.52380209019E+03  0.00000000000E+00 0.  1.
         25    1    1    2    0    0 -0.56481869962E+02  0.31479789322E+03 -0.21709075336E+03  0.40625276664E+03  0.12500000000E+03 0.  0.
         21    1    1    2  503  504  0.10192411424E+02 -0.16831842012E+03 -0.95345699238E+02  0.19371571481E+03  0.00000000000E+00 0.  1.
         21    1    1    2  504  502  0.46289458538E+02 -0.14647947310E+03  0.19675086763E+02  0.15487433309E+03  0.00000000000E+00 0. -1.
<mgrwt>
<rscale>  4 0.34338450E+03</rscale>
<asrwt>0</asrwt>
<pdfrwt beam="1">  1       21 0.35544727E-01 0.34338450E+03</pdfrwt>
<pdfrwt beam="2">  1       21 0.80584936E-01 0.34338450E+03</pdfrwt>
<totfact> 0.95337090E+03</totfact>
</mgrwt>
</event>
<event>
 5    0  0.1257040E+001  0.5442771E+03  0.7546771E-02  0.1002827E+00
         21   -1    0    0  502  501  0.00000000000E+00  0.00000000000E+00  0.79366049669E+03  0.79366049669E+03  0.00000000000E+00 0. -1.
         21   -1    0    0  504  502 -0.00000000000E+00 -0.00000000000E+00 -0.49271862404E+03  0.49271862404E+03  0.00000000000E+00 0.  1.
         25    1    1    2    0    0 -0.34465633024E+03 -0.40227421685E+03 -0.16832978162E+03  0.56971260026E+03  0.12500000000E+03 0.  0.
         21    1    1    2  503  501  0.24059043481E+02  0.11691190533E+02 -0.45466019563E+00  0.26753097488E+02  0.00000000000E+00 0.  1.
         21    1    1    2  504  503  0.32059728676E+03  0.39058302631E+03  0.46972631446E+03  0.68991342298E+03  0.00000000000E+00 0. -1.
<mgrwt>
<rscale>  4 0.54427707E+03</rscale>
<asrwt>0</asrwt>
<pdfrwt beam="1">  1       21 0.12210161E+00 0.54427707E+03</pdfrwt>
<pdfrwt beam="2">  1       21 0.75802865E-01 0.54427707E+03</pdfrwt>
<totfact> 0.63630769E+02</totfact>
</mgrwt>
</event>
<event>
 5    0  0.1257040E+001  0.2393384E+03  0.7546771E-02  0.1120234E+00
         21   -1    0    0  502  501  0.00000000000E+00  0.00000000000E+00  0.17744168849E+03  0.17744168849E+03  0.00000000000E+00 0.  1.
         21   -1    0    0  504  502 -0.00000000000E+00 -0.00000000000E+00 -0.71678665187E+03  0.71678665187E+03  0.00000000000E+00 0.  1.
         25    1    1    2    0    0  0.17443328422E+03 -0.14321436688E+03 -0.48548637366E+01  0.25804242912E+03  0.12500000000E+03 0.  0.
         21    1    1    2  503  501 -0.52269778721E+01  0.34197016850E+02  0.24281797068E+02  0.42265386879E+02  0.00000000000E+00 0.  1.
         21    1    1    2  504  503 -0.16920630634E+03  0.10901735003E+03 -0.55877189671E+03  0.59392052437E+03  0.00000000000E+00 0.  1.
<mgrwt>
<rscale>  4 0.23933843E+03</rscale>
<asrwt>0</asrwt>
<pdfrwt beam="1">  1       21 0.27298721E-01 0.23933843E+03</pdfrwt>
<pdfrwt beam="2">  1       21 0.11027487E+00 0.23933843E+03</pdfrwt>
<totfact> 0.80447553E+03</totfact>
</mgrwt>
</event>
<event>
 5    0  0.1257040E+001  0.2591003E+03  0.7546771E-02  0.1107685E+00
         21   -1    0    0  504  501  0.00000000000E+00  0.00000000000E+00  0.27216571009E+03  0.27216571009E+03  0.00000000000E+00 0.  1.
         21   -1    0    0  501  502 -0.00000000000E+00 -0.00000000000E+00 -0.33118800769E+03  0.33118800769E+03  0.00000000000E+00 0.  1.
         25    1    1    2    0    0  0.10209147197E+02  0.24076984155E+03  0.11141605605E+03  0.29344996308E+03  0.12500000000E+03 0.  0.
         21    1    1    2  503  502 -0.15551016578E+02 -0.17503684663E+02  0.72494630798E+01  0.24510565239E+02  0.00000000000E+00 0. -1.
         21    1    1    2  504  503  0.53418693818E+01 -0.22326615688E+03 -0.17768781673E+03  0.28539318946E+03  0.00000000000E+00 0.  1.
<mgrwt>
<rscale>  4 0.25910028E+03</rscale>
<asrwt>0</asrwt>
<pdfrwt beam="1">  1       21 0.41871648E-01 0.25910028E+03</pdfrwt>
<pdfrwt beam="2">  1       21 0.50952001E-01 0.25910028E+03</pdfrwt>
<totfact> 0.19406592E+04</totfact>
</mgrwt>
</event>
<event>
 5    0  0.1257040E+001  0.3039466E+03  0.7546771E-02  0.1083284E+00
         21   -1    0    0  504  501  0.00000000000E+00  0.00000000000E+00  0.65135055051E+03  0.65135055051E+03  0.00000000000E+00 0.  1.
         21   -1    0    0  503  502 -0.00000000000E+00 -0.00000000000E+00 -0.26724178037E+03  0.26724178037E+03  0.00000000000E+00 0.  1.
         25    1    1    2    0    0 -0.27309521638E+03 -0.76892333043E+02  0.42835475598E+03  0.52877804896E+03  0.12500000000E+03 0.  0.
         21    1    1    2  503  501  0.25378555473E+03  0.10896375461E+03 -0.12321053666E+03  0.30242527003E+03  0.00000000000E+00 0.  1.
         21    1    1    2  504  502  0.19309661653E+02 -0.32071421567E+02  0.78964550816E+02  0.87389011895E+02  0.00000000000E+00 0.  1.
<mgrwt>
<rscale>  4 0.30394657E+03</rscale>
<asrwt>0</asrwt>
<pdfrwt beam="1">  1       21 0.10020778E+00 0.30394657E+03</pdfrwt>
<pdfrwt beam="2">  1       21 0.41114120E-01 0.30394657E+03</pdfrwt>
<totfact> 0.43285819E+03</totfact>
</mgrwt>
</event>
<event>
 5    0  0.1257040E+001  0.2613051E+03  0.7546771E-02  0.1106362E+00
         21   -1    0    0  503  501  0.00000000000E+00  0.00000000000E+00  0.16633774463E+04  0.16633774463E+04  0.00000000000E+00 0.  1.
         21   -1    0    0  501  502 -0.00000000000E+00 -0.00000000000E+00 -0.40921086309E+02  0.40921086309E+02  0.00000000000E+00 0.  1.
         25    1    1    2    0    0 -0.13902185152E+03  0.18256034846E+03  0.58270914068E+03  0.63861592422E+03  0.12500000000E+03 0.  0.
         21    1    1    2  503  504  0.79665461929E+02 -0.13806042728E+03  0.69516507022E+03  0.71320525956E+03  0.00000000000E+00 0.  1.
         21    1    1    2  504  502  0.59356389593E+02 -0.44499921175E+02  0.34458214910E+03  0.35247734884E+03  0.00000000000E+00 0.  1.
<mgrwt>
<rscale>  4 0.26130510E+03</rscale>
<asrwt>0</asrwt>
<pdfrwt beam="1">  1       21 0.25590417E+00 0.26130510E+03</pdfrwt>
<pdfrwt beam="2">  1       21 0.62955530E-02 0.26130510E+03</pdfrwt>
<totfact> 0.10525993E+04</totfact>
</mgrwt>
</event>
<event>
 5    0  0.1257040E+001  0.2544630E+03  0.7546771E-02  0.1110516E+00
         21   -1    0    0  504  501  0.00000000000E+00  0.00000000000E+00  0.36613182375E+03  0.36613182375E+03  0.00000000000E+00 0.  1.
         21   -1    0    0  503  502 -0.00000000000E+00 -0.00000000000E+00 -0.39839152424E+03  0.39839152424E+03  0.00000000000E+00 0.  1.
         25    1    1    2    0    0  0.22608072551E+03 -0.39612420773E+02  0.22653412151E+03  0.34586752744E+03  0.12500000000E+03 0.  0.
         21    1    1    2  503  501 -0.22005040459E+03  0.17658006697E+02 -0.29946877446E+03  0.37204238016E+03  0.00000000000E+00 0.  1.
         21    1    1    2  504  502 -0.60303209201E+01  0.21954414077E+02  0.40674952455E+02  0.46613440391E+02  0.00000000000E+00 0.  1.
<mgrwt>
<rscale>  4 0.25446300E+03</rscale>
<asrwt>0</asrwt>
<pdfrwt beam="1">  1       21 0.56327973E-01 0.25446300E+03</pdfrwt>
<pdfrwt beam="2">  1       21 0.61291003E-01 0.25446300E+03</pdfrwt>
<totfact> 0.70483647E+03</totfact>
</mgrwt>
</event>
<event>
 5    0  0.1257040E+001  0.3473837E+03  0.7546771E-02  0.1063694E+00
         21   -1    0    0  503  501  0.00000000000E+00  0.00000000000E+00  0.12642700641E+04  0.12642700641E+04  0.00000000000E+00 0.  1.
         21   -1    0    0  504  502 -0.00000000000E+00 -0.00000000000E+00 -0.28752505860E+03  0.28752505860E+03  0.00000000000E+00 0.  1.
         25    1    1    2    0    0  0.70305187603E+02 -0.29435797985E+03 -0.47211076139E+02  0.33082219608E+03  0.12500000000E+03 0.  0.
         21    1    1    2  503  502  0.72084449967E+01 -0.23140146499E+02 -0.72710165836E+02  0.76643305482E+02  0.00000000000E+00 0. -1.
         21    1    1    2  504  501 -0.77513632600E+02  0.31749812635E+03  0.10966662475E+04  0.11443296212E+04  0.00000000000E+00 0.  1.
<mgrwt>
<rscale>  4 0.34738373E+03</rscale>
<asrwt>0</asrwt>
<pdfrwt beam="1">  1       21 0.19450308E+00 0.34738373E+03</pdfrwt>
<pdfrwt beam="2">  1       21 0.44234625E-01 0.34738373E+03</pdfrwt>
<totfact> 0.62613336E+02</totfact>
</mgrwt>
</event>
<event>
 5    0  0.1257040E+001  0.1899503E+03  0.7546771E-02  0.1158506E+00
         21   -1    0    0  504  501  0.00000000000E+00  0.00000000000E+00  0.22484487011E+03  0.22484487011E+03  0.00000000000E+00 0. -1.
         21   -1    0    0  503  502 -0.00000000000E+00 -0.00000000000E+00 -0.75598402519E+03  0.75598402519E+03  0.00000000000E+00 0.  1.
         25    1    1    2    0    0 -0.20290967963E+03  0.72876780717E+01  0.30976936937E+02  0.24043714139E+03  0.12500000000E+03 0.  0.
         21    1    1    2  503  501  0.13854227464E+03 -0.17866290400E+02 -0.63055678032E+03  0.64584442353E+03  0.00000000000E+00 0.  1.
         21    1    1    2  504  502  0.64367404990E+02  0.10578612328E+02  0.68440688307E+02  0.94547330368E+02  0.00000000000E+00 0. -1.
<mgrwt>
<rscale>  4 0.18995033E+03</rscale>
<asrwt>0</asrwt>
<pdfrwt beam="1">  1       21 0.34591519E-01 0.18995033E+03</pdfrwt>
<pdfrwt beam="2">  1       21 0.11630523E+00 0.18995033E+03</pdfrwt>
<totfact> 0.46041777E+03</totfact>
</mgrwt>
</event>
<event>
 5    0  0.1257040E+001  0.3581335E+03  0.7546771E-02  0.1059325E+00
         21   -1    0    0  503  501  0.00000000000E+00  0.00000000000E+00  0.14826143755E+03  0.14826143755E+03  0.00000000000E+00 0. -1.
         21   -1    0    0  504  502 -0.00000000000E+00 -0.00000000000E+00 -0.13836415971E+04  0.13836415971E+04  0.00000000000E+00 0. -1.
         25    1    1    2    0    0 -0.25352933544E+03 -0.28466910564E+03 -0.54824543091E+03  0.67934650669E+03  0.12500000000E+03 0.  0.
         21    1    1    2  503  502  0.23216149557E+03  0.21027400028E+03 -0.70645178804E+03  0.77277955721E+03  0.00000000000E+00 0. -1.
         21    1    1    2  504  501  0.21367839871E+02  0.74395105360E+02  0.19317059388E+02  0.79776970773E+02  0.00000000000E+00 0. -1.
<mgrwt>
<rscale>  4 0.35813347E+03</rscale>
<asrwt>0</asrwt>
<pdfrwt beam="1">  1       21 0.22809452E-01 0.35813347E+03</pdfrwt>
<pdfrwt beam="2">  1       21 0.21286793E+00 0.35813347E+03</pdfrwt>
<totfact> 0.17650515E+03</totfact>
</mgrwt>
</event>
<event>
 5    0  0.1257040E+001  0.1753725E+03  0.7546771E-02  0.1172358E+00
         21   -1    0    0  503  501  0.00000000000E+00  0.00000000000E+00  0.19784815434E+04  0.19784815434E+04  0.00000000000E+00 0.  1.
         21   -1    0    0  504  502 -0.00000000000E+00 -0.00000000000E+00 -0.10116623328E+03  0.10116623328E+03  0.00000000000E+00 0.  1.
         25    1    1    2    0    0 -0.15500801855E+03 -0.14394872764E+03  0.16445647847E+04  0.16628190079E+04  0.12500000000E+03 0.  0.
         21    1    1    2  503  502  0.98260563721E+02  0.70158221250E+02 -0.41138683625E+02  0.12755275647E+03  0.00000000000E+00 0.  1.
         21    1    1    2  504  501  0.56747454828E+02  0.73790506394E+02  0.27388920899E+03  0.28927601225E+03  0.00000000000E+00 0.  1.
<mgrwt>
<rscale>  4 0.17537254E+03</rscale>
<asrwt>0</asrwt>
<pdfrwt beam="1">  1       21 0.30438175E+00 0.17537254E+03</pdfrwt>
<pdfrwt beam="2">  1       21 0.15564037E-01 0.17537254E+03</pdfrwt>
<totfact> 0.12103198E+03</totfact>
</mgrwt>
</event>
<event>
 5    0  0.1257040E+001  0.3126410E+03  0.7546771E-02  0.1079087E+00
         21   -1    0    0  503  501  0.00000000000E+00  0.00000000000E+00  0.19155237114E+03  0.19155237114E+03  0.00000000000E+00 0. -1.
         21   -1    0    0  504  502 -0.00000000000E+00 -0.00000000000E+00 -0.12103907812E+04  0.12103907812E+04  0.00000000000E+00 0. -1.
         25    1    1    2    0    0  0.21522241193E+03 -0.22539105415E+03 -0.46550446456E+02  0.33898931835E+03  0.12500000000E+03 0.  0.
         21    1    1    2  503  502 -0.17590160555E+03  0.22206224650E+03 -0.98222396973E+03  0.10222607020E+04  0.00000000000E+00 0. -1.
         21    1    1    2  504  501 -0.39320806378E+02  0.33288076526E+01  0.99360061078E+01  0.40693132001E+02  0.00000000000E+00 0. -1.
<mgrwt>
<rscale>  4 0.31264104E+03</rscale>
<asrwt>0</asrwt>
<pdfrwt beam="1">  1       21 0.29469596E-01 0.31264104E+03</pdfrwt>
<pdfrwt beam="2">  1       21 0.18621396E+00 0.31264104E+03</pdfrwt>
<totfact> 0.16537949E+03</totfact>
</mgrwt>
</event>
<event>
 5    0  0.1257040E+001  0.2618555E+03  0.7546771E-02  0.1106034E+00
         21   -1    0    0  503  501  0.00000000000E+00  0.00000000000E+00  0.11012012925E+04  0.11012012925E+04  0.00000000000E+00 0.  1.
         21   -1    0    0  504  502 -0.00000000000E+00 -0.00000000000E+00 -0.13554814175E+03  0.13554814175E+03  0.00000000000E+00 0. -1.
         25    1    1    2    0    0  0.25562351751E+03  0.82461848400E+02  0.73893300624E+03  0.79610949426E+03  0.12500000000E+03 0.  0.
         21    1    1    2  503  502 -0.21982917001E+03 -0.44276942960E+02  0.17447397665E+02  0.22492159379E+03  0.00000000000E+00 0. -1.
         21    1    1    2  504  501 -0.35794347495E+02 -0.38184905440E+02  0.20927274682E+03  0.21571834618E+03  0.00000000000E+00 0.  1.
<mgrwt>
<rscale>  4 0.26185547E+03</rscale>
<asrwt>0</asrwt>
<pdfrwt beam="1">  1       21 0.16941558E+00 0.26185547E+03</pdfrwt>
<pdfrwt beam="2">  1       21 0.20853561E-01 0.26185547E+03</pdfrwt>
<totfact> 0.43577792E+03</totfact>
</mgrwt>
</event>
<event>
 5    0  0.1257040E+001  0.2438823E+03  0.7546771E-02  0.1117233E+00
         21   -1    0    0  502  501  0.00000000000E+00  0.00000000000E+00  0.40200256277E+03  0.40200256277E+03  0.00000000000E+00 0. -1.
         21   -1    0    0  504  502 -0.00000000000E+00 -0.00000000000E+00 -0.18005386959E+03  0.18005386959E+03  0.00000000000E+00 0. -1.
         25    1    1    2    0    0  0.23312903280E+03 -0.20537094540E+02  0.60131698255E+02  0.27205098662E+03  0.12500000000E+03 0.  0.
         21    1    1    2  503  501 -0.19926356834E+03  0.24584327975E+01  0.17907319121E+03  0.26791644475E+03  0.00000000000E+00 0. -1.
         21    1    1    2  504  503 -0.33865464460E+02  0.18078661743E+02 -0.17256196291E+02  0.42089000985E+02  0.00000000000E+00 0.  1.
<mgrwt>
<rscale>  4 0.24388231E+03</rscale>
<asrwt>0</asrwt>
<pdfrwt beam="1">  1       21 0.61846548E-01 0.24388231E+03</pdfrwt>
<pdfrwt beam="2">  1       21 0.27700595E-01 0.24388231E+03</pdfrwt>
<totfact> 0.29415616E+04</totfact>
</mgrwt>
</event>
<event>
 5    0  0.1257040E+001  0.2601168E+03  0.7546771E-02  0.1107073E+00
         21   -1    0    0  504  501  0.00000000000E+00  0.00000000000E+00  0.15353287046E+03  0.15353287046E+03  0.00000000000E+00 0.  1.
         21   -1    0    0  503  502 -0.00000000000E+00 -0.00000000000E+00 -0.85425001348E+03  0.85425001348E+03  0.00000000000E+00 0. -1.
         25    1    1    2    0    0  0.15343930830E+03 -0.15856634822E+03 -0.96165465750E+01  0.25378019246E+03  0.12500000000E+03 0.  0.
         21    1    1    2  503  501 -0.17218117354E+03  0.15148088636E+03 -0.69647327272E+03  0.73325836857E+03  0.00000000000E+00 0. -1.
         21    1    1    2  504  502  0.18741865240E+02  0.70854618569E+01  0.53726762784E+01  0.20744322905E+02  0.00000000000E+00 0. -1.
<mgrwt>
<rscale>  4 0.26011676E+03</rscale>
<asrwt>0</asrwt>
<pdfrwt beam="1">  1       21 0.23620442E-01 0.26011676E+03</pdfrwt>
<pdfrwt beam="2">  1       21 0.13142308E+00 0.26011676E+03</pdfrwt>
<totfact> 0.67740581E+03</totfact>
</mgrwt>
</event>
<event>
 5    0  0.1257040E+001  0.2477997E+03  0.7546771E-02  0.1114703E+00
         21   -1    0    0  504  501  0.00000000000E+00  0.00000000000E+00  0.22122056458E+04  0.22122056458E+04  0.00000000000E+00 0.  1.
         21   -1    0    0  503  502 -0.00000000000E+00 -0.00000000000E+00 -0.37718164768E+02  0.37718164768E+02  0.00000000000E+00 0.  1.
         25    1    1    2    0    0 -0.15877352590E+03  0.13969316973E+03  0.14178785382E+04  0.14390023500E+04  0.12500000000E+03 0.  0.
         21    1    1    2  503  501  0.17651694424E+03 -0.12280385890E+03  0.40574737574E+03  0.45920578425E+03  0.00000000000E+00 0.  1.
         21    1    1    2  504  502 -0.17743418339E+02 -0.16889310823E+02  0.35086156711E+03  0.35171567635E+03  0.00000000000E+00 0.  1.
<mgrwt>
<rscale>  4 0.24779972E+03</rscale>
<asrwt>0</asrwt>
<pdfrwt beam="1">  1       21 0.34033923E+00 0.24779972E+03</pdfrwt>
<pdfrwt beam="2">  1       21 0.58027963E-02 0.24779972E+03</pdfrwt>
<totfact> 0.39095138E+03</totfact>
</mgrwt>
</event>
<event>
 5    0  0.1257040E+001  0.2882165E+03  0.7546771E-02  0.1091284E+00
         21   -1    0    0  504  501  0.00000000000E+00  0.00000000000E+00  0.48782651108E+03  0.48782651108E+03  0.00000000000E+00 0.  1.
         21   -1    0    0  501  502 -0.00000000000E+00 -0.00000000000E+00 -0.22018473301E+03  0.22018473301E+03  0.00000000000E+00 0.  1.
         25    1    1    2    0    0 -0.15294506873E+03  0.20526689786E+03 -0.27890987765E+02  0.28623347220E+03  0.12500000000E+03 0.  0.
         21    1    1    2  503  502  0.88696105229E+01  0.21586579962E+02  0.60194537772E+02  0.64560303615E+02  0.00000000000E+00 0.  1.
         21    1    1    2  504  503  0.14407545821E+03 -0.22685347782E+03  0.23533822806E+03  0.35721746828E+03  0.00000000000E+00 0.  1.
<mgrwt>
<rscale>  4 0.28821654E+03</rscale>
<asrwt>0</asrwt>
<pdfrwt beam="1">  1       21 0.75050232E-01 0.28821654E+03</pdfrwt>
<pdfrwt beam="2">  1       21 0.33874574E-01 0.28821654E+03</pdfrwt>
<totfact> 0.12640087E+04</totfact>
</mgrwt>
</event>
<event>
 5    0  0.1257040E+001  0.5815994E+03  0.7546771E-02  0.9944334E-01
         21   -1    0    0  502  501  0.00000000000E+00  0.00000000000E+00  0.11415653102E+04  0.11415653102E+04  0.00000000000E+00 0.  1.
         21   -1    0    0  504  502 -0.00000000000E+00 -0.00000000000E+00 -0.47557168665E+03  0.47557168665E+03  0.00000000000E+00 0.  1.
         25    1    1    2    0    0 -0.17201938265E+03 -0.54075931394E+03  0.53411319389E+03  0.78924850808E+03  0.12500000000E+03 0.  0.
         21    1    1    2  503  501  0.14609782272E+03  0.55004028111E+03  0.30971906034E+03  0.64793115451E+03  0.00000000000E+00 0.  1.
         21    1    1    2  504  503  0.25921559927E+02 -0.92809671719E+01 -0.17783863063E+03  0.17995733429E+03  0.00000000000E+00 0.  1.
<mgrwt>
<rscale>  4 0.58159939E+03</rscale>
<asrwt>0</asrwt>
<pdfrwt beam="1">  1       21 0.17562543E+00 0.58159939E+03</pdfrwt>
<pdfrwt beam="2">  1       21 0.73164875E-01 0.58159939E+03</pdfrwt>
<totfact> 0.25278717E+02</totfact>
</mgrwt>
</event>
<event>
 5    0  0.1257040E+001  0.2570200E+03  0.7546771E-02  0.1108947E+00
         21   -1    0    0  502  501  0.00000000000E+00  0.00000000000E+00  0.60076169050E+03  0.60076169050E+03  0.00000000000E+00 0.  1.
         21   -1    0    0  504  502 -0.00000000000E+00 -0.00000000000E+00 -0.21410207604E+03  0.21410207604E+03  0.00000000000E+00 0.  1.
         25    1    1    2    0    0 -0.20373184253E+03  0.63889766252E+01  0.41175853522E+03  0.47614868897E+03  0.12500000000E+03 0.  0.
         21    1    1    2  503  501 -0.24105048444E+02  0.60122807891E+00  0.83004400996E+02  0.86435787845E+02  0.00000000000E+00 0. -1.
         21    1    1    2  504  503  0.22783689097E+03 -0.69902047041E+01 -0.10810332175E+03  0.25227928972E+03  0.00000000000E+00 0.  1.
<mgrwt>
<rscale>  4 0.25702000E+03</rscale>
<asrwt>0</asrwt>
<pdfrwt beam="1">  1       21 0.92424875E-01 0.25702000E+03</pdfrwt>
<pdfrwt beam="2">  1       21 0.32938781E-01 0.25702000E+03</pdfrwt>
<totfact> 0.84090336E+03</totfact>
</mgrwt>
</event>
<event>
 5    0  0.1257040E+001  0.3417599E+03  0.7546771E-02  0.1066049E+00
         21   -1    0    0  503  501  0.00000000000E+00  0.00000000000E+00  0.15776907268E+03  0.15776907268E+03  0.00000000000E+00 0. -1.
         21   -1    0    0  504  502 -0.00000000000E+00 -0.00000000000E+00 -0.87637071229E+03  0.87637071229E+03  0.00000000000E+00 0. -1.
         25    1    1    2    0    0  0.37150840810E+02  0.30105784059E+03 -0.23725225434E+03  0.40488225516E+03  0.12500000000E+03 0.  0.
         21    1    1    2  503  502  0.33203089037E+02  0.28704129510E+02 -0.15087113775E+03  0.15712565793E+03  0.00000000000E+00 0. -1.
         21    1    1    2  504  501 -0.70353929847E+02 -0.32976197010E+03 -0.33047824752E+03  0.47213187188E+03  0.00000000000E+00 0. -1.
<mgrwt>
<rscale>  4 0.34175986E+03</rscale>
<asrwt>0</asrwt>
<pdfrwt beam="1">  1       21 0.24272165E-01 0.34175986E+03</pdfrwt>
<pdfrwt beam="2">  1       21 0.13482626E+00 0.34175986E+03</pdfrwt>
<totfact> 0.57693553E+03</totfact>
</mgrwt>
</event>
<event>
 5    0  0.1257040E+001  0.2712932E+03  0.7546771E-02  0.1100542E+00
         21   -1    0    0  503  501  0.00000000000E+00  0.00000000000E+00  0.94270637645E+03  0.94270637645E+03  0.00000000000E+00 0. -1.
         21   -1    0    0  504  502 -0.00000000000E+00 -0.00000000000E+00 -0.10299564439E+03  0.10299564439E+03  0.00000000000E+00 0. -1.
         25    1    1    2    0    0  0.20609748390E+03  0.13102143723E+03  0.21200096232E+03  0.34671630753E+03  0.12500000000E+03 0.  0.
         21    1    1    2  503  502  0.60317284740E+01 -0.19076476719E+02 -0.64182891858E+01  0.21011619368E+02  0.00000000000E+00 0. -1.
         21    1    1    2  504  501 -0.21212921237E+03 -0.11194496051E+03  0.63412805893E+03  0.67797409394E+03  0.00000000000E+00 0. -1.
<mgrwt>
<rscale>  4 0.27129320E+03</rscale>
<asrwt>0</asrwt>
<pdfrwt beam="1">  1       21 0.14503174E+00 0.27129320E+03</pdfrwt>
<pdfrwt beam="2">  1       21 0.15845484E-01 0.27129320E+03</pdfrwt>
<totfact> 0.11020376E+04</totfact>
</mgrwt>
</event>
<event>
 5    0  0.1257040E+001  0.2507367E+03  0.7546771E-02  0.1112840E+00
         21   -1    0    0  504  501  0.00000000000E+00  0.00000000000E+00  0.26286343163E+03  0.26286343163E+03  0.00000000000E+00 0. -1.
         21   -1    0    0  503  502 -0.00000000000E+00 -0.00000000000E+00 -0.31521132041E+03  0.31521132041E+03  0.00000000000E+00 0. -1.
         25    1    1    2    0    0  0.20889783781E+03 -0.10355023862E+03  0.84984732304E+02  0.27786392944E+03  0.12500000000E+03 0.  0.
         21    1    1    2  503  501 -0.19801988362E+03  0.78157942878E+02 -0.15849879334E+03  0.26540988270E+03  0.00000000000E+00 0. -1.
         21    1    1    2  504  502 -0.10877954185E+02  0.25392295745E+02  0.21166172246E+02  0.34800939901E+02  0.00000000000E+00 0. -1.
<mgrwt>
<rscale>  4 0.25073666E+03</rscale>
<asrwt>0</asrwt>
<pdfrwt beam="1">  1       21 0.40440528E-01 0.25073666E+03</pdfrwt>
<pdfrwt beam="2">  1       21 0.48494049E-01 0.25073666E+03</pdfrwt>
<totfact> 0.23202262E+04</totfact>
</mgrwt>
</event>
<event>
 5    0  0.1257040E+001  0.3070433E+03  0.7546771E-02  0.1081772E+00
         21   -1    0    0  502  501  0.00000000000E+00  0.00000000000E+00  0.45756669296E+03  0.45756669296E+03  0.00000000000E+00 0. -1.
         21   -1    0    0  504  502 -0.00000000000E+00 -0.00000000000E+00 -0.65455645360E+03  0.65455645360E+03  0.00000000000E+00 0. -1.
         25    1    1    2    0    0  0.16962138911E+03 -0.20305349431E+03  0.32101641919E+03  0.43437159044E+03  0.12500000000E+03 0.  0.
         21    1    1    2  503  501  0.17606886511E+01 -0.20726689018E+02  0.44196385448E+02  0.48846864268E+02  0.00000000000E+00 0.  1.
         21    1    1    2  504  503 -0.17138207776E+03  0.22378018333E+03 -0.56220256527E+03  0.62890469185E+03  0.00000000000E+00 0. -1.
<mgrwt>
<rscale>  4 0.30704333E+03</rscale>
<asrwt>0</asrwt>
<pdfrwt beam="1">  1       21 0.70394877E-01 0.30704333E+03</pdfrwt>
<pdfrwt beam="2">  1       21 0.10070099E+00 0.30704333E+03</pdfrwt>
<totfact> 0.13538402E+03</totfact>
</mgrwt>
</event>
<event>
 5    0  0.1257040E+001  0.2706681E+03  0.7546771E-02  0.1100898E+00
         21   -1    0    0  503  501  0.00000000000E+00  0.00000000000E+00  0.45750962057E+03  0.45750962057E+03  0.00000000000E+00 0. -1.
         21   -1    0    0  504  502 -0.00000000000E+00 -0.00000000000E+00 -0.36489279865E+03  0.36489279865E+03  0.00000000000E+00 0. -1.
         25    1    1    2    0    0  0.36379154670E+01  0.25115968709E+03 -0.19238306607E+03  0.34019210302E+03  0.12500000000E+03 0.  0.
         21    1    1    2  503  502  0.48733500115E+02 -0.21886752472E+03  0.37703836808E+02  0.22737529928E+03  0.00000000000E+00 0. -1.
         21    1    1    2  504  501 -0.52371415582E+02 -0.32292162368E+02  0.24729605118E+03  0.25483501692E+03  0.00000000000E+00 0. -1.
<mgrwt>
<rscale>  4 0.27066813E+03</rscale>
<asrwt>0</asrwt>
<pdfrwt beam="1">  1       21 0.70386096E-01 0.27066813E+03</pdfrwt>
<pdfrwt beam="2">  1       21 0.56137354E-01 0.27066813E+03</pdfrwt>
<totfact> 0.51898966E+03</totfact>
</mgrwt>
</event>
<event>
 5    0  0.1257040E+001  0.2305017E+03  0.7546771E-02  0.1126287E+00
         21   -1    0    0  502  501  0.00000000000E+00  0.00000000000E+00  0.56083523932E+03  0.56083523932E+03  0.00000000000E+00 0.  1.
         21   -1    0    0  504  502 -0.00000000000E+00 -0.00000000000E+00 -0.36551010897E+03  0.36551010897E+03  0.00000000000E+00 0.  1.
         25    1    1    2    0    0 -0.22392263487E+03 -0.23613642915E+03  0.13145467111E+03  0.37256823554E+03  0.12500000000E+03 0.  0.
         21    1    1    2  503  501  0.98833453626E+02  0.11274352122E+03  0.25396298624E+03  0.29491753341E+03  0.00000000000E+00 0.  1.
         21    1    1    2  504  503  0.12508918124E+03  0.12339290793E+03 -0.19009252701E+03  0.25885957934E+03  0.00000000000E+00 0.  1.
<mgrwt>
<rscale>  4 0.23050166E+03</rscale>
<asrwt>0</asrwt>
<pdfrwt beam="1">  1       21 0.86282344E-01 0.23050166E+03</pdfrwt>
<pdfrwt beam="2">  1       21 0.56232325E-01 0.23050166E+03</pdfrwt>
<totfact> 0.33446085E+03</totfact>
</mgrwt>
</event>
<event>
 5    0  0.1257040E+001  0.2629719E+03  0.7546771E-02  0.1105371E+00
         21   -1    0    0  502  501  0.00000000000E+00  0.00000000000E+00  0.10108566114E+03  0.10108566114E+03  0.00000000000E+00 0.  1.
         21   -1    0    0  504  502 -0.00000000000E+00 -0.00000000000E+00 -0.13610010157E+04  0.13610010157E+04  0.00000000000E+00 0.  1.
         25    1    1    2    0    0 -0.26901270498E+03  0.19465234508E+02 -0.96906588426E+03  0.10136372225E+04  0.12500000000E+03 0.  0.
         21    1    1    2  503  501  0.22502184599E+03  0.17730737236E+01 -0.91026605475E+02  0.24274228694E+03  0.00000000000E+00 0.  1.
         21    1    1    2  504  503  0.43990858991E+02 -0.21238308232E+02 -0.19982286487E+03  0.20570716744E+03  0.00000000000E+00 0. -1.
<mgrwt>
<rscale>  4 0.26297192E+03</rscale>
<asrwt>0</asrwt>
<pdfrwt beam="1">  1       21 0.15551640E-01 0.26297192E+03</pdfrwt>
<pdfrwt beam="2">  1       21 0.20938477E+00 0.26297192E+03</pdfrwt>
<totfact> 0.40526476E+03</totfact>
</mgrwt>
</event>
<event>
 5    0  0.1257040E+001  0.2727176E+03  0.7546771E-02  0.1099734E+00
         21   -1    0    0  503  501  0.00000000000E+00  0.00000000000E+00  0.13390376137E+03  0.13390376137E+03  0.00000000000E+00 0.  1.
         21   -1    0    0  504  502 -0.00000000000E+00 -0.00000000000E+00 -0.73650237579E+03  0.73650237579E+03  0.00000000000E+00 0.  1.
         25    1    1    2    0    0  0.19550468703E+03 -0.17741740136E+03 -0.15269718951E+03  0.32960650576E+03  0.12500000000E+03 0.  0.
         21    1    1    2  503  502 -0.16937113656E+03  0.16347089578E+03 -0.45350807732E+03  0.51095879664E+03  0.00000000000E+00 0.  1.
         21    1    1    2  504  501 -0.26133550463E+02  0.13946505580E+02  0.36066524060E+01  0.29840834761E+02  0.00000000000E+00 0.  1.
<mgrwt>
<rscale>  4 0.27271763E+03</rscale>
<asrwt>0</asrwt>
<pdfrwt beam="1">  1       21 0.20600579E-01 0.27271763E+03</pdfrwt>
<pdfrwt beam="2">  1       21 0.11330806E+00 0.27271763E+03</pdfrwt>
<totfact> 0.12658770E+04</totfact>
</mgrwt>
</event>
<event>
 5    0  0.1257040E+001  0.2661445E+03  0.7546771E-02  0.1103507E+00
         21   -1    0    0  503  501  0.00000000000E+00  0.00000000000E+00  0.11336528655E+03  0.11336528655E+03  0.00000000000E+00 0.  1.
         21   -1    0    0  504  502 -0.00000000000E+00 -0.00000000000E+00 -0.75355790952E+03  0.75355790952E+03  0.00000000000E+00 0.  1.
         25    1    1    2    0    0 -0.19871650028E+03  0.14941848573E+03 -0.20521174499E+03  0.34576146640E+03  0.12500000000E+03 0.  0.
         21    1    1    2  503  502  0.37031942190E+02  0.11619063846E+01 -0.17999463546E+03  0.18376828769E+03  0.00000000000E+00 0. -1.
         21    1    1    2  504  501  0.16168455809E+03 -0.15058039212E+03 -0.25498624252E+03  0.33739344198E+03  0.00000000000E+00 0.  1.
<mgrwt>
<rscale>  4 0.26614445E+03</rscale>
<asrwt>0</asrwt>
<pdfrwt beam="1">  1       21 0.17440814E-01 0.26614445E+03</pdfrwt>
<pdfrwt beam="2">  1       21 0.11593198E+00 0.26614445E+03</pdfrwt>
<totfact> 0.16397084E+04</totfact>
</mgrwt>
</event>
<event>
 5    0  0.1257040E+001  0.2544723E+03  0.7546771E-02  0.1110511E+00
         21   -1    0    0  502  501  0.00000000000E+00  0.00000000000E+00  0.55269513551E+03  0.55269513551E+03  0.00000000000E+00 0. -1.
         21   -1    0    0  504  502 -0.00000000000E+00 -0.00000000000E+00 -0.16032372884E+03  0.16032372884E+03  0.00000000000E+00 0. -1.
         25    1    1    2    0    0 -0.28376201136E+02  0.24479924882E+03  0.74180281656E+02  0.28611115882E+03  0.12500000000E+03 0.  0.
         21    1    1    2  503  501  0.20052944308E+02 -0.49141315898E+02  0.17885099607E+03  0.18656009300E+03  0.00000000000E+00 0. -1.
         21    1    1    2  504  503  0.83232568281E+01 -0.19565793292E+03  0.13934012894E+03  0.24034761253E+03  0.00000000000E+00 0. -1.
<mgrwt>
<rscale>  4 0.25447229E+03</rscale>
<asrwt>0</asrwt>
<pdfrwt beam="1">  1       21 0.85030020E-01 0.25447229E+03</pdfrwt>
<pdfrwt beam="2">  1       21 0.24665189E-01 0.25447229E+03</pdfrwt>
<totfact> 0.17973373E+04</totfact>
</mgrwt>
</event>
<event>
 5    0  0.1257040E+001  0.2654721E+03  0.7546771E-02  0.1103899E+00
         21   -1    0    0  502  501  0.00000000000E+00  0.00000000000E+00  0.12196226383E+04  0.12196226383E+04  0.00000000000E+00 0.  1.
         21   -1    0    0  504  502 -0.00000000000E+00 -0.00000000000E+00 -0.20315664025E+03  0.20315664025E+03  0.00000000000E+00 0.  1.
         25    1    1    2    0    0  0.20294876899E+03  0.38215045152E+02  0.80145287289E+03  0.83701869751E+03  0.12500000000E+03 0.  0.
         21    1    1    2  503  501  0.31823881388E+02 -0.73277793312E+01  0.32360782291E+03  0.32525140864E+03  0.00000000000E+00 0.  1.
         21    1    1    2  504  503 -0.23477265038E+03 -0.30887265821E+02 -0.10859469771E+03  0.26050917244E+03  0.00000000000E+00 0.  1.
<mgrwt>
<rscale>  4 0.26547206E+03</rscale>
<asrwt>0</asrwt>
<pdfrwt beam="1">  1       21 0.18763425E+00 0.26547206E+03</pdfrwt>
<pdfrwt beam="2">  1       21 0.31254868E-01 0.26547206E+03</pdfrwt>
<totfact> 0.14887992E+03</totfact>
</mgrwt>
</event>
<event>
 5    0  0.1257040E+001  0.2803100E+03  0.7546771E-02  0.1095520E+00
         21   -1    0    0  504  501  0.00000000000E+00  0.00000000000E+00  0.46622779910E+03  0.46622779910E+03  0.00000000000E+00 0.  1.
         21   -1    0    0  503  502 -0.00000000000E+00 -0.00000000000E+00 -0.37013526673E+03  0.37013526673E+03  0.00000000000E+00 0.  1.
         25    1    1    2    0    0  0.19522835774E+03 -0.12027806540E+03 -0.24495469320E+03  0.35806246159E+03  0.12500000000E+03 0.  0.
         21    1    1    2  503  501  0.14707968480E+02 -0.22309349538E+02 -0.22503262121E+02  0.34934627802E+02  0.00000000000E+00 0.  1.
         21    1    1    2  504  502 -0.20993632622E+03  0.14258741494E+03  0.36355048769E+03  0.44336597644E+03  0.00000000000E+00 0.  1.
<mgrwt>
<rscale>  4 0.28030999E+03</rscale>
<asrwt>0</asrwt>
<pdfrwt beam="1">  1       21 0.71727354E-01 0.28030999E+03</pdfrwt>
<pdfrwt beam="2">  1       21 0.56943887E-01 0.28030999E+03</pdfrwt>
<totfact> 0.47999157E+03</totfact>
</mgrwt>
</event>
<event>
 5    0  0.1257040E+001  0.5728033E+03  0.7546771E-02  0.9963494E-01
         21   -1    0    0  502  501  0.00000000000E+00  0.00000000000E+00  0.74781048818E+03  0.74781048818E+03  0.00000000000E+00 0. -1.
         21   -1    0    0  504  502 -0.00000000000E+00 -0.00000000000E+00 -0.51736597353E+03  0.51736597353E+03  0.00000000000E+00 0. -1.
         25    1    1    2    0    0 -0.54189145988E+03 -0.21885902386E+03  0.95586019142E+02  0.60523327211E+03  0.12500000000E+03 0.  0.
         21    1    1    2  503  501  0.48470640893E+03  0.23967238270E+03  0.19458955341E+03  0.57467229634E+03  0.00000000000E+00 0. -1.
         21    1    1    2  504  503  0.57185050949E+02 -0.20813358839E+02 -0.59731057897E+02  0.85270893250E+02  0.00000000000E+00 0.  1.
<mgrwt>
<rscale>  4 0.57280330E+03</rscale>
<asrwt>0</asrwt>
<pdfrwt beam="1">  1       21 0.11504777E+00 0.57280330E+03</pdfrwt>
<pdfrwt beam="2">  1       21 0.79594765E-01 0.57280330E+03</pdfrwt>
<totfact> 0.65489219E+02</totfact>
</mgrwt>
</event>
<event>
 5    0  0.1257040E+001  0.2979953E+03  0.7546771E-02  0.1086247E+00
         21   -1    0    0  503  501  0.00000000000E+00  0.00000000000E+00  0.53806144003E+03  0.53806144003E+03  0.00000000000E+00 0.  1.
         21   -1    0    0  504  502 -0.00000000000E+00 -0.00000000000E+00 -0.19714640323E+03  0.19714640323E+03  0.00000000000E+00 0.  1.
         25    1    1    2    0    0 -0.26672443974E+03 -0.75794663904E+02  0.29811624407E+03  0.42589324109E+03  0.12500000000E+03 0.  0.
         21    1    1    2  503  502  0.11480037854E+02  0.23923891412E+02 -0.28830148939E+02  0.39183176712E+02  0.00000000000E+00 0.  1.
         21    1    1    2  504  501  0.25524440188E+03  0.51870772492E+02  0.71628941660E+02  0.27013142545E+03  0.00000000000E+00 0.  1.
<mgrwt>
<rscale>  4 0.29799535E+03</rscale>
<asrwt>0</asrwt>
<pdfrwt beam="1">  1       21 0.82778683E-01 0.29799535E+03</pdfrwt>
<pdfrwt beam="2">  1       21 0.30330216E-01 0.29799535E+03</pdfrwt>
<totfact> 0.12532996E+04</totfact>
</mgrwt>
</event>
<event>
 5    0  0.1257040E+001  0.3197234E+03  0.7546771E-02  0.1075777E+00
         21   -1    0    0  502  501  0.00000000000E+00  0.00000000000E+00  0.21270637404E+03  0.21270637404E+03  0.00000000000E+00 0.  1.
         21   -1    0    0  504  502 -0.00000000000E+00 -0.00000000000E+00 -0.75354725887E+03  0.75354725887E+03  0.00000000000E+00 0.  1.
         25    1    1    2    0    0  0.31162164871E+03  0.13294813639E+03 -0.87250968636E+02  0.37151176353E+03  0.12500000000E+03 0.  0.
         21    1    1    2  503  501 -0.75114899760E+02  0.20894642510E+02 -0.25484334113E+02  0.82026127159E+02  0.00000000000E+00 0. -1.
         21    1    1    2  504  503 -0.23650674895E+03 -0.15384277890E+03 -0.42810558208E+03  0.51271574222E+03  0.00000000000E+00 0.  1.
<mgrwt>
<rscale>  4 0.31972337E+03</rscale>
<asrwt>0</asrwt>
<pdfrwt beam="1">  1       21 0.32724057E-01 0.31972337E+03</pdfrwt>
<pdfrwt beam="2">  1       21 0.11593035E+00 0.31972337E+03</pdfrwt>
<totfact> 0.47670816E+03</totfact>
</mgrwt>
</event>
<event>
 5    0  0.1257040E+001  0.3465941E+03  0.7546771E-02  0.1064022E+00
         21   -1    0    0  503  501  0.00000000000E+00  0.00000000000E+00  0.81363432478E+03  0.81363432478E+03  0.00000000000E+00 0.  1.
         21   -1    0    0  504  502 -0.00000000000E+00 -0.00000000000E+00 -0.17412619420E+03  0.17412619420E+03  0.00000000000E+00 0.  1.
         25    1    1    2    0    0 -0.13420463379E+03 -0.29225614568E+03  0.40749401419E+03  0.53394841513E+03  0.12500000000E+03 0.  0.
         21    1    1    2  503  502  0.15646144801E+03  0.28418609270E+03  0.13066737985E+03  0.34973687846E+03  0.00000000000E+00 0.  1.
         21    1    1    2  504  501 -0.22256814222E+02  0.80700529848E+01  0.10134673653E+03  0.10407522539E+03  0.00000000000E+00 0.  1.
<mgrwt>
<rscale>  4 0.34659412E+03</rscale>
<asrwt>0</asrwt>
<pdfrwt beam="1">  1       21 0.12517451E+00 0.34659412E+03</pdfrwt>
<pdfrwt beam="2">  1       21 0.26788646E-01 0.34659412E+03</pdfrwt>
<totfact> 0.57559953E+03</totfact>
</mgrwt>
</event>
