<event>
 5    0  0.1829809E+000  0.3045837E+03  0.7546771E-02  0.1082971E+00
         21   -1    0    0  502  501  0.00000000000E+00  0.00000000000E+00  0.13612337744E+03  0.13612337744E+03  0.00000000000E+00 0.  1.
         21   -1    0    0  503  502 -0.00000000000E+00 -0.00000000000E+00 -0.80097482987E+03  0.80097482987E+03  0.00000000000E+00 0.  1.
         25    1    1    2    0    0  0.25583230270E+03  0.16199845989E+03 -0.30629740059E+03  0.44848273738E+03  0.12500000000E+03 0.  0.
         21    1    1    2  503  504 -0.14090844193E+02 -0.58452149180E+02 -0.28326460183E+02  0.66464983114E+02  0.00000000000E+00 0.  1.
         21    1    1    2  504  501 -0.24174145851E+03 -0.10354631071E+03 -0.33022759166E+03  0.42215048682E+03  0.00000000000E+00 0.  1.
<mgrwt>
<rscale>  4 0.30458365E+03</rscale>
<asrwt>0</asrwt>
<pdfrwt beam="1">  1       21 0.20942058E-01 0.30458365E+03</pdfrwt>
<pdfrwt beam="2">  1       21 0.12322689E+00 0.30458365E+03</pdfrwt>
<totfact> 0.98019790E+03</totfact>
</mgrwt>
</event>
<event>
 5    0  0.1829809E+000  0.3347815E+03  0.7546771E-02  0.1069041E+00
         21   -1    0    0  502  501  0.00000000000E+00  0.00000000000E+00  0.38007609732E+03  0.38007609732E+03  0.00000000000E+00 0. -1.
         21   -1    0    0  503  502 -0.00000000000E+00 -0.00000000000E+00 -0.37844070979E+03  0.37844070979E+03  0.00000000000E+00 0.  1.
         25    1    1    2    0    0 -0.28000104026E+03 -0.16089360825E+03  0.62189876758E+02  0.35182370087E+03  0.12500000000E+03 0.  0.
         21    1    1    2  503  504  0.20464368880E+03  0.22432045915E+03 -0.47470974297E+02  0.30733076833E+03  0.00000000000E+00 0.  1.
         21    1    1    2  504  501  0.75357351457E+02 -0.63426850903E+02 -0.13083514932E+02  0.99362337921E+02  0.00000000000E+00 0.  1.
<mgrwt>
<rscale>  4 0.33478146E+03</rscale>
<asrwt>0</asrwt>
<pdfrwt beam="1">  1       21 0.58473246E-01 0.33478146E+03</pdfrwt>
<pdfrwt beam="2">  1       21 0.58221647E-01 0.33478146E+03</pdfrwt>
<totfact> 0.69874883E+03</totfact>
</mgrwt>
</event>
<event>
 5    0  0.1829809E+000  0.2488365E+03  0.7546771E-02  0.1114042E+00
         21   -1    0    0  502  501  0.00000000000E+00  0.00000000000E+00  0.29345363606E+03  0.29345363606E+03  0.00000000000E+00 0. -1.
         21   -1    0    0  503  502 -0.00000000000E+00 -0.00000000000E+00 -0.23649049012E+03  0.23649049012E+03  0.00000000000E+00 0.  1.
         25    1    1    2    0    0 -0.21377342782E+03 -0.24403376283E+02  0.15021367821E+03  0.29066088890E+03  0.12500000000E+03 0.  0.
         21    1    1    2  503  504  0.18367182433E+03  0.22198590705E+02 -0.96955704333E+02  0.20887442420E+03  0.00000000000E+00 0.  1.
         21    1    1    2  504  501  0.30101603496E+02  0.22047855775E+01  0.37051720631E+01  0.30408813073E+02  0.00000000000E+00 0.  1.
<mgrwt>
<rscale>  4 0.24883650E+03</rscale>
<asrwt>0</asrwt>
<pdfrwt beam="1">  1       21 0.45146713E-01 0.24883650E+03</pdfrwt>
<pdfrwt beam="2">  1       21 0.36383152E-01 0.24883650E+03</pdfrwt>
<totfact> 0.33362578E+04</totfact>
</mgrwt>
</event>
<event>
 5    0  0.1829809E+000  0.2469351E+03  0.7546771E-02  0.1115257E+00
         21   -1    0    0  502  501  0.00000000000E+00  0.00000000000E+00  0.38551401123E+03  0.38551401123E+03  0.00000000000E+00 0.  1.
         21   -1    0    0  503  502 -0.00000000000E+00 -0.00000000000E+00 -0.24206136442E+03  0.24206136442E+03  0.00000000000E+00 0. -1.
         25    1    1    2    0    0  0.10329941784E+03  0.21889305644E+03  0.19687939849E+03  0.33611223934E+03  0.12500000000E+03 0.  0.
         21    1    1    2  503  504 -0.78468444373E+02 -0.38196008697E+02 -0.64823747631E+02  0.10871223528E+03  0.00000000000E+00 0. -1.
         21    1    1    2  504  501 -0.24830973463E+02 -0.18069704775E+03  0.11396995949E+02  0.18275090102E+03  0.00000000000E+00 0. -1.
<mgrwt>
<rscale>  4 0.24693506E+03</rscale>
<asrwt>0</asrwt>
<pdfrwt beam="1">  1       21 0.59309848E-01 0.24693506E+03</pdfrwt>
<pdfrwt beam="2">  1       21 0.37240210E-01 0.24693506E+03</pdfrwt>
<totfact> 0.17917921E+04</totfact>
</mgrwt>
</event>
<event>
 5    0  0.1829809E+000  0.2481324E+03  0.7546771E-02  0.1114491E+00
         21   -1    0    0  502  501  0.00000000000E+00  0.00000000000E+00  0.16344128062E+03  0.16344128062E+03  0.00000000000E+00 0. -1.
         21   -1    0    0  503  502 -0.00000000000E+00 -0.00000000000E+00 -0.11319881337E+04  0.11319881337E+04  0.00000000000E+00 0. -1.
         25    1    1    2    0    0  0.19199316138E+03 -0.95306404661E+02  0.49327495673E+02  0.25298791792E+03  0.12500000000E+03 0.  0.
         21    1    1    2  503  504 -0.15248063718E+03  0.42188803158E+02 -0.75033972374E+03  0.76683762352E+03  0.00000000000E+00 0. -1.
         21    1    1    2  504  501 -0.39512524198E+02  0.53117601503E+02 -0.26753462498E+03  0.27560387284E+03  0.00000000000E+00 0. -1.
<mgrwt>
<rscale>  4 0.24813239E+03</rscale>
<asrwt>0</asrwt>
<pdfrwt beam="1">  1       21 0.25144813E-01 0.24813239E+03</pdfrwt>
<pdfrwt beam="2">  1       21 0.17415201E+00 0.24813239E+03</pdfrwt>
<totfact> 0.28521947E+03</totfact>
</mgrwt>
</event>
<event>
 5    0  0.1829809E+000  0.4137538E+03  0.7546771E-02  0.1039119E+00
         21   -1    0    0  502  501  0.00000000000E+00  0.00000000000E+00  0.65410915741E+03  0.65410915741E+03  0.00000000000E+00 0. -1.
         21   -1    0    0  503  502 -0.00000000000E+00 -0.00000000000E+00 -0.32207622053E+03  0.32207622053E+03  0.00000000000E+00 0. -1.
         25    1    1    2    0    0  0.40403281687E+03  0.11098131118E+03  0.14952671846E+03  0.46210670637E+03  0.12500000000E+03 0.  0.
         21    1    1    2  503  504 -0.36137915785E+03 -0.11088584262E+03  0.23602351016E+03  0.44564297725E+03  0.00000000000E+00 0. -1.
         21    1    1    2  504  501 -0.42653659020E+02 -0.95468560225E-01 -0.53517291745E+02  0.68435694325E+02  0.00000000000E+00 0. -1.
<mgrwt>
<rscale>  4 0.41375380E+03</rscale>
<asrwt>0</asrwt>
<pdfrwt beam="1">  1       21 0.10063218E+00 0.41375380E+03</pdfrwt>
<pdfrwt beam="2">  1       21 0.49550188E-01 0.41375380E+03</pdfrwt>
<totfact> 0.27625162E+03</totfact>
</mgrwt>
</event>
<event>
 5    0  0.1829809E+000  0.2800432E+03  0.7546771E-02  0.1095665E+00
         21   -1    0    0  502  501  0.00000000000E+00  0.00000000000E+00  0.17882135480E+03  0.17882135480E+03  0.00000000000E+00 0. -1.
         21   -1    0    0  503  502 -0.00000000000E+00 -0.00000000000E+00 -0.42023855900E+03  0.42023855900E+03  0.00000000000E+00 0. -1.
         25    1    1    2    0    0  0.15781160821E+03 -0.19466554497E+03 -0.76785994548E+02  0.29037952243E+03  0.12500000000E+03 0.  0.
         21    1    1    2  503  504 -0.13416033459E+03  0.16438668938E+03 -0.10253635472E+03  0.23566010070E+03  0.00000000000E+00 0. -1.
         21    1    1    2  504  501 -0.23651273627E+02  0.30278855593E+02 -0.62094854940E+02  0.73020290675E+02  0.00000000000E+00 0. -1.
<mgrwt>
<rscale>  4 0.28004317E+03</rscale>
<asrwt>0</asrwt>
<pdfrwt beam="1">  1       21 0.27510978E-01 0.28004317E+03</pdfrwt>
<pdfrwt beam="2">  1       21 0.64652085E-01 0.28004317E+03</pdfrwt>
<totfact> 0.26640743E+04</totfact>
</mgrwt>
</event>
<event>
 5    0  0.1829809E+000  0.2847478E+03  0.7546771E-02  0.1093124E+00
         21   -1    0    0  502  501  0.00000000000E+00  0.00000000000E+00  0.16268887344E+04  0.16268887344E+04  0.00000000000E+00 0. -1.
         21   -1    0    0  503  502 -0.00000000000E+00 -0.00000000000E+00 -0.91650838976E+02  0.91650838976E+02  0.00000000000E+00 0. -1.
         25    1    1    2    0    0 -0.20166875498E+03  0.10822104179E+03  0.66517203283E+03  0.71446547424E+03  0.12500000000E+03 0.  0.
         21    1    1    2  503  504  0.37366538148E+02  0.15944653610E+03  0.16625994020E+03  0.23337057176E+03  0.00000000000E+00 0. -1.
         21    1    1    2  504  501  0.16430221683E+03 -0.26766757790E+03  0.70380592238E+03  0.77070352736E+03  0.00000000000E+00 0. -1.
<mgrwt>
<rscale>  4 0.28474778E+03</rscale>
<asrwt>0</asrwt>
<pdfrwt beam="1">  1       21 0.25029055E+00 0.28474778E+03</pdfrwt>
<pdfrwt beam="2">  1       21 0.14100130E-01 0.28474778E+03</pdfrwt>
<totfact> 0.26715471E+03</totfact>
</mgrwt>
</event>
<event>
 5    0  0.1829809E+000  0.2404271E+03  0.7546771E-02  0.1119509E+00
         21   -1    0    0  502  501  0.00000000000E+00  0.00000000000E+00  0.68165058200E+03  0.68165058200E+03  0.00000000000E+00 0. -1.
         21   -1    0    0  503  502 -0.00000000000E+00 -0.00000000000E+00 -0.15982217490E+03  0.15982217490E+03  0.00000000000E+00 0.  1.
         25    1    1    2    0    0  0.13480641939E+03  0.15494329238E+03  0.57140265550E+03  0.61992434157E+03  0.12500000000E+03 0.  0.
         21    1    1    2  503  504 -0.10853952157E+03 -0.15328401724E+03 -0.52621277959E+02  0.19505336854E+03  0.00000000000E+00 0.  1.
         21    1    1    2  504  501 -0.26266897825E+02 -0.16592751456E+01  0.30470295544E+01  0.26495046791E+02  0.00000000000E+00 0. -1.
<mgrwt>
<rscale>  4 0.24042711E+03</rscale>
<asrwt>0</asrwt>
<pdfrwt beam="1">  1       21 0.10486932E+00 0.24042711E+03</pdfrwt>
<pdfrwt beam="2">  1       21 0.24588027E-01 0.24042711E+03</pdfrwt>
<totfact> 0.11109897E+04</totfact>
</mgrwt>
</event>
<event>
 5    0  0.1829809E+000  0.2489256E+03  0.7546771E-02  0.1113986E+00
         21   -1    0    0  502  501  0.00000000000E+00  0.00000000000E+00  0.12271775614E+03  0.12271775614E+03  0.00000000000E+00 0. -1.
         21   -1    0    0  503  502 -0.00000000000E+00 -0.00000000000E+00 -0.20737598638E+04  0.20737598638E+04  0.00000000000E+00 0. -1.
         25    1    1    2    0    0 -0.12475892486E+03 -0.17542564304E+03 -0.16550832996E+02  0.24947520045E+03  0.12500000000E+03 0.  0.
         21    1    1    2  503  504  0.48229591275E+02  0.67769925336E+02 -0.55446821403E+03  0.56067268225E+03  0.00000000000E+00 0. -1.
         21    1    1    2  504  501  0.76529333584E+02  0.10765571771E+03 -0.13800230606E+04  0.13863297372E+04  0.00000000000E+00 0. -1.
<mgrwt>
<rscale>  4 0.24892558E+03</rscale>
<asrwt>0</asrwt>
<pdfrwt beam="1">  1       21 0.18879655E-01 0.24892558E+03</pdfrwt>
<pdfrwt beam="2">  1       21 0.31903998E+00 0.24892558E+03</pdfrwt>
<totfact> 0.63411218E+02</totfact>
</mgrwt>
</event>
<event>
 5    0  0.1829809E+000  0.2352882E+03  0.7546771E-02  0.1122972E+00
         21   -1    0    0  502  501  0.00000000000E+00  0.00000000000E+00  0.11604091828E+04  0.11604091828E+04  0.00000000000E+00 0.  1.
         21   -1    0    0  503  502 -0.00000000000E+00 -0.00000000000E+00 -0.60473189201E+02  0.60473189201E+02  0.00000000000E+00 0.  1.
         25    1    1    2    0    0 -0.21244416469E+03 -0.80338974748E+02  0.49639827510E+03  0.56002064381E+03  0.12500000000E+03 0.  0.
         21    1    1    2  503  504  0.18245013842E+03  0.22962017480E+02  0.31145847200E+03  0.36169280755E+03  0.00000000000E+00 0.  1.
         21    1    1    2  504  501  0.29994026274E+02  0.57376957267E+02  0.29207924646E+03  0.29916892060E+03  0.00000000000E+00 0.  1.
<mgrwt>
<rscale>  4 0.23528822E+03</rscale>
<asrwt>0</asrwt>
<pdfrwt beam="1">  1       21 0.17852447E+00 0.23528822E+03</pdfrwt>
<pdfrwt beam="2">  1       21 0.93035684E-02 0.23528822E+03</pdfrwt>
<totfact> 0.16661364E+04</totfact>
</mgrwt>
</event>
<event>
 5    0  0.1829809E+000  0.2797114E+03  0.7546771E-02  0.1095847E+00
         21   -1    0    0  502  501  0.00000000000E+00  0.00000000000E+00  0.13948419924E+03  0.13948419924E+03  0.00000000000E+00 0.  1.
         21   -1    0    0  503  502 -0.00000000000E+00 -0.00000000000E+00 -0.10202773541E+04  0.10202773541E+04  0.00000000000E+00 0. -1.
         25    1    1    2    0    0 -0.20782424320E+03  0.13936474454E+03 -0.43006579176E+02  0.28299825783E+03  0.12500000000E+03 0.  0.
         21    1    1    2  503  504  0.56240600405E+02 -0.74974962055E+01 -0.15642688706E+03  0.16639888394E+03  0.00000000000E+00 0. -1.
         21    1    1    2  504  501  0.15158364280E+03 -0.13186724834E+03 -0.68135968865E+03  0.71036441159E+03  0.00000000000E+00 0. -1.
<mgrwt>
<rscale>  4 0.27971137E+03</rscale>
<asrwt>0</asrwt>
<pdfrwt beam="1">  1       21 0.21459108E-01 0.27971137E+03</pdfrwt>
<pdfrwt beam="2">  1       21 0.15696575E+00 0.27971137E+03</pdfrwt>
<totfact> 0.50352954E+03</totfact>
</mgrwt>
</event>
<event>
 5    0  0.1829809E+000  0.2469325E+03  0.7546771E-02  0.1115259E+00
         21   -1    0    0  502  501  0.00000000000E+00  0.00000000000E+00  0.54302941805E+03  0.54302941805E+03  0.00000000000E+00 0. -1.
         21   -1    0    0  503  502 -0.00000000000E+00 -0.00000000000E+00 -0.12033942602E+03  0.12033942602E+03  0.00000000000E+00 0. -1.
         25    1    1    2    0    0  0.72367583584E+02  0.20028381355E+03  0.36420282005E+03  0.44002200770E+03  0.12500000000E+03 0.  0.
         21    1    1    2  503  504 -0.47894475320E+02 -0.16998804512E+03  0.47679571136E+02  0.18292937915E+03  0.00000000000E+00 0. -1.
         21    1    1    2  504  501 -0.24473108263E+02 -0.30295768425E+02  0.10807600851E+02  0.40417457227E+02  0.00000000000E+00 0. -1.
<mgrwt>
<rscale>  4 0.24693253E+03</rscale>
<asrwt>0</asrwt>
<pdfrwt beam="1">  1       21 0.83542986E-01 0.24693253E+03</pdfrwt>
<pdfrwt beam="2">  1       21 0.18513758E-01 0.24693253E+03</pdfrwt>
<totfact> 0.32319632E+04</totfact>
</mgrwt>
</event>
<event>
 5    0  0.1829809E+000  0.2617712E+03  0.7546771E-02  0.1106084E+00
         21   -1    0    0  502  501  0.00000000000E+00  0.00000000000E+00  0.27592462949E+03  0.27592462949E+03  0.00000000000E+00 0.  1.
         21   -1    0    0  503  502 -0.00000000000E+00 -0.00000000000E+00 -0.32806241725E+03  0.32806241725E+03  0.00000000000E+00 0. -1.
         25    1    1    2    0    0 -0.59103593265E+01  0.25116709569E+03  0.60729186884E+02  0.28711126143E+03  0.12500000000E+03 0.  0.
         21    1    1    2  503  504  0.60799157326E+02 -0.48137123332E+02 -0.64981494995E+02  0.10117467502E+03  0.00000000000E+00 0. -1.
         21    1    1    2  504  501 -0.54888797999E+02 -0.20302997235E+03 -0.47885479648E+02  0.21570111029E+03  0.00000000000E+00 0. -1.
<mgrwt>
<rscale>  4 0.26177120E+03</rscale>
<asrwt>0</asrwt>
<pdfrwt beam="1">  1       21 0.42449943E-01 0.26177120E+03</pdfrwt>
<pdfrwt beam="2">  1       21 0.50471141E-01 0.26177120E+03</pdfrwt>
<totfact> 0.19225028E+04</totfact>
</mgrwt>
</event>
<event>
 5    0  0.1829809E+000  0.2596218E+03  0.7546771E-02  0.1107371E+00
         21   -1    0    0  502  501  0.00000000000E+00  0.00000000000E+00  0.63553339698E+03  0.63553339698E+03  0.00000000000E+00 0.  1.
         21   -1    0    0  503  502 -0.00000000000E+00 -0.00000000000E+00 -0.12472859788E+03  0.12472859788E+03  0.00000000000E+00 0.  1.
         25    1    1    2    0    0  0.21295316534E+03 -0.90637082292E+02  0.37175530276E+03  0.45540217000E+03  0.12500000000E+03 0.  0.
         21    1    1    2  503  504 -0.21995857800E+03  0.55229400967E+02  0.90070264431E+02  0.24401785857E+03  0.00000000000E+00 0.  1.
         21    1    1    2  504  501  0.70054126524E+01  0.35407681325E+02  0.48979231916E+02  0.60841966293E+02  0.00000000000E+00 0. -1.
<mgrwt>
<rscale>  4 0.25962180E+03</rscale>
<asrwt>0</asrwt>
<pdfrwt beam="1">  1       21 0.97774367E-01 0.25962180E+03</pdfrwt>
<pdfrwt beam="2">  1       21 0.19189015E-01 0.25962180E+03</pdfrwt>
<totfact> 0.20812351E+04</totfact>
</mgrwt>
</event>
<event>
 5    0  0.1829809E+000  0.3044718E+03  0.7546771E-02  0.1083026E+00
         21   -1    0    0  502  501  0.00000000000E+00  0.00000000000E+00  0.74449799367E+03  0.74449799367E+03  0.00000000000E+00 0.  1.
         21   -1    0    0  503  502 -0.00000000000E+00 -0.00000000000E+00 -0.13740368110E+03  0.13740368110E+03  0.00000000000E+00 0.  1.
         25    1    1    2    0    0 -0.22030752463E+03  0.16894568759E+03  0.48595434176E+03  0.57345851902E+03  0.12500000000E+03 0.  0.
         21    1    1    2  503  504  0.24612028388E+02 -0.36862047153E+02  0.37203153136E+02  0.57867409351E+02  0.00000000000E+00 0.  1.
         21    1    1    2  504  501  0.19569549624E+03 -0.13208364044E+03  0.83936817681E+02  0.25057574640E+03  0.00000000000E+00 0.  1.
<mgrwt>
<rscale>  4 0.30447176E+03</rscale>
<asrwt>0</asrwt>
<pdfrwt beam="1">  1       21 0.11453815E+00 0.30447176E+03</pdfrwt>
<pdfrwt beam="2">  1       21 0.21139028E-01 0.30447176E+03</pdfrwt>
<totfact> 0.11563201E+04</totfact>
</mgrwt>
</event>
<event>
 5    0  0.1829809E+000  0.2759430E+03  0.7546771E-02  0.1097926E+00
         21   -1    0    0  502  501  0.00000000000E+00  0.00000000000E+00  0.30529458015E+03  0.30529458015E+03  0.00000000000E+00 0.  1.
         21   -1    0    0  503  502 -0.00000000000E+00 -0.00000000000E+00 -0.53759433629E+03  0.53759433629E+03  0.00000000000E+00 0.  1.
         25    1    1    2    0    0 -0.18111331754E+03 -0.16648571218E+03 -0.43734617334E+03  0.51712300421E+03  0.12500000000E+03 0.  0.
         21    1    1    2  503  504  0.16528209948E+03  0.14648227472E+03  0.15570730770E+03  0.27022212139E+03  0.00000000000E+00 0.  1.
         21    1    1    2  504  501  0.15831218055E+02  0.20003437464E+02  0.49339109492E+02  0.55543790841E+02  0.00000000000E+00 0. -1.
<mgrwt>
<rscale>  4 0.27594298E+03</rscale>
<asrwt>0</asrwt>
<pdfrwt beam="1">  1       21 0.46968396E-01 0.27594298E+03</pdfrwt>
<pdfrwt beam="2">  1       21 0.82706822E-01 0.27594298E+03</pdfrwt>
<totfact> 0.52363037E+03</totfact>
</mgrwt>
</event>
<event>
 5    0  0.1829809E+000  0.2823630E+03  0.7546771E-02  0.1094405E+00
         21   -1    0    0  502  501  0.00000000000E+00  0.00000000000E+00  0.83050851671E+02  0.83050851671E+02  0.00000000000E+00 0. -1.
         21   -1    0    0  503  502 -0.00000000000E+00 -0.00000000000E+00 -0.96427513921E+03  0.96427513921E+03  0.00000000000E+00 0. -1.
         25    1    1    2    0    0 -0.25452657036E+03  0.36530644154E+02 -0.43655834574E+03  0.52184907034E+03  0.12500000000E+03 0.  0.
         21    1    1    2  503  504  0.24260725716E+03 -0.62851011669E+02 -0.40754630319E+03  0.47843758228E+03  0.00000000000E+00 0. -1.
         21    1    1    2  504  501  0.11919313207E+02  0.26320367515E+02 -0.37119638610E+02  0.47039338261E+02  0.00000000000E+00 0. -1.
<mgrwt>
<rscale>  4 0.28236305E+03</rscale>
<asrwt>0</asrwt>
<pdfrwt beam="1">  1       21 0.12777053E-01 0.28236305E+03</pdfrwt>
<pdfrwt beam="2">  1       21 0.14835003E+00 0.28236305E+03</pdfrwt>
<totfact> 0.15295042E+04</totfact>
</mgrwt>
</event>
<event>
 5    0  0.1829809E+000  0.2534681E+03  0.7546771E-02  0.1111132E+00
         21   -1    0    0  502  501  0.00000000000E+00  0.00000000000E+00  0.27701533857E+02  0.27701533857E+02  0.00000000000E+00 0. -1.
         21   -1    0    0  503  502 -0.00000000000E+00 -0.00000000000E+00 -0.23917501173E+04  0.23917501173E+04  0.00000000000E+00 0. -1.
         25    1    1    2    0    0 -0.53424996531E+02  0.21393185324E+03 -0.17041528260E+04  0.17228995683E+04  0.12500000000E+03 0.  0.
         21    1    1    2  503  504  0.52169699842E+02 -0.18301023463E+03 -0.59425473369E+03  0.62398166005E+03  0.00000000000E+00 0. -1.
         21    1    1    2  504  501  0.12552966887E+01 -0.30921618610E+02 -0.65641023731E+02  0.72570422789E+02  0.00000000000E+00 0.  1.
<mgrwt>
<rscale>  4 0.25346808E+03</rscale>
<asrwt>0</asrwt>
<pdfrwt beam="1">  1       21 0.42617755E-02 0.25346808E+03</pdfrwt>
<pdfrwt beam="2">  1       21 0.36796147E+00 0.25346808E+03</pdfrwt>
<totfact> 0.44918025E+03</totfact>
</mgrwt>
</event>
<event>
 5    0  0.1829809E+000  0.3123430E+03  0.7546771E-02  0.1079228E+00
         21   -1    0    0  502  501  0.00000000000E+00  0.00000000000E+00  0.80265880364E+03  0.80265880364E+03  0.00000000000E+00 0.  1.
         21   -1    0    0  503  502 -0.00000000000E+00 -0.00000000000E+00 -0.14796758019E+03  0.14796758019E+03  0.00000000000E+00 0. -1.
         25    1    1    2    0    0 -0.16220619047E+03 -0.23584379355E+03  0.56789129178E+03  0.64811932733E+03  0.12500000000E+03 0.  0.
         21    1    1    2  503  504  0.14771352495E+03  0.20971791263E+03  0.62563226279E+02  0.26403606877E+03  0.00000000000E+00 0. -1.
         21    1    1    2  504  501  0.14492665516E+02  0.26125880921E+02  0.24236705395E+02  0.38470987719E+02  0.00000000000E+00 0. -1.
<mgrwt>
<rscale>  4 0.31234299E+03</rscale>
<asrwt>0</asrwt>
<pdfrwt beam="1">  1       21 0.12348597E+00 0.31234299E+03</pdfrwt>
<pdfrwt beam="2">  1       21 0.22764244E-01 0.31234299E+03</pdfrwt>
<totfact> 0.82875364E+03</totfact>
</mgrwt>
</event>
<event>
 5    0  0.1829809E+000  0.3398280E+03  0.7546771E-02  0.1066869E+00
         21   -1    0    0  502  501  0.00000000000E+00  0.00000000000E+00  0.77802114303E+03  0.77802114303E+03  0.00000000000E+00 0.  1.
         21   -1    0    0  503  502 -0.00000000000E+00 -0.00000000000E+00 -0.11065857620E+04  0.11065857620E+04  0.00000000000E+00 0.  1.
         25    1    1    2    0    0  0.19157010455E+03 -0.25131441137E+03  0.71424132452E+03  0.79096378423E+03  0.12500000000E+03 0.  0.
         21    1    1    2  503  504 -0.11390177531E+03  0.10949601304E+03 -0.64855407877E+03  0.66752182315E+03  0.00000000000E+00 0.  1.
         21    1    1    2  504  501 -0.77668329243E+02  0.14181839833E+03 -0.39425186470E+03  0.42612129763E+03  0.00000000000E+00 0.  1.
<mgrwt>
<rscale>  4 0.33982795E+03</rscale>
<asrwt>0</asrwt>
<pdfrwt beam="1">  1       21 0.11969556E+00 0.33982795E+03</pdfrwt>
<pdfrwt beam="2">  1       21 0.17024396E+00 0.33982795E+03</pdfrwt>
<totfact> 0.96952995E+01</totfact>
</mgrwt>
</event>
<event>
 5    0  0.1829809E+000  0.2572692E+03  0.7546771E-02  0.1108795E+00
         21   -1    0    0  502  501  0.00000000000E+00  0.00000000000E+00  0.17039603577E+03  0.17039603577E+03  0.00000000000E+00 0. -1.
         21   -1    0    0  503  502 -0.00000000000E+00 -0.00000000000E+00 -0.64566139014E+03  0.64566139014E+03  0.00000000000E+00 0. -1.
         25    1    1    2    0    0  0.19911818757E+03 -0.10447188608E+03  0.31515779558E+02  0.25919234549E+03  0.12500000000E+03 0.  0.
         21    1    1    2  503  504 -0.71209365105E+02  0.40510930245E+02 -0.12786165157E+03  0.15185687700E+03  0.00000000000E+00 0. -1.
         21    1    1    2  504  501 -0.12790882246E+03  0.63960955831E+02 -0.37891948235E+03  0.40500820342E+03  0.00000000000E+00 0. -1.
<mgrwt>
<rscale>  4 0.25726917E+03</rscale>
<asrwt>0</asrwt>
<pdfrwt beam="1">  1       21 0.26214775E-01 0.25726917E+03</pdfrwt>
<pdfrwt beam="2">  1       21 0.99332522E-01 0.25726917E+03</pdfrwt>
<totfact> 0.11086411E+04</totfact>
</mgrwt>
</event>
<event>
 5    0  0.1829809E+000  0.4174795E+03  0.7546771E-02  0.1037890E+00
         21   -1    0    0  502  501  0.00000000000E+00  0.00000000000E+00  0.84285786376E+03  0.84285786376E+03  0.00000000000E+00 0. -1.
         21   -1    0    0  503  502 -0.00000000000E+00 -0.00000000000E+00 -0.74043631907E+03  0.74043631907E+03  0.00000000000E+00 0. -1.
         25    1    1    2    0    0  0.38721002063E+03  0.93447953145E+02  0.72859886332E+03  0.83972937524E+03  0.12500000000E+03 0.  0.
         21    1    1    2  503  504 -0.36281237609E+03 -0.94187954000E+02 -0.56870264559E+03  0.68112178795E+03  0.00000000000E+00 0. -1.
         21    1    1    2  504  501 -0.24397644544E+02  0.74000085446E+00 -0.57474673036E+02  0.62443019636E+02  0.00000000000E+00 0.  1.
<mgrwt>
<rscale>  4 0.41747948E+03</rscale>
<asrwt>0</asrwt>
<pdfrwt beam="1">  1       21 0.12967044E+00 0.41747948E+03</pdfrwt>
<pdfrwt beam="2">  1       21 0.11391328E+00 0.41747948E+03</pdfrwt>
<totfact> 0.21742897E+02</totfact>
</mgrwt>
</event>
<event>
 5    0  0.1829809E+000  0.2704108E+03  0.7546771E-02  0.1101045E+00
         21   -1    0    0  502  501  0.00000000000E+00  0.00000000000E+00  0.17777436323E+03  0.17777436323E+03  0.00000000000E+00 0. -1.
         21   -1    0    0  503  502 -0.00000000000E+00 -0.00000000000E+00 -0.53032875188E+03  0.53032875188E+03  0.00000000000E+00 0. -1.
         25    1    1    2    0    0  0.22830068941E+03 -0.73319805474E+02  0.84563019996E+01  0.27054298679E+03  0.12500000000E+03 0.  0.
         21    1    1    2  503  504 -0.11219454324E+03  0.67357115930E+02 -0.19810354666E+03  0.23742285442E+03  0.00000000000E+00 0. -1.
         21    1    1    2  504  501 -0.11610614617E+03  0.59626895444E+01 -0.16290714398E+03  0.20013727390E+03  0.00000000000E+00 0. -1.
<mgrwt>
<rscale>  4 0.27041080E+03</rscale>
<asrwt>0</asrwt>
<pdfrwt beam="1">  1       21 0.27349903E-01 0.27041080E+03</pdfrwt>
<pdfrwt beam="2">  1       21 0.81589037E-01 0.27041080E+03</pdfrwt>
<totfact> 0.16065132E+04</totfact>
</mgrwt>
</event>
<event>
 5    0  0.1829809E+000  0.2436654E+03  0.7546771E-02  0.1117375E+00
         21   -1    0    0  502  501  0.00000000000E+00  0.00000000000E+00  0.58816539010E+02  0.58816539010E+02  0.00000000000E+00 0.  1.
         21   -1    0    0  503  502 -0.00000000000E+00 -0.00000000000E+00 -0.16961327337E+04  0.16961327337E+04  0.00000000000E+00 0. -1.
         25    1    1    2    0    0 -0.10708113672E+03 -0.20868917011E+03 -0.34687608371E+03  0.43699606063E+03  0.12500000000E+03 0.  0.
         21    1    1    2  503  504  0.10289563697E+03  0.17675002781E+03 -0.12481357388E+04  0.12647809719E+04  0.00000000000E+00 0. -1.
         21    1    1    2  504  501  0.41854997517E+01  0.31939142296E+02 -0.42304372188E+02  0.53172240173E+02  0.00000000000E+00 0. -1.
<mgrwt>
<rscale>  4 0.24366542E+03</rscale>
<asrwt>0</asrwt>
<pdfrwt beam="1">  1       21 0.90486991E-02 0.24366542E+03</pdfrwt>
<pdfrwt beam="2">  1       21 0.26094347E+00 0.24366542E+03</pdfrwt>
<totfact> 0.52887806E+03</totfact>
</mgrwt>
</event>
<event>
 5    0  0.1829809E+000  0.3094248E+03  0.7546771E-02  0.1080622E+00
         21   -1    0    0  502  501  0.00000000000E+00  0.00000000000E+00  0.24647745843E+03  0.24647745843E+03  0.00000000000E+00 0.  1.
         21   -1    0    0  503  502 -0.00000000000E+00 -0.00000000000E+00 -0.74540103141E+03  0.74540103141E+03  0.00000000000E+00 0.  1.
         25    1    1    2    0    0  0.69444106859E+02 -0.32321804067E+03  0.88483280251E+01  0.35354727930E+03  0.12500000000E+03 0.  0.
         21    1    1    2  503  504  0.21326605793E+02  0.17122432434E+03 -0.11459076176E+03  0.20713192907E+03  0.00000000000E+00 0.  1.
         21    1    1    2  504  501 -0.90770712652E+02  0.15199371633E+03 -0.39318113925E+03  0.43119928147E+03  0.00000000000E+00 0.  1.
<mgrwt>
<rscale>  4 0.30942484E+03</rscale>
<asrwt>0</asrwt>
<pdfrwt beam="1">  1       21 0.37919609E-01 0.30942484E+03</pdfrwt>
<pdfrwt beam="2">  1       21 0.11467708E+00 0.30942484E+03</pdfrwt>
<totfact> 0.36611213E+03</totfact>
</mgrwt>
</event>
<event>
 5    0  0.1829809E+000  0.5097497E+03  0.7546771E-02  0.1012261E+00
         21   -1    0    0  502  501  0.00000000000E+00  0.00000000000E+00  0.35899866219E+03  0.35899866219E+03  0.00000000000E+00 0.  1.
         21   -1    0    0  503  502 -0.00000000000E+00 -0.00000000000E+00 -0.72942248221E+03  0.72942248221E+03  0.00000000000E+00 0.  1.
         25    1    1    2    0    0  0.13745178235E+03 -0.45812556804E+03 -0.77213006758E+02  0.50035874828E+03  0.12500000000E+03 0.  0.
         21    1    1    2  503  504 -0.53379933824E+02  0.53285402448E+02  0.89379570884E+01  0.75951553809E+02  0.00000000000E+00 0. -1.
         21    1    1    2  504  501 -0.84071848530E+02  0.40484016559E+03 -0.30214877035E+03  0.51211084231E+03  0.00000000000E+00 0.  1.
<mgrwt>
<rscale>  4 0.50585932E+03</rscale>
<asrwt>0</asrwt>
<pdfrwt beam="1">  1       21 0.55230564E-01 0.50974974E+03</pdfrwt>
<pdfrwt beam="2">  1       21 0.11221884E+00 0.50974974E+03</pdfrwt>
<totfact> 0.16150879E+03</totfact>
</mgrwt>
</event>
<event>
 5    0  0.1829809E+000  0.2542076E+03  0.7546771E-02  0.1110674E+00
         21   -1    0    0  502  501  0.00000000000E+00  0.00000000000E+00  0.15848190772E+04  0.15848190772E+04  0.00000000000E+00 0.  1.
         21   -1    0    0  503  502 -0.00000000000E+00 -0.00000000000E+00 -0.50912112271E+02  0.50912112271E+02  0.00000000000E+00 0. -1.
         25    1    1    2    0    0 -0.14954587281E+03 -0.16319478696E+03  0.12394222021E+04  0.12652228663E+04  0.12500000000E+03 0.  0.
         21    1    1    2  503  504  0.13368739864E+02  0.27119149838E+02  0.24490269806E+02  0.38909443695E+02  0.00000000000E+00 0.  1.
         21    1    1    2  504  501  0.13617713294E+03  0.13607563712E+03  0.26999449305E+03  0.33159887942E+03  0.00000000000E+00 0. -1.
<mgrwt>
<rscale>  4 0.25420761E+03</rscale>
<asrwt>0</asrwt>
<pdfrwt beam="1">  1       21 0.24381828E+00 0.25420761E+03</pdfrwt>
<pdfrwt beam="2">  1       21 0.78326339E-02 0.25420761E+03</pdfrwt>
<totfact> 0.85463393E+03</totfact>
</mgrwt>
</event>
<event>
 5    0  0.1829809E+000  0.2563191E+03  0.7546771E-02  0.1109375E+00
         21   -1    0    0  502  501  0.00000000000E+00  0.00000000000E+00  0.22078326751E+03  0.22078326751E+03  0.00000000000E+00 0. -1.
         21   -1    0    0  503  502 -0.00000000000E+00 -0.00000000000E+00 -0.48141898562E+03  0.48141898562E+03  0.00000000000E+00 0. -1.
         25    1    1    2    0    0 -0.20575357109E+03  0.16349929044E+03 -0.25039762007E+02  0.29209337492E+03  0.12500000000E+03 0.  0.
         21    1    1    2  503  504  0.87969726345E+01 -0.79236519377E+02  0.14260022775E+02  0.80988647230E+02  0.00000000000E+00 0. -1.
         21    1    1    2  504  501  0.19695659846E+03 -0.84262771062E+02 -0.24985597887E+03  0.32912023098E+03  0.00000000000E+00 0. -1.
<mgrwt>
<rscale>  4 0.25631906E+03</rscale>
<asrwt>0</asrwt>
<pdfrwt beam="1">  1       21 0.33966657E-01 0.25631906E+03</pdfrwt>
<pdfrwt beam="2">  1       21 0.74064458E-01 0.25631906E+03</pdfrwt>
<totfact> 0.13152672E+04</totfact>
</mgrwt>
</event>
<event>
 5    0  0.1829809E+000  0.4945353E+03  0.7546771E-02  0.1015215E+00
         21   -1    0    0  502  501  0.00000000000E+00  0.00000000000E+00  0.22525724254E+04  0.22525724254E+04  0.00000000000E+00 0. -1.
         21   -1    0    0  503  502 -0.00000000000E+00 -0.00000000000E+00 -0.12619748916E+03  0.12619748916E+03  0.00000000000E+00 0.  1.
         25    1    1    2    0    0  0.38823174179E+03 -0.27967181533E+03  0.15384762386E+04  0.16160056765E+04  0.12500000000E+03 0.  0.
         21    1    1    2  503  504 -0.28471706443E+02  0.33507068571E+02  0.95470690544E+02  0.10510953556E+03  0.00000000000E+00 0.  1.
         21    1    1    2  504  501 -0.35976003534E+03  0.24616474676E+03  0.49242800704E+03  0.65765470248E+03  0.00000000000E+00 0.  1.
<mgrwt>
<rscale>  4 0.49453535E+03</rscale>
<asrwt>0</asrwt>
<pdfrwt beam="1">  1       21 0.34654957E+00 0.49453535E+03</pdfrwt>
<pdfrwt beam="2">  1       21 0.19415000E-01 0.49453535E+03</pdfrwt>
<totfact> 0.33978176E+02</totfact>
</mgrwt>
</event>
<event>
 5    0  0.1829809E+000  0.2807905E+03  0.7546771E-02  0.1095258E+00
         21   -1    0    0  502  501  0.00000000000E+00  0.00000000000E+00  0.28752459076E+03  0.28752459076E+03  0.00000000000E+00 0. -1.
         21   -1    0    0  503  502 -0.00000000000E+00 -0.00000000000E+00 -0.27209763620E+03  0.27209763620E+03  0.00000000000E+00 0. -1.
         25    1    1    2    0    0 -0.12265651474E+03  0.21948508653E+03  0.83017866849E+02  0.29280589139E+03  0.12500000000E+03 0.  0.
         21    1    1    2  503  504  0.68629418390E+01 -0.39974426241E+02 -0.28703751689E+02  0.49688631345E+02  0.00000000000E+00 0. -1.
         21    1    1    2  504  501  0.11579357290E+03 -0.17951066029E+03 -0.38887160604E+02  0.21712770422E+03  0.00000000000E+00 0. -1.
<mgrwt>
<rscale>  4 0.28079053E+03</rscale>
<asrwt>0</asrwt>
<pdfrwt beam="1">  1       21 0.44234552E-01 0.28079053E+03</pdfrwt>
<pdfrwt beam="2">  1       21 0.41861175E-01 0.28079053E+03</pdfrwt>
<totfact> 0.25833977E+04</totfact>
</mgrwt>
</event>
<event>
 5    0  0.1829809E+000  0.2449800E+03  0.7546771E-02  0.1116519E+00
         21   -1    0    0  502  501  0.00000000000E+00  0.00000000000E+00  0.66728544787E+03  0.66728544787E+03  0.00000000000E+00 0.  1.
         21   -1    0    0  503  502 -0.00000000000E+00 -0.00000000000E+00 -0.88693936169E+02  0.88693936169E+02  0.00000000000E+00 0.  1.
         25    1    1    2    0    0  0.25030823470E+02 -0.20919760293E+03  0.41685642733E+03  0.48351262673E+03  0.12500000000E+03 0.  0.
         21    1    1    2  503  504 -0.25289421916E+02  0.18049696288E+03  0.10883593064E+03  0.21228275547E+03  0.00000000000E+00 0.  1.
         21    1    1    2  504  501  0.25859844612E+00  0.28700640050E+02  0.52899153732E+02  0.60184001845E+02  0.00000000000E+00 0. -1.
<mgrwt>
<rscale>  4 0.24497996E+03</rscale>
<asrwt>0</asrwt>
<pdfrwt beam="1">  1       21 0.10265930E+00 0.24497996E+03</pdfrwt>
<pdfrwt beam="2">  1       21 0.13645221E-01 0.24497996E+03</pdfrwt>
<totfact> 0.34968548E+04</totfact>
</mgrwt>
</event>
<event>
 5    0  0.1829809E+000  0.4592826E+03  0.7546771E-02  0.1024989E+00
         21   -1    0    0  502  501  0.00000000000E+00  0.00000000000E+00  0.16912009195E+04  0.16912009195E+04  0.00000000000E+00 0. -1.
         21   -1    0    0  503  502 -0.00000000000E+00 -0.00000000000E+00 -0.20500056385E+03  0.20500056385E+03  0.00000000000E+00 0.  1.
         25    1    1    2    0    0 -0.29993725487E+03  0.36838329870E+03  0.10498506813E+04  0.11590858746E+04  0.12500000000E+03 0.  0.
         21    1    1    2  503  504  0.10872910069E+03 -0.38524425925E+03  0.26729053031E+03  0.48133084693E+03  0.00000000000E+00 0.  1.
         21    1    1    2  504  501  0.19120815417E+03  0.16860960548E+02  0.16905914409E+03  0.25578476188E+03  0.00000000000E+00 0. -1.
<mgrwt>
<rscale>  4 0.45928258E+03</rscale>
<asrwt>0</asrwt>
<pdfrwt beam="1">  1       21 0.26018475E+00 0.45928258E+03</pdfrwt>
<pdfrwt beam="2">  1       21 0.31538549E-01 0.45928258E+03</pdfrwt>
<totfact> 0.44941963E+02</totfact>
</mgrwt>
</event>
<event>
 5    0  0.1829809E+000  0.2498847E+03  0.7546771E-02  0.1113378E+00
         21   -1    0    0  502  501  0.00000000000E+00  0.00000000000E+00  0.15160270138E+03  0.15160270138E+03  0.00000000000E+00 0.  1.
         21   -1    0    0  503  502 -0.00000000000E+00 -0.00000000000E+00 -0.52461625467E+03  0.52461625467E+03  0.00000000000E+00 0.  1.
         25    1    1    2    0    0 -0.29456489585E+02  0.21435872637E+03 -0.78932826322E+01  0.25000930435E+03  0.12500000000E+03 0.  0.
         21    1    1    2  503  504  0.12558638196E+02 -0.17040172293E+02 -0.26346272446E+02  0.33796640912E+02  0.00000000000E+00 0. -1.
         21    1    1    2  504  501  0.16897851389E+02 -0.19731855408E+03 -0.33877399822E+03  0.39241301079E+03  0.00000000000E+00 0.  1.
<mgrwt>
<rscale>  4 0.24988467E+03</rscale>
<asrwt>0</asrwt>
<pdfrwt beam="1">  1       21 0.23323492E-01 0.24988467E+03</pdfrwt>
<pdfrwt beam="2">  1       21 0.80710194E-01 0.24988467E+03</pdfrwt>
<totfact> 0.22593349E+04</totfact>
</mgrwt>
</event>
<event>
 5    0  0.1829809E+000  0.2487016E+03  0.7546771E-02  0.1114128E+00
         21   -1    0    0  502  501  0.00000000000E+00  0.00000000000E+00  0.47873755438E+03  0.47873755438E+03  0.00000000000E+00 0.  1.
         21   -1    0    0  503  502 -0.00000000000E+00 -0.00000000000E+00 -0.12932060375E+03  0.12932060375E+03  0.00000000000E+00 0.  1.
         25    1    1    2    0    0  0.21500113661E+03  0.14080739718E+01  0.28743090291E+03  0.38009077253E+03  0.12500000000E+03 0.  0.
         21    1    1    2  503  504 -0.18554669250E+03 -0.22714319142E+01  0.36736503713E+02  0.18916211356E+03  0.00000000000E+00 0.  1.
         21    1    1    2  504  501 -0.29454444111E+02  0.86335794244E+00  0.25249544006E+02  0.38805272030E+02  0.00000000000E+00 0. -1.
<mgrwt>
<rscale>  4 0.24870157E+03</rscale>
<asrwt>0</asrwt>
<pdfrwt beam="1">  1       21 0.73651930E-01 0.24870157E+03</pdfrwt>
<pdfrwt beam="2">  1       21 0.19895478E-01 0.24870157E+03</pdfrwt>
<totfact> 0.37557496E+04</totfact>
</mgrwt>
</event>
<event>
 5    0  0.1829809E+000  0.2502660E+03  0.7546771E-02  0.1113137E+00
         21   -1    0    0  502  501  0.00000000000E+00  0.00000000000E+00  0.58699172550E+03  0.58699172550E+03  0.00000000000E+00 0.  1.
         21   -1    0    0  503  502 -0.00000000000E+00 -0.00000000000E+00 -0.98323780735E+02  0.98323780735E+02  0.00000000000E+00 0.  1.
         25    1    1    2    0    0 -0.95369325153E+02  0.19471198250E+03  0.19179976589E+03  0.31530971204E+03  0.12500000000E+03 0.  0.
         21    1    1    2  503  504  0.18804373756E+02 -0.30975030790E+02  0.26966700846E+02  0.45169236868E+02  0.00000000000E+00 0.  1.
         21    1    1    2  504  501  0.76564951397E+02 -0.16373695171E+03  0.26990147802E+03  0.32483655733E+03  0.00000000000E+00 0.  1.
<mgrwt>
<rscale>  4 0.25026599E+03</rscale>
<asrwt>0</asrwt>
<pdfrwt beam="1">  1       21 0.90306418E-01 0.25026599E+03</pdfrwt>
<pdfrwt beam="2">  1       21 0.15126736E-01 0.25026599E+03</pdfrwt>
<totfact> 0.39154805E+04</totfact>
</mgrwt>
</event>
<event>
 5    0  0.1829809E+000  0.4998518E+03  0.7546771E-02  0.1013826E+00
         21   -1    0    0  502  501  0.00000000000E+00  0.00000000000E+00  0.89775838119E+03  0.89775838119E+03  0.00000000000E+00 0. -1.
         21   -1    0    0  503  502 -0.00000000000E+00 -0.00000000000E+00 -0.56580449103E+03  0.56580449103E+03  0.00000000000E+00 0.  1.
         25    1    1    2    0    0 -0.28416630174E+03 -0.39158758584E+03  0.68766816726E+03  0.85006107586E+03  0.12500000000E+03 0.  0.
         21    1    1    2  503  504  0.16534920912E+03  0.31564651549E+03 -0.28177591737E+03  0.45428047647E+03  0.00000000000E+00 0.  1.
         21    1    1    2  504  501  0.11881709263E+03  0.75941070351E+02 -0.73938359733E+02  0.15922131989E+03  0.00000000000E+00 0. -1.
<mgrwt>
<rscale>  4 0.49981790E+03</rscale>
<asrwt>0</asrwt>
<pdfrwt beam="1">  1       21 0.13811667E+00 0.49985179E+03</pdfrwt>
<pdfrwt beam="2">  1       21 0.87046845E-01 0.49985179E+03</pdfrwt>
<totfact> 0.34030572E+02</totfact>
</mgrwt>
</event>
<event>
 5    0  0.1829809E+000  0.2529483E+03  0.7546771E-02  0.1111456E+00
         21   -1    0    0  502  501  0.00000000000E+00  0.00000000000E+00  0.11024376314E+03  0.11024376314E+03  0.00000000000E+00 0. -1.
         21   -1    0    0  503  502 -0.00000000000E+00 -0.00000000000E+00 -0.18093510645E+04  0.18093510645E+04  0.00000000000E+00 0.  1.
         25    1    1    2    0    0 -0.10679525927E+03 -0.19463614642E+03 -0.65843312462E+02  0.26315166481E+03  0.12500000000E+03 0.  0.
         21    1    1    2  503  504  0.64848087849E+02  0.19221158337E+03 -0.15495960615E+04  0.15628174945E+04  0.00000000000E+00 0.  1.
         21    1    1    2  504  501  0.41947171417E+02  0.24245630531E+01 -0.83667927383E+02  0.93625668321E+02  0.00000000000E+00 0. -1.
<mgrwt>
<rscale>  4 0.25294830E+03</rscale>
<asrwt>0</asrwt>
<pdfrwt beam="1">  1       21 0.16960579E-01 0.25294830E+03</pdfrwt>
<pdfrwt beam="2">  1       21 0.27836171E+00 0.25294830E+03</pdfrwt>
<totfact> 0.13328522E+03</totfact>
</mgrwt>
</event>
<event>
 5    0  0.1829809E+000  0.2608416E+03  0.7546771E-02  0.1106639E+00
         21   -1    0    0  502  501  0.00000000000E+00  0.00000000000E+00  0.52438940769E+03  0.52438940769E+03  0.00000000000E+00 0. -1.
         21   -1    0    0  503  502 -0.00000000000E+00 -0.00000000000E+00 -0.19276414290E+03  0.19276414290E+03  0.00000000000E+00 0. -1.
         25    1    1    2    0    0  0.15145190474E+03 -0.17168476947E+03  0.39776590058E+03  0.47566380058E+03  0.12500000000E+03 0.  0.
         21    1    1    2  503  504 -0.13021628582E+02  0.24556179347E+02  0.30338185909E+01  0.27960200469E+02  0.00000000000E+00 0. -1.
         21    1    1    2  504  501 -0.13843027615E+03  0.14712859012E+03 -0.69174454385E+02  0.21352954954E+03  0.00000000000E+00 0. -1.
<mgrwt>
<rscale>  4 0.26084160E+03</rscale>
<asrwt>0</asrwt>
<pdfrwt beam="1">  1       21 0.80675293E-01 0.26084160E+03</pdfrwt>
<pdfrwt beam="2">  1       21 0.29656022E-01 0.26084160E+03</pdfrwt>
<totfact> 0.14139587E+04</totfact>
</mgrwt>
</event>
<event>
 5    0  0.1829809E+000  0.3355432E+03  0.7546771E-02  0.1068710E+00
         21   -1    0    0  502  501  0.00000000000E+00  0.00000000000E+00  0.39414273622E+03  0.39414273622E+03  0.00000000000E+00 0.  1.
         21   -1    0    0  503  502 -0.00000000000E+00 -0.00000000000E+00 -0.36690321819E+03  0.36690321819E+03  0.00000000000E+00 0.  1.
         25    1    1    2    0    0 -0.30300981043E+03  0.71758735741E+02  0.21085329127E+03  0.39629329014E+03  0.12500000000E+03 0.  0.
         21    1    1    2  503  504  0.25895604003E+03 -0.43324828641E+02 -0.15756172535E+03  0.30620412920E+03  0.00000000000E+00 0.  1.
         21    1    1    2  504  501  0.44053770404E+02 -0.28433907099E+02 -0.26052047885E+02  0.58548535070E+02  0.00000000000E+00 0. -1.
<mgrwt>
<rscale>  4 0.33554323E+03</rscale>
<asrwt>0</asrwt>
<pdfrwt beam="1">  1       21 0.60637344E-01 0.33554323E+03</pdfrwt>
<pdfrwt beam="2">  1       21 0.56446649E-01 0.33554323E+03</pdfrwt>
<totfact> 0.69008615E+03</totfact>
</mgrwt>
</event>
<event>
 5    0  0.1829809E+000  0.2392700E+03  0.7546771E-02  0.1120280E+00
         21   -1    0    0  502  501  0.00000000000E+00  0.00000000000E+00  0.90969909418E+03  0.90969909418E+03  0.00000000000E+00 0.  1.
         21   -1    0    0  503  502 -0.00000000000E+00 -0.00000000000E+00 -0.11655543592E+03  0.11655543592E+03  0.00000000000E+00 0.  1.
         25    1    1    2    0    0 -0.20390738731E+03 -0.68485075623E+01  0.75899878298E+03  0.79581987737E+03  0.12500000000E+03 0.  0.
         21    1    1    2  503  504  0.14381903494E+03 -0.35546885605E+02  0.47741241204E+02  0.15564935592E+03  0.00000000000E+00 0.  1.
         21    1    1    2  504  501  0.60088352370E+02  0.42395393167E+02 -0.13596365929E+02  0.74785296809E+02  0.00000000000E+00 0.  1.
<mgrwt>
<rscale>  4 0.23926998E+03</rscale>
<asrwt>0</asrwt>
<pdfrwt beam="1">  1       21 0.13995370E+00 0.23926998E+03</pdfrwt>
<pdfrwt beam="2">  1       21 0.17931606E-01 0.23926998E+03</pdfrwt>
<totfact> 0.98049638E+03</totfact>
</mgrwt>
</event>
<event>
 5    0  0.1829809E+000  0.2423173E+03  0.7546771E-02  0.1118259E+00
         21   -1    0    0  502  501  0.00000000000E+00  0.00000000000E+00  0.79987564835E+02  0.79987564835E+02  0.00000000000E+00 0. -1.
         21   -1    0    0  503  502 -0.00000000000E+00 -0.00000000000E+00 -0.65380197328E+03  0.65380197328E+03  0.00000000000E+00 0. -1.
         25    1    1    2    0    0  0.38685020208E+02  0.20395132234E+03 -0.33391105271E+03  0.41257031376E+03  0.12500000000E+03 0.  0.
         21    1    1    2  503  504 -0.31212174895E+02 -0.12769784489E+03 -0.11485131985E+03  0.17456163703E+03  0.00000000000E+00 0. -1.
         21    1    1    2  504  501 -0.74728453132E+01 -0.76253477455E+02 -0.12505203589E+03  0.14665758733E+03  0.00000000000E+00 0. -1.
<mgrwt>
<rscale>  4 0.24231730E+03</rscale>
<asrwt>0</asrwt>
<pdfrwt beam="1">  1       21 0.12305779E-01 0.24231730E+03</pdfrwt>
<pdfrwt beam="2">  1       21 0.10058492E+00 0.24231730E+03</pdfrwt>
<totfact> 0.44329795E+04</totfact>
</mgrwt>
</event>
<event>
 5    0  0.1829809E+000  0.3076640E+03  0.7546771E-02  0.1081471E+00
         21   -1    0    0  502  501  0.00000000000E+00  0.00000000000E+00  0.53880024768E+03  0.53880024768E+03  0.00000000000E+00 0. -1.
         21   -1    0    0  503  502 -0.00000000000E+00 -0.00000000000E+00 -0.33121294352E+03  0.33121294352E+03  0.00000000000E+00 0. -1.
         25    1    1    2    0    0 -0.27889693524E+03 -0.35335691935E+02  0.40683571968E+03  0.51007098958E+03  0.12500000000E+03 0.  0.
         21    1    1    2  503  504  0.45218636423E+02  0.42017134244E+02 -0.68027372507E+02  0.91857977663E+02  0.00000000000E+00 0.  1.
         21    1    1    2  504  501  0.23367829881E+03 -0.66814423094E+01 -0.13122104300E+03  0.26808422396E+03  0.00000000000E+00 0. -1.
<mgrwt>
<rscale>  4 0.30766396E+03</rscale>
<asrwt>0</asrwt>
<pdfrwt beam="1">  1       21 0.82892346E-01 0.30766396E+03</pdfrwt>
<pdfrwt beam="2">  1       21 0.50955837E-01 0.30766396E+03</pdfrwt>
<totfact> 0.43173376E+03</totfact>
</mgrwt>
</event>
<event>
 5    0  0.1829809E+000  0.2453065E+03  0.7546771E-02  0.1116307E+00
         21   -1    0    0  502  501  0.00000000000E+00  0.00000000000E+00  0.27929157338E+03  0.27929157338E+03  0.00000000000E+00 0. -1.
         21   -1    0    0  503  502 -0.00000000000E+00 -0.00000000000E+00 -0.19334088126E+03  0.19334088126E+03  0.00000000000E+00 0. -1.
         25    1    1    2    0    0 -0.20893305009E+03 -0.29954550933E+02  0.19269795699E+02  0.24606222703E+03  0.12500000000E+03 0.  0.
         21    1    1    2  503  504  0.18544093810E+03  0.30025852108E+02  0.74088024281E+02  0.20193793269E+03  0.00000000000E+00 0. -1.
         21    1    1    2  504  501  0.23492111997E+02 -0.71301175336E-01 -0.74071278551E+01  0.24632294920E+02  0.00000000000E+00 0. -1.
<mgrwt>
<rscale>  4 0.24530653E+03</rscale>
<asrwt>0</asrwt>
<pdfrwt beam="1">  1       21 0.42967935E-01 0.24530653E+03</pdfrwt>
<pdfrwt beam="2">  1       21 0.29744751E-01 0.24530653E+03</pdfrwt>
<totfact> 0.55151755E+04</totfact>
</mgrwt>
</event>
<event>
 5    0  0.1829809E+000  0.2964120E+03  0.7546771E-02  0.1087048E+00
         21   -1    0    0  502  501  0.00000000000E+00  0.00000000000E+00  0.15793124727E+03  0.15793124727E+03  0.00000000000E+00 0.  1.
         21   -1    0    0  503  502 -0.00000000000E+00 -0.00000000000E+00 -0.62670537052E+03  0.62670537052E+03  0.00000000000E+00 0.  1.
         25    1    1    2    0    0 -0.72314391054E+02  0.25885464284E+03 -0.76447614466E+02  0.30611163818E+03  0.12500000000E+03 0.  0.
         21    1    1    2  503  504  0.10392837193E+02 -0.19980920169E+02 -0.13029421502E+02  0.26019493854E+02  0.00000000000E+00 0.  1.
         21    1    1    2  504  501  0.61921553861E+02 -0.23887372267E+03 -0.37929708728E+03  0.45250548576E+03  0.00000000000E+00 0.  1.
<mgrwt>
<rscale>  4 0.29641204E+03</rscale>
<asrwt>0</asrwt>
<pdfrwt beam="1">  1       21 0.24297115E-01 0.29641204E+03</pdfrwt>
<pdfrwt beam="2">  1       21 0.96416212E-01 0.29641204E+03</pdfrwt>
<totfact> 0.13517596E+04</totfact>
</mgrwt>
</event>
<event>
 5    0  0.1829809E+000  0.2624586E+03  0.7546771E-02  0.1105675E+00
         21   -1    0    0  502  501  0.00000000000E+00  0.00000000000E+00  0.15434047475E+03  0.15434047475E+03  0.00000000000E+00 0. -1.
         21   -1    0    0  503  502 -0.00000000000E+00 -0.00000000000E+00 -0.42130039539E+03  0.42130039539E+03  0.00000000000E+00 0. -1.
         25    1    1    2    0    0  0.12613904669E+03 -0.19325745458E+03 -0.17452721158E+03  0.31518922956E+03  0.12500000000E+03 0.  0.
         21    1    1    2  503  504 -0.69798237084E+02  0.12326932744E+03 -0.95005220594E+02  0.17056703353E+03  0.00000000000E+00 0. -1.
         21    1    1    2  504  501 -0.56340809606E+02  0.69988127135E+02  0.25725115308E+01  0.89884607039E+02  0.00000000000E+00 0. -1.
<mgrwt>
<rscale>  4 0.26245857E+03</rscale>
<asrwt>0</asrwt>
<pdfrwt beam="1">  1       21 0.23744688E-01 0.26245857E+03</pdfrwt>
<pdfrwt beam="2">  1       21 0.64815446E-01 0.26245857E+03</pdfrwt>
<totfact> 0.35450035E+04</totfact>
</mgrwt>
</event>
<event>
 5    0  0.1829809E+000  0.3197961E+03  0.7546771E-02  0.1076623E+00
         21   -1    0    0  502  501  0.00000000000E+00  0.00000000000E+00  0.44705264734E+03  0.44705264734E+03  0.00000000000E+00 0. -1.
         21   -1    0    0  503  502 -0.00000000000E+00 -0.00000000000E+00 -0.31975283358E+03  0.31975283358E+03  0.00000000000E+00 0. -1.
         25    1    1    2    0    0  0.16635351888E+03  0.23281372663E+03  0.27357534434E+03  0.41514358189E+03  0.12500000000E+03 0.  0.
         21    1    1    2  503  504 -0.23596879778E+01 -0.12081249967E+03 -0.63576681013E+02  0.13654018665E+03  0.00000000000E+00 0. -1.
         21    1    1    2  504  501 -0.16399383090E+03 -0.11200122697E+03 -0.82698849564E+02  0.21512171238E+03  0.00000000000E+00 0. -1.
<mgrwt>
<rscale>  4 0.31789294E+03</rscale>
<asrwt>0</asrwt>
<pdfrwt beam="1">  1       21 0.68777330E-01 0.31979612E+03</pdfrwt>
<pdfrwt beam="2">  1       21 0.49192744E-01 0.31979612E+03</pdfrwt>
<totfact> 0.70561075E+03</totfact>
</mgrwt>
</event>
<event>
 5    0  0.1829809E+000  0.2446158E+03  0.7546771E-02  0.1116756E+00
         21   -1    0    0  502  501  0.00000000000E+00  0.00000000000E+00  0.15816149145E+04  0.15816149145E+04  0.00000000000E+00 0. -1.
         21   -1    0    0  503  502 -0.00000000000E+00 -0.00000000000E+00 -0.19065225565E+03  0.19065225565E+03  0.00000000000E+00 0. -1.
         25    1    1    2    0    0  0.24343093033E+02 -0.20885239052E+03  0.15071871013E+04  0.15269085976E+04  0.12500000000E+03 0.  0.
         21    1    1    2  503  504  0.59327978477E+01  0.12913274821E+03 -0.84177297592E+02  0.15426043622E+03  0.00000000000E+00 0. -1.
         21    1    1    2  504  501 -0.30275890880E+02  0.79719642308E+02 -0.32047144882E+02  0.91098136279E+02  0.00000000000E+00 0. -1.
<mgrwt>
<rscale>  4 0.24461584E+03</rscale>
<asrwt>0</asrwt>
<pdfrwt beam="1">  1       21 0.24332536E+00 0.24461584E+03</pdfrwt>
<pdfrwt beam="2">  1       21 0.29331117E-01 0.24461584E+03</pdfrwt>
<totfact> 0.76474717E+02</totfact>
</mgrwt>
</event>
<event>
 5    0  0.1829809E+000  0.3923581E+03  0.7546771E-02  0.1046458E+00
         21   -1    0    0  502  501  0.00000000000E+00  0.00000000000E+00  0.16951732617E+04  0.16951732617E+04  0.00000000000E+00 0. -1.
         21   -1    0    0  503  502 -0.00000000000E+00 -0.00000000000E+00 -0.11995615049E+03  0.11995615049E+03  0.00000000000E+00 0.  1.
         25    1    1    2    0    0  0.26983658808E+03 -0.25594554999E+03  0.12697141560E+04  0.13289540800E+04  0.12500000000E+03 0.  0.
         21    1    1    2  503  504 -0.24577757498E+03  0.21184080989E+03  0.23981799099E+03  0.40347963257E+03  0.00000000000E+00 0.  1.
         21    1    1    2  504  501 -0.24059013105E+02  0.44104740099E+02  0.65684964233E+02  0.82695699629E+02  0.00000000000E+00 0. -1.
<mgrwt>
<rscale>  4 0.39235814E+03</rscale>
<asrwt>0</asrwt>
<pdfrwt beam="1">  1       21 0.26079587E+00 0.39235814E+03</pdfrwt>
<pdfrwt beam="2">  1       21 0.18454794E-01 0.39235814E+03</pdfrwt>
<totfact> 0.13064518E+03</totfact>
</mgrwt>
</event>
<event>
 5    0  0.1829809E+000  0.3074869E+03  0.7546771E-02  0.1081557E+00
         21   -1    0    0  502  501  0.00000000000E+00  0.00000000000E+00  0.12293985612E+04  0.12293985612E+04  0.00000000000E+00 0. -1.
         21   -1    0    0  503  502 -0.00000000000E+00 -0.00000000000E+00 -0.12349346246E+03  0.12349346246E+03  0.00000000000E+00 0. -1.
         25    1    1    2    0    0 -0.29036681909E+03  0.83391753867E+02  0.90693147873E+03  0.96406264389E+03  0.12500000000E+03 0.  0.
         21    1    1    2  503  504  0.26182909152E+03 -0.88308088431E+02  0.11374495552E+03  0.29881550588E+03  0.00000000000E+00 0. -1.
         21    1    1    2  504  501  0.28537727566E+02  0.49163345641E+01  0.85228664494E+02  0.90013873884E+02  0.00000000000E+00 0.  1.
<mgrwt>
<rscale>  4 0.30748685E+03</rscale>
<asrwt>0</asrwt>
<pdfrwt beam="1">  1       21 0.18913823E+00 0.30748685E+03</pdfrwt>
<pdfrwt beam="2">  1       21 0.18998995E-01 0.30748685E+03</pdfrwt>
<totfact> 0.36831595E+03</totfact>
</mgrwt>
</event>
<event>
 5    0  0.1829809E+000  0.2537046E+03  0.7546771E-02  0.1110986E+00
         21   -1    0    0  502  501  0.00000000000E+00  0.00000000000E+00  0.49497538406E+03  0.49497538406E+03  0.00000000000E+00 0.  1.
         21   -1    0    0  503  502 -0.00000000000E+00 -0.00000000000E+00 -0.11603626658E+03  0.11603626658E+03  0.00000000000E+00 0.  1.
         25    1    1    2    0    0  0.18062203081E+03  0.12695151044E+03  0.21099026364E+03  0.32997408287E+03  0.12500000000E+03 0.  0.
         21    1    1    2  503  504 -0.13285694816E+03 -0.84480766792E+02  0.14212255699E+03  0.21210089542E+03  0.00000000000E+00 0.  1.
         21    1    1    2  504  501 -0.47765082652E+02 -0.42470743649E+02  0.25826296850E+02  0.68936672358E+02  0.00000000000E+00 0.  1.
<mgrwt>
<rscale>  4 0.25370456E+03</rscale>
<asrwt>0</asrwt>
<pdfrwt beam="1">  1       21 0.76150058E-01 0.25370456E+03</pdfrwt>
<pdfrwt beam="2">  1       21 0.17851734E-01 0.25370456E+03</pdfrwt>
<totfact> 0.42578818E+04</totfact>
</mgrwt>
</event>
<event>
 5    0  0.1829809E+000  0.2751858E+03  0.7546771E-02  0.1098348E+00
         21   -1    0    0  502  501  0.00000000000E+00  0.00000000000E+00  0.27185792358E+04  0.27185792358E+04  0.00000000000E+00 0. -1.
         21   -1    0    0  503  502 -0.00000000000E+00 -0.00000000000E+00 -0.10735188232E+03  0.10735188232E+03  0.00000000000E+00 0.  1.
         25    1    1    2    0    0  0.20077405338E+03  0.14068413330E+03  0.25551939760E+04  0.25699695525E+04  0.12500000000E+03 0.  0.
         21    1    1    2  503  504 -0.17724525133E+03 -0.14056943495E+03  0.50351331933E+02  0.23175612568E+03  0.00000000000E+00 0.  1.
         21    1    1    2  504  501 -0.23528802049E+02 -0.11469834949E+00  0.56820455786E+01  0.24205439958E+02  0.00000000000E+00 0. -1.
<mgrwt>
<rscale>  4 0.27518584E+03</rscale>
<asrwt>0</asrwt>
<pdfrwt beam="1">  1       21 0.41824291E+00 0.27518584E+03</pdfrwt>
<pdfrwt beam="2">  1       21 0.16515676E-01 0.27518584E+03</pdfrwt>
<totfact> 0.19516822E+02</totfact>
</mgrwt>
</event>
<event>
 5    0  0.1829809E+000  0.2591608E+03  0.7546771E-02  0.1107648E+00
         21   -1    0    0  502  501  0.00000000000E+00  0.00000000000E+00  0.17676672408E+03  0.17676672408E+03  0.00000000000E+00 0.  1.
         21   -1    0    0  503  502 -0.00000000000E+00 -0.00000000000E+00 -0.10199107291E+04  0.10199107291E+04  0.00000000000E+00 0.  1.
         25    1    1    2    0    0  0.30391646062E+03  0.18357927010E+03 -0.17155242387E+03  0.41366870510E+03  0.12500000000E+03 0.  0.
         21    1    1    2  503  504 -0.11868930271E+03 -0.90174057543E+02 -0.11272540060E+03  0.18688372635E+03  0.00000000000E+00 0.  1.
         21    1    1    2  504  501 -0.18522715791E+03 -0.93405212557E+02 -0.55886618058E+03  0.59612502175E+03  0.00000000000E+00 0.  1.
<mgrwt>
<rscale>  4 0.25916081E+03</rscale>
<asrwt>0</asrwt>
<pdfrwt beam="1">  1       21 0.27194881E-01 0.25916081E+03</pdfrwt>
<pdfrwt beam="2">  1       21 0.15690934E+00 0.25916081E+03</pdfrwt>
<totfact> 0.32427512E+03</totfact>
</mgrwt>
</event>
<event>
 5    0  0.1829809E+000  0.2778090E+03  0.7546771E-02  0.1096892E+00
         21   -1    0    0  502  501  0.00000000000E+00  0.00000000000E+00  0.19869605465E+03  0.19869605465E+03  0.00000000000E+00 0. -1.
         21   -1    0    0  503  502 -0.00000000000E+00 -0.00000000000E+00 -0.52881290318E+03  0.52881290318E+03  0.00000000000E+00 0. -1.
         25    1    1    2    0    0  0.44249904811E+02 -0.25084213337E+03 -0.32604034076E+02  0.28560086307E+03  0.12500000000E+03 0.  0.
         21    1    1    2  503  504 -0.30680343543E+02  0.10679675630E+02 -0.16320593948E+03  0.16640768502E+03  0.00000000000E+00 0. -1.
         21    1    1    2  504  501 -0.13569561268E+02  0.24016245774E+03 -0.13430687498E+03  0.27550040974E+03  0.00000000000E+00 0. -1.
<mgrwt>
<rscale>  4 0.27780898E+03</rscale>
<asrwt>0</asrwt>
<pdfrwt beam="1">  1       21 0.30568624E-01 0.27780898E+03</pdfrwt>
<pdfrwt beam="2">  1       21 0.81355831E-01 0.27780898E+03</pdfrwt>
<totfact> 0.12960854E+04</totfact>
</mgrwt>
</event>
<event>
 5    0  0.1829809E+000  0.2399976E+03  0.7546771E-02  0.1119794E+00
         21   -1    0    0  502  501  0.00000000000E+00  0.00000000000E+00  0.26310660616E+03  0.26310660616E+03  0.00000000000E+00 0. -1.
         21   -1    0    0  503  502 -0.00000000000E+00 -0.00000000000E+00 -0.42282419443E+03  0.42282419443E+03  0.00000000000E+00 0. -1.
         25    1    1    2    0    0  0.36142756572E+02  0.28292839974E+03  0.89470567353E+01  0.31154426340E+03  0.12500000000E+03 0.  0.
         21    1    1    2  503  504  0.28507759562E+02 -0.10790716913E+03  0.14955716247E+02  0.11260694007E+03  0.00000000000E+00 0. -1.
         21    1    1    2  504  501 -0.64650516134E+02 -0.17502123062E+03 -0.18362036125E+03  0.26177959712E+03  0.00000000000E+00 0. -1.
<mgrwt>
<rscale>  4 0.23999757E+03</rscale>
<asrwt>0</asrwt>
<pdfrwt beam="1">  1       21 0.40477939E-01 0.23999757E+03</pdfrwt>
<pdfrwt beam="2">  1       21 0.65049876E-01 0.23999757E+03</pdfrwt>
<totfact> 0.12429094E+04</totfact>
</mgrwt>
</event>
<event>
 5    0  0.1829809E+000  0.4459714E+03  0.7546771E-02  0.1028930E+00
         21   -1    0    0  502  501  0.00000000000E+00  0.00000000000E+00  0.72745962694E+03  0.72745962694E+03  0.00000000000E+00 0. -1.
         21   -1    0    0  503  502 -0.00000000000E+00 -0.00000000000E+00 -0.38939617979E+03  0.38939617979E+03  0.00000000000E+00 0. -1.
         25    1    1    2    0    0  0.29621447557E+03 -0.30892409883E+03  0.42409527662E+03  0.61535267776E+03  0.12500000000E+03 0.  0.
         21    1    1    2  503  504  0.44362729742E+02  0.43700193299E+02 -0.70448199703E+01  0.62668877228E+02  0.00000000000E+00 0.  1.
         21    1    1    2  504  501 -0.34057720531E+03  0.26522390553E+03 -0.78987009491E+02  0.43883425175E+03  0.00000000000E+00 0. -1.
<mgrwt>
<rscale>  4 0.44597139E+03</rscale>
<asrwt>0</asrwt>
<pdfrwt beam="1">  1       21 0.11191687E+00 0.44597139E+03</pdfrwt>
<pdfrwt beam="2">  1       21 0.59907105E-01 0.44597139E+03</pdfrwt>
<totfact> 0.13948015E+03</totfact>
</mgrwt>
</event>
<event>
 5    0  0.1829809E+000  0.2073324E+03  0.7546771E-02  0.1143696E+00
         21   -1    0    0  502  501  0.00000000000E+00  0.00000000000E+00  0.93653846351E+03  0.93653846351E+03  0.00000000000E+00 0. -1.
         21   -1    0    0  503  502 -0.00000000000E+00 -0.00000000000E+00 -0.78947498282E+02  0.78947498282E+02  0.00000000000E+00 0. -1.
         25    1    1    2    0    0 -0.18698429223E+03 -0.11843090179E+03  0.46959679044E+03  0.53398047683E+03  0.12500000000E+03 0.  0.
         21    1    1    2  503  504  0.71538450804E+02  0.13516331945E+03  0.13951039882E+03  0.20700247401E+03  0.00000000000E+00 0. -1.
         21    1    1    2  504  501  0.11544584143E+03 -0.16732417658E+02  0.24848377597E+03  0.27450301096E+03  0.00000000000E+00 0. -1.
<mgrwt>
<rscale>  4 0.20733244E+03</rscale>
<asrwt>0</asrwt>
<pdfrwt beam="1">  1       21 0.14408283E+00 0.20733244E+03</pdfrwt>
<pdfrwt beam="2">  1       21 0.12145770E-01 0.20733244E+03</pdfrwt>
<totfact> 0.18886420E+04</totfact>
</mgrwt>
</event>
<event>
 5    0  0.1829809E+000  0.2587486E+03  0.7546771E-02  0.1107897E+00
         21   -1    0    0  502  501  0.00000000000E+00  0.00000000000E+00  0.50780686278E+03  0.50780686278E+03  0.00000000000E+00 0.  1.
         21   -1    0    0  503  502 -0.00000000000E+00 -0.00000000000E+00 -0.17333581890E+03  0.17333581890E+03  0.00000000000E+00 0.  1.
         25    1    1    2    0    0  0.14939524341E+02 -0.22605889777E+03  0.36378626593E+03  0.44642049900E+03  0.12500000000E+03 0.  0.
         21    1    1    2  503  504  0.13758145462E+02  0.17405184826E+02 -0.99217733914E+00  0.22208364218E+02  0.00000000000E+00 0.  1.
         21    1    1    2  504  501 -0.28697669803E+02  0.20865371294E+03 -0.28323044717E+02  0.21251381846E+03  0.00000000000E+00 0.  1.
<mgrwt>
<rscale>  4 0.25874855E+03</rscale>
<asrwt>0</asrwt>
<pdfrwt beam="1">  1       21 0.78124132E-01 0.25874855E+03</pdfrwt>
<pdfrwt beam="2">  1       21 0.26667049E-01 0.25874855E+03</pdfrwt>
<totfact> 0.18729442E+04</totfact>
</mgrwt>
</event>
<event>
 5    0  0.1829809E+000  0.3280550E+03  0.7546771E-02  0.1072001E+00
         21   -1    0    0  502  501  0.00000000000E+00  0.00000000000E+00  0.52174848650E+03  0.52174848650E+03  0.00000000000E+00 0. -1.
         21   -1    0    0  503  502 -0.00000000000E+00 -0.00000000000E+00 -0.20160969770E+03  0.20160969770E+03  0.00000000000E+00 0. -1.
         25    1    1    2    0    0 -0.99974323301E+02  0.28635674915E+03  0.22421937738E+03  0.39735926099E+03  0.12500000000E+03 0.  0.
         21    1    1    2  503  504  0.61944827810E+02 -0.24639999954E+03  0.63001000780E+02  0.26176181456E+03  0.00000000000E+00 0. -1.
         21    1    1    2  504  501  0.38029495491E+02 -0.39956749613E+02  0.32918410646E+02  0.64237108640E+02  0.00000000000E+00 0.  1.
<mgrwt>
<rscale>  4 0.32805495E+03</rscale>
<asrwt>0</asrwt>
<pdfrwt beam="1">  1       21 0.80268997E-01 0.32805495E+03</pdfrwt>
<pdfrwt beam="2">  1       21 0.31016877E-01 0.32805495E+03</pdfrwt>
<totfact> 0.12708221E+04</totfact>
</mgrwt>
</event>
<event>
 5    0  0.1829809E+000  0.2895409E+03  0.7546771E-02  0.1090589E+00
         21   -1    0    0  502  501  0.00000000000E+00  0.00000000000E+00  0.12870002695E+03  0.12870002695E+03  0.00000000000E+00 0. -1.
         21   -1    0    0  503  502 -0.00000000000E+00 -0.00000000000E+00 -0.60537939722E+03  0.60537939722E+03  0.00000000000E+00 0. -1.
         25    1    1    2    0    0  0.60399112926E+02 -0.25408827428E+03 -0.25705049985E+03  0.38718065995E+03  0.12500000000E+03 0.  0.
         21    1    1    2  503  504 -0.37678577053E+02  0.20244060160E+03 -0.20027107669E+03  0.28724619493E+03  0.00000000000E+00 0. -1.
         21    1    1    2  504  501 -0.22720535873E+02  0.51647672686E+02 -0.19357793746E+02  0.59652569291E+02  0.00000000000E+00 0. -1.
<mgrwt>
<rscale>  4 0.28954085E+03</rscale>
<asrwt>0</asrwt>
<pdfrwt beam="1">  1       21 0.19800004E-01 0.28954085E+03</pdfrwt>
<pdfrwt beam="2">  1       21 0.93135294E-01 0.28954085E+03</pdfrwt>
<totfact> 0.21723986E+04</totfact>
</mgrwt>
</event>
<event>
 5    0  0.1829809E+000  0.3248973E+03  0.7546771E-02  0.1073417E+00
         21   -1    0    0  502  501  0.00000000000E+00  0.00000000000E+00  0.10838045338E+04  0.10838045338E+04  0.00000000000E+00 0. -1.
         21   -1    0    0  503  502 -0.00000000000E+00 -0.00000000000E+00 -0.91094879295E+02  0.91094879295E+02  0.00000000000E+00 0. -1.
         25    1    1    2    0    0 -0.18465060418E+03 -0.23629935296E+03  0.49021302678E+03  0.58810461778E+03  0.12500000000E+03 0.  0.
         21    1    1    2  503  504  0.19416285506E+02  0.37700392042E+02  0.98704530687E+02  0.10742856269E+03  0.00000000000E+00 0. -1.
         21    1    1    2  504  501  0.16523431867E+03  0.19859896092E+03  0.40379209700E+03  0.47936623259E+03  0.00000000000E+00 0. -1.
<mgrwt>
<rscale>  4 0.32489726E+03</rscale>
<asrwt>0</asrwt>
<pdfrwt beam="1">  1       21 0.16673915E+00 0.32489726E+03</pdfrwt>
<pdfrwt beam="2">  1       21 0.14014598E-01 0.32489726E+03</pdfrwt>
<totfact> 0.92055892E+03</totfact>
</mgrwt>
</event>
<event>
 5    0  0.1829809E+000  0.2364228E+03  0.7546771E-02  0.1122199E+00
         21   -1    0    0  502  501  0.00000000000E+00  0.00000000000E+00  0.29007651705E+03  0.29007651705E+03  0.00000000000E+00 0.  1.
         21   -1    0    0  503  502 -0.00000000000E+00 -0.00000000000E+00 -0.42914096605E+03  0.42914096605E+03  0.00000000000E+00 0.  1.
         25    1    1    2    0    0 -0.89711624037E+02  0.20029452301E+03  0.15027854855E+03  0.29389575293E+03  0.12500000000E+03 0.  0.
         21    1    1    2  503  504  0.11406449953E+02 -0.17480651202E+03 -0.65860048647E+02  0.18714959191E+03  0.00000000000E+00 0.  1.
         21    1    1    2  504  501  0.78305174084E+02 -0.25488010992E+02 -0.22348294890E+03  0.23817213826E+03  0.00000000000E+00 0. -1.
<mgrwt>
<rscale>  4 0.23642280E+03</rscale>
<asrwt>0</asrwt>
<pdfrwt beam="1">  1       21 0.44627157E-01 0.23642280E+03</pdfrwt>
<pdfrwt beam="2">  1       21 0.66021687E-01 0.23642280E+03</pdfrwt>
<totfact> 0.98718483E+03</totfact>
</mgrwt>
</event>
<event>
 5    0  0.1829809E+000  0.3104502E+03  0.7546771E-02  0.1080130E+00
         21   -1    0    0  502  501  0.00000000000E+00  0.00000000000E+00  0.45049845798E+03  0.45049845798E+03  0.00000000000E+00 0.  1.
         21   -1    0    0  503  502 -0.00000000000E+00 -0.00000000000E+00 -0.32260855989E+03  0.32260855989E+03  0.00000000000E+00 0. -1.
         25    1    1    2    0    0 -0.24459534887E+03  0.14466327609E+03  0.30267625361E+03  0.43358074524E+03  0.12500000000E+03 0.  0.
         21    1    1    2  503  504  0.57033135990E+02 -0.67222550555E+02 -0.52209260511E+02  0.10245709730E+03  0.00000000000E+00 0. -1.
         21    1    1    2  504  501  0.18756221288E+03 -0.77440725540E+02 -0.12257709501E+03  0.23706917533E+03  0.00000000000E+00 0. -1.
<mgrwt>
<rscale>  4 0.31045023E+03</rscale>
<asrwt>0</asrwt>
<pdfrwt beam="1">  1       21 0.69307456E-01 0.31045023E+03</pdfrwt>
<pdfrwt beam="2">  1       21 0.49632086E-01 0.31045023E+03</pdfrwt>
<totfact> 0.68369308E+03</totfact>
</mgrwt>
</event>
<event>
 5    0  0.1829809E+000  0.4778158E+03  0.7546771E-02  0.1019737E+00
         21   -1    0    0  502  501  0.00000000000E+00  0.00000000000E+00  0.22849002142E+04  0.22849002142E+04  0.00000000000E+00 0. -1.
         21   -1    0    0  503  502 -0.00000000000E+00 -0.00000000000E+00 -0.16145877186E+03  0.16145877186E+03  0.00000000000E+00 0. -1.
         25    1    1    2    0    0  0.15554501028E+03 -0.43415283765E+03  0.18216953908E+04  0.18833167640E+04  0.12500000000E+03 0.  0.
         21    1    1    2  503  504 -0.39342484293E+02  0.62533289430E+02  0.10053383262E+03  0.12476095086E+03  0.00000000000E+00 0.  1.
         21    1    1    2  504  501 -0.11620252598E+03  0.37161954822E+03  0.20121221893E+03  0.43828127123E+03  0.00000000000E+00 0. -1.
<mgrwt>
<rscale>  4 0.47781580E+03</rscale>
<asrwt>0</asrwt>
<pdfrwt beam="1">  1       21 0.35152309E+00 0.47781580E+03</pdfrwt>
<pdfrwt beam="2">  1       21 0.24839813E-01 0.47781580E+03</pdfrwt>
<totfact> 0.19909147E+02</totfact>
</mgrwt>
</event>
<event>
 5    0  0.1829809E+000  0.3337757E+03  0.7546771E-02  0.1069478E+00
         21   -1    0    0  502  501  0.00000000000E+00  0.00000000000E+00  0.50017757791E+03  0.50017757791E+03  0.00000000000E+00 0.  1.
         21   -1    0    0  503  502 -0.00000000000E+00 -0.00000000000E+00 -0.23187005244E+03  0.23187005244E+03  0.00000000000E+00 0.  1.
         25    1    1    2    0    0 -0.26311179376E+03 -0.16295214797E+03  0.22778058985E+03  0.40409184062E+03  0.12500000000E+03 0.  0.
         21    1    1    2  503  504  0.21052708492E+03  0.10305604278E+03 -0.81935494722E+01  0.23454069091E+03  0.00000000000E+00 0.  1.
         21    1    1    2  504  501  0.52584708840E+02  0.59896105192E+02  0.48720485086E+02  0.93415098822E+02  0.00000000000E+00 0.  1.
<mgrwt>
<rscale>  4 0.33377570E+03</rscale>
<asrwt>0</asrwt>
<pdfrwt beam="1">  1       21 0.76950396E-01 0.33377570E+03</pdfrwt>
<pdfrwt beam="2">  1       21 0.35672316E-01 0.33377570E+03</pdfrwt>
<totfact> 0.10559302E+04</totfact>
</mgrwt>
</event>
<event>
 5    0  0.1829809E+000  0.3262861E+03  0.7546771E-02  0.1072792E+00
         21   -1    0    0  502  501  0.00000000000E+00  0.00000000000E+00  0.25641345704E+03  0.25641345704E+03  0.00000000000E+00 0. -1.
         21   -1    0    0  503  502 -0.00000000000E+00 -0.00000000000E+00 -0.62818097672E+03  0.62818097672E+03  0.00000000000E+00 0. -1.
         25    1    1    2    0    0  0.99353723390E+02 -0.28454609759E+03  0.80210671970E+02  0.33600058914E+03  0.12500000000E+03 0.  0.
         21    1    1    2  503  504  0.65763480932E+01  0.39194054294E+02 -0.92374563972E+02  0.10056083888E+03  0.00000000000E+00 0. -1.
         21    1    1    2  504  501 -0.10593007148E+03  0.24535204330E+03 -0.35960362768E+03  0.44803300574E+03  0.00000000000E+00 0. -1.
<mgrwt>
<rscale>  4 0.32628614E+03</rscale>
<asrwt>0</asrwt>
<pdfrwt beam="1">  1       21 0.39448225E-01 0.32628614E+03</pdfrwt>
<pdfrwt beam="2">  1       21 0.96643225E-01 0.32628614E+03</pdfrwt>
<totfact> 0.50811587E+03</totfact>
</mgrwt>
</event>
<event>
 5    0  0.1829809E+000  0.3227151E+03  0.7546771E-02  0.1074406E+00
         21   -1    0    0  502  501  0.00000000000E+00  0.00000000000E+00  0.13966777663E+03  0.13966777663E+03  0.00000000000E+00 0. -1.
         21   -1    0    0  503  502 -0.00000000000E+00 -0.00000000000E+00 -0.13700708774E+04  0.13700708774E+04  0.00000000000E+00 0. -1.
         25    1    1    2    0    0  0.94747766680E+02  0.28448301300E+03 -0.10498724489E+03  0.34140158987E+03  0.12500000000E+03 0.  0.
         21    1    1    2  503  504  0.11285467599E+02 -0.17213602256E+02 -0.15058275128E+03  0.15198300848E+03  0.00000000000E+00 0. -1.
         21    1    1    2  504  501 -0.10603323428E+03 -0.26726941074E+03 -0.97483310465E+03  0.10163540557E+04  0.00000000000E+00 0. -1.
<mgrwt>
<rscale>  4 0.32271506E+03</rscale>
<asrwt>0</asrwt>
<pdfrwt beam="1">  1       21 0.21487351E-01 0.32271506E+03</pdfrwt>
<pdfrwt beam="2">  1       21 0.21078013E+00 0.32271506E+03</pdfrwt>
<totfact> 0.20838351E+03</totfact>
</mgrwt>
</event>
<event>
 5    0  0.1829809E+000  0.2055791E+03  0.7546771E-02  0.1145116E+00
         21   -1    0    0  502  501  0.00000000000E+00  0.00000000000E+00  0.36154036165E+03  0.36154036165E+03  0.00000000000E+00 0. -1.
         21   -1    0    0  503  502 -0.00000000000E+00 -0.00000000000E+00 -0.19922172629E+03  0.19922172629E+03  0.00000000000E+00 0. -1.
         25    1    1    2    0    0  0.46483451818E+02  0.20874485751E+03  0.19299521795E+03  0.31401796284E+03  0.12500000000E+03 0.  0.
         21    1    1    2  503  504  0.72776139669E+01 -0.15369189926E+03 -0.58943353373E+02  0.16476796555E+03  0.00000000000E+00 0. -1.
         21    1    1    2  504  501 -0.53761065785E+02 -0.55052958253E+02  0.28266770778E+02  0.81976159565E+02  0.00000000000E+00 0. -1.
<mgrwt>
<rscale>  4 0.20557906E+03</rscale>
<asrwt>0</asrwt>
<pdfrwt beam="1">  1       21 0.55621594E-01 0.20557906E+03</pdfrwt>
<pdfrwt beam="2">  1       21 0.30649496E-01 0.20557906E+03</pdfrwt>
<totfact> 0.30909178E+04</totfact>
</mgrwt>
</event>
<event>
 5    0  0.1829809E+000  0.2512503E+03  0.7546771E-02  0.1112517E+00
         21   -1    0    0  502  501  0.00000000000E+00  0.00000000000E+00  0.13095081302E+03  0.13095081302E+03  0.00000000000E+00 0. -1.
         21   -1    0    0  503  502 -0.00000000000E+00 -0.00000000000E+00 -0.56401172886E+03  0.56401172886E+03  0.00000000000E+00 0. -1.
         25    1    1    2    0    0 -0.21856837786E+03  0.97541156622E+02 -0.19221986273E+03  0.33145118594E+03  0.12500000000E+03 0.  0.
         21    1    1    2  503  504  0.38269995692E+02 -0.29132858222E+01 -0.12166953471E+03  0.12757960448E+03  0.00000000000E+00 0. -1.
         21    1    1    2  504  501  0.18029838216E+03 -0.94627870800E+02 -0.11917151841E+03  0.23593175145E+03  0.00000000000E+00 0. -1.
<mgrwt>
<rscale>  4 0.25125031E+03</rscale>
<asrwt>0</asrwt>
<pdfrwt beam="1">  1       21 0.20146279E-01 0.25125031E+03</pdfrwt>
<pdfrwt beam="2">  1       21 0.86771035E-01 0.25125031E+03</pdfrwt>
<totfact> 0.25230181E+04</totfact>
</mgrwt>
</event>
<event>
 5    0  0.1829809E+000  0.2696810E+03  0.7546771E-02  0.1101462E+00
         21   -1    0    0  502  501  0.00000000000E+00  0.00000000000E+00  0.50734587238E+03  0.50734587238E+03  0.00000000000E+00 0.  1.
         21   -1    0    0  503  502 -0.00000000000E+00 -0.00000000000E+00 -0.37456061007E+03  0.37456061007E+03  0.00000000000E+00 0. -1.
         25    1    1    2    0    0 -0.52355598608E+02 -0.25595634442E+03  0.34810163308E+03  0.45282944461E+03  0.12500000000E+03 0.  0.
         21    1    1    2  503  504  0.11822761090E+03  0.10719266183E+03 -0.47993189207E+00  0.15958779736E+03  0.00000000000E+00 0. -1.
         21    1    1    2  504  501 -0.65872012295E+02  0.14876368258E+03 -0.21483643889E+03  0.26948924048E+03  0.00000000000E+00 0. -1.
<mgrwt>
<rscale>  4 0.26968105E+03</rscale>
<asrwt>0</asrwt>
<pdfrwt beam="1">  1       21 0.78053212E-01 0.26968105E+03</pdfrwt>
<pdfrwt beam="2">  1       21 0.57624709E-01 0.26968105E+03</pdfrwt>
<totfact> 0.38913824E+03</totfact>
</mgrwt>
</event>
<event>
 5    0  0.1829809E+000  0.2804226E+03  0.7546771E-02  0.1095458E+00
         21   -1    0    0  502  501  0.00000000000E+00  0.00000000000E+00  0.56572864777E+02  0.56572864777E+02  0.00000000000E+00 0.  1.
         21   -1    0    0  503  502 -0.00000000000E+00 -0.00000000000E+00 -0.18588255384E+04  0.18588255384E+04  0.00000000000E+00 0. -1.
         25    1    1    2    0    0 -0.18906377761E+03 -0.16512641393E+03 -0.38898247021E+03  0.47952498028E+03  0.12500000000E+03 0.  0.
         21    1    1    2  503  504  0.17212794410E+03  0.13332259600E+03 -0.12183287672E+04  0.12376299643E+04  0.00000000000E+00 0. -1.
         21    1    1    2  504  501  0.16935833515E+02  0.31803817932E+02 -0.19494143629E+03  0.19824345859E+03  0.00000000000E+00 0.  1.
<mgrwt>
<rscale>  4 0.28042262E+03</rscale>
<asrwt>0</asrwt>
<pdfrwt beam="1">  1       21 0.87035171E-02 0.28042262E+03</pdfrwt>
<pdfrwt beam="2">  1       21 0.28597318E+00 0.28042262E+03</pdfrwt>
<totfact> 0.39154801E+03</totfact>
</mgrwt>
</event>
<event>
 5    0  0.1829809E+000  0.3979300E+03  0.7546771E-02  0.1044499E+00
         21   -1    0    0  502  501  0.00000000000E+00  0.00000000000E+00  0.71493757057E+03  0.71493757057E+03  0.00000000000E+00 0.  1.
         21   -1    0    0  503  502 -0.00000000000E+00 -0.00000000000E+00 -0.27888750207E+03  0.27888750207E+03  0.00000000000E+00 0.  1.
         25    1    1    2    0    0 -0.62846882327E+01  0.40536083139E+03  0.36931259667E+03  0.56247106147E+03  0.12500000000E+03 0.  0.
         21    1    1    2  503  504  0.18560054035E+02 -0.39084908188E+02  0.47668108270E+02  0.64376658813E+02  0.00000000000E+00 0. -1.
         21    1    1    2  504  501 -0.12275365802E+02 -0.36627592320E+03  0.19069363559E+02  0.36697735236E+03  0.00000000000E+00 0.  1.
<mgrwt>
<rscale>  4 0.39793004E+03</rscale>
<asrwt>0</asrwt>
<pdfrwt beam="1">  1       21 0.10999039E+00 0.39793004E+03</pdfrwt>
<pdfrwt beam="2">  1       21 0.42905770E-01 0.39793004E+03</pdfrwt>
<totfact> 0.30231522E+03</totfact>
</mgrwt>
</event>
<event>
 5    0  0.1829809E+000  0.3128646E+03  0.7546771E-02  0.1078981E+00
         21   -1    0    0  502  501  0.00000000000E+00  0.00000000000E+00  0.13158168707E+03  0.13158168707E+03  0.00000000000E+00 0.  1.
         21   -1    0    0  503  502 -0.00000000000E+00 -0.00000000000E+00 -0.89319353673E+03  0.89319353673E+03  0.00000000000E+00 0.  1.
         25    1    1    2    0    0 -0.21587191189E+03  0.17016091999E+03 -0.19260860099E+03  0.35815987241E+03  0.12500000000E+03 0.  0.
         21    1    1    2  503  504 -0.25804178014E+02  0.23500630688E+02 -0.86466074594E+02  0.93244395550E+02  0.00000000000E+00 0. -1.
         21    1    1    2  504  501  0.24167608990E+03 -0.19366155068E+03 -0.48253717407E+03  0.57337095584E+03  0.00000000000E+00 0.  1.
<mgrwt>
<rscale>  4 0.31286461E+03</rscale>
<asrwt>0</asrwt>
<pdfrwt beam="1">  1       21 0.20243337E-01 0.31286461E+03</pdfrwt>
<pdfrwt beam="2">  1       21 0.13741439E+00 0.31286461E+03</pdfrwt>
<totfact> 0.78720722E+03</totfact>
</mgrwt>
</event>
<event>
 5    0  0.1829809E+000  0.2442547E+03  0.7546771E-02  0.1116991E+00
         21   -1    0    0  502  501  0.00000000000E+00  0.00000000000E+00  0.27292173800E+04  0.27292173800E+04  0.00000000000E+00 0.  1.
         21   -1    0    0  503  502 -0.00000000000E+00 -0.00000000000E+00 -0.71626081610E+02  0.71626081610E+02  0.00000000000E+00 0.  1.
         25    1    1    2    0    0  0.24245410609E+03  0.41474307348E+02  0.24011056357E+04  0.24169065736E+04  0.12500000000E+03 0.  0.
         21    1    1    2  503  504 -0.37499509757E+02 -0.10955969792E+02  0.14183995363E+03  0.14712178272E+03  0.00000000000E+00 0. -1.
         21    1    1    2  504  501 -0.20495459633E+03 -0.30518337557E+02  0.11464570906E+03  0.23681510528E+03  0.00000000000E+00 0.  1.
<mgrwt>
<rscale>  4 0.24425466E+03</rscale>
<asrwt>0</asrwt>
<pdfrwt beam="1">  1       21 0.41987952E+00 0.24425466E+03</pdfrwt>
<pdfrwt beam="2">  1       21 0.11019399E-01 0.24425466E+03</pdfrwt>
<totfact> 0.41331521E+02</totfact>
</mgrwt>
</event>
<event>
 5    0  0.1829809E+000  0.2352854E+03  0.7546771E-02  0.1122974E+00
         21   -1    0    0  502  501  0.00000000000E+00  0.00000000000E+00  0.12270654550E+03  0.12270654550E+03  0.00000000000E+00 0.  1.
         21   -1    0    0  503  502 -0.00000000000E+00 -0.00000000000E+00 -0.78685618676E+03  0.78685618676E+03  0.00000000000E+00 0. -1.
         25    1    1    2    0    0 -0.13838419555E+03 -0.19393123872E+03 -0.12385325109E+03  0.29618261045E+03  0.12500000000E+03 0.  0.
         21    1    1    2  503  504  0.13263533084E+03  0.59087278492E+02 -0.35986901443E+03  0.38805817220E+03  0.00000000000E+00 0. -1.
         21    1    1    2  504  501  0.57488647026E+01  0.13484396023E+03 -0.18042737575E+03  0.22532194961E+03  0.00000000000E+00 0. -1.
<mgrwt>
<rscale>  4 0.23528539E+03</rscale>
<asrwt>0</asrwt>
<pdfrwt beam="1">  1       21 0.18877930E-01 0.23528539E+03</pdfrwt>
<pdfrwt beam="2">  1       21 0.12105480E+00 0.23528539E+03</pdfrwt>
<totfact> 0.12920738E+04</totfact>
</mgrwt>
</event>
<event>
 5    0  0.1829809E+000  0.2581098E+03  0.7546771E-02  0.1108284E+00
         21   -1    0    0  502  501  0.00000000000E+00  0.00000000000E+00  0.38506246510E+03  0.38506246510E+03  0.00000000000E+00 0.  1.
         21   -1    0    0  503  502 -0.00000000000E+00 -0.00000000000E+00 -0.14598434628E+04  0.14598434628E+04  0.00000000000E+00 0. -1.
         25    1    1    2    0    0 -0.18485020519E+03 -0.12971541976E+03  0.33053630962E+03  0.41937446329E+03  0.12500000000E+03 0.  0.
         21    1    1    2  503  504  0.15452456973E+03  0.13701527563E+03 -0.11602069537E+04  0.11784444000E+04  0.00000000000E+00 0. -1.
         21    1    1    2  504  501  0.30325635466E+02 -0.72998558688E+01 -0.24511035358E+03  0.24708706460E+03  0.00000000000E+00 0.  1.
<mgrwt>
<rscale>  4 0.25810984E+03</rscale>
<asrwt>0</asrwt>
<pdfrwt beam="1">  1       21 0.59240379E-01 0.25810984E+03</pdfrwt>
<pdfrwt beam="2">  1       21 0.22459130E+00 0.25810984E+03</pdfrwt>
<totfact> 0.23243434E+02</totfact>
</mgrwt>
</event>
<event>
 5    0  0.1829809E+000  0.3425580E+03  0.7546771E-02  0.1065712E+00
         21   -1    0    0  502  501  0.00000000000E+00  0.00000000000E+00  0.21802189342E+04  0.21802189342E+04  0.00000000000E+00 0.  1.
         21   -1    0    0  503  502 -0.00000000000E+00 -0.00000000000E+00 -0.14097712222E+03  0.14097712222E+03  0.00000000000E+00 0. -1.
         25    1    1    2    0    0 -0.60400000810E+02  0.31011645891E+03  0.18567164519E+04  0.18875490354E+04  0.12500000000E+03 0.  0.
         21    1    1    2  503  504 -0.47384374917E+02  0.14144338223E+02  0.84864135217E+01  0.50173304700E+02  0.00000000000E+00 0.  1.
         21    1    1    2  504  501  0.10778437573E+03 -0.32426079713E+03  0.17403894657E+03  0.38347371635E+03  0.00000000000E+00 0. -1.
<mgrwt>
<rscale>  4 0.34255798E+03</rscale>
<asrwt>0</asrwt>
<pdfrwt beam="1">  1       21 0.33541827E+00 0.34255798E+03</pdfrwt>
<pdfrwt beam="2">  1       21 0.21688790E-01 0.34255798E+03</pdfrwt>
<totfact> 0.35646943E+02</totfact>
</mgrwt>
</event>
<event>
 5    0  0.1829809E+000  0.2413116E+03  0.7546771E-02  0.1118922E+00
         21   -1    0    0  502  501  0.00000000000E+00  0.00000000000E+00  0.16268524982E+03  0.16268524982E+03  0.00000000000E+00 0. -1.
         21   -1    0    0  503  502 -0.00000000000E+00 -0.00000000000E+00 -0.12447218471E+04  0.12447218471E+04  0.00000000000E+00 0.  1.
         25    1    1    2    0    0  0.19928924451E+03 -0.53759437603E+02  0.56501928111E+02  0.24783814877E+03  0.12500000000E+03 0.  0.
         21    1    1    2  503  504 -0.47169635979E+02 -0.10408604470E+02 -0.15769500759E+03  0.16492734469E+03  0.00000000000E+00 0. -1.
         21    1    1    2  504  501 -0.15211960853E+03  0.64168042073E+02 -0.98084351778E+03  0.99464160344E+03  0.00000000000E+00 0.  1.
<mgrwt>
<rscale>  4 0.24131158E+03</rscale>
<asrwt>0</asrwt>
<pdfrwt beam="1">  1       21 0.25028501E-01 0.24131158E+03</pdfrwt>
<pdfrwt beam="2">  1       21 0.19149566E+00 0.24131158E+03</pdfrwt>
<totfact> 0.22035638E+03</totfact>
</mgrwt>
</event>
<event>
 5    0  0.1829809E+000  0.5032069E+03  0.7546771E-02  0.1012945E+00
         21   -1    0    0  502  501  0.00000000000E+00  0.00000000000E+00  0.20576381112E+04  0.20576381112E+04  0.00000000000E+00 0. -1.
         21   -1    0    0  503  502 -0.00000000000E+00 -0.00000000000E+00 -0.17267037841E+03  0.17267037841E+03  0.00000000000E+00 0. -1.
         25    1    1    2    0    0 -0.48729196393E+03  0.11780028368E+02  0.15560952750E+04  0.16354356398E+04  0.12500000000E+03 0.  0.
         21    1    1    2  503  504  0.70047332782E+02 -0.26136538590E+02  0.76813452932E+02  0.10719166960E+03  0.00000000000E+00 0.  1.
         21    1    1    2  504  501  0.41724463115E+03  0.14356510221E+02  0.25205900494E+03  0.48768118026E+03  0.00000000000E+00 0. -1.
<mgrwt>
<rscale>  4 0.50320694E+03</rscale>
<asrwt>0</asrwt>
<pdfrwt beam="1">  1       21 0.31655969E+00 0.50320694E+03</pdfrwt>
<pdfrwt beam="2">  1       21 0.26564675E-01 0.50320694E+03</pdfrwt>
<totfact> 0.28121013E+02</totfact>
</mgrwt>
</event>
<event>
 5    0  0.1829809E+000  0.2529815E+03  0.7546771E-02  0.1111435E+00
         21   -1    0    0  502  501  0.00000000000E+00  0.00000000000E+00  0.83568074853E+03  0.83568074853E+03  0.00000000000E+00 0.  1.
         21   -1    0    0  503  502 -0.00000000000E+00 -0.00000000000E+00 -0.73804365259E+02  0.73804365259E+02  0.00000000000E+00 0.  1.
         25    1    1    2    0    0  0.17868823133E+03  0.12823872784E+03  0.27237248736E+03  0.37173435032E+03  0.12500000000E+03 0.  0.
         21    1    1    2  503  504 -0.16104897856E+03 -0.10113063076E+03  0.42425042913E+03  0.46492214895E+03  0.00000000000E+00 0.  1.
         21    1    1    2  504  501 -0.17639252775E+02 -0.27108097076E+02  0.65253466777E+02  0.72828614514E+02  0.00000000000E+00 0. -1.
<mgrwt>
<rscale>  4 0.25298153E+03</rscale>
<asrwt>0</asrwt>
<pdfrwt beam="1">  1       21 0.12856626E+00 0.25298153E+03</pdfrwt>
<pdfrwt beam="2">  1       21 0.11354518E-01 0.25298153E+03</pdfrwt>
<totfact> 0.27852459E+04</totfact>
</mgrwt>
</event>
<event>
 5    0  0.1829809E+000  0.2385448E+03  0.7546771E-02  0.1120766E+00
         21   -1    0    0  502  501  0.00000000000E+00  0.00000000000E+00  0.95185054538E+03  0.95185054538E+03  0.00000000000E+00 0.  1.
         21   -1    0    0  503  502 -0.00000000000E+00 -0.00000000000E+00 -0.55077223584E+02  0.55077223584E+02  0.00000000000E+00 0.  1.
         25    1    1    2    0    0 -0.14147078543E+03 -0.14582404897E+03  0.46032449498E+03  0.51846145187E+03  0.12500000000E+03 0.  0.
         21    1    1    2  503  504  0.44165231680E+02  0.76928842929E+02  0.11244163956E+03  0.14321919170E+03  0.00000000000E+00 0.  1.
         21    1    1    2  504  501  0.97305553748E+02  0.68895206043E+02  0.32400718726E+03  0.34524712540E+03  0.00000000000E+00 0.  1.
<mgrwt>
<rscale>  4 0.23854483E+03</rscale>
<asrwt>0</asrwt>
<pdfrwt beam="1">  1       21 0.14643853E+00 0.23854483E+03</pdfrwt>
<pdfrwt beam="2">  1       21 0.84734197E-02 0.23854483E+03</pdfrwt>
<totfact> 0.33669326E+04</totfact>
</mgrwt>
</event>
<event>
 5    0  0.1829809E+000  0.3678539E+03  0.7546771E-02  0.1055517E+00
         21   -1    0    0  502  501  0.00000000000E+00  0.00000000000E+00  0.91476029968E+03  0.91476029968E+03  0.00000000000E+00 0. -1.
         21   -1    0    0  503  502 -0.00000000000E+00 -0.00000000000E+00 -0.67211645145E+03  0.67211645145E+03  0.00000000000E+00 0. -1.
         25    1    1    2    0    0 -0.22543661171E+03 -0.28178125536E+03 -0.48948666208E+03  0.62084179477E+03  0.12500000000E+03 0.  0.
         21    1    1    2  503  504  0.25267711436E+03  0.36706211225E+02  0.66221023377E+03  0.70972914818E+03  0.00000000000E+00 0. -1.
         21    1    1    2  504  501 -0.27240502649E+02  0.24507504413E+03  0.69920276540E+02  0.25630580819E+03  0.00000000000E+00 0. -1.
<mgrwt>
<rscale>  4 0.36785392E+03</rscale>
<asrwt>0</asrwt>
<pdfrwt beam="1">  1       21 0.14073235E+00 0.36785392E+03</pdfrwt>
<pdfrwt beam="2">  1       21 0.10340253E+00 0.36785392E+03</pdfrwt>
<totfact> 0.22949992E+02</totfact>
</mgrwt>
</event>
<event>
 5    0  0.1829809E+000  0.2994302E+03  0.7546771E-02  0.1085526E+00
         21   -1    0    0  502  501  0.00000000000E+00  0.00000000000E+00  0.26430349870E+03  0.26430349870E+03  0.00000000000E+00 0. -1.
         21   -1    0    0  503  502 -0.00000000000E+00 -0.00000000000E+00 -0.60337052966E+03  0.60337052966E+03  0.00000000000E+00 0.  1.
         25    1    1    2    0    0  0.59125160725E+02  0.26558928071E+03  0.11755321712E+03  0.32167873650E+03  0.12500000000E+03 0.  0.
         21    1    1    2  503  504 -0.67673107395E+02 -0.12827037958E+03 -0.32364211184E+03  0.35465075257E+03  0.00000000000E+00 0.  1.
         21    1    1    2  504  501  0.85479466701E+01 -0.13731890114E+03 -0.13297813624E+03  0.19134453930E+03  0.00000000000E+00 0.  1.
<mgrwt>
<rscale>  4 0.29943021E+03</rscale>
<asrwt>0</asrwt>
<pdfrwt beam="1">  1       21 0.40662077E-01 0.29943021E+03</pdfrwt>
<pdfrwt beam="2">  1       21 0.92826236E-01 0.29943021E+03</pdfrwt>
<totfact> 0.53243610E+03</totfact>
</mgrwt>
</event>
<event>
 5    0  0.1829809E+000  0.2455741E+03  0.7546771E-02  0.1116134E+00
         21   -1    0    0  502  501  0.00000000000E+00  0.00000000000E+00  0.11634955565E+04  0.11634955565E+04  0.00000000000E+00 0.  1.
         21   -1    0    0  503  502 -0.00000000000E+00 -0.00000000000E+00 -0.53015431260E+02  0.53015431260E+02  0.00000000000E+00 0.  1.
         25    1    1    2    0    0  0.36978217134E+02  0.20812071353E+03  0.81190141232E+03  0.84822787225E+03  0.12500000000E+03 0.  0.
         21    1    1    2  503  504 -0.28125203963E+02 -0.16581690732E+03  0.20468264750E+03  0.26491745892E+03  0.00000000000E+00 0.  1.
         21    1    1    2  504  501 -0.88530131702E+01 -0.42303806210E+02  0.93896065452E+02  0.10336565662E+03  0.00000000000E+00 0. -1.
<mgrwt>
<rscale>  4 0.24557406E+03</rscale>
<asrwt>0</asrwt>
<pdfrwt beam="1">  1       21 0.17899930E+00 0.24557406E+03</pdfrwt>
<pdfrwt beam="2">  1       21 0.81562211E-02 0.24557406E+03</pdfrwt>
<totfact> 0.20716241E+04</totfact>
</mgrwt>
</event>
<event>
 5    0  0.1829809E+000  0.2582175E+03  0.7546771E-02  0.1108219E+00
         21   -1    0    0  502  501  0.00000000000E+00  0.00000000000E+00  0.29280758257E+03  0.29280758257E+03  0.00000000000E+00 0. -1.
         21   -1    0    0  503  502 -0.00000000000E+00 -0.00000000000E+00 -0.21683934289E+03  0.21683934289E+03  0.00000000000E+00 0. -1.
         25    1    1    2    0    0  0.28228598395E+02  0.22417495885E+03 -0.80548364464E+01  0.25834307874E+03  0.12500000000E+03 0.  0.
         21    1    1    2  503  504 -0.40039939809E+02 -0.15880808714E+03  0.31867453901E+02  0.16684945292E+03  0.00000000000E+00 0. -1.
         21    1    1    2  504  501  0.11811341414E+02 -0.65366871711E+02  0.52155622224E+02  0.84454393804E+02  0.00000000000E+00 0.  1.
<mgrwt>
<rscale>  4 0.25821748E+03</rscale>
<asrwt>0</asrwt>
<pdfrwt beam="1">  1       21 0.45047320E-01 0.25821748E+03</pdfrwt>
<pdfrwt beam="2">  1       21 0.33359899E-01 0.25821748E+03</pdfrwt>
<totfact> 0.39698564E+04</totfact>
</mgrwt>
</event>
<event>
 5    0  0.1829809E+000  0.3123687E+03  0.7546771E-02  0.1079216E+00
         21   -1    0    0  502  501  0.00000000000E+00  0.00000000000E+00  0.30305871303E+03  0.30305871303E+03  0.00000000000E+00 0.  1.
         21   -1    0    0  503  502 -0.00000000000E+00 -0.00000000000E+00 -0.35656750406E+03  0.35656750406E+03  0.00000000000E+00 0.  1.
         25    1    1    2    0    0  0.12610137441E+03 -0.25699733342E+03  0.90102301480E+02  0.32510399989E+03  0.12500000000E+03 0.  0.
         21    1    1    2  503  504 -0.67557705226E+02  0.42736367137E+02 -0.34800250594E+02  0.87186570370E+02  0.00000000000E+00 0.  1.
         21    1    1    2  504  501 -0.58543669184E+02  0.21426096628E+03 -0.10881084192E+03  0.24733564683E+03  0.00000000000E+00 0.  1.
<mgrwt>
<rscale>  4 0.31236867E+03</rscale>
<asrwt>0</asrwt>
<pdfrwt beam="1">  1       21 0.46624417E-01 0.31236867E+03</pdfrwt>
<pdfrwt beam="2">  1       21 0.54856539E-01 0.31236867E+03</pdfrwt>
<totfact> 0.12976891E+04</totfact>
</mgrwt>
</event>
<event>
 5    0  0.1829809E+000  0.2183446E+03  0.7546771E-02  0.1135123E+00
         21   -1    0    0  502  501  0.00000000000E+00  0.00000000000E+00  0.21122377169E+04  0.21122377169E+04  0.00000000000E+00 0.  1.
         21   -1    0    0  503  502 -0.00000000000E+00 -0.00000000000E+00 -0.25636054811E+02  0.25636054811E+02  0.00000000000E+00 0.  1.
         25    1    1    2    0    0  0.20274197272E+03  0.64105924537E+01  0.11107428583E+04  0.11360106076E+04  0.12500000000E+03 0.  0.
         21    1    1    2  503  504 -0.43810372068E+02  0.38458857817E+02  0.18586853830E+03  0.19479616520E+03  0.00000000000E+00 0.  1.
         21    1    1    2  504  501 -0.15893160066E+03 -0.44869450271E+02  0.78999026551E+03  0.80706699899E+03  0.00000000000E+00 0.  1.
<mgrwt>
<rscale>  4 0.21834463E+03</rscale>
<asrwt>0</asrwt>
<pdfrwt beam="1">  1       21 0.32495951E+00 0.21834463E+03</pdfrwt>
<pdfrwt beam="2">  1       21 0.39440101E-02 0.21834463E+03</pdfrwt>
<totfact> 0.95591159E+03</totfact>
</mgrwt>
</event>
<event>
 5    0  0.1829809E+000  0.2568425E+03  0.7546771E-02  0.1109055E+00
         21   -1    0    0  502  501  0.00000000000E+00  0.00000000000E+00  0.63174007934E+02  0.63174007934E+02  0.00000000000E+00 0.  1.
         21   -1    0    0  503  502 -0.00000000000E+00 -0.00000000000E+00 -0.10523858565E+04  0.10523858565E+04  0.00000000000E+00 0.  1.
         25    1    1    2    0    0 -0.73964936702E+02 -0.21183072530E+03 -0.33442405417E+03  0.42167228514E+03  0.12500000000E+03 0.  0.
         21    1    1    2  503  504  0.21385548053E+02  0.15868939474E+02 -0.69236310917E+02  0.74181073428E+02  0.00000000000E+00 0.  1.
         21    1    1    2  504  501  0.52579388650E+02  0.19596178583E+03 -0.58555148349E+03  0.61970650588E+03  0.00000000000E+00 0.  1.
<mgrwt>
<rscale>  4 0.25684250E+03</rscale>
<asrwt>0</asrwt>
<pdfrwt beam="1">  1       21 0.97190788E-02 0.25684250E+03</pdfrwt>
<pdfrwt beam="2">  1       21 0.16190551E+00 0.25684250E+03</pdfrwt>
<totfact> 0.19992272E+04</totfact>
</mgrwt>
</event>
