<event>
 5    0  0.2349231E+000  0.7202506E+03  0.7546771E-02  0.9683214E-01
         21   -1    0    0  502  501  0.00000000000E+00  0.00000000000E+00  0.10044626814E+04  0.10044626814E+04  0.00000000000E+00 0. -1.
         21   -1    0    0  504  502 -0.00000000000E+00 -0.00000000000E+00 -0.24588674535E+03  0.24588674535E+03  0.00000000000E+00 0.  1.
         25    1    1    2    0    0  0.32552347442E+02  0.32287246027E+03  0.18314039378E+03  0.39302885996E+03  0.12500000000E+03 0.  0.
         21    1    1    2  503  501 -0.45597439275E+01  0.43747117987E+02  0.47381127571E+03  0.47584842816E+03  0.00000000000E+00 0. -1.
         21    1    1    2  504  503 -0.27992603514E+02 -0.36661957826E+03  0.10162426659E+03  0.38147213866E+03  0.00000000000E+00 0.  1.
<mgrwt>
<rscale>  4 0.72025057E+03</rscale>
<asrwt>0</asrwt>
<pdfrwt beam="1">  1       21 0.15453272E+00 0.72025057E+03</pdfrwt>
<pdfrwt beam="2">  1       21 0.37828730E-01 0.72025057E+03</pdfrwt>
<totfact> 0.14555452E+03</totfact>
</mgrwt>
</event>
<event>
 5    0  0.5829560E+000  0.4744836E+03  0.7546771E-02  0.1020662E+00
         21   -1    0    0  503  501  0.00000000000E+00  0.00000000000E+00  0.38764641834E+03  0.38764641834E+03  0.00000000000E+00 0. -1.
         21   -1    0    0  504  502 -0.00000000000E+00 -0.00000000000E+00 -0.45402212528E+03  0.45402212528E+03  0.00000000000E+00 0. -1.
         25    1    1    2    0    0  0.32313071448E+03  0.28890456807E+02 -0.55208509483E+02  0.35202428418E+03  0.12500000000E+03 0.  0.
         21    1    1    2  503  502  0.10206651265E+02  0.91212129475E+02  0.82227094800E+02  0.12322793276E+03  0.00000000000E+00 0.  1.
         21    1    1    2  504  501 -0.33333736574E+03 -0.12010258628E+03 -0.93394292250E+02  0.36641632668E+03  0.00000000000E+00 0. -1.
<mgrwt>
<rscale>  4 0.47448358E+03</rscale>
<asrwt>0</asrwt>
<pdfrwt beam="1">  1       21 0.59637910E-01 0.47448358E+03</pdfrwt>
<pdfrwt beam="2">  1       21 0.69849558E-01 0.47448358E+03</pdfrwt>
<totfact> 0.42534586E+03</totfact>
</mgrwt>
</event>
<event>
 5    0  0.2349231E+000  0.7447003E+03  0.7546771E-02  0.9643702E-01
         21   -1    0    0  504  501  0.00000000000E+00  0.00000000000E+00  0.29482840531E+03  0.29482840531E+03  0.00000000000E+00 0.  1.
         21   -1    0    0  503  502 -0.00000000000E+00 -0.00000000000E+00 -0.54061723975E+03  0.54061723975E+03  0.00000000000E+00 0.  1.
         25    1    1    2    0    0 -0.22428262196E+03  0.30294216647E+02 -0.44822088829E+03  0.51744313578E+03  0.12500000000E+03 0.  0.
         21    1    1    2  503  501  0.21128215827E+03 -0.53275392096E+02  0.17120681556E+03  0.27711043196E+03  0.00000000000E+00 0. -1.
         21    1    1    2  504  502  0.13000463690E+02  0.22981175449E+02  0.31225238286E+02  0.40892077316E+02  0.00000000000E+00 0.  1.
<mgrwt>
<rscale>  4 0.74470033E+03</rscale>
<asrwt>0</asrwt>
<pdfrwt beam="1">  1       21 0.45358217E-01 0.74470033E+03</pdfrwt>
<pdfrwt beam="2">  1       21 0.83171882E-01 0.74470033E+03</pdfrwt>
<totfact> 0.48009748E+03</totfact>
</mgrwt>
</event>
