<event>
 5    0  0.8533808E-002  0.3011151E+03  0.7546771E-02  0.1084685E+00
         21   -1    0    0  503  502  0.00000000000E+00  0.00000000000E+00  0.27086222206E+03  0.27086222206E+03  0.00000000000E+00 0.  1.
         21   -1    0    0  501  503 -0.00000000000E+00 -0.00000000000E+00 -0.35522944301E+03  0.35522944301E+03  0.00000000000E+00 0.  1.
         25    1    1    2    0    0 -0.52982039087E+02  0.26877160739E+03  0.58820464750E+02  0.30680632405E+03  0.12500000000E+03 0.  0.
          3    1    1    2  501    0 -0.14238865612E+02 -0.22443857367E+02 -0.29725647210E+02  0.39875884059E+02  0.00000000000E+00 0. -1.
         -3    1    1    2    0  502  0.67220904699E+02 -0.24632775002E+03 -0.11346203848E+03  0.27940945696E+03  0.00000000000E+00 0.  1.
<mgrwt>
<rscale>  4 0.30111505E+03</rscale>
<asrwt>0</asrwt>
<pdfrwt beam="1">  1       21 0.41671111E-01 0.30111505E+03</pdfrwt>
<pdfrwt beam="2">  1       21 0.54650684E-01 0.30111505E+03</pdfrwt>
<totfact> 0.16583924E+04</totfact>
</mgrwt>
</event>
<event>
 5    0  0.8533808E-002  0.6389073E+03  0.7546771E-02  0.9837204E-01
         21   -1    0    0  501  502  0.00000000000E+00  0.00000000000E+00  0.11779867210E+04  0.11779867210E+04  0.00000000000E+00 0.  1.
         21   -1    0    0  502  503 -0.00000000000E+00 -0.00000000000E+00 -0.34490607889E+03  0.34490607889E+03  0.00000000000E+00 0. -1.
         25    1    1    2    0    0  0.45406893829E+03  0.40268449063E+03  0.28906102183E+03  0.68375044721E+03  0.12500000000E+03 0.  0.
          2    1    1    2  501    0 -0.21241886928E+03 -0.70330185711E+02  0.14677166097E+03  0.26760050730E+03  0.00000000000E+00 0. -1.
         -2    1    1    2    0  503 -0.24165006901E+03 -0.33235430492E+03  0.39724795936E+03  0.57154184542E+03  0.00000000000E+00 0.  1.
<mgrwt>
<rscale>  4 0.63403599E+03</rscale>
<asrwt>0</asrwt>
<pdfrwt beam="1">  1       21 0.18122872E+00 0.63890730E+03</pdfrwt>
<pdfrwt beam="2">  1       21 0.53062474E-01 0.63890730E+03</pdfrwt>
<totfact> 0.46098303E+02</totfact>
</mgrwt>
</event>
<event>
 5    0  0.8533808E-002  0.2207559E+03  0.7546771E-02  0.1133321E+00
         21   -1    0    0  501  502  0.00000000000E+00  0.00000000000E+00  0.41479909859E+03  0.41479909859E+03  0.00000000000E+00 0. -1.
         21   -1    0    0  502  503 -0.00000000000E+00 -0.00000000000E+00 -0.19194400527E+03  0.19194400527E+03  0.00000000000E+00 0.  1.
         25    1    1    2    0    0  0.10870945758E+03  0.20172485734E+03  0.31758221346E+02  0.26295294039E+03  0.12500000000E+03 0.  0.
          3    1    1    2  501    0 -0.26934335087E+02 -0.15291642593E+03  0.32252146238E+02  0.15858465456E+03  0.00000000000E+00 0.  1.
         -3    1    1    2    0  503 -0.81775122494E+02 -0.48808431411E+02  0.15884472573E+03  0.18520550891E+03  0.00000000000E+00 0. -1.
<mgrwt>
<rscale>  4 0.22075589E+03</rscale>
<asrwt>0</asrwt>
<pdfrwt beam="1">  1       21 0.63815246E-01 0.22075589E+03</pdfrwt>
<pdfrwt beam="2">  1       21 0.29529847E-01 0.22075589E+03</pdfrwt>
<totfact> 0.24538220E+04</totfact>
</mgrwt>
</event>
<event>
 5    0  0.8533808E-002  0.3140021E+03  0.7546771E-02  0.1078443E+00
         21   -1    0    0  501  502  0.00000000000E+00  0.00000000000E+00  0.93249414215E+02  0.93249414215E+02  0.00000000000E+00 0. -1.
         21   -1    0    0  502  503 -0.00000000000E+00 -0.00000000000E+00 -0.13633450690E+04  0.13633450690E+04  0.00000000000E+00 0. -1.
         25    1    1    2    0    0 -0.26797465166E+02  0.31210743243E+03 -0.41882276723E+03  0.53774219090E+03  0.12500000000E+03 0.  0.
          3    1    1    2  501    0 -0.39615983326E+02 -0.41349515657E+02 -0.77292622013E+02  0.96194376123E+02  0.00000000000E+00 0.  1.
         -3    1    1    2    0  503  0.66413448493E+02 -0.27075791677E+03 -0.77398026552E+03  0.82265791618E+03  0.00000000000E+00 0. -1.
<mgrwt>
<rscale>  4 0.31400215E+03</rscale>
<asrwt>0</asrwt>
<pdfrwt beam="1">  1       21 0.14346063E-01 0.31400215E+03</pdfrwt>
<pdfrwt beam="2">  1       21 0.20974540E+00 0.31400215E+03</pdfrwt>
<totfact> 0.45229653E+03</totfact>
</mgrwt>
</event>
<event>
 5    0  0.8533808E-002  0.3629535E+03  0.7546771E-02  0.1057421E+00
         21   -1    0    0  503  502  0.00000000000E+00  0.00000000000E+00  0.27628793425E+03  0.27628793425E+03  0.00000000000E+00 0.  1.
         21   -1    0    0  501  503 -0.00000000000E+00 -0.00000000000E+00 -0.58942239647E+03  0.58942239647E+03  0.00000000000E+00 0.  1.
         25    1    1    2    0    0  0.26204380586E+03 -0.21781472629E+03  0.44165525979E+02  0.36563069464E+03  0.12500000000E+03 0.  0.
          4    1    1    2  501    0 -0.11299888755E+03  0.11795655583E+03 -0.12045712953E+03  0.20295915279E+03  0.00000000000E+00 0. -1.
         -4    1    1    2    0  502 -0.14904491831E+03  0.99858170465E+02 -0.23684285867E+03  0.29712048328E+03  0.00000000000E+00 0.  1.
<mgrwt>
<rscale>  4 0.36295346E+03</rscale>
<asrwt>0</asrwt>
<pdfrwt beam="1">  1       21 0.42505836E-01 0.36295346E+03</pdfrwt>
<pdfrwt beam="2">  1       21 0.90680368E-01 0.36295346E+03</pdfrwt>
<totfact> 0.49878480E+03</totfact>
</mgrwt>
</event>
<event>
 5    0  0.8533808E-002  0.2421395E+03  0.7546771E-02  0.1118376E+00
         21   -1    0    0  503  502  0.00000000000E+00  0.00000000000E+00  0.10594929332E+04  0.10594929332E+04  0.00000000000E+00 0.  1.
         21   -1    0    0  501  503 -0.00000000000E+00 -0.00000000000E+00 -0.80915192280E+02  0.80915192280E+02  0.00000000000E+00 0.  1.
         25    1    1    2    0    0 -0.19552354179E+03  0.10358158616E+03  0.26225421423E+03  0.36518608033E+03  0.12500000000E+03 0.  0.
          2    1    1    2  501    0  0.15550017034E+03 -0.11593969916E+03  0.30289683278E+03  0.35967875685E+03  0.00000000000E+00 0.  1.
         -2    1    1    2    0  502  0.40023371441E+02  0.12358112995E+02  0.41342669389E+03  0.41554328829E+03  0.00000000000E+00 0. -1.
<mgrwt>
<rscale>  4 0.24213945E+03</rscale>
<asrwt>0</asrwt>
<pdfrwt beam="1">  1       21 0.16299890E+00 0.24213945E+03</pdfrwt>
<pdfrwt beam="2">  1       21 0.12448492E-01 0.24213945E+03</pdfrwt>
<totfact> 0.12712735E+04</totfact>
</mgrwt>
</event>
<event>
 5    0  0.8533808E-002  0.3001051E+03  0.7546771E-02  0.1085188E+00
         21   -1    0    0  503  502  0.00000000000E+00  0.00000000000E+00  0.79007173959E+02  0.79007173959E+02  0.00000000000E+00 0.  1.
         21   -1    0    0  501  503 -0.00000000000E+00 -0.00000000000E+00 -0.18060103568E+04  0.18060103568E+04  0.00000000000E+00 0. -1.
         25    1    1    2    0    0 -0.28928097080E+03  0.81435781779E+02 -0.13284320468E+04  0.13677251074E+04  0.12500000000E+03 0.  0.
          4    1    1    2  501    0  0.30489907169E+02 -0.17827171721E+02 -0.14569998648E+03  0.14991974036E+03  0.00000000000E+00 0. -1.
         -4    1    1    2    0  502  0.25879106363E+03 -0.63608610058E+02 -0.25287114957E+03  0.36737268294E+03  0.00000000000E+00 0.  1.
<mgrwt>
<rscale>  4 0.30010511E+03</rscale>
<asrwt>0</asrwt>
<pdfrwt beam="1">  1       21 0.12154951E-01 0.30010511E+03</pdfrwt>
<pdfrwt beam="2">  1       21 0.27784771E+00 0.30010511E+03</pdfrwt>
<totfact> 0.23718043E+03</totfact>
</mgrwt>
</event>
<event>
 5    0  0.8533808E-002  0.1734321E+03  0.7546771E-02  0.1174315E+00
         21   -1    0    0  501  502  0.00000000000E+00  0.00000000000E+00  0.64029804874E+03  0.64029804874E+03  0.00000000000E+00 0. -1.
         21   -1    0    0  502  503 -0.00000000000E+00 -0.00000000000E+00 -0.15895138759E+03  0.15895138759E+03  0.00000000000E+00 0. -1.
         25    1    1    2    0    0 -0.61648623525E+02  0.20380120789E+03  0.45777858274E+03  0.52011702139E+03  0.12500000000E+03 0.  0.
          4    1    1    2  501    0  0.38422757265E+02 -0.91698697913E+02  0.10036787895E+03  0.14127515917E+03  0.00000000000E+00 0. -1.
         -4    1    1    2    0  503  0.23225866260E+02 -0.11210250997E+03 -0.76799800546E+02  0.13785725577E+03  0.00000000000E+00 0.  1.
<mgrwt>
<rscale>  4 0.17343206E+03</rscale>
<asrwt>0</asrwt>
<pdfrwt beam="1">  1       21 0.98507391E-01 0.17343206E+03</pdfrwt>
<pdfrwt beam="2">  1       21 0.24454060E-01 0.17343206E+03</pdfrwt>
<totfact> 0.13615824E+04</totfact>
</mgrwt>
</event>
<event>
 5    0  0.8533808E-002  0.2716776E+03  0.7546771E-02  0.1100323E+00
         21   -1    0    0  503  502  0.00000000000E+00  0.00000000000E+00  0.83756814864E+03  0.83756814864E+03  0.00000000000E+00 0.  1.
         21   -1    0    0  501  503 -0.00000000000E+00 -0.00000000000E+00 -0.94533790755E+03  0.94533790755E+03  0.00000000000E+00 0. -1.
         25    1    1    2    0    0  0.23310282195E+03  0.63465698678E+02 -0.90514090801E+03  0.94512955929E+03  0.12500000000E+03 0.  0.
          4    1    1    2  501    0 -0.21548427567E+03 -0.77949712539E+02  0.66299398867E+03  0.70147748343E+03  0.00000000000E+00 0.  1.
         -4    1    1    2    0  502 -0.17618546279E+02  0.14484013861E+02  0.13437716042E+03  0.13629901347E+03  0.00000000000E+00 0. -1.
<mgrwt>
<rscale>  4 0.27167760E+03</rscale>
<asrwt>0</asrwt>
<pdfrwt beam="1">  1       21 0.12885664E+00 0.27167760E+03</pdfrwt>
<pdfrwt beam="2">  1       21 0.14543660E+00 0.27167760E+03</pdfrwt>
<totfact> 0.13098169E+02</totfact>
</mgrwt>
</event>
<event>
 5    0  0.8533808E-002  0.2164145E+03  0.7546771E-02  0.1136585E+00
         21   -1    0    0  501  502  0.00000000000E+00  0.00000000000E+00  0.15817672831E+04  0.15817672831E+04  0.00000000000E+00 0. -1.
         21   -1    0    0  502  503 -0.00000000000E+00 -0.00000000000E+00 -0.41908439898E+02  0.41908439898E+02  0.00000000000E+00 0. -1.
         25    1    1    2    0    0  0.94077505153E+02 -0.19194699905E+03  0.92285805453E+03  0.95550312204E+03  0.12500000000E+03 0.  0.
          4    1    1    2  501    0 -0.70361956374E+02  0.39310806817E+02  0.99159477583E+02  0.12778398347E+03  0.00000000000E+00 0. -1.
         -4    1    1    2    0  503 -0.23715548779E+02  0.15263619224E+03  0.51784131105E+03  0.54038861744E+03  0.00000000000E+00 0.  1.
<mgrwt>
<rscale>  4 0.21641448E+03</rscale>
<asrwt>0</asrwt>
<pdfrwt beam="1">  1       21 0.24334877E+00 0.21641448E+03</pdfrwt>
<pdfrwt beam="2">  1       21 0.64474535E-02 0.21641448E+03</pdfrwt>
<totfact> 0.12422918E+04</totfact>
</mgrwt>
</event>
<event>
 5    0  0.8533808E-002  0.3373615E+03  0.7546771E-02  0.1067925E+00
         21   -1    0    0  501  502  0.00000000000E+00  0.00000000000E+00  0.18469503585E+03  0.18469503585E+03  0.00000000000E+00 0.  1.
         21   -1    0    0  502  503 -0.00000000000E+00 -0.00000000000E+00 -0.60373503127E+03  0.60373503127E+03  0.00000000000E+00 0.  1.
         25    1    1    2    0    0 -0.29454962315E+03  0.10690337357E+03 -0.23078164056E+03  0.40874561453E+03  0.12500000000E+03 0.  0.
          1    1    1    2  501    0  0.14524637364E+03 -0.32237797010E+02 -0.34495586205E+02  0.15272763365E+03  0.00000000000E+00 0.  1.
         -1    1    1    2    0  503  0.14930324951E+03 -0.74665576559E+02 -0.15376276866E+03  0.22695681894E+03  0.00000000000E+00 0. -1.
<mgrwt>
<rscale>  4 0.33736154E+03</rscale>
<asrwt>0</asrwt>
<pdfrwt beam="1">  1       21 0.28414621E-01 0.33736154E+03</pdfrwt>
<pdfrwt beam="2">  1       21 0.92882313E-01 0.33736154E+03</pdfrwt>
<totfact> 0.10710705E+04</totfact>
</mgrwt>
</event>
<event>
 5    0  0.2813732E-001  0.2689891E+03  0.7546771E-02  0.1101860E+00
         21   -1    0    0  501  502  0.00000000000E+00  0.00000000000E+00  0.43759954475E+03  0.43759954475E+03  0.00000000000E+00 0.  1.
         21   -1    0    0  502  503 -0.00000000000E+00 -0.00000000000E+00 -0.45357009261E+03  0.45357009261E+03  0.00000000000E+00 0.  1.
         25    1    1    2    0    0 -0.11789712695E+03  0.20695501448E+03  0.35513235042E+03  0.44550431746E+03  0.12500000000E+03 0.  0.
          4    1    1    2  501    0  0.91716998023E+02 -0.15595123443E+03 -0.22500470104E+03  0.28872116434E+03  0.00000000000E+00 0.  1.
         -4    1    1    2    0  503  0.26180128931E+02 -0.51003780044E+02 -0.14609819723E+03  0.15694415556E+03  0.00000000000E+00 0. -1.
<mgrwt>
<rscale>  4 0.26898905E+03</rscale>
<asrwt>0</asrwt>
<pdfrwt beam="1">  1       21 0.67323007E-01 0.26898905E+03</pdfrwt>
<pdfrwt beam="2">  1       21 0.69780014E-01 0.26898905E+03</pdfrwt>
<totfact> 0.35673066E+03</totfact>
</mgrwt>
</event>
<event>
 5    0  0.8533808E-002  0.2379155E+03  0.7546771E-02  0.1121189E+00
         21   -1    0    0  501  502  0.00000000000E+00  0.00000000000E+00  0.50704395477E+03  0.50704395477E+03  0.00000000000E+00 0.  1.
         21   -1    0    0  502  503 -0.00000000000E+00 -0.00000000000E+00 -0.10049156321E+03  0.10049156321E+03  0.00000000000E+00 0.  1.
         25    1    1    2    0    0  0.17430884311E+03  0.10293307137E+03  0.19298826198E+03  0.30634663247E+03  0.12500000000E+03 0.  0.
          2    1    1    2  501    0 -0.11931171300E+03 -0.93411942320E+02  0.18286483980E+03  0.23748815857E+03  0.00000000000E+00 0.  1.
         -2    1    1    2    0  503 -0.54997130108E+02 -0.95211290495E+01  0.30699289785E+02  0.63700726934E+02  0.00000000000E+00 0. -1.
<mgrwt>
<rscale>  4 0.23791551E+03</rscale>
<asrwt>0</asrwt>
<pdfrwt beam="1">  1       21 0.78006761E-01 0.23791551E+03</pdfrwt>
<pdfrwt beam="2">  1       21 0.15460241E-01 0.23791551E+03</pdfrwt>
<totfact> 0.52935437E+04</totfact>
</mgrwt>
</event>
<event>
 5    0  0.8533808E-002  0.2778352E+03  0.7546771E-02  0.1096877E+00
         21   -1    0    0  501  502  0.00000000000E+00  0.00000000000E+00  0.62022503017E+03  0.62022503017E+03  0.00000000000E+00 0.  1.
         21   -1    0    0  502  503 -0.00000000000E+00 -0.00000000000E+00 -0.16189586721E+03  0.16189586721E+03  0.00000000000E+00 0.  1.
         25    1    1    2    0    0 -0.10689008277E+03 -0.25227056733E+03  0.11922847808E+03  0.32389251137E+03  0.12500000000E+03 0.  0.
          4    1    1    2  501    0  0.43699563371E+02  0.23514448472E+03  0.29266666161E+03  0.37796343123E+03  0.00000000000E+00 0.  1.
         -4    1    1    2    0  503  0.63190519400E+02  0.17126082615E+02  0.46434023270E+02  0.80264954773E+02  0.00000000000E+00 0. -1.
<mgrwt>
<rscale>  4 0.27783519E+03</rscale>
<asrwt>0</asrwt>
<pdfrwt beam="1">  1       21 0.95419234E-01 0.27783519E+03</pdfrwt>
<pdfrwt beam="2">  1       21 0.24907057E-01 0.27783519E+03</pdfrwt>
<totfact> 0.13322702E+04</totfact>
</mgrwt>
</event>
<event>
 5    0  0.1827381E-001  0.2665037E+03  0.7546771E-02  0.1103297E+00
         21   -1    0    0  501  502  0.00000000000E+00  0.00000000000E+00  0.10185102391E+04  0.10185102391E+04  0.00000000000E+00 0.  1.
         21   -1    0    0  502  503 -0.00000000000E+00 -0.00000000000E+00 -0.12274661690E+03  0.12274661690E+03  0.00000000000E+00 0.  1.
         25    1    1    2    0    0  0.13592839230E+03 -0.19215276039E+03  0.85491895815E+03  0.89549463213E+03  0.12500000000E+03 0.  0.
          1    1    1    2  501    0 -0.38564386477E+02  0.32571107368E+02 -0.11216192350E+02  0.51709688748E+02  0.00000000000E+00 0. -1.
         -1    1    1    2    0  503 -0.97364005825E+02  0.15958165302E+03  0.52060856365E+02  0.19405253510E+03  0.00000000000E+00 0.  1.
<mgrwt>
<rscale>  4 0.26650368E+03</rscale>
<asrwt>0</asrwt>
<pdfrwt beam="1">  1       21 0.15669388E+00 0.26650368E+03</pdfrwt>
<pdfrwt beam="2">  1       21 0.18884096E-01 0.26650368E+03</pdfrwt>
<totfact> 0.64888327E+03</totfact>
</mgrwt>
</event>
<event>
 5    0  0.8533808E-002  0.2002127E+03  0.7546771E-02  0.1149560E+00
         21   -1    0    0  501  502  0.00000000000E+00  0.00000000000E+00  0.10337390656E+04  0.10337390656E+04  0.00000000000E+00 0.  1.
         21   -1    0    0  502  503 -0.00000000000E+00 -0.00000000000E+00 -0.10402306723E+03  0.10402306723E+03  0.00000000000E+00 0.  1.
         25    1    1    2    0    0 -0.22023021436E+03  0.50711814053E+02  0.75298751934E+03  0.79604537539E+03  0.12500000000E+03 0.  0.
          4    1    1    2  501    0  0.14945091756E+03 -0.98789712722E+01  0.30862915292E+01  0.14980886498E+03  0.00000000000E+00 0. -1.
         -4    1    1    2    0  503  0.70779296797E+02 -0.40832842781E+02  0.17364218755E+03  0.19190789249E+03  0.00000000000E+00 0.  1.
<mgrwt>
<rscale>  4 0.20021269E+03</rscale>
<asrwt>0</asrwt>
<pdfrwt beam="1">  1       21 0.15903677E+00 0.20021269E+03</pdfrwt>
<pdfrwt beam="2">  1       21 0.16003550E-01 0.20021269E+03</pdfrwt>
<totfact> 0.88637345E+03</totfact>
</mgrwt>
</event>
<event>
 5    0  0.1027909E-001  0.2597377E+03  0.7546771E-02  0.1107301E+00
         21   -1    0    0  501  502  0.00000000000E+00  0.00000000000E+00  0.80588200922E+03  0.80588200922E+03  0.00000000000E+00 0.  1.
         21   -1    0    0  502  503 -0.00000000000E+00 -0.00000000000E+00 -0.13108734555E+03  0.13108734555E+03  0.00000000000E+00 0.  1.
         25    1    1    2    0    0  0.12733648943E+03  0.18874347182E+03  0.65248450474E+03  0.70228178719E+03  0.12500000000E+03 0.  0.
          2    1    1    2  501    0 -0.97900029498E+02 -0.17038171122E+03  0.30966146726E+02  0.19893025294E+03  0.00000000000E+00 0.  1.
         -2    1    1    2    0  503 -0.29436459935E+02 -0.18361760596E+02 -0.86559877956E+01  0.35757314642E+02  0.00000000000E+00 0. -1.
<mgrwt>
<rscale>  4 0.25973771E+03</rscale>
<asrwt>0</asrwt>
<pdfrwt beam="1">  1       21 0.12398184E+00 0.25973771E+03</pdfrwt>
<pdfrwt beam="2">  1       21 0.20167284E-01 0.25973771E+03</pdfrwt>
<totfact> 0.10602819E+04</totfact>
</mgrwt>
</event>
<event>
 5    0  0.8533808E-002  0.2413339E+03  0.7546771E-02  0.1118907E+00
         21   -1    0    0  503  502  0.00000000000E+00  0.00000000000E+00  0.24361679236E+04  0.24361679236E+04  0.00000000000E+00 0. -1.
         21   -1    0    0  501  503 -0.00000000000E+00 -0.00000000000E+00 -0.49570534739E+02  0.49570534739E+02  0.00000000000E+00 0. -1.
         25    1    1    2    0    0 -0.24989544310E+03  0.90056465629E+02  0.55112021473E+03  0.62443285513E+03  0.12500000000E+03 0.  0.
          3    1    1    2  501    0  0.84048897731E+02  0.16993807983E+02  0.26639828630E+03  0.27985898889E+03  0.00000000000E+00 0.  1.
         -3    1    1    2    0  502  0.16584654537E+03 -0.10705027361E+03  0.15690788878E+04  0.15814466143E+04  0.00000000000E+00 0. -1.
<mgrwt>
<rscale>  4 0.24133386E+03</rscale>
<asrwt>0</asrwt>
<pdfrwt beam="1">  1       21 0.37479497E+00 0.24133386E+03</pdfrwt>
<pdfrwt beam="2">  1       21 0.76262380E-02 0.24133386E+03</pdfrwt>
<totfact> 0.15219404E+03</totfact>
</mgrwt>
</event>
<event>
 5    0  0.8533808E-002  0.3119273E+03  0.7546771E-02  0.1079426E+00
         21   -1    0    0  501  502  0.00000000000E+00  0.00000000000E+00  0.60908368382E+03  0.60908368382E+03  0.00000000000E+00 0. -1.
         21   -1    0    0  502  503 -0.00000000000E+00 -0.00000000000E+00 -0.17541991678E+03  0.17541991678E+03  0.00000000000E+00 0. -1.
         25    1    1    2    0    0 -0.13671866117E+02 -0.28545877823E+03  0.37538474521E+03  0.48807001642E+03  0.12500000000E+03 0.  0.
          4    1    1    2  501    0  0.10549189312E+02  0.66471104717E+02 -0.75977774407E+01  0.67730490766E+02  0.00000000000E+00 0. -1.
         -4    1    1    2    0  503  0.31226768045E+01  0.21898767351E+03  0.65876799270E+02  0.22870309342E+03  0.00000000000E+00 0.  1.
<mgrwt>
<rscale>  4 0.31192729E+03</rscale>
<asrwt>0</asrwt>
<pdfrwt beam="1">  1       21 0.93705181E-01 0.31192729E+03</pdfrwt>
<pdfrwt beam="2">  1       21 0.26987680E-01 0.31192729E+03</pdfrwt>
<totfact> 0.11725004E+04</totfact>
</mgrwt>
</event>
<event>
 5    0  0.8533808E-002  0.2334394E+03  0.7546771E-02  0.1124242E+00
         21   -1    0    0  501  502  0.00000000000E+00  0.00000000000E+00  0.82185750894E+02  0.82185750894E+02  0.00000000000E+00 0. -1.
         21   -1    0    0  502  503 -0.00000000000E+00 -0.00000000000E+00 -0.12614561806E+04  0.12614561806E+04  0.00000000000E+00 0.  1.
         25    1    1    2    0    0 -0.17199897442E+03  0.10281946192E+03 -0.10881952833E+04  0.11135301808E+04  0.12500000000E+03 0.  0.
          2    1    1    2  501    0  0.77037896159E+01 -0.21260613030E+02  0.48358661723E+01  0.23124611186E+02  0.00000000000E+00 0.  1.
         -2    1    1    2    0  503  0.16429518481E+03 -0.81558848894E+02 -0.95911012556E+02  0.20698713949E+03  0.00000000000E+00 0. -1.
<mgrwt>
<rscale>  4 0.23343939E+03</rscale>
<asrwt>0</asrwt>
<pdfrwt beam="1">  1       21 0.12643963E-01 0.23343939E+03</pdfrwt>
<pdfrwt beam="2">  1       21 0.19407017E+00 0.23343939E+03</pdfrwt>
<totfact> 0.75832191E+03</totfact>
</mgrwt>
</event>
<event>
 5    0  0.8533808E-002  0.3674133E+03  0.7546771E-02  0.1055686E+00
         21   -1    0    0  503  502  0.00000000000E+00  0.00000000000E+00  0.52995853649E+03  0.52995853649E+03  0.00000000000E+00 0.  1.
         21   -1    0    0  501  503 -0.00000000000E+00 -0.00000000000E+00 -0.52611048241E+03  0.52611048241E+03  0.00000000000E+00 0.  1.
         25    1    1    2    0    0  0.33471155154E+03 -0.85648820002E+02  0.38412579701E+03  0.53154978227E+03  0.12500000000E+03 0.  0.
          1    1    1    2  501    0 -0.19004736720E+03  0.89879894871E+02 -0.17603689269E+03  0.27419953477E+03  0.00000000000E+00 0.  1.
         -1    1    1    2    0  502 -0.14466418434E+03 -0.42310748683E+01 -0.20424085024E+03  0.25031970185E+03  0.00000000000E+00 0. -1.
<mgrwt>
<rscale>  4 0.36741331E+03</rscale>
<asrwt>0</asrwt>
<pdfrwt beam="1">  1       21 0.81532083E-01 0.36741331E+03</pdfrwt>
<pdfrwt beam="2">  1       21 0.80940074E-01 0.36741331E+03</pdfrwt>
<totfact> 0.15699651E+03</totfact>
</mgrwt>
</event>
<event>
 5    0  0.8533808E-002  0.2921899E+03  0.7546771E-02  0.1089211E+00
         21   -1    0    0  503  502  0.00000000000E+00  0.00000000000E+00  0.18633490274E+03  0.18633490274E+03  0.00000000000E+00 0. -1.
         21   -1    0    0  501  503 -0.00000000000E+00 -0.00000000000E+00 -0.92400136608E+03  0.92400136608E+03  0.00000000000E+00 0. -1.
         25    1    1    2    0    0 -0.46829044358E+02 -0.25991729881E+03 -0.77927401293E+03  0.83225173406E+03  0.12500000000E+03 0.  0.
          3    1    1    2  501    0 -0.20550891279E+01  0.27885403406E+02 -0.18415154161E+02  0.33480397506E+02  0.00000000000E+00 0.  1.
         -3    1    1    2    0  502  0.48884133486E+02  0.23203189541E+03  0.60022703750E+02  0.24460413725E+03  0.00000000000E+00 0. -1.
<mgrwt>
<rscale>  4 0.29218994E+03</rscale>
<asrwt>0</asrwt>
<pdfrwt beam="1">  1       21 0.28666908E-01 0.29218994E+03</pdfrwt>
<pdfrwt beam="2">  1       21 0.14215406E+00 0.29218994E+03</pdfrwt>
<totfact> 0.37292188E+03</totfact>
</mgrwt>
</event>
<event>
 5    0  0.8533808E-002  0.2023307E+03  0.7546771E-02  0.1147787E+00
         21   -1    0    0  503  502  0.00000000000E+00  0.00000000000E+00  0.48180840304E+03  0.48180840304E+03  0.00000000000E+00 0. -1.
         21   -1    0    0  501  503 -0.00000000000E+00 -0.00000000000E+00 -0.14674606226E+03  0.14674606226E+03  0.00000000000E+00 0.  1.
         25    1    1    2    0    0 -0.17478339242E+03 -0.11428477909E+03  0.61902643893E+02  0.25113180269E+03  0.12500000000E+03 0.  0.
          1    1    1    2  501    0  0.10215702801E+03  0.79975219666E+02  0.47946883509E+02  0.13831485015E+03  0.00000000000E+00 0. -1.
         -1    1    1    2    0  502  0.72626364414E+02  0.34309559429E+02  0.22521281338E+03  0.23910781247E+03  0.00000000000E+00 0.  1.
<mgrwt>
<rscale>  4 0.20233065E+03</rscale>
<asrwt>0</asrwt>
<pdfrwt beam="1">  1       21 0.74124369E-01 0.20233065E+03</pdfrwt>
<pdfrwt beam="2">  1       21 0.22576318E-01 0.20233065E+03</pdfrwt>
<totfact> 0.29842466E+04</totfact>
</mgrwt>
</event>
<event>
 5    0  0.8533808E-002  0.2852711E+03  0.7546771E-02  0.1092844E+00
         21   -1    0    0  501  502  0.00000000000E+00  0.00000000000E+00  0.24549544362E+03  0.24549544362E+03  0.00000000000E+00 0. -1.
         21   -1    0    0  502  503 -0.00000000000E+00 -0.00000000000E+00 -0.55447937112E+03  0.55447937112E+03  0.00000000000E+00 0.  1.
         25    1    1    2    0    0 -0.14950627901E+03  0.20833262444E+03 -0.42374767487E+03  0.51082453135E+03  0.12500000000E+03 0.  0.
          4    1    1    2  501    0  0.15990247176E+01 -0.44437324501E+02  0.15459666203E+02  0.47076894204E+02  0.00000000000E+00 0.  1.
         -4    1    1    2    0  503  0.14790725429E+03 -0.16389529994E+03  0.99304081168E+02  0.24207338919E+03  0.00000000000E+00 0. -1.
<mgrwt>
<rscale>  4 0.28527112E+03</rscale>
<asrwt>0</asrwt>
<pdfrwt beam="1">  1       21 0.37768530E-01 0.28527112E+03</pdfrwt>
<pdfrwt beam="2">  1       21 0.85304518E-01 0.28527112E+03</pdfrwt>
<totfact> 0.75914723E+03</totfact>
</mgrwt>
</event>
<event>
 5    0  0.8533808E-002  0.2728133E+03  0.7546771E-02  0.1099680E+00
         21   -1    0    0  501  502  0.00000000000E+00  0.00000000000E+00  0.13083284981E+04  0.13083284981E+04  0.00000000000E+00 0.  1.
         21   -1    0    0  502  503 -0.00000000000E+00 -0.00000000000E+00 -0.55382693869E+02  0.55382693869E+02  0.00000000000E+00 0.  1.
         25    1    1    2    0    0 -0.22400663762E+03 -0.92860821247E+02  0.82157448538E+03  0.86568570558E+03  0.12500000000E+03 0.  0.
          4    1    1    2  501    0  0.20086040937E+03  0.71204231737E+02  0.40108267456E+03  0.45418306717E+03  0.00000000000E+00 0.  1.
         -4    1    1    2    0  503  0.23146228243E+02  0.21656589510E+02  0.30288644325E+02  0.43842419255E+02  0.00000000000E+00 0. -1.
<mgrwt>
<rscale>  4 0.27281332E+03</rscale>
<asrwt>0</asrwt>
<pdfrwt beam="1">  1       21 0.20128128E+00 0.27281332E+03</pdfrwt>
<pdfrwt beam="2">  1       21 0.85204154E-02 0.27281332E+03</pdfrwt>
<totfact> 0.13397181E+04</totfact>
</mgrwt>
</event>
<event>
 5    0  0.8533808E-002  0.3075517E+03  0.7546771E-02  0.1081525E+00
         21   -1    0    0  501  502  0.00000000000E+00  0.00000000000E+00  0.11703671456E+04  0.11703671456E+04  0.00000000000E+00 0.  1.
         21   -1    0    0  502  503 -0.00000000000E+00 -0.00000000000E+00 -0.44962730572E+03  0.44962730572E+03  0.00000000000E+00 0. -1.
         25    1    1    2    0    0  0.25515140920E+03  0.11773192326E+03 -0.37330963747E+03  0.48368185080E+03  0.12500000000E+03 0.  0.
          3    1    1    2  501    0 -0.69256691093E+02 -0.31665735686E+02  0.54495959414E+03  0.55025463862E+03  0.00000000000E+00 0.  1.
         -3    1    1    2    0  503 -0.18589471811E+03 -0.86066187569E+02  0.54908988323E+03  0.58605796192E+03  0.00000000000E+00 0. -1.
<mgrwt>
<rscale>  4 0.30755170E+03</rscale>
<asrwt>0</asrwt>
<pdfrwt beam="1">  1       21 0.18005648E+00 0.30755170E+03</pdfrwt>
<pdfrwt beam="2">  1       21 0.69173432E-01 0.30755170E+03</pdfrwt>
<totfact> 0.30905432E+02</totfact>
</mgrwt>
</event>
<event>
 5    0  0.8533808E-002  0.2456087E+03  0.7546771E-02  0.1116112E+00
         21   -1    0    0  503  502  0.00000000000E+00  0.00000000000E+00  0.13304795458E+04  0.13304795458E+04  0.00000000000E+00 0.  1.
         21   -1    0    0  501  503 -0.00000000000E+00 -0.00000000000E+00 -0.11507699226E+03  0.11507699226E+03  0.00000000000E+00 0.  1.
         25    1    1    2    0    0  0.17806569812E+03 -0.11776918277E+03  0.42982903326E+02  0.25109660140E+03  0.12500000000E+03 0.  0.
          1    1    1    2  501    0 -0.27756834686E+01  0.27641840516E+02  0.88256015355E+02  0.92525131787E+02  0.00000000000E+00 0. -1.
         -1    1    1    2    0  502 -0.17529001465E+03  0.90127342251E+02  0.10841636348E+04  0.11019348048E+04  0.00000000000E+00 0.  1.
<mgrwt>
<rscale>  4 0.24560869E+03</rscale>
<asrwt>0</asrwt>
<pdfrwt beam="1">  1       21 0.20468915E+00 0.24560869E+03</pdfrwt>
<pdfrwt beam="2">  1       21 0.17704154E-01 0.24560869E+03</pdfrwt>
<totfact> 0.34622288E+03</totfact>
</mgrwt>
</event>
<event>
 5    0  0.8533808E-002  0.5394603E+03  0.7546771E-02  0.1005465E+00
         21   -1    0    0  501  502  0.00000000000E+00  0.00000000000E+00  0.18266189018E+04  0.18266189018E+04  0.00000000000E+00 0.  1.
         21   -1    0    0  502  503 -0.00000000000E+00 -0.00000000000E+00 -0.69864496543E+03  0.69864496543E+03  0.00000000000E+00 0. -1.
         25    1    1    2    0    0 -0.49643119393E+03 -0.53818465328E+02 -0.55558313586E+03  0.75738892147E+03  0.12500000000E+03 0.  0.
          1    1    1    2  501    0  0.37930098034E+03  0.10898968484E+03  0.10615459386E+04  0.11325315735E+04  0.00000000000E+00 0.  1.
         -1    1    1    2    0  503  0.11713021359E+03 -0.55171219510E+02  0.62201113360E+03  0.63534337229E+03  0.00000000000E+00 0. -1.
<mgrwt>
<rscale>  4 0.53317313E+03</rscale>
<asrwt>0</asrwt>
<pdfrwt beam="1">  1       21 0.28101829E+00 0.53946029E+03</pdfrwt>
<pdfrwt beam="2">  1       21 0.10748384E+00 0.53946029E+03</pdfrwt>
<totfact> 0.21550145E+01</totfact>
</mgrwt>
</event>
<event>
 5    0  0.8533808E-002  0.2260560E+03  0.7546771E-02  0.1129447E+00
         21   -1    0    0  501  502  0.00000000000E+00  0.00000000000E+00  0.10803674419E+03  0.10803674419E+03  0.00000000000E+00 0. -1.
         21   -1    0    0  502  503 -0.00000000000E+00 -0.00000000000E+00 -0.65915038513E+03  0.65915038513E+03  0.00000000000E+00 0. -1.
         25    1    1    2    0    0 -0.21033845231E+03 -0.24248145531E+02 -0.33915352768E+03  0.41890375078E+03  0.12500000000E+03 0.  0.
          1    1    1    2  501    0  0.17074326924E+03  0.22968180772E+02 -0.24305587231E+03  0.29792106066E+03  0.00000000000E+00 0.  1.
         -1    1    1    2    0  503  0.39595183068E+02  0.12799647583E+01  0.31095759039E+02  0.50362317880E+02  0.00000000000E+00 0. -1.
<mgrwt>
<rscale>  4 0.22605599E+03</rscale>
<asrwt>0</asrwt>
<pdfrwt beam="1">  1       21 0.16621038E-01 0.22605599E+03</pdfrwt>
<pdfrwt beam="2">  1       21 0.10140775E+00 0.22605599E+03</pdfrwt>
<totfact> 0.25334834E+04</totfact>
</mgrwt>
</event>
<event>
 5    0  0.8533808E-002  0.3609433E+03  0.7546771E-02  0.1058211E+00
         21   -1    0    0  501  502  0.00000000000E+00  0.00000000000E+00  0.13138513132E+04  0.13138513132E+04  0.00000000000E+00 0.  1.
         21   -1    0    0  502  503 -0.00000000000E+00 -0.00000000000E+00 -0.11798879307E+03  0.11798879307E+03  0.00000000000E+00 0.  1.
         25    1    1    2    0    0 -0.10932023300E+03 -0.32047489031E+03  0.29194094080E+03  0.46423009551E+03  0.12500000000E+03 0.  0.
          2    1    1    2  501    0  0.90350383309E+01  0.12698319688E+03  0.33060758994E+03  0.35427071955E+03  0.00000000000E+00 0. -1.
         -2    1    1    2    0  503  0.10028519467E+03  0.19349169343E+03  0.57331398943E+03  0.61333929124E+03  0.00000000000E+00 0.  1.
<mgrwt>
<rscale>  4 0.36094330E+03</rscale>
<asrwt>0</asrwt>
<pdfrwt beam="1">  1       21 0.20213096E+00 0.36094330E+03</pdfrwt>
<pdfrwt beam="2">  1       21 0.18152123E-01 0.36094330E+03</pdfrwt>
<totfact> 0.31916472E+03</totfact>
</mgrwt>
</event>
<event>
 5    0  0.8533808E-002  0.2732342E+03  0.7546771E-02  0.1099443E+00
         21   -1    0    0  501  502  0.00000000000E+00  0.00000000000E+00  0.11157026237E+04  0.11157026237E+04  0.00000000000E+00 0.  1.
         21   -1    0    0  502  503 -0.00000000000E+00 -0.00000000000E+00 -0.13492545913E+03  0.13492545913E+03  0.00000000000E+00 0.  1.
         25    1    1    2    0    0 -0.13545144523E+03  0.27547683466E+03  0.51854591589E+03  0.61542623225E+03  0.12500000000E+03 0.  0.
          4    1    1    2  501    0  0.12917865559E+03 -0.46457145109E+02  0.35815880947E+03  0.38356632306E+03  0.00000000000E+00 0.  1.
         -4    1    1    2    0  503  0.62727896465E+01 -0.22901968955E+03  0.10407243919E+03  0.25163552749E+03  0.00000000000E+00 0. -1.
<mgrwt>
<rscale>  4 0.27323418E+03</rscale>
<asrwt>0</asrwt>
<pdfrwt beam="1">  1       21 0.17164655E+00 0.27323418E+03</pdfrwt>
<pdfrwt beam="2">  1       21 0.20757764E-01 0.27323418E+03</pdfrwt>
<totfact> 0.42065011E+03</totfact>
</mgrwt>
</event>
<event>
 5    0  0.8533808E-002  0.2479856E+03  0.7546771E-02  0.1114585E+00
         21   -1    0    0  501  502  0.00000000000E+00  0.00000000000E+00  0.10022029069E+03  0.10022029069E+03  0.00000000000E+00 0.  1.
         21   -1    0    0  502  503 -0.00000000000E+00 -0.00000000000E+00 -0.19152618050E+04  0.19152618050E+04  0.00000000000E+00 0.  1.
         25    1    1    2    0    0 -0.11506966236E+03  0.18064009859E+03 -0.17659810637E+04  0.17833075981E+04  0.12500000000E+03 0.  0.
          2    1    1    2  501    0  0.35365180838E+02 -0.66789732847E+02 -0.54362705504E+02  0.93096015915E+02  0.00000000000E+00 0. -1.
         -2    1    1    2    0  503  0.79704481526E+02 -0.11385036575E+03  0.53022548126E+01  0.13907848167E+03  0.00000000000E+00 0.  1.
<mgrwt>
<rscale>  4 0.24798563E+03</rscale>
<asrwt>0</asrwt>
<pdfrwt beam="1">  1       21 0.15418506E-01 0.24798563E+03</pdfrwt>
<pdfrwt beam="2">  1       21 0.29465566E+00 0.24798563E+03</pdfrwt>
<totfact> 0.12822378E+03</totfact>
</mgrwt>
</event>
<event>
 5    0  0.8533808E-002  0.1862230E+03  0.7546771E-02  0.1161913E+00
         21   -1    0    0  503  502  0.00000000000E+00  0.00000000000E+00  0.92090219154E+03  0.92090219154E+03  0.00000000000E+00 0. -1.
         21   -1    0    0  501  503 -0.00000000000E+00 -0.00000000000E+00 -0.13664037608E+03  0.13664037608E+03  0.00000000000E+00 0.  1.
         25    1    1    2    0    0 -0.78385780810E+02  0.19374449206E+03  0.82358932017E+02  0.25707830037E+03  0.12500000000E+03 0.  0.
          2    1    1    2  501    0 -0.39128816698E+02 -0.12623976690E+03  0.61310600479E+02  0.14569328322E+03  0.00000000000E+00 0.  1.
         -2    1    1    2    0  502  0.11751459751E+03 -0.67504725158E+02  0.64059228296E+03  0.65477098404E+03  0.00000000000E+00 0. -1.
<mgrwt>
<rscale>  4 0.18622295E+03</rscale>
<asrwt>0</asrwt>
<pdfrwt beam="1">  1       21 0.14167726E+00 0.18622295E+03</pdfrwt>
<pdfrwt beam="2">  1       21 0.21021597E-01 0.18622295E+03</pdfrwt>
<totfact> 0.73329048E+03</totfact>
</mgrwt>
</event>
<event>
 5    0  0.8533808E-002  0.2427395E+03  0.7546771E-02  0.1117981E+00
         21   -1    0    0  503  502  0.00000000000E+00  0.00000000000E+00  0.24078180929E+02  0.24078180929E+02  0.00000000000E+00 0.  1.
         21   -1    0    0  501  503 -0.00000000000E+00 -0.00000000000E+00 -0.22341837440E+04  0.22341837440E+04  0.00000000000E+00 0.  1.
         25    1    1    2    0    0 -0.96653812077E+02 -0.18427015172E+03 -0.95190125098E+03  0.98236370038E+03  0.12500000000E+03 0.  0.
          4    1    1    2  501    0  0.17074058686E+02  0.37482084994E+02 -0.35584364778E+03  0.35821939065E+03  0.00000000000E+00 0. -1.
         -4    1    1    2    0  502  0.79579753391E+02  0.14678806673E+03 -0.90236066434E+03  0.91767883392E+03  0.00000000000E+00 0.  1.
<mgrwt>
<rscale>  4 0.24273947E+03</rscale>
<asrwt>0</asrwt>
<pdfrwt beam="1">  1       21 0.37043345E-02 0.24273947E+03</pdfrwt>
<pdfrwt beam="2">  1       21 0.34372067E+00 0.24273947E+03</pdfrwt>
<totfact> 0.80377240E+03</totfact>
</mgrwt>
</event>
<event>
 5    0  0.8533808E-002  0.2955598E+03  0.7546771E-02  0.1087482E+00
         21   -1    0    0  503  502  0.00000000000E+00  0.00000000000E+00  0.18096229309E+03  0.18096229309E+03  0.00000000000E+00 0. -1.
         21   -1    0    0  501  503 -0.00000000000E+00 -0.00000000000E+00 -0.47459198186E+03  0.47459198186E+03  0.00000000000E+00 0.  1.
         25    1    1    2    0    0  0.26364637571E+03 -0.47129131706E+02 -0.17567935648E+03  0.34382961299E+03  0.12500000000E+03 0.  0.
          1    1    1    2  501    0 -0.15360649526E+03  0.68121573789E+02 -0.10690136555E+03  0.19915673767E+03  0.00000000000E+00 0. -1.
         -1    1    1    2    0  502 -0.11003988044E+03 -0.20992442083E+02 -0.11048966738E+02  0.11256792429E+03  0.00000000000E+00 0.  1.
<mgrwt>
<rscale>  4 0.29555975E+03</rscale>
<asrwt>0</asrwt>
<pdfrwt beam="1">  1       21 0.27840353E-01 0.29555975E+03</pdfrwt>
<pdfrwt beam="2">  1       21 0.73014150E-01 0.29555975E+03</pdfrwt>
<totfact> 0.19744167E+04</totfact>
</mgrwt>
</event>
<event>
 5    0  0.8533808E-002  0.2770821E+03  0.7546771E-02  0.1097293E+00
         21   -1    0    0  501  502  0.00000000000E+00  0.00000000000E+00  0.36574996397E+03  0.36574996397E+03  0.00000000000E+00 0. -1.
         21   -1    0    0  502  503 -0.00000000000E+00 -0.00000000000E+00 -0.27655200364E+03  0.27655200364E+03  0.00000000000E+00 0. -1.
         25    1    1    2    0    0  0.23289342728E+03 -0.11293853020E+03  0.14999924542E+03  0.32422096431E+03  0.12500000000E+03 0.  0.
          3    1    1    2  501    0 -0.19235957252E+03  0.15106798193E+03 -0.82825256087E+02  0.25823199521E+03  0.00000000000E+00 0. -1.
         -3    1    1    2    0  503 -0.40533854751E+02 -0.38129451732E+02  0.22023970996E+02  0.59849008086E+02  0.00000000000E+00 0.  1.
<mgrwt>
<rscale>  4 0.27708214E+03</rscale>
<asrwt>0</asrwt>
<pdfrwt beam="1">  1       21 0.56269226E-01 0.27708214E+03</pdfrwt>
<pdfrwt beam="2">  1       21 0.42546462E-01 0.27708214E+03</pdfrwt>
<totfact> 0.15083922E+04</totfact>
</mgrwt>
</event>
<event>
 5    0  0.8533808E-002  0.2725084E+03  0.7546771E-02  0.1099852E+00
         21   -1    0    0  503  502  0.00000000000E+00  0.00000000000E+00  0.74504608425E+03  0.74504608425E+03  0.00000000000E+00 0. -1.
         21   -1    0    0  501  503 -0.00000000000E+00 -0.00000000000E+00 -0.10076685875E+03  0.10076685875E+03  0.00000000000E+00 0. -1.
         25    1    1    2    0    0  0.10578366587E+01 -0.24214607494E+03  0.45874099640E+03  0.53357674463E+03  0.12500000000E+03 0.  0.
          3    1    1    2  501    0 -0.34557089682E+01  0.41707775852E+02  0.44284072830E+01  0.42084335352E+02  0.00000000000E+00 0. -1.
         -3    1    1    2    0  502  0.23978723094E+01  0.20043829909E+03  0.18110982182E+03  0.27015186302E+03  0.00000000000E+00 0.  1.
<mgrwt>
<rscale>  4 0.27250842E+03</rscale>
<asrwt>0</asrwt>
<pdfrwt beam="1">  1       21 0.11462247E+00 0.27250842E+03</pdfrwt>
<pdfrwt beam="2">  1       21 0.15502594E-01 0.27250842E+03</pdfrwt>
<totfact> 0.20902440E+04</totfact>
</mgrwt>
</event>
<event>
 5    0  0.8533808E-002  0.2479623E+03  0.7546771E-02  0.1114599E+00
         21   -1    0    0  503  502  0.00000000000E+00  0.00000000000E+00  0.22455733267E+03  0.22455733267E+03  0.00000000000E+00 0.  1.
         21   -1    0    0  501  503 -0.00000000000E+00 -0.00000000000E+00 -0.25453473980E+03  0.25453473980E+03  0.00000000000E+00 0.  1.
         25    1    1    2    0    0 -0.16319983187E+03  0.13865820884E+03 -0.49746779230E+02  0.25290319501E+03  0.12500000000E+03 0.  0.
          2    1    1    2  501    0  0.63634997821E+02 -0.42763096481E+02 -0.25390740540E+02  0.80763760892E+02  0.00000000000E+00 0. -1.
         -2    1    1    2    0  502  0.99564834053E+02 -0.95895112357E+02  0.45160112638E+02  0.14542511656E+03  0.00000000000E+00 0.  1.
<mgrwt>
<rscale>  4 0.24796226E+03</rscale>
<asrwt>0</asrwt>
<pdfrwt beam="1">  1       21 0.34547282E-01 0.24796226E+03</pdfrwt>
<pdfrwt beam="2">  1       21 0.39159191E-01 0.24796226E+03</pdfrwt>
<totfact> 0.49532700E+04</totfact>
</mgrwt>
</event>
<event>
 5    0  0.1078519E-001  0.2621558E+03  0.7546771E-02  0.1105855E+00
         21   -1    0    0  501  502  0.00000000000E+00  0.00000000000E+00  0.13542966287E+03  0.13542966287E+03  0.00000000000E+00 0.  1.
         21   -1    0    0  502  503 -0.00000000000E+00 -0.00000000000E+00 -0.56166109661E+03  0.56166109661E+03  0.00000000000E+00 0.  1.
         25    1    1    2    0    0  0.22351267899E+03 -0.56060376117E+02 -0.75996423758E+02  0.27294896934E+03  0.12500000000E+03 0.  0.
          3    1    1    2  501    0 -0.20172488863E+03  0.58628163048E+02 -0.27673194972E+03  0.34743454663E+03  0.00000000000E+00 0.  1.
         -3    1    1    2    0  503 -0.21787790358E+02 -0.25677869304E+01 -0.73503060269E+02  0.76707243513E+02  0.00000000000E+00 0. -1.
<mgrwt>
<rscale>  4 0.26215584E+03</rscale>
<asrwt>0</asrwt>
<pdfrwt beam="1">  1       21 0.20835333E-01 0.26215584E+03</pdfrwt>
<pdfrwt beam="2">  1       21 0.86409399E-01 0.26215584E+03</pdfrwt>
<totfact> 0.23791202E+04</totfact>
</mgrwt>
</event>
<event>
 5    0  0.8533808E-002  0.2462001E+03  0.7546771E-02  0.1115730E+00
         21   -1    0    0  501  502  0.00000000000E+00  0.00000000000E+00  0.19689936496E+04  0.19689936496E+04  0.00000000000E+00 0.  1.
         21   -1    0    0  502  503 -0.00000000000E+00 -0.00000000000E+00 -0.28198475509E+02  0.28198475509E+02  0.00000000000E+00 0.  1.
         25    1    1    2    0    0  0.20120526218E+03 -0.67126226146E+02  0.11881955533E+04  0.12134344485E+04  0.12500000000E+03 0.  0.
          2    1    1    2  501    0 -0.14711820217E+03  0.70220925216E+02  0.60315073656E+03  0.62479240934E+03  0.00000000000E+00 0.  1.
         -2    1    1    2    0  503 -0.54087060009E+02 -0.30946990699E+01  0.14944888424E+03  0.15896526735E+03  0.00000000000E+00 0. -1.
<mgrwt>
<rscale>  4 0.24620010E+03</rscale>
<asrwt>0</asrwt>
<pdfrwt beam="1">  1       21 0.30292199E+00 0.24620010E+03</pdfrwt>
<pdfrwt beam="2">  1       21 0.43382285E-02 0.24620010E+03</pdfrwt>
<totfact> 0.10664276E+04</totfact>
</mgrwt>
</event>
<event>
 5    0  0.8533808E-002  0.3614592E+03  0.7546771E-02  0.1058008E+00
         21   -1    0    0  501  502  0.00000000000E+00  0.00000000000E+00  0.11914814851E+04  0.11914814851E+04  0.00000000000E+00 0. -1.
         21   -1    0    0  502  503 -0.00000000000E+00 -0.00000000000E+00 -0.21524436122E+03  0.21524436122E+03  0.00000000000E+00 0. -1.
         25    1    1    2    0    0  0.27155985240E+03 -0.20318210059E+03 -0.10743779625E+02  0.36161878856E+03  0.12500000000E+03 0.  0.
          4    1    1    2  501    0 -0.26687005573E+02  0.26577481907E+02  0.17007234672E+03  0.17419288714E+03  0.00000000000E+00 0.  1.
         -4    1    1    2    0  503 -0.24487284683E+03  0.17660461869E+03  0.81690855682E+03  0.87091417066E+03  0.00000000000E+00 0. -1.
<mgrwt>
<rscale>  4 0.36145915E+03</rscale>
<asrwt>0</asrwt>
<pdfrwt beam="1">  1       21 0.18330484E+00 0.36145915E+03</pdfrwt>
<pdfrwt beam="2">  1       21 0.33114518E-01 0.36145915E+03</pdfrwt>
<totfact> 0.13348101E+03</totfact>
</mgrwt>
</event>
<event>
 5    0  0.8533808E-002  0.2679041E+03  0.7546771E-02  0.1102485E+00
         21   -1    0    0  503  502  0.00000000000E+00  0.00000000000E+00  0.44998326623E+03  0.44998326623E+03  0.00000000000E+00 0. -1.
         21   -1    0    0  501  503 -0.00000000000E+00 -0.00000000000E+00 -0.20129505154E+03  0.20129505154E+03  0.00000000000E+00 0. -1.
         25    1    1    2    0    0  0.23189829145E+03  0.48690973417E+02 -0.36349634436E+02  0.27035888074E+03  0.12500000000E+03 0.  0.
          2    1    1    2  501    0 -0.11959851360E+03 -0.41546957026E+02  0.21148226649E+03  0.24648469148E+03  0.00000000000E+00 0. -1.
         -2    1    1    2    0  502 -0.11229977785E+03 -0.71440163916E+01  0.73555582632E+02  0.13443474555E+03  0.00000000000E+00 0.  1.
<mgrwt>
<rscale>  4 0.26790414E+03</rscale>
<asrwt>0</asrwt>
<pdfrwt beam="1">  1       21 0.69228195E-01 0.26790414E+03</pdfrwt>
<pdfrwt beam="2">  1       21 0.30968470E-01 0.26790414E+03</pdfrwt>
<totfact> 0.18261653E+04</totfact>
</mgrwt>
</event>
<event>
 5    0  0.8533808E-002  0.3414583E+03  0.7546771E-02  0.1066177E+00
         21   -1    0    0  503  502  0.00000000000E+00  0.00000000000E+00  0.13217279601E+04  0.13217279601E+04  0.00000000000E+00 0. -1.
         21   -1    0    0  501  503 -0.00000000000E+00 -0.00000000000E+00 -0.13652754075E+03  0.13652754075E+03  0.00000000000E+00 0. -1.
         25    1    1    2    0    0  0.21311564952E+03 -0.29367825650E+03  0.83762823008E+03  0.92136379907E+03  0.12500000000E+03 0.  0.
          2    1    1    2  501    0 -0.16306406666E+03  0.21367296729E+03  0.35143700652E+03  0.44244095238E+03  0.00000000000E+00 0. -1.
         -2    1    1    2    0  502 -0.50051582852E+02  0.80005289217E+02 -0.38648172558E+01  0.94450749394E+02  0.00000000000E+00 0.  1.
<mgrwt>
<rscale>  4 0.34145827E+03</rscale>
<asrwt>0</asrwt>
<pdfrwt beam="1">  1       21 0.20334275E+00 0.34145827E+03</pdfrwt>
<pdfrwt beam="2">  1       21 0.21004238E-01 0.34145827E+03</pdfrwt>
<totfact> 0.24036533E+03</totfact>
</mgrwt>
</event>
<event>
 5    0  0.8533808E-002  0.2932161E+03  0.7546771E-02  0.1088682E+00
         21   -1    0    0  503  502  0.00000000000E+00  0.00000000000E+00  0.41770241682E+03  0.41770241682E+03  0.00000000000E+00 0.  1.
         21   -1    0    0  501  503 -0.00000000000E+00 -0.00000000000E+00 -0.27202366258E+03  0.27202366258E+03  0.00000000000E+00 0. -1.
         25    1    1    2    0    0 -0.13817117870E+03  0.22640544983E+03 -0.11023539629E+03  0.31325316428E+03  0.12500000000E+03 0.  0.
          2    1    1    2  501    0  0.35873133469E+02 -0.11165957438E+02  0.40306614742E+02  0.55101574410E+02  0.00000000000E+00 0. -1.
         -2    1    1    2    0  502  0.10229804524E+03 -0.21523949239E+03  0.21560753578E+03  0.32137134071E+03  0.00000000000E+00 0.  1.
<mgrwt>
<rscale>  4 0.29321614E+03</rscale>
<asrwt>0</asrwt>
<pdfrwt beam="1">  1       21 0.64261910E-01 0.29321614E+03</pdfrwt>
<pdfrwt beam="2">  1       21 0.41849794E-01 0.29321614E+03</pdfrwt>
<totfact> 0.11613096E+04</totfact>
</mgrwt>
</event>
<event>
 5    0  0.8533808E-002  0.3266323E+03  0.7546771E-02  0.1072637E+00
         21   -1    0    0  503  502  0.00000000000E+00  0.00000000000E+00  0.86287207327E+02  0.86287207327E+02  0.00000000000E+00 0. -1.
         21   -1    0    0  501  503 -0.00000000000E+00 -0.00000000000E+00 -0.27039236928E+04  0.27039236928E+04  0.00000000000E+00 0. -1.
         25    1    1    2    0    0 -0.20979556631E+02 -0.32320360676E+03 -0.21721950798E+04  0.21997629822E+04  0.12500000000E+03 0.  0.
          3    1    1    2  501    0 -0.54349577731E+02  0.12130353596E+03 -0.30639992046E+03  0.33399002334E+03  0.00000000000E+00 0.  1.
         -3    1    1    2    0  502  0.75329134362E+02  0.20190007080E+03 -0.13904148520E+03  0.25645789456E+03  0.00000000000E+00 0. -1.
<mgrwt>
<rscale>  4 0.32663229E+03</rscale>
<asrwt>0</asrwt>
<pdfrwt beam="1">  1       21 0.13274955E-01 0.32663229E+03</pdfrwt>
<pdfrwt beam="2">  1       21 0.41598826E+00 0.32663229E+03</pdfrwt>
<totfact> 0.28540515E+02</totfact>
</mgrwt>
</event>
<event>
 5    0  0.8533808E-002  0.2580276E+03  0.7546771E-02  0.1108334E+00
         21   -1    0    0  501  502  0.00000000000E+00  0.00000000000E+00  0.26627846277E+04  0.26627846277E+04  0.00000000000E+00 0. -1.
         21   -1    0    0  502  503 -0.00000000000E+00 -0.00000000000E+00 -0.28320598205E+02  0.28320598205E+02  0.00000000000E+00 0. -1.
         25    1    1    2    0    0  0.21359913782E+03 -0.72997487720E+02  0.77953907025E+03  0.82113298980E+03  0.12500000000E+03 0.  0.
          3    1    1    2  501    0 -0.32922781504E+02 -0.10151425778E+02  0.17887268272E+03  0.18216036235E+03  0.00000000000E+00 0.  1.
         -3    1    1    2    0  503 -0.18067635632E+03  0.83148913498E+02  0.16760522766E+04  0.16878118738E+04  0.00000000000E+00 0. -1.
<mgrwt>
<rscale>  4 0.25802757E+03</rscale>
<asrwt>0</asrwt>
<pdfrwt beam="1">  1       21 0.40965898E+00 0.25802757E+03</pdfrwt>
<pdfrwt beam="2">  1       21 0.43570172E-02 0.25802757E+03</pdfrwt>
<totfact> 0.23710274E+03</totfact>
</mgrwt>
</event>
<event>
 5    0  0.8533808E-002  0.2410599E+03  0.7546771E-02  0.1119089E+00
         21   -1    0    0  503  502  0.00000000000E+00  0.00000000000E+00  0.11723913633E+04  0.11723913633E+04  0.00000000000E+00 0.  1.
         21   -1    0    0  501  503 -0.00000000000E+00 -0.00000000000E+00 -0.57952573890E+02  0.57952573890E+02  0.00000000000E+00 0.  1.
         25    1    1    2    0    0  0.16383609032E+03 -0.12507050612E+03  0.31266800711E+03  0.39480524143E+03  0.12500000000E+03 0.  0.
          1    1    1    2  501    0 -0.53742570952E+02  0.11123702637E+03  0.45295378122E+03  0.46949874109E+03  0.00000000000E+00 0.  1.
         -1    1    1    2    0  502 -0.11009351937E+03  0.13833479750E+02  0.34881700112E+03  0.36603995470E+03  0.00000000000E+00 0. -1.
<mgrwt>
<rscale>  4 0.24105994E+03</rscale>
<asrwt>0</asrwt>
<pdfrwt beam="1">  1       21 0.18036788E+00 0.24105994E+03</pdfrwt>
<pdfrwt beam="2">  1       21 0.89157815E-02 0.24105994E+03</pdfrwt>
<totfact> 0.17382477E+04</totfact>
</mgrwt>
</event>
<event>
 5    0  0.8533808E-002  0.3857012E+03  0.7546771E-02  0.1048846E+00
         21   -1    0    0  501  502  0.00000000000E+00  0.00000000000E+00  0.48305980144E+03  0.48305980144E+03  0.00000000000E+00 0.  1.
         21   -1    0    0  502  503 -0.00000000000E+00 -0.00000000000E+00 -0.46768410529E+03  0.46768410529E+03  0.00000000000E+00 0.  1.
         25    1    1    2    0    0  0.27628342170E+02  0.36383660872E+03  0.29790167674E+03  0.48735081014E+03  0.12500000000E+03 0.  0.
          2    1    1    2  501    0 -0.10532243754E+02 -0.22616428998E+02 -0.12417287082E+02  0.27867903358E+02  0.00000000000E+00 0. -1.
         -2    1    1    2    0  503 -0.17096098416E+02 -0.34122017972E+03 -0.27010869351E+03  0.43552519323E+03  0.00000000000E+00 0.  1.
<mgrwt>
<rscale>  4 0.38570118E+03</rscale>
<asrwt>0</asrwt>
<pdfrwt beam="1">  1       21 0.74316892E-01 0.38570118E+03</pdfrwt>
<pdfrwt beam="2">  1       21 0.71951401E-01 0.38570118E+03</pdfrwt>
<totfact> 0.25168475E+03</totfact>
</mgrwt>
</event>
<event>
 5    0  0.8533808E-002  0.3375243E+03  0.7546771E-02  0.1067855E+00
         21   -1    0    0  501  502  0.00000000000E+00  0.00000000000E+00  0.62895427967E+03  0.62895427967E+03  0.00000000000E+00 0.  1.
         21   -1    0    0  502  503 -0.00000000000E+00 -0.00000000000E+00 -0.17557732634E+03  0.17557732634E+03  0.00000000000E+00 0.  1.
         25    1    1    2    0    0 -0.15318869745E+03  0.27355231197E+03  0.17483924049E+03  0.38012024996E+03  0.12500000000E+03 0.  0.
          1    1    1    2  501    0  0.90005358854E+02 -0.97547813054E+02  0.12729086455E+03  0.18390080112E+03  0.00000000000E+00 0. -1.
         -1    1    1    2    0  503  0.63183338600E+02 -0.17600449892E+03  0.15124684829E+03  0.24051055493E+03  0.00000000000E+00 0.  1.
<mgrwt>
<rscale>  4 0.33752429E+03</rscale>
<asrwt>0</asrwt>
<pdfrwt beam="1">  1       21 0.96762196E-01 0.33752429E+03</pdfrwt>
<pdfrwt beam="2">  1       21 0.27011897E-01 0.33752429E+03</pdfrwt>
<totfact> 0.10728919E+04</totfact>
</mgrwt>
</event>
<event>
 5    0  0.8533808E-002  0.2787368E+03  0.7546771E-02  0.1096381E+00
         21   -1    0    0  503  502  0.00000000000E+00  0.00000000000E+00  0.23847474567E+04  0.23847474567E+04  0.00000000000E+00 0. -1.
         21   -1    0    0  501  503 -0.00000000000E+00 -0.00000000000E+00 -0.11039297957E+03  0.11039297957E+03  0.00000000000E+00 0. -1.
         25    1    1    2    0    0 -0.99376208738E+02  0.22985893705E+03  0.88075574807E+02  0.29341620385E+03  0.12500000000E+03 0.  0.
          2    1    1    2  501    0  0.19698977224E+02 -0.69308701596E+01  0.28482258119E+03  0.28558709603E+03  0.00000000000E+00 0.  1.
         -2    1    1    2    0  502  0.79677231513E+02 -0.22292806689E+03  0.19014563211E+04  0.19161371363E+04  0.00000000000E+00 0. -1.
<mgrwt>
<rscale>  4 0.27873677E+03</rscale>
<asrwt>0</asrwt>
<pdfrwt beam="1">  1       21 0.36688419E+00 0.27873677E+03</pdfrwt>
<pdfrwt beam="2">  1       21 0.16983537E-01 0.27873677E+03</pdfrwt>
<totfact> 0.38704441E+02</totfact>
</mgrwt>
</event>
<event>
 5    0  0.8533808E-002  0.2483628E+03  0.7546771E-02  0.1114344E+00
         21   -1    0    0  501  502  0.00000000000E+00  0.00000000000E+00  0.24362789031E+03  0.24362789031E+03  0.00000000000E+00 0.  1.
         21   -1    0    0  502  503 -0.00000000000E+00 -0.00000000000E+00 -0.42442994163E+03  0.42442994163E+03  0.00000000000E+00 0.  1.
         25    1    1    2    0    0 -0.91105336163E+02 -0.19431654488E+03  0.13471846818E+03  0.28254763769E+03  0.12500000000E+03 0.  0.
          3    1    1    2  501    0  0.54104766325E+02  0.13664731933E+03 -0.17037994088E+03  0.22500919953E+03  0.00000000000E+00 0.  1.
         -3    1    1    2    0  503  0.37000569838E+02  0.57669225557E+02 -0.14514057863E+03  0.16050099473E+03  0.00000000000E+00 0. -1.
<mgrwt>
<rscale>  4 0.24836284E+03</rscale>
<asrwt>0</asrwt>
<pdfrwt beam="1">  1       21 0.37481214E-01 0.24836284E+03</pdfrwt>
<pdfrwt beam="2">  1       21 0.65296914E-01 0.24836284E+03</pdfrwt>
<totfact> 0.14338968E+04</totfact>
</mgrwt>
</event>
<event>
 5    0  0.8533808E-002  0.3178482E+03  0.7546771E-02  0.1076644E+00
         21   -1    0    0  501  502  0.00000000000E+00  0.00000000000E+00  0.13661068814E+04  0.13661068814E+04  0.00000000000E+00 0. -1.
         21   -1    0    0  502  503 -0.00000000000E+00 -0.00000000000E+00 -0.34514977301E+03  0.34514977301E+03  0.00000000000E+00 0. -1.
         25    1    1    2    0    0  0.26349188157E+03  0.13144953432E+03 -0.24589822753E+03  0.40348220534E+03  0.12500000000E+03 0.  0.
          4    1    1    2  501    0 -0.23668128642E+03 -0.10234597058E+03  0.12175370471E+04  0.12445437679E+04  0.00000000000E+00 0. -1.
         -4    1    1    2    0  503 -0.26810595153E+02 -0.29103563740E+02  0.49318288754E+02  0.63230681164E+02  0.00000000000E+00 0.  1.
<mgrwt>
<rscale>  4 0.31784816E+03</rscale>
<asrwt>0</asrwt>
<pdfrwt beam="1">  1       21 0.21017029E+00 0.31784816E+03</pdfrwt>
<pdfrwt beam="2">  1       21 0.53099966E-01 0.31784816E+03</pdfrwt>
<totfact> 0.34371164E+02</totfact>
</mgrwt>
</event>
<event>
 5    0  0.8533808E-002  0.3066745E+03  0.7546771E-02  0.1081951E+00
         21   -1    0    0  501  502  0.00000000000E+00  0.00000000000E+00  0.27391240268E+03  0.27391240268E+03  0.00000000000E+00 0. -1.
         21   -1    0    0  502  503 -0.00000000000E+00 -0.00000000000E+00 -0.44611561087E+03  0.44611561087E+03  0.00000000000E+00 0. -1.
         25    1    1    2    0    0  0.16522501483E+03 -0.22610831227E+03  0.93165686262E+02  0.32051383667E+03  0.12500000000E+03 0.  0.
          1    1    1    2  501    0 -0.12455359188E+03  0.15501882931E+03 -0.11887571103E+03  0.23168053299E+03  0.00000000000E+00 0. -1.
         -1    1    1    2    0  503 -0.40671422949E+02  0.71089482955E+02 -0.14649318342E+03  0.16783364389E+03  0.00000000000E+00 0.  1.
<mgrwt>
<rscale>  4 0.30667454E+03</rscale>
<asrwt>0</asrwt>
<pdfrwt beam="1">  1       21 0.42140370E-01 0.30667454E+03</pdfrwt>
<pdfrwt beam="2">  1       21 0.68633171E-01 0.30667454E+03</pdfrwt>
<totfact> 0.98405569E+03</totfact>
</mgrwt>
</event>
<event>
 5    0  0.8533808E-002  0.3650982E+03  0.7546771E-02  0.1056583E+00
         21   -1    0    0  501  502  0.00000000000E+00  0.00000000000E+00  0.79170170876E+03  0.79170170876E+03  0.00000000000E+00 0.  1.
         21   -1    0    0  502  503 -0.00000000000E+00 -0.00000000000E+00 -0.11389167821E+04  0.11389167821E+04  0.00000000000E+00 0.  1.
         25    1    1    2    0    0 -0.32788911265E+03 -0.12212396137E+03 -0.10472960319E+04  0.11112513265E+04  0.12500000000E+03 0.  0.
          1    1    1    2  501    0  0.23289488562E+03 -0.50767935669E+01  0.56419957719E+03  0.61039902071E+03  0.00000000000E+00 0.  1.
         -1    1    1    2    0  503  0.94994227028E+02  0.12720075494E+03  0.13588138144E+03  0.20896814362E+03  0.00000000000E+00 0. -1.
<mgrwt>
<rscale>  4 0.36509822E+03</rscale>
<asrwt>0</asrwt>
<pdfrwt beam="1">  1       21 0.12180026E+00 0.36509822E+03</pdfrwt>
<pdfrwt beam="2">  1       21 0.17521797E+00 0.36509822E+03</pdfrwt>
<totfact> 0.83895413E+01</totfact>
</mgrwt>
</event>
<event>
 5    0  0.8533808E-002  0.4715626E+03  0.7546771E-02  0.1021480E+00
         21   -1    0    0  501  502  0.00000000000E+00  0.00000000000E+00  0.80046476993E+03  0.80046476993E+03  0.00000000000E+00 0. -1.
         21   -1    0    0  502  503 -0.00000000000E+00 -0.00000000000E+00 -0.40138864980E+03  0.40138864980E+03  0.00000000000E+00 0. -1.
         25    1    1    2    0    0 -0.38455656553E+03  0.31187240791E+03  0.58334474011E+01  0.51069284312E+03  0.12500000000E+03 0.  0.
          2    1    1    2  501    0  0.27639602662E+03 -0.34406378138E+03  0.37006908502E+03  0.57595640188E+03  0.00000000000E+00 0. -1.
         -2    1    1    2    0  503  0.10816053892E+03  0.32191373472E+02  0.23173587714E+02  0.11520417472E+03  0.00000000000E+00 0.  1.
<mgrwt>
<rscale>  4 0.47156263E+03</rscale>
<asrwt>0</asrwt>
<pdfrwt beam="1">  1       21 0.12314843E+00 0.47156263E+03</pdfrwt>
<pdfrwt beam="2">  1       21 0.61752100E-01 0.47156263E+03</pdfrwt>
<totfact> 0.10145972E+03</totfact>
</mgrwt>
</event>
<event>
 5    0  0.8533808E-002  0.4583247E+03  0.7546771E-02  0.1025268E+00
         21   -1    0    0  503  502  0.00000000000E+00  0.00000000000E+00  0.31325218713E+03  0.31325218713E+03  0.00000000000E+00 0.  1.
         21   -1    0    0  501  503 -0.00000000000E+00 -0.00000000000E+00 -0.67395243773E+03  0.67395243773E+03  0.00000000000E+00 0.  1.
         25    1    1    2    0    0  0.39458887990E+03  0.19681502445E+03 -0.11968499241E+03  0.47369403141E+03  0.12500000000E+03 0.  0.
          4    1    1    2  501    0 -0.24451105175E+03 -0.67010822949E+02 -0.11450007676E+03  0.27818406209E+03  0.00000000000E+00 0. -1.
         -4    1    1    2    0  502 -0.15007782815E+03 -0.12980420150E+03 -0.12651518143E+03  0.23532653136E+03  0.00000000000E+00 0.  1.
<mgrwt>
<rscale>  4 0.45832471E+03</rscale>
<asrwt>0</asrwt>
<pdfrwt beam="1">  1       21 0.48192645E-01 0.45832471E+03</pdfrwt>
<pdfrwt beam="2">  1       21 0.10368499E+00 0.45832471E+03</pdfrwt>
<totfact> 0.26783799E+03</totfact>
</mgrwt>
</event>
<event>
 5    0  0.8533808E-002  0.2612363E+03  0.7546771E-02  0.1106403E+00
         21   -1    0    0  503  502  0.00000000000E+00  0.00000000000E+00  0.17259232090E+03  0.17259232090E+03  0.00000000000E+00 0. -1.
         21   -1    0    0  501  503 -0.00000000000E+00 -0.00000000000E+00 -0.39026060894E+03  0.39026060894E+03  0.00000000000E+00 0. -1.
         25    1    1    2    0    0 -0.61949781401E+01 -0.22930551602E+03 -0.60804001075E+02  0.26821917153E+03  0.12500000000E+03 0.  0.
          1    1    1    2  501    0  0.12308383193E+02  0.14627651029E+03 -0.41836605777E+02  0.15263883956E+03  0.00000000000E+00 0. -1.
         -1    1    1    2    0  502 -0.61134050531E+01  0.83029005731E+02 -0.11502768118E+03  0.14199491875E+03  0.00000000000E+00 0.  1.
<mgrwt>
<rscale>  4 0.26123629E+03</rscale>
<asrwt>0</asrwt>
<pdfrwt beam="1">  1       21 0.26552665E-01 0.26123629E+03</pdfrwt>
<pdfrwt beam="2">  1       21 0.60040093E-01 0.26123629E+03</pdfrwt>
<totfact> 0.33794422E+04</totfact>
</mgrwt>
</event>
<event>
 5    0  0.8533808E-002  0.2389543E+03  0.7546771E-02  0.1120491E+00
         21   -1    0    0  501  502  0.00000000000E+00  0.00000000000E+00  0.32018129416E+03  0.32018129416E+03  0.00000000000E+00 0.  1.
         21   -1    0    0  502  503 -0.00000000000E+00 -0.00000000000E+00 -0.24589553984E+03  0.24589553984E+03  0.00000000000E+00 0.  1.
         25    1    1    2    0    0 -0.96133851712E+02  0.17953400452E+03  0.20419628157E+03  0.31431719270E+03  0.12500000000E+03 0.  0.
          4    1    1    2  501    0  0.39569049209E+02 -0.62655273906E+02 -0.88589038422E+02  0.11549636675E+03  0.00000000000E+00 0.  1.
         -4    1    1    2    0  503  0.56564802503E+02 -0.11687873061E+03 -0.41321488829E+02  0.13626327455E+03  0.00000000000E+00 0. -1.
<mgrwt>
<rscale>  4 0.23895434E+03</rscale>
<asrwt>0</asrwt>
<pdfrwt beam="1">  1       21 0.49258661E-01 0.23895434E+03</pdfrwt>
<pdfrwt beam="2">  1       21 0.37830083E-01 0.23895434E+03</pdfrwt>
<totfact> 0.25848046E+04</totfact>
</mgrwt>
</event>
<event>
 5    0  0.8533808E-002  0.2730991E+03  0.7546771E-02  0.1099519E+00
         21   -1    0    0  503  502  0.00000000000E+00  0.00000000000E+00  0.11369656650E+03  0.11369656650E+03  0.00000000000E+00 0. -1.
         21   -1    0    0  501  503 -0.00000000000E+00 -0.00000000000E+00 -0.60682252497E+03  0.60682252497E+03  0.00000000000E+00 0. -1.
         25    1    1    2    0    0 -0.40309625423E+02 -0.23944364204E+03 -0.22857116178E+03  0.35612904910E+03  0.12500000000E+03 0.  0.
          1    1    1    2  501    0  0.14723176320E+02  0.12102451661E+03 -0.17694701354E+03  0.21488124893E+03  0.00000000000E+00 0.  1.
         -1    1    1    2    0  502  0.25586449103E+02  0.11841912544E+03 -0.87607783149E+02  0.14950879344E+03  0.00000000000E+00 0. -1.
<mgrwt>
<rscale>  4 0.27309911E+03</rscale>
<asrwt>0</asrwt>
<pdfrwt beam="1">  1       21 0.17491780E-01 0.27309911E+03</pdfrwt>
<pdfrwt beam="2">  1       21 0.93357311E-01 0.27309911E+03</pdfrwt>
<totfact> 0.27431000E+04</totfact>
</mgrwt>
</event>
<event>
 5    0  0.8533808E-002  0.2955791E+03  0.7546771E-02  0.1087472E+00
         21   -1    0    0  501  502  0.00000000000E+00  0.00000000000E+00  0.30495119889E+03  0.30495119889E+03  0.00000000000E+00 0. -1.
         21   -1    0    0  502  503 -0.00000000000E+00 -0.00000000000E+00 -0.77522195983E+03  0.77522195983E+03  0.00000000000E+00 0.  1.
         25    1    1    2    0    0 -0.98807181313E+02 -0.24895607489E+03 -0.67224828931E+03  0.73436009476E+03  0.12500000000E+03 0.  0.
          2    1    1    2  501    0  0.48853219438E+02  0.33594816143E+02  0.35996969800E+02  0.69361592802E+02  0.00000000000E+00 0.  1.
         -2    1    1    2    0  503  0.49953961875E+02  0.21536125875E+03  0.16598055857E+03  0.27645147115E+03  0.00000000000E+00 0. -1.
<mgrwt>
<rscale>  4 0.29557907E+03</rscale>
<asrwt>0</asrwt>
<pdfrwt beam="1">  1       21 0.46915570E-01 0.29557907E+03</pdfrwt>
<pdfrwt beam="2">  1       21 0.11926491E+00 0.29557907E+03</pdfrwt>
<totfact> 0.21599292E+03</totfact>
</mgrwt>
</event>
<event>
 5    0  0.8533808E-002  0.3942235E+03  0.7546771E-02  0.1046988E+00
         21   -1    0    0  501  502  0.00000000000E+00  0.00000000000E+00  0.12587890305E+04  0.12587890305E+04  0.00000000000E+00 0.  1.
         21   -1    0    0  502  503 -0.00000000000E+00 -0.00000000000E+00 -0.25781750940E+03  0.25781750940E+03  0.00000000000E+00 0. -1.
         25    1    1    2    0    0  0.34990730342E+03  0.84164157077E+02 -0.59165290307E+02  0.38554410630E+03  0.12500000000E+03 0.  0.
          4    1    1    2  501    0 -0.58184417462E+02 -0.73041880169E+02  0.37238500784E+03  0.38391553336E+03  0.00000000000E+00 0. -1.
         -4    1    1    2    0  503 -0.29172288596E+03 -0.11122276908E+02  0.68775180358E+03  0.74714690025E+03  0.00000000000E+00 0.  1.
<mgrwt>
<rscale>  4 0.39086940E+03</rscale>
<asrwt>0</asrwt>
<pdfrwt beam="1">  1       21 0.19365985E+00 0.39422350E+03</pdfrwt>
<pdfrwt beam="2">  1       21 0.39664233E-01 0.39422350E+03</pdfrwt>
<totfact> 0.77311416E+02</totfact>
</mgrwt>
</event>
<event>
 5    0  0.8533808E-002  0.2614988E+03  0.7546771E-02  0.1106246E+00
         21   -1    0    0  501  502  0.00000000000E+00  0.00000000000E+00  0.32011020442E+03  0.32011020442E+03  0.00000000000E+00 0.  1.
         21   -1    0    0  502  503 -0.00000000000E+00 -0.00000000000E+00 -0.44641537930E+03  0.44641537930E+03  0.00000000000E+00 0.  1.
         25    1    1    2    0    0  0.22292974438E+03  0.55307594527E+02 -0.35267284062E+03  0.43904411333E+03  0.12500000000E+03 0.  0.
          1    1    1    2  501    0 -0.20543452508E+02  0.11468545158E+02  0.22201892052E+02  0.32349420083E+02  0.00000000000E+00 0. -1.
         -1    1    1    2    0  503 -0.20238629187E+03 -0.66776139684E+02  0.20416577369E+03  0.29513205030E+03  0.00000000000E+00 0.  1.
<mgrwt>
<rscale>  4 0.26149876E+03</rscale>
<asrwt>0</asrwt>
<pdfrwt beam="1">  1       21 0.49247724E-01 0.26149876E+03</pdfrwt>
<pdfrwt beam="2">  1       21 0.68679289E-01 0.26149876E+03</pdfrwt>
<totfact> 0.72695510E+03</totfact>
</mgrwt>
</event>
