<event>
 5    0  0.4115852E+000  0.2439102E+03  0.7546771E-02  0.1117215E+00
         21   -1    0    0  503  502  0.00000000000E+00  0.00000000000E+00  0.90828015732E+02  0.90828015732E+02  0.00000000000E+00 0. -1.
          1   -1    0    0  502    0 -0.00000000000E+00 -0.00000000000E+00 -0.10281975322E+04  0.10281975322E+04  0.00000000000E+00 0. -1.
         25    1    1    2    0    0  0.19602030908E+03  0.10505317579E+03 -0.29046153669E+03  0.38659156174E+03  0.12500000000E+03 0.  0.
         21    1    1    2  503  501 -0.20856732615E+02  0.21931586415E+01  0.23366559800E+02  0.31397601136E+02  0.00000000000E+00 0. -1.
          1    1    1    2  501    0 -0.17516357646E+03 -0.10724633443E+03 -0.67027453963E+03  0.70103638510E+03  0.00000000000E+00 0. -1.
<mgrwt>
<rscale>  4 0.24391021E+03</rscale>
<asrwt>0</asrwt>
<pdfrwt beam="1">  1       21 0.13973540E-01 0.24391021E+03</pdfrwt>
<pdfrwt beam="2">  1        1 0.15818424E+00 0.24391021E+03</pdfrwt>
<totfact> 0.75248210E+03</totfact>
</mgrwt>
</event>
<event>
 5    0  0.4115852E+000  0.3442865E+03  0.7546771E-02  0.1064985E+00
         -3   -1    0    0    0  501 -0.00000000000E+00  0.00000000000E+00  0.25692425376E+04  0.25692425376E+04  0.00000000000E+00 0.  1.
         21   -1    0    0  501  502  0.00000000000E+00 -0.00000000000E+00 -0.38263880752E+03  0.38263880752E+03  0.00000000000E+00 0.  1.
         25    1    1    2    0    0 -0.21559765267E+03 -0.23250220178E+03 -0.87488172241E+02  0.35187895923E+03  0.12500000000E+03 0.  0.
         21    1    1    2  503  502  0.19543190546E+02 -0.21710500807E+02 -0.15097684145E+03  0.15377674986E+03  0.00000000000E+00 0.  1.
         -3    1    1    2    0  503  0.19605446212E+03  0.25421270259E+03  0.24250687438E+04  0.24462256360E+04  0.00000000000E+00 0.  1.
<mgrwt>
<rscale>  4 0.34428650E+03</rscale>
<asrwt>0</asrwt>
<pdfrwt beam="1">  1       21 0.58867510E-01 0.34428650E+03</pdfrwt>
<pdfrwt beam="2">  1       -3 0.39526807E+00 0.34428650E+03</pdfrwt>
<totfact> 0.16689980E+00</totfact>
</mgrwt>
</event>
<event>
 5    0  0.4115852E+000  0.2527958E+03  0.7546771E-02  0.1111551E+00
          2   -1    0    0  502    0 -0.00000000000E+00  0.00000000000E+00  0.93551095848E+03  0.93551095848E+03  0.00000000000E+00 0. -1.
         21   -1    0    0  503  502  0.00000000000E+00 -0.00000000000E+00 -0.15217868518E+03  0.15217868518E+03  0.00000000000E+00 0. -1.
         25    1    1    2    0    0 -0.27412883969E+02 -0.27674428319E+03  0.25122187764E+03  0.39506492668E+03  0.12500000000E+03 0.  0.
         21    1    1    2  503  501  0.20636167621E+02  0.71512123980E+02 -0.40198803001E+02  0.84591837981E+02  0.00000000000E+00 0. -1.
          2    1    1    2  501    0  0.67767163483E+01  0.20523215921E+03  0.57230919867E+03  0.60803287900E+03  0.00000000000E+00 0. -1.
<mgrwt>
<rscale>  4 0.25279576E+03</rscale>
<asrwt>0</asrwt>
<pdfrwt beam="1">  1       21 0.23412106E-01 0.25279576E+03</pdfrwt>
<pdfrwt beam="2">  1        2 0.14392476E+00 0.25279576E+03</pdfrwt>
<totfact> 0.61570092E+03</totfact>
</mgrwt>
</event>
<event>
 5    0  0.4115852E+000  0.2674718E+03  0.7546771E-02  0.1102735E+00
          2   -1    0    0  502    0 -0.00000000000E+00  0.00000000000E+00  0.81383140953E+03  0.81383140953E+03  0.00000000000E+00 0. -1.
         21   -1    0    0  503  502  0.00000000000E+00 -0.00000000000E+00 -0.25552724928E+03  0.25552724928E+03  0.00000000000E+00 0. -1.
         25    1    1    2    0    0 -0.56175499924E+02 -0.21098480424E+03  0.89546765301E+02  0.26704662063E+03  0.12500000000E+03 0.  0.
         21    1    1    2  503  501  0.21687027080E+02 -0.28021309880E+02 -0.14157616804E+03  0.14594290770E+03  0.00000000000E+00 0. -1.
          2    1    1    2  501    0  0.34488472844E+02  0.23900611412E+03  0.61033356298E+03  0.65636913048E+03  0.00000000000E+00 0. -1.
<mgrwt>
<rscale>  4 0.26747185E+03</rscale>
<asrwt>0</asrwt>
<pdfrwt beam="1">  1       21 0.39311885E-01 0.26747185E+03</pdfrwt>
<pdfrwt beam="2">  1        2 0.12520483E+00 0.26747185E+03</pdfrwt>
<totfact> 0.26600636E+03</totfact>
</mgrwt>
</event>
<event>
 5    0  0.4115852E+000  0.3060243E+03  0.7546771E-02  0.1082267E+00
          2   -1    0    0  502    0 -0.00000000000E+00  0.00000000000E+00  0.61248020053E+03  0.61248020053E+03  0.00000000000E+00 0. -1.
         21   -1    0    0  503  502  0.00000000000E+00 -0.00000000000E+00 -0.14355946299E+03  0.14355946299E+03  0.00000000000E+00 0. -1.
         25    1    1    2    0    0  0.22691833857E+03 -0.16289248074E+03  0.23350536136E+03  0.38493589914E+03  0.12500000000E+03 0.  0.
         21    1    1    2  503  501 -0.21991416986E+02  0.21891000969E+01  0.34830530743E+01  0.22372890716E+02  0.00000000000E+00 0. -1.
          2    1    1    2  501    0 -0.20492692158E+03  0.16070338064E+03  0.23193232311E+03  0.34873087366E+03  0.00000000000E+00 0. -1.
<mgrwt>
<rscale>  4 0.30602433E+03</rscale>
<asrwt>0</asrwt>
<pdfrwt beam="1">  1       21 0.22086072E-01 0.30602433E+03</pdfrwt>
<pdfrwt beam="2">  1        2 0.94227722E-01 0.30602433E+03</pdfrwt>
<totfact> 0.11596699E+04</totfact>
</mgrwt>
</event>
<event>
 5    0  0.4115852E+000  0.2361298E+03  0.7546771E-02  0.1122398E+00
          1   -1    0    0  502    0 -0.00000000000E+00  0.00000000000E+00  0.54073013463E+03  0.54073013463E+03  0.00000000000E+00 0.  1.
         21   -1    0    0  503  502  0.00000000000E+00 -0.00000000000E+00 -0.13696360641E+03  0.13696360641E+03  0.00000000000E+00 0.  1.
         25    1    1    2    0    0 -0.84551221051E+02 -0.20426209181E+03  0.89025880849E+02  0.26911432253E+03  0.12500000000E+03 0.  0.
         21    1    1    2  503  501 -0.18770334630E+02  0.39400903719E+02  0.65781962097E+01  0.44136485377E+02  0.00000000000E+00 0.  1.
          1    1    1    2  501    0  0.10332155568E+03  0.16486118809E+03  0.30816245115E+03  0.36444293313E+03  0.00000000000E+00 0.  1.
<mgrwt>
<rscale>  4 0.23612982E+03</rscale>
<asrwt>0</asrwt>
<pdfrwt beam="1">  1       21 0.21071324E-01 0.23612982E+03</pdfrwt>
<pdfrwt beam="2">  1        1 0.83189250E-01 0.23612982E+03</pdfrwt>
<totfact> 0.93173089E+03</totfact>
</mgrwt>
</event>
<event>
 5    0  0.4115852E+000  0.3217836E+03  0.7546771E-02  0.1074831E+00
         -1   -1    0    0    0  501 -0.00000000000E+00  0.00000000000E+00  0.48328840754E+03  0.48328840754E+03  0.00000000000E+00 0. -1.
         21   -1    0    0  501  502  0.00000000000E+00 -0.00000000000E+00 -0.27287753840E+03  0.27287753840E+03  0.00000000000E+00 0.  1.
         25    1    1    2    0    0  0.27704841674E+03  0.13316546838E+03  0.71050151769E+02  0.33935525818E+03  0.12500000000E+03 0.  0.
         21    1    1    2  503  502 -0.76516626640E+01 -0.24393187326E+02 -0.59488757651E+02  0.64749423289E+02  0.00000000000E+00 0.  1.
         -1    1    1    2    0  503 -0.26939675408E+03 -0.10877228105E+03  0.19884947502E+03  0.35206126448E+03  0.00000000000E+00 0. -1.
<mgrwt>
<rscale>  4 0.32178361E+03</rscale>
<asrwt>0</asrwt>
<pdfrwt beam="1">  1       21 0.41981160E-01 0.32178361E+03</pdfrwt>
<pdfrwt beam="2">  1       -1 0.74352063E-01 0.32178361E+03</pdfrwt>
<totfact> 0.92610040E+02</totfact>
</mgrwt>
</event>
<event>
 5    0  0.4115852E+000  0.2454129E+03  0.7546771E-02  0.1116239E+00
          2   -1    0    0  502    0 -0.00000000000E+00  0.00000000000E+00  0.15241015870E+04  0.15241015870E+04  0.00000000000E+00 0.  1.
         21   -1    0    0  503  502  0.00000000000E+00 -0.00000000000E+00 -0.15707947886E+03  0.15707947886E+03  0.00000000000E+00 0.  1.
         25    1    1    2    0    0  0.44918168264E+01  0.20518517272E+03 -0.41471150819E+02  0.24385649032E+03  0.12500000000E+03 0.  0.
         21    1    1    2  503  501 -0.25346643879E+02  0.53918447951E+01  0.19828098316E+02  0.32629401298E+02  0.00000000000E+00 0.  1.
          2    1    1    2  501    0  0.20854827053E+02 -0.21057701752E+03  0.13886651607E+04  0.14046951742E+04  0.00000000000E+00 0.  1.
<mgrwt>
<rscale>  4 0.24541287E+03</rscale>
<asrwt>0</asrwt>
<pdfrwt beam="1">  1       21 0.24166075E-01 0.24541287E+03</pdfrwt>
<pdfrwt beam="2">  1        2 0.23447716E+00 0.24541287E+03</pdfrwt>
<totfact> 0.26844865E+03</totfact>
</mgrwt>
</event>
<event>
 5    0  0.4115852E+000  0.2562508E+03  0.7546771E-02  0.1109417E+00
          2   -1    0    0  502    0 -0.00000000000E+00  0.00000000000E+00  0.21137511028E+03  0.21137511028E+03  0.00000000000E+00 0.  1.
         21   -1    0    0  503  502  0.00000000000E+00 -0.00000000000E+00 -0.52320531477E+03  0.52320531477E+03  0.00000000000E+00 0.  1.
         25    1    1    2    0    0 -0.83693586318E+02  0.20997636251E+03  0.71431102284E+02  0.26799643949E+03  0.12500000000E+03 0.  0.
         21    1    1    2  503  501  0.10856318248E+03 -0.19542163259E+03 -0.37505015253E+03  0.43662134166E+03  0.00000000000E+00 0.  1.
          2    1    1    2  501    0 -0.24869596158E+02 -0.14554729917E+02 -0.82111542478E+01  0.29962643910E+02  0.00000000000E+00 0.  1.
<mgrwt>
<rscale>  4 0.25625084E+03</rscale>
<asrwt>0</asrwt>
<pdfrwt beam="1">  1       21 0.80493126E-01 0.25625084E+03</pdfrwt>
<pdfrwt beam="2">  1        2 0.32519247E-01 0.25625084E+03</pdfrwt>
<totfact> 0.26235237E+03</totfact>
</mgrwt>
</event>
<event>
 5    0  0.4115852E+000  0.4258775E+03  0.7546771E-02  0.1035170E+00
          2   -1    0    0  502    0 -0.00000000000E+00  0.00000000000E+00  0.15290825914E+04  0.15290825914E+04  0.00000000000E+00 0. -1.
         21   -1    0    0  503  502  0.00000000000E+00 -0.00000000000E+00 -0.14259944081E+03  0.14259944081E+03  0.00000000000E+00 0. -1.
         25    1    1    2    0    0 -0.32741862192E+03  0.25512292625E+03  0.60911455933E+03  0.74762036347E+03  0.12500000000E+03 0.  0.
         21    1    1    2  503  501 -0.25500065251E+02 -0.59689703013E+02  0.23486179791E+02  0.69026912250E+02  0.00000000000E+00 0. -1.
          2    1    1    2  501    0  0.35291868717E+03 -0.19543322324E+03  0.75388241146E+03  0.85503475650E+03  0.00000000000E+00 0. -1.
<mgrwt>
<rscale>  4 0.42587753E+03</rscale>
<asrwt>0</asrwt>
<pdfrwt beam="1">  1       21 0.21938377E-01 0.42587753E+03</pdfrwt>
<pdfrwt beam="2">  1        2 0.23524346E+00 0.42587753E+03</pdfrwt>
<totfact> 0.30338166E+03</totfact>
</mgrwt>
</event>
<event>
 5    0  0.4115852E+000  0.2509203E+03  0.7546771E-02  0.1112725E+00
         21   -1    0    0  501  502  0.00000000000E+00  0.00000000000E+00  0.16153200771E+04  0.16153200771E+04  0.00000000000E+00 0. -1.
         -2   -1    0    0    0  501 -0.00000000000E+00 -0.00000000000E+00 -0.15264207896E+03  0.15264207896E+03  0.00000000000E+00 0. -1.
         25    1    1    2    0    0  0.19591956529E+03 -0.15185229542E+03  0.22401525946E+03  0.35672318702E+03  0.12500000000E+03 0.  0.
         21    1    1    2  503  502 -0.51670022077E+02  0.57095983170E+01  0.12014226035E+04  0.12025467404E+04  0.00000000000E+00 0. -1.
         -2    1    1    2    0  503 -0.14424954321E+03  0.14614269710E+03  0.37240135220E+02  0.20869222867E+03  0.00000000000E+00 0. -1.
<mgrwt>
<rscale>  4 0.25092028E+03</rscale>
<asrwt>0</asrwt>
<pdfrwt beam="1">  1       21 0.24851077E+00 0.25092028E+03</pdfrwt>
<pdfrwt beam="2">  1       -2 0.23483398E-01 0.25092028E+03</pdfrwt>
<totfact> 0.81877820E+01</totfact>
</mgrwt>
</event>
<event>
 5    0  0.4115852E+000  0.2382376E+03  0.7546771E-02  0.1120972E+00
          1   -1    0    0  502    0 -0.00000000000E+00  0.00000000000E+00  0.10953818538E+04  0.10953818538E+04  0.00000000000E+00 0. -1.
         21   -1    0    0  503  502  0.00000000000E+00 -0.00000000000E+00 -0.11082670782E+03  0.11082670782E+03  0.00000000000E+00 0. -1.
         25    1    1    2    0    0 -0.22447457792E+03  0.50992067328E+01  0.10160634933E+03  0.27633980580E+03  0.12500000000E+03 0.  0.
         21    1    1    2  503  501  0.24565460227E+02 -0.13024813583E+02  0.35869564051E+01  0.28035225365E+02  0.00000000000E+00 0. -1.
          1    1    1    2  501    0  0.19990911770E+03  0.79256068504E+01  0.87936184028E+03  0.90183353049E+03  0.00000000000E+00 0. -1.
<mgrwt>
<rscale>  4 0.23823765E+03</rscale>
<asrwt>0</asrwt>
<pdfrwt beam="1">  1       21 0.17050263E-01 0.23823765E+03</pdfrwt>
<pdfrwt beam="2">  1        1 0.16852028E+00 0.23823765E+03</pdfrwt>
<totfact> 0.46737009E+03</totfact>
</mgrwt>
</event>
<event>
 5    0  0.4115852E+000  0.2443557E+03  0.7546771E-02  0.1116925E+00
         21   -1    0    0  501  502  0.00000000000E+00  0.00000000000E+00  0.19710055898E+03  0.19710055898E+03  0.00000000000E+00 0. -1.
         -3   -1    0    0    0  501 -0.00000000000E+00 -0.00000000000E+00 -0.66469573222E+03  0.66469573222E+03  0.00000000000E+00 0.  1.
         25    1    1    2    0    0 -0.17612798565E+03 -0.14075091273E+03 -0.90960249023E+02  0.27336907957E+03  0.12500000000E+03 0.  0.
         21    1    1    2  503  502  0.68127901936E+01  0.22889113758E+02  0.82066098257E+02  0.85470287949E+02  0.00000000000E+00 0.  1.
         -3    1    1    2    0  503  0.16931519545E+03  0.11786179897E+03 -0.45870102248E+03  0.50295692369E+03  0.00000000000E+00 0.  1.
<mgrwt>
<rscale>  4 0.24435565E+03</rscale>
<asrwt>0</asrwt>
<pdfrwt beam="1">  1       21 0.30323163E-01 0.24435565E+03</pdfrwt>
<pdfrwt beam="2">  1       -3 0.10226088E+00 0.24435565E+03</pdfrwt>
<totfact> 0.43946579E+02</totfact>
</mgrwt>
</event>
<event>
 5    0  0.4115852E+000  0.3094306E+03  0.7546771E-02  0.1080619E+00
         -3   -1    0    0    0  501 -0.00000000000E+00  0.00000000000E+00  0.12870556257E+04  0.12870556257E+04  0.00000000000E+00 0. -1.
         21   -1    0    0  501  502  0.00000000000E+00 -0.00000000000E+00 -0.52184045670E+03  0.52184045670E+03  0.00000000000E+00 0. -1.
         25    1    1    2    0    0 -0.71410626259E+02  0.26285106196E+03 -0.44322586813E+03  0.53503675434E+03  0.12500000000E+03 0.  0.
         21    1    1    2  503  502  0.34098659869E+02  0.18180709543E+02  0.68093674597E+01  0.39238046454E+02  0.00000000000E+00 0. -1.
         -3    1    1    2    0  503  0.37311966391E+02 -0.28103177150E+03  0.12016316697E+04  0.12346212816E+04  0.00000000000E+00 0. -1.
<mgrwt>
<rscale>  4 0.30943057E+03</rscale>
<asrwt>0</asrwt>
<pdfrwt beam="1">  1       21 0.80283147E-01 0.30943057E+03</pdfrwt>
<pdfrwt beam="2">  1       -3 0.19800856E+00 0.30943057E+03</pdfrwt>
<totfact> 0.10445996E+01</totfact>
</mgrwt>
</event>
<event>
 5    0  0.4115852E+000  0.2838278E+03  0.7546771E-02  0.1093616E+00
          1   -1    0    0  502    0 -0.00000000000E+00  0.00000000000E+00  0.65793947052E+03  0.65793947052E+03  0.00000000000E+00 0.  1.
         21   -1    0    0  503  502  0.00000000000E+00 -0.00000000000E+00 -0.26267041431E+03  0.26267041431E+03  0.00000000000E+00 0.  1.
         25    1    1    2    0    0 -0.27759279891E+03  0.30668177050E+02 -0.10327209214E+03  0.32293718291E+03  0.12500000000E+03 0.  0.
         21    1    1    2  503  501  0.20201741210E+03 -0.25380889144E+02  0.18497283287E+03  0.27508212088E+03  0.00000000000E+00 0.  1.
          1    1    1    2  501    0  0.75575386811E+02 -0.52872879062E+01  0.31356831547E+03  0.32259058104E+03  0.00000000000E+00 0.  1.
<mgrwt>
<rscale>  4 0.28382785E+03</rscale>
<asrwt>0</asrwt>
<pdfrwt beam="1">  1       21 0.40410833E-01 0.28382785E+03</pdfrwt>
<pdfrwt beam="2">  1        1 0.10122146E+00 0.28382785E+03</pdfrwt>
<totfact> 0.19551483E+03</totfact>
</mgrwt>
</event>
<event>
 5    0  0.4115852E+000  0.2088080E+03  0.7546771E-02  0.1142513E+00
          1   -1    0    0  502    0 -0.00000000000E+00  0.00000000000E+00  0.18213553538E+04  0.18213553538E+04  0.00000000000E+00 0. -1.
         21   -1    0    0  503  502  0.00000000000E+00 -0.00000000000E+00 -0.42945658352E+03  0.42945658352E+03  0.00000000000E+00 0. -1.
         25    1    1    2    0    0 -0.24818039906E+03  0.16094404580E+03 -0.22970425966E+03  0.39482343302E+03  0.12500000000E+03 0.  0.
         21    1    1    2  503  501  0.90912330974E+02 -0.10871861366E+03 -0.68761120061E+02  0.15752104783E+03  0.00000000000E+00 0. -1.
          1    1    1    2  501    0  0.15726806809E+03 -0.52225432141E+02  0.16903641500E+04  0.16984674565E+04  0.00000000000E+00 0. -1.
<mgrwt>
<rscale>  4 0.20880796E+03</rscale>
<asrwt>0</asrwt>
<pdfrwt beam="1">  1       21 0.66070245E-01 0.20880796E+03</pdfrwt>
<pdfrwt beam="2">  1        1 0.28020851E+00 0.20880796E+03</pdfrwt>
<totfact> 0.10427997E+02</totfact>
</mgrwt>
</event>
<event>
 5    0  0.4115852E+000  0.2985868E+03  0.7546771E-02  0.1085949E+00
          1   -1    0    0  502    0 -0.00000000000E+00  0.00000000000E+00  0.75649254325E+03  0.75649254325E+03  0.00000000000E+00 0.  1.
         21   -1    0    0  503  502  0.00000000000E+00 -0.00000000000E+00 -0.25054946669E+03  0.25054946669E+03  0.00000000000E+00 0. -1.
         25    1    1    2    0    0  0.40750556218E+02  0.24706150661E+03 -0.45570348017E+02  0.28355185152E+03  0.12500000000E+03 0.  0.
         21    1    1    2  503  501 -0.93636667745E+02  0.25757367933E+02 -0.93411231848E+01  0.97562923959E+02  0.00000000000E+00 0. -1.
          1    1    1    2  501    0  0.52886111526E+02 -0.27281887454E+03  0.56085454776E+03  0.62592723446E+03  0.00000000000E+00 0.  1.
<mgrwt>
<rscale>  4 0.29858684E+03</rscale>
<asrwt>0</asrwt>
<pdfrwt beam="1">  1       21 0.38546072E-01 0.29858684E+03</pdfrwt>
<pdfrwt beam="2">  1        1 0.11638347E+00 0.29858684E+03</pdfrwt>
<totfact> 0.17442394E+03</totfact>
</mgrwt>
</event>
<event>
 5    0  0.4115852E+000  0.3935515E+03  0.7546771E-02  0.1046036E+00
          2   -1    0    0  502    0 -0.00000000000E+00  0.00000000000E+00  0.34794399895E+04  0.34794399895E+04  0.00000000000E+00 0. -1.
         21   -1    0    0  503  502  0.00000000000E+00 -0.00000000000E+00 -0.29157250816E+03  0.29157250816E+03  0.00000000000E+00 0. -1.
         25    1    1    2    0    0 -0.34709161556E+03  0.29048120968E+03  0.79075714451E+03  0.91965960244E+03  0.12500000000E+03 0.  0.
         21    1    1    2  503  501  0.71163762929E+02 -0.62289659438E+02 -0.20445166722E+03  0.22526599179E+03  0.00000000000E+00 0. -1.
          2    1    1    2  501    0  0.27592785263E+03 -0.22819155024E+03  0.26015620040E+04  0.26260869034E+04  0.00000000000E+00 0. -1.
<mgrwt>
<rscale>  4 0.39355146E+03</rscale>
<asrwt>0</asrwt>
<pdfrwt beam="1">  1       21 0.44857312E-01 0.39355146E+03</pdfrwt>
<pdfrwt beam="2">  1        2 0.53529843E+00 0.39355146E+03</pdfrwt>
<totfact> 0.56515755E+01</totfact>
</mgrwt>
</event>
<event>
 5    0  0.4115852E+000  0.2421236E+03  0.7546771E-02  0.1118386E+00
          2   -1    0    0  502    0 -0.00000000000E+00  0.00000000000E+00  0.10591360556E+04  0.10591360556E+04  0.00000000000E+00 0. -1.
         21   -1    0    0  503  502  0.00000000000E+00 -0.00000000000E+00 -0.49463309209E+02  0.49463309209E+02  0.00000000000E+00 0. -1.
         25    1    1    2    0    0 -0.18670890849E+02 -0.20651936668E+03  0.52792872168E+03  0.58080339716E+03  0.12500000000E+03 0.  0.
         21    1    1    2  503  501 -0.14188230553E+02  0.12925696785E+03  0.26035792826E+03  0.29102391729E+03  0.00000000000E+00 0. -1.
          2    1    1    2  501    0  0.32859121401E+02  0.77262398823E+02  0.22138609647E+03  0.23677205038E+03  0.00000000000E+00 0. -1.
<mgrwt>
<rscale>  4 0.24212363E+03</rscale>
<asrwt>0</asrwt>
<pdfrwt beam="1">  1       21 0.76097407E-02 0.24212363E+03</pdfrwt>
<pdfrwt beam="2">  1        2 0.16294399E+00 0.24212363E+03</pdfrwt>
<totfact> 0.39990610E+04</totfact>
</mgrwt>
</event>
<event>
 5    0  0.4115852E+000  0.2109718E+03  0.7546771E-02  0.1140799E+00
         21   -1    0    0  503  502  0.00000000000E+00  0.00000000000E+00  0.26890148437E+03  0.26890148437E+03  0.00000000000E+00 0. -1.
          2   -1    0    0  502    0 -0.00000000000E+00 -0.00000000000E+00 -0.20152890690E+04  0.20152890690E+04  0.00000000000E+00 0.  1.
         25    1    1    2    0    0 -0.88912247623E+02  0.21809115492E+03 -0.41753877446E+03  0.49541171546E+03  0.12500000000E+03 0.  0.
         21    1    1    2  503  501  0.53979902118E+02 -0.15663301368E+03  0.19920240700E+03  0.25909328390E+03  0.00000000000E+00 0. -1.
          2    1    1    2  501    0  0.34932345505E+02 -0.61458141240E+02 -0.15280512172E+04  0.15296855541E+04  0.00000000000E+00 0.  1.
<mgrwt>
<rscale>  4 0.21097179E+03</rscale>
<asrwt>0</asrwt>
<pdfrwt beam="1">  1       21 0.41369458E-01 0.21097179E+03</pdfrwt>
<pdfrwt beam="2">  1        2 0.31004448E+00 0.21097179E+03</pdfrwt>
<totfact> 0.52490839E+02</totfact>
</mgrwt>
</event>
<event>
 5    0  0.4115852E+000  0.3704094E+03  0.7546771E-02  0.1054537E+00
          1   -1    0    0  502    0 -0.00000000000E+00  0.00000000000E+00  0.67445234405E+03  0.67445234405E+03  0.00000000000E+00 0. -1.
         21   -1    0    0  503  502  0.00000000000E+00 -0.00000000000E+00 -0.30967033561E+03  0.30967033561E+03  0.00000000000E+00 0.  1.
         25    1    1    2    0    0 -0.25922929825E+03  0.20478675143E+03  0.11627659347E+03  0.37186380413E+03  0.12500000000E+03 0.  0.
         21    1    1    2  503  501 -0.31246892822E+02  0.71979868753E+01 -0.10391940950E+03  0.10875395624E+03  0.00000000000E+00 0.  1.
          1    1    1    2  501    0  0.29047619107E+03 -0.21198473831E+03  0.35242482447E+03  0.50350491930E+03  0.00000000000E+00 0. -1.
<mgrwt>
<rscale>  4 0.37040943E+03</rscale>
<asrwt>0</asrwt>
<pdfrwt beam="1">  1       21 0.47641590E-01 0.37040943E+03</pdfrwt>
<pdfrwt beam="2">  1        1 0.10376190E+00 0.37040943E+03</pdfrwt>
<totfact> 0.13077219E+03</totfact>
</mgrwt>
</event>
<event>
 5    0  0.4115852E+000  0.2425758E+03  0.7546771E-02  0.1118089E+00
          2   -1    0    0  502    0 -0.00000000000E+00  0.00000000000E+00  0.14379964868E+03  0.14379964868E+03  0.00000000000E+00 0.  1.
         21   -1    0    0  503  502  0.00000000000E+00 -0.00000000000E+00 -0.14746271550E+04  0.14746271550E+04  0.00000000000E+00 0. -1.
         25    1    1    2    0    0 -0.20322795806E+03  0.12919722533E+02 -0.42220139577E+03  0.48512631423E+03  0.12500000000E+03 0.  0.
         21    1    1    2  503  501 -0.28159243895E+01  0.22109231252E+02 -0.92350254395E+03  0.92377145238E+03  0.00000000000E+00 0. -1.
          2    1    1    2  501    0  0.20604388245E+03 -0.35028953785E+02  0.14876433428E+02  0.20952903705E+03  0.00000000000E+00 0.  1.
<mgrwt>
<rscale>  4 0.24257583E+03</rscale>
<asrwt>0</asrwt>
<pdfrwt beam="1">  1       21 0.22686572E+00 0.24257583E+03</pdfrwt>
<pdfrwt beam="2">  1        2 0.22123023E-01 0.24257583E+03</pdfrwt>
<totfact> 0.26616128E+02</totfact>
</mgrwt>
</event>
<event>
 5    0  0.4115852E+000  0.3720839E+03  0.7546771E-02  0.1053899E+00
         21   -1    0    0  503  502  0.00000000000E+00  0.00000000000E+00  0.90596067691E+03  0.90596067691E+03  0.00000000000E+00 0.  1.
          1   -1    0    0  502    0 -0.00000000000E+00 -0.00000000000E+00 -0.22122021674E+03  0.22122021674E+03  0.00000000000E+00 0.  1.
         25    1    1    2    0    0  0.47947891098E+02 -0.27802047783E+03  0.13897048527E+03  0.33842603642E+03  0.12500000000E+03 0.  0.
         21    1    1    2  503  501 -0.15280753412E+03  0.37237949300E+03  0.49688143895E+03  0.63945898513E+03  0.00000000000E+00 0.  1.
          1    1    1    2  501    0  0.10485964303E+03 -0.94359015169E+02  0.48888535952E+02  0.14929587210E+03  0.00000000000E+00 0.  1.
<mgrwt>
<rscale>  4 0.37208392E+03</rscale>
<asrwt>0</asrwt>
<pdfrwt beam="1">  1       21 0.13937856E+00 0.37208392E+03</pdfrwt>
<pdfrwt beam="2">  1        1 0.34033880E-01 0.37208392E+03</pdfrwt>
<totfact> 0.46764865E+02</totfact>
</mgrwt>
</event>
<event>
 5    0  0.4115852E+000  0.2689064E+03  0.7546771E-02  0.1101907E+00
         21   -1    0    0  503  502  0.00000000000E+00  0.00000000000E+00  0.30966582882E+02  0.30966582882E+02  0.00000000000E+00 0.  1.
          2   -1    0    0  502    0 -0.00000000000E+00 -0.00000000000E+00 -0.27085902292E+04  0.27085902292E+04  0.00000000000E+00 0. -1.
         25    1    1    2    0    0  0.11526789782E+03  0.18787674131E+03 -0.10419545400E+04  0.10723239350E+04  0.12500000000E+03 0.  0.
         21    1    1    2  503  501  0.48937714567E+02  0.22296529370E+01 -0.10231846171E+03  0.11344134549E+03  0.00000000000E+00 0.  1.
          2    1    1    2  501    0 -0.16420561239E+03 -0.19010639424E+03 -0.15333506446E+04  0.15537915316E+04  0.00000000000E+00 0. -1.
<mgrwt>
<rscale>  4 0.26890643E+03</rscale>
<asrwt>0</asrwt>
<pdfrwt beam="1">  1       21 0.47640897E-02 0.26890643E+03</pdfrwt>
<pdfrwt beam="2">  1        2 0.41670619E+00 0.26890643E+03</pdfrwt>
<totfact> 0.11391310E+04</totfact>
</mgrwt>
</event>
<event>
 5    0  0.4115852E+000  0.2769098E+03  0.7546771E-02  0.1097389E+00
          1   -1    0    0  502    0 -0.00000000000E+00  0.00000000000E+00  0.84984947416E+03  0.84984947416E+03  0.00000000000E+00 0. -1.
         21   -1    0    0  503  502  0.00000000000E+00 -0.00000000000E+00 -0.21327134854E+03  0.21327134854E+03  0.00000000000E+00 0. -1.
         25    1    1    2    0    0 -0.47562803148E+02  0.21444064901E+03 -0.12343687784E+02  0.25303039109E+03  0.12500000000E+03 0.  0.
         21    1    1    2  503  501 -0.58380235689E+02  0.14700903817E+02 -0.42718311787E+02  0.73818850262E+02  0.00000000000E+00 0. -1.
          1    1    1    2  501    0  0.10594303884E+03 -0.22914155282E+03  0.69164012519E+03  0.73627158134E+03  0.00000000000E+00 0. -1.
<mgrwt>
<rscale>  4 0.27690982E+03</rscale>
<asrwt>0</asrwt>
<pdfrwt beam="1">  1       21 0.32810977E-01 0.27690982E+03</pdfrwt>
<pdfrwt beam="2">  1        1 0.13074607E+00 0.27690982E+03</pdfrwt>
<totfact> 0.20267901E+03</totfact>
</mgrwt>
</event>
<event>
 5    0  0.4115852E+000  0.3008940E+03  0.7546771E-02  0.1084795E+00
         21   -1    0    0  503  502  0.00000000000E+00  0.00000000000E+00  0.37869422204E+03  0.37869422204E+03  0.00000000000E+00 0.  1.
          4   -1    0    0  502    0 -0.00000000000E+00 -0.00000000000E+00 -0.46716488305E+03  0.46716488305E+03  0.00000000000E+00 0.  1.
         25    1    1    2    0    0  0.23718911445E+03  0.16417182089E+03  0.18385372656E+03  0.36419535356E+03  0.12500000000E+03 0.  0.
         21    1    1    2  503  501 -0.17064350896E+03 -0.18491986812E+03 -0.60681300012E+02  0.25883737162E+03  0.00000000000E+00 0.  1.
          4    1    1    2  501    0 -0.66545605492E+02  0.20748047232E+02 -0.21164308756E+03  0.22282637991E+03  0.00000000000E+00 0.  1.
<mgrwt>
<rscale>  4 0.30089399E+03</rscale>
<asrwt>0</asrwt>
<pdfrwt beam="1">  1       21 0.58260649E-01 0.30089399E+03</pdfrwt>
<pdfrwt beam="2">  1        4 0.71871521E-01 0.30089399E+03</pdfrwt>
<totfact> 0.20541177E+02</totfact>
</mgrwt>
</event>
<event>
 5    0  0.4115852E+000  0.1873367E+03  0.7546771E-02  0.1160886E+00
          1   -1    0    0  502    0 -0.00000000000E+00  0.00000000000E+00  0.14607319217E+04  0.14607319217E+04  0.00000000000E+00 0. -1.
         21   -1    0    0  503  502  0.00000000000E+00 -0.00000000000E+00 -0.18289691457E+03  0.18289691457E+03  0.00000000000E+00 0. -1.
         25    1    1    2    0    0  0.37846366450E+02 -0.22957715736E+03  0.51295602085E+03  0.57696351528E+03  0.12500000000E+03 0.  0.
         21    1    1    2  503  501 -0.25753396571E+02  0.10356915627E+03 -0.12697708245E+03  0.16587039228E+03  0.00000000000E+00 0. -1.
          1    1    1    2  501    0 -0.12092969879E+02  0.12600800109E+03  0.89185606876E+03  0.90079492874E+03  0.00000000000E+00 0. -1.
<mgrwt>
<rscale>  4 0.18733672E+03</rscale>
<asrwt>0</asrwt>
<pdfrwt beam="1">  1       21 0.28137988E-01 0.18733672E+03</pdfrwt>
<pdfrwt beam="2">  1        1 0.22472798E+00 0.18733672E+03</pdfrwt>
<totfact> 0.10445919E+03</totfact>
</mgrwt>
</event>
<event>
 5    0  0.4115852E+000  0.3480556E+03  0.7546771E-02  0.1063416E+00
          2   -1    0    0  502    0 -0.00000000000E+00  0.00000000000E+00  0.10378427287E+04  0.10378427287E+04  0.00000000000E+00 0.  1.
         21   -1    0    0  503  502  0.00000000000E+00 -0.00000000000E+00 -0.21441251881E+03  0.21441251881E+03  0.00000000000E+00 0.  1.
         25    1    1    2    0    0  0.16728713782E+03 -0.11172598341E+03 -0.10907044938E+02  0.23708995229E+03  0.12500000000E+03 0.  0.
         21    1    1    2  503  501  0.13157904642E+03 -0.10422814081E+03  0.10520430234E+03  0.19810223629E+03  0.00000000000E+00 0.  1.
          2    1    1    2  501    0 -0.29886618424E+03  0.21595412422E+03  0.72913295253E+03  0.81706305896E+03  0.00000000000E+00 0.  1.
<mgrwt>
<rscale>  4 0.34805555E+03</rscale>
<asrwt>0</asrwt>
<pdfrwt beam="1">  1       21 0.32986542E-01 0.34805555E+03</pdfrwt>
<pdfrwt beam="2">  1        2 0.15966811E+00 0.34805555E+03</pdfrwt>
<totfact> 0.26517796E+03</totfact>
</mgrwt>
</event>
<event>
 5    0  0.4115852E+000  0.2088457E+03  0.7546771E-02  0.1142483E+00
         21   -1    0    0  503  502  0.00000000000E+00  0.00000000000E+00  0.83034380992E+03  0.83034380992E+03  0.00000000000E+00 0. -1.
          1   -1    0    0  502    0 -0.00000000000E+00 -0.00000000000E+00 -0.75051621147E+03  0.75051621147E+03  0.00000000000E+00 0.  1.
         25    1    1    2    0    0  0.16085287438E+03 -0.14197301628E+03  0.59963918562E+03  0.64901628445E+03  0.12500000000E+03 0.  0.
         21    1    1    2  503  501 -0.13812250273E+02  0.63510931326E+02  0.19099928290E+03  0.20175515538E+03  0.00000000000E+00 0.  1.
          1    1    1    2  501    0 -0.14704062410E+03  0.78462084950E+02 -0.71081087007E+03  0.73008858156E+03  0.00000000000E+00 0.  1.
<mgrwt>
<rscale>  4 0.20884566E+03</rscale>
<asrwt>0</asrwt>
<pdfrwt beam="1">  1       21 0.12774520E+00 0.20884566E+03</pdfrwt>
<pdfrwt beam="2">  1        1 0.11546403E+00 0.20884566E+03</pdfrwt>
<totfact> 0.12635088E+02</totfact>
</mgrwt>
</event>
<event>
 5    0  0.4115852E+000  0.3941224E+03  0.7546771E-02  0.1045834E+00
         21   -1    0    0  501  502  0.00000000000E+00  0.00000000000E+00  0.17473916506E+04  0.17473916506E+04  0.00000000000E+00 0. -1.
         -1   -1    0    0    0  501 -0.00000000000E+00 -0.00000000000E+00 -0.27043220576E+03  0.27043220576E+03  0.00000000000E+00 0. -1.
         25    1    1    2    0    0 -0.38574112497E+03 -0.85963602439E+01  0.13841400952E+04  0.14423380034E+04  0.12500000000E+03 0.  0.
         21    1    1    2  503  502  0.13858037035E+02  0.32874136132E+02  0.18758806732E+03  0.19095035223E+03  0.00000000000E+00 0. -1.
         -1    1    1    2    0  503  0.37188308794E+03 -0.24277775888E+02 -0.94768717654E+02  0.38453550076E+03  0.00000000000E+00 0. -1.
<mgrwt>
<rscale>  4 0.39412236E+03</rscale>
<asrwt>0</asrwt>
<pdfrwt beam="1">  1       21 0.26882948E+00 0.39412236E+03</pdfrwt>
<pdfrwt beam="2">  1       -1 0.41604956E-01 0.39412236E+03</pdfrwt>
<totfact> 0.23321344E+01</totfact>
</mgrwt>
</event>
<event>
 5    0  0.4115852E+000  0.4750900E+03  0.7546771E-02  0.1020493E+00
          2   -1    0    0  502    0 -0.00000000000E+00  0.00000000000E+00  0.97628560505E+03  0.97628560505E+03  0.00000000000E+00 0. -1.
         21   -1    0    0  503  502  0.00000000000E+00 -0.00000000000E+00 -0.61864644227E+03  0.61864644227E+03  0.00000000000E+00 0. -1.
         25    1    1    2    0    0  0.16851264043E+03  0.45709413686E+03  0.21362780575E+02  0.50340135909E+03  0.12500000000E+03 0.  0.
         21    1    1    2  503  501 -0.16249327501E+03 -0.41321924472E+03 -0.24597324665E+03  0.50759929738E+03  0.00000000000E+00 0. -1.
          2    1    1    2  501    0 -0.60193654228E+01 -0.43874892139E+02  0.58224962886E+03  0.58393139085E+03  0.00000000000E+00 0. -1.
<mgrwt>
<rscale>  4 0.47508999E+03</rscale>
<asrwt>0</asrwt>
<pdfrwt beam="1">  1       21 0.95176376E-01 0.47508999E+03</pdfrwt>
<pdfrwt beam="2">  1        2 0.15019779E+00 0.47508999E+03</pdfrwt>
<totfact> 0.27908222E+02</totfact>
</mgrwt>
</event>
<event>
 5    0  0.4115852E+000  0.3068666E+03  0.7546771E-02  0.1081858E+00
         21   -1    0    0  503  502  0.00000000000E+00  0.00000000000E+00  0.48186361414E+03  0.48186361414E+03  0.00000000000E+00 0.  1.
          1   -1    0    0  502    0 -0.00000000000E+00 -0.00000000000E+00 -0.10832666760E+04  0.10832666760E+04  0.00000000000E+00 0.  1.
         25    1    1    2    0    0 -0.28684150221E+03 -0.15114153272E+03 -0.50492344033E+03  0.61293922284E+03  0.12500000000E+03 0.  0.
         21    1    1    2  503  501  0.25574001626E+03  0.10595274616E+03  0.38134656416E+03  0.47122621142E+03  0.00000000000E+00 0.  1.
          1    1    1    2  501    0  0.31101485953E+02  0.45188786560E+02 -0.47782618574E+03  0.48096485593E+03  0.00000000000E+00 0.  1.
<mgrwt>
<rscale>  4 0.30686655E+03</rscale>
<asrwt>0</asrwt>
<pdfrwt beam="1">  1       21 0.74132865E-01 0.30686655E+03</pdfrwt>
<pdfrwt beam="2">  1        1 0.16665641E+00 0.30686655E+03</pdfrwt>
<totfact> 0.23781456E+02</totfact>
</mgrwt>
</event>
<event>
 5    0  0.4115852E+000  0.2689755E+03  0.7546771E-02  0.1101867E+00
          2   -1    0    0  502    0 -0.00000000000E+00  0.00000000000E+00  0.36467908291E+04  0.36467908291E+04  0.00000000000E+00 0. -1.
         21   -1    0    0  503  502  0.00000000000E+00 -0.00000000000E+00 -0.51911210639E+02  0.51911210639E+02  0.00000000000E+00 0.  1.
         25    1    1    2    0    0  0.14611234069E+03 -0.20425067651E+03  0.38727144714E+03  0.47819591040E+03  0.12500000000E+03 0.  0.
         21    1    1    2  503  501 -0.38189651779E+02  0.86767755114E+02  0.54969222784E+03  0.55780699008E+03  0.00000000000E+00 0. -1.
          2    1    1    2  501    0 -0.10792268891E+03  0.11748292139E+03  0.26579159434E+04  0.26626991392E+04  0.00000000000E+00 0. -1.
<mgrwt>
<rscale>  4 0.26897548E+03</rscale>
<asrwt>0</asrwt>
<pdfrwt beam="1">  1       21 0.79863430E-02 0.26897548E+03</pdfrwt>
<pdfrwt beam="2">  1        2 0.56104454E+00 0.26897548E+03</pdfrwt>
<totfact> 0.12274499E+03</totfact>
</mgrwt>
</event>
<event>
 5    0  0.4115852E+000  0.3419319E+03  0.7546771E-02  0.1065976E+00
          2   -1    0    0  502    0 -0.00000000000E+00  0.00000000000E+00  0.28427037848E+03  0.28427037848E+03  0.00000000000E+00 0. -1.
         21   -1    0    0  503  502  0.00000000000E+00 -0.00000000000E+00 -0.46925249950E+03  0.46925249950E+03  0.00000000000E+00 0. -1.
         25    1    1    2    0    0 -0.10511002378E+03  0.30025546936E+03 -0.18928632899E+03  0.39071188659E+03  0.12500000000E+03 0.  0.
         21    1    1    2  503  501 -0.21445035862E+02 -0.78669411736E+01 -0.34999265042E+02  0.41793861751E+02  0.00000000000E+00 0. -1.
          2    1    1    2  501    0  0.12655505964E+03 -0.29238852818E+03  0.39303473015E+02  0.32101712965E+03  0.00000000000E+00 0. -1.
<mgrwt>
<rscale>  4 0.34193195E+03</rscale>
<asrwt>0</asrwt>
<pdfrwt beam="1">  1       21 0.72192691E-01 0.34193195E+03</pdfrwt>
<pdfrwt beam="2">  1        2 0.43733905E-01 0.34193195E+03</pdfrwt>
<totfact> 0.23742404E+03</totfact>
</mgrwt>
</event>
<event>
 5    0  0.4115852E+000  0.4971701E+03  0.7546771E-02  0.1014520E+00
         21   -1    0    0  503  502  0.00000000000E+00  0.00000000000E+00  0.11253927625E+04  0.11253927625E+04  0.00000000000E+00 0.  1.
          1   -1    0    0  502    0 -0.00000000000E+00 -0.00000000000E+00 -0.33221205022E+03  0.33221205022E+03  0.00000000000E+00 0.  1.
         25    1    1    2    0    0 -0.49403854459E+03 -0.15228379944E+03  0.49609046594E+03  0.72732055485E+03  0.12500000000E+03 0.  0.
         21    1    1    2  503  501  0.43055161198E+02  0.33205032704E+02  0.25636822758E+03  0.26207058060E+03  0.00000000000E+00 0.  1.
          1    1    1    2  501    0  0.45098338340E+03  0.11907876674E+03  0.40722018777E+02  0.46821367729E+03  0.00000000000E+00 0.  1.
<mgrwt>
<rscale>  4 0.49717007E+03</rscale>
<asrwt>0</asrwt>
<pdfrwt beam="1">  1       21 0.17313735E+00 0.49717007E+03</pdfrwt>
<pdfrwt beam="2">  1        1 0.51109547E-01 0.49717007E+03</pdfrwt>
<totfact> 0.14703875E+02</totfact>
</mgrwt>
</event>
<event>
 5    0  0.4115852E+000  0.4945732E+03  0.7546771E-02  0.1015205E+00
          2   -1    0    0  502    0 -0.00000000000E+00  0.00000000000E+00  0.35970636099E+04  0.35970636099E+04  0.00000000000E+00 0. -1.
         21   -1    0    0  503  502  0.00000000000E+00 -0.00000000000E+00 -0.89757470133E+02  0.89757470133E+02  0.00000000000E+00 0. -1.
         25    1    1    2    0    0  0.29862968625E+03  0.37389570170E+03  0.26821387914E+04  0.27273560790E+04  0.12500000000E+03 0.  0.
         21    1    1    2  503  501 -0.27373352073E+03 -0.37540416225E+03  0.78141672733E+03  0.90910418939E+03  0.00000000000E+00 0. -1.
          2    1    1    2  501    0 -0.24896165516E+02  0.15084605486E+01  0.43750621072E+02  0.50360811697E+02  0.00000000000E+00 0. -1.
<mgrwt>
<rscale>  4 0.49457324E+03</rscale>
<asrwt>0</asrwt>
<pdfrwt beam="1">  1       21 0.13808844E-01 0.49457324E+03</pdfrwt>
<pdfrwt beam="2">  1        2 0.55339429E+00 0.49457324E+03</pdfrwt>
<totfact> 0.44854635E+02</totfact>
</mgrwt>
</event>
<event>
 5    0  0.4115852E+000  0.3217888E+03  0.7546771E-02  0.1074829E+00
         21   -1    0    0  503  502  0.00000000000E+00  0.00000000000E+00  0.11003767944E+04  0.11003767944E+04  0.00000000000E+00 0.  1.
          1   -1    0    0  502    0 -0.00000000000E+00 -0.00000000000E+00 -0.53416427857E+03  0.53416427857E+03  0.00000000000E+00 0. -1.
         25    1    1    2    0    0  0.63500538570E+02  0.26676213788E+03 -0.55245972202E+02  0.30638451992E+03  0.12500000000E+03 0.  0.
         21    1    1    2  503  501  0.13613694774E+02  0.31952034966E+02  0.90707272995E+03  0.90773740842E+03  0.00000000000E+00 0.  1.
          1    1    1    2  501    0 -0.77114233343E+02 -0.29871417284E+03 -0.28561424188E+03  0.42041914467E+03  0.00000000000E+00 0. -1.
<mgrwt>
<rscale>  4 0.32178876E+03</rscale>
<asrwt>0</asrwt>
<pdfrwt beam="1">  1       21 0.16928874E+00 0.32178876E+03</pdfrwt>
<pdfrwt beam="2">  1        1 0.82179120E-01 0.32178876E+03</pdfrwt>
<totfact> 0.90058518E+01</totfact>
</mgrwt>
</event>
<event>
 5    0  0.4115852E+000  0.2063988E+03  0.7546771E-02  0.1144450E+00
         21   -1    0    0  503  502  0.00000000000E+00  0.00000000000E+00  0.13745378356E+03  0.13745378356E+03  0.00000000000E+00 0. -1.
          2   -1    0    0  502    0 -0.00000000000E+00 -0.00000000000E+00 -0.15939458638E+04  0.15939458638E+04  0.00000000000E+00 0. -1.
         25    1    1    2    0    0 -0.20789771504E+03 -0.55256455592E+02 -0.41626172541E+03  0.48494696602E+03  0.12500000000E+03 0.  0.
         21    1    1    2  503  501  0.55716547916E+02  0.19693080507E+02  0.88795367996E+02  0.10666193561E+03  0.00000000000E+00 0. -1.
          2    1    1    2  501    0  0.15218116713E+03  0.35563375084E+02 -0.11290257228E+04  0.11397907457E+04  0.00000000000E+00 0. -1.
<mgrwt>
<rscale>  4 0.20639880E+03</rscale>
<asrwt>0</asrwt>
<pdfrwt beam="1">  1       21 0.21146735E-01 0.20639880E+03</pdfrwt>
<pdfrwt beam="2">  1        2 0.24522245E+00 0.20639880E+03</pdfrwt>
<totfact> 0.32339751E+03</totfact>
</mgrwt>
</event>
<event>
 5    0  0.4115852E+000  0.4356446E+03  0.7546771E-02  0.1032092E+00
         21   -1    0    0  503  502  0.00000000000E+00  0.00000000000E+00  0.44069494036E+03  0.44069494036E+03  0.00000000000E+00 0.  1.
          1   -1    0    0  502    0 -0.00000000000E+00 -0.00000000000E+00 -0.12762564046E+04  0.12762564046E+04  0.00000000000E+00 0. -1.
         25    1    1    2    0    0 -0.48476618332E+03  0.18982979288E+03 -0.37195455610E+03  0.65192698561E+03  0.12500000000E+03 0.  0.
         21    1    1    2  503  501  0.34056745889E+03 -0.19386540630E+03  0.16123029333E+03  0.42375133900E+03  0.00000000000E+00 0.  1.
          1    1    1    2  501    0  0.14419872443E+03  0.40356134167E+01 -0.62483720143E+03  0.64127302032E+03  0.00000000000E+00 0. -1.
<mgrwt>
<rscale>  4 0.43564456E+03</rscale>
<asrwt>0</asrwt>
<pdfrwt beam="1">  1       21 0.67799222E-01 0.43564456E+03</pdfrwt>
<pdfrwt beam="2">  1        1 0.19634714E+00 0.43564456E+03</pdfrwt>
<totfact> 0.20095216E+02</totfact>
</mgrwt>
</event>
<event>
 5    0  0.4115852E+000  0.2837988E+03  0.7546771E-02  0.1093632E+00
         21   -1    0    0  501  502  0.00000000000E+00  0.00000000000E+00  0.36105569987E+03  0.36105569987E+03  0.00000000000E+00 0.  1.
         -4   -1    0    0    0  501 -0.00000000000E+00 -0.00000000000E+00 -0.14073461698E+04  0.14073461698E+04  0.00000000000E+00 0.  1.
         25    1    1    2    0    0  0.12778621431E+03  0.20415863382E+03 -0.19831928715E+03  0.33610356140E+03  0.12500000000E+03 0.  0.
         21    1    1    2  503  502 -0.13863437062E+02  0.27284928446E+02  0.27671773233E+03  0.27840503874E+03  0.00000000000E+00 0.  1.
         -4    1    1    2    0  503 -0.11392277725E+03 -0.23144356227E+03 -0.11246889151E+04  0.11538932695E+04  0.00000000000E+00 0.  1.
<mgrwt>
<rscale>  4 0.28379884E+03</rscale>
<asrwt>0</asrwt>
<pdfrwt beam="1">  1       21 0.55547029E-01 0.28379884E+03</pdfrwt>
<pdfrwt beam="2">  1       -4 0.21651480E+00 0.28379884E+03</pdfrwt>
<totfact> 0.14142598E+01</totfact>
</mgrwt>
</event>
<event>
 5    0  0.4115852E+000  0.3473673E+03  0.7546771E-02  0.1063701E+00
         -2   -1    0    0    0  501 -0.00000000000E+00  0.00000000000E+00  0.48444713902E+03  0.48444713902E+03  0.00000000000E+00 0.  1.
         21   -1    0    0  501  502  0.00000000000E+00 -0.00000000000E+00 -0.41879260595E+03  0.41879260595E+03  0.00000000000E+00 0.  1.
         25    1    1    2    0    0  0.35375982835E+01  0.37219016806E+03 -0.90460167807E+02  0.40292192515E+03  0.12500000000E+03 0.  0.
         21    1    1    2  503  502 -0.10976909337E+02 -0.62830684776E+02 -0.86237331320E+02  0.10726166511E+03  0.00000000000E+00 0.  1.
         -2    1    1    2    0  503  0.74393110532E+01 -0.30935948329E+03  0.24235203220E+03  0.39305615471E+03  0.00000000000E+00 0.  1.
<mgrwt>
<rscale>  4 0.34736732E+03</rscale>
<asrwt>0</asrwt>
<pdfrwt beam="1">  1       21 0.64429632E-01 0.34736732E+03</pdfrwt>
<pdfrwt beam="2">  1       -2 0.74530329E-01 0.34736732E+03</pdfrwt>
<totfact> 0.28540154E+02</totfact>
</mgrwt>
</event>
<event>
 5    0  0.4115852E+000  0.2755379E+03  0.7546771E-02  0.1098151E+00
         21   -1    0    0  503  502  0.00000000000E+00  0.00000000000E+00  0.67387164573E+03  0.67387164573E+03  0.00000000000E+00 0.  1.
          2   -1    0    0  502    0 -0.00000000000E+00 -0.00000000000E+00 -0.85710718016E+03  0.85710718016E+03  0.00000000000E+00 0. -1.
         25    1    1    2    0    0  0.26369668920E+03  0.22791651576E+02 -0.19173712374E+03  0.34991931626E+03  0.12500000000E+03 0.  0.
         21    1    1    2  503  501 -0.24367659771E+03 -0.82864508763E+01  0.56950994500E+03  0.61950668035E+03  0.00000000000E+00 0.  1.
          2    1    1    2  501    0 -0.20020091483E+02 -0.14505200700E+02 -0.56100835569E+03  0.56155282927E+03  0.00000000000E+00 0. -1.
<mgrwt>
<rscale>  4 0.27553787E+03</rscale>
<asrwt>0</asrwt>
<pdfrwt beam="1">  1       21 0.10367256E+00 0.27553787E+03</pdfrwt>
<pdfrwt beam="2">  1        2 0.13186264E+00 0.27553787E+03</pdfrwt>
<totfact> 0.29355778E+02</totfact>
</mgrwt>
</event>
<event>
 5    0  0.4115852E+000  0.2344875E+03  0.7546771E-02  0.1123521E+00
         21   -1    0    0  503  502  0.00000000000E+00  0.00000000000E+00  0.29225898652E+03  0.29225898652E+03  0.00000000000E+00 0. -1.
          2   -1    0    0  502    0 -0.00000000000E+00 -0.00000000000E+00 -0.84232107255E+03  0.84232107255E+03  0.00000000000E+00 0. -1.
         25    1    1    2    0    0 -0.31361774937E+02 -0.23733537844E+03 -0.60147678550E+03  0.65932614561E+03  0.12500000000E+03 0.  0.
         21    1    1    2  503  501  0.45684185952E+01  0.83467592868E+02  0.22602345567E+03  0.24098612413E+03  0.00000000000E+00 0. -1.
          2    1    1    2  501    0  0.26793356342E+02  0.15386778557E+03 -0.17460875619E+03  0.23426778933E+03  0.00000000000E+00 0. -1.
<mgrwt>
<rscale>  4 0.23448748E+03</rscale>
<asrwt>0</asrwt>
<pdfrwt beam="1">  1       21 0.44962922E-01 0.23448748E+03</pdfrwt>
<pdfrwt beam="2">  1        2 0.12958786E+00 0.23448748E+03</pdfrwt>
<totfact> 0.19565272E+03</totfact>
</mgrwt>
</event>
<event>
 5    0  0.4115852E+000  0.2699676E+03  0.7546771E-02  0.1101298E+00
          2   -1    0    0  502    0 -0.00000000000E+00  0.00000000000E+00  0.14078969985E+04  0.14078969985E+04  0.00000000000E+00 0.  1.
         21   -1    0    0  503  502  0.00000000000E+00 -0.00000000000E+00 -0.85514739919E+02  0.85514739919E+02  0.00000000000E+00 0.  1.
         25    1    1    2    0    0  0.20808442638E+03 -0.99603849092E+02  0.44072778104E+03  0.51291912836E+03  0.12500000000E+03 0.  0.
         21    1    1    2  503  501  0.22832869270E+02  0.21884942948E+02 -0.25851879898E+02  0.40848627164E+02  0.00000000000E+00 0. -1.
          2    1    1    2  501    0 -0.23091729565E+03  0.77718906144E+02  0.90750635743E+03  0.93964398289E+03  0.00000000000E+00 0.  1.
<mgrwt>
<rscale>  4 0.26996763E+03</rscale>
<asrwt>0</asrwt>
<pdfrwt beam="1">  1       21 0.13156115E-01 0.26996763E+03</pdfrwt>
<pdfrwt beam="2">  1        2 0.21659952E+00 0.26996763E+03</pdfrwt>
<totfact> 0.95353417E+03</totfact>
</mgrwt>
</event>
<event>
 5    0  0.4115852E+000  0.2807491E+03  0.7546771E-02  0.1095281E+00
          2   -1    0    0  502    0 -0.00000000000E+00  0.00000000000E+00  0.24738025181E+04  0.24738025181E+04  0.00000000000E+00 0. -1.
         21   -1    0    0  503  502  0.00000000000E+00 -0.00000000000E+00 -0.33712678058E+02  0.33712678058E+02  0.00000000000E+00 0. -1.
         25    1    1    2    0    0 -0.16831113519E+03 -0.18530725434E+03  0.14351755873E+04  0.14621974501E+04  0.12500000000E+03 0.  0.
         21    1    1    2  503  501  0.18047713661E+02 -0.18714994964E+02  0.40143605247E+02  0.47827607583E+02  0.00000000000E+00 0. -1.
          2    1    1    2  501    0  0.15026342153E+03  0.20402224930E+03  0.96477064749E+03  0.99749013846E+03  0.00000000000E+00 0. -1.
<mgrwt>
<rscale>  4 0.28074910E+03</rscale>
<asrwt>0</asrwt>
<pdfrwt beam="1">  1       21 0.51865678E-02 0.28074910E+03</pdfrwt>
<pdfrwt beam="2">  1        2 0.38058486E+00 0.28074910E+03</pdfrwt>
<totfact> 0.13247280E+04</totfact>
</mgrwt>
</event>
<event>
 5    0  0.4115852E+000  0.1908549E+03  0.7546771E-02  0.1157693E+00
         21   -1    0    0  503  502  0.00000000000E+00  0.00000000000E+00  0.20416100140E+03  0.20416100140E+03  0.00000000000E+00 0.  1.
          2   -1    0    0  502    0 -0.00000000000E+00 -0.00000000000E+00 -0.61058052195E+03  0.61058052195E+03  0.00000000000E+00 0.  1.
         25    1    1    2    0    0 -0.44976411306E+02  0.19576956065E+03  0.63029907087E+02  0.24483947320E+03  0.12500000000E+03 0.  0.
         21    1    1    2  503  501  0.28246838160E+02 -0.56150449649E+02  0.15698944914E+02  0.64785906903E+02  0.00000000000E+00 0.  1.
          2    1    1    2  501    0  0.16729573145E+02 -0.13961911100E+03 -0.48514837255E+03  0.50511614324E+03  0.00000000000E+00 0.  1.
<mgrwt>
<rscale>  4 0.19085489E+03</rscale>
<asrwt>0</asrwt>
<pdfrwt beam="1">  1       21 0.31409385E-01 0.19085489E+03</pdfrwt>
<pdfrwt beam="2">  1        2 0.93935464E-01 0.19085489E+03</pdfrwt>
<totfact> 0.60587168E+03</totfact>
</mgrwt>
</event>
<event>
 5    0  0.4115852E+000  0.2638295E+03  0.7546771E-02  0.1104864E+00
          2   -1    0    0  502    0 -0.00000000000E+00  0.00000000000E+00  0.19320407818E+04  0.19320407818E+04  0.00000000000E+00 0. -1.
         21   -1    0    0  503  502  0.00000000000E+00 -0.00000000000E+00 -0.85813379104E+02  0.85813379104E+02  0.00000000000E+00 0.  1.
         25    1    1    2    0    0 -0.26057419151E+03  0.13795515998E+03  0.10312388108E+04  0.10798189757E+04  0.12500000000E+03 0.  0.
         21    1    1    2  503  501  0.78647722404E+02 -0.52189647220E+02 -0.42343862070E+01  0.94483615208E+02  0.00000000000E+00 0.  1.
          2    1    1    2  501    0  0.18192646911E+03 -0.85765512760E+02  0.81922297817E+03  0.84355157003E+03  0.00000000000E+00 0. -1.
<mgrwt>
<rscale>  4 0.26382945E+03</rscale>
<asrwt>0</asrwt>
<pdfrwt beam="1">  1       21 0.13202060E-01 0.26382945E+03</pdfrwt>
<pdfrwt beam="2">  1        2 0.29723701E+00 0.26382945E+03</pdfrwt>
<totfact> 0.50077575E+03</totfact>
</mgrwt>
</event>
<event>
 5    0  0.4115852E+000  0.2452432E+03  0.7546771E-02  0.1116348E+00
         21   -1    0    0  501  502  0.00000000000E+00  0.00000000000E+00  0.21628659017E+03  0.21628659017E+03  0.00000000000E+00 0. -1.
         -1   -1    0    0    0  501 -0.00000000000E+00 -0.00000000000E+00 -0.26781634722E+03  0.26781634722E+03  0.00000000000E+00 0. -1.
         25    1    1    2    0    0 -0.53525527386E+02  0.20298673086E+03 -0.12119682561E+02  0.24462314218E+03  0.12500000000E+03 0.  0.
         21    1    1    2  503  502 -0.21685766668E+02 -0.41826450605E+01 -0.12083651647E+02  0.25175020016E+02  0.00000000000E+00 0. -1.
         -1    1    1    2    0  503  0.75211294054E+02 -0.19880408580E+03 -0.27326422838E+02  0.21430477519E+03  0.00000000000E+00 0. -1.
<mgrwt>
<rscale>  4 0.24524318E+03</rscale>
<asrwt>0</asrwt>
<pdfrwt beam="1">  1       21 0.33274860E-01 0.24524318E+03</pdfrwt>
<pdfrwt beam="2">  1       -1 0.41202515E-01 0.24524318E+03</pdfrwt>
<totfact> 0.46367066E+03</totfact>
</mgrwt>
</event>
<event>
 5    0  0.4115852E+000  0.2179738E+03  0.7546771E-02  0.1135403E+00
         21   -1    0    0  501  502  0.00000000000E+00  0.00000000000E+00  0.21085467198E+03  0.21085467198E+03  0.00000000000E+00 0.  1.
         -4   -1    0    0    0  501 -0.00000000000E+00 -0.00000000000E+00 -0.48852247039E+03  0.48852247039E+03  0.00000000000E+00 0.  1.
         25    1    1    2    0    0 -0.14069743151E+03  0.15870957223E+03 -0.28007307340E+03  0.37289465268E+03  0.12500000000E+03 0.  0.
         21    1    1    2  503  502  0.13370056415E+03 -0.11134830183E+03  0.11197347278E+03  0.20691143947E+03  0.00000000000E+00 0.  1.
         -4    1    1    2    0  503  0.69968673537E+01 -0.47361270400E+02 -0.10956819778E+03  0.11957105023E+03  0.00000000000E+00 0.  1.
<mgrwt>
<rscale>  4 0.21797376E+03</rscale>
<asrwt>0</asrwt>
<pdfrwt beam="1">  1       21 0.32439180E-01 0.21797376E+03</pdfrwt>
<pdfrwt beam="2">  1       -4 0.75157303E-01 0.21797376E+03</pdfrwt>
<totfact> 0.62689088E+02</totfact>
</mgrwt>
</event>
<event>
 5    0  0.4115852E+000  0.2650216E+03  0.7546771E-02  0.1104163E+00
          2   -1    0    0  502    0 -0.00000000000E+00  0.00000000000E+00  0.22022359318E+04  0.22022359318E+04  0.00000000000E+00 0. -1.
         21   -1    0    0  503  502  0.00000000000E+00 -0.00000000000E+00 -0.41372604548E+02  0.41372604548E+02  0.00000000000E+00 0. -1.
         25    1    1    2    0    0 -0.42479302360E+01  0.23297526931E+03  0.53652486831E+03  0.59814668379E+03  0.12500000000E+03 0.  0.
         21    1    1    2  503  501  0.24573751277E+02  0.24412745563E+01  0.22017794305E+03  0.22155847012E+03  0.00000000000E+00 0. -1.
          2    1    1    2  501    0 -0.20325821041E+02 -0.23541654387E+03  0.14041605159E+04  0.14239033824E+04  0.00000000000E+00 0. -1.
<mgrwt>
<rscale>  4 0.26502160E+03</rscale>
<asrwt>0</asrwt>
<pdfrwt beam="1">  1       21 0.63650178E-02 0.26502160E+03</pdfrwt>
<pdfrwt beam="2">  1        2 0.33880544E+00 0.26502160E+03</pdfrwt>
<totfact> 0.13111399E+04</totfact>
</mgrwt>
</event>
<event>
 5    0  0.4115852E+000  0.2712128E+03  0.7546771E-02  0.1100587E+00
         21   -1    0    0  503  502  0.00000000000E+00  0.00000000000E+00  0.36024868630E+03  0.36024868630E+03  0.00000000000E+00 0. -1.
          1   -1    0    0  502    0 -0.00000000000E+00 -0.00000000000E+00 -0.25617426224E+03  0.25617426224E+03  0.00000000000E+00 0. -1.
         25    1    1    2    0    0 -0.20061954518E+03  0.15921638911E+03  0.49785882228E+02  0.28931245140E+03  0.12500000000E+03 0.  0.
         21    1    1    2  503  501  0.11776914479E+02 -0.24930341867E+02  0.88665971212E+02  0.92854036591E+02  0.00000000000E+00 0.  1.
          1    1    1    2  501    0  0.18884263070E+03 -0.13428604724E+03 -0.34377429384E+02  0.23425646054E+03  0.00000000000E+00 0. -1.
<mgrwt>
<rscale>  4 0.27121285E+03</rscale>
<asrwt>0</asrwt>
<pdfrwt beam="1">  1       21 0.55422875E-01 0.27121285E+03</pdfrwt>
<pdfrwt beam="2">  1        1 0.39411425E-01 0.27121285E+03</pdfrwt>
<totfact> 0.34988198E+03</totfact>
</mgrwt>
</event>
<event>
 5    0  0.4115852E+000  0.2718823E+03  0.7546771E-02  0.1100207E+00
          2   -1    0    0  502    0 -0.00000000000E+00  0.00000000000E+00  0.12126138348E+04  0.12126138348E+04  0.00000000000E+00 0.  1.
         21   -1    0    0  503  502  0.00000000000E+00 -0.00000000000E+00 -0.14814000555E+04  0.14814000555E+04  0.00000000000E+00 0.  1.
         25    1    1    2    0    0  0.26085456081E+03  0.67087784414E+02 -0.49168849960E+03  0.57439398792E+03  0.12500000000E+03 0.  0.
         21    1    1    2  503  501 -0.32808025564E+02  0.10278707295E+02 -0.93566190252E+03  0.93629333769E+03  0.00000000000E+00 0.  1.
          2    1    1    2  501    0 -0.22804653525E+03 -0.77366491709E+02  0.11585641814E+04  0.11833265647E+04  0.00000000000E+00 0.  1.
<mgrwt>
<rscale>  4 0.27188228E+03</rscale>
<asrwt>0</asrwt>
<pdfrwt beam="1">  1       21 0.22790770E+00 0.27188228E+03</pdfrwt>
<pdfrwt beam="2">  1        2 0.18655598E+00 0.27188228E+03</pdfrwt>
<totfact> 0.20729674E+01</totfact>
</mgrwt>
</event>
<event>
 5    0  0.4115852E+000  0.4322138E+03  0.7546771E-02  0.1033163E+00
         21   -1    0    0  501  502  0.00000000000E+00  0.00000000000E+00  0.56294129521E+03  0.56294129521E+03  0.00000000000E+00 0. -1.
         -4   -1    0    0    0  501 -0.00000000000E+00 -0.00000000000E+00 -0.87299876683E+03  0.87299876683E+03  0.00000000000E+00 0. -1.
         25    1    1    2    0    0  0.45051386790E+02  0.40050505375E+03  0.17295549578E+03  0.45604005203E+03  0.12500000000E+03 0.  0.
         21    1    1    2  503  502  0.20150430277E+02  0.10175904490E+02  0.18861818694E+03  0.18996423168E+03  0.00000000000E+00 0. -1.
         -4    1    1    2    0  503 -0.65201817067E+02 -0.41068095824E+03 -0.67163115434E+03  0.78993577834E+03  0.00000000000E+00 0. -1.
<mgrwt>
<rscale>  4 0.43221377E+03</rscale>
<asrwt>0</asrwt>
<pdfrwt beam="1">  1       21 0.86606353E-01 0.43221377E+03</pdfrwt>
<pdfrwt beam="2">  1       -4 0.13430750E+00 0.43221377E+03</pdfrwt>
<totfact> 0.18790234E+01</totfact>
</mgrwt>
</event>
<event>
 5    0  0.4115852E+000  0.2529684E+03  0.7546771E-02  0.1111443E+00
         21   -1    0    0  503  502  0.00000000000E+00  0.00000000000E+00  0.11619921741E+04  0.11619921741E+04  0.00000000000E+00 0. -1.
          4   -1    0    0  502    0 -0.00000000000E+00 -0.00000000000E+00 -0.43828002891E+03  0.43828002891E+03  0.00000000000E+00 0. -1.
         25    1    1    2    0    0  0.35368180402E+03  0.50468183140E+02  0.83842549652E+03  0.91990226069E+03  0.12500000000E+03 0.  0.
         21    1    1    2  503  501 -0.14671931930E+03  0.86016342430E+01  0.23061222493E+03  0.27346397396E+03  0.00000000000E+00 0. -1.
          4    1    1    2  501    0 -0.20696248472E+03 -0.59069817383E+02 -0.34532557630E+03  0.40690596832E+03  0.00000000000E+00 0. -1.
<mgrwt>
<rscale>  4 0.25296840E+03</rscale>
<asrwt>0</asrwt>
<pdfrwt beam="1">  1       21 0.17876803E+00 0.25296840E+03</pdfrwt>
<pdfrwt beam="2">  1        4 0.67427697E-01 0.25296840E+03</pdfrwt>
<totfact> 0.15611439E+01</totfact>
</mgrwt>
</event>
<event>
 5    0  0.4115852E+000  0.2636281E+03  0.7546771E-02  0.1104983E+00
         21   -1    0    0  503  502  0.00000000000E+00  0.00000000000E+00  0.39011152340E+03  0.39011152340E+03  0.00000000000E+00 0. -1.
          2   -1    0    0  502    0 -0.00000000000E+00 -0.00000000000E+00 -0.12774479066E+04  0.12774479066E+04  0.00000000000E+00 0. -1.
         25    1    1    2    0    0  0.17218635434E+03  0.24648827703E+03  0.14740967571E+03  0.35743422308E+03  0.12500000000E+03 0.  0.
         21    1    1    2  503  501 -0.50162177922E+02 -0.52638918841E+02  0.11594420137E+03  0.13685816637E+03  0.00000000000E+00 0. -1.
          2    1    1    2  501    0 -0.12202417642E+03 -0.19384935819E+03 -0.11506902602E+04  0.11732670405E+04  0.00000000000E+00 0. -1.
<mgrwt>
<rscale>  4 0.26362811E+03</rscale>
<asrwt>0</asrwt>
<pdfrwt beam="1">  1       21 0.60017158E-01 0.26362811E+03</pdfrwt>
<pdfrwt beam="2">  1        2 0.19653045E+00 0.26362811E+03</pdfrwt>
<totfact> 0.57363488E+02</totfact>
</mgrwt>
</event>
<event>
 5    0  0.4115852E+000  0.2904941E+03  0.7546771E-02  0.1090091E+00
          1   -1    0    0  502    0 -0.00000000000E+00  0.00000000000E+00  0.60547878365E+03  0.60547878365E+03  0.00000000000E+00 0. -1.
         21   -1    0    0  503  502  0.00000000000E+00 -0.00000000000E+00 -0.19270063018E+03  0.19270063018E+03  0.00000000000E+00 0. -1.
         25    1    1    2    0    0  0.24716582545E+03 -0.35735069277E+02  0.31878509763E+03  0.42381231568E+03  0.12500000000E+03 0.  0.
         21    1    1    2  503  501  0.42668457145E+02  0.51043446062E+02 -0.73756324320E+01  0.66936018516E+02  0.00000000000E+00 0. -1.
          1    1    1    2  501    0 -0.28983428259E+03 -0.15308376784E+02  0.10136868826E+03  0.30743107964E+03  0.00000000000E+00 0. -1.
<mgrwt>
<rscale>  4 0.29049407E+03</rscale>
<asrwt>0</asrwt>
<pdfrwt beam="1">  1       21 0.29646251E-01 0.29049407E+03</pdfrwt>
<pdfrwt beam="2">  1        1 0.93150581E-01 0.29049407E+03</pdfrwt>
<totfact> 0.40819129E+03</totfact>
</mgrwt>
</event>
<event>
 5    0  0.4115852E+000  0.2534745E+03  0.7546771E-02  0.1111129E+00
         21   -1    0    0  503  502  0.00000000000E+00  0.00000000000E+00  0.88583435019E+02  0.88583435019E+02  0.00000000000E+00 0.  1.
          2   -1    0    0  502    0 -0.00000000000E+00 -0.00000000000E+00 -0.22578940247E+04  0.22578940247E+04  0.00000000000E+00 0. -1.
         25    1    1    2    0    0 -0.22662617900E+03  0.97990285604E+02 -0.17807224765E+03  0.32908395048E+03  0.12500000000E+03 0.  0.
         21    1    1    2  503  501  0.20936594790E+02 -0.24487775086E+02 -0.29978952220E+02  0.44008291336E+02  0.00000000000E+00 0.  1.
          2    1    1    2  501    0  0.20568958421E+03 -0.73502510518E+02 -0.19612593898E+04  0.19733852179E+04  0.00000000000E+00 0. -1.
<mgrwt>
<rscale>  4 0.25347449E+03</rscale>
<asrwt>0</asrwt>
<pdfrwt beam="1">  1       21 0.13628221E-01 0.25347449E+03</pdfrwt>
<pdfrwt beam="2">  1        2 0.34736830E+00 0.25347449E+03</pdfrwt>
<totfact> 0.31939599E+03</totfact>
</mgrwt>
</event>
<event>
 5    0  0.4115852E+000  0.2832171E+03  0.7546771E-02  0.1093945E+00
          2   -1    0    0  502    0 -0.00000000000E+00  0.00000000000E+00  0.20082802162E+03  0.20082802162E+03  0.00000000000E+00 0.  1.
         21   -1    0    0  503  502  0.00000000000E+00 -0.00000000000E+00 -0.39887152484E+03  0.39887152484E+03  0.00000000000E+00 0.  1.
         25    1    1    2    0    0 -0.79443671725E+02 -0.24140343505E+03 -0.23750418473E+02  0.28421118522E+03  0.12500000000E+03 0.  0.
         21    1    1    2  503  501  0.58828184213E+01  0.25022770200E+02 -0.47805012004E+02  0.54277672700E+02  0.00000000000E+00 0. -1.
          2    1    1    2  501    0  0.73560853304E+02  0.21638066485E+03 -0.12648807274E+03  0.26121068853E+03  0.00000000000E+00 0.  1.
<mgrwt>
<rscale>  4 0.28321708E+03</rscale>
<asrwt>0</asrwt>
<pdfrwt beam="1">  1       21 0.61364849E-01 0.28321708E+03</pdfrwt>
<pdfrwt beam="2">  1        2 0.30896619E-01 0.28321708E+03</pdfrwt>
<totfact> 0.50429990E+03</totfact>
</mgrwt>
</event>
<event>
 5    0  0.4115852E+000  0.3003647E+03  0.7546771E-02  0.1085058E+00
          2   -1    0    0  502    0 -0.00000000000E+00  0.00000000000E+00  0.12536828159E+04  0.12536828159E+04  0.00000000000E+00 0.  1.
         21   -1    0    0  503  502  0.00000000000E+00 -0.00000000000E+00 -0.10426521530E+03  0.10426521530E+03  0.00000000000E+00 0. -1.
         25    1    1    2    0    0 -0.25448799376E+03 -0.15134448789E+03  0.30234638023E+03  0.44125687147E+03  0.12500000000E+03 0.  0.
         21    1    1    2  503  501  0.29031201118E+02  0.95061136668E+01  0.19748347789E+01  0.30611710305E+02  0.00000000000E+00 0. -1.
          2    1    1    2  501    0  0.22545679264E+03  0.14183837422E+03  0.84509638564E+03  0.88607944947E+03  0.00000000000E+00 0.  1.
<mgrwt>
<rscale>  4 0.30036468E+03</rscale>
<asrwt>0</asrwt>
<pdfrwt beam="1">  1       21 0.16040803E-01 0.30036468E+03</pdfrwt>
<pdfrwt beam="2">  1        2 0.19287427E+00 0.30036468E+03</pdfrwt>
<totfact> 0.80054716E+03</totfact>
</mgrwt>
</event>
<event>
 5    0  0.4115852E+000  0.6078073E+03  0.7546771E-02  0.9905969E-01
          1   -1    0    0  502    0 -0.00000000000E+00  0.00000000000E+00  0.20100524096E+04  0.20100524096E+04  0.00000000000E+00 0. -1.
         21   -1    0    0  503  502  0.00000000000E+00 -0.00000000000E+00 -0.18460469084E+03  0.18460469084E+03  0.00000000000E+00 0. -1.
         25    1    1    2    0    0  0.29904820052E+03 -0.47631150604E+03  0.11483596363E+04  0.12847790983E+04  0.12500000000E+03 0.  0.
         21    1    1    2  503  501 -0.27348735531E+02  0.12797263749E+03  0.44336965537E+02  0.13816915645E+03  0.00000000000E+00 0. -1.
          1    1    1    2  501    0 -0.27169946499E+03  0.34833886855E+03  0.63275111692E+03  0.77170884573E+03  0.00000000000E+00 0. -1.
<mgrwt>
<rscale>  4 0.59972877E+03</rscale>
<asrwt>0</asrwt>
<pdfrwt beam="1">  1       21 0.28400723E-01 0.60780729E+03</pdfrwt>
<pdfrwt beam="2">  1        1 0.30923882E+00 0.60780729E+03</pdfrwt>
<totfact> 0.38158034E+02</totfact>
</mgrwt>
</event>
<event>
 5    0  0.4115852E+000  0.2001982E+03  0.7546771E-02  0.1149572E+00
         21   -1    0    0  503  502  0.00000000000E+00  0.00000000000E+00  0.50164713057E+03  0.50164713057E+03  0.00000000000E+00 0.  1.
          2   -1    0    0  502    0 -0.00000000000E+00 -0.00000000000E+00 -0.84909285665E+03  0.84909285665E+03  0.00000000000E+00 0.  1.
         25    1    1    2    0    0  0.60631049526E+02  0.22852568172E+03  0.18684304471E+03  0.32624444015E+03  0.12500000000E+03 0.  0.
         21    1    1    2  503  501 -0.81177699916E+02 -0.11043398857E+03  0.22083864360E+03  0.25991381514E+03  0.00000000000E+00 0.  1.
          2    1    1    2  501    0  0.20546650391E+02 -0.11809169315E+03 -0.75512741439E+03  0.76458173193E+03  0.00000000000E+00 0.  1.
<mgrwt>
<rscale>  4 0.20019818E+03</rscale>
<asrwt>0</asrwt>
<pdfrwt beam="1">  1       21 0.77176481E-01 0.20019818E+03</pdfrwt>
<pdfrwt beam="2">  1        2 0.13062967E+00 0.20019818E+03</pdfrwt>
<totfact> 0.61718358E+02</totfact>
</mgrwt>
</event>
<event>
 5    0  0.4115852E+000  0.2749958E+03  0.7546771E-02  0.1098454E+00
          2   -1    0    0  502    0 -0.00000000000E+00  0.00000000000E+00  0.11078946039E+04  0.11078946039E+04  0.00000000000E+00 0.  1.
         21   -1    0    0  503  502  0.00000000000E+00 -0.00000000000E+00 -0.71999482654E+02  0.71999482654E+02  0.00000000000E+00 0. -1.
         25    1    1    2    0    0  0.45624319303E+02 -0.22746485239E+03  0.34122404199E+03  0.43113882268E+03  0.12500000000E+03 0.  0.
         21    1    1    2  503  501 -0.49244043296E+01 -0.20769927980E+02  0.22299909158E+02  0.30869493270E+02  0.00000000000E+00 0.  1.
          2    1    1    2  501    0 -0.40699914974E+02  0.24823478037E+03  0.67237117013E+03  0.71788577064E+03  0.00000000000E+00 0.  1.
<mgrwt>
<rscale>  4 0.27499577E+03</rscale>
<asrwt>0</asrwt>
<pdfrwt beam="1">  1       21 0.11076844E-01 0.27499577E+03</pdfrwt>
<pdfrwt beam="2">  1        2 0.17044531E+00 0.27499577E+03</pdfrwt>
<totfact> 0.19161170E+04</totfact>
</mgrwt>
</event>
<event>
 5    0  0.4115852E+000  0.1858972E+03  0.7546771E-02  0.1162215E+00
         21   -1    0    0  503  502  0.00000000000E+00  0.00000000000E+00  0.23795081686E+03  0.23795081686E+03  0.00000000000E+00 0. -1.
          2   -1    0    0  502    0 -0.00000000000E+00 -0.00000000000E+00 -0.10650117171E+04  0.10650117171E+04  0.00000000000E+00 0. -1.
         25    1    1    2    0    0 -0.19777810591E+03 -0.11537880136E+03 -0.10883644906E+03  0.28266379256E+03  0.12500000000E+03 0.  0.
         21    1    1    2  503  501  0.10547062977E+03  0.20165594968E+02  0.12609859030E+03  0.16562475491E+03  0.00000000000E+00 0. -1.
          2    1    1    2  501    0  0.92307476145E+02  0.95213206394E+02 -0.84432304150E+03  0.85467398651E+03  0.00000000000E+00 0. -1.
<mgrwt>
<rscale>  4 0.18589720E+03</rscale>
<asrwt>0</asrwt>
<pdfrwt beam="1">  1       21 0.36607818E-01 0.18589720E+03</pdfrwt>
<pdfrwt beam="2">  1        2 0.16384796E+00 0.18589720E+03</pdfrwt>
<totfact> 0.22048529E+03</totfact>
</mgrwt>
</event>
<event>
 5    0  0.4115852E+000  0.4479531E+03  0.7546771E-02  0.1028334E+00
          1   -1    0    0  502    0 -0.00000000000E+00  0.00000000000E+00  0.43005899686E+03  0.43005899686E+03  0.00000000000E+00 0.  1.
         21   -1    0    0  503  502  0.00000000000E+00 -0.00000000000E+00 -0.11246383979E+04  0.11246383979E+04  0.00000000000E+00 0.  1.
         25    1    1    2    0    0  0.25064312729E+03 -0.34161424045E+03 -0.87452976742E+03  0.97977016725E+03  0.12500000000E+03 0.  0.
         21    1    1    2  503  501  0.19479044824E+02  0.56764223487E+01 -0.72561661949E+02  0.75344872040E+02  0.00000000000E+00 0.  1.
          1    1    1    2  501    0 -0.27012217211E+03  0.33593781810E+03  0.25251202829E+03  0.49958235550E+03  0.00000000000E+00 0.  1.
<mgrwt>
<rscale>  4 0.44795313E+03</rscale>
<asrwt>0</asrwt>
<pdfrwt beam="1">  1       21 0.17302129E+00 0.44795313E+03</pdfrwt>
<pdfrwt beam="2">  1        1 0.66162923E-01 0.44795313E+03</pdfrwt>
<totfact> 0.10700020E+02</totfact>
</mgrwt>
</event>
<event>
 5    0  0.4115852E+000  0.2644696E+03  0.7546771E-02  0.1104487E+00
          1   -1    0    0  502    0 -0.00000000000E+00  0.00000000000E+00  0.64140360567E+03  0.64140360567E+03  0.00000000000E+00 0.  1.
         21   -1    0    0  503  502  0.00000000000E+00 -0.00000000000E+00 -0.24813875975E+03  0.24813875975E+03  0.00000000000E+00 0.  1.
         25    1    1    2    0    0  0.19143984501E+03  0.13786179074E+03  0.51972368848E+03  0.58428828499E+03  0.12500000000E+03 0.  0.
         21    1    1    2  503  501 -0.32299059779E+02  0.17227672023E+02 -0.65164800026E+02  0.74742712745E+02  0.00000000000E+00 0.  1.
          1    1    1    2  501    0 -0.15914078523E+03 -0.15508946276E+03 -0.61294042531E+02  0.23051136769E+03  0.00000000000E+00 0.  1.
<mgrwt>
<rscale>  4 0.26446957E+03</rscale>
<asrwt>0</asrwt>
<pdfrwt beam="1">  1       21 0.38175194E-01 0.26446957E+03</pdfrwt>
<pdfrwt beam="2">  1        1 0.98677477E-01 0.26446957E+03</pdfrwt>
<totfact> 0.22904476E+03</totfact>
</mgrwt>
</event>
<event>
 5    0  0.4115852E+000  0.2565992E+03  0.7546771E-02  0.1109204E+00
         -2   -1    0    0    0  501 -0.00000000000E+00  0.00000000000E+00  0.10332722569E+04  0.10332722569E+04  0.00000000000E+00 0.  1.
         21   -1    0    0  501  502  0.00000000000E+00 -0.00000000000E+00 -0.13654922272E+04  0.13654922272E+04  0.00000000000E+00 0. -1.
         25    1    1    2    0    0 -0.12858205027E+03  0.28484229977E+03 -0.48409359446E+02  0.34005432723E+03  0.12500000000E+03 0.  0.
         21    1    1    2  503  502  0.23009537944E+02 -0.21766557702E+03 -0.11565329453E+04  0.11770625285E+04  0.00000000000E+00 0. -1.
         -2    1    1    2    0  503  0.10557251233E+03 -0.67176722749E+02  0.87272233454E+03  0.88164762839E+03  0.00000000000E+00 0.  1.
<mgrwt>
<rscale>  4 0.25659920E+03</rscale>
<asrwt>0</asrwt>
<pdfrwt beam="1">  1       21 0.21007573E+00 0.25659920E+03</pdfrwt>
<pdfrwt beam="2">  1       -2 0.15896496E+00 0.25659920E+03</pdfrwt>
<totfact> 0.24453899E+00</totfact>
</mgrwt>
</event>
<event>
 5    0  0.4115852E+000  0.3384326E+03  0.7546771E-02  0.1067465E+00
         21   -1    0    0  503  502  0.00000000000E+00  0.00000000000E+00  0.46624317874E+03  0.46624317874E+03  0.00000000000E+00 0. -1.
          1   -1    0    0  502    0 -0.00000000000E+00 -0.00000000000E+00 -0.13251058963E+04  0.13251058963E+04  0.00000000000E+00 0. -1.
         25    1    1    2    0    0 -0.11789403885E+03 -0.17285976305E+03  0.23126088571E+03  0.33598526655E+03  0.12500000000E+03 0.  0.
         21    1    1    2  503  501  0.44159539525E+02 -0.14195336335E+03  0.12730970667E+03  0.19572578704E+03  0.00000000000E+00 0. -1.
          1    1    1    2  501    0  0.73734499327E+02  0.31481312640E+03 -0.12174333099E+04  0.12596380214E+04  0.00000000000E+00 0. -1.
<mgrwt>
<rscale>  4 0.33843257E+03</rscale>
<asrwt>0</asrwt>
<pdfrwt beam="1">  1       21 0.71729720E-01 0.33843257E+03</pdfrwt>
<pdfrwt beam="2">  1        1 0.20386244E+00 0.33843257E+03</pdfrwt>
<totfact> 0.17029672E+02</totfact>
</mgrwt>
</event>
<event>
 5    0  0.4115852E+000  0.3725849E+03  0.7546771E-02  0.1053709E+00
         21   -1    0    0  503  502  0.00000000000E+00  0.00000000000E+00  0.10099254583E+03  0.10099254583E+03  0.00000000000E+00 0.  1.
          2   -1    0    0  502    0 -0.00000000000E+00 -0.00000000000E+00 -0.25861452361E+04  0.25861452361E+04  0.00000000000E+00 0.  1.
         25    1    1    2    0    0 -0.27505608454E+03  0.19632907979E+03 -0.16409706391E+04  0.16800626761E+04  0.12500000000E+03 0.  0.
         21    1    1    2  503  501 -0.84338604068E+02 -0.51944313575E+02 -0.26863208511E+02  0.10262964397E+03  0.00000000000E+00 0.  1.
          2    1    1    2  501    0  0.35939468861E+03 -0.14438476622E+03 -0.81731884259E+03  0.90444546180E+03  0.00000000000E+00 0.  1.
<mgrwt>
<rscale>  4 0.37258492E+03</rscale>
<asrwt>0</asrwt>
<pdfrwt beam="1">  1       21 0.15537314E-01 0.37258492E+03</pdfrwt>
<pdfrwt beam="2">  1        2 0.39786851E+00 0.37258492E+03</pdfrwt>
<totfact> 0.15833505E+03</totfact>
</mgrwt>
</event>
<event>
 5    0  0.4115852E+000  0.3357370E+03  0.7546771E-02  0.1068626E+00
         21   -1    0    0  501  502  0.00000000000E+00  0.00000000000E+00  0.11814806168E+04  0.11814806168E+04  0.00000000000E+00 0. -1.
         -1   -1    0    0    0  501 -0.00000000000E+00 -0.00000000000E+00 -0.37824928129E+03  0.37824928129E+03  0.00000000000E+00 0. -1.
         25    1    1    2    0    0  0.18929129015E+03 -0.27298185918E+03  0.10468249102E+04  0.11053586208E+04  0.12500000000E+03 0.  0.
         21    1    1    2  503  502 -0.12466885447E+02  0.18032990618E+02  0.32396289786E+02  0.39116896289E+02  0.00000000000E+00 0. -1.
         -1    1    1    2    0  503 -0.17682440470E+03  0.25494886856E+03 -0.27598986445E+03  0.41525438102E+03  0.00000000000E+00 0. -1.
<mgrwt>
<rscale>  4 0.33573704E+03</rscale>
<asrwt>0</asrwt>
<pdfrwt beam="1">  1       21 0.18176625E+00 0.33573704E+03</pdfrwt>
<pdfrwt beam="2">  1       -1 0.58192198E-01 0.33573704E+03</pdfrwt>
<totfact> 0.45911405E+01</totfact>
</mgrwt>
</event>
<event>
 5    0  0.4115852E+000  0.2213203E+03  0.7546771E-02  0.1132903E+00
          1   -1    0    0  502    0 -0.00000000000E+00  0.00000000000E+00  0.58734297490E+03  0.58734297490E+03  0.00000000000E+00 0. -1.
         21   -1    0    0  503  502  0.00000000000E+00 -0.00000000000E+00 -0.25491472597E+03  0.25491472597E+03  0.00000000000E+00 0.  1.
         25    1    1    2    0    0 -0.21402599125E+03 -0.18246209292E+03 -0.27068065775E+02  0.30896151940E+03  0.12500000000E+03 0.  0.
         21    1    1    2  503  501  0.66741229556E+02  0.93483284832E+02 -0.20017216200E+02  0.11659419029E+03  0.00000000000E+00 0.  1.
          1    1    1    2  501    0  0.14728476170E+03  0.88978808084E+02  0.37951353091E+03  0.41670199119E+03  0.00000000000E+00 0. -1.
<mgrwt>
<rscale>  4 0.22132025E+03</rscale>
<asrwt>0</asrwt>
<pdfrwt beam="1">  1       21 0.39217650E-01 0.22132025E+03</pdfrwt>
<pdfrwt beam="2">  1        1 0.90360457E-01 0.22132025E+03</pdfrwt>
<totfact> 0.24907489E+03</totfact>
</mgrwt>
</event>
<event>
 5    0  0.4115852E+000  0.2666870E+03  0.7546771E-02  0.1103191E+00
         21   -1    0    0  503  502  0.00000000000E+00  0.00000000000E+00  0.16037135658E+03  0.16037135658E+03  0.00000000000E+00 0. -1.
          2   -1    0    0  502    0 -0.00000000000E+00 -0.00000000000E+00 -0.12457548914E+04  0.12457548914E+04  0.00000000000E+00 0.  1.
         25    1    1    2    0    0 -0.35934919009E+02  0.25747057450E+03 -0.21559334717E+03  0.36012207164E+03  0.12500000000E+03 0.  0.
         21    1    1    2  503  501  0.85353488661E+01 -0.28225711354E+02  0.71220978930E+02  0.77084179969E+02  0.00000000000E+00 0. -1.
          2    1    1    2  501    0  0.27399570142E+02 -0.22924486315E+03 -0.94101116662E+03  0.96891999640E+03  0.00000000000E+00 0.  1.
<mgrwt>
<rscale>  4 0.26668697E+03</rscale>
<asrwt>0</asrwt>
<pdfrwt beam="1">  1       21 0.24672516E-01 0.26668697E+03</pdfrwt>
<pdfrwt beam="2">  1        2 0.19165460E+00 0.26668697E+03</pdfrwt>
<totfact> 0.36296517E+03</totfact>
</mgrwt>
</event>
<event>
 5    0  0.4115852E+000  0.3038684E+03  0.7546771E-02  0.1083323E+00
         21   -1    0    0  503  502  0.00000000000E+00  0.00000000000E+00  0.18884298748E+03  0.18884298748E+03  0.00000000000E+00 0.  1.
          1   -1    0    0  502    0 -0.00000000000E+00 -0.00000000000E+00 -0.10227081058E+04  0.10227081058E+04  0.00000000000E+00 0. -1.
         25    1    1    2    0    0 -0.21543700222E+03  0.35715901185E+02  0.22974770452E+02  0.25266888926E+03  0.12500000000E+03 0.  0.
         21    1    1    2  503  501 -0.72430088603E+02 -0.58481334126E+02 -0.58560656837E+02  0.10997970133E+03  0.00000000000E+00 0. -1.
          1    1    1    2  501    0  0.28786709083E+03  0.22765432941E+02 -0.79827923199E+03  0.84890250273E+03  0.00000000000E+00 0. -1.
<mgrwt>
<rscale>  4 0.30386841E+03</rscale>
<asrwt>0</asrwt>
<pdfrwt beam="1">  1       21 0.29052767E-01 0.30386841E+03</pdfrwt>
<pdfrwt beam="2">  1        1 0.15733971E+00 0.30386841E+03</pdfrwt>
<totfact> 0.18751662E+03</totfact>
</mgrwt>
</event>
<event>
 5    0  0.4115852E+000  0.2421866E+03  0.7546771E-02  0.1118345E+00
          1   -1    0    0  502    0 -0.00000000000E+00  0.00000000000E+00  0.20316815366E+04  0.20316815366E+04  0.00000000000E+00 0. -1.
         21   -1    0    0  503  502  0.00000000000E+00 -0.00000000000E+00 -0.39347333457E+02  0.39347333457E+02  0.00000000000E+00 0. -1.
         25    1    1    2    0    0 -0.18459114333E+03 -0.15265320781E+03  0.81163037841E+03  0.85542139511E+03  0.12500000000E+03 0.  0.
         21    1    1    2  503  501  0.11831915454E+02  0.60454452288E+02  0.10110807298E+03  0.11839585063E+03  0.00000000000E+00 0. -1.
          1    1    1    2  501    0  0.17275922788E+03  0.92198755521E+02  0.10795957518E+04  0.10972116243E+04  0.00000000000E+00 0. -1.
<mgrwt>
<rscale>  4 0.24218663E+03</rscale>
<asrwt>0</asrwt>
<pdfrwt beam="1">  1       21 0.60534375E-02 0.24218663E+03</pdfrwt>
<pdfrwt beam="2">  1        1 0.31256631E+00 0.24218663E+03</pdfrwt>
<totfact> 0.70184645E+03</totfact>
</mgrwt>
</event>
<event>
 5    0  0.4115852E+000  0.2886816E+03  0.7546771E-02  0.1091040E+00
          1   -1    0    0  502    0 -0.00000000000E+00  0.00000000000E+00  0.12197237346E+04  0.12197237346E+04  0.00000000000E+00 0. -1.
         21   -1    0    0  503  502  0.00000000000E+00 -0.00000000000E+00 -0.26105276457E+03  0.26105276457E+03  0.00000000000E+00 0. -1.
         25    1    1    2    0    0  0.42816614569E+02  0.28451432784E+03 -0.12769095824E+03  0.33869107760E+03  0.12500000000E+03 0.  0.
         21    1    1    2  503  501 -0.84227077819E+01 -0.28390854681E+02  0.47034887396E+01  0.29985086998E+02  0.00000000000E+00 0. -1.
          1    1    1    2  501    0 -0.34393906787E+02 -0.25612347316E+03  0.10816584395E+04  0.11121003346E+04  0.00000000000E+00 0. -1.
<mgrwt>
<rscale>  4 0.28868160E+03</rscale>
<asrwt>0</asrwt>
<pdfrwt beam="1">  1       21 0.40161964E-01 0.28868160E+03</pdfrwt>
<pdfrwt beam="2">  1        1 0.18764980E+00 0.28868160E+03</pdfrwt>
<totfact> 0.71161478E+02</totfact>
</mgrwt>
</event>
<event>
 5    0  0.4115852E+000  0.2510948E+03  0.7546771E-02  0.1112615E+00
         21   -1    0    0  503  502  0.00000000000E+00  0.00000000000E+00  0.16986169619E+03  0.16986169619E+03  0.00000000000E+00 0.  1.
          1   -1    0    0  502    0 -0.00000000000E+00 -0.00000000000E+00 -0.63221241291E+03  0.63221241291E+03  0.00000000000E+00 0.  1.
         25    1    1    2    0    0  0.20552291911E+03  0.12436031602E+03 -0.26542936193E+03  0.37918716309E+03  0.12500000000E+03 0.  0.
         21    1    1    2  503  501  0.11827224021E+01 -0.91588854734E+02  0.45788875567E+02  0.10240380007E+03  0.00000000000E+00 0.  1.
          1    1    1    2  501    0 -0.20670564152E+03 -0.32771461285E+02 -0.24271023036E+03  0.32048314594E+03  0.00000000000E+00 0.  1.
<mgrwt>
<rscale>  4 0.25109479E+03</rscale>
<asrwt>0</asrwt>
<pdfrwt beam="1">  1       21 0.26132569E-01 0.25109479E+03</pdfrwt>
<pdfrwt beam="2">  1        1 0.97263447E-01 0.25109479E+03</pdfrwt>
<totfact> 0.49615829E+03</totfact>
</mgrwt>
</event>
<event>
 5    0  0.4115852E+000  0.2496840E+03  0.7546771E-02  0.1113505E+00
          1   -1    0    0  502    0 -0.00000000000E+00  0.00000000000E+00  0.92860810157E+03  0.92860810157E+03  0.00000000000E+00 0. -1.
         21   -1    0    0  503  502  0.00000000000E+00 -0.00000000000E+00 -0.64361184102E+03  0.64361184102E+03  0.00000000000E+00 0.  1.
         25    1    1    2    0    0  0.21909110318E+03  0.11226521807E+03 -0.58309176440E+03  0.64515532733E+03  0.12500000000E+03 0.  0.
         21    1    1    2  503  501 -0.22847759260E+02 -0.23214553509E+02 -0.56817707996E-01  0.32572055908E+02  0.00000000000E+00 0.  1.
          1    1    1    2  501    0 -0.19624334392E+03 -0.89050664564E+02  0.86814484266E+03  0.89449255935E+03  0.00000000000E+00 0. -1.
<mgrwt>
<rscale>  4 0.24968399E+03</rscale>
<asrwt>0</asrwt>
<pdfrwt beam="1">  1       21 0.99017206E-01 0.24968399E+03</pdfrwt>
<pdfrwt beam="2">  1        1 0.14286278E+00 0.24968399E+03</pdfrwt>
<totfact> 0.16403242E+02</totfact>
</mgrwt>
</event>
<event>
 5    0  0.4115852E+000  0.2540347E+03  0.7546771E-02  0.1110781E+00
          2   -1    0    0  502    0 -0.00000000000E+00  0.00000000000E+00  0.19683269833E+03  0.19683269833E+03  0.00000000000E+00 0. -1.
         21   -1    0    0  503  502  0.00000000000E+00 -0.00000000000E+00 -0.13600774251E+04  0.13600774251E+04  0.00000000000E+00 0.  1.
         25    1    1    2    0    0 -0.22748177709E+03  0.18123193976E+03 -0.52322110590E+03  0.61153765261E+03  0.12500000000E+03 0.  0.
         21    1    1    2  503  501  0.13747486934E+03  0.14125427447E+02 -0.70677390835E+03  0.72015847209E+03  0.00000000000E+00 0.  1.
          2    1    1    2  501    0  0.90006907755E+02 -0.19535736721E+03  0.66750287455E+02  0.22521399877E+03  0.00000000000E+00 0. -1.
<mgrwt>
<rscale>  4 0.25403471E+03</rscale>
<asrwt>0</asrwt>
<pdfrwt beam="1">  1       21 0.20924268E+00 0.25403471E+03</pdfrwt>
<pdfrwt beam="2">  1        2 0.30281954E-01 0.25403471E+03</pdfrwt>
<totfact> 0.23957664E+02</totfact>
</mgrwt>
</event>
<event>
 5    0  0.4115852E+000  0.2281931E+03  0.7546771E-02  0.1127918E+00
          2   -1    0    0  502    0 -0.00000000000E+00  0.00000000000E+00  0.13778493143E+04  0.13778493143E+04  0.00000000000E+00 0. -1.
         21   -1    0    0  503  502  0.00000000000E+00 -0.00000000000E+00 -0.37286734365E+03  0.37286734365E+03  0.00000000000E+00 0.  1.
         25    1    1    2    0    0 -0.24119447005E+03  0.20361135053E+01 -0.10581469957E+03  0.29154874170E+03  0.12500000000E+03 0.  0.
         21    1    1    2  503  501  0.16560295848E+03  0.38953721294E+02 -0.13080223257E+03  0.21459486551E+03  0.00000000000E+00 0.  1.
          2    1    1    2  501    0  0.75591511575E+02 -0.40989834799E+02  0.12415989028E+04  0.12445730507E+04  0.00000000000E+00 0. -1.
<mgrwt>
<rscale>  4 0.22819314E+03</rscale>
<asrwt>0</asrwt>
<pdfrwt beam="1">  1       21 0.57364207E-01 0.22819314E+03</pdfrwt>
<pdfrwt beam="2">  1        2 0.21197681E+00 0.22819314E+03</pdfrwt>
<totfact> 0.56800840E+02</totfact>
</mgrwt>
</event>
<event>
 5    0  0.4115852E+000  0.2051387E+03  0.7546771E-02  0.1145475E+00
          2   -1    0    0  502    0 -0.00000000000E+00  0.00000000000E+00  0.39431757442E+04  0.39431757442E+04  0.00000000000E+00 0.  1.
         21   -1    0    0  503  502  0.00000000000E+00 -0.00000000000E+00 -0.19728576169E+02  0.19728576169E+02  0.00000000000E+00 0.  1.
         25    1    1    2    0    0  0.21430651225E+03 -0.53977782199E+02  0.16194952917E+04  0.16392775488E+04  0.12500000000E+03 0.  0.
         21    1    1    2  503  501 -0.66754366911E+02  0.43769363775E+02  0.21326081561E+03  0.22771051399E+03  0.00000000000E+00 0.  1.
          2    1    1    2  501    0 -0.14755214534E+03  0.10208418425E+02  0.20906910608E+04  0.20959162576E+04  0.00000000000E+00 0.  1.
<mgrwt>
<rscale>  4 0.20513868E+03</rscale>
<asrwt>0</asrwt>
<pdfrwt beam="1">  1       21 0.30351687E-02 0.20513868E+03</pdfrwt>
<pdfrwt beam="2">  1        2 0.60664180E+00 0.20513868E+03</pdfrwt>
<totfact> 0.40729858E+03</totfact>
</mgrwt>
</event>
<event>
 5    0  0.4115852E+000  0.1857929E+03  0.7546771E-02  0.1162312E+00
         -1   -1    0    0    0  501 -0.00000000000E+00  0.00000000000E+00  0.12578361849E+04  0.12578361849E+04  0.00000000000E+00 0.  1.
         21   -1    0    0  501  502  0.00000000000E+00 -0.00000000000E+00 -0.56701292248E+02  0.56701292248E+02  0.00000000000E+00 0.  1.
         25    1    1    2    0    0 -0.12432851312E+03  0.15975906331E+03  0.76520304538E+03  0.80133715634E+03  0.12500000000E+03 0.  0.
         21    1    1    2  503  502  0.89866955255E+02 -0.35773444909E+02  0.33777757190E+03  0.35135380614E+03  0.00000000000E+00 0.  1.
         -1    1    1    2    0  503  0.34461557865E+02 -0.12398561840E+03  0.98154275414E+02  0.16184651471E+03  0.00000000000E+00 0.  1.
<mgrwt>
<rscale>  4 0.18579290E+03</rscale>
<asrwt>0</asrwt>
<pdfrwt beam="1">  1       21 0.87232767E-02 0.18579290E+03</pdfrwt>
<pdfrwt beam="2">  1       -1 0.19351324E+00 0.18579290E+03</pdfrwt>
<totfact> 0.18181918E+03</totfact>
</mgrwt>
</event>
<event>
 5    0  0.5233574E+000  0.3475975E+03  0.7546771E-02  0.1063605E+00
         21   -1    0    0  503  502  0.00000000000E+00  0.00000000000E+00  0.23221638627E+03  0.23221638627E+03  0.00000000000E+00 0. -1.
          2   -1    0    0  502    0 -0.00000000000E+00 -0.00000000000E+00 -0.12807422014E+04  0.12807422014E+04  0.00000000000E+00 0.  1.
         25    1    1    2    0    0 -0.19284063303E+03  0.27471619286E+03  0.36197365261E+02  0.35998853540E+03  0.12500000000E+03 0.  0.
         21    1    1    2  503  501  0.38212217533E+02  0.90913131101E+01 -0.28838631450E+02  0.48728761597E+02  0.00000000000E+00 0.  1.
          2    1    1    2  501    0  0.15462841550E+03 -0.28380750597E+03 -0.10558845489E+04  0.11042412906E+04  0.00000000000E+00 0.  1.
<mgrwt>
<rscale>  4 0.34759753E+03</rscale>
<asrwt>0</asrwt>
<pdfrwt beam="1">  1       21 0.35725597E-01 0.34759753E+03</pdfrwt>
<pdfrwt beam="2">  1        2 0.19703727E+00 0.34759753E+03</pdfrwt>
<totfact> 0.16297918E+03</totfact>
</mgrwt>
</event>
<event>
 5    0  0.4115852E+000  0.2346153E+03  0.7546771E-02  0.1123433E+00
         21   -1    0    0  503  502  0.00000000000E+00  0.00000000000E+00  0.61585438351E+02  0.61585438351E+02  0.00000000000E+00 0.  1.
          2   -1    0    0  502    0 -0.00000000000E+00 -0.00000000000E+00 -0.12421038808E+04  0.12421038808E+04  0.00000000000E+00 0.  1.
         25    1    1    2    0    0  0.20203619685E+03  0.41198278339E+01 -0.27562901794E+03  0.36391201320E+03  0.12500000000E+03 0.  0.
         21    1    1    2  503  501 -0.49037384255E+01 -0.21660879208E+02 -0.12053079788E+02  0.25268895326E+02  0.00000000000E+00 0.  1.
          2    1    1    2  501    0 -0.19713245843E+03  0.17541051375E+02 -0.89283634473E+03  0.91450841064E+03  0.00000000000E+00 0.  1.
<mgrwt>
<rscale>  4 0.23461531E+03</rscale>
<asrwt>0</asrwt>
<pdfrwt beam="1">  1       21 0.94746829E-02 0.23461531E+03</pdfrwt>
<pdfrwt beam="2">  1        2 0.19109290E+00 0.23461531E+03</pdfrwt>
<totfact> 0.21373873E+04</totfact>
</mgrwt>
</event>
<event>
 5    0  0.4115852E+000  0.2379407E+03  0.7546771E-02  0.1121172E+00
         21   -1    0    0  503  502  0.00000000000E+00  0.00000000000E+00  0.41066882477E+03  0.41066882477E+03  0.00000000000E+00 0.  1.
          2   -1    0    0  502    0 -0.00000000000E+00 -0.00000000000E+00 -0.81537783196E+03  0.81537783196E+03  0.00000000000E+00 0. -1.
         25    1    1    2    0    0 -0.33136522948E+03 -0.36858656448E+02 -0.48063374589E+03  0.59815990634E+03  0.12500000000E+03 0.  0.
         21    1    1    2  503  501  0.19277064338E+03  0.32615151585E+02  0.30372135947E+03  0.36120760410E+03  0.00000000000E+00 0.  1.
          2    1    1    2  501    0  0.13859458610E+03  0.42435048630E+01 -0.22779662077E+03  0.26667914629E+03  0.00000000000E+00 0. -1.
<mgrwt>
<rscale>  4 0.23794073E+03</rscale>
<asrwt>0</asrwt>
<pdfrwt beam="1">  1       21 0.63179819E-01 0.23794073E+03</pdfrwt>
<pdfrwt beam="2">  1        2 0.12544274E+00 0.23794073E+03</pdfrwt>
<totfact> 0.99124091E+02</totfact>
</mgrwt>
</event>
<event>
 5    0  0.4115852E+000  0.2709587E+03  0.7546771E-02  0.1100732E+00
          2   -1    0    0  502    0 -0.00000000000E+00  0.00000000000E+00  0.75351674442E+03  0.75351674442E+03  0.00000000000E+00 0. -1.
         21   -1    0    0  503  502  0.00000000000E+00 -0.00000000000E+00 -0.10280412058E+03  0.10280412058E+03  0.00000000000E+00 0. -1.
         25    1    1    2    0    0  0.17383617941E+01  0.23359487154E+03  0.30995050978E+03  0.40775471110E+03  0.12500000000E+03 0.  0.
         21    1    1    2  503  501 -0.24633472118E+02  0.11823121053E+02 -0.82307152508E+00  0.27336268706E+02  0.00000000000E+00 0. -1.
          2    1    1    2  501    0  0.22895110324E+02 -0.24541799260E+03  0.34158518559E+03  0.42122988519E+03  0.00000000000E+00 0. -1.
<mgrwt>
<rscale>  4 0.27095875E+03</rscale>
<asrwt>0</asrwt>
<pdfrwt beam="1">  1       21 0.15816019E-01 0.27095875E+03</pdfrwt>
<pdfrwt beam="2">  1        2 0.11592565E+00 0.27095875E+03</pdfrwt>
<totfact> 0.16962000E+04</totfact>
</mgrwt>
</event>
<event>
 5    0  0.4115852E+000  0.2485117E+03  0.7546771E-02  0.1114249E+00
          2   -1    0    0  502    0 -0.00000000000E+00  0.00000000000E+00  0.13987678505E+04  0.13987678505E+04  0.00000000000E+00 0.  1.
         21   -1    0    0  503  502  0.00000000000E+00 -0.00000000000E+00 -0.18986444851E+03  0.18986444851E+03  0.00000000000E+00 0.  1.
         25    1    1    2    0    0 -0.21982155775E+03 -0.95077204018E+02  0.12621335178E+03  0.29818786384E+03  0.12500000000E+03 0.  0.
         21    1    1    2  503  501  0.54951170929E+02 -0.39659733287E+02 -0.82041245850E+02  0.10641095644E+03  0.00000000000E+00 0.  1.
          2    1    1    2  501    0  0.16487038682E+03  0.13473693731E+03  0.11647312961E+04  0.11840334787E+04  0.00000000000E+00 0.  1.
<mgrwt>
<rscale>  4 0.24851172E+03</rscale>
<asrwt>0</asrwt>
<pdfrwt beam="1">  1       21 0.29209916E-01 0.24851172E+03</pdfrwt>
<pdfrwt beam="2">  1        2 0.21519505E+00 0.24851172E+03</pdfrwt>
<totfact> 0.21699184E+03</totfact>
</mgrwt>
</event>
<event>
 5    0  0.4115852E+000  0.2296476E+03  0.7546771E-02  0.1126888E+00
          2   -1    0    0  502    0 -0.00000000000E+00  0.00000000000E+00  0.99630883384E+03  0.99630883384E+03  0.00000000000E+00 0. -1.
         21   -1    0    0  503  502  0.00000000000E+00 -0.00000000000E+00 -0.28319445177E+03  0.28319445177E+03  0.00000000000E+00 0.  1.
         25    1    1    2    0    0 -0.20311592383E+03 -0.13009959788E+03 -0.16950014981E+03  0.32021443545E+03  0.12500000000E+03 0.  0.
         21    1    1    2  503  501  0.22231321813E+02  0.69170745656E+02  0.19368116674E+02  0.75192736802E+02  0.00000000000E+00 0. -1.
          2    1    1    2  501    0  0.18088460202E+03  0.60928852227E+02  0.86324641521E+03  0.88409611336E+03  0.00000000000E+00 0. -1.
<mgrwt>
<rscale>  4 0.22964758E+03</rscale>
<asrwt>0</asrwt>
<pdfrwt beam="1">  1       21 0.43568378E-01 0.22964758E+03</pdfrwt>
<pdfrwt beam="2">  1        2 0.15327828E+00 0.22964758E+03</pdfrwt>
<totfact> 0.16681587E+03</totfact>
</mgrwt>
</event>
<event>
 5    0  0.4115852E+000  0.2522524E+03  0.7546771E-02  0.1111890E+00
          2   -1    0    0  502    0 -0.00000000000E+00  0.00000000000E+00  0.35979870131E+04  0.35979870131E+04  0.00000000000E+00 0.  1.
         21   -1    0    0  503  502  0.00000000000E+00 -0.00000000000E+00 -0.92319051024E+02  0.92319051024E+02  0.00000000000E+00 0. -1.
         25    1    1    2    0    0  0.75492292978E+01 -0.26241881887E+03  0.43560880123E+03  0.52373720039E+03  0.12500000000E+03 0.  0.
         21    1    1    2  503  501 -0.99790609932E+01  0.46995255779E+02 -0.31556577641E+02  0.57480025369E+02  0.00000000000E+00 0. -1.
          2    1    1    2  501    0  0.24298316955E+01  0.21542356310E+03  0.31016157385E+04  0.31090888384E+04  0.00000000000E+00 0.  1.
<mgrwt>
<rscale>  4 0.25225242E+03</rscale>
<asrwt>0</asrwt>
<pdfrwt beam="1">  1       21 0.14202934E-01 0.25225242E+03</pdfrwt>
<pdfrwt beam="2">  1        2 0.55353636E+00 0.25225242E+03</pdfrwt>
<totfact> 0.47891091E+02</totfact>
</mgrwt>
</event>
<event>
 5    0  0.4115852E+000  0.2541630E+03  0.7546771E-02  0.1110702E+00
         -1   -1    0    0    0  501 -0.00000000000E+00  0.00000000000E+00  0.69305767680E+03  0.69305767680E+03  0.00000000000E+00 0. -1.
         21   -1    0    0  501  502  0.00000000000E+00 -0.00000000000E+00 -0.31799627493E+03  0.31799627493E+03  0.00000000000E+00 0.  1.
         25    1    1    2    0    0 -0.21443186251E+03  0.18291020706E+03  0.28839920764E+03  0.42218037671E+03  0.12500000000E+03 0.  0.
         21    1    1    2  503  502  0.16514127869E+03 -0.13523870091E+03 -0.20097483175E+03  0.29317576835E+03  0.00000000000E+00 0.  1.
         -1    1    1    2    0  503  0.49290583822E+02 -0.47671506155E+02  0.28763702598E+03  0.29569780667E+03  0.00000000000E+00 0. -1.
<mgrwt>
<rscale>  4 0.25416304E+03</rscale>
<asrwt>0</asrwt>
<pdfrwt beam="1">  1       21 0.48922504E-01 0.25416304E+03</pdfrwt>
<pdfrwt beam="2">  1       -1 0.10662426E+00 0.25416304E+03</pdfrwt>
<totfact> 0.31702026E+02</totfact>
</mgrwt>
</event>
<event>
 5    0  0.4115852E+000  0.2266290E+03  0.7546771E-02  0.1129035E+00
         21   -1    0    0  503  502  0.00000000000E+00  0.00000000000E+00  0.23767444708E+03  0.23767444708E+03  0.00000000000E+00 0.  1.
          2   -1    0    0  502    0 -0.00000000000E+00 -0.00000000000E+00 -0.15664163026E+04  0.15664163026E+04  0.00000000000E+00 0. -1.
         25    1    1    2    0    0 -0.20453271158E+03 -0.28588957188E+02  0.16162463369E+03  0.29051416625E+03  0.12500000000E+03 0.  0.
         21    1    1    2  503  501  0.20558760080E+02 -0.12887209902E+02 -0.20801907014E+02  0.31960321189E+02  0.00000000000E+00 0.  1.
          2    1    1    2  501    0  0.18397395150E+03  0.41476167090E+02 -0.14695645822E+04  0.14816162623E+04  0.00000000000E+00 0. -1.
<mgrwt>
<rscale>  4 0.22662905E+03</rscale>
<asrwt>0</asrwt>
<pdfrwt beam="1">  1       21 0.36565299E-01 0.22662905E+03</pdfrwt>
<pdfrwt beam="2">  1        2 0.24098713E+00 0.22662905E+03</pdfrwt>
<totfact> 0.11440430E+03</totfact>
</mgrwt>
</event>
<event>
 5    0  0.4115852E+000  0.2706307E+03  0.7546771E-02  0.1100919E+00
         21   -1    0    0  503  502  0.00000000000E+00  0.00000000000E+00  0.39842183486E+03  0.39842183486E+03  0.00000000000E+00 0.  1.
          4   -1    0    0  502    0 -0.00000000000E+00 -0.00000000000E+00 -0.70324644209E+03  0.70324644209E+03  0.00000000000E+00 0.  1.
         25    1    1    2    0    0  0.46005199744E+02  0.21078125867E+03 -0.13578292915E+03  0.28391410894E+03  0.12500000000E+03 0.  0.
         21    1    1    2  503  501 -0.36586315562E+02  0.40733671118E+02  0.28952458088E+03  0.29465619522E+03  0.00000000000E+00 0.  1.
          4    1    1    2  501    0 -0.94188841821E+01 -0.25151492978E+03 -0.45856625895E+03  0.52309797279E+03  0.00000000000E+00 0.  1.
<mgrwt>
<rscale>  4 0.27063067E+03</rscale>
<asrwt>0</asrwt>
<pdfrwt beam="1">  1       21 0.61295667E-01 0.27063067E+03</pdfrwt>
<pdfrwt beam="2">  1        4 0.10819176E+00 0.27063067E+03</pdfrwt>
<totfact> 0.72451077E+01</totfact>
</mgrwt>
</event>
<event>
 5    0  0.4115852E+000  0.2637231E+03  0.7546771E-02  0.1104927E+00
         21   -1    0    0  503  502  0.00000000000E+00  0.00000000000E+00  0.10152903601E+03  0.10152903601E+03  0.00000000000E+00 0. -1.
          2   -1    0    0  502    0 -0.00000000000E+00 -0.00000000000E+00 -0.25825701045E+04  0.25825701045E+04  0.00000000000E+00 0.  1.
         25    1    1    2    0    0  0.33510756105E+03  0.12926829682E+03 -0.19015696089E+04  0.19392264817E+04  0.12500000000E+03 0.  0.
         21    1    1    2  503  501 -0.17294515397E+03 -0.13889497336E+03 -0.10900856607E+03  0.24715320630E+03  0.00000000000E+00 0. -1.
          2    1    1    2  501    0 -0.16216240708E+03  0.96266765443E+01 -0.47046289355E+03  0.49771945248E+03  0.00000000000E+00 0.  1.
<mgrwt>
<rscale>  4 0.26372312E+03</rscale>
<asrwt>0</asrwt>
<pdfrwt beam="1">  1       21 0.15619851E-01 0.26372312E+03</pdfrwt>
<pdfrwt beam="2">  1        2 0.39731850E+00 0.26372312E+03</pdfrwt>
<totfact> 0.16505636E+03</totfact>
</mgrwt>
</event>
<event>
 5    0  0.4115852E+000  0.1929702E+03  0.7546771E-02  0.1155809E+00
         21   -1    0    0  503  502  0.00000000000E+00  0.00000000000E+00  0.32248767489E+03  0.32248767489E+03  0.00000000000E+00 0. -1.
          1   -1    0    0  502    0 -0.00000000000E+00 -0.00000000000E+00 -0.65380416873E+03  0.65380416873E+03  0.00000000000E+00 0. -1.
         25    1    1    2    0    0  0.20700900296E+03  0.76281291890E+02  0.93751773615E+01  0.25374092447E+03  0.12500000000E+03 0.  0.
         21    1    1    2  503  501 -0.64497253124E+02 -0.83217092465E+02  0.16576782425E+03  0.19637706509E+03  0.00000000000E+00 0. -1.
          1    1    1    2  501    0 -0.14251174984E+03  0.69358005756E+01 -0.50645949544E+03  0.52617385406E+03  0.00000000000E+00 0. -1.
<mgrwt>
<rscale>  4 0.19297015E+03</rscale>
<asrwt>0</asrwt>
<pdfrwt beam="1">  1       21 0.49613489E-01 0.19297015E+03</pdfrwt>
<pdfrwt beam="2">  1        1 0.10058525E+00 0.19297015E+03</pdfrwt>
<totfact> 0.13406816E+03</totfact>
</mgrwt>
</event>
<event>
 5    0  0.4115852E+000  0.2552862E+03  0.7546771E-02  0.1110009E+00
         -1   -1    0    0    0  501 -0.00000000000E+00  0.00000000000E+00  0.14505999128E+04  0.14505999128E+04  0.00000000000E+00 0. -1.
         21   -1    0    0  501  502  0.00000000000E+00 -0.00000000000E+00 -0.27026626970E+03  0.27026626970E+03  0.00000000000E+00 0. -1.
         25    1    1    2    0    0  0.16918290595E+03 -0.11989606744E+03 -0.21182578070E+02  0.24304654753E+03  0.12500000000E+03 0.  0.
         21    1    1    2  503  502  0.26990554131E+01 -0.23289929989E+02 -0.12773814247E+03  0.12987200923E+03  0.00000000000E+00 0. -1.
         -1    1    1    2    0  503 -0.17188196136E+03  0.14318599743E+03  0.13292543636E+04  0.13479476257E+04  0.00000000000E+00 0. -1.
<mgrwt>
<rscale>  4 0.25528623E+03</rscale>
<asrwt>0</asrwt>
<pdfrwt beam="1">  1       21 0.41579427E-01 0.25528623E+03</pdfrwt>
<pdfrwt beam="2">  1       -1 0.22316921E+00 0.25528623E+03</pdfrwt>
<totfact> 0.60104051E+01</totfact>
</mgrwt>
</event>
<event>
 5    0  0.4115852E+000  0.2481844E+03  0.7546771E-02  0.1114458E+00
          1   -1    0    0  502    0 -0.00000000000E+00  0.00000000000E+00  0.14280315353E+04  0.14280315353E+04  0.00000000000E+00 0.  1.
         21   -1    0    0  503  502  0.00000000000E+00 -0.00000000000E+00 -0.65264104850E+03  0.65264104850E+03  0.00000000000E+00 0. -1.
         25    1    1    2    0    0  0.10037168537E+03 -0.22032430811E+03 -0.40168092143E+03  0.48537597655E+03  0.12500000000E+03 0.  0.
         21    1    1    2  503  501 -0.48544755375E+02  0.12731787059E+02 -0.19770204011E+03  0.20397251859E+03  0.00000000000E+00 0. -1.
          1    1    1    2  501    0 -0.51826929998E+02  0.20759252105E+03  0.13747734483E+04  0.13913240887E+04  0.00000000000E+00 0.  1.
<mgrwt>
<rscale>  4 0.24818444E+03</rscale>
<asrwt>0</asrwt>
<pdfrwt beam="1">  1       21 0.10040632E+00 0.24818444E+03</pdfrwt>
<pdfrwt beam="2">  1        1 0.21969716E+00 0.24818444E+03</pdfrwt>
<totfact> 0.70270402E+01</totfact>
</mgrwt>
</event>
<event>
 5    0  0.4115852E+000  0.2509557E+03  0.7546771E-02  0.1112702E+00
          1   -1    0    0  502    0 -0.00000000000E+00  0.00000000000E+00  0.11906383099E+04  0.11906383099E+04  0.00000000000E+00 0.  1.
         21   -1    0    0  503  502  0.00000000000E+00 -0.00000000000E+00 -0.52943561772E+02  0.52943561772E+02  0.00000000000E+00 0.  1.
         25    1    1    2    0    0  0.39138503985E+02  0.21391388725E+03  0.64430308990E+03  0.69140613629E+03  0.12500000000E+03 0.  0.
         21    1    1    2  503  501  0.22046732861E+02 -0.43249118930E+01  0.17132258268E+02  0.28253806223E+02  0.00000000000E+00 0.  1.
          1    1    1    2  501    0 -0.61185236846E+02 -0.20958897536E+03  0.47625939999E+03  0.52392192918E+03  0.00000000000E+00 0.  1.
<mgrwt>
<rscale>  4 0.25095570E+03</rscale>
<asrwt>0</asrwt>
<pdfrwt beam="1">  1       21 0.81451643E-02 0.25095570E+03</pdfrwt>
<pdfrwt beam="2">  1        1 0.18317510E+00 0.25095570E+03</pdfrwt>
<totfact> 0.15046711E+04</totfact>
</mgrwt>
</event>
<event>
 5    0  0.4115852E+000  0.2738900E+03  0.7546771E-02  0.1099074E+00
          1   -1    0    0  502    0 -0.00000000000E+00  0.00000000000E+00  0.11564119348E+04  0.11564119348E+04  0.00000000000E+00 0.  1.
         21   -1    0    0  503  502  0.00000000000E+00 -0.00000000000E+00 -0.83935706843E+02  0.83935706843E+02  0.00000000000E+00 0. -1.
         25    1    1    2    0    0  0.67620078646E+02 -0.25165565931E+03  0.28941874889E+03  0.40901254028E+03  0.12500000000E+03 0.  0.
         21    1    1    2  503  501 -0.14525323864E+02  0.19023050799E+02  0.18049613949E+02  0.29977492536E+02  0.00000000000E+00 0. -1.
          1    1    1    2  501    0 -0.53094754782E+02  0.23263260851E+03  0.76500786512E+03  0.80135760883E+03  0.00000000000E+00 0.  1.
<mgrwt>
<rscale>  4 0.27388997E+03</rscale>
<asrwt>0</asrwt>
<pdfrwt beam="1">  1       21 0.12913186E-01 0.27388997E+03</pdfrwt>
<pdfrwt beam="2">  1        1 0.17790952E+00 0.27388997E+03</pdfrwt>
<totfact> 0.69578055E+03</totfact>
</mgrwt>
</event>
<event>
 5    0  0.4115852E+000  0.2772525E+03  0.7546771E-02  0.1097199E+00
          2   -1    0    0  502    0 -0.00000000000E+00  0.00000000000E+00  0.22050811542E+04  0.22050811542E+04  0.00000000000E+00 0. -1.
         21   -1    0    0  503  502  0.00000000000E+00 -0.00000000000E+00 -0.75505944677E+02  0.75505944677E+02  0.00000000000E+00 0. -1.
         25    1    1    2    0    0 -0.25660120052E+03 -0.32518657205E+02  0.46782683366E+03  0.54898869339E+03  0.12500000000E+03 0.  0.
         21    1    1    2  503  501  0.44546504639E+02 -0.98587004322E+02  0.91524763826E+02  0.14170593103E+03  0.00000000000E+00 0. -1.
          2    1    1    2  501    0  0.21205469588E+03  0.13110566153E+03  0.15702236120E+04  0.15898924744E+04  0.00000000000E+00 0. -1.
<mgrwt>
<rscale>  4 0.27725249E+03</rscale>
<asrwt>0</asrwt>
<pdfrwt beam="1">  1       21 0.11616301E-01 0.27725249E+03</pdfrwt>
<pdfrwt beam="2">  1        2 0.33924321E+00 0.27725249E+03</pdfrwt>
<totfact> 0.45039720E+03</totfact>
</mgrwt>
</event>
<event>
 5    0  0.4115852E+000  0.3756342E+03  0.7546771E-02  0.1052559E+00
         21   -1    0    0  503  502  0.00000000000E+00  0.00000000000E+00  0.20848672589E+03  0.20848672589E+03  0.00000000000E+00 0.  1.
          1   -1    0    0  502    0 -0.00000000000E+00 -0.00000000000E+00 -0.15005688834E+04  0.15005688834E+04  0.00000000000E+00 0.  1.
         25    1    1    2    0    0 -0.36844439334E+03  0.54775350262E+02 -0.68054929422E+02  0.39875817659E+03  0.12500000000E+03 0.  0.
         21    1    1    2  503  501  0.22883498382E+02  0.98258413292E+01  0.10251211636E+02  0.26931190022E+02  0.00000000000E+00 0.  1.
          1    1    1    2  501    0  0.34556089496E+03 -0.64601191591E+02 -0.12342784397E+04  0.12833662426E+04  0.00000000000E+00 0.  1.
<mgrwt>
<rscale>  4 0.37563418E+03</rscale>
<asrwt>0</asrwt>
<pdfrwt beam="1">  1       21 0.32074881E-01 0.37563418E+03</pdfrwt>
<pdfrwt beam="2">  1        1 0.23085675E+00 0.37563418E+03</pdfrwt>
<totfact> 0.69667774E+02</totfact>
</mgrwt>
</event>
<event>
 5    0  0.4115852E+000  0.2733987E+03  0.7546771E-02  0.1099350E+00
         21   -1    0    0  503  502  0.00000000000E+00  0.00000000000E+00  0.86851340479E+03  0.86851340479E+03  0.00000000000E+00 0. -1.
          2   -1    0    0  502    0 -0.00000000000E+00 -0.00000000000E+00 -0.45252598019E+03  0.45252598019E+03  0.00000000000E+00 0. -1.
         25    1    1    2    0    0  0.88794409986E+02  0.19359397707E+03  0.48479800111E+03  0.54407460617E+03  0.12500000000E+03 0.  0.
         21    1    1    2  503  501 -0.15259920593E+02  0.40481134584E+02  0.31689555676E+03  0.31983492825E+03  0.00000000000E+00 0. -1.
          2    1    1    2  501    0 -0.73534489392E+02 -0.23407511166E+03 -0.38570613327E+03  0.45712985055E+03  0.00000000000E+00 0. -1.
<mgrwt>
<rscale>  4 0.27339872E+03</rscale>
<asrwt>0</asrwt>
<pdfrwt beam="1">  1       21 0.13361745E+00 0.27339872E+03</pdfrwt>
<pdfrwt beam="2">  1        2 0.69619382E-01 0.27339872E+03</pdfrwt>
<totfact> 0.33417299E+02</totfact>
</mgrwt>
</event>
<event>
 5    0  0.4115852E+000  0.3086434E+03  0.7546771E-02  0.1080998E+00
         21   -1    0    0  501  502  0.00000000000E+00  0.00000000000E+00  0.20820107936E+03  0.20820107936E+03  0.00000000000E+00 0. -1.
         -3   -1    0    0    0  501 -0.00000000000E+00 -0.00000000000E+00 -0.80729618483E+03  0.80729618483E+03  0.00000000000E+00 0. -1.
         25    1    1    2    0    0 -0.12387060207E+03  0.23572814823E+03 -0.20836030885E+03  0.36048676013E+03  0.12500000000E+03 0.  0.
         21    1    1    2  503  502  0.17733885513E+01  0.28209906104E+02  0.89350499149E+02  0.93714755549E+02  0.00000000000E+00 0. -1.
         -3    1    1    2    0  503  0.12209721351E+03 -0.26393805434E+03 -0.48008529577E+03  0.56129574851E+03  0.00000000000E+00 0. -1.
<mgrwt>
<rscale>  4 0.30864340E+03</rscale>
<asrwt>0</asrwt>
<pdfrwt beam="1">  1       21 0.32030936E-01 0.30864340E+03</pdfrwt>
<pdfrwt beam="2">  1       -3 0.12419941E+00 0.30864340E+03</pdfrwt>
<totfact> 0.24630810E+02</totfact>
</mgrwt>
</event>
