<event>
 5    0  0.2159162E+000  0.5139424E+03  0.7546771E-02  0.1010202E+00
         21   -1    0    0  502  501  0.00000000000E+00  0.00000000000E+00  0.93017359073E+03  0.93017359073E+03  0.00000000000E+00 0.  1.
         21   -1    0    0  503  502 -0.00000000000E+00 -0.00000000000E+00 -0.30669266329E+03  0.30669266329E+03  0.00000000000E+00 0.  1.
         25    1    1    2    0    0  0.49059443504E+03  0.12632500519E+03  0.41679470418E+03  0.66782013451E+03  0.12500000000E+03 0.  0.
         21    1    1    2  503  504 -0.47916077172E+03 -0.96038861785E+02  0.21751234440E+03  0.53491132732E+03  0.00000000000E+00 0.  1.
         21    1    1    2  504  501 -0.11433663317E+02 -0.30286143406E+02 -0.10826121136E+02  0.34134792193E+02  0.00000000000E+00 0.  1.
<mgrwt>
<rscale>  4 0.51394243E+03</rscale>
<asrwt>0</asrwt>
<pdfrwt beam="1">  1       21 0.14310363E+00 0.51394243E+03</pdfrwt>
<pdfrwt beam="2">  1       21 0.47183487E-01 0.51394243E+03</pdfrwt>
<totfact> 0.12037025E+03</totfact>
</mgrwt>
</event>
<event>
 5    0  0.2159162E+000  0.2201066E+03  0.7546771E-02  0.1133804E+00
         21   -1    0    0  502  501  0.00000000000E+00  0.00000000000E+00  0.99540656034E+02  0.99540656034E+02  0.00000000000E+00 0.  1.
         21   -1    0    0  503  502 -0.00000000000E+00 -0.00000000000E+00 -0.17147712284E+04  0.17147712284E+04  0.00000000000E+00 0.  1.
         25    1    1    2    0    0 -0.63362852549E+02  0.19664104385E+03 -0.11257790943E+03  0.26642322891E+03  0.12500000000E+03 0.  0.
         21    1    1    2  503  504 -0.26959047820E+02 -0.15210301847E+03 -0.26951143850E+03  0.31064213167E+03  0.00000000000E+00 0.  1.
         21    1    1    2  504  501  0.90321900369E+02 -0.44538025387E+02 -0.12331412244E+04  0.12372465238E+04  0.00000000000E+00 0.  1.
<mgrwt>
<rscale>  4 0.22010662E+03</rscale>
<asrwt>0</asrwt>
<pdfrwt beam="1">  1       21 0.15313949E-01 0.22010662E+03</pdfrwt>
<pdfrwt beam="2">  1       21 0.26381093E+00 0.22010662E+03</pdfrwt>
<totfact> 0.20227500E+03</totfact>
</mgrwt>
</event>
<event>
 5    0  0.3511399E+000  0.2664617E+03  0.7546771E-02  0.1103322E+00
         21   -1    0    0  502  501  0.00000000000E+00  0.00000000000E+00  0.32671354695E+03  0.32671354695E+03  0.00000000000E+00 0. -1.
         21   -1    0    0  503  502 -0.00000000000E+00 -0.00000000000E+00 -0.20270557968E+03  0.20270557968E+03  0.00000000000E+00 0. -1.
         25    1    1    2    0    0 -0.31623586300E+02 -0.23318826810E+03  0.58759242055E+02  0.27286346057E+03  0.12500000000E+03 0.  0.
         21    1    1    2  503  504  0.30860922529E+02  0.63836487702E+02  0.49494860991E+02  0.86471006505E+02  0.00000000000E+00 0.  1.
         21    1    1    2  504  501  0.76266377120E+00  0.16935178039E+03  0.15753864229E+02  0.17008465956E+03  0.00000000000E+00 0. -1.
<mgrwt>
<rscale>  4 0.26646167E+03</rscale>
<asrwt>0</asrwt>
<pdfrwt beam="1">  1       21 0.50263623E-01 0.26646167E+03</pdfrwt>
<pdfrwt beam="2">  1       21 0.31185474E-01 0.26646167E+03</pdfrwt>
<totfact> 0.35978500E+04</totfact>
</mgrwt>
</event>
<event>
 5    0  0.2159162E+000  0.3549884E+03  0.7546771E-02  0.1060586E+00
         21   -1    0    0  502  501  0.00000000000E+00  0.00000000000E+00  0.42035485825E+02  0.42035485825E+02  0.00000000000E+00 0. -1.
         21   -1    0    0  503  502 -0.00000000000E+00 -0.00000000000E+00 -0.28543945265E+04  0.28543945265E+04  0.00000000000E+00 0.  1.
         25    1    1    2    0    0 -0.31146413542E+03  0.11567984163E+03 -0.15327070875E+04  0.15732792980E+04  0.12500000000E+03 0.  0.
         21    1    1    2  503  504  0.27266417009E+03 -0.84289598613E+02 -0.11255330228E+04  0.11611524756E+04  0.00000000000E+00 0.  1.
         21    1    1    2  504  501  0.38799965330E+02 -0.31390243018E+02 -0.15411893040E+03  0.16199823880E+03  0.00000000000E+00 0.  1.
<mgrwt>
<rscale>  4 0.35498836E+03</rscale>
<asrwt>0</asrwt>
<pdfrwt beam="1">  1       21 0.64669985E-02 0.35498836E+03</pdfrwt>
<pdfrwt beam="2">  1       21 0.43913757E+00 0.35498836E+03</pdfrwt>
<totfact> 0.70624931E+02</totfact>
</mgrwt>
</event>
<event>
 5    0  0.2159162E+000  0.3125878E+03  0.7546771E-02  0.1079112E+00
         21   -1    0    0  502  501  0.00000000000E+00  0.00000000000E+00  0.32804751188E+03  0.32804751188E+03  0.00000000000E+00 0.  1.
         21   -1    0    0  503  502 -0.00000000000E+00 -0.00000000000E+00 -0.10659551796E+04  0.10659551796E+04  0.00000000000E+00 0. -1.
         25    1    1    2    0    0  0.23904585564E+03  0.15490621674E+03  0.22010340403E+03  0.38106346656E+03  0.12500000000E+03 0.  0.
         21    1    1    2  503  504  0.17444633848E+02  0.11877863565E+02 -0.39068149263E+02  0.44404044633E+02  0.00000000000E+00 0. -1.
         21    1    1    2  504  501 -0.25649048949E+03 -0.16678408030E+03 -0.91894292248E+03  0.96853518027E+03  0.00000000000E+00 0. -1.
<mgrwt>
<rscale>  4 0.31258776E+03</rscale>
<asrwt>0</asrwt>
<pdfrwt beam="1">  1       21 0.50468848E-01 0.31258776E+03</pdfrwt>
<pdfrwt beam="2">  1       21 0.16399310E+00 0.31258776E+03</pdfrwt>
<totfact> 0.79397608E+02</totfact>
</mgrwt>
</event>
<event>
 5    0  0.2429784E+000  0.2779038E+03  0.7546771E-02  0.1096839E+00
         21   -1    0    0  502  501  0.00000000000E+00  0.00000000000E+00  0.12398579757E+04  0.12398579757E+04  0.00000000000E+00 0. -1.
         21   -1    0    0  503  502 -0.00000000000E+00 -0.00000000000E+00 -0.59834325308E+02  0.59834325308E+02  0.00000000000E+00 0. -1.
         25    1    1    2    0    0 -0.14334489225E+03 -0.20262719279E+03  0.58628977236E+03  0.64881910774E+03  0.12500000000E+03 0.  0.
         21    1    1    2  503  504  0.99575058732E+02  0.18173186357E+03  0.39213197483E+03  0.44351905059E+03  0.00000000000E+00 0. -1.
         21    1    1    2  504  501  0.43769833514E+02  0.20895329225E+02  0.20160190318E+03  0.20735414265E+03  0.00000000000E+00 0. -1.
<mgrwt>
<rscale>  4 0.27790383E+03</rscale>
<asrwt>0</asrwt>
<pdfrwt beam="1">  1       21 0.19074736E+00 0.27790383E+03</pdfrwt>
<pdfrwt beam="2">  1       21 0.92052817E-02 0.27790383E+03</pdfrwt>
<totfact> 0.13675459E+04</totfact>
</mgrwt>
</event>
<event>
 5    0  0.2159162E+000  0.2979540E+03  0.7546771E-02  0.1086268E+00
         21   -1    0    0  502  501  0.00000000000E+00  0.00000000000E+00  0.89995414091E+03  0.89995414091E+03  0.00000000000E+00 0.  1.
         21   -1    0    0  503  502 -0.00000000000E+00 -0.00000000000E+00 -0.16002980903E+03  0.16002980903E+03  0.00000000000E+00 0.  1.
         25    1    1    2    0    0  0.14558639815E+03 -0.19951215733E+03  0.27763060976E+03  0.39205134322E+03  0.12500000000E+03 0.  0.
         21    1    1    2  503  504 -0.51102661791E+02  0.29632992198E+03  0.16899304483E+03  0.34493702890E+03  0.00000000000E+00 0.  1.
         21    1    1    2  504  501 -0.94483736356E+02 -0.96817764656E+02  0.29330067729E+03  0.32299557781E+03  0.00000000000E+00 0.  1.
<mgrwt>
<rscale>  4 0.29795396E+03</rscale>
<asrwt>0</asrwt>
<pdfrwt beam="1">  1       21 0.13845448E+00 0.29795396E+03</pdfrwt>
<pdfrwt beam="2">  1       21 0.24619971E-01 0.29795396E+03</pdfrwt>
<totfact> 0.53532265E+03</totfact>
</mgrwt>
</event>
<event>
 5    0  0.2732114E+000  0.2534400E+03  0.7546771E-02  0.1111150E+00
         21   -1    0    0  502  501  0.00000000000E+00  0.00000000000E+00  0.10408764734E+04  0.10408764734E+04  0.00000000000E+00 0.  1.
         21   -1    0    0  503  502 -0.00000000000E+00 -0.00000000000E+00 -0.88202200651E+02  0.88202200651E+02  0.00000000000E+00 0.  1.
         25    1    1    2    0    0 -0.21520141736E+03  0.47907968667E+02  0.83046103362E+03  0.86827262531E+03  0.12500000000E+03 0.  0.
         21    1    1    2  503  504  0.17620203426E+03 -0.62308930569E+02  0.11240030923E+03  0.21809032354E+03  0.00000000000E+00 0.  1.
         21    1    1    2  504  501  0.38999383104E+02  0.14400961902E+02  0.98129298903E+01  0.42715725198E+02  0.00000000000E+00 0.  1.
<mgrwt>
<rscale>  4 0.25343998E+03</rscale>
<asrwt>0</asrwt>
<pdfrwt beam="1">  1       21 0.16013483E+00 0.25343998E+03</pdfrwt>
<pdfrwt beam="2">  1       21 0.13569570E-01 0.25343998E+03</pdfrwt>
<totfact> 0.11337832E+04</totfact>
</mgrwt>
</event>
<event>
 5    0  0.3326338E+000  0.2970398E+03  0.7546771E-02  0.1086730E+00
         21   -1    0    0  502  501  0.00000000000E+00  0.00000000000E+00  0.11960744639E+03  0.11960744639E+03  0.00000000000E+00 0.  1.
         21   -1    0    0  503  502 -0.00000000000E+00 -0.00000000000E+00 -0.70777134914E+03  0.70777134914E+03  0.00000000000E+00 0.  1.
         25    1    1    2    0    0 -0.18494496335E+03 -0.19596691448E+03 -0.28747168899E+03  0.41336744310E+03  0.12500000000E+03 0.  0.
         21    1    1    2  503  504  0.41843512498E+02  0.32013617986E+02 -0.12035156267E+03  0.13137827032E+03  0.00000000000E+00 0.  1.
         21    1    1    2  504  501  0.14310145085E+03  0.16395329649E+03 -0.18034065108E+03  0.28263308211E+03  0.00000000000E+00 0.  1.
<mgrwt>
<rscale>  4 0.29703985E+03</rscale>
<asrwt>0</asrwt>
<pdfrwt beam="1">  1       21 0.18401145E-01 0.29703985E+03</pdfrwt>
<pdfrwt beam="2">  1       21 0.10888790E+00 0.29703985E+03</pdfrwt>
<totfact> 0.17063560E+04</totfact>
</mgrwt>
</event>
<event>
 5    0  0.2159162E+000  0.2846316E+03  0.7546771E-02  0.1093186E+00
         21   -1    0    0  502  501  0.00000000000E+00  0.00000000000E+00  0.50066412123E+03  0.50066412123E+03  0.00000000000E+00 0. -1.
         21   -1    0    0  503  502 -0.00000000000E+00 -0.00000000000E+00 -0.65518535968E+03  0.65518535968E+03  0.00000000000E+00 0. -1.
         25    1    1    2    0    0 -0.33401091580E+02 -0.25216324003E+03  0.39920065552E+03  0.48957950928E+03  0.12500000000E+03 0.  0.
         21    1    1    2  503  504 -0.28350761035E+02  0.25467807531E+03 -0.54706855591E+03  0.60410983484E+03  0.00000000000E+00 0. -1.
         21    1    1    2  504  501  0.61751852615E+02 -0.25148352787E+01 -0.66533380594E+01  0.62160136785E+02  0.00000000000E+00 0. -1.
<mgrwt>
<rscale>  4 0.28463162E+03</rscale>
<asrwt>0</asrwt>
<pdfrwt beam="1">  1       21 0.77025249E-01 0.28463162E+03</pdfrwt>
<pdfrwt beam="2">  1       21 0.10079775E+00 0.28463162E+03</pdfrwt>
<totfact> 0.11187934E+03</totfact>
</mgrwt>
</event>
<event>
 5    0  0.2159162E+000  0.3761462E+03  0.7546771E-02  0.1052367E+00
         21   -1    0    0  502  501  0.00000000000E+00  0.00000000000E+00  0.67054855285E+02  0.67054855285E+02  0.00000000000E+00 0.  1.
         21   -1    0    0  503  502 -0.00000000000E+00 -0.00000000000E+00 -0.25662265539E+04  0.25662265539E+04  0.00000000000E+00 0.  1.
         25    1    1    2    0    0 -0.35004044391E+03 -0.57729175589E+02 -0.67482925491E+03  0.77258041224E+03  0.12500000000E+03 0.  0.
         21    1    1    2  503  504  0.12584507627E+03 -0.15624945925E+02 -0.76242240944E+03  0.77289653419E+03  0.00000000000E+00 0.  1.
         21    1    1    2  504  501  0.22419536764E+03  0.73354121513E+02 -0.10619200343E+04  0.10878044628E+04  0.00000000000E+00 0.  1.
<mgrwt>
<rscale>  4 0.37614621E+03</rscale>
<asrwt>0</asrwt>
<pdfrwt beam="1">  1       21 0.10316132E-01 0.37614621E+03</pdfrwt>
<pdfrwt beam="2">  1       21 0.39480408E+00 0.37614621E+03</pdfrwt>
<totfact> 0.59017349E+02</totfact>
</mgrwt>
</event>
<event>
 5    0  0.2159162E+000  0.2324059E+03  0.7546771E-02  0.1124958E+00
         21   -1    0    0  502  501  0.00000000000E+00  0.00000000000E+00  0.61427065063E+02  0.61427065063E+02  0.00000000000E+00 0. -1.
         21   -1    0    0  503  502 -0.00000000000E+00 -0.00000000000E+00 -0.13593975602E+04  0.13593975602E+04  0.00000000000E+00 0. -1.
         25    1    1    2    0    0  0.10282579439E+03 -0.20408098197E+03 -0.38007893031E+03  0.46076803759E+03  0.12500000000E+03 0.  0.
         21    1    1    2  503  504 -0.13438602273E+03  0.92030608960E+02 -0.59200473148E+03  0.61400231122E+03  0.00000000000E+00 0. -1.
         21    1    1    2  504  501  0.31560228344E+02  0.11205037301E+03 -0.32588683336E+03  0.34605427646E+03  0.00000000000E+00 0. -1.
<mgrwt>
<rscale>  4 0.23240595E+03</rscale>
<asrwt>0</asrwt>
<pdfrwt beam="1">  1       21 0.94503185E-02 0.23240595E+03</pdfrwt>
<pdfrwt beam="2">  1       21 0.20913807E+00 0.23240595E+03</pdfrwt>
<totfact> 0.10201635E+04</totfact>
</mgrwt>
</event>
<event>
 5    0  0.2159162E+000  0.3425119E+03  0.7546771E-02  0.1065731E+00
         21   -1    0    0  502  501  0.00000000000E+00  0.00000000000E+00  0.90592953546E+03  0.90592953546E+03  0.00000000000E+00 0. -1.
         21   -1    0    0  503  502 -0.00000000000E+00 -0.00000000000E+00 -0.97186346525E+03  0.97186346525E+03  0.00000000000E+00 0.  1.
         25    1    1    2    0    0  0.31826695610E+03  0.26761238575E+02  0.84266439842E+03  0.90979025473E+03  0.12500000000E+03 0.  0.
         21    1    1    2  503  504 -0.15559707049E+02  0.21330276541E+02 -0.54149962851E+02  0.60243702223E+02  0.00000000000E+00 0.  1.
         21    1    1    2  504  501 -0.30270724906E+03 -0.48091515116E+02 -0.85444836536E+03  0.90775904376E+03  0.00000000000E+00 0.  1.
<mgrwt>
<rscale>  4 0.34251193E+03</rscale>
<asrwt>0</asrwt>
<pdfrwt beam="1">  1       21 0.13937377E+00 0.34251193E+03</pdfrwt>
<pdfrwt beam="2">  1       21 0.14951746E+00 0.34251193E+03</pdfrwt>
<totfact> 0.93524170E+01</totfact>
</mgrwt>
</event>
