<event>
 5    0  0.1702508E-001  0.3687703E+03  0.7546771E-02  0.1055164E+00
         21   -1    0    0  503  502  0.00000000000E+00  0.00000000000E+00  0.45129671897E+03  0.45129671897E+03  0.00000000000E+00 0.  1.
         21   -1    0    0  501  503 -0.00000000000E+00 -0.00000000000E+00 -0.37764568708E+03  0.37764568708E+03  0.00000000000E+00 0.  1.
         25    1    1    2    0    0 -0.66777070491E+02  0.35511791686E+03  0.14248739750E+03  0.40803868746E+03  0.12500000000E+03 0.  0.
          2    1    1    2  501    0  0.76922598372E+02 -0.32094084665E+03  0.14409633515E+02  0.33034489662E+03  0.00000000000E+00 0.  1.
         -2    1    1    2    0  502 -0.10145527881E+02 -0.34177070217E+02 -0.83245999124E+02  0.90558821960E+02  0.00000000000E+00 0. -1.
<mgrwt>
<rscale>  4 0.36877026E+03</rscale>
<asrwt>0</asrwt>
<pdfrwt beam="1">  1       21 0.69430265E-01 0.36877026E+03</pdfrwt>
<pdfrwt beam="2">  1       21 0.58099336E-01 0.36877026E+03</pdfrwt>
<totfact> 0.47412619E+03</totfact>
</mgrwt>
</event>
<event>
 5    0  0.1702508E-001  0.2430190E+03  0.7546771E-02  0.1117798E+00
         21   -1    0    0  503  502  0.00000000000E+00  0.00000000000E+00  0.60086803741E+03  0.60086803741E+03  0.00000000000E+00 0. -1.
         21   -1    0    0  501  503 -0.00000000000E+00 -0.00000000000E+00 -0.27732049322E+03  0.27732049322E+03  0.00000000000E+00 0. -1.
         25    1    1    2    0    0 -0.10871428573E+03  0.17270293599E+03  0.48378149430E+03  0.53973570778E+03  0.12500000000E+03 0.  0.
          1    1    1    2  501    0  0.45531375903E+02  0.26900074059E+02  0.25377829058E+02  0.58657943909E+02  0.00000000000E+00 0.  1.
         -1    1    1    2    0  502  0.63182909828E+02 -0.19960301005E+03 -0.18561177917E+03  0.27979487895E+03  0.00000000000E+00 0. -1.
<mgrwt>
<rscale>  4 0.24301900E+03</rscale>
<asrwt>0</asrwt>
<pdfrwt beam="1">  1       21 0.92441236E-01 0.24301900E+03</pdfrwt>
<pdfrwt beam="2">  1       21 0.42664691E-01 0.24301900E+03</pdfrwt>
<totfact> 0.50316123E+03</totfact>
</mgrwt>
</event>
<event>
 5    0  0.1702508E-001  0.3034698E+03  0.7546771E-02  0.1083519E+00
         21   -1    0    0  503  502  0.00000000000E+00  0.00000000000E+00  0.11019118931E+03  0.11019118931E+03  0.00000000000E+00 0.  1.
         21   -1    0    0  501  503 -0.00000000000E+00 -0.00000000000E+00 -0.13696530409E+04  0.13696530409E+04  0.00000000000E+00 0. -1.
         25    1    1    2    0    0 -0.26855974927E+03  0.66701734335E+02 -0.18969974598E+03  0.35802856578E+03  0.12500000000E+03 0.  0.
          1    1    1    2  501    0 -0.10158102912E+02 -0.48500974272E+02 -0.86892308720E+02  0.10002902016E+03  0.00000000000E+00 0.  1.
         -1    1    1    2    0  502  0.27871785218E+03 -0.18200760063E+02 -0.98286979692E+03  0.10217866443E+04  0.00000000000E+00 0. -1.
<mgrwt>
<rscale>  4 0.30346981E+03</rscale>
<asrwt>0</asrwt>
<pdfrwt beam="1">  1       21 0.16952491E-01 0.30346981E+03</pdfrwt>
<pdfrwt beam="2">  1       21 0.21071585E+00 0.30346981E+03</pdfrwt>
<totfact> 0.32970592E+03</totfact>
</mgrwt>
</event>
<event>
 5    0  0.1702508E-001  0.2839036E+03  0.7546771E-02  0.1093576E+00
         21   -1    0    0  503  502  0.00000000000E+00  0.00000000000E+00  0.94975716381E+03  0.94975716381E+03  0.00000000000E+00 0. -1.
         21   -1    0    0  501  503 -0.00000000000E+00 -0.00000000000E+00 -0.35416140718E+03  0.35416140718E+03  0.00000000000E+00 0.  1.
         25    1    1    2    0    0 -0.11460125817E+03 -0.20998371017E+03  0.46896368470E+03  0.54109014451E+03  0.12500000000E+03 0.  0.
          3    1    1    2  501    0  0.14234274731E+03  0.23340435345E+03  0.40140937321E+03  0.48566298482E+03  0.00000000000E+00 0. -1.
         -3    1    1    2    0  502 -0.27741489136E+02 -0.23420643280E+02 -0.27477730128E+03  0.27716544166E+03  0.00000000000E+00 0.  1.
<mgrwt>
<rscale>  4 0.28390358E+03</rscale>
<asrwt>0</asrwt>
<pdfrwt beam="1">  1       21 0.14611649E+00 0.28390358E+03</pdfrwt>
<pdfrwt beam="2">  1       21 0.54486371E-01 0.28390358E+03</pdfrwt>
<totfact> 0.94089406E+02</totfact>
</mgrwt>
</event>
<event>
 5    0  0.1702508E-001  0.2611056E+03  0.7546771E-02  0.1106481E+00
         21   -1    0    0  503  502  0.00000000000E+00  0.00000000000E+00  0.84313192178E+03  0.84313192178E+03  0.00000000000E+00 0.  1.
         21   -1    0    0  501  503 -0.00000000000E+00 -0.00000000000E+00 -0.21850918483E+03  0.21850918483E+03  0.00000000000E+00 0. -1.
         25    1    1    2    0    0  0.20489598710E+03  0.11702198631E+03  0.70359334558E+03  0.75255903871E+03  0.12500000000E+03 0.  0.
          1    1    1    2  501    0 -0.29056258115E+02 -0.13792585970E+02 -0.99100299031E+02  0.10418911091E+03  0.00000000000E+00 0.  1.
         -1    1    1    2    0  502 -0.17583972899E+03 -0.10322940034E+03  0.20129690405E+02  0.20489295698E+03  0.00000000000E+00 0. -1.
<mgrwt>
<rscale>  4 0.26110562E+03</rscale>
<asrwt>0</asrwt>
<pdfrwt beam="1">  1       21 0.12971260E+00 0.26110562E+03</pdfrwt>
<pdfrwt beam="2">  1       21 0.33616798E-01 0.26110562E+03</pdfrwt>
<totfact> 0.35182793E+03</totfact>
</mgrwt>
</event>
<event>
 5    0  0.1702508E-001  0.4017403E+03  0.7546771E-02  0.1043179E+00
         21   -1    0    0  503  502  0.00000000000E+00  0.00000000000E+00  0.33942493347E+03  0.33942493347E+03  0.00000000000E+00 0. -1.
         21   -1    0    0  501  503 -0.00000000000E+00 -0.00000000000E+00 -0.57502559905E+03  0.57502559905E+03  0.00000000000E+00 0. -1.
         25    1    1    2    0    0  0.26278431626E+03  0.28724648939E+03  0.31382122044E+02  0.41009264822E+03  0.12500000000E+03 0.  0.
          1    1    1    2  501    0 -0.22684673312E+03 -0.29320209160E+03 -0.18428006686E+03  0.41398798278E+03  0.00000000000E+00 0. -1.
         -1    1    1    2    0  502 -0.35937583140E+02  0.59556022119E+01 -0.82702720759E+02  0.90369901519E+02  0.00000000000E+00 0.  1.
<mgrwt>
<rscale>  4 0.40174034E+03</rscale>
<asrwt>0</asrwt>
<pdfrwt beam="1">  1       21 0.52219220E-01 0.40174034E+03</pdfrwt>
<pdfrwt beam="2">  1       21 0.88465477E-01 0.40174034E+03</pdfrwt>
<totfact> 0.33769819E+03</totfact>
</mgrwt>
</event>
<event>
 5    0  0.1702508E-001  0.2506686E+03  0.7546771E-02  0.1112883E+00
         21   -1    0    0  503  502  0.00000000000E+00  0.00000000000E+00  0.37491358961E+03  0.37491358961E+03  0.00000000000E+00 0.  1.
         21   -1    0    0  501  503 -0.00000000000E+00 -0.00000000000E+00 -0.47376411579E+03  0.47376411579E+03  0.00000000000E+00 0.  1.
         25    1    1    2    0    0  0.18706542557E+03 -0.11453032705E+03  0.29112770549E+03  0.38534531288E+03  0.12500000000E+03 0.  0.
          1    1    1    2  501    0  0.15663385498E+01  0.32739287362E+02 -0.11751164715E+03  0.12199713754E+03  0.00000000000E+00 0. -1.
         -1    1    1    2    0  502 -0.18863176412E+03  0.81791039689E+02 -0.27246658453E+03  0.34133525498E+03  0.00000000000E+00 0.  1.
<mgrwt>
<rscale>  4 0.25066857E+03</rscale>
<asrwt>0</asrwt>
<pdfrwt beam="1">  1       21 0.57679014E-01 0.25066857E+03</pdfrwt>
<pdfrwt beam="2">  1       21 0.72886787E-01 0.25066857E+03</pdfrwt>
<totfact> 0.45841802E+03</totfact>
</mgrwt>
</event>
<event>
 5    0  0.1702508E-001  0.2322370E+03  0.7546771E-02  0.1125075E+00
         21   -1    0    0  503  502  0.00000000000E+00  0.00000000000E+00  0.61915687210E+03  0.61915687210E+03  0.00000000000E+00 0.  1.
         21   -1    0    0  501  503 -0.00000000000E+00 -0.00000000000E+00 -0.30739814454E+03  0.30739814454E+03  0.00000000000E+00 0.  1.
         25    1    1    2    0    0 -0.30175589398E+03 -0.29676627933E+02  0.28988626292E+03  0.43771722290E+03  0.12500000000E+03 0.  0.
          4    1    1    2  501    0  0.14684454836E+03  0.52092395317E+01 -0.18054015832E+03  0.23277716023E+03  0.00000000000E+00 0.  1.
         -4    1    1    2    0  502  0.15491134562E+03  0.24467388402E+02  0.20241262296E+03  0.25606063350E+03  0.00000000000E+00 0. -1.
<mgrwt>
<rscale>  4 0.23223701E+03</rscale>
<asrwt>0</asrwt>
<pdfrwt beam="1">  1       21 0.95254903E-01 0.23223701E+03</pdfrwt>
<pdfrwt beam="2">  1       21 0.47292022E-01 0.23223701E+03</pdfrwt>
<totfact> 0.38189524E+03</totfact>
</mgrwt>
</event>
<event>
 5    0  0.1702508E-001  0.3973341E+03  0.7546771E-02  0.1044707E+00
         21   -1    0    0  503  502  0.00000000000E+00  0.00000000000E+00  0.71059845068E+03  0.71059845068E+03  0.00000000000E+00 0. -1.
         21   -1    0    0  501  503 -0.00000000000E+00 -0.00000000000E+00 -0.83177198088E+03  0.83177198088E+03  0.00000000000E+00 0. -1.
         25    1    1    2    0    0  0.20885558983E+03 -0.31405210170E+03  0.60261691101E+03  0.72181820524E+03  0.12500000000E+03 0.  0.
          2    1    1    2  501    0 -0.19706466891E+03  0.25184028926E+03 -0.55879969216E+03  0.64382847947E+03  0.00000000000E+00 0. -1.
         -2    1    1    2    0  502 -0.11790920922E+02  0.62211812441E+02 -0.16499074906E+03  0.17672374684E+03  0.00000000000E+00 0.  1.
<mgrwt>
<rscale>  4 0.39733409E+03</rscale>
<asrwt>0</asrwt>
<pdfrwt beam="1">  1       21 0.10932284E+00 0.39733409E+03</pdfrwt>
<pdfrwt beam="2">  1       21 0.12796492E+00 0.39733409E+03</pdfrwt>
<totfact> 0.25198681E+02</totfact>
</mgrwt>
</event>
<event>
 5    0  0.1702508E-001  0.2356169E+03  0.7546771E-02  0.1122748E+00
         21   -1    0    0  503  502  0.00000000000E+00  0.00000000000E+00  0.20330722771E+03  0.20330722771E+03  0.00000000000E+00 0. -1.
         21   -1    0    0  501  503 -0.00000000000E+00 -0.00000000000E+00 -0.63285927806E+03  0.63285927806E+03  0.00000000000E+00 0.  1.
         25    1    1    2    0    0 -0.18765925080E+03  0.11341674413E+03  0.74618578841E+02  0.26319628525E+03  0.12500000000E+03 0.  0.
          4    1    1    2  501    0  0.37852871553E+02 -0.59494550558E+02 -0.32808175031E+03  0.33557424859E+03  0.00000000000E+00 0.  1.
         -4    1    1    2    0  502  0.14980637925E+03 -0.53922193572E+02 -0.17608887888E+03  0.23739597193E+03  0.00000000000E+00 0. -1.
<mgrwt>
<rscale>  4 0.23561685E+03</rscale>
<asrwt>0</asrwt>
<pdfrwt beam="1">  1       21 0.31278035E-01 0.23561685E+03</pdfrwt>
<pdfrwt beam="2">  1       21 0.97362965E-01 0.23561685E+03</pdfrwt>
<totfact> 0.83419984E+03</totfact>
</mgrwt>
</event>
<event>
 5    0  0.1702508E-001  0.2250487E+03  0.7546771E-02  0.1130174E+00
         21   -1    0    0  503  502  0.00000000000E+00  0.00000000000E+00  0.48527101072E+02  0.48527101072E+02  0.00000000000E+00 0. -1.
         21   -1    0    0  501  503 -0.00000000000E+00 -0.00000000000E+00 -0.14368079777E+04  0.14368079777E+04  0.00000000000E+00 0. -1.
         25    1    1    2    0    0 -0.54689708415E+02  0.19606137837E+03 -0.38359650653E+03  0.45188749498E+03  0.12500000000E+03 0.  0.
          1    1    1    2  501    0 -0.43684642460E+02 -0.61432948922E+02 -0.31169722307E+03  0.32068288708E+03  0.00000000000E+00 0.  1.
         -1    1    1    2    0  502  0.98374350876E+02 -0.13462842945E+03 -0.69298714707E+03  0.71276469675E+03  0.00000000000E+00 0. -1.
<mgrwt>
<rscale>  4 0.22504872E+03</rscale>
<asrwt>0</asrwt>
<pdfrwt beam="1">  1       21 0.74657073E-02 0.22504872E+03</pdfrwt>
<pdfrwt beam="2">  1       21 0.22104740E+00 0.22504872E+03</pdfrwt>
<totfact> 0.13063684E+04</totfact>
</mgrwt>
</event>
<event>
 5    0  0.1702508E-001  0.3566445E+03  0.7546771E-02  0.1059920E+00
         21   -1    0    0  503  502  0.00000000000E+00  0.00000000000E+00  0.27881287143E+03  0.27881287143E+03  0.00000000000E+00 0. -1.
         21   -1    0    0  501  503 -0.00000000000E+00 -0.00000000000E+00 -0.51502190267E+03  0.51502190267E+03  0.00000000000E+00 0.  1.
         25    1    1    2    0    0  0.28819976805E+03  0.17632801440E+03 -0.63338976593E+02  0.36576973757E+03  0.12500000000E+03 0.  0.
          1    1    1    2  501    0 -0.29694837901E+03 -0.14580349078E+03 -0.95328715876E+02  0.34427396328E+03  0.00000000000E+00 0.  1.
         -1    1    1    2    0  502  0.87486109591E+01 -0.30524523621E+02 -0.77541338771E+02  0.83791073238E+02  0.00000000000E+00 0. -1.
<mgrwt>
<rscale>  4 0.35664446E+03</rscale>
<asrwt>0</asrwt>
<pdfrwt beam="1">  1       21 0.42894288E-01 0.35664446E+03</pdfrwt>
<pdfrwt beam="2">  1       21 0.79234139E-01 0.35664446E+03</pdfrwt>
<totfact> 0.67162985E+03</totfact>
</mgrwt>
</event>
<event>
 5    0  0.1702508E-001  0.2845451E+03  0.7546771E-02  0.1093232E+00
         21   -1    0    0  503  502  0.00000000000E+00  0.00000000000E+00  0.92260194303E+03  0.92260194303E+03  0.00000000000E+00 0. -1.
         21   -1    0    0  501  503 -0.00000000000E+00 -0.00000000000E+00 -0.59819616229E+03  0.59819616229E+03  0.00000000000E+00 0.  1.
         25    1    1    2    0    0 -0.16681924306E+03  0.11635670737E+03  0.39957001162E+03  0.46545540860E+03  0.12500000000E+03 0.  0.
          2    1    1    2  501    0 -0.14841539527E+03  0.77259089406E+02 -0.47917206081E+03  0.50754503279E+03  0.00000000000E+00 0.  1.
         -2    1    1    2    0  502  0.31523463833E+03 -0.19361579677E+03  0.40400782993E+03  0.54779766393E+03  0.00000000000E+00 0. -1.
<mgrwt>
<rscale>  4 0.28454510E+03</rscale>
<asrwt>0</asrwt>
<pdfrwt beam="1">  1       21 0.14193876E+00 0.28454510E+03</pdfrwt>
<pdfrwt beam="2">  1       21 0.92030179E-01 0.28454510E+03</pdfrwt>
<totfact> 0.31459169E+02</totfact>
</mgrwt>
</event>
<event>
 5    0  0.1702508E-001  0.2254700E+03  0.7546771E-02  0.1129869E+00
         21   -1    0    0  503  502  0.00000000000E+00  0.00000000000E+00  0.14335639468E+03  0.14335639468E+03  0.00000000000E+00 0. -1.
         21   -1    0    0  501  503 -0.00000000000E+00 -0.00000000000E+00 -0.60206015786E+03  0.60206015786E+03  0.00000000000E+00 0. -1.
         25    1    1    2    0    0  0.15124039423E+03  0.13813792920E+03 -0.12833190041E+03  0.27212096758E+03  0.12500000000E+03 0.  0.
          1    1    1    2  501    0 -0.12535206046E+03 -0.12654010869E+03 -0.41308998859E+02  0.18284411818E+03  0.00000000000E+00 0. -1.
         -1    1    1    2    0  502 -0.25888333774E+02 -0.11597820515E+02 -0.28906286390E+03  0.29045146678E+03  0.00000000000E+00 0.  1.
<mgrwt>
<rscale>  4 0.22546998E+03</rscale>
<asrwt>0</asrwt>
<pdfrwt beam="1">  1       21 0.22054830E-01 0.22546998E+03</pdfrwt>
<pdfrwt beam="2">  1       21 0.92624639E-01 0.22546998E+03</pdfrwt>
<totfact> 0.18513793E+04</totfact>
</mgrwt>
</event>
<event>
 5    0  0.1702508E-001  0.2289012E+03  0.7546771E-02  0.1127416E+00
         21   -1    0    0  503  502  0.00000000000E+00  0.00000000000E+00  0.89926681877E+03  0.89926681877E+03  0.00000000000E+00 0.  1.
         21   -1    0    0  501  503 -0.00000000000E+00 -0.00000000000E+00 -0.12731564811E+03  0.12731564811E+03  0.00000000000E+00 0. -1.
         25    1    1    2    0    0  0.12025212638E+03  0.16697214208E+03  0.47312500459E+03  0.53086018884E+03  0.12500000000E+03 0.  0.
          4    1    1    2  501    0 -0.50097976686E+02  0.25943985323E+01 -0.68620369239E+02  0.85001724960E+02  0.00000000000E+00 0. -1.
         -4    1    1    2    0  502 -0.70154149693E+02 -0.16956654061E+03  0.36744653531E+03  0.41072055309E+03  0.00000000000E+00 0.  1.
<mgrwt>
<rscale>  4 0.22890123E+03</rscale>
<asrwt>0</asrwt>
<pdfrwt beam="1">  1       21 0.13834874E+00 0.22890123E+03</pdfrwt>
<pdfrwt beam="2">  1       21 0.19587023E-01 0.22890123E+03</pdfrwt>
<totfact> 0.86265311E+03</totfact>
</mgrwt>
</event>
<event>
 5    0  0.1702508E-001  0.2237535E+03  0.7546771E-02  0.1131115E+00
         21   -1    0    0  503  502  0.00000000000E+00  0.00000000000E+00  0.63153063592E+03  0.63153063592E+03  0.00000000000E+00 0.  1.
         21   -1    0    0  501  503 -0.00000000000E+00 -0.00000000000E+00 -0.18371477541E+03  0.18371477541E+03  0.00000000000E+00 0. -1.
         25    1    1    2    0    0 -0.44702474377E+02  0.20660383580E+03  0.46653080599E+03  0.52721859709E+03  0.12500000000E+03 0.  0.
          3    1    1    2  501    0 -0.23531152503E+02 -0.73437453601E+02 -0.93130709952E+02  0.12091362151E+03  0.00000000000E+00 0. -1.
         -3    1    1    2    0  502  0.68233626880E+02 -0.13316638220E+03  0.74415764471E+02  0.16711319274E+03  0.00000000000E+00 0.  1.
<mgrwt>
<rscale>  4 0.22375347E+03</rscale>
<asrwt>0</asrwt>
<pdfrwt beam="1">  1       21 0.97158559E-01 0.22375347E+03</pdfrwt>
<pdfrwt beam="2">  1       21 0.28263812E-01 0.22375347E+03</pdfrwt>
<totfact> 0.10296566E+04</totfact>
</mgrwt>
</event>
<event>
 5    0  0.1702508E-001  0.2663243E+03  0.7546771E-02  0.1103402E+00
         21   -1    0    0  503  502  0.00000000000E+00  0.00000000000E+00  0.69600886446E+03  0.69600886446E+03  0.00000000000E+00 0.  1.
         21   -1    0    0  501  503 -0.00000000000E+00 -0.00000000000E+00 -0.25649732582E+03  0.25649732582E+03  0.00000000000E+00 0. -1.
         25    1    1    2    0    0  0.21273119025E+03 -0.91035432188E+02  0.51187092879E+03  0.57548141322E+03  0.12500000000E+03 0.  0.
          4    1    1    2  501    0  0.27982596983E+02  0.25910189009E+02 -0.11756208996E+03  0.12359291494E+03  0.00000000000E+00 0.  1.
         -4    1    1    2    0  502 -0.24071378724E+03  0.65125243179E+02  0.45202699807E+02  0.25343186211E+03  0.00000000000E+00 0. -1.
<mgrwt>
<rscale>  4 0.26632433E+03</rscale>
<asrwt>0</asrwt>
<pdfrwt beam="1">  1       21 0.10707829E+00 0.26632433E+03</pdfrwt>
<pdfrwt beam="2">  1       21 0.39461127E-01 0.26632433E+03</pdfrwt>
<totfact> 0.40936358E+03</totfact>
</mgrwt>
</event>
<event>
 5    0  0.1702508E-001  0.2500226E+03  0.7546771E-02  0.1113291E+00
         21   -1    0    0  503  502  0.00000000000E+00  0.00000000000E+00  0.94331316572E+03  0.94331316572E+03  0.00000000000E+00 0.  1.
         21   -1    0    0  501  503 -0.00000000000E+00 -0.00000000000E+00 -0.19331437893E+03  0.19331437893E+03  0.00000000000E+00 0. -1.
         25    1    1    2    0    0  0.19588670795E+03 -0.97454735287E+02  0.80493894435E+03  0.84345760528E+03  0.12500000000E+03 0.  0.
          1    1    1    2  501    0 -0.21100942604E+03  0.27698881492E+02 -0.20164819883E+02  0.21377283708E+03  0.00000000000E+00 0. -1.
         -1    1    1    2    0  502  0.15122718091E+02  0.69755853796E+02 -0.34775337670E+02  0.79397102285E+02  0.00000000000E+00 0.  1.
<mgrwt>
<rscale>  4 0.25002261E+03</rscale>
<asrwt>0</asrwt>
<pdfrwt beam="1">  1       21 0.14512510E+00 0.25002261E+03</pdfrwt>
<pdfrwt beam="2">  1       21 0.29740674E-01 0.25002261E+03</pdfrwt>
<totfact> 0.33752187E+03</totfact>
</mgrwt>
</event>
<event>
 5    0  0.1702508E-001  0.2492225E+03  0.7546771E-02  0.1113797E+00
         21   -1    0    0  503  502  0.00000000000E+00  0.00000000000E+00  0.41815122349E+03  0.41815122349E+03  0.00000000000E+00 0. -1.
         21   -1    0    0  501  503 -0.00000000000E+00 -0.00000000000E+00 -0.29809959084E+03  0.29809959084E+03  0.00000000000E+00 0.  1.
         25    1    1    2    0    0 -0.16526999246E+03 -0.13836394881E+03  0.27515665860E+03  0.37120740767E+03  0.12500000000E+03 0.  0.
          2    1    1    2  501    0  0.14276961091E+03  0.16444344470E+03 -0.35586816631E+02  0.22066089328E+03  0.00000000000E+00 0. -1.
         -2    1    1    2    0  502  0.22500381553E+02 -0.26079495893E+02 -0.11951820932E+03  0.12438251338E+03  0.00000000000E+00 0.  1.
<mgrwt>
<rscale>  4 0.24922252E+03</rscale>
<asrwt>0</asrwt>
<pdfrwt beam="1">  1       21 0.64330957E-01 0.24922252E+03</pdfrwt>
<pdfrwt beam="2">  1       21 0.45861476E-01 0.24922252E+03</pdfrwt>
<totfact> 0.98050272E+03</totfact>
</mgrwt>
</event>
<event>
 5    0  0.1702508E-001  0.3430195E+03  0.7546771E-02  0.1065517E+00
         21   -1    0    0  503  502  0.00000000000E+00  0.00000000000E+00  0.14722305197E+04  0.14722305197E+04  0.00000000000E+00 0.  1.
         21   -1    0    0  501  503 -0.00000000000E+00 -0.00000000000E+00 -0.39690554186E+03  0.39690554186E+03  0.00000000000E+00 0.  1.
         25    1    1    2    0    0  0.30653955101E+03  0.12729797470E+03  0.13526178610E+04  0.13983459331E+04  0.12500000000E+03 0.  0.
          2    1    1    2  501    0 -0.15640985261E+03 -0.58738810669E+02 -0.25412606832E+03  0.30412883532E+03  0.00000000000E+00 0.  1.
         -2    1    1    2    0  502 -0.15012969840E+03 -0.68559164029E+02 -0.23166814873E+02  0.16666129312E+03  0.00000000000E+00 0. -1.
<mgrwt>
<rscale>  4 0.34301946E+03</rscale>
<asrwt>0</asrwt>
<pdfrwt beam="1">  1       21 0.22649700E+00 0.34301946E+03</pdfrwt>
<pdfrwt beam="2">  1       21 0.61062392E-01 0.34301946E+03</pdfrwt>
<totfact> 0.19662635E+02</totfact>
</mgrwt>
</event>
<event>
 5    0  0.1702508E-001  0.2508662E+03  0.7546771E-02  0.1112759E+00
         21   -1    0    0  503  502  0.00000000000E+00  0.00000000000E+00  0.50719278776E+03  0.50719278776E+03  0.00000000000E+00 0. -1.
         21   -1    0    0  501  503 -0.00000000000E+00 -0.00000000000E+00 -0.50838969521E+03  0.50838969521E+03  0.00000000000E+00 0.  1.
         25    1    1    2    0    0  0.81972700984E+02 -0.20976784751E+03  0.40649606591E+03  0.48123396093E+03  0.12500000000E+03 0.  0.
          3    1    1    2  501    0 -0.45865846055E+02  0.23477327539E+02 -0.32207419553E+03  0.32616966163E+03  0.00000000000E+00 0. -1.
         -3    1    1    2    0  502 -0.36106854930E+02  0.18629051997E+03 -0.85618777831E+02  0.20817886041E+03  0.00000000000E+00 0.  1.
<mgrwt>
<rscale>  4 0.25086623E+03</rscale>
<asrwt>0</asrwt>
<pdfrwt beam="1">  1       21 0.78029660E-01 0.25086623E+03</pdfrwt>
<pdfrwt beam="2">  1       21 0.78213799E-01 0.25086623E+03</pdfrwt>
<totfact> 0.20087678E+03</totfact>
</mgrwt>
</event>
<event>
 5    0  0.1702508E-001  0.3034746E+03  0.7546771E-02  0.1083516E+00
         21   -1    0    0  503  502  0.00000000000E+00  0.00000000000E+00  0.33491866294E+03  0.33491866294E+03  0.00000000000E+00 0. -1.
         21   -1    0    0  501  503 -0.00000000000E+00 -0.00000000000E+00 -0.56372794590E+03  0.56372794590E+03  0.00000000000E+00 0.  1.
         25    1    1    2    0    0 -0.14479071286E+03  0.24103022657E+03  0.17259364555E+03  0.35280800322E+03  0.12500000000E+03 0.  0.
          4    1    1    2  501    0  0.26720888790E+02 -0.43201999409E+01 -0.22787718433E+03  0.22947915191E+03  0.00000000000E+00 0.  1.
         -4    1    1    2    0  502  0.11806982407E+03 -0.23671002663E+03 -0.17352574418E+03  0.31635945372E+03  0.00000000000E+00 0. -1.
<mgrwt>
<rscale>  4 0.30347459E+03</rscale>
<asrwt>0</asrwt>
<pdfrwt beam="1">  1       21 0.51525948E-01 0.30347459E+03</pdfrwt>
<pdfrwt beam="2">  1       21 0.86727376E-01 0.30347459E+03</pdfrwt>
<totfact> 0.38057771E+03</totfact>
</mgrwt>
</event>
<event>
 5    0  0.1702508E-001  0.6874216E+03  0.7546771E-02  0.9738988E-01
         21   -1    0    0  503  502  0.00000000000E+00  0.00000000000E+00  0.44702466955E+03  0.44702466955E+03  0.00000000000E+00 0.  1.
         21   -1    0    0  501  503 -0.00000000000E+00 -0.00000000000E+00 -0.20664045957E+04  0.20664045957E+04  0.00000000000E+00 0. -1.
         25    1    1    2    0    0  0.50224980039E+03  0.29170585762E+03  0.80401524024E+02  0.59953029484E+03  0.12500000000E+03 0.  0.
          2    1    1    2  501    0 -0.61269815296E+03 -0.32972852407E+03 -0.16425096134E+04  0.17838042932E+04  0.00000000000E+00 0. -1.
         -2    1    1    2    0  502  0.11044835257E+03  0.38022666449E+02 -0.57271836693E+02  0.13009467717E+03  0.00000000000E+00 0.  1.
<mgrwt>
<rscale>  4 0.68742164E+03</rscale>
<asrwt>0</asrwt>
<pdfrwt beam="1">  1       21 0.68773025E-01 0.68742164E+03</pdfrwt>
<pdfrwt beam="2">  1       21 0.31790841E+00 0.68742164E+03</pdfrwt>
<totfact> 0.34282084E+01</totfact>
</mgrwt>
</event>
<event>
 5    0  0.1702508E-001  0.2908711E+03  0.7546771E-02  0.1089895E+00
         21   -1    0    0  503  502  0.00000000000E+00  0.00000000000E+00  0.21643990809E+04  0.21643990809E+04  0.00000000000E+00 0. -1.
         21   -1    0    0  501  503 -0.00000000000E+00 -0.00000000000E+00 -0.74740856084E+02  0.74740856084E+02  0.00000000000E+00 0.  1.
         25    1    1    2    0    0 -0.13300328862E+03 -0.22776941198E+03  0.17659950874E+04  0.17899531917E+04  0.12500000000E+03 0.  0.
          1    1    1    2  501    0  0.15041667890E+03  0.21125815777E+03  0.33416623939E+03  0.42299203546E+03  0.00000000000E+00 0.  1.
         -1    1    1    2    0  502 -0.17413390273E+02  0.16511254215E+02 -0.10503101895E+02  0.26194709885E+02  0.00000000000E+00 0. -1.
<mgrwt>
<rscale>  4 0.29087106E+03</rscale>
<asrwt>0</asrwt>
<pdfrwt beam="1">  1       21 0.33298442E+00 0.29087106E+03</pdfrwt>
<pdfrwt beam="2">  1       21 0.11498595E-01 0.29087106E+03</pdfrwt>
<totfact> 0.12477999E+03</totfact>
</mgrwt>
</event>
<event>
 5    0  0.1702508E-001  0.3251675E+03  0.7546771E-02  0.1073295E+00
         21   -1    0    0  503  502  0.00000000000E+00  0.00000000000E+00  0.28256367756E+03  0.28256367756E+03  0.00000000000E+00 0.  1.
         21   -1    0    0  501  503 -0.00000000000E+00 -0.00000000000E+00 -0.66170903532E+03  0.66170903532E+03  0.00000000000E+00 0. -1.
         25    1    1    2    0    0 -0.18477786681E+03 -0.21197842020E+03 -0.33283772698E+03  0.45330305888E+03  0.12500000000E+03 0.  0.
          1    1    1    2  501    0  0.25331515244E+03  0.22168446635E+03 -0.14819170774E+03  0.36779525734E+03  0.00000000000E+00 0. -1.
         -1    1    1    2    0  502 -0.68537285629E+02 -0.97060461470E+01  0.10188407695E+03  0.12317439665E+03  0.00000000000E+00 0.  1.
<mgrwt>
<rscale>  4 0.32516751E+03</rscale>
<asrwt>0</asrwt>
<pdfrwt beam="1">  1       21 0.43471335E-01 0.32516751E+03</pdfrwt>
<pdfrwt beam="2">  1       21 0.10180139E+00 0.32516751E+03</pdfrwt>
<totfact> 0.36746615E+03</totfact>
</mgrwt>
</event>
<event>
 5    0  0.1702508E-001  0.2235175E+03  0.7546771E-02  0.1131287E+00
         21   -1    0    0  503  502  0.00000000000E+00  0.00000000000E+00  0.17781779954E+03  0.17781779954E+03  0.00000000000E+00 0. -1.
         21   -1    0    0  501  503 -0.00000000000E+00 -0.00000000000E+00 -0.61488911419E+03  0.61488911419E+03  0.00000000000E+00 0.  1.
         25    1    1    2    0    0 -0.21729458548E+03 -0.32107289047E+02 -0.15369889498E+02  0.25319764689E+03  0.12500000000E+03 0.  0.
          4    1    1    2  501    0  0.18044602390E+03 -0.10795459368E+02 -0.44347921759E+03  0.47890617653E+03  0.00000000000E+00 0.  1.
         -4    1    1    2    0  502  0.36848561581E+02  0.42902748415E+02  0.21777792442E+02  0.60603090315E+02  0.00000000000E+00 0. -1.
<mgrwt>
<rscale>  4 0.22351752E+03</rscale>
<asrwt>0</asrwt>
<pdfrwt beam="1">  1       21 0.27356585E-01 0.22351752E+03</pdfrwt>
<pdfrwt beam="2">  1       21 0.94598325E-01 0.22351752E+03</pdfrwt>
<totfact> 0.11683136E+04</totfact>
</mgrwt>
</event>
<event>
 5    0  0.1702508E-001  0.3017779E+03  0.7546771E-02  0.1084355E+00
         21   -1    0    0  503  502  0.00000000000E+00  0.00000000000E+00  0.84483675527E+03  0.84483675527E+03  0.00000000000E+00 0.  1.
         21   -1    0    0  501  503 -0.00000000000E+00 -0.00000000000E+00 -0.14510462476E+03  0.14510462476E+03  0.00000000000E+00 0.  1.
         25    1    1    2    0    0  0.13624323346E+03  0.24586906193E+03  0.59132352354E+03  0.66656006764E+03  0.12500000000E+03 0.  0.
          2    1    1    2  501    0 -0.12508864983E+03 -0.22904367711E+03  0.13189502957E+03  0.29241148261E+03  0.00000000000E+00 0.  1.
         -2    1    1    2    0  502 -0.11154583634E+02 -0.16825384820E+02 -0.23486422588E+02  0.30969829776E+02  0.00000000000E+00 0. -1.
<mgrwt>
<rscale>  4 0.30177793E+03</rscale>
<asrwt>0</asrwt>
<pdfrwt beam="1">  1       21 0.12997488E+00 0.30177793E+03</pdfrwt>
<pdfrwt beam="2">  1       21 0.22323789E-01 0.30177793E+03</pdfrwt>
<totfact> 0.75884468E+03</totfact>
</mgrwt>
</event>
<event>
 5    0  0.1702508E-001  0.2869339E+03  0.7546771E-02  0.1091961E+00
         21   -1    0    0  503  502  0.00000000000E+00  0.00000000000E+00  0.82852466881E+03  0.82852466881E+03  0.00000000000E+00 0. -1.
         21   -1    0    0  501  503 -0.00000000000E+00 -0.00000000000E+00 -0.10289854714E+03  0.10289854714E+03  0.00000000000E+00 0. -1.
         25    1    1    2    0    0  0.25155145956E+03  0.65537763909E+02  0.34043732110E+03  0.44620164152E+03  0.12500000000E+03 0.  0.
          4    1    1    2  501    0  0.44703227615E+01 -0.33995107426E+02  0.26142182343E+02  0.43116873868E+02  0.00000000000E+00 0.  1.
         -4    1    1    2    0  502 -0.25602178232E+03 -0.31542656483E+02  0.35904661823E+03  0.44210470056E+03  0.00000000000E+00 0. -1.
<mgrwt>
<rscale>  4 0.28693387E+03</rscale>
<asrwt>0</asrwt>
<pdfrwt beam="1">  1       21 0.12746533E+00 0.28693387E+03</pdfrwt>
<pdfrwt beam="2">  1       21 0.15830546E-01 0.28693387E+03</pdfrwt>
<totfact> 0.15304877E+04</totfact>
</mgrwt>
</event>
<event>
 5    0  0.1702508E-001  0.3780005E+03  0.7546771E-02  0.1051675E+00
         21   -1    0    0  503  502  0.00000000000E+00  0.00000000000E+00  0.41162483999E+03  0.41162483999E+03  0.00000000000E+00 0. -1.
         21   -1    0    0  501  503 -0.00000000000E+00 -0.00000000000E+00 -0.62049453213E+03  0.62049453213E+03  0.00000000000E+00 0.  1.
         25    1    1    2    0    0 -0.40435238185E+03  0.66934254065E+02  0.62848715461E+02  0.43307736504E+03  0.12500000000E+03 0.  0.
          2    1    1    2  501    0  0.31309726483E+03  0.15399397914E+02 -0.14317492016E+02  0.31380253230E+03  0.00000000000E+00 0. -1.
         -2    1    1    2    0  502  0.91255117019E+02 -0.82333651978E+02 -0.25740091558E+03  0.28523947478E+03  0.00000000000E+00 0.  1.
<mgrwt>
<rscale>  4 0.37800053E+03</rscale>
<asrwt>0</asrwt>
<pdfrwt beam="1">  1       21 0.63326898E-01 0.37800053E+03</pdfrwt>
<pdfrwt beam="2">  1       21 0.95460698E-01 0.37800053E+03</pdfrwt>
<totfact> 0.18747790E+03</totfact>
</mgrwt>
</event>
<event>
 5    0  0.1702508E-001  0.3086739E+03  0.7546771E-02  0.1080983E+00
         21   -1    0    0  503  502  0.00000000000E+00  0.00000000000E+00  0.25941379941E+03  0.25941379941E+03  0.00000000000E+00 0.  1.
         21   -1    0    0  501  503 -0.00000000000E+00 -0.00000000000E+00 -0.17572971675E+04  0.17572971675E+04  0.00000000000E+00 0. -1.
         25    1    1    2    0    0 -0.16335413927E+03 -0.23222284164E+03  0.14411233967E+03  0.34206050553E+03  0.12500000000E+03 0.  0.
          2    1    1    2  501    0  0.13743516152E+03  0.22557639497E+03 -0.10733211110E+04  0.11053467062E+04  0.00000000000E+00 0. -1.
         -2    1    1    2    0  502  0.25918977747E+02  0.66464466684E+01 -0.56867459674E+03  0.56930375516E+03  0.00000000000E+00 0.  1.
<mgrwt>
<rscale>  4 0.30867392E+03</rscale>
<asrwt>0</asrwt>
<pdfrwt beam="1">  1       21 0.39909816E-01 0.30867392E+03</pdfrwt>
<pdfrwt beam="2">  1       21 0.27035341E+00 0.30867392E+03</pdfrwt>
<totfact> 0.26875861E+02</totfact>
</mgrwt>
</event>
<event>
 5    0  0.1702508E-001  0.2433997E+03  0.7546771E-02  0.1117549E+00
         21   -1    0    0  503  502  0.00000000000E+00  0.00000000000E+00  0.50382942338E+03  0.50382942338E+03  0.00000000000E+00 0. -1.
         21   -1    0    0  501  503 -0.00000000000E+00 -0.00000000000E+00 -0.71332144564E+03  0.71332144564E+03  0.00000000000E+00 0.  1.
         25    1    1    2    0    0  0.14953257403E+02  0.20967411996E+03  0.41283518107E+03  0.47983822609E+03  0.12500000000E+03 0.  0.
          3    1    1    2  501    0  0.15139887424E+02 -0.20277479533E+03 -0.12428427806E+03  0.23831369156E+03  0.00000000000E+00 0. -1.
         -3    1    1    2    0  502 -0.30093144828E+02 -0.68993246272E+01 -0.49804292527E+03  0.49899895136E+03  0.00000000000E+00 0.  1.
<mgrwt>
<rscale>  4 0.24339970E+03</rscale>
<asrwt>0</asrwt>
<pdfrwt beam="1">  1       21 0.77512220E-01 0.24339970E+03</pdfrwt>
<pdfrwt beam="2">  1       21 0.10974176E+00 0.24339970E+03</pdfrwt>
<totfact> 0.92550638E+02</totfact>
</mgrwt>
</event>
<event>
 5    0  0.1702508E-001  0.3866928E+03  0.7546771E-02  0.1048487E+00
         21   -1    0    0  503  502  0.00000000000E+00  0.00000000000E+00  0.30505667905E+03  0.30505667905E+03  0.00000000000E+00 0. -1.
         21   -1    0    0  501  503 -0.00000000000E+00 -0.00000000000E+00 -0.11886063866E+04  0.11886063866E+04  0.00000000000E+00 0.  1.
         25    1    1    2    0    0 -0.37878660562E+02  0.36988809534E+03  0.50367146367E+02  0.39549190312E+03  0.12500000000E+03 0.  0.
          3    1    1    2  501    0  0.15743131009E+02 -0.17451588678E+02 -0.63522069569E+03  0.63565535973E+03  0.00000000000E+00 0.  1.
         -3    1    1    2    0  502  0.22135529553E+02 -0.35243650666E+03 -0.29869615818E+03  0.46251580277E+03  0.00000000000E+00 0. -1.
<mgrwt>
<rscale>  4 0.38669278E+03</rscale>
<asrwt>0</asrwt>
<pdfrwt beam="1">  1       21 0.46931797E-01 0.38669278E+03</pdfrwt>
<pdfrwt beam="2">  1       21 0.18286252E+00 0.38669278E+03</pdfrwt>
<totfact> 0.64887271E+02</totfact>
</mgrwt>
</event>
<event>
 5    0  0.1702508E-001  0.2119467E+03  0.7546771E-02  0.1140034E+00
         21   -1    0    0  503  502  0.00000000000E+00  0.00000000000E+00  0.90240946414E+03  0.90240946414E+03  0.00000000000E+00 0. -1.
         21   -1    0    0  501  503 -0.00000000000E+00 -0.00000000000E+00 -0.18068421503E+03  0.18068421503E+03  0.00000000000E+00 0. -1.
         25    1    1    2    0    0 -0.17548081254E+03 -0.11197144759E+03  0.64713350331E+03  0.69118585905E+03  0.12500000000E+03 0.  0.
          1    1    1    2  501    0  0.12055145643E+03 -0.22263108518E+02 -0.10475671318E+03  0.16125218945E+03  0.00000000000E+00 0. -1.
         -1    1    1    2    0  502  0.54929356116E+02  0.13423455611E+03  0.17934845899E+03  0.23065563066E+03  0.00000000000E+00 0.  1.
<mgrwt>
<rscale>  4 0.21194667E+03</rscale>
<asrwt>0</asrwt>
<pdfrwt beam="1">  1       21 0.13883222E+00 0.21194667E+03</pdfrwt>
<pdfrwt beam="2">  1       21 0.27797572E-01 0.21194667E+03</pdfrwt>
<totfact> 0.44465740E+03</totfact>
</mgrwt>
</event>
<event>
 5    0  0.1702508E-001  0.2564177E+03  0.7546771E-02  0.1109315E+00
         21   -1    0    0  503  502  0.00000000000E+00  0.00000000000E+00  0.35951901872E+03  0.35951901872E+03  0.00000000000E+00 0.  1.
         21   -1    0    0  501  503 -0.00000000000E+00 -0.00000000000E+00 -0.49653511608E+03  0.49653511608E+03  0.00000000000E+00 0. -1.
         25    1    1    2    0    0  0.10122662536E+03 -0.19969524058E+03  0.27954882076E+03  0.37933832127E+03  0.12500000000E+03 0.  0.
          1    1    1    2  501    0 -0.10944102947E+02  0.36641022385E+02 -0.12457170262E+03  0.13030904422E+03  0.00000000000E+00 0.  1.
         -1    1    1    2    0  502 -0.90282522409E+02  0.16305421820E+03 -0.29199321551E+03  0.34640676931E+03  0.00000000000E+00 0. -1.
<mgrwt>
<rscale>  4 0.25641766E+03</rscale>
<asrwt>0</asrwt>
<pdfrwt beam="1">  1       21 0.55310619E-01 0.25641766E+03</pdfrwt>
<pdfrwt beam="2">  1       21 0.76390017E-01 0.25641766E+03</pdfrwt>
<totfact> 0.44964654E+03</totfact>
</mgrwt>
</event>
