<event>
 5    0  0.4930573E+000  0.2485092E+03  0.7546771E-02  0.1114251E+00
         21   -1    0    0  501  502  0.00000000000E+00  0.00000000000E+00  0.84568906262E+03  0.84568906262E+03  0.00000000000E+00 0.  1.
         -2   -1    0    0    0  501 -0.00000000000E+00 -0.00000000000E+00 -0.13017225875E+03  0.13017225875E+03  0.00000000000E+00 0. -1.
         25    1    1    2    0    0  0.22386908497E+03  0.25197935381E+02  0.65050110769E+03  0.69966348644E+03  0.12500000000E+03 0.  0.
         21    1    1    2  503  502 -0.10690917399E+02 -0.21465970407E+02  0.58122792237E+02  0.62875611947E+02  0.00000000000E+00 0. -1.
         -2    1    1    2    0  503 -0.21317816757E+03 -0.37319649744E+01  0.68929039472E+01  0.21332222298E+03  0.00000000000E+00 0. -1.
<mgrwt>
<rscale>  4 0.24850921E+03</rscale>
<asrwt>0</asrwt>
<pdfrwt beam="1">  1       21 0.13010601E+00 0.24850921E+03</pdfrwt>
<pdfrwt beam="2">  1       -2 0.20026502E-01 0.24850921E+03</pdfrwt>
<totfact> 0.70203530E+02</totfact>
</mgrwt>
</event>
<event>
 5    0  0.4930573E+000  0.4425935E+03  0.7546771E-02  0.1029954E+00
         21   -1    0    0  501  502  0.00000000000E+00  0.00000000000E+00  0.70131109420E+03  0.70131109420E+03  0.00000000000E+00 0. -1.
         -3   -1    0    0    0  501 -0.00000000000E+00 -0.00000000000E+00 -0.55198736709E+03  0.55198736709E+03  0.00000000000E+00 0. -1.
         25    1    1    2    0    0 -0.42634800575E+03  0.12580864154E+03  0.28659999749E+03  0.54347492569E+03  0.12500000000E+03 0.  0.
         21    1    1    2  503  502  0.20157181346E+02 -0.20517623969E+02  0.18092874347E+03  0.18320069614E+03  0.00000000000E+00 0. -1.
         -3    1    1    2    0  503  0.40619082440E+03 -0.10529101757E+03 -0.31820501384E+03  0.52662283946E+03  0.00000000000E+00 0. -1.
<mgrwt>
<rscale>  4 0.44259353E+03</rscale>
<asrwt>0</asrwt>
<pdfrwt beam="1">  1       21 0.10789401E+00 0.44259353E+03</pdfrwt>
<pdfrwt beam="2">  1       -3 0.84921133E-01 0.44259353E+03</pdfrwt>
<totfact> 0.40619345E+01</totfact>
</mgrwt>
</event>
<event>
 5    0  0.4930573E+000  0.3144141E+03  0.7546771E-02  0.1078249E+00
          2   -1    0    0  502    0 -0.00000000000E+00  0.00000000000E+00  0.38042223760E+03  0.38042223760E+03  0.00000000000E+00 0. -1.
         21   -1    0    0  503  502  0.00000000000E+00 -0.00000000000E+00 -0.26218149426E+03  0.26218149426E+03  0.00000000000E+00 0. -1.
         25    1    1    2    0    0 -0.27514725974E+03 -0.41681833930E+02  0.72732964730E+02  0.31362154578E+03  0.12500000000E+03 0.  0.
         21    1    1    2  503  501 -0.21408034136E+02  0.33786543929E+01 -0.11564957570E+02  0.24565574992E+02  0.00000000000E+00 0.  1.
          2    1    1    2  501    0  0.29655529388E+03  0.38303179537E+02  0.57072736188E+02  0.30441661108E+03  0.00000000000E+00 0. -1.
<mgrwt>
<rscale>  4 0.31441414E+03</rscale>
<asrwt>0</asrwt>
<pdfrwt beam="1">  1       21 0.40335614E-01 0.31441414E+03</pdfrwt>
<pdfrwt beam="2">  1        2 0.58526498E-01 0.31441414E+03</pdfrwt>
<totfact> 0.60446767E+03</totfact>
</mgrwt>
</event>
<event>
 5    0  0.4930573E+000  0.2682556E+03  0.7546771E-02  0.1102282E+00
          2   -1    0    0  502    0 -0.00000000000E+00  0.00000000000E+00  0.12985740683E+04  0.12985740683E+04  0.00000000000E+00 0.  1.
         21   -1    0    0  503  502  0.00000000000E+00 -0.00000000000E+00 -0.10571139605E+03  0.10571139605E+03  0.00000000000E+00 0.  1.
         25    1    1    2    0    0 -0.11354352570E+03 -0.18113293766E+03  0.97205106895E+02  0.26603591138E+03  0.12500000000E+03 0.  0.
         21    1    1    2  503  501 -0.39127812630E+02 -0.58647713363E+01  0.43706558070E+02  0.58954596788E+02  0.00000000000E+00 0. -1.
          2    1    1    2  501    0  0.15267133833E+03  0.18699770900E+03  0.10519510073E+04  0.10792949562E+04  0.00000000000E+00 0.  1.
<mgrwt>
<rscale>  4 0.26825561E+03</rscale>
<asrwt>0</asrwt>
<pdfrwt beam="1">  1       21 0.16263293E-01 0.26825561E+03</pdfrwt>
<pdfrwt beam="2">  1        2 0.19978061E+00 0.26825561E+03</pdfrwt>
<totfact> 0.74291105E+03</totfact>
</mgrwt>
</event>
<event>
 5    0  0.4930573E+000  0.2656655E+03  0.7546771E-02  0.1103786E+00
         -2   -1    0    0    0  501 -0.00000000000E+00  0.00000000000E+00  0.45178706847E+03  0.45178706847E+03  0.00000000000E+00 0. -1.
         21   -1    0    0  501  502  0.00000000000E+00 -0.00000000000E+00 -0.17140025501E+03  0.17140025501E+03  0.00000000000E+00 0. -1.
         25    1    1    2    0    0 -0.93424652378E+02  0.20712720232E+03  0.21302792935E+03  0.33561248829E+03  0.12500000000E+03 0.  0.
         21    1    1    2  503  502 -0.22063577768E+02  0.89880195037E+01 -0.16055061620E+02  0.28728922050E+02  0.00000000000E+00 0.  1.
         -2    1    1    2    0  503  0.11548823015E+03 -0.21611522183E+03  0.83413945732E+02  0.25884591314E+03  0.00000000000E+00 0. -1.
<mgrwt>
<rscale>  4 0.26566551E+03</rscale>
<asrwt>0</asrwt>
<pdfrwt beam="1">  1       21 0.26369270E-01 0.26566551E+03</pdfrwt>
<pdfrwt beam="2">  1       -2 0.69505702E-01 0.26566551E+03</pdfrwt>
<totfact> 0.21271455E+03</totfact>
</mgrwt>
</event>
<event>
 5    0  0.4930573E+000  0.2972618E+03  0.7546771E-02  0.1086617E+00
         21   -1    0    0  503  502  0.00000000000E+00  0.00000000000E+00  0.83477514883E+03  0.83477514883E+03  0.00000000000E+00 0. -1.
          2   -1    0    0  502    0 -0.00000000000E+00 -0.00000000000E+00 -0.26097112430E+03  0.26097112430E+03  0.00000000000E+00 0.  1.
         25    1    1    2    0    0 -0.13642702635E+03  0.20860435537E+03  0.49793025480E+03  0.57069050215E+03  0.12500000000E+03 0.  0.
         21    1    1    2  503  501 -0.31302227478E+02  0.68056855179E+01  0.21587695823E+03  0.21824071090E+03  0.00000000000E+00 0. -1.
          2    1    1    2  501    0  0.16772925383E+03 -0.21541004089E+03 -0.14000318849E+03  0.30681506008E+03  0.00000000000E+00 0.  1.
<mgrwt>
<rscale>  4 0.29726181E+03</rscale>
<asrwt>0</asrwt>
<pdfrwt beam="1">  1       21 0.12842694E+00 0.29726181E+03</pdfrwt>
<pdfrwt beam="2">  1        2 0.40149404E-01 0.29726181E+03</pdfrwt>
<totfact> 0.66695552E+02</totfact>
</mgrwt>
</event>
<event>
 5    0  0.4930573E+000  0.3742015E+03  0.7546771E-02  0.1053098E+00
         21   -1    0    0  503  502  0.00000000000E+00  0.00000000000E+00  0.75284923188E+02  0.75284923188E+02  0.00000000000E+00 0.  1.
          2   -1    0    0  502    0 -0.00000000000E+00 -0.00000000000E+00 -0.25495405830E+04  0.25495405830E+04  0.00000000000E+00 0.  1.
         25    1    1    2    0    0  0.15938872908E+03  0.31463787834E+03 -0.53940593771E+03  0.65649487971E+03  0.12500000000E+03 0.  0.
         21    1    1    2  503  501  0.60360658593E+01 -0.41552638916E+02 -0.24829191243E+03  0.25181725451E+03  0.00000000000E+00 0. -1.
          2    1    1    2  501    0 -0.16542479494E+03 -0.27308523943E+03 -0.16865578096E+04  0.17165133719E+04  0.00000000000E+00 0.  1.
<mgrwt>
<rscale>  4 0.37420150E+03</rscale>
<asrwt>0</asrwt>
<pdfrwt beam="1">  1       21 0.11582297E-01 0.37420150E+03</pdfrwt>
<pdfrwt beam="2">  1        2 0.39223696E+00 0.37420150E+03</pdfrwt>
<totfact> 0.28410352E+03</totfact>
</mgrwt>
</event>
<event>
 5    0  0.4930573E+000  0.2405385E+03  0.7546771E-02  0.1119435E+00
         21   -1    0    0  503  502  0.00000000000E+00  0.00000000000E+00  0.85286784368E+03  0.85286784368E+03  0.00000000000E+00 0. -1.
          2   -1    0    0  502    0 -0.00000000000E+00 -0.00000000000E+00 -0.24424117234E+04  0.24424117234E+04  0.00000000000E+00 0. -1.
         25    1    1    2    0    0 -0.14017414331E+03 -0.31039293349E+03 -0.69248901235E+03  0.78176633072E+03  0.12500000000E+03 0.  0.
         21    1    1    2  503  501  0.74843504783E+02  0.13242065358E+03  0.79573379619E+03  0.81014137908E+03  0.00000000000E+00 0. -1.
          2    1    1    2  501    0  0.65330638523E+02  0.17797227992E+03 -0.16927886635E+04  0.17033718573E+04  0.00000000000E+00 0. -1.
<mgrwt>
<rscale>  4 0.24053851E+03</rscale>
<asrwt>0</asrwt>
<pdfrwt beam="1">  1       21 0.13121044E+00 0.24053851E+03</pdfrwt>
<pdfrwt beam="2">  1        2 0.37575564E+00 0.24053851E+03</pdfrwt>
<totfact> 0.22515881E+01</totfact>
</mgrwt>
</event>
<event>
 5    0  0.4930573E+000  0.2179850E+03  0.7546771E-02  0.1135394E+00
         -4   -1    0    0    0  501 -0.00000000000E+00  0.00000000000E+00  0.84781178912E+02  0.84781178912E+02  0.00000000000E+00 0.  1.
         21   -1    0    0  501  502  0.00000000000E+00 -0.00000000000E+00 -0.10471780396E+04  0.10471780396E+04  0.00000000000E+00 0.  1.
         25    1    1    2    0    0 -0.18040840186E+03 -0.10544060817E+03 -0.65732599778E+03  0.70097602004E+03  0.12500000000E+03 0.  0.
         21    1    1    2  503  502  0.33763427636E+02  0.13692157302E+03 -0.21149565958E+03  0.25420051185E+03  0.00000000000E+00 0.  1.
         -4    1    1    2    0  503  0.14664497423E+03 -0.31480964856E+02 -0.93575203348E+02  0.17678268664E+03  0.00000000000E+00 0.  1.
<mgrwt>
<rscale>  4 0.21798501E+03</rscale>
<asrwt>0</asrwt>
<pdfrwt beam="1">  1       21 0.16110432E+00 0.21798501E+03</pdfrwt>
<pdfrwt beam="2">  1       -4 0.13043258E-01 0.21798501E+03</pdfrwt>
<totfact> 0.49724135E+02</totfact>
</mgrwt>
</event>
<event>
 5    0  0.4930573E+000  0.2020612E+03  0.7546771E-02  0.1148012E+00
         21   -1    0    0  503  502  0.00000000000E+00  0.00000000000E+00  0.63048232539E+02  0.63048232539E+02  0.00000000000E+00 0. -1.
          2   -1    0    0  502    0 -0.00000000000E+00 -0.00000000000E+00 -0.22417723072E+04  0.22417723072E+04  0.00000000000E+00 0. -1.
         25    1    1    2    0    0  0.24631493885E+03 -0.11077288791E+03 -0.10783759729E+04  0.11186873651E+04  0.12500000000E+03 0.  0.
         21    1    1    2  503  501 -0.14518891060E+03  0.15178968526E+02 -0.10188393519E+03  0.17801841786E+03  0.00000000000E+00 0. -1.
          2    1    1    2  501    0 -0.10112602824E+03  0.95593919386E+02 -0.99846416654E+03  0.10081147568E+04  0.00000000000E+00 0. -1.
<mgrwt>
<rscale>  4 0.20206116E+03</rscale>
<asrwt>0</asrwt>
<pdfrwt beam="1">  1       21 0.96997286E-02 0.20206116E+03</pdfrwt>
<pdfrwt beam="2">  1        2 0.34488803E+00 0.20206116E+03</pdfrwt>
<totfact> 0.61384793E+03</totfact>
</mgrwt>
</event>
<event>
 5    0  0.4930573E+000  0.2421805E+03  0.7546771E-02  0.1118349E+00
          1   -1    0    0  502    0 -0.00000000000E+00  0.00000000000E+00  0.86994134186E+03  0.86994134186E+03  0.00000000000E+00 0.  1.
         21   -1    0    0  503  502  0.00000000000E+00 -0.00000000000E+00 -0.10828408251E+04  0.10828408251E+04  0.00000000000E+00 0.  1.
         25    1    1    2    0    0 -0.43679105097E+02 -0.20038345862E+03 -0.98020603395E+03  0.10092027862E+04  0.12500000000E+03 0.  0.
         21    1    1    2  503  501  0.61880680032E+02 -0.63932335847E+01 -0.62512249846E+02  0.88192252368E+02  0.00000000000E+00 0.  1.
          1    1    1    2  501    0 -0.18201574935E+02  0.20677669221E+03  0.82981880052E+03  0.85538712842E+03  0.00000000000E+00 0.  1.
<mgrwt>
<rscale>  4 0.24218049E+03</rscale>
<asrwt>0</asrwt>
<pdfrwt beam="1">  1       21 0.16659090E+00 0.24218049E+03</pdfrwt>
<pdfrwt beam="2">  1        1 0.13383713E+00 0.24218049E+03</pdfrwt>
<totfact> 0.48678440E+01</totfact>
</mgrwt>
</event>
<event>
 5    0  0.4930573E+000  0.2097125E+03  0.7546771E-02  0.1141794E+00
         21   -1    0    0  503  502  0.00000000000E+00  0.00000000000E+00  0.35161716278E+02  0.35161716278E+02  0.00000000000E+00 0.  1.
          2   -1    0    0  502    0 -0.00000000000E+00 -0.00000000000E+00 -0.19722732931E+04  0.19722732931E+04  0.00000000000E+00 0.  1.
         25    1    1    2    0    0 -0.16443005103E+03 -0.12273850765E+03 -0.84826199044E+03  0.88163222909E+03  0.12500000000E+03 0.  0.
         21    1    1    2  503  501  0.49718364400E+02  0.17141970877E+02 -0.41719861084E+02  0.67129052824E+02  0.00000000000E+00 0.  1.
          2    1    1    2  501    0  0.11471168663E+03  0.10559653677E+03 -0.10471297253E+04  0.10586737275E+04  0.00000000000E+00 0.  1.
<mgrwt>
<rscale>  4 0.20971254E+03</rscale>
<asrwt>0</asrwt>
<pdfrwt beam="1">  1       21 0.54094965E-02 0.20971254E+03</pdfrwt>
<pdfrwt beam="2">  1        2 0.30342657E+00 0.20971254E+03</pdfrwt>
<totfact> 0.23310005E+04</totfact>
</mgrwt>
</event>
<event>
 5    0  0.4930573E+000  0.3066340E+03  0.7546771E-02  0.1081971E+00
         21   -1    0    0  501  502  0.00000000000E+00  0.00000000000E+00  0.17272005817E+03  0.17272005817E+03  0.00000000000E+00 0. -1.
         -1   -1    0    0    0  501 -0.00000000000E+00 -0.00000000000E+00 -0.68823645689E+03  0.68823645689E+03  0.00000000000E+00 0. -1.
         25    1    1    2    0    0  0.18095898797E+03  0.21366620585E+03 -0.48031955904E+03  0.56985198222E+03  0.12500000000E+03 0.  0.
         21    1    1    2  503  502 -0.10558359861E+01 -0.21785286272E+02  0.10384494918E+02  0.24156804886E+02  0.00000000000E+00 0.  1.
         -1    1    1    2    0  503 -0.17990315198E+03 -0.19188091958E+03 -0.45581334606E+02  0.26694772795E+03  0.00000000000E+00 0. -1.
<mgrwt>
<rscale>  4 0.30663399E+03</rscale>
<asrwt>0</asrwt>
<pdfrwt beam="1">  1       21 0.26572316E-01 0.30663399E+03</pdfrwt>
<pdfrwt beam="2">  1       -1 0.10588253E+00 0.30663399E+03</pdfrwt>
<totfact> 0.10815382E+03</totfact>
</mgrwt>
</event>
<event>
 5    0  0.4930573E+000  0.2334108E+03  0.7546771E-02  0.1124262E+00
         -1   -1    0    0    0  501 -0.00000000000E+00  0.00000000000E+00  0.53123768617E+03  0.53123768617E+03  0.00000000000E+00 0. -1.
         21   -1    0    0  501  502  0.00000000000E+00 -0.00000000000E+00 -0.10451068301E+04  0.10451068301E+04  0.00000000000E+00 0.  1.
         25    1    1    2    0    0  0.64857776185E+02  0.28489562675E+03  0.12280499750E+03  0.34070238726E+03  0.12500000000E+03 0.  0.
         21    1    1    2  503  502 -0.53755876429E+02 -0.18538259568E+03 -0.91745610605E+03  0.93754045650E+03  0.00000000000E+00 0.  1.
         -1    1    1    2    0  503 -0.11101899756E+02 -0.99513031062E+02  0.28078196460E+03  0.29810167254E+03  0.00000000000E+00 0. -1.
<mgrwt>
<rscale>  4 0.23341083E+03</rscale>
<asrwt>0</asrwt>
<pdfrwt beam="1">  1       21 0.16078567E+00 0.23341083E+03</pdfrwt>
<pdfrwt beam="2">  1       -1 0.81728875E-01 0.23341083E+03</pdfrwt>
<totfact> 0.34989326E+01</totfact>
</mgrwt>
</event>
<event>
 5    0  0.4930573E+000  0.2928635E+03  0.7546771E-02  0.1088864E+00
         -2   -1    0    0    0  501 -0.00000000000E+00  0.00000000000E+00  0.53576402113E+03  0.53576402113E+03  0.00000000000E+00 0. -1.
         21   -1    0    0  501  502  0.00000000000E+00 -0.00000000000E+00 -0.11797377057E+04  0.11797377057E+04  0.00000000000E+00 0.  1.
         25    1    1    2    0    0  0.19862350078E+03 -0.26407398275E+03 -0.68413210026E+03  0.76996629409E+03  0.12500000000E+03 0.  0.
         21    1    1    2  503  502 -0.86747005763E+01  0.83780804204E+02 -0.41334805505E+03  0.42184249216E+03  0.00000000000E+00 0.  1.
         -2    1    1    2    0  503 -0.18994880020E+03  0.18029317855E+03  0.45350647078E+03  0.52369294054E+03  0.00000000000E+00 0. -1.
<mgrwt>
<rscale>  4 0.29286346E+03</rscale>
<asrwt>0</asrwt>
<pdfrwt beam="1">  1       21 0.18149811E+00 0.29286346E+03</pdfrwt>
<pdfrwt beam="2">  1       -2 0.82425234E-01 0.29286346E+03</pdfrwt>
<totfact> 0.17961204E+01</totfact>
</mgrwt>
</event>
<event>
 5    0  0.4930573E+000  0.2119428E+03  0.7546771E-02  0.1140037E+00
          1   -1    0    0  502    0 -0.00000000000E+00  0.00000000000E+00  0.18803175722E+04  0.18803175722E+04  0.00000000000E+00 0. -1.
         21   -1    0    0  503  502  0.00000000000E+00 -0.00000000000E+00 -0.17876793205E+03  0.17876793205E+03  0.00000000000E+00 0. -1.
         25    1    1    2    0    0 -0.78030282198E+02 -0.24819108806E+03  0.63007802917E+03  0.69304463347E+03  0.12500000000E+03 0.  0.
         21    1    1    2  503  501  0.37273749146E+00  0.11140001917E+03 -0.12028587178E+03  0.16394753476E+03  0.00000000000E+00 0. -1.
          1    1    1    2  501    0  0.77657544706E+02  0.13679106889E+03  0.11917574828E+04  0.12020933361E+04  0.00000000000E+00 0. -1.
<mgrwt>
<rscale>  4 0.21194277E+03</rscale>
<asrwt>0</asrwt>
<pdfrwt beam="1">  1       21 0.27502760E-01 0.21194277E+03</pdfrwt>
<pdfrwt beam="2">  1        1 0.28927961E+00 0.21194277E+03</pdfrwt>
<totfact> 0.57375844E+02</totfact>
</mgrwt>
</event>
<event>
 5    0  0.4930573E+000  0.3067887E+03  0.7546771E-02  0.1081895E+00
          2   -1    0    0  502    0 -0.00000000000E+00  0.00000000000E+00  0.11870669608E+04  0.11870669608E+04  0.00000000000E+00 0.  1.
         21   -1    0    0  503  502  0.00000000000E+00 -0.00000000000E+00 -0.30405813491E+03  0.30405813491E+03  0.00000000000E+00 0.  1.
         25    1    1    2    0    0 -0.24785797393E+03 -0.33088940609E+02 -0.16813262572E+03  0.32622390020E+03  0.12500000000E+03 0.  0.
         21    1    1    2  503  501 -0.30350219777E+02 -0.15320658466E+02 -0.31311613918E+02  0.46219861342E+02  0.00000000000E+00 0.  1.
          2    1    1    2  501    0  0.27820819371E+03  0.48409599075E+02  0.10824530655E+04  0.11186813342E+04  0.00000000000E+00 0.  1.
<mgrwt>
<rscale>  4 0.30678874E+03</rscale>
<asrwt>0</asrwt>
<pdfrwt beam="1">  1       21 0.46778175E-01 0.30678874E+03</pdfrwt>
<pdfrwt beam="2">  1        2 0.18262568E+00 0.30678874E+03</pdfrwt>
<totfact> 0.10749203E+03</totfact>
</mgrwt>
</event>
<event>
 5    0  0.4930573E+000  0.3343933E+03  0.7546771E-02  0.1069209E+00
         21   -1    0    0  501  502  0.00000000000E+00  0.00000000000E+00  0.21691626904E+03  0.21691626904E+03  0.00000000000E+00 0. -1.
         -2   -1    0    0    0  501 -0.00000000000E+00 -0.00000000000E+00 -0.91565132905E+03  0.91565132905E+03  0.00000000000E+00 0. -1.
         25    1    1    2    0    0 -0.27321503479E+03  0.59018915682E+02 -0.40450017073E+02  0.30885415899E+03  0.12500000000E+03 0.  0.
         21    1    1    2  503  502 -0.46182537421E+02 -0.53369343942E+02  0.20518797853E+02  0.73499215648E+02  0.00000000000E+00 0.  1.
         -2    1    1    2    0  503  0.31939757222E+03 -0.56495717395E+01 -0.67880384079E+03  0.75021422345E+03  0.00000000000E+00 0. -1.
<mgrwt>
<rscale>  4 0.33439332E+03</rscale>
<asrwt>0</asrwt>
<pdfrwt beam="1">  1       21 0.33371733E-01 0.33439332E+03</pdfrwt>
<pdfrwt beam="2">  1       -2 0.14086944E+00 0.33439332E+03</pdfrwt>
<totfact> 0.25328775E+02</totfact>
</mgrwt>
</event>
<event>
 5    0  0.4930573E+000  0.2474699E+03  0.7546771E-02  0.1114914E+00
          1   -1    0    0  502    0 -0.00000000000E+00  0.00000000000E+00  0.33339638981E+03  0.33339638981E+03  0.00000000000E+00 0. -1.
         21   -1    0    0  503  502  0.00000000000E+00 -0.00000000000E+00 -0.44240530896E+03  0.44240530896E+03  0.00000000000E+00 0. -1.
         25    1    1    2    0    0 -0.21129591194E+03 -0.31151232578E+02 -0.35943592464E+03  0.43638921345E+03  0.12500000000E+03 0.  0.
         21    1    1    2  503  501  0.60715910023E+02  0.12895263958E+02  0.23313315801E+02  0.66303998795E+02  0.00000000000E+00 0. -1.
          1    1    1    2  501    0  0.15058000191E+03  0.18255968620E+02  0.22711368970E+03  0.27310848653E+03  0.00000000000E+00 0. -1.
<mgrwt>
<rscale>  4 0.24746992E+03</rscale>
<asrwt>0</asrwt>
<pdfrwt beam="1">  1       21 0.68062355E-01 0.24746992E+03</pdfrwt>
<pdfrwt beam="2">  1        1 0.51291752E-01 0.24746992E+03</pdfrwt>
<totfact> 0.16174695E+03</totfact>
</mgrwt>
</event>
<event>
 5    0  0.4930573E+000  0.3006958E+03  0.7546771E-02  0.1084893E+00
         21   -1    0    0  503  502  0.00000000000E+00  0.00000000000E+00  0.16823273505E+03  0.16823273505E+03  0.00000000000E+00 0.  1.
          2   -1    0    0  502    0 -0.00000000000E+00 -0.00000000000E+00 -0.31903033607E+04  0.31903033607E+04  0.00000000000E+00 0.  1.
         25    1    1    2    0    0  0.87919726103E+02 -0.21847927521E+03 -0.13902712422E+03  0.30069355365E+03  0.12500000000E+03 0.  0.
         21    1    1    2  503  501 -0.70639616289E+01 -0.46017644002E+02  0.74252580334E+02  0.87641136458E+02  0.00000000000E+00 0.  1.
          2    1    1    2  501    0 -0.80855764474E+02  0.26449691922E+03 -0.29572960818E+04  0.29702014057E+04  0.00000000000E+00 0.  1.
<mgrwt>
<rscale>  4 0.30069585E+03</rscale>
<asrwt>0</asrwt>
<pdfrwt beam="1">  1       21 0.25881962E-01 0.30069585E+03</pdfrwt>
<pdfrwt beam="2">  1        2 0.49081584E+00 0.30069585E+03</pdfrwt>
<totfact> 0.27583561E+02</totfact>
</mgrwt>
</event>
<event>
 5    0  0.4930573E+000  0.2333808E+03  0.7546771E-02  0.1124283E+00
         21   -1    0    0  503  502  0.00000000000E+00  0.00000000000E+00  0.10749648035E+03  0.10749648035E+03  0.00000000000E+00 0. -1.
          3   -1    0    0  502    0 -0.00000000000E+00 -0.00000000000E+00 -0.72727711682E+03  0.72727711682E+03  0.00000000000E+00 0. -1.
         25    1    1    2    0    0 -0.34974657516E+02  0.20997346286E+03 -0.38723279422E+03  0.45922360425E+03  0.12500000000E+03 0.  0.
         21    1    1    2  503  501 -0.95139039657E+01 -0.30616201424E+02  0.36862598553E+02  0.48854041086E+02  0.00000000000E+00 0. -1.
          3    1    1    2  501    0  0.44488561482E+02 -0.17935726144E+03 -0.26941044080E+03  0.32669595184E+03  0.00000000000E+00 0. -1.
<mgrwt>
<rscale>  4 0.23338077E+03</rscale>
<asrwt>0</asrwt>
<pdfrwt beam="1">  1       21 0.16537921E-01 0.23338077E+03</pdfrwt>
<pdfrwt beam="2">  1        3 0.11188878E+00 0.23338077E+03</pdfrwt>
<totfact> 0.11310744E+03</totfact>
</mgrwt>
</event>
<event>
 5    0  0.4930573E+000  0.2289330E+03  0.7546771E-02  0.1127393E+00
          2   -1    0    0  502    0 -0.00000000000E+00  0.00000000000E+00  0.60620640680E+03  0.60620640680E+03  0.00000000000E+00 0. -1.
         21   -1    0    0  503  502  0.00000000000E+00 -0.00000000000E+00 -0.14374069568E+03  0.14374069568E+03  0.00000000000E+00 0. -1.
         25    1    1    2    0    0 -0.39131359572E+02 -0.21388682426E+03  0.10707432206E+03  0.27270633901E+03  0.12500000000E+03 0.  0.
         21    1    1    2  503  501  0.62845071756E+02  0.28486428648E+02 -0.71341928082E+01  0.69367689655E+02  0.00000000000E+00 0. -1.
          2    1    1    2  501    0 -0.23713712184E+02  0.18540039561E+03  0.36252558186E+03  0.40787307382E+03  0.00000000000E+00 0. -1.
<mgrwt>
<rscale>  4 0.22893296E+03</rscale>
<asrwt>0</asrwt>
<pdfrwt beam="1">  1       21 0.22113954E-01 0.22893296E+03</pdfrwt>
<pdfrwt beam="2">  1        2 0.93262522E-01 0.22893296E+03</pdfrwt>
<totfact> 0.11881228E+04</totfact>
</mgrwt>
</event>
<event>
 5    0  0.4930573E+000  0.2794165E+03  0.7546771E-02  0.1096008E+00
          2   -1    0    0  502    0 -0.00000000000E+00  0.00000000000E+00  0.31372212331E+04  0.31372212331E+04  0.00000000000E+00 0.  1.
         21   -1    0    0  503  502  0.00000000000E+00 -0.00000000000E+00 -0.45059558832E+02  0.45059558832E+02  0.00000000000E+00 0.  1.
         25    1    1    2    0    0 -0.93218347352E+02 -0.24563015427E+03  0.11492404053E+04  0.11854966647E+04  0.12500000000E+03 0.  0.
         21    1    1    2  503  501  0.25161799594E+02  0.10541535653E+02 -0.96478039331E+01  0.28936486543E+02  0.00000000000E+00 0.  1.
          2    1    1    2  501    0  0.68056547758E+02  0.23508861862E+03  0.19525690729E+04  0.19678476406E+04  0.00000000000E+00 0.  1.
<mgrwt>
<rscale>  4 0.27941646E+03</rscale>
<asrwt>0</asrwt>
<pdfrwt beam="1">  1       21 0.69322423E-02 0.27941646E+03</pdfrwt>
<pdfrwt beam="2">  1        2 0.48264925E+00 0.27941646E+03</pdfrwt>
<totfact> 0.33370613E+03</totfact>
</mgrwt>
</event>
<event>
 5    0  0.4930573E+000  0.2930674E+03  0.7546771E-02  0.1088758E+00
          1   -1    0    0  502    0 -0.00000000000E+00  0.00000000000E+00  0.25932159424E+03  0.25932159424E+03  0.00000000000E+00 0.  1.
         21   -1    0    0  503  502  0.00000000000E+00 -0.00000000000E+00 -0.95396714605E+03  0.95396714605E+03  0.00000000000E+00 0.  1.
         25    1    1    2    0    0 -0.17619700787E+02  0.34396738477E+03 -0.10094314634E+03  0.38005069982E+03  0.12500000000E+03 0.  0.
         21    1    1    2  503  501 -0.65524234661E+02 -0.12895911049E+03 -0.58492619177E+03  0.60254670137E+03  0.00000000000E+00 0.  1.
          1    1    1    2  501    0  0.83143935448E+02 -0.21500827428E+03 -0.87762137030E+01  0.23069133911E+03  0.00000000000E+00 0.  1.
<mgrwt>
<rscale>  4 0.29306744E+03</rscale>
<asrwt>0</asrwt>
<pdfrwt beam="1">  1       21 0.14676418E+00 0.29306744E+03</pdfrwt>
<pdfrwt beam="2">  1        1 0.39895630E-01 0.29306744E+03</pdfrwt>
<totfact> 0.34367684E+02</totfact>
</mgrwt>
</event>
<event>
 5    0  0.4930573E+000  0.2384351E+03  0.7546771E-02  0.1120840E+00
         21   -1    0    0  503  502  0.00000000000E+00  0.00000000000E+00  0.12937783924E+03  0.12937783924E+03  0.00000000000E+00 0.  1.
          2   -1    0    0  502    0 -0.00000000000E+00 -0.00000000000E+00 -0.17723353804E+04  0.17723353804E+04  0.00000000000E+00 0. -1.
         25    1    1    2    0    0  0.17394477001E+03 -0.13727643287E+03 -0.78219947436E+02  0.26616716968E+03  0.12500000000E+03 0.  0.
         21    1    1    2  503  501 -0.19698584548E+00  0.34434124835E+02  0.18770370425E+02  0.39218293722E+02  0.00000000000E+00 0. -1.
          2    1    1    2  501    0 -0.17374778416E+03  0.10284230804E+03 -0.15835079642E+04  0.15963277563E+04  0.00000000000E+00 0. -1.
<mgrwt>
<rscale>  4 0.23843508E+03</rscale>
<asrwt>0</asrwt>
<pdfrwt beam="1">  1       21 0.19904284E-01 0.23843508E+03</pdfrwt>
<pdfrwt beam="2">  1        2 0.27266696E+00 0.23843508E+03</pdfrwt>
<totfact> 0.28774841E+03</totfact>
</mgrwt>
</event>
<event>
 5    0  0.4930573E+000  0.2971149E+03  0.7546771E-02  0.1086692E+00
         21   -1    0    0  503  502  0.00000000000E+00  0.00000000000E+00  0.12060764807E+03  0.12060764807E+03  0.00000000000E+00 0. -1.
          1   -1    0    0  502    0 -0.00000000000E+00 -0.00000000000E+00 -0.14141822688E+04  0.14141822688E+04  0.00000000000E+00 0. -1.
         25    1    1    2    0    0  0.10322427873E+03 -0.24899203567E+03 -0.11106906961E+03  0.31719650656E+03  0.12500000000E+03 0.  0.
         21    1    1    2  503  501  0.12993569469E+02  0.56333820297E+02 -0.14773816000E+03  0.15864708027E+03  0.00000000000E+00 0. -1.
          1    1    1    2  501    0 -0.11621784820E+03  0.19265821537E+03 -0.10347673911E+04  0.10589463300E+04  0.00000000000E+00 0. -1.
<mgrwt>
<rscale>  4 0.29711494E+03</rscale>
<asrwt>0</asrwt>
<pdfrwt beam="1">  1       21 0.18555023E-01 0.29711494E+03</pdfrwt>
<pdfrwt beam="2">  1        1 0.21756649E+00 0.29711494E+03</pdfrwt>
<totfact> 0.23530011E+03</totfact>
</mgrwt>
</event>
<event>
 5    0  0.4930573E+000  0.2704089E+03  0.7546771E-02  0.1101046E+00
         -1   -1    0    0    0  501 -0.00000000000E+00  0.00000000000E+00  0.13355672804E+04  0.13355672804E+04  0.00000000000E+00 0. -1.
         21   -1    0    0  501  502  0.00000000000E+00 -0.00000000000E+00 -0.32313118462E+03  0.32313118462E+03  0.00000000000E+00 0. -1.
         25    1    1    2    0    0 -0.21176218137E+03 -0.68937053536E+02  0.23548540684E+03  0.34738151310E+03  0.12500000000E+03 0.  0.
         21    1    1    2  503  502 -0.19886106284E+02 -0.81681846926E+01 -0.25244834355E+03  0.25336207811E+03  0.00000000000E+00 0. -1.
         -1    1    1    2    0  503  0.23164828765E+03  0.77105238228E+02  0.10293990325E+04  0.10579548738E+04  0.00000000000E+00 0. -1.
<mgrwt>
<rscale>  4 0.27040893E+03</rscale>
<asrwt>0</asrwt>
<pdfrwt beam="1">  1       21 0.49712491E-01 0.27040893E+03</pdfrwt>
<pdfrwt beam="2">  1       -1 0.20547189E+00 0.27040893E+03</pdfrwt>
<totfact> 0.53713907E+01</totfact>
</mgrwt>
</event>
<event>
 5    0  0.4930573E+000  0.1850409E+03  0.7546771E-02  0.1163012E+00
         -4   -1    0    0    0  501 -0.00000000000E+00  0.00000000000E+00  0.16064105273E+03  0.16064105273E+03  0.00000000000E+00 0. -1.
         21   -1    0    0  501  502  0.00000000000E+00 -0.00000000000E+00 -0.67077688595E+03  0.67077688595E+03  0.00000000000E+00 0. -1.
         25    1    1    2    0    0 -0.13695477363E+03  0.14788614813E+03 -0.48097317147E+03  0.53627149328E+03  0.12500000000E+03 0.  0.
         21    1    1    2  503  502  0.29451558363E+02 -0.71122732459E+02 -0.11443509451E+03  0.13791746886E+03  0.00000000000E+00 0. -1.
         -4    1    1    2    0  503  0.10750321526E+03 -0.76763415668E+02  0.85272432758E+02  0.15722897655E+03  0.00000000000E+00 0. -1.
<mgrwt>
<rscale>  4 0.18504087E+03</rscale>
<asrwt>0</asrwt>
<pdfrwt beam="1">  1       21 0.10319644E+00 0.18504087E+03</pdfrwt>
<pdfrwt beam="2">  1       -4 0.24714008E-01 0.18504087E+03</pdfrwt>
<totfact> 0.49055124E+02</totfact>
</mgrwt>
</event>
<event>
 5    0  0.4930573E+000  0.3363359E+03  0.7546771E-02  0.1068367E+00
          1   -1    0    0  502    0 -0.00000000000E+00  0.00000000000E+00  0.21501914010E+03  0.21501914010E+03  0.00000000000E+00 0.  1.
         21   -1    0    0  503  502  0.00000000000E+00 -0.00000000000E+00 -0.72874757327E+03  0.72874757327E+03  0.00000000000E+00 0. -1.
         25    1    1    2    0    0  0.29782245942E+03  0.98078093631E+02 -0.46746791776E+03  0.57660106133E+03  0.12500000000E+03 0.  0.
         21    1    1    2  503  501  0.56449007841E+01 -0.25185518229E+02 -0.48633027165E+02  0.55057665811E+02  0.00000000000E+00 0. -1.
          1    1    1    2  501    0 -0.30346736020E+03 -0.72892575402E+02  0.23725117655E+01  0.31210798623E+03  0.00000000000E+00 0.  1.
<mgrwt>
<rscale>  4 0.33633588E+03</rscale>
<asrwt>0</asrwt>
<pdfrwt beam="1">  1       21 0.11211501E+00 0.33633588E+03</pdfrwt>
<pdfrwt beam="2">  1        1 0.33079867E-01 0.33633588E+03</pdfrwt>
<totfact> 0.85425991E+02</totfact>
</mgrwt>
</event>
<event>
 5    0  0.4930573E+000  0.2246778E+03  0.7546771E-02  0.1130443E+00
         -1   -1    0    0    0  501 -0.00000000000E+00  0.00000000000E+00  0.71819563205E+03  0.71819563205E+03  0.00000000000E+00 0.  1.
         21   -1    0    0  501  502  0.00000000000E+00 -0.00000000000E+00 -0.72071507856E+03  0.72071507856E+03  0.00000000000E+00 0.  1.
         25    1    1    2    0    0 -0.19348958232E+03 -0.90873203392E+02 -0.37069443678E+03  0.44579762563E+03  0.12500000000E+03 0.  0.
         21    1    1    2  503  502  0.54626171730E+02 -0.33047399227E+02 -0.29628176271E+03  0.30308255006E+03  0.00000000000E+00 0.  1.
         -1    1    1    2    0  503  0.13886341059E+03  0.12392060262E+03  0.66445675298E+03  0.69003053493E+03  0.00000000000E+00 0.  1.
<mgrwt>
<rscale>  4 0.22467783E+03</rscale>
<asrwt>0</asrwt>
<pdfrwt beam="1">  1       21 0.11087924E+00 0.22467783E+03</pdfrwt>
<pdfrwt beam="2">  1       -1 0.11049164E+00 0.22467783E+03</pdfrwt>
<totfact> 0.47210395E+01</totfact>
</mgrwt>
</event>
<event>
 5    0  0.4930573E+000  0.2650165E+03  0.7546771E-02  0.1104166E+00
          1   -1    0    0  502    0 -0.00000000000E+00  0.00000000000E+00  0.17898417887E+04  0.17898417887E+04  0.00000000000E+00 0. -1.
         21   -1    0    0  503  502  0.00000000000E+00 -0.00000000000E+00 -0.17617955931E+03  0.17617955931E+03  0.00000000000E+00 0.  1.
         25    1    1    2    0    0 -0.64328975497E+02  0.20745479548E+03 -0.59888179914E+02  0.25765733708E+03  0.12500000000E+03 0.  0.
         21    1    1    2  503  501 -0.19583597862E+02  0.11581341323E+02  0.48552367352E+01  0.23264094563E+02  0.00000000000E+00 0. -1.
          1    1    1    2  501    0  0.83912573359E+02 -0.21903613680E+03  0.16686951726E+04  0.16850999164E+04  0.00000000000E+00 0. -1.
<mgrwt>
<rscale>  4 0.26501646E+03</rscale>
<asrwt>0</asrwt>
<pdfrwt beam="1">  1       21 0.27104549E-01 0.26501646E+03</pdfrwt>
<pdfrwt beam="2">  1        1 0.27536026E+00 0.26501646E+03</pdfrwt>
<totfact> 0.65479767E+02</totfact>
</mgrwt>
</event>
<event>
 5    0  0.4930573E+000  0.2529695E+03  0.7546771E-02  0.1111442E+00
         21   -1    0    0  503  502  0.00000000000E+00  0.00000000000E+00  0.14125636217E+03  0.14125636217E+03  0.00000000000E+00 0. -1.
          2   -1    0    0  502    0 -0.00000000000E+00 -0.00000000000E+00 -0.18164867288E+04  0.18164867288E+04  0.00000000000E+00 0. -1.
         25    1    1    2    0    0 -0.29621208695E+02 -0.26355642308E+03 -0.69303443534E+02  0.30127623775E+03  0.12500000000E+03 0.  0.
         21    1    1    2  503  501  0.49914901571E+02  0.14843501416E+03 -0.24660258039E+03  0.29212545847E+03  0.00000000000E+00 0. -1.
          2    1    1    2  501    0 -0.20293692876E+02  0.11512140892E+03 -0.13593243427E+04  0.13643413947E+04  0.00000000000E+00 0. -1.
<mgrwt>
<rscale>  4 0.25296953E+03</rscale>
<asrwt>0</asrwt>
<pdfrwt beam="1">  1       21 0.21731749E-01 0.25296953E+03</pdfrwt>
<pdfrwt beam="2">  1        2 0.27945948E+00 0.25296953E+03</pdfrwt>
<totfact> 0.22966116E+03</totfact>
</mgrwt>
</event>
<event>
 5    0  0.4930573E+000  0.2703737E+03  0.7546771E-02  0.1101066E+00
          2   -1    0    0  502    0 -0.00000000000E+00  0.00000000000E+00  0.24095811809E+04  0.24095811809E+04  0.00000000000E+00 0. -1.
         21   -1    0    0  503  502  0.00000000000E+00 -0.00000000000E+00 -0.78330224871E+02  0.78330224871E+02  0.00000000000E+00 0. -1.
         25    1    1    2    0    0 -0.23269374396E+03  0.55602444378E+02  0.19293231913E+03  0.33179193792E+03  0.12500000000E+03 0.  0.
         21    1    1    2  503  501 -0.99720155154E+01 -0.23517305862E+02  0.10236088818E+03  0.10550002937E+03  0.00000000000E+00 0. -1.
          2    1    1    2  501    0  0.24266575948E+03 -0.32085138516E+02  0.20359577488E+04  0.20506194385E+04  0.00000000000E+00 0. -1.
<mgrwt>
<rscale>  4 0.27037373E+03</rscale>
<asrwt>0</asrwt>
<pdfrwt beam="1">  1       21 0.12050806E-01 0.27037373E+03</pdfrwt>
<pdfrwt beam="2">  1        2 0.37070474E+00 0.27037373E+03</pdfrwt>
<totfact> 0.32826416E+03</totfact>
</mgrwt>
</event>
<event>
 5    0  0.4930573E+000  0.2824045E+03  0.7546771E-02  0.1094383E+00
         21   -1    0    0  503  502  0.00000000000E+00  0.00000000000E+00  0.11520348114E+03  0.11520348114E+03  0.00000000000E+00 0.  1.
          2   -1    0    0  502    0 -0.00000000000E+00 -0.00000000000E+00 -0.14137915878E+04  0.14137915878E+04  0.00000000000E+00 0.  1.
         25    1    1    2    0    0 -0.21549190080E+03 -0.81902237057E+02 -0.83038164483E+03  0.87080618499E+03  0.12500000000E+03 0.  0.
         21    1    1    2  503  501  0.21680732864E+03  0.14173200207E+03 -0.88394732641E+02  0.27369144473E+03  0.00000000000E+00 0.  1.
          2    1    1    2  501    0 -0.13154278340E+01 -0.59829765008E+02 -0.37981172917E+03  0.38449743920E+03  0.00000000000E+00 0.  1.
<mgrwt>
<rscale>  4 0.28240453E+03</rscale>
<asrwt>0</asrwt>
<pdfrwt beam="1">  1       21 0.17723613E-01 0.28240453E+03</pdfrwt>
<pdfrwt beam="2">  1        2 0.21750639E+00 0.28240453E+03</pdfrwt>
<totfact> 0.54519399E+03</totfact>
</mgrwt>
</event>
<event>
 5    0  0.4930573E+000  0.2028292E+03  0.7546771E-02  0.1147374E+00
          2   -1    0    0  502    0 -0.00000000000E+00  0.00000000000E+00  0.59316660526E+03  0.59316660526E+03  0.00000000000E+00 0.  1.
         21   -1    0    0  503  502  0.00000000000E+00 -0.00000000000E+00 -0.35845301006E+03  0.35845301006E+03  0.00000000000E+00 0. -1.
         25    1    1    2    0    0 -0.94958490974E+02 -0.22889651736E+03  0.47468305601E+03  0.54987247097E+03  0.12500000000E+03 0.  0.
         21    1    1    2  503  501  0.48904023989E+02  0.14822134914E+03 -0.26319310995E+03  0.30599311272E+03  0.00000000000E+00 0. -1.
          2    1    1    2  501    0  0.46054466985E+02  0.80675168218E+02  0.23223649142E+02  0.95754031642E+02  0.00000000000E+00 0.  1.
<mgrwt>
<rscale>  4 0.20282916E+03</rscale>
<asrwt>0</asrwt>
<pdfrwt beam="1">  1       21 0.55146617E-01 0.20282916E+03</pdfrwt>
<pdfrwt beam="2">  1        2 0.91256401E-01 0.20282916E+03</pdfrwt>
<totfact> 0.19840262E+03</totfact>
</mgrwt>
</event>
<event>
 5    0  0.4930573E+000  0.4656593E+03  0.7546771E-02  0.1023153E+00
          2   -1    0    0  502    0 -0.00000000000E+00  0.00000000000E+00  0.51264448031E+03  0.51264448031E+03  0.00000000000E+00 0.  1.
         21   -1    0    0  503  502  0.00000000000E+00 -0.00000000000E+00 -0.73660404911E+03  0.73660404911E+03  0.00000000000E+00 0. -1.
         25    1    1    2    0    0  0.42033519107E+03  0.14004557431E+03 -0.43181936390E+03  0.63117937132E+03  0.12500000000E+03 0.  0.
         21    1    1    2  503  501 -0.15768182998E+01  0.24602045356E+02 -0.80129351741E+02  0.83835911172E+02  0.00000000000E+00 0.  1.
          2    1    1    2  501    0 -0.41875837277E+03 -0.16464761966E+03  0.28798914684E+03  0.53423324693E+03  0.00000000000E+00 0.  1.
<mgrwt>
<rscale>  4 0.46565930E+03</rscale>
<asrwt>0</asrwt>
<pdfrwt beam="1">  1       21 0.11332370E+00 0.46565930E+03</pdfrwt>
<pdfrwt beam="2">  1        2 0.78868382E-01 0.46565930E+03</pdfrwt>
<totfact> 0.41100825E+02</totfact>
</mgrwt>
</event>
<event>
 5    0  0.4930573E+000  0.3416069E+03  0.7546771E-02  0.1066114E+00
         21   -1    0    0  503  502  0.00000000000E+00  0.00000000000E+00  0.40035909374E+03  0.40035909374E+03  0.00000000000E+00 0.  1.
          2   -1    0    0  502    0 -0.00000000000E+00 -0.00000000000E+00 -0.68276313794E+03  0.68276313794E+03  0.00000000000E+00 0.  1.
         25    1    1    2    0    0 -0.23411913093E+03  0.14289402844E+03  0.19864951893E+03  0.36099460134E+03  0.12500000000E+03 0.  0.
         21    1    1    2  503  501 -0.39596969892E+02  0.32075054968E+02  0.67512906489E+02  0.84585588125E+02  0.00000000000E+00 0. -1.
          2    1    1    2  501    0  0.27371610082E+03 -0.17496908340E+03 -0.54856646962E+03  0.63754204221E+03  0.00000000000E+00 0.  1.
<mgrwt>
<rscale>  4 0.34160694E+03</rscale>
<asrwt>0</asrwt>
<pdfrwt beam="1">  1       21 0.61593706E-01 0.34160694E+03</pdfrwt>
<pdfrwt beam="2">  1        2 0.10504048E+00 0.34160694E+03</pdfrwt>
<totfact> 0.12576785E+03</totfact>
</mgrwt>
</event>
<event>
 5    0  0.4930573E+000  0.2642310E+03  0.7546771E-02  0.1104627E+00
         -1   -1    0    0    0  501 -0.00000000000E+00  0.00000000000E+00  0.11463744556E+04  0.11463744556E+04  0.00000000000E+00 0.  1.
         21   -1    0    0  501  502  0.00000000000E+00 -0.00000000000E+00 -0.94572573545E+02  0.94572573545E+02  0.00000000000E+00 0.  1.
         25    1    1    2    0    0  0.14551106071E+03 -0.15646479286E+03  0.14804986074E+03  0.28844143506E+03  0.12500000000E+03 0.  0.
         21    1    1    2  503  502  0.27929279800E+02 -0.52335862413E+01  0.13960019632E+02  0.31659394233E+02  0.00000000000E+00 0.  1.
         -1    1    1    2    0  503 -0.17344034051E+03  0.16169837911E+03  0.88979200170E+03  0.92084619987E+03  0.00000000000E+00 0.  1.
<mgrwt>
<rscale>  4 0.26423099E+03</rscale>
<asrwt>0</asrwt>
<pdfrwt beam="1">  1       21 0.14549628E-01 0.26423099E+03</pdfrwt>
<pdfrwt beam="2">  1       -1 0.17636529E+00 0.26423099E+03</pdfrwt>
<totfact> 0.93150429E+02</totfact>
</mgrwt>
</event>
<event>
 5    0  0.4930573E+000  0.2696889E+03  0.7546771E-02  0.1101458E+00
          1   -1    0    0  502    0 -0.00000000000E+00  0.00000000000E+00  0.99512760796E+03  0.99512760796E+03  0.00000000000E+00 0. -1.
         21   -1    0    0  503  502  0.00000000000E+00 -0.00000000000E+00 -0.14029383632E+03  0.14029383632E+03  0.00000000000E+00 0.  1.
         25    1    1    2    0    0 -0.18658359925E+03  0.14919433032E+03  0.35309509317E+02  0.27192673491E+03  0.12500000000E+03 0.  0.
         21    1    1    2  503  501 -0.18493958882E+02 -0.22904782437E+02  0.62588079065E+02  0.69165910785E+02  0.00000000000E+00 0. -1.
          1    1    1    2  501    0  0.20507755813E+03 -0.12628954789E+03  0.75693618325E+03  0.79432879859E+03  0.00000000000E+00 0. -1.
<mgrwt>
<rscale>  4 0.26968893E+03</rscale>
<asrwt>0</asrwt>
<pdfrwt beam="1">  1       21 0.21583668E-01 0.26968893E+03</pdfrwt>
<pdfrwt beam="2">  1        1 0.15309655E+00 0.26968893E+03</pdfrwt>
<totfact> 0.35259323E+03</totfact>
</mgrwt>
</event>
<event>
 5    0  0.4930573E+000  0.2043385E+03  0.7546771E-02  0.1146129E+00
          2   -1    0    0  502    0 -0.00000000000E+00  0.00000000000E+00  0.15238981786E+04  0.15238981786E+04  0.00000000000E+00 0.  1.
         21   -1    0    0  503  502  0.00000000000E+00 -0.00000000000E+00 -0.24974174554E+03  0.24974174554E+03  0.00000000000E+00 0. -1.
         25    1    1    2    0    0 -0.19241661850E+03 -0.11567117634E+03 -0.16539374986E+02  0.25749277084E+03  0.12500000000E+03 0.  0.
         21    1    1    2  503  501  0.55170080450E+02  0.34309492576E+02 -0.98403067483E+02  0.11791540505E+03  0.00000000000E+00 0. -1.
          2    1    1    2  501    0  0.13724653805E+03  0.81361683768E+02  0.13890988755E+04  0.13982317482E+04  0.00000000000E+00 0.  1.
<mgrwt>
<rscale>  4 0.20433850E+03</rscale>
<asrwt>0</asrwt>
<pdfrwt beam="1">  1       21 0.38421808E-01 0.20433850E+03</pdfrwt>
<pdfrwt beam="2">  1        2 0.23444587E+00 0.20433850E+03</pdfrwt>
<totfact> 0.11053280E+03</totfact>
</mgrwt>
</event>
<event>
 5    0  0.4930573E+000  0.5218498E+03  0.7546771E-02  0.1008228E+00
         21   -1    0    0  503  502  0.00000000000E+00  0.00000000000E+00  0.90570148012E+03  0.90570148012E+03  0.00000000000E+00 0. -1.
          2   -1    0    0  502    0 -0.00000000000E+00 -0.00000000000E+00 -0.33022821166E+04  0.33022821166E+04  0.00000000000E+00 0. -1.
         25    1    1    2    0    0  0.34417387314E+03  0.40169582056E+03  0.67615935476E+02  0.54773360490E+03  0.12500000000E+03 0.  0.
         21    1    1    2  503  501 -0.37635793927E+02 -0.12280469618E+00  0.57657231349E+03  0.57779936029E+03  0.00000000000E+00 0. -1.
          2    1    1    2  501    0 -0.30653807922E+03 -0.40157301587E+03 -0.30407688855E+04  0.30824506316E+04  0.00000000000E+00 0. -1.
<mgrwt>
<rscale>  4 0.52184980E+03</rscale>
<asrwt>0</asrwt>
<pdfrwt beam="1">  1       21 0.13933869E+00 0.52184980E+03</pdfrwt>
<pdfrwt beam="2">  1        2 0.50804341E+00 0.52184980E+03</pdfrwt>
<totfact> 0.49274076E+00</totfact>
</mgrwt>
</event>
<event>
 5    0  0.4930573E+000  0.2598283E+03  0.7546771E-02  0.1107246E+00
         21   -1    0    0  503  502  0.00000000000E+00  0.00000000000E+00  0.12435808729E+03  0.12435808729E+03  0.00000000000E+00 0. -1.
          1   -1    0    0  502    0 -0.00000000000E+00 -0.00000000000E+00 -0.14271994762E+04  0.14271994762E+04  0.00000000000E+00 0. -1.
         25    1    1    2    0    0  0.16109835189E+03  0.15420353819E+03 -0.48428539433E+03  0.54762099424E+03  0.12500000000E+03 0.  0.
         21    1    1    2  503  501  0.19200715445E+02 -0.10943688334E+02  0.76553060969E+02  0.79679375824E+02  0.00000000000E+00 0. -1.
          1    1    1    2  501    0 -0.18029906734E+03 -0.14325984986E+03 -0.89510905550E+03  0.92425719338E+03  0.00000000000E+00 0. -1.
<mgrwt>
<rscale>  4 0.25982829E+03</rscale>
<asrwt>0</asrwt>
<pdfrwt beam="1">  1       21 0.19132013E-01 0.25982829E+03</pdfrwt>
<pdfrwt beam="2">  1        1 0.21956915E+00 0.25982829E+03</pdfrwt>
<totfact> 0.22074564E+03</totfact>
</mgrwt>
</event>
<event>
 5    0  0.4930573E+000  0.1960466E+03  0.7546771E-02  0.1153118E+00
         21   -1    0    0  503  502  0.00000000000E+00  0.00000000000E+00  0.10177018271E+03  0.10177018271E+03  0.00000000000E+00 0.  1.
          2   -1    0    0  502    0 -0.00000000000E+00 -0.00000000000E+00 -0.28108422898E+04  0.28108422898E+04  0.00000000000E+00 0.  1.
         25    1    1    2    0    0  0.16125625311E+03  0.12244510937E+03 -0.12375052123E+04  0.12601748031E+04  0.12500000000E+03 0.  0.
         21    1    1    2  503  501 -0.13520957175E+03 -0.61921614177E+02  0.28081652319E+02  0.15134230669E+03  0.00000000000E+00 0.  1.
          2    1    1    2  501    0 -0.26046681360E+02 -0.60523495194E+02 -0.14996485471E+04  0.15010953627E+04  0.00000000000E+00 0.  1.
<mgrwt>
<rscale>  4 0.19604661E+03</rscale>
<asrwt>0</asrwt>
<pdfrwt beam="1">  1       21 0.15656950E-01 0.19604661E+03</pdfrwt>
<pdfrwt beam="2">  1        2 0.43243731E+00 0.19604661E+03</pdfrwt>
<totfact> 0.12773300E+03</totfact>
</mgrwt>
</event>
<event>
 5    0  0.4930573E+000  0.2206353E+03  0.7546771E-02  0.1133410E+00
         21   -1    0    0  503  502  0.00000000000E+00  0.00000000000E+00  0.37831731123E+03  0.37831731123E+03  0.00000000000E+00 0.  1.
          2   -1    0    0  502    0 -0.00000000000E+00 -0.00000000000E+00 -0.10308726994E+04  0.10308726994E+04  0.00000000000E+00 0. -1.
         25    1    1    2    0    0 -0.73907757634E+02 -0.21835238606E+03  0.30341202104E+03  0.40102864691E+03  0.12500000000E+03 0.  0.
         21    1    1    2  503  501  0.28265598547E+02  0.43585778194E+02 -0.21209579462E+02  0.56111588669E+02  0.00000000000E+00 0. -1.
          2    1    1    2  501    0  0.45642159087E+02  0.17476660786E+03 -0.93475782979E+03  0.95204977509E+03  0.00000000000E+00 0. -1.
<mgrwt>
<rscale>  4 0.22063533E+03</rscale>
<asrwt>0</asrwt>
<pdfrwt beam="1">  1       21 0.58202665E-01 0.22063533E+03</pdfrwt>
<pdfrwt beam="2">  1        2 0.15859580E+00 0.22063533E+03</pdfrwt>
<totfact> 0.87018181E+02</totfact>
</mgrwt>
</event>
<event>
 5    0  0.4930573E+000  0.2190679E+03  0.7546771E-02  0.1134580E+00
          2   -1    0    0  502    0 -0.00000000000E+00  0.00000000000E+00  0.18007311727E+03  0.18007311727E+03  0.00000000000E+00 0.  1.
         21   -1    0    0  503  502  0.00000000000E+00 -0.00000000000E+00 -0.50591221065E+03  0.50591221065E+03  0.00000000000E+00 0. -1.
         25    1    1    2    0    0 -0.17328224487E+02 -0.23128412644E+03 -0.32713865380E+03  0.42004441827E+03  0.12500000000E+03 0.  0.
         21    1    1    2  503  501  0.21644873233E+02  0.13123482933E+03 -0.62750926216E+02  0.14706719453E+03  0.00000000000E+00 0. -1.
          2    1    1    2  501    0 -0.43166487460E+01  0.10004929711E+03  0.64050486636E+02  0.11887371512E+03  0.00000000000E+00 0.  1.
<mgrwt>
<rscale>  4 0.21906789E+03</rscale>
<asrwt>0</asrwt>
<pdfrwt beam="1">  1       21 0.77832648E-01 0.21906789E+03</pdfrwt>
<pdfrwt beam="2">  1        2 0.27703556E-01 0.21906789E+03</pdfrwt>
<totfact> 0.34173357E+03</totfact>
</mgrwt>
</event>
<event>
 5    0  0.4930573E+000  0.3910533E+03  0.7546771E-02  0.1046922E+00
          2   -1    0    0  502    0 -0.00000000000E+00  0.00000000000E+00  0.17591764023E+04  0.17591764023E+04  0.00000000000E+00 0. -1.
         21   -1    0    0  503  502  0.00000000000E+00 -0.00000000000E+00 -0.21533736811E+03  0.21533736811E+03  0.00000000000E+00 0. -1.
         25    1    1    2    0    0  0.14646366342E+03 -0.38768267472E+03  0.13077863146E+03  0.45219189668E+03  0.12500000000E+03 0.  0.
         21    1    1    2  503  501 -0.22897210679E+03  0.12876253381E+03  0.44411281365E+03  0.51598857259E+03  0.00000000000E+00 0. -1.
          2    1    1    2  501    0  0.82508443374E+02  0.25892014091E+03  0.96894758909E+03  0.10063333012E+04  0.00000000000E+00 0. -1.
<mgrwt>
<rscale>  4 0.39105333E+03</rscale>
<asrwt>0</asrwt>
<pdfrwt beam="1">  1       21 0.33128827E-01 0.39105333E+03</pdfrwt>
<pdfrwt beam="2">  1        2 0.27064251E+00 0.39105333E+03</pdfrwt>
<totfact> 0.10273906E+03</totfact>
</mgrwt>
</event>
<event>
 5    0  0.4930573E+000  0.2838614E+03  0.7546771E-02  0.1093598E+00
          1   -1    0    0  502    0 -0.00000000000E+00  0.00000000000E+00  0.99068446154E+03  0.99068446154E+03  0.00000000000E+00 0. -1.
         21   -1    0    0  503  502  0.00000000000E+00 -0.00000000000E+00 -0.20857264143E+03  0.20857264143E+03  0.00000000000E+00 0. -1.
         25    1    1    2    0    0 -0.49109178940E+02 -0.25060388882E+03 -0.44541919495E+02  0.28778985934E+03  0.12500000000E+03 0.  0.
         21    1    1    2  503  501 -0.91019475744E+02  0.24048184810E+02  0.99146571226E+02  0.13672199071E+03  0.00000000000E+00 0. -1.
          1    1    1    2  501    0  0.14012865468E+03  0.22655570401E+03  0.72750716838E+03  0.77474525292E+03  0.00000000000E+00 0. -1.
<mgrwt>
<rscale>  4 0.28386136E+03</rscale>
<asrwt>0</asrwt>
<pdfrwt beam="1">  1       21 0.32088099E-01 0.28386136E+03</pdfrwt>
<pdfrwt beam="2">  1        1 0.15241299E+00 0.28386136E+03</pdfrwt>
<totfact> 0.16401798E+03</totfact>
</mgrwt>
</event>
<event>
 5    0  0.4930573E+000  0.2499631E+03  0.7546771E-02  0.1113328E+00
         21   -1    0    0  503  502  0.00000000000E+00  0.00000000000E+00  0.69656311593E+02  0.69656311593E+02  0.00000000000E+00 0. -1.
          1   -1    0    0  502    0 -0.00000000000E+00 -0.00000000000E+00 -0.81895761439E+03  0.81895761439E+03  0.00000000000E+00 0. -1.
         25    1    1    2    0    0 -0.11434629139E+03  0.18379732809E+03 -0.45091726662E+03  0.51556562483E+03  0.12500000000E+03 0.  0.
         21    1    1    2  503  501  0.25158827577E+02 -0.38273398313E+02 -0.29214024170E+02  0.54325673780E+02  0.00000000000E+00 0. -1.
          1    1    1    2  501    0  0.89187463809E+02 -0.14552392978E+03 -0.26917001201E+03  0.31872262738E+03  0.00000000000E+00 0. -1.
<mgrwt>
<rscale>  4 0.24996306E+03</rscale>
<asrwt>0</asrwt>
<pdfrwt beam="1">  1       21 0.10716356E-01 0.24996306E+03</pdfrwt>
<pdfrwt beam="2">  1        1 0.12599347E+00 0.24996306E+03</pdfrwt>
<totfact> 0.17636759E+04</totfact>
</mgrwt>
</event>
<event>
 5    0  0.4930573E+000  0.3570794E+03  0.7546771E-02  0.1059746E+00
         21   -1    0    0  503  502  0.00000000000E+00  0.00000000000E+00  0.34707458853E+03  0.34707458853E+03  0.00000000000E+00 0. -1.
          3   -1    0    0  502    0 -0.00000000000E+00 -0.00000000000E+00 -0.45854672962E+03  0.45854672962E+03  0.00000000000E+00 0. -1.
         25    1    1    2    0    0  0.19468934028E+03  0.29445146773E+03 -0.13803950520E+02  0.37472810826E+03  0.12500000000E+03 0.  0.
         21    1    1    2  503  501 -0.19615930893E+02 -0.21617042314E+02  0.62743256661E+02  0.69201138139E+02  0.00000000000E+00 0. -1.
          3    1    1    2  501    0 -0.17507340939E+03 -0.27283442542E+03 -0.16041144723E+03  0.36169207175E+03  0.00000000000E+00 0. -1.
<mgrwt>
<rscale>  4 0.35707940E+03</rscale>
<asrwt>0</asrwt>
<pdfrwt beam="1">  1       21 0.53396091E-01 0.35707940E+03</pdfrwt>
<pdfrwt beam="2">  1        3 0.70545650E-01 0.35707940E+03</pdfrwt>
<totfact> 0.31129514E+02</totfact>
</mgrwt>
</event>
<event>
 5    0  0.4930573E+000  0.1942473E+03  0.7546771E-02  0.1154685E+00
          1   -1    0    0  502    0 -0.00000000000E+00  0.00000000000E+00  0.13495119080E+03  0.13495119080E+03  0.00000000000E+00 0.  1.
         21   -1    0    0  503  502  0.00000000000E+00 -0.00000000000E+00 -0.68549991894E+03  0.68549991894E+03  0.00000000000E+00 0. -1.
         25    1    1    2    0    0 -0.88846543135E+02  0.18685074615E+03 -0.42807352152E+03  0.49160843096E+03  0.12500000000E+03 0.  0.
         21    1    1    2  503  501  0.58904884503E+01 -0.71211937499E+02 -0.16541540313E+03  0.18018904931E+03  0.00000000000E+00 0.  1.
          1    1    1    2  501    0  0.82956054684E+02 -0.11563880865E+03  0.42940196521E+02  0.14865362946E+03  0.00000000000E+00 0.  1.
<mgrwt>
<rscale>  4 0.19424731E+03</rscale>
<asrwt>0</asrwt>
<pdfrwt beam="1">  1       21 0.10546153E+00 0.19424731E+03</pdfrwt>
<pdfrwt beam="2">  1        1 0.20761721E-01 0.19424731E+03</pdfrwt>
<totfact> 0.18920667E+03</totfact>
</mgrwt>
</event>
<event>
 5    0  0.4930573E+000  0.2159684E+03  0.7546771E-02  0.1136925E+00
         21   -1    0    0  503  502  0.00000000000E+00  0.00000000000E+00  0.10676022650E+03  0.10676022650E+03  0.00000000000E+00 0.  1.
          2   -1    0    0  502    0 -0.00000000000E+00 -0.00000000000E+00 -0.91271262007E+03  0.91271262007E+03  0.00000000000E+00 0.  1.
         25    1    1    2    0    0 -0.12926286932E+03 -0.16859201927E+03 -0.12868679243E+03  0.27806015337E+03  0.12500000000E+03 0.  0.
         21    1    1    2  503  501  0.28685318863E+02  0.30338661187E+02  0.11675459410E+01  0.41768948327E+02  0.00000000000E+00 0. -1.
          2    1    1    2  501    0  0.10057755046E+03  0.13825335809E+03 -0.67843314708E+03  0.69964374487E+03  0.00000000000E+00 0.  1.
<mgrwt>
<rscale>  4 0.21596837E+03</rscale>
<asrwt>0</asrwt>
<pdfrwt beam="1">  1       21 0.16424650E-01 0.21596837E+03</pdfrwt>
<pdfrwt beam="2">  1        2 0.14041733E+00 0.21596837E+03</pdfrwt>
<totfact> 0.12491308E+04</totfact>
</mgrwt>
</event>
<event>
 5    0  0.4930573E+000  0.2391387E+03  0.7546771E-02  0.1120368E+00
          2   -1    0    0  502    0 -0.00000000000E+00  0.00000000000E+00  0.10327607037E+04  0.10327607037E+04  0.00000000000E+00 0. -1.
         21   -1    0    0  503  502  0.00000000000E+00 -0.00000000000E+00 -0.65722947189E+03  0.65722947189E+03  0.00000000000E+00 0.  1.
         25    1    1    2    0    0 -0.24383775332E+03  0.78857530461E+02  0.65712638966E+02  0.29260640966E+03  0.12500000000E+03 0.  0.
         21    1    1    2  503  501  0.56483864222E+02 -0.13177600309E+02 -0.53063712186E+03  0.53379755635E+03  0.00000000000E+00 0.  1.
          2    1    1    2  501    0  0.18735388910E+03 -0.65679930152E+02  0.84045571466E+03  0.86358620953E+03  0.00000000000E+00 0. -1.
<mgrwt>
<rscale>  4 0.23913866E+03</rscale>
<asrwt>0</asrwt>
<pdfrwt beam="1">  1       21 0.10111223E+00 0.23913866E+03</pdfrwt>
<pdfrwt beam="2">  1        2 0.15888626E+00 0.23913866E+03</pdfrwt>
<totfact> 0.24665902E+02</totfact>
</mgrwt>
</event>
<event>
 5    0  0.4930573E+000  0.2519686E+03  0.7546771E-02  0.1112067E+00
         21   -1    0    0  503  502  0.00000000000E+00  0.00000000000E+00  0.63286211578E+02  0.63286211578E+02  0.00000000000E+00 0.  1.
          2   -1    0    0  502    0 -0.00000000000E+00 -0.00000000000E+00 -0.21441614649E+04  0.21441614649E+04  0.00000000000E+00 0.  1.
         25    1    1    2    0    0  0.22647895161E+03  0.64248207121E+02 -0.89595794539E+03  0.93476531148E+03  0.12500000000E+03 0.  0.
         21    1    1    2  503  501 -0.23768552405E+02 -0.57441379470E+01  0.30498065664E+02  0.39090551460E+02  0.00000000000E+00 0.  1.
          2    1    1    2  501    0 -0.20271039920E+03 -0.58504069174E+02 -0.12154153736E+04  0.12335918135E+04  0.00000000000E+00 0.  1.
<mgrwt>
<rscale>  4 0.25196863E+03</rscale>
<asrwt>0</asrwt>
<pdfrwt beam="1">  1       21 0.97363420E-02 0.25196863E+03</pdfrwt>
<pdfrwt beam="2">  1        2 0.32987093E+00 0.25196863E+03</pdfrwt>
<totfact> 0.67172194E+03</totfact>
</mgrwt>
</event>
<event>
 5    0  0.4930573E+000  0.3439977E+03  0.7546771E-02  0.1065106E+00
         21   -1    0    0  503  502  0.00000000000E+00  0.00000000000E+00  0.70606093407E+03  0.70606093407E+03  0.00000000000E+00 0.  1.
          1   -1    0    0  502    0 -0.00000000000E+00 -0.00000000000E+00 -0.18011398635E+03  0.18011398635E+03  0.00000000000E+00 0.  1.
         25    1    1    2    0    0  0.83899763645E+02 -0.28855905199E+03  0.34747224388E+03  0.47609605868E+03  0.12500000000E+03 0.  0.
         21    1    1    2  503  501  0.16257434396E+02 -0.28857457886E+02  0.33252989203E+02  0.46934191585E+02  0.00000000000E+00 0.  1.
          1    1    1    2  501    0 -0.10015719804E+03  0.31741650987E+03  0.14522171463E+03  0.36314467015E+03  0.00000000000E+00 0.  1.
<mgrwt>
<rscale>  4 0.34399767E+03</rscale>
<asrwt>0</asrwt>
<pdfrwt beam="1">  1       21 0.10862476E+00 0.34399767E+03</pdfrwt>
<pdfrwt beam="2">  1        1 0.27709844E-01 0.34399767E+03</pdfrwt>
<totfact> 0.11549834E+03</totfact>
</mgrwt>
</event>
<event>
 5    0  0.4930573E+000  0.1912629E+03  0.7546771E-02  0.1157327E+00
          1   -1    0    0  502    0 -0.00000000000E+00  0.00000000000E+00  0.24621916446E+03  0.24621916446E+03  0.00000000000E+00 0. -1.
         21   -1    0    0  503  502  0.00000000000E+00 -0.00000000000E+00 -0.12044356125E+04  0.12044356125E+04  0.00000000000E+00 0.  1.
         25    1    1    2    0    0  0.22910066769E+03  0.21773609871E+02 -0.96173761785E+03  0.99675746880E+03  0.12500000000E+03 0.  0.
         21    1    1    2  503  501 -0.88844705686E+02  0.48322816939E+01 -0.19211168609E+03  0.21171592432E+03  0.00000000000E+00 0.  1.
          1    1    1    2  501    0 -0.14025596200E+03 -0.26605891565E+02  0.19563285594E+03  0.24218138381E+03  0.00000000000E+00 0. -1.
<mgrwt>
<rscale>  4 0.19126288E+03</rscale>
<asrwt>0</asrwt>
<pdfrwt beam="1">  1       21 0.18529779E+00 0.19126288E+03</pdfrwt>
<pdfrwt beam="2">  1        1 0.37879871E-01 0.19126288E+03</pdfrwt>
<totfact> 0.20571495E+02</totfact>
</mgrwt>
</event>
<event>
 5    0  0.4930573E+000  0.2667880E+03  0.7546771E-02  0.1103132E+00
          2   -1    0    0  502    0 -0.00000000000E+00  0.00000000000E+00  0.39231376862E+03  0.39231376862E+03  0.00000000000E+00 0. -1.
         21   -1    0    0  503  502  0.00000000000E+00 -0.00000000000E+00 -0.11323469546E+04  0.11323469546E+04  0.00000000000E+00 0.  1.
         25    1    1    2    0    0 -0.25093732942E+03 -0.16663015156E+03 -0.36399557020E+03  0.48872581867E+03  0.12500000000E+03 0.  0.
         21    1    1    2  503  501  0.59486867847E+02  0.40033259235E+02 -0.66390560186E+03  0.66776642433E+03  0.00000000000E+00 0.  1.
          2    1    1    2  501    0  0.19145046158E+03  0.12659689233E+03  0.28786798610E+03  0.36816848019E+03  0.00000000000E+00 0. -1.
<mgrwt>
<rscale>  4 0.26678804E+03</rscale>
<asrwt>0</asrwt>
<pdfrwt beam="1">  1       21 0.17420722E+00 0.26678804E+03</pdfrwt>
<pdfrwt beam="2">  1        2 0.60355964E-01 0.26678804E+03</pdfrwt>
<totfact> 0.19228916E+02</totfact>
</mgrwt>
</event>
<event>
 5    0  0.4930573E+000  0.2847262E+03  0.7546771E-02  0.1093135E+00
          1   -1    0    0  502    0 -0.00000000000E+00  0.00000000000E+00  0.76969315383E+03  0.76969315383E+03  0.00000000000E+00 0.  1.
         21   -1    0    0  503  502  0.00000000000E+00 -0.00000000000E+00 -0.13570117014E+03  0.13570117014E+03  0.00000000000E+00 0.  1.
         25    1    1    2    0    0 -0.79244979777E+02 -0.23843877082E+03  0.38530708518E+03  0.47667532361E+03  0.12500000000E+03 0.  0.
         21    1    1    2  503  501 -0.24262115457E+02 -0.16088870834E+01 -0.35216894978E+02  0.42795659312E+02  0.00000000000E+00 0.  1.
          1    1    1    2  501    0  0.10350709523E+03  0.24004765790E+03  0.28390179348E+03  0.38592334105E+03  0.00000000000E+00 0.  1.
<mgrwt>
<rscale>  4 0.28472621E+03</rscale>
<asrwt>0</asrwt>
<pdfrwt beam="1">  1       21 0.20877104E-01 0.28472621E+03</pdfrwt>
<pdfrwt beam="2">  1        1 0.11841433E+00 0.28472621E+03</pdfrwt>
<totfact> 0.56638146E+03</totfact>
</mgrwt>
</event>
<event>
 5    0  0.4930573E+000  0.3252004E+03  0.7546771E-02  0.1073281E+00
          2   -1    0    0  502    0 -0.00000000000E+00  0.00000000000E+00  0.21540773021E+04  0.21540773021E+04  0.00000000000E+00 0. -1.
         21   -1    0    0  503  502  0.00000000000E+00 -0.00000000000E+00 -0.96048963439E+02  0.96048963439E+02  0.00000000000E+00 0. -1.
         25    1    1    2    0    0 -0.30476919934E+03 -0.56538945515E+02  0.46265623275E+03  0.57075100257E+03  0.12500000000E+03 0.  0.
         21    1    1    2  503  501  0.63822451915E+01  0.93230160472E+02  0.51892342405E+02  0.10688971455E+03  0.00000000000E+00 0. -1.
          2    1    1    2  501    0  0.29838695415E+03 -0.36691214958E+02  0.15434797635E+04  0.15724855484E+04  0.00000000000E+00 0. -1.
<mgrwt>
<rscale>  4 0.32520036E+03</rscale>
<asrwt>0</asrwt>
<pdfrwt beam="1">  1       21 0.14776765E-01 0.32520036E+03</pdfrwt>
<pdfrwt beam="2">  1        2 0.33139647E+00 0.32520036E+03</pdfrwt>
<totfact> 0.30407563E+03</totfact>
</mgrwt>
</event>
<event>
 5    0  0.4930573E+000  0.2311258E+03  0.7546771E-02  0.1125850E+00
         21   -1    0    0  501  502  0.00000000000E+00  0.00000000000E+00  0.53083914889E+03  0.53083914889E+03  0.00000000000E+00 0. -1.
         -4   -1    0    0    0  501 -0.00000000000E+00 -0.00000000000E+00 -0.59812080346E+03  0.59812080346E+03  0.00000000000E+00 0. -1.
         25    1    1    2    0    0 -0.21609736846E+03  0.12362848347E+03 -0.38762358583E+03  0.47734591113E+03  0.12500000000E+03 0.  0.
         21    1    1    2  503  502  0.71093191794E+02 -0.77420220577E+02  0.44353109540E+03  0.45581571392E+03  0.00000000000E+00 0. -1.
         -4    1    1    2    0  503  0.14500417667E+03 -0.46208262889E+02 -0.12318916414E+03  0.19579832730E+03  0.00000000000E+00 0. -1.
<mgrwt>
<rscale>  4 0.23112583E+03</rscale>
<asrwt>0</asrwt>
<pdfrwt beam="1">  1       21 0.81667561E-01 0.23112583E+03</pdfrwt>
<pdfrwt beam="2">  1       -4 0.92018585E-01 0.23112583E+03</pdfrwt>
<totfact> 0.56499538E+01</totfact>
</mgrwt>
</event>
<event>
 5    0  0.4930573E+000  0.3065010E+03  0.7546771E-02  0.1082035E+00
          2   -1    0    0  502    0 -0.00000000000E+00  0.00000000000E+00  0.10814107378E+04  0.10814107378E+04  0.00000000000E+00 0.  1.
         21   -1    0    0  503  502  0.00000000000E+00 -0.00000000000E+00 -0.12849296579E+03  0.12849296579E+03  0.00000000000E+00 0.  1.
         25    1    1    2    0    0  0.63631862594E+02  0.30212809430E+03  0.20027146503E+03  0.38866960134E+03  0.12500000000E+03 0.  0.
         21    1    1    2  503  501 -0.21417747716E+02 -0.33109617028E+02  0.31767215242E+02  0.50637166401E+02  0.00000000000E+00 0.  1.
          2    1    1    2  501    0 -0.42214114878E+02 -0.26901847728E+03  0.72087909179E+03  0.77059693588E+03  0.00000000000E+00 0.  1.
<mgrwt>
<rscale>  4 0.30650101E+03</rscale>
<asrwt>0</asrwt>
<pdfrwt beam="1">  1       21 0.19768149E-01 0.30650101E+03</pdfrwt>
<pdfrwt beam="2">  1        2 0.16637088E+00 0.30650101E+03</pdfrwt>
<totfact> 0.68085848E+03</totfact>
</mgrwt>
</event>
<event>
 5    0  0.4930573E+000  0.2743920E+03  0.7546771E-02  0.1098792E+00
         21   -1    0    0  501  502  0.00000000000E+00  0.00000000000E+00  0.97189338539E+03  0.97189338539E+03  0.00000000000E+00 0. -1.
         -2   -1    0    0    0  501 -0.00000000000E+00 -0.00000000000E+00 -0.11445657959E+04  0.11445657959E+04  0.00000000000E+00 0.  1.
         25    1    1    2    0    0 -0.22619011176E+03  0.59175041354E+02  0.65864880861E+03  0.71000486285E+03  0.12500000000E+03 0.  0.
         21    1    1    2  503  502 -0.14273253307E+02 -0.10567975924E+03  0.26366381616E+03  0.28441263197E+03  0.00000000000E+00 0.  1.
         -2    1    1    2    0  503  0.24046336507E+03  0.46504717887E+02 -0.10949850352E+04  0.11220416864E+04  0.00000000000E+00 0.  1.
<mgrwt>
<rscale>  4 0.27439201E+03</rscale>
<asrwt>0</asrwt>
<pdfrwt beam="1">  1       21 0.14952206E+00 0.27439201E+03</pdfrwt>
<pdfrwt beam="2">  1       -2 0.17608705E+00 0.27439201E+03</pdfrwt>
<totfact> 0.48220062E+00</totfact>
</mgrwt>
</event>
<event>
 5    0  0.4930573E+000  0.2250096E+03  0.7546771E-02  0.1130202E+00
         -2   -1    0    0    0  501 -0.00000000000E+00  0.00000000000E+00  0.10758838568E+04  0.10758838568E+04  0.00000000000E+00 0. -1.
         21   -1    0    0  501  502  0.00000000000E+00 -0.00000000000E+00 -0.68214176755E+03  0.68214176755E+03  0.00000000000E+00 0.  1.
         25    1    1    2    0    0 -0.11824379526E+03  0.28035467285E+03  0.38565193818E+03  0.50688534712E+03  0.12500000000E+03 0.  0.
         21    1    1    2  503  502  0.63219969027E+02 -0.12394921779E+03 -0.60254196219E+03  0.61839873001E+03  0.00000000000E+00 0.  1.
         -2    1    1    2    0  503  0.55023826230E+02 -0.15640545506E+03  0.61063211331E+03  0.63274154726E+03  0.00000000000E+00 0. -1.
<mgrwt>
<rscale>  4 0.22500961E+03</rscale>
<asrwt>0</asrwt>
<pdfrwt beam="1">  1       21 0.10494489E+00 0.22500961E+03</pdfrwt>
<pdfrwt beam="2">  1       -2 0.16552059E+00 0.22500961E+03</pdfrwt>
<totfact> 0.14452536E+01</totfact>
</mgrwt>
</event>
<event>
 5    0  0.4930573E+000  0.2515173E+03  0.7546771E-02  0.1112350E+00
         21   -1    0    0  501  502  0.00000000000E+00  0.00000000000E+00  0.10611059397E+04  0.10611059397E+04  0.00000000000E+00 0. -1.
         -1   -1    0    0    0  501 -0.00000000000E+00 -0.00000000000E+00 -0.12096833299E+03  0.12096833299E+03  0.00000000000E+00 0. -1.
         25    1    1    2    0    0  0.22137113243E+03 -0.16376570107E+03  0.46525107918E+03  0.55489453935E+03  0.12500000000E+03 0.  0.
         21    1    1    2  503  502 -0.13301293710E+03 -0.23594225200E+02  0.37223707868E+03  0.39599188331E+03  0.00000000000E+00 0. -1.
         -1    1    1    2    0  503 -0.88358195329E+02  0.18735992627E+03  0.10264944884E+03  0.23118785003E+03  0.00000000000E+00 0. -1.
<mgrwt>
<rscale>  4 0.25151727E+03</rscale>
<asrwt>0</asrwt>
<pdfrwt beam="1">  1       21 0.16324706E+00 0.25151727E+03</pdfrwt>
<pdfrwt beam="2">  1       -1 0.18610514E-01 0.25151727E+03</pdfrwt>
<totfact> 0.47400280E+02</totfact>
</mgrwt>
</event>
<event>
 5    0  0.4930573E+000  0.2716920E+03  0.7546771E-02  0.1100315E+00
         21   -1    0    0  503  502  0.00000000000E+00  0.00000000000E+00  0.66299260110E+03  0.66299260110E+03  0.00000000000E+00 0.  1.
          2   -1    0    0  502    0 -0.00000000000E+00 -0.00000000000E+00 -0.16986587915E+04  0.16986587915E+04  0.00000000000E+00 0. -1.
         25    1    1    2    0    0  0.28042846570E+03  0.14839657501E+03 -0.85714142057E+03  0.92248473305E+03  0.12500000000E+03 0.  0.
         21    1    1    2  503  501 -0.17408141009E+03 -0.16457429753E+03  0.60374470792E+03  0.64953576428E+03  0.00000000000E+00 0.  1.
          2    1    1    2  501    0 -0.10634705561E+03  0.16177722520E+02 -0.78226947775E+03  0.78963089527E+03  0.00000000000E+00 0. -1.
<mgrwt>
<rscale>  4 0.27169202E+03</rscale>
<asrwt>0</asrwt>
<pdfrwt beam="1">  1       21 0.10199886E+00 0.27169202E+03</pdfrwt>
<pdfrwt beam="2">  1        2 0.26133212E+00 0.27169202E+03</pdfrwt>
<totfact> 0.10127521E+02</totfact>
</mgrwt>
</event>
<event>
 5    0  0.4930573E+000  0.2059350E+03  0.7546771E-02  0.1144826E+00
          2   -1    0    0  502    0 -0.00000000000E+00  0.00000000000E+00  0.10152654578E+04  0.10152654578E+04  0.00000000000E+00 0. -1.
         21   -1    0    0  503  502  0.00000000000E+00 -0.00000000000E+00 -0.14610939843E+03  0.14610939843E+03  0.00000000000E+00 0. -1.
         25    1    1    2    0    0 -0.17698769687E+03  0.99126241954E+02 -0.10228581898E+01  0.23827862457E+03  0.12500000000E+03 0.  0.
         21    1    1    2  503  501  0.18380333542E+02 -0.67713206231E+02  0.47621594098E+02  0.84798179129E+02  0.00000000000E+00 0. -1.
          2    1    1    2  501    0  0.15860736333E+03 -0.31413035723E+02  0.82255732343E+03  0.83829805251E+03  0.00000000000E+00 0. -1.
<mgrwt>
<rscale>  4 0.20593502E+03</rscale>
<asrwt>0</asrwt>
<pdfrwt beam="1">  1       21 0.22478370E-01 0.20593502E+03</pdfrwt>
<pdfrwt beam="2">  1        2 0.15619468E+00 0.20593502E+03</pdfrwt>
<totfact> 0.60288743E+03</totfact>
</mgrwt>
</event>
<event>
 5    0  0.4930573E+000  0.2333901E+03  0.7546771E-02  0.1124276E+00
         -2   -1    0    0    0  501 -0.00000000000E+00  0.00000000000E+00  0.13264092208E+04  0.13264092208E+04  0.00000000000E+00 0. -1.
         21   -1    0    0  501  502  0.00000000000E+00 -0.00000000000E+00 -0.41218921946E+03  0.41218921946E+03  0.00000000000E+00 0. -1.
         25    1    1    2    0    0  0.23629623418E+03 -0.75861410447E+01 -0.32067353233E+03  0.41755236098E+03  0.12500000000E+03 0.  0.
         21    1    1    2  503  502 -0.40081900519E+02  0.13083266789E+02 -0.22932369957E+02  0.47996085371E+02  0.00000000000E+00 0. -1.
         -2    1    1    2    0  503 -0.19621433366E+03 -0.54971257443E+01  0.12578259036E+04  0.12730499939E+04  0.00000000000E+00 0. -1.
<mgrwt>
<rscale>  4 0.23339007E+03</rscale>
<asrwt>0</asrwt>
<pdfrwt beam="1">  1       21 0.63413727E-01 0.23339007E+03</pdfrwt>
<pdfrwt beam="2">  1       -2 0.20406296E+00 0.23339007E+03</pdfrwt>
<totfact> 0.25294238E+01</totfact>
</mgrwt>
</event>
<event>
 5    0  0.4930573E+000  0.3482822E+03  0.7546771E-02  0.1063322E+00
         21   -1    0    0  503  502  0.00000000000E+00  0.00000000000E+00  0.76071923038E+03  0.76071923038E+03  0.00000000000E+00 0.  1.
          1   -1    0    0  502    0 -0.00000000000E+00 -0.00000000000E+00 -0.98122794651E+03  0.98122794651E+03  0.00000000000E+00 0. -1.
         25    1    1    2    0    0 -0.17715526266E+02  0.33031457560E+03  0.67457239673E+03  0.76163933535E+03  0.12500000000E+03 0.  0.
         21    1    1    2  503  501 -0.22106523406E+02 -0.78826201513E+01  0.44660143289E+01  0.23890989129E+02  0.00000000000E+00 0.  1.
          1    1    1    2  501    0  0.39822049672E+02 -0.32243195545E+03 -0.89954712719E+03  0.95641685241E+03  0.00000000000E+00 0. -1.
<mgrwt>
<rscale>  4 0.34828223E+03</rscale>
<asrwt>0</asrwt>
<pdfrwt beam="1">  1       21 0.11703373E+00 0.34828223E+03</pdfrwt>
<pdfrwt beam="2">  1        1 0.15095815E+00 0.34828223E+03</pdfrwt>
<totfact> 0.94066525E+01</totfact>
</mgrwt>
</event>
<event>
 5    0  0.4930573E+000  0.3136934E+03  0.7546771E-02  0.1078589E+00
          2   -1    0    0  502    0 -0.00000000000E+00  0.00000000000E+00  0.72815953430E+03  0.72815953430E+03  0.00000000000E+00 0.  1.
         21   -1    0    0  503  502  0.00000000000E+00 -0.00000000000E+00 -0.14513508689E+03  0.14513508689E+03  0.00000000000E+00 0. -1.
         25    1    1    2    0    0 -0.29668986904E+03 -0.55799925734E+02  0.25034345326E+03  0.41162526003E+03  0.12500000000E+03 0.  0.
         21    1    1    2  503  501  0.21914705334E+02  0.79911549799E+01 -0.48422129771E+01  0.23823515574E+02  0.00000000000E+00 0. -1.
          2    1    1    2  501    0  0.27477516371E+03  0.47808770754E+02  0.33752320713E+03  0.43784584559E+03  0.00000000000E+00 0.  1.
<mgrwt>
<rscale>  4 0.31369343E+03</rscale>
<asrwt>0</asrwt>
<pdfrwt beam="1">  1       21 0.22328475E-01 0.31369343E+03</pdfrwt>
<pdfrwt beam="2">  1        2 0.11202454E+00 0.31369343E+03</pdfrwt>
<totfact> 0.92016688E+03</totfact>
</mgrwt>
</event>
