<event>
 5    0  0.1911311E+001  0.2076351E+03  0.7546771E-02  0.1143453E+00
         21   -1    0    0  502  501  0.00000000000E+00  0.00000000000E+00  0.81140669715E+02  0.81140669715E+02  0.00000000000E+00 0.  1.
         21   -1    0    0  504  502 -0.00000000000E+00 -0.00000000000E+00 -0.35643051786E+04  0.35643051786E+04  0.00000000000E+00 0.  1.
         25    1    1    2    0    0  0.19381439710E+03  0.10001022530E+03 -0.13003415984E+04  0.13244166029E+04  0.12500000000E+03 0.  0.
         21    1    1    2  503  501 -0.13307819990E+03 -0.92564735533E+02 -0.27000109052E+02  0.16433819836E+03  0.00000000000E+00 0.  1.
         21    1    1    2  504  503 -0.60736197201E+02 -0.74454897719E+01 -0.21558228014E+04  0.21566910470E+04  0.00000000000E+00 0.  1.
<mgrwt>
<rscale>  4 0.20763507E+03</rscale>
<asrwt>0</asrwt>
<pdfrwt beam="1">  1       21 0.12483179E-01 0.20763507E+03</pdfrwt>
<pdfrwt beam="2">  1       21 0.54835469E+00 0.20763507E+03</pdfrwt>
<totfact> 0.44938729E+01</totfact>
</mgrwt>
</event>
<event>
 5    0  0.1911311E+001  0.2299803E+03  0.7546771E-02  0.1126654E+00
         21   -1    0    0  502  501  0.00000000000E+00  0.00000000000E+00  0.15155827271E+03  0.15155827271E+03  0.00000000000E+00 0.  1.
         21   -1    0    0  504  502 -0.00000000000E+00 -0.00000000000E+00 -0.82503839732E+03  0.82503839732E+03  0.00000000000E+00 0.  1.
         25    1    1    2    0    0  0.25753901826E+03  0.74817373110E+02 -0.26534538574E+03  0.39743824549E+03  0.12500000000E+03 0.  0.
         21    1    1    2  503  501 -0.83298568791E+02 -0.59780254391E+02  0.30478740341E+02  0.10696393780E+03  0.00000000000E+00 0.  1.
         21    1    1    2  504  503 -0.17424044946E+03 -0.15037118718E+02 -0.43861347921E+03  0.47219448674E+03  0.00000000000E+00 0.  1.
<mgrwt>
<rscale>  4 0.22998029E+03</rscale>
<asrwt>0</asrwt>
<pdfrwt beam="1">  1       21 0.23316657E-01 0.22998029E+03</pdfrwt>
<pdfrwt beam="2">  1       21 0.12692899E+00 0.22998029E+03</pdfrwt>
<totfact> 0.77289259E+03</totfact>
</mgrwt>
</event>
<event>
 5    0  0.1911311E+001  0.2727470E+03  0.7546771E-02  0.1099718E+00
         21   -1    0    0  503  501  0.00000000000E+00  0.00000000000E+00  0.14677273067E+04  0.14677273067E+04  0.00000000000E+00 0. -1.
         21   -1    0    0  504  502 -0.00000000000E+00 -0.00000000000E+00 -0.10895564720E+03  0.10895564720E+03  0.00000000000E+00 0. -1.
         25    1    1    2    0    0 -0.11337185038E+03  0.18370537997E+03  0.95043502677E+03  0.98262535241E+03  0.12500000000E+03 0.  0.
         21    1    1    2  503  502  0.20500986306E+03 -0.14373594991E+03  0.99468784323E+02  0.26941252069E+03  0.00000000000E+00 0. -1.
         21    1    1    2  504  501 -0.91638012684E+02 -0.39969430058E+02  0.30886784841E+03  0.32464508080E+03  0.00000000000E+00 0. -1.
<mgrwt>
<rscale>  4 0.27274703E+03</rscale>
<asrwt>0</asrwt>
<pdfrwt beam="1">  1       21 0.22580419E+00 0.27274703E+03</pdfrwt>
<pdfrwt beam="2">  1       21 0.16762408E-01 0.27274703E+03</pdfrwt>
<totfact> 0.27636468E+03</totfact>
</mgrwt>
</event>
<event>
 5    0  0.1911311E+001  0.2255920E+03  0.7546771E-02  0.1129781E+00
         21   -1    0    0  504  501  0.00000000000E+00  0.00000000000E+00  0.65006560201E+03  0.65006560201E+03  0.00000000000E+00 0. -1.
         21   -1    0    0  503  502 -0.00000000000E+00 -0.00000000000E+00 -0.17860802721E+03  0.17860802721E+03  0.00000000000E+00 0. -1.
         25    1    1    2    0    0  0.15696398294E+03  0.19079648554E+03  0.40241500642E+03  0.48847090827E+03  0.12500000000E+03 0.  0.
         21    1    1    2  503  501 -0.90996654057E+02 -0.58949199259E+02 -0.76767348977E+02  0.13284812762E+03  0.00000000000E+00 0. -1.
         21    1    1    2  504  502 -0.65967328882E+02 -0.13184728628E+03  0.14580991735E+03  0.20735459333E+03  0.00000000000E+00 0. -1.
<mgrwt>
<rscale>  4 0.22559201E+03</rscale>
<asrwt>0</asrwt>
<pdfrwt beam="1">  1       21 0.10001009E+00 0.22559201E+03</pdfrwt>
<pdfrwt beam="2">  1       21 0.27478158E-01 0.22559201E+03</pdfrwt>
<totfact> 0.10142761E+04</totfact>
</mgrwt>
</event>
