<event>
 5    0  0.1911311E+001  0.3101937E+03  0.7546771E-02  0.1080253E+00
         21   -1    0    0  504  501  0.00000000000E+00  0.00000000000E+00  0.17165006380E+04  0.17165006380E+04  0.00000000000E+00 0. -1.
         21   -1    0    0  503  502 -0.00000000000E+00 -0.00000000000E+00 -0.27401502477E+03  0.27401502477E+03  0.00000000000E+00 0. -1.
         25    1    1    2    0    0  0.21189592567E+03 -0.72146993864E+02 -0.15470983120E+03  0.29944148661E+03  0.12500000000E+03 0.  0.
         21    1    1    2  503  501  0.30593055090E+02 -0.82666062448E+02  0.23399150659E+02  0.91198317704E+02  0.00000000000E+00 0.  1.
         21    1    1    2  504  502 -0.24248898076E+03  0.15481305631E+03  0.15737962937E+04  0.15998758584E+04  0.00000000000E+00 0. -1.
<mgrwt>
<rscale>  4 0.31019375E+03</rscale>
<asrwt>0</asrwt>
<pdfrwt beam="1">  1       21 0.26407701E+00 0.31019375E+03</pdfrwt>
<pdfrwt beam="2">  1       21 0.42156159E-01 0.31019375E+03</pdfrwt>
<totfact> 0.26144596E+02</totfact>
</mgrwt>
</event>
<event>
 5    0  0.1911311E+001  0.3145423E+03  0.7546771E-02  0.1078189E+00
         21   -1    0    0  503  501  0.00000000000E+00  0.00000000000E+00  0.54432300582E+03  0.54432300582E+03  0.00000000000E+00 0. -1.
         21   -1    0    0  501  502 -0.00000000000E+00 -0.00000000000E+00 -0.72353578286E+03  0.72353578286E+03  0.00000000000E+00 0. -1.
         25    1    1    2    0    0  0.22650694969E+03  0.86278972846E+02  0.44256309532E+03  0.51984281543E+03  0.12500000000E+03 0.  0.
         21    1    1    2  503  504 -0.25678532331E+03 -0.13880286535E+03 -0.62233128665E+03  0.68738720387E+03  0.00000000000E+00 0. -1.
         21    1    1    2  504  502  0.30278373620E+02  0.52523892503E+02  0.55541429058E+00  0.60628769390E+02  0.00000000000E+00 0. -1.
<mgrwt>
<rscale>  4 0.31454231E+03</rscale>
<asrwt>0</asrwt>
<pdfrwt beam="1">  1       21 0.83742002E-01 0.31454231E+03</pdfrwt>
<pdfrwt beam="2">  1       21 0.11131320E+00 0.31454231E+03</pdfrwt>
<totfact> 0.71145888E+02</totfact>
</mgrwt>
</event>
<event>
 5    0  0.1911311E+001  0.2658487E+03  0.7546771E-02  0.1103679E+00
         21   -1    0    0  504  501  0.00000000000E+00  0.00000000000E+00  0.68369773482E+03  0.68369773482E+03  0.00000000000E+00 0. -1.
         21   -1    0    0  503  502 -0.00000000000E+00 -0.00000000000E+00 -0.99596779522E+03  0.99596779522E+03  0.00000000000E+00 0.  1.
         25    1    1    2    0    0 -0.28765092468E+03 -0.37203495884E+02 -0.89678716339E+03  0.95077829750E+03  0.12500000000E+03 0.  0.
         21    1    1    2  503  501  0.55849706858E+02  0.10322249571E+02 -0.35112540426E+02  0.66772966742E+02  0.00000000000E+00 0. -1.
         21    1    1    2  504  502  0.23180121782E+03  0.26881246313E+02  0.61962964341E+03  0.66211426581E+03  0.00000000000E+00 0. -1.
<mgrwt>
<rscale>  4 0.26584867E+03</rscale>
<asrwt>0</asrwt>
<pdfrwt beam="1">  1       21 0.10518427E+00 0.26584867E+03</pdfrwt>
<pdfrwt beam="2">  1       21 0.15322582E+00 0.26584867E+03</pdfrwt>
<totfact> 0.18969086E+02</totfact>
</mgrwt>
</event>
<event>
 5    0  0.1911311E+001  0.2173117E+03  0.7546771E-02  0.1135903E+00
         21   -1    0    0  504  501  0.00000000000E+00  0.00000000000E+00  0.86019166338E+03  0.86019166338E+03  0.00000000000E+00 0.  1.
         21   -1    0    0  503  502 -0.00000000000E+00 -0.00000000000E+00 -0.99225332724E+02  0.99225332724E+02  0.00000000000E+00 0.  1.
         25    1    1    2    0    0 -0.44513712575E+02 -0.20600403632E+03  0.22226206274E+03  0.33082405917E+03  0.12500000000E+03 0.  0.
         21    1    1    2  503  501  0.24382377256E+02  0.37010511582E+02 -0.16956817125E+02  0.47453260533E+02  0.00000000000E+00 0. -1.
         21    1    1    2  504  502  0.20131335319E+02  0.16899352474E+03  0.55566108504E+03  0.58113967640E+03  0.00000000000E+00 0.  1.
<mgrwt>
<rscale>  4 0.21731175E+03</rscale>
<asrwt>0</asrwt>
<pdfrwt beam="1">  1       21 0.13233717E+00 0.21731175E+03</pdfrwt>
<pdfrwt beam="2">  1       21 0.15265436E-01 0.21731175E+03</pdfrwt>
<totfact> 0.15444735E+04</totfact>
</mgrwt>
</event>
