<event>
 5    0  0.1257040E+001  0.2321616E+03  0.7546771E-02  0.1125128E+00
         21   -1    0    0  502  501  0.00000000000E+00  0.00000000000E+00  0.39900227780E+03  0.39900227780E+03  0.00000000000E+00 0.  1.
         21   -1    0    0  504  502 -0.00000000000E+00 -0.00000000000E+00 -0.94427194997E+03  0.94427194997E+03  0.00000000000E+00 0.  1.
         25    1    1    2    0    0 -0.19597582364E+02  0.33837251061E+03 -0.40604233426E+03  0.54348449691E+03  0.12500000000E+03 0.  0.
         21    1    1    2  503  501  0.57016836924E+02 -0.17889303161E+03  0.28711645646E+03  0.34305902702E+03  0.00000000000E+00 0.  1.
         21    1    1    2  504  503 -0.37419254560E+02 -0.15947947900E+03 -0.42634379437E+03  0.45673070384E+03  0.00000000000E+00 0.  1.
<mgrwt>
<rscale>  4 0.23216155E+03</rscale>
<asrwt>0</asrwt>
<pdfrwt beam="1">  1       21 0.61384966E-01 0.23216155E+03</pdfrwt>
<pdfrwt beam="2">  1       21 0.14527261E+00 0.23216155E+03</pdfrwt>
<totfact> 0.77084361E+02</totfact>
</mgrwt>
</event>
<event>
 5    0  0.1257040E+001  0.3600158E+03  0.7546771E-02  0.1058578E+00
         21   -1    0    0  502  501  0.00000000000E+00  0.00000000000E+00  0.83530496626E+02  0.83530496626E+02  0.00000000000E+00 0.  1.
         21   -1    0    0  504  502 -0.00000000000E+00 -0.00000000000E+00 -0.22705091949E+04  0.22705091949E+04  0.00000000000E+00 0.  1.
         25    1    1    2    0    0 -0.18330048319E+02  0.31268406578E+03 -0.47129055170E+03  0.57952316588E+03  0.12500000000E+03 0.  0.
         21    1    1    2  503  501  0.17023092485E+02  0.32890439682E+02 -0.16501568903E+02  0.40544647939E+02  0.00000000000E+00 0.  1.
         21    1    1    2  504  503  0.13069558339E+01 -0.34557450546E+03 -0.16991865777E+04  0.17339718777E+04  0.00000000000E+00 0.  1.
<mgrwt>
<rscale>  4 0.36001584E+03</rscale>
<asrwt>0</asrwt>
<pdfrwt beam="1">  1       21 0.12850847E-01 0.36001584E+03</pdfrwt>
<pdfrwt beam="2">  1       21 0.34930907E+00 0.36001584E+03</pdfrwt>
<totfact> 0.76877059E+02</totfact>
</mgrwt>
</event>
<event>
 5    0  0.1257040E+001  0.2770672E+03  0.7546771E-02  0.1097302E+00
         21   -1    0    0  504  501  0.00000000000E+00  0.00000000000E+00  0.44347741471E+03  0.44347741471E+03  0.00000000000E+00 0.  1.
         21   -1    0    0  503  502 -0.00000000000E+00 -0.00000000000E+00 -0.86691064711E+03  0.86691064711E+03  0.00000000000E+00 0.  1.
         25    1    1    2    0    0 -0.23585603749E+03  0.13105153652E+03  0.30399066945E+03  0.42525040007E+03  0.12500000000E+03 0.  0.
         21    1    1    2  503  501  0.22145378160E+03 -0.10739673432E+03 -0.78422780580E+03  0.82194226519E+03  0.00000000000E+00 0.  1.
         21    1    1    2  504  502  0.14402255889E+02 -0.23654802197E+02  0.56803903946E+02  0.63195396550E+02  0.00000000000E+00 0. -1.
<mgrwt>
<rscale>  4 0.27706717E+03</rscale>
<asrwt>0</asrwt>
<pdfrwt beam="1">  1       21 0.68227296E-01 0.27706717E+03</pdfrwt>
<pdfrwt beam="2">  1       21 0.13337087E+00 0.27706717E+03</pdfrwt>
<totfact> 0.73622227E+02</totfact>
</mgrwt>
</event>
<event>
 5    0  0.1257040E+001  0.2427710E+03  0.7546771E-02  0.1117961E+00
         21   -1    0    0  504  501  0.00000000000E+00  0.00000000000E+00  0.44500396318E+02  0.44500396318E+02  0.00000000000E+00 0. -1.
         21   -1    0    0  503  502 -0.00000000000E+00 -0.00000000000E+00 -0.20190100067E+04  0.20190100067E+04  0.00000000000E+00 0. -1.
         25    1    1    2    0    0 -0.22705811440E+03 -0.79867830096E+02 -0.62112545183E+03  0.67775813128E+03  0.12500000000E+03 0.  0.
         21    1    1    2  503  501  0.16740177343E+03  0.10990878987E+03 -0.12226716053E+04  0.12389629334E+04  0.00000000000E+00 0. -1.
         21    1    1    2  504  502  0.59656340970E+02 -0.30040959770E+02 -0.13071255317E+03  0.14678933830E+03  0.00000000000E+00 0. -1.
<mgrwt>
<rscale>  4 0.24277098E+03</rscale>
<asrwt>0</asrwt>
<pdfrwt beam="1">  1       21 0.68462145E-02 0.24277098E+03</pdfrwt>
<pdfrwt beam="2">  1       21 0.31061694E+00 0.24277098E+03</pdfrwt>
<totfact> 0.44160646E+03</totfact>
</mgrwt>
</event>
<event>
 5    0  0.1257040E+001  0.2768696E+03  0.7546771E-02  0.1097411E+00
         21   -1    0    0  502  501  0.00000000000E+00  0.00000000000E+00  0.32716693275E+03  0.32716693275E+03  0.00000000000E+00 0.  1.
         21   -1    0    0  504  502 -0.00000000000E+00 -0.00000000000E+00 -0.44140471510E+03  0.44140471510E+03  0.00000000000E+00 0.  1.
         25    1    1    2    0    0  0.17707893889E+03  0.16551878947E+03 -0.20715654479E+03  0.34247956773E+03  0.12500000000E+03 0.  0.
         21    1    1    2  503  501 -0.16437963018E+03 -0.18603715015E+03  0.19845747924E+03  0.31782991540E+03  0.00000000000E+00 0.  1.
         21    1    1    2  504  503 -0.12699308707E+02  0.20518360687E+02 -0.10553871679E+03  0.10826216472E+03  0.00000000000E+00 0.  1.
<mgrwt>
<rscale>  4 0.27686958E+03</rscale>
<asrwt>0</asrwt>
<pdfrwt beam="1">  1       21 0.50333374E-01 0.27686958E+03</pdfrwt>
<pdfrwt beam="2">  1       21 0.67908417E-01 0.27686958E+03</pdfrwt>
<totfact> 0.70608450E+03</totfact>
</mgrwt>
</event>
<event>
 5    0  0.1257040E+001  0.2192009E+03  0.7546771E-02  0.1134480E+00
         21   -1    0    0  502  501  0.00000000000E+00  0.00000000000E+00  0.57202462457E+03  0.57202462457E+03  0.00000000000E+00 0. -1.
         21   -1    0    0  504  502 -0.00000000000E+00 -0.00000000000E+00 -0.29604627918E+03  0.29604627918E+03  0.00000000000E+00 0.  1.
         25    1    1    2    0    0  0.16479476330E+03 -0.21090711231E+03 -0.97964596884E+02  0.31122529826E+03  0.12500000000E+03 0.  0.
         21    1    1    2  503  501 -0.40370770149E+02  0.90908867565E+02 -0.40806784734E+02  0.10751471976E+03  0.00000000000E+00 0.  1.
         21    1    1    2  504  503 -0.12442399315E+03  0.11999824475E+03  0.41474972701E+03  0.44933088573E+03  0.00000000000E+00 0. -1.
<mgrwt>
<rscale>  4 0.21920085E+03</rscale>
<asrwt>0</asrwt>
<pdfrwt beam="1">  1       21 0.88003788E-01 0.21920085E+03</pdfrwt>
<pdfrwt beam="2">  1       21 0.45545581E-01 0.21920085E+03</pdfrwt>
<totfact> 0.50127570E+03</totfact>
</mgrwt>
</event>
<event>
 5    0  0.1257040E+001  0.2230946E+03  0.7546771E-02  0.1131597E+00
         21   -1    0    0  504  501  0.00000000000E+00  0.00000000000E+00  0.45834943042E+02  0.45834943042E+02  0.00000000000E+00 0. -1.
         21   -1    0    0  503  502 -0.00000000000E+00 -0.00000000000E+00 -0.19230163025E+04  0.19230163025E+04  0.00000000000E+00 0. -1.
         25    1    1    2    0    0 -0.20953315987E+03  0.79755970092E+02 -0.65206167980E+03  0.70076714685E+03  0.12500000000E+03 0.  0.
         21    1    1    2  503  501  0.17667998234E+03  0.29173024271E+02 -0.99934186843E+03  0.10152591056E+04  0.00000000000E+00 0. -1.
         21    1    1    2  504  502  0.32853177535E+02 -0.10892899436E+03 -0.22577781126E+03  0.25282499311E+03  0.00000000000E+00 0. -1.
<mgrwt>
<rscale>  4 0.22309460E+03</rscale>
<asrwt>0</asrwt>
<pdfrwt beam="1">  1       21 0.70515286E-02 0.22309460E+03</pdfrwt>
<pdfrwt beam="2">  1       21 0.29584871E+00 0.22309460E+03</pdfrwt>
<totfact> 0.52132348E+03</totfact>
</mgrwt>
</event>
<event>
 5    0  0.1257040E+001  0.2788719E+03  0.7546771E-02  0.1096307E+00
         21   -1    0    0  504  501  0.00000000000E+00  0.00000000000E+00  0.88720624007E+03  0.88720624007E+03  0.00000000000E+00 0.  1.
         21   -1    0    0  503  502 -0.00000000000E+00 -0.00000000000E+00 -0.21388488249E+03  0.21388488249E+03  0.00000000000E+00 0.  1.
         25    1    1    2    0    0 -0.24233066115E+03 -0.13633278602E+03  0.68338443600E+03  0.74829811255E+03  0.12500000000E+03 0.  0.
         21    1    1    2  503  501  0.21801586920E+03  0.11372614807E+03 -0.93438827224E+02  0.26305012908E+03  0.00000000000E+00 0.  1.
         21    1    1    2  504  502  0.24314791955E+02  0.22606637955E+02  0.83375748801E+02  0.89742880919E+02  0.00000000000E+00 0. -1.
<mgrwt>
<rscale>  4 0.27887191E+03</rscale>
<asrwt>0</asrwt>
<pdfrwt beam="1">  1       21 0.13649327E+00 0.27887191E+03</pdfrwt>
<pdfrwt beam="2">  1       21 0.32905367E-01 0.27887191E+03</pdfrwt>
<totfact> 0.31849487E+03</totfact>
</mgrwt>
</event>
<event>
 5    0  0.1257040E+001  0.4846407E+03  0.7546771E-02  0.1017868E+00
         21   -1    0    0  502  501  0.00000000000E+00  0.00000000000E+00  0.67713637975E+03  0.67713637975E+03  0.00000000000E+00 0. -1.
         21   -1    0    0  504  502 -0.00000000000E+00 -0.00000000000E+00 -0.36279079504E+03  0.36279079504E+03  0.00000000000E+00 0. -1.
         25    1    1    2    0    0 -0.59879433453E+02  0.46746952539E+03  0.13361427421E+03  0.50556016258E+03  0.12500000000E+03 0.  0.
         21    1    1    2  503  501  0.25937646406E+02 -0.31079391798E+01  0.40342497645E+02  0.48061813358E+02  0.00000000000E+00 0. -1.
         21    1    1    2  504  503  0.33941787047E+02 -0.46436158621E+03  0.14038881285E+03  0.48630519885E+03  0.00000000000E+00 0. -1.
<mgrwt>
<rscale>  4 0.48464075E+03</rscale>
<asrwt>0</asrwt>
<pdfrwt beam="1">  1       21 0.10417483E+00 0.48464075E+03</pdfrwt>
<pdfrwt beam="2">  1       21 0.55813968E-01 0.48464075E+03</pdfrwt>
<totfact> 0.19152066E+03</totfact>
</mgrwt>
</event>
<event>
 5    0  0.1257040E+001  0.3085423E+03  0.7546771E-02  0.1081047E+00
         21   -1    0    0  503  501  0.00000000000E+00  0.00000000000E+00  0.94081504658E+02  0.94081504658E+02  0.00000000000E+00 0.  1.
         21   -1    0    0  504  502 -0.00000000000E+00 -0.00000000000E+00 -0.12749319924E+04  0.12749319924E+04  0.00000000000E+00 0.  1.
         25    1    1    2    0    0  0.12639625385E+03 -0.25218513313E+03 -0.26766111939E+03  0.40846153943E+03  0.12500000000E+03 0.  0.
         21    1    1    2  503  502 -0.68969089833E+02  0.22080642067E+03 -0.74464858917E+03  0.77975235307E+03  0.00000000000E+00 0.  1.
         21    1    1    2  504  501 -0.57427164015E+02  0.31378712459E+02 -0.16854077915E+03  0.18079960453E+03  0.00000000000E+00 0. -1.
<mgrwt>
<rscale>  4 0.30854231E+03</rscale>
<asrwt>0</asrwt>
<pdfrwt beam="1">  1       21 0.14474078E-01 0.30854231E+03</pdfrwt>
<pdfrwt beam="2">  1       21 0.19614338E+00 0.30854231E+03</pdfrwt>
<totfact> 0.54748165E+03</totfact>
</mgrwt>
</event>
<event>
 5    0  0.1257040E+001  0.2570196E+03  0.7546771E-02  0.1108947E+00
         21   -1    0    0  504  501  0.00000000000E+00  0.00000000000E+00  0.24451378235E+03  0.24451378235E+03  0.00000000000E+00 0. -1.
         21   -1    0    0  503  502 -0.00000000000E+00 -0.00000000000E+00 -0.35328986082E+03  0.35328986082E+03  0.00000000000E+00 0. -1.
         25    1    1    2    0    0  0.21675485333E+01 -0.21524784018E+03 -0.18342397998E+03  0.30920169372E+03  0.12500000000E+03 0.  0.
         21    1    1    2  503  501 -0.19003970851E+02 -0.11628799471E+02 -0.30668441785E+02  0.37906901835E+02  0.00000000000E+00 0. -1.
         21    1    1    2  504  502  0.16836422318E+02  0.22687663965E+03  0.10531634329E+03  0.25069504761E+03  0.00000000000E+00 0. -1.
<mgrwt>
<rscale>  4 0.25701961E+03</rscale>
<asrwt>0</asrwt>
<pdfrwt beam="1">  1       21 0.37617505E-01 0.25701961E+03</pdfrwt>
<pdfrwt beam="2">  1       21 0.54352286E-01 0.25701961E+03</pdfrwt>
<totfact> 0.21064362E+04</totfact>
</mgrwt>
</event>
<event>
 5    0  0.1257040E+001  0.3698396E+03  0.7546771E-02  0.1054754E+00
         21   -1    0    0  503  501  0.00000000000E+00  0.00000000000E+00  0.58833529535E+03  0.58833529535E+03  0.00000000000E+00 0.  1.
         21   -1    0    0  504  502 -0.00000000000E+00 -0.00000000000E+00 -0.35520008331E+03  0.35520008331E+03  0.00000000000E+00 0.  1.
         25    1    1    2    0    0 -0.14179591681E+03  0.30960894991E+03 -0.10442397929E+03  0.37748265038E+03  0.12500000000E+03 0.  0.
         21    1    1    2  503  502  0.14612884928E+03 -0.33368609239E+03  0.17948587814E+03  0.40609756131E+03  0.00000000000E+00 0.  1.
         21    1    1    2  504  501 -0.43329324738E+01  0.24077142479E+02  0.15807331319E+03  0.15995516696E+03  0.00000000000E+00 0. -1.
<mgrwt>
<rscale>  4 0.36983959E+03</rscale>
<asrwt>0</asrwt>
<pdfrwt beam="1">  1       21 0.90513123E-01 0.36983959E+03</pdfrwt>
<pdfrwt beam="2">  1       21 0.54646166E-01 0.36983959E+03</pdfrwt>
<totfact> 0.29422171E+03</totfact>
</mgrwt>
</event>
<event>
 5    0  0.1257040E+001  0.5150832E+03  0.7546771E-02  0.1009915E+00
         21   -1    0    0  502  501  0.00000000000E+00  0.00000000000E+00  0.43950711828E+03  0.43950711828E+03  0.00000000000E+00 0. -1.
         21   -1    0    0  504  502 -0.00000000000E+00 -0.00000000000E+00 -0.79516679076E+03  0.79516679076E+03  0.00000000000E+00 0. -1.
         25    1    1    2    0    0  0.43658855551E+03 -0.18763286619E+03 -0.16470712338E+03  0.51823652493E+03  0.12500000000E+03 0.  0.
         21    1    1    2  503  501  0.68246826316E+02  0.48688402253E+02  0.89351243438E+02  0.12252279184E+03  0.00000000000E+00 0. -1.
         21    1    1    2  504  503 -0.50483538183E+03  0.13894446393E+03 -0.28030379254E+03  0.59391459228E+03  0.00000000000E+00 0. -1.
<mgrwt>
<rscale>  4 0.51508321E+03</rscale>
<asrwt>0</asrwt>
<pdfrwt beam="1">  1       21 0.67616481E-01 0.51508321E+03</pdfrwt>
<pdfrwt beam="2">  1       21 0.12233335E+00 0.51508321E+03</pdfrwt>
<totfact> 0.82948416E+02</totfact>
</mgrwt>
</event>
<event>
 5    0  0.1257040E+001  0.2576895E+03  0.7546771E-02  0.1108539E+00
         21   -1    0    0  503  501  0.00000000000E+00  0.00000000000E+00  0.32757001919E+03  0.32757001919E+03  0.00000000000E+00 0. -1.
         21   -1    0    0  504  502 -0.00000000000E+00 -0.00000000000E+00 -0.39834304918E+03  0.39834304918E+03  0.00000000000E+00 0. -1.
         25    1    1    2    0    0 -0.21983692535E+03 -0.11585400631E+03 -0.26090936679E+03  0.38137792569E+03  0.12500000000E+03 0.  0.
         21    1    1    2  503  502  0.36160869725E+02 -0.89413825148E+01 -0.16925293462E+02  0.40914818578E+02  0.00000000000E+00 0.  1.
         21    1    1    2  504  501  0.18367605562E+03  0.12479538882E+03  0.20706163027E+03  0.30362032411E+03  0.00000000000E+00 0. -1.
<mgrwt>
<rscale>  4 0.25768947E+03</rscale>
<asrwt>0</asrwt>
<pdfrwt beam="1">  1       21 0.50395388E-01 0.25768947E+03</pdfrwt>
<pdfrwt beam="2">  1       21 0.61283546E-01 0.25768947E+03</pdfrwt>
<totfact> 0.89105129E+03</totfact>
</mgrwt>
</event>
<event>
 5    0  0.1257040E+001  0.2880258E+03  0.7546771E-02  0.1091384E+00
         21   -1    0    0  502  501  0.00000000000E+00  0.00000000000E+00  0.12497509285E+04  0.12497509285E+04  0.00000000000E+00 0. -1.
         21   -1    0    0  504  502 -0.00000000000E+00 -0.00000000000E+00 -0.34142848563E+03  0.34142848563E+03  0.00000000000E+00 0.  1.
         25    1    1    2    0    0 -0.18161994878E+03  0.15066914580E+03 -0.16937497467E+03  0.31622757523E+03  0.12500000000E+03 0.  0.
         21    1    1    2  503  501  0.20672715623E+03 -0.15916173681E+03  0.11597451408E+04  0.11887293078E+04  0.00000000000E+00 0. -1.
         21    1    1    2  504  503 -0.25107207446E+02  0.84925910127E+01 -0.82047723296E+02  0.86222531080E+02  0.00000000000E+00 0. -1.
<mgrwt>
<rscale>  4 0.28802577E+03</rscale>
<asrwt>0</asrwt>
<pdfrwt beam="1">  1       21 0.19226937E+00 0.28802577E+03</pdfrwt>
<pdfrwt beam="2">  1       21 0.52527460E-01 0.28802577E+03</pdfrwt>
<totfact> 0.47134505E+02</totfact>
</mgrwt>
</event>
<event>
 5    0  0.1257040E+001  0.2609289E+03  0.7546771E-02  0.1106586E+00
         21   -1    0    0  504  501  0.00000000000E+00  0.00000000000E+00  0.24731594908E+03  0.24731594908E+03  0.00000000000E+00 0.  1.
         21   -1    0    0  501  502 -0.00000000000E+00 -0.00000000000E+00 -0.35592275972E+03  0.35592275972E+03  0.00000000000E+00 0.  1.
         25    1    1    2    0    0  0.82037877519E+02  0.19780463092E+03 -0.35397719983E+02  0.25046932734E+03  0.12500000000E+03 0.  0.
         21    1    1    2  503  502 -0.95123461982E+02 -0.22023183189E+03  0.34149572074E+02  0.24231534428E+03  0.00000000000E+00 0.  1.
         21    1    1    2  504  503  0.13085584463E+02  0.22427200976E+02 -0.10735866273E+03  0.11045403717E+03  0.00000000000E+00 0. -1.
<mgrwt>
<rscale>  4 0.26092894E+03</rscale>
<asrwt>0</asrwt>
<pdfrwt beam="1">  1       21 0.38048608E-01 0.26092894E+03</pdfrwt>
<pdfrwt beam="2">  1       21 0.54757347E-01 0.26092894E+03</pdfrwt>
<totfact> 0.20226085E+04</totfact>
</mgrwt>
</event>
<event>
 5    0  0.1257040E+001  0.3398251E+03  0.7546771E-02  0.1066870E+00
         21   -1    0    0  502  501  0.00000000000E+00  0.00000000000E+00  0.16583673902E+04  0.16583673902E+04  0.00000000000E+00 0. -1.
         21   -1    0    0  504  502 -0.00000000000E+00 -0.00000000000E+00 -0.13848435730E+04  0.13848435730E+04  0.00000000000E+00 0.  1.
         25    1    1    2    0    0 -0.11654777594E+03  0.32022886644E+03 -0.11562417545E+04  0.12118786680E+04  0.12500000000E+03 0.  0.
         21    1    1    2  503  501  0.20327505318E+03 -0.24186553518E+03  0.15966368502E+04  0.16275960542E+04  0.00000000000E+00 0. -1.
         21    1    1    2  504  503 -0.86727277244E+02 -0.78363331261E+02 -0.16687127843E+03  0.20373624094E+03  0.00000000000E+00 0.  1.
<mgrwt>
<rscale>  4 0.33982514E+03</rscale>
<asrwt>0</asrwt>
<pdfrwt beam="1">  1       21 0.25513345E+00 0.33982514E+03</pdfrwt>
<pdfrwt beam="2">  1       21 0.21305286E+00 0.33982514E+03</pdfrwt>
<totfact> 0.55132127E+00</totfact>
</mgrwt>
</event>
<event>
 5    0  0.1257040E+001  0.2841164E+03  0.7546771E-02  0.1093462E+00
         21   -1    0    0  502  501  0.00000000000E+00  0.00000000000E+00  0.45293160097E+03  0.45293160097E+03  0.00000000000E+00 0. -1.
         21   -1    0    0  504  502 -0.00000000000E+00 -0.00000000000E+00 -0.35735585459E+03  0.35735585459E+03  0.00000000000E+00 0. -1.
         25    1    1    2    0    0 -0.57267318061E+02 -0.30974009246E+03  0.95229423226E+02  0.35201152487E+03  0.12500000000E+03 0.  0.
         21    1    1    2  503  501  0.79110590431E+02  0.71194776417E+02  0.14392268600E+03  0.17899978004E+03  0.00000000000E+00 0. -1.
         21    1    1    2  504  503 -0.21843272370E+02  0.23854531604E+03 -0.14357636285E+03  0.27927615065E+03  0.00000000000E+00 0. -1.
<mgrwt>
<rscale>  4 0.28411642E+03</rscale>
<asrwt>0</asrwt>
<pdfrwt beam="1">  1       21 0.69681785E-01 0.28411642E+03</pdfrwt>
<pdfrwt beam="2">  1       21 0.54977824E-01 0.28411642E+03</pdfrwt>
<totfact> 0.55088066E+03</totfact>
</mgrwt>
</event>
<event>
 5    0  0.1257040E+001  0.1893388E+03  0.7546771E-02  0.1159059E+00
         21   -1    0    0  502  501  0.00000000000E+00  0.00000000000E+00  0.18861290417E+03  0.18861290417E+03  0.00000000000E+00 0. -1.
         21   -1    0    0  504  502 -0.00000000000E+00 -0.00000000000E+00 -0.54185944033E+03  0.54185944033E+03  0.00000000000E+00 0. -1.
         25    1    1    2    0    0 -0.21727999675E+03 -0.34156825336E+02 -0.29493369245E+03  0.38857196071E+03  0.12500000000E+03 0.  0.
         21    1    1    2  503  501  0.12314306543E+03  0.54818495712E+02  0.92104047676E+02  0.16325574303E+03  0.00000000000E+00 0. -1.
         21    1    1    2  504  503  0.94136931324E+02 -0.20661670376E+02 -0.15041689139E+03  0.17864464077E+03  0.00000000000E+00 0. -1.
<mgrwt>
<rscale>  4 0.18933885E+03</rscale>
<asrwt>0</asrwt>
<pdfrwt beam="1">  1       21 0.29017370E-01 0.18933885E+03</pdfrwt>
<pdfrwt beam="2">  1       21 0.83362991E-01 0.18933885E+03</pdfrwt>
<totfact> 0.14272730E+04</totfact>
</mgrwt>
</event>
<event>
 5    0  0.1257040E+001  0.2776863E+03  0.7546771E-02  0.1096959E+00
         21   -1    0    0  503  501  0.00000000000E+00  0.00000000000E+00  0.22455957762E+04  0.22455957762E+04  0.00000000000E+00 0. -1.
         21   -1    0    0  504  502 -0.00000000000E+00 -0.00000000000E+00 -0.93469692846E+02  0.93469692846E+02  0.00000000000E+00 0. -1.
         25    1    1    2    0    0  0.78403284718E+02 -0.20900035581E+03  0.12400165127E+03  0.28430552809E+03  0.12500000000E+03 0.  0.
         21    1    1    2  503  502  0.15640452018E+02 -0.23045760441E+02  0.29717229081E+02  0.40728915010E+02  0.00000000000E+00 0. -1.
         21    1    1    2  504  501 -0.94043736737E+02  0.23204611625E+03  0.19984072030E+04  0.20140310260E+04  0.00000000000E+00 0. -1.
<mgrwt>
<rscale>  4 0.27768625E+03</rscale>
<asrwt>0</asrwt>
<pdfrwt beam="1">  1       21 0.34547623E+00 0.27768625E+03</pdfrwt>
<pdfrwt beam="2">  1       21 0.14379954E-01 0.27768625E+03</pdfrwt>
<totfact> 0.70918342E+02</totfact>
</mgrwt>
</event>
<event>
 5    0  0.1257040E+001  0.2983606E+03  0.7546771E-02  0.1086063E+00
         21   -1    0    0  504  501  0.00000000000E+00  0.00000000000E+00  0.52714596705E+03  0.52714596705E+03  0.00000000000E+00 0. -1.
         21   -1    0    0  503  502 -0.00000000000E+00 -0.00000000000E+00 -0.28900799394E+03  0.28900799394E+03  0.00000000000E+00 0. -1.
         25    1    1    2    0    0  0.17759080287E+03  0.20372612169E+03  0.33301015311E+03  0.44672540559E+03  0.12500000000E+03 0.  0.
         21    1    1    2  503  501 -0.20835100188E+03 -0.17428257011E+03 -0.14150398809E+03  0.30628080723E+03  0.00000000000E+00 0. -1.
         21    1    1    2  504  502  0.30760199012E+02 -0.29443551583E+02  0.46631808095E+02  0.63147748173E+02  0.00000000000E+00 0. -1.
<mgrwt>
<rscale>  4 0.29836057E+03</rscale>
<asrwt>0</asrwt>
<pdfrwt beam="1">  1       21 0.81099380E-01 0.29836057E+03</pdfrwt>
<pdfrwt beam="2">  1       21 0.44462768E-01 0.29836057E+03</pdfrwt>
<totfact> 0.60671167E+03</totfact>
</mgrwt>
</event>
<event>
 5    0  0.1257040E+001  0.2851231E+03  0.7546771E-02  0.1092923E+00
         21   -1    0    0  502  501  0.00000000000E+00  0.00000000000E+00  0.22934452010E+03  0.22934452010E+03  0.00000000000E+00 0. -1.
         21   -1    0    0  504  502 -0.00000000000E+00 -0.00000000000E+00 -0.40745955797E+03  0.40745955797E+03  0.00000000000E+00 0. -1.
         25    1    1    2    0    0  0.16984853021E+03 -0.18068024916E+03 -0.18872600883E+03  0.33576238929E+03  0.12500000000E+03 0.  0.
         21    1    1    2  503  501 -0.19641973492E+03  0.17069110146E+03  0.36317032694E+02  0.26274529729E+03  0.00000000000E+00 0. -1.
         21    1    1    2  504  503  0.26571204708E+02  0.99891476999E+01 -0.25706061728E+02  0.38296391488E+02  0.00000000000E+00 0.  1.
<mgrwt>
<rscale>  4 0.28512315E+03</rscale>
<asrwt>0</asrwt>
<pdfrwt beam="1">  1       21 0.35283773E-01 0.28512315E+03</pdfrwt>
<pdfrwt beam="2">  1       21 0.62686085E-01 0.28512315E+03</pdfrwt>
<totfact> 0.17397246E+04</totfact>
</mgrwt>
</event>
<event>
 5    0  0.1257040E+001  0.3828499E+03  0.7546771E-02  0.1049885E+00
         21   -1    0    0  502  501  0.00000000000E+00  0.00000000000E+00  0.44500950405E+03  0.44500950405E+03  0.00000000000E+00 0. -1.
         21   -1    0    0  504  502 -0.00000000000E+00 -0.00000000000E+00 -0.39857362992E+03  0.39857362992E+03  0.00000000000E+00 0. -1.
         25    1    1    2    0    0  0.33226830970E+03 -0.14630061279E+03  0.10531063400E+03  0.39814749599E+03  0.12500000000E+03 0.  0.
         21    1    1    2  503  501 -0.14031177892E+02 -0.25505498511E+02  0.58392564752E+02  0.65246425386E+02  0.00000000000E+00 0. -1.
         21    1    1    2  504  503 -0.31823713181E+03  0.17180611130E+03 -0.11726732462E+03  0.38018921258E+03  0.00000000000E+00 0. -1.
<mgrwt>
<rscale>  4 0.38284992E+03</rscale>
<asrwt>0</asrwt>
<pdfrwt beam="1">  1       21 0.68463001E-01 0.38284992E+03</pdfrwt>
<pdfrwt beam="2">  1       21 0.61319020E-01 0.38284992E+03</pdfrwt>
<totfact> 0.43247295E+03</totfact>
</mgrwt>
</event>
<event>
 5    0  0.1257040E+001  0.2988656E+03  0.7546771E-02  0.1085809E+00
         21   -1    0    0  504  501  0.00000000000E+00  0.00000000000E+00  0.41923813599E+03  0.41923813599E+03  0.00000000000E+00 0.  1.
         21   -1    0    0  503  502 -0.00000000000E+00 -0.00000000000E+00 -0.10682976716E+04  0.10682976716E+04  0.00000000000E+00 0.  1.
         25    1    1    2    0    0  0.25623348654E+03 -0.77118754090E+02 -0.95931648262E+03  0.10037509729E+04  0.12500000000E+03 0.  0.
         21    1    1    2  503  501  0.10200286313E+02  0.23831297078E+02 -0.35552821167E+02  0.43999768797E+02  0.00000000000E+00 0.  1.
         21    1    1    2  504  502 -0.26643377285E+03  0.53287457012E+02  0.34580976817E+03  0.43978506586E+03  0.00000000000E+00 0.  1.
<mgrwt>
<rscale>  4 0.29886557E+03</rscale>
<asrwt>0</asrwt>
<pdfrwt beam="1">  1       21 0.64498175E-01 0.29886557E+03</pdfrwt>
<pdfrwt beam="2">  1       21 0.16435349E+00 0.29886557E+03</pdfrwt>
<totfact> 0.46979952E+02</totfact>
</mgrwt>
</event>
<event>
 5    0  0.1257040E+001  0.2980450E+03  0.7546771E-02  0.1086222E+00
         21   -1    0    0  504  501  0.00000000000E+00  0.00000000000E+00  0.31907554641E+03  0.31907554641E+03  0.00000000000E+00 0. -1.
         21   -1    0    0  503  502 -0.00000000000E+00 -0.00000000000E+00 -0.75719741453E+03  0.75719741453E+03  0.00000000000E+00 0. -1.
         25    1    1    2    0    0  0.10235538857E+03 -0.23162703965E+03 -0.40047907665E+03  0.49003693932E+03  0.12500000000E+03 0.  0.
         21    1    1    2  503  501 -0.25500304089E+01  0.32178150535E+03 -0.19731389436E+03  0.37746869108E+03  0.00000000000E+00 0. -1.
         21    1    1    2  504  502 -0.99805358166E+02 -0.90154465696E+02  0.15967110288E+03  0.20876733054E+03  0.00000000000E+00 0. -1.
<mgrwt>
<rscale>  4 0.29804497E+03</rscale>
<asrwt>0</asrwt>
<pdfrwt beam="1">  1       21 0.49088546E-01 0.29804497E+03</pdfrwt>
<pdfrwt beam="2">  1       21 0.11649191E+00 0.29804497E+03</pdfrwt>
<totfact> 0.20799783E+03</totfact>
</mgrwt>
</event>
<event>
 5    0  0.1257040E+001  0.2558366E+03  0.7546771E-02  0.1109671E+00
         21   -1    0    0  502  501  0.00000000000E+00  0.00000000000E+00  0.46353290113E+03  0.46353290113E+03  0.00000000000E+00 0. -1.
         21   -1    0    0  504  502 -0.00000000000E+00 -0.00000000000E+00 -0.28560982633E+03  0.28560982633E+03  0.00000000000E+00 0. -1.
         25    1    1    2    0    0 -0.27046738792E+03 -0.15737503549E+01  0.13470683013E+03  0.32699543529E+03  0.12500000000E+03 0.  0.
         21    1    1    2  503  501  0.12874955787E+03 -0.15758764557E+03  0.47612096168E+02  0.20899097203E+03  0.00000000000E+00 0. -1.
         21    1    1    2  504  503  0.14171783005E+03  0.15916139592E+03 -0.43958515011E+01  0.21315632014E+03  0.00000000000E+00 0. -1.
<mgrwt>
<rscale>  4 0.25583665E+03</rscale>
<asrwt>0</asrwt>
<pdfrwt beam="1">  1       21 0.71312754E-01 0.25583665E+03</pdfrwt>
<pdfrwt beam="2">  1       21 0.43939973E-01 0.25583665E+03</pdfrwt>
<totfact> 0.85015352E+03</totfact>
</mgrwt>
</event>
<event>
 5    0  0.1257040E+001  0.2708049E+03  0.7546771E-02  0.1100820E+00
         21   -1    0    0  503  501  0.00000000000E+00  0.00000000000E+00  0.13667414244E+04  0.13667414244E+04  0.00000000000E+00 0. -1.
         21   -1    0    0  504  502 -0.00000000000E+00 -0.00000000000E+00 -0.12692106483E+03  0.12692106483E+03  0.00000000000E+00 0. -1.
         25    1    1    2    0    0 -0.12832649209E+03 -0.24919693197E+03  0.11953926051E+03  0.32936519895E+03  0.12500000000E+03 0.  0.
         21    1    1    2  503  502  0.33698407333E+02  0.33664186003E+02  0.52541618530E+02  0.70918839202E+02  0.00000000000E+00 0. -1.
         21    1    1    2  504  501  0.94628084758E+02  0.21553274597E+03  0.10677394805E+04  0.10933784511E+04  0.00000000000E+00 0. -1.
<mgrwt>
<rscale>  4 0.27080488E+03</rscale>
<asrwt>0</asrwt>
<pdfrwt beam="1">  1       21 0.21026790E+00 0.27080488E+03</pdfrwt>
<pdfrwt beam="2">  1       21 0.19526319E-01 0.27080488E+03</pdfrwt>
<totfact> 0.26058986E+03</totfact>
</mgrwt>
</event>
<event>
 5    0  0.1257040E+001  0.3314740E+03  0.7546771E-02  0.1070487E+00
         21   -1    0    0  504  501  0.00000000000E+00  0.00000000000E+00  0.40181478382E+03  0.40181478382E+03  0.00000000000E+00 0. -1.
         21   -1    0    0  503  502 -0.00000000000E+00 -0.00000000000E+00 -0.30864598617E+03  0.30864598617E+03  0.00000000000E+00 0. -1.
         25    1    1    2    0    0  0.27421402134E+03 -0.90502826189E+02  0.91325309821E+02  0.32764218785E+03  0.12500000000E+03 0.  0.
         21    1    1    2  503  501 -0.31258036766E+03  0.68382552660E+02 -0.39290455345E+02  0.32237617722E+03  0.00000000000E+00 0. -1.
         21    1    1    2  504  502  0.38366346324E+02  0.22120273529E+02  0.41133943178E+02  0.60442404921E+02  0.00000000000E+00 0.  1.
<mgrwt>
<rscale>  4 0.33147398E+03</rscale>
<asrwt>0</asrwt>
<pdfrwt beam="1">  1       21 0.61817659E-01 0.33147398E+03</pdfrwt>
<pdfrwt beam="2">  1       21 0.47483998E-01 0.33147398E+03</pdfrwt>
<totfact> 0.95694364E+03</totfact>
</mgrwt>
</event>
<event>
 5    0  0.1257040E+001  0.2328403E+03  0.7546771E-02  0.1124656E+00
         21   -1    0    0  502  501  0.00000000000E+00  0.00000000000E+00  0.19415196936E+04  0.19415196936E+04  0.00000000000E+00 0. -1.
         21   -1    0    0  504  502 -0.00000000000E+00 -0.00000000000E+00 -0.32871795191E+02  0.32871795191E+02  0.00000000000E+00 0. -1.
         25    1    1    2    0    0 -0.47045374630E+02  0.21087749667E+03  0.11683099325E+04  0.11946780672E+04  0.12500000000E+03 0.  0.
         21    1    1    2  503  501  0.12149561978E+02 -0.25433857696E+02  0.29099743080E+03  0.29235936398E+03  0.00000000000E+00 0. -1.
         21    1    1    2  504  503  0.34895812652E+02 -0.18544363897E+03  0.44934053509E+03  0.48735405759E+03  0.00000000000E+00 0. -1.
<mgrwt>
<rscale>  4 0.23284030E+03</rscale>
<asrwt>0</asrwt>
<pdfrwt beam="1">  1       21 0.29869525E+00 0.23284030E+03</pdfrwt>
<pdfrwt beam="2">  1       21 0.50572008E-02 0.23284030E+03</pdfrwt>
<totfact> 0.87995535E+03</totfact>
</mgrwt>
</event>
<event>
 5    0  0.1257040E+001  0.3613607E+03  0.7546771E-02  0.1058046E+00
         21   -1    0    0  504  501  0.00000000000E+00  0.00000000000E+00  0.19380051946E+04  0.19380051946E+04  0.00000000000E+00 0. -1.
         21   -1    0    0  503  502 -0.00000000000E+00 -0.00000000000E+00 -0.42989556804E+03  0.42989556804E+03  0.00000000000E+00 0. -1.
         25    1    1    2    0    0 -0.57776896104E+02  0.30537761185E+03 -0.28284944970E+03  0.43843182679E+03  0.12500000000E+03 0.  0.
         21    1    1    2  503  501  0.88808580665E+02  0.34019768784E+02 -0.10842826351E+02  0.95717686721E+02  0.00000000000E+00 0.  1.
         21    1    1    2  504  502 -0.31031684561E+02 -0.33939738063E+03  0.18018019026E+04  0.18337512491E+04  0.00000000000E+00 0. -1.
<mgrwt>
<rscale>  4 0.36136067E+03</rscale>
<asrwt>0</asrwt>
<pdfrwt beam="1">  1       21 0.29815464E+00 0.36136067E+03</pdfrwt>
<pdfrwt beam="2">  1       21 0.66137781E-01 0.36136067E+03</pdfrwt>
<totfact> 0.60012646E+01</totfact>
</mgrwt>
</event>
<event>
 5    0  0.1257040E+001  0.3398123E+03  0.7546771E-02  0.1067322E+00
         21   -1    0    0  502  501  0.00000000000E+00  0.00000000000E+00  0.36482873161E+03  0.36482873161E+03  0.00000000000E+00 0.  1.
         21   -1    0    0  504  502 -0.00000000000E+00 -0.00000000000E+00 -0.50746572424E+03  0.50746572424E+03  0.00000000000E+00 0.  1.
         25    1    1    2    0    0  0.14777367331E+02 -0.31115621801E+03  0.19918612288E+03  0.39030331044E+03  0.12500000000E+03 0.  0.
         21    1    1    2  503  501 -0.60836138289E+02  0.20514957762E+03 -0.16267601084E+03  0.26879521838E+03  0.00000000000E+00 0.  1.
         21    1    1    2  504  503  0.46058770958E+02  0.10600664039E+03 -0.17914710467E+03  0.21319592702E+03  0.00000000000E+00 0.  1.
<mgrwt>
<rscale>  4 0.33876718E+03</rscale>
<asrwt>0</asrwt>
<pdfrwt beam="1">  1       21 0.56127497E-01 0.33981233E+03</pdfrwt>
<pdfrwt beam="2">  1       21 0.78071650E-01 0.33981233E+03</pdfrwt>
<totfact> 0.39679597E+03</totfact>
</mgrwt>
</event>
<event>
 5    0  0.1257040E+001  0.3335469E+03  0.7546771E-02  0.1069578E+00
         21   -1    0    0  504  501  0.00000000000E+00  0.00000000000E+00  0.22282629541E+03  0.22282629541E+03  0.00000000000E+00 0.  1.
         21   -1    0    0  501  502 -0.00000000000E+00 -0.00000000000E+00 -0.58691830822E+03  0.58691830822E+03  0.00000000000E+00 0.  1.
         25    1    1    2    0    0 -0.25770639637E+03  0.17092674710E+03 -0.76987471382E+01  0.33363574495E+03  0.12500000000E+03 0.  0.
         21    1    1    2  503  502  0.17012036293E+02 -0.35283346142E+02 -0.38322069047E+02  0.54798767047E+02  0.00000000000E+00 0.  1.
         21    1    1    2  504  503  0.24069436007E+03 -0.13564340095E+03 -0.31807119662E+03  0.42131009163E+03  0.00000000000E+00 0.  1.
<mgrwt>
<rscale>  4 0.33354691E+03</rscale>
<asrwt>0</asrwt>
<pdfrwt beam="1">  1       21 0.34280968E-01 0.33354691E+03</pdfrwt>
<pdfrwt beam="2">  1       21 0.90295125E-01 0.33354691E+03</pdfrwt>
<totfact> 0.79025138E+03</totfact>
</mgrwt>
</event>
<event>
 5    0  0.1257040E+001  0.1716615E+03  0.7546771E-02  0.1176126E+00
         21   -1    0    0  503  501  0.00000000000E+00  0.00000000000E+00  0.25690335462E+04  0.25690335462E+04  0.00000000000E+00 0.  1.
         21   -1    0    0  504  502 -0.00000000000E+00 -0.00000000000E+00 -0.37980981461E+02  0.37980981461E+02  0.00000000000E+00 0.  1.
         25    1    1    2    0    0 -0.55229881447E+02  0.19843025698E+03  0.49321779320E+03  0.54892048443E+03  0.12500000000E+03 0.  0.
         21    1    1    2  503  502  0.48696523997E+02 -0.86392680610E+02  0.28671836490E+03  0.30338501526E+03  0.00000000000E+00 0.  1.
         21    1    1    2  504  501  0.65333574503E+01 -0.11203757637E+03  0.17511164067E+04  0.17547090280E+04  0.00000000000E+00 0.  1.
<mgrwt>
<rscale>  4 0.17166148E+03</rscale>
<asrwt>0</asrwt>
<pdfrwt beam="1">  1       21 0.39523579E+00 0.17166148E+03</pdfrwt>
<pdfrwt beam="2">  1       21 0.58432299E-02 0.17166148E+03</pdfrwt>
<totfact> 0.19878604E+03</totfact>
</mgrwt>
</event>
<event>
 5    0  0.1257040E+001  0.2298368E+03  0.7546771E-02  0.1126755E+00
         21   -1    0    0  503  501  0.00000000000E+00  0.00000000000E+00  0.71572809431E+02  0.71572809431E+02  0.00000000000E+00 0. -1.
         21   -1    0    0  504  502 -0.00000000000E+00 -0.00000000000E+00 -0.33121456946E+04  0.33121456946E+04  0.00000000000E+00 0. -1.
         25    1    1    2    0    0  0.46054362673E+02  0.20532417690E+03 -0.24603316467E+03  0.34703939266E+03  0.12500000000E+03 0.  0.
         21    1    1    2  503  502 -0.20560993677E+02 -0.19077976094E+03 -0.30005836268E+04  0.30067127853E+04  0.00000000000E+00 0. -1.
         21    1    1    2  504  501 -0.25493368995E+02 -0.14544415955E+02  0.60439062841E+01  0.29966326124E+02  0.00000000000E+00 0.  1.
<mgrwt>
<rscale>  4 0.22983680E+03</rscale>
<asrwt>0</asrwt>
<pdfrwt beam="1">  1       21 0.11011201E-01 0.22983680E+03</pdfrwt>
<pdfrwt beam="2">  1       21 0.50956091E+00 0.22983680E+03</pdfrwt>
<totfact> 0.10398993E+02</totfact>
</mgrwt>
</event>
<event>
 5    0  0.1257040E+001  0.2695596E+03  0.7546771E-02  0.1101532E+00
         21   -1    0    0  502  501  0.00000000000E+00  0.00000000000E+00  0.66449891873E+03  0.66449891873E+03  0.00000000000E+00 0.  1.
         21   -1    0    0  504  502 -0.00000000000E+00 -0.00000000000E+00 -0.39131865108E+03  0.39131865108E+03  0.00000000000E+00 0.  1.
         25    1    1    2    0    0 -0.16482627798E+03  0.18883371719E+03 -0.32604947938E+02  0.28198219322E+03  0.12500000000E+03 0.  0.
         21    1    1    2  503  501  0.17041109268E+03 -0.16469992712E+03  0.51302516943E+03  0.56512019161E+03  0.00000000000E+00 0.  1.
         21    1    1    2  504  503 -0.55848146985E+01 -0.24133790070E+02 -0.20723995383E+03  0.20871518499E+03  0.00000000000E+00 0.  1.
<mgrwt>
<rscale>  4 0.26955962E+03</rscale>
<asrwt>0</asrwt>
<pdfrwt beam="1">  1       21 0.10223060E+00 0.26955962E+03</pdfrwt>
<pdfrwt beam="2">  1       21 0.60202869E-01 0.26955962E+03</pdfrwt>
<totfact> 0.18856685E+03</totfact>
</mgrwt>
</event>
<event>
 5    0  0.1257040E+001  0.4610631E+03  0.7546771E-02  0.1024473E+00
         21   -1    0    0  503  501  0.00000000000E+00  0.00000000000E+00  0.56904850131E+03  0.56904850131E+03  0.00000000000E+00 0.  1.
         21   -1    0    0  504  502 -0.00000000000E+00 -0.00000000000E+00 -0.14231984639E+04  0.14231984639E+04  0.00000000000E+00 0. -1.
         25    1    1    2    0    0  0.24227391681E+03  0.26633362996E+03 -0.91549494870E+03  0.99165833548E+03  0.12500000000E+03 0.  0.
         21    1    1    2  503  502  0.48397824007E+02  0.80305444536E+02 -0.36627621887E+03  0.37808673913E+03  0.00000000000E+00 0.  1.
         21    1    1    2  504  501 -0.29067174082E+03 -0.34663907450E+03  0.42762120498E+03  0.62250189062E+03  0.00000000000E+00 0.  1.
<mgrwt>
<rscale>  4 0.46106315E+03</rscale>
<asrwt>0</asrwt>
<pdfrwt beam="1">  1       21 0.87545924E-01 0.46106315E+03</pdfrwt>
<pdfrwt beam="2">  1       21 0.21895361E+00 0.46106315E+03</pdfrwt>
<totfact> 0.89801371E+01</totfact>
</mgrwt>
</event>
<event>
 5    0  0.1257040E+001  0.2163390E+03  0.7546771E-02  0.1136642E+00
         21   -1    0    0  502  501  0.00000000000E+00  0.00000000000E+00  0.34770353048E+02  0.34770353048E+02  0.00000000000E+00 0. -1.
         21   -1    0    0  504  502 -0.00000000000E+00 -0.00000000000E+00 -0.22211362645E+04  0.22211362645E+04  0.00000000000E+00 0. -1.
         25    1    1    2    0    0  0.11100731100E+03 -0.19082170007E+03 -0.14750009275E+04  0.14966590394E+04  0.12500000000E+03 0.  0.
         21    1    1    2  503  501 -0.14661811504E+02  0.83743924506E+02 -0.10053388797E+03  0.13166273671E+03  0.00000000000E+00 0. -1.
         21    1    1    2  504  503 -0.96345499494E+02  0.10707777556E+03 -0.61083109606E+03  0.62758484144E+03  0.00000000000E+00 0. -1.
<mgrwt>
<rscale>  4 0.21633904E+03</rscale>
<asrwt>0</asrwt>
<pdfrwt beam="1">  1       21 0.53492833E-02 0.21633904E+03</pdfrwt>
<pdfrwt beam="2">  1       21 0.34171339E+00 0.21633904E+03</pdfrwt>
<totfact> 0.45608323E+03</totfact>
</mgrwt>
</event>
