<event>
 5    0  0.2709431E+000  0.2630812E+03  0.7546771E-02  0.1105306E+00
         21   -1    0    0  502  501  0.00000000000E+00  0.00000000000E+00  0.10209623025E+03  0.10209623025E+03  0.00000000000E+00 0. -1.
         21   -1    0    0  503  502 -0.00000000000E+00 -0.00000000000E+00 -0.72443802942E+03  0.72443802942E+03  0.00000000000E+00 0. -1.
         25    1    1    2    0    0 -0.18006902340E+03  0.14547114315E+03 -0.17474046965E+03  0.31582580390E+03  0.12500000000E+03 0.  0.
         21    1    1    2  503  504  0.12748039927E+03 -0.13923401541E+03 -0.30620638914E+03  0.35972172022E+03  0.00000000000E+00 0. -1.
         21    1    1    2  504  501  0.52588624129E+02 -0.62371277353E+01 -0.14139494038E+03  0.15098673556E+03  0.00000000000E+00 0. -1.
<mgrwt>
<rscale>  4 0.26308118E+03</rscale>
<asrwt>0</asrwt>
<pdfrwt beam="1">  1       21 0.15707112E-01 0.26308118E+03</pdfrwt>
<pdfrwt beam="2">  1       21 0.11145200E+00 0.26308118E+03</pdfrwt>
<totfact> 0.21955999E+04</totfact>
</mgrwt>
</event>
<event>
 5    0  0.2174231E+000  0.2860585E+03  0.7546771E-02  0.1092425E+00
         21   -1    0    0  502  501  0.00000000000E+00  0.00000000000E+00  0.11979022658E+04  0.11979022658E+04  0.00000000000E+00 0. -1.
         21   -1    0    0  503  502 -0.00000000000E+00 -0.00000000000E+00 -0.11523058312E+03  0.11523058312E+03  0.00000000000E+00 0. -1.
         25    1    1    2    0    0  0.25292924866E+03  0.47236002186E+02  0.99516960530E+03  0.10354670386E+04  0.12500000000E+03 0.  0.
         21    1    1    2  503  504 -0.17892927669E+03 -0.41110471872E+02  0.87584066634E+02  0.20341269794E+03  0.00000000000E+00 0. -1.
         21    1    1    2  504  501 -0.73999971964E+02 -0.61255303138E+01 -0.81989266276E-01  0.74253112356E+02  0.00000000000E+00 0. -1.
<mgrwt>
<rscale>  4 0.28605846E+03</rscale>
<asrwt>0</asrwt>
<pdfrwt beam="1">  1       21 0.18429265E+00 0.28605846E+03</pdfrwt>
<pdfrwt beam="2">  1       21 0.17727783E-01 0.28605846E+03</pdfrwt>
<totfact> 0.45808130E+03</totfact>
</mgrwt>
</event>
<event>
 5    0  0.2159162E+000  0.2684678E+03  0.7546771E-02  0.1102160E+00
         21   -1    0    0  502  501  0.00000000000E+00  0.00000000000E+00  0.12918956389E+04  0.12918956389E+04  0.00000000000E+00 0. -1.
         21   -1    0    0  503  502 -0.00000000000E+00 -0.00000000000E+00 -0.84179836991E+02  0.84179836991E+02  0.00000000000E+00 0. -1.
         25    1    1    2    0    0 -0.16711350187E+03 -0.16888769124E+03  0.19361320927E+03  0.33100007487E+03  0.12500000000E+03 0.  0.
         21    1    1    2  503  504  0.15191078904E+03  0.11046035475E+03  0.67521496606E+03  0.70085207298E+03  0.00000000000E+00 0. -1.
         21    1    1    2  504  501  0.15202712837E+02  0.58427336486E+02  0.33888762662E+03  0.34422332809E+03  0.00000000000E+00 0. -1.
<mgrwt>
<rscale>  4 0.26846783E+03</rscale>
<asrwt>0</asrwt>
<pdfrwt beam="1">  1       21 0.19875316E+00 0.26846783E+03</pdfrwt>
<pdfrwt beam="2">  1       21 0.12950745E-01 0.26846783E+03</pdfrwt>
<totfact> 0.66046124E+03</totfact>
</mgrwt>
</event>
<event>
 5    0  0.2159162E+000  0.2411252E+03  0.7546771E-02  0.1119046E+00
         21   -1    0    0  502  501  0.00000000000E+00  0.00000000000E+00  0.48830917071E+02  0.48830917071E+02  0.00000000000E+00 0.  1.
         21   -1    0    0  503  502 -0.00000000000E+00 -0.00000000000E+00 -0.18294813580E+04  0.18294813580E+04  0.00000000000E+00 0. -1.
         25    1    1    2    0    0  0.93419844109E+02  0.18381806929E+03 -0.32281180196E+03  0.40292531486E+03  0.12500000000E+03 0.  0.
         21    1    1    2  503  504 -0.10852114165E+03 -0.12233038129E+03 -0.10622297244E+04  0.10747434800E+04  0.00000000000E+00 0. -1.
         21    1    1    2  504  501  0.15101297542E+02 -0.61487687996E+02 -0.39560891452E+03  0.40064348018E+03  0.00000000000E+00 0. -1.
<mgrwt>
<rscale>  4 0.24112517E+03</rscale>
<asrwt>0</asrwt>
<pdfrwt beam="1">  1       21 0.75124497E-02 0.24112517E+03</pdfrwt>
<pdfrwt beam="2">  1       21 0.28145863E+00 0.24112517E+03</pdfrwt>
<totfact> 0.55672146E+03</totfact>
</mgrwt>
</event>
<event>
 5    0  0.2159162E+000  0.4170793E+03  0.7546771E-02  0.1039435E+00
         21   -1    0    0  502  501  0.00000000000E+00  0.00000000000E+00  0.42179105761E+03  0.42179105761E+03  0.00000000000E+00 0.  1.
         21   -1    0    0  503  502 -0.00000000000E+00 -0.00000000000E+00 -0.46919988526E+03  0.46919988526E+03  0.00000000000E+00 0.  1.
         25    1    1    2    0    0  0.34243665438E+03  0.16521771680E+03  0.15272493198E+03  0.42838027622E+03  0.12500000000E+03 0.  0.
         21    1    1    2  503  504 -0.24013048143E+03 -0.10162638704E+03 -0.21920831547E+03  0.34065063662E+03  0.00000000000E+00 0.  1.
         21    1    1    2  504  501 -0.10230617295E+03 -0.63591329758E+02  0.19074555843E+02  0.12196003003E+03  0.00000000000E+00 0.  1.
<mgrwt>
<rscale>  4 0.41280181E+03</rscale>
<asrwt>0</asrwt>
<pdfrwt beam="1">  1       21 0.64890932E-01 0.41707926E+03</pdfrwt>
<pdfrwt beam="2">  1       21 0.72184598E-01 0.41707926E+03</pdfrwt>
<totfact> 0.33441649E+03</totfact>
</mgrwt>
</event>
<event>
 5    0  0.2159162E+000  0.2540536E+03  0.7546771E-02  0.1110770E+00
         21   -1    0    0  502  501  0.00000000000E+00  0.00000000000E+00  0.74341939792E+03  0.74341939792E+03  0.00000000000E+00 0. -1.
         21   -1    0    0  503  502 -0.00000000000E+00 -0.00000000000E+00 -0.14813333628E+03  0.14813333628E+03  0.00000000000E+00 0. -1.
         25    1    1    2    0    0 -0.22646097823E+02 -0.22001225409E+03  0.59212317314E+03  0.64432374617E+03  0.12500000000E+03 0.  0.
         21    1    1    2  503  504 -0.34428455006E+02  0.11830393544E+03 -0.28323910428E+02  0.12642540709E+03  0.00000000000E+00 0. -1.
         21    1    1    2  504  501  0.57074552829E+02  0.10170831865E+03  0.31486798917E+02  0.12080358095E+03  0.00000000000E+00 0. -1.
<mgrwt>
<rscale>  4 0.25405361E+03</rscale>
<asrwt>0</asrwt>
<pdfrwt beam="1">  1       21 0.11437221E+00 0.25405361E+03</pdfrwt>
<pdfrwt beam="2">  1       21 0.22789744E-01 0.25405361E+03</pdfrwt>
<totfact> 0.10316986E+04</totfact>
</mgrwt>
</event>
<event>
 5    0  0.2159162E+000  0.4323913E+03  0.7546771E-02  0.1033107E+00
         21   -1    0    0  502  501  0.00000000000E+00  0.00000000000E+00  0.11848506645E+04  0.11848506645E+04  0.00000000000E+00 0. -1.
         21   -1    0    0  503  502 -0.00000000000E+00 -0.00000000000E+00 -0.33740129515E+03  0.33740129515E+03  0.00000000000E+00 0. -1.
         25    1    1    2    0    0  0.37662700297E+03  0.17172452682E+03  0.99095514008E+03  0.10811819006E+04  0.12500000000E+03 0.  0.
         21    1    1    2  503  504 -0.14316079081E+02 -0.17072978945E+02 -0.15431588082E+01  0.22334235367E+02  0.00000000000E+00 0. -1.
         21    1    1    2  504  501 -0.36231092389E+03 -0.15465154788E+03 -0.14196261196E+03  0.41873582367E+03  0.00000000000E+00 0. -1.
<mgrwt>
<rscale>  4 0.43239127E+03</rscale>
<asrwt>0</asrwt>
<pdfrwt beam="1">  1       21 0.18228472E+00 0.43239127E+03</pdfrwt>
<pdfrwt beam="2">  1       21 0.51907892E-01 0.43239127E+03</pdfrwt>
<totfact> 0.51641303E+02</totfact>
</mgrwt>
</event>
<event>
 5    0  0.2159162E+000  0.2493589E+03  0.7546771E-02  0.1113711E+00
         21   -1    0    0  502  501  0.00000000000E+00  0.00000000000E+00  0.56075209973E+02  0.56075209973E+02  0.00000000000E+00 0. -1.
         21   -1    0    0  503  502 -0.00000000000E+00 -0.00000000000E+00 -0.10838564280E+04  0.10838564280E+04  0.00000000000E+00 0. -1.
         25    1    1    2    0    0 -0.14527851935E+03 -0.15952748519E+03 -0.37369029623E+03  0.44924859956E+03  0.12500000000E+03 0.  0.
         21    1    1    2  503  504  0.10161976685E+03  0.11006586863E+03 -0.37309048989E+03  0.40204177158E+03  0.00000000000E+00 0. -1.
         21    1    1    2  504  501  0.43658752498E+02  0.49461616557E+02 -0.28100043193E+03  0.28864126685E+03  0.00000000000E+00 0. -1.
<mgrwt>
<rscale>  4 0.24935891E+03</rscale>
<asrwt>0</asrwt>
<pdfrwt beam="1">  1       21 0.86269556E-02 0.24935891E+03</pdfrwt>
<pdfrwt beam="2">  1       21 0.16674714E+00 0.24935891E+03</pdfrwt>
<totfact> 0.22850291E+04</totfact>
</mgrwt>
</event>
<event>
 5    0  0.2159162E+000  0.3681584E+03  0.7546771E-02  0.1055399E+00
         21   -1    0    0  502  501  0.00000000000E+00  0.00000000000E+00  0.10787009051E+04  0.10787009051E+04  0.00000000000E+00 0.  1.
         21   -1    0    0  503  502 -0.00000000000E+00 -0.00000000000E+00 -0.39239333210E+03  0.39239333210E+03  0.00000000000E+00 0.  1.
         25    1    1    2    0    0 -0.27077066379E+03  0.21586763233E+03 -0.26711124889E+03  0.45485053187E+03  0.12500000000E+03 0.  0.
         21    1    1    2  503  504  0.54714770860E+02 -0.33890518330E+02  0.11875260092E+03  0.13507203118E+03  0.00000000000E+00 0. -1.
         21    1    1    2  504  501  0.21605589293E+03 -0.18197711400E+03  0.83466622098E+03  0.88117167416E+03  0.00000000000E+00 0.  1.
<mgrwt>
<rscale>  4 0.36815837E+03</rscale>
<asrwt>0</asrwt>
<pdfrwt beam="1">  1       21 0.16595398E+00 0.36815837E+03</pdfrwt>
<pdfrwt beam="2">  1       21 0.60368205E-01 0.36815837E+03</pdfrwt>
<totfact> 0.50499764E+02</totfact>
</mgrwt>
</event>
<event>
 5    0  0.2159162E+000  0.2867312E+03  0.7546771E-02  0.1092068E+00
         21   -1    0    0  502  501  0.00000000000E+00  0.00000000000E+00  0.27248451029E+03  0.27248451029E+03  0.00000000000E+00 0.  1.
         21   -1    0    0  503  502 -0.00000000000E+00 -0.00000000000E+00 -0.13917702941E+04  0.13917702941E+04  0.00000000000E+00 0. -1.
         25    1    1    2    0    0  0.22020252179E+03  0.13453858949E+03  0.18034105929E+03  0.33872950909E+03  0.12500000000E+03 0.  0.
         21    1    1    2  503  504 -0.24814432385E+02 -0.10291206107E+02 -0.89472411754E+02  0.93418292871E+02  0.00000000000E+00 0.  1.
         21    1    1    2  504  501 -0.19538808941E+03 -0.12424738338E+03 -0.12101544314E+04  0.12321070025E+04  0.00000000000E+00 0. -1.
<mgrwt>
<rscale>  4 0.28673120E+03</rscale>
<asrwt>0</asrwt>
<pdfrwt beam="1">  1       21 0.41920694E-01 0.28673120E+03</pdfrwt>
<pdfrwt beam="2">  1       21 0.21411850E+00 0.28673120E+03</pdfrwt>
<totfact> 0.54482152E+02</totfact>
</mgrwt>
</event>
<event>
 5    0  0.2159162E+000  0.2719296E+03  0.7546771E-02  0.1100180E+00
         21   -1    0    0  502  501  0.00000000000E+00  0.00000000000E+00  0.15864927747E+03  0.15864927747E+03  0.00000000000E+00 0. -1.
         21   -1    0    0  503  502 -0.00000000000E+00 -0.00000000000E+00 -0.54426746788E+03  0.54426746788E+03  0.00000000000E+00 0. -1.
         25    1    1    2    0    0  0.20572060013E+03  0.12649002423E+03 -0.36792938239E+03  0.45751253751E+03  0.12500000000E+03 0.  0.
         21    1    1    2  503  504 -0.18663886991E+02 -0.15528545176E+02 -0.13696138991E+02  0.27875807004E+02  0.00000000000E+00 0. -1.
         21    1    1    2  504  501 -0.18705671314E+03 -0.11096147905E+03 -0.39926690261E+01  0.21752840084E+03  0.00000000000E+00 0. -1.
<mgrwt>
<rscale>  4 0.27192957E+03</rscale>
<asrwt>0</asrwt>
<pdfrwt beam="1">  1       21 0.24407581E-01 0.27192957E+03</pdfrwt>
<pdfrwt beam="2">  1       21 0.83733458E-01 0.27192957E+03</pdfrwt>
<totfact> 0.18844115E+04</totfact>
</mgrwt>
</event>
<event>
 5    0  0.3940658E+000  0.2897652E+03  0.7546771E-02  0.1090472E+00
         21   -1    0    0  502  501  0.00000000000E+00  0.00000000000E+00  0.20307925314E+03  0.20307925314E+03  0.00000000000E+00 0. -1.
         21   -1    0    0  503  502 -0.00000000000E+00 -0.00000000000E+00 -0.42418944777E+03  0.42418944777E+03  0.00000000000E+00 0. -1.
         25    1    1    2    0    0 -0.59249420004E+02 -0.25461419074E+03 -0.39136337787E+02  0.29239619155E+03  0.12500000000E+03 0.  0.
         21    1    1    2  503  504  0.84392000778E+02  0.21097899869E+03 -0.12698029993E+03  0.26030394591E+03  0.00000000000E+00 0. -1.
         21    1    1    2  504  501 -0.25142580774E+02  0.43635192044E+02 -0.54993556921E+02  0.74568563454E+02  0.00000000000E+00 0. -1.
<mgrwt>
<rscale>  4 0.28976522E+03</rscale>
<asrwt>0</asrwt>
<pdfrwt beam="1">  1       21 0.31242962E-01 0.28976522E+03</pdfrwt>
<pdfrwt beam="2">  1       21 0.65259915E-01 0.28976522E+03</pdfrwt>
<totfact> 0.20253320E+04</totfact>
</mgrwt>
</event>
<event>
 5    0  0.2159162E+000  0.3686634E+03  0.7546771E-02  0.1055205E+00
         21   -1    0    0  502  501  0.00000000000E+00  0.00000000000E+00  0.51066984500E+03  0.51066984500E+03  0.00000000000E+00 0. -1.
         21   -1    0    0  503  502 -0.00000000000E+00 -0.00000000000E+00 -0.81614432310E+03  0.81614432310E+03  0.00000000000E+00 0. -1.
         25    1    1    2    0    0 -0.31303634795E+03  0.14931829862E+03  0.39508032649E+03  0.54037132957E+03  0.12500000000E+03 0.  0.
         21    1    1    2  503  504  0.73678706121E+02 -0.23059240500E+02 -0.89829400773E+02  0.11844661899E+03  0.00000000000E+00 0.  1.
         21    1    1    2  504  501  0.23935764183E+03 -0.12625905812E+03 -0.61072540381E+03  0.66799621954E+03  0.00000000000E+00 0. -1.
<mgrwt>
<rscale>  4 0.36866341E+03</rscale>
<asrwt>0</asrwt>
<pdfrwt beam="1">  1       21 0.78564592E-01 0.36866341E+03</pdfrwt>
<pdfrwt beam="2">  1       21 0.12556066E+00 0.36866341E+03</pdfrwt>
<totfact> 0.58984212E+02</totfact>
</mgrwt>
</event>
<event>
 5    0  0.2159162E+000  0.2596055E+03  0.7546771E-02  0.1107381E+00
         21   -1    0    0  502  501  0.00000000000E+00  0.00000000000E+00  0.37410943350E+02  0.37410943350E+02  0.00000000000E+00 0.  1.
         21   -1    0    0  503  502 -0.00000000000E+00 -0.00000000000E+00 -0.18043266666E+04  0.18043266666E+04  0.00000000000E+00 0.  1.
         25    1    1    2    0    0  0.61093095393E+02  0.21917488876E+03 -0.63302934467E+03  0.68419379519E+03  0.12500000000E+03 0.  0.
         21    1    1    2  503  504 -0.32848445838E+02 -0.74171294233E+02 -0.50963189321E+03  0.51604754419E+03  0.00000000000E+00 0.  1.
         21    1    1    2  504  501 -0.28244649555E+02 -0.14500359452E+03 -0.62425448536E+03  0.64149627056E+03  0.00000000000E+00 0.  1.
<mgrwt>
<rscale>  4 0.25960547E+03</rscale>
<asrwt>0</asrwt>
<pdfrwt beam="1">  1       21 0.57555308E-02 0.25960547E+03</pdfrwt>
<pdfrwt beam="2">  1       21 0.27758867E+00 0.25960547E+03</pdfrwt>
<totfact> 0.91612747E+03</totfact>
</mgrwt>
</event>
<event>
 5    0  0.2159162E+000  0.2469990E+03  0.7546771E-02  0.1115216E+00
         21   -1    0    0  502  501  0.00000000000E+00  0.00000000000E+00  0.10615065239E+04  0.10615065239E+04  0.00000000000E+00 0.  1.
         21   -1    0    0  503  502 -0.00000000000E+00 -0.00000000000E+00 -0.11230373442E+03  0.11230373442E+03  0.00000000000E+00 0.  1.
         25    1    1    2    0    0 -0.21180884321E+03 -0.22814434348E+02  0.92164676101E+03  0.95417044418E+03  0.12500000000E+03 0.  0.
         21    1    1    2  503  504  0.86296952635E+02 -0.13040917434E+02  0.78709528665E+01  0.87630938946E+02  0.00000000000E+00 0.  1.
         21    1    1    2  504  501  0.12551189058E+03  0.35855351782E+02  0.19685075600E+02  0.13200887519E+03  0.00000000000E+00 0.  1.
<mgrwt>
<rscale>  4 0.24699896E+03</rscale>
<asrwt>0</asrwt>
<pdfrwt beam="1">  1       21 0.16330869E+00 0.24699896E+03</pdfrwt>
<pdfrwt beam="2">  1       21 0.17277498E-01 0.24699896E+03</pdfrwt>
<totfact> 0.69249990E+03</totfact>
</mgrwt>
</event>
<event>
 5    0  0.2159162E+000  0.2684750E+03  0.7546771E-02  0.1102156E+00
         21   -1    0    0  502  501  0.00000000000E+00  0.00000000000E+00  0.54325102848E+02  0.54325102848E+02  0.00000000000E+00 0.  1.
         21   -1    0    0  503  502 -0.00000000000E+00 -0.00000000000E+00 -0.16183776989E+04  0.16183776989E+04  0.00000000000E+00 0.  1.
         25    1    1    2    0    0 -0.10269402297E+03 -0.21426101304E+03 -0.40099530166E+03  0.48257235314E+03  0.12500000000E+03 0.  0.
         21    1    1    2  503  504  0.78844346472E+02  0.15592226392E+03 -0.10031222844E+04  0.10182251720E+04  0.00000000000E+00 0.  1.
         21    1    1    2  504  501  0.23849676503E+02  0.58338749118E+02 -0.15993500999E+03  0.17190527665E+03  0.00000000000E+00 0.  1.
<mgrwt>
<rscale>  4 0.26847503E+03</rscale>
<asrwt>0</asrwt>
<pdfrwt beam="1">  1       21 0.83577076E-02 0.26847503E+03</pdfrwt>
<pdfrwt beam="2">  1       21 0.24898120E+00 0.26847503E+03</pdfrwt>
<totfact> 0.70282839E+03</totfact>
</mgrwt>
</event>
<event>
 5    0  0.2375233E+000  0.3535755E+03  0.7546771E-02  0.1061157E+00
         21   -1    0    0  502  501  0.00000000000E+00  0.00000000000E+00  0.86651962541E+03  0.86651962541E+03  0.00000000000E+00 0. -1.
         21   -1    0    0  503  502 -0.00000000000E+00 -0.00000000000E+00 -0.13684833485E+03  0.13684833485E+03  0.00000000000E+00 0. -1.
         25    1    1    2    0    0 -0.32583520528E+03 -0.56763262105E+02  0.35981652596E+03  0.50446365704E+03  0.12500000000E+03 0.  0.
         21    1    1    2  503  504  0.58012021659E+02  0.23944934136E+02  0.94003665518E+02  0.11302850817E+03  0.00000000000E+00 0. -1.
         21    1    1    2  504  501  0.26782318362E+03  0.32818327969E+02  0.27585109908E+03  0.38587579505E+03  0.00000000000E+00 0. -1.
<mgrwt>
<rscale>  4 0.35357552E+03</rscale>
<asrwt>0</asrwt>
<pdfrwt beam="1">  1       21 0.13331071E+00 0.35357552E+03</pdfrwt>
<pdfrwt beam="2">  1       21 0.21053591E-01 0.35357552E+03</pdfrwt>
<totfact> 0.77622003E+03</totfact>
</mgrwt>
</event>
