<event>
 5    0  0.1943430E+001  0.2428285E+03  0.7546771E-02  0.1117923E+00
         21   -1    0    0  503  501  0.00000000000E+00  0.00000000000E+00  0.33446071611E+03  0.33446071611E+03  0.00000000000E+00 0. -1.
         21   -1    0    0  504  502 -0.00000000000E+00 -0.00000000000E+00 -0.40485896636E+03  0.40485896636E+03  0.00000000000E+00 0. -1.
         25    1    1    2    0    0  0.45492416628E+02 -0.20535096021E+03  0.21606180076E+03  0.32641427447E+03  0.12500000000E+03 0.  0.
         21    1    1    2  503  502 -0.35296557971E+02  0.18062200524E+01 -0.17910517857E+03  0.18255896151E+03  0.00000000000E+00 0. -1.
         21    1    1    2  504  501 -0.10195858657E+02  0.20354474015E+03 -0.10735487243E+03  0.23034644650E+03  0.00000000000E+00 0. -1.
<mgrwt>
<rscale>  4 0.24282851E+03</rscale>
<asrwt>0</asrwt>
<pdfrwt beam="1">  1       21 0.51455495E-01 0.24282851E+03</pdfrwt>
<pdfrwt beam="2">  1       21 0.62285994E-01 0.24282851E+03</pdfrwt>
<totfact> 0.83021609E+03</totfact>
</mgrwt>
</event>
<event>
 5    0  0.1943430E+001  0.2663485E+03  0.7546771E-02  0.1103388E+00
         21   -1    0    0  504  501  0.00000000000E+00  0.00000000000E+00  0.50112217344E+03  0.50112217344E+03  0.00000000000E+00 0.  1.
         21   -1    0    0  501  502 -0.00000000000E+00 -0.00000000000E+00 -0.24827754032E+03  0.24827754032E+03  0.00000000000E+00 0.  1.
         25    1    1    2    0    0 -0.10519092289E+03 -0.18378784668E+03  0.21985514767E+03  0.32985510274E+03  0.12500000000E+03 0.  0.
         21    1    1    2  503  502 -0.11273648703E+03 -0.13984527533E+02 -0.32292967540E+02  0.11810130512E+03  0.00000000000E+00 0.  1.
         21    1    1    2  504  503  0.21792740993E+03  0.19777237422E+03  0.65282452987E+02  0.30144330589E+03  0.00000000000E+00 0.  1.
<mgrwt>
<rscale>  4 0.26634847E+03</rscale>
<asrwt>0</asrwt>
<pdfrwt beam="1">  1       21 0.77095719E-01 0.26634847E+03</pdfrwt>
<pdfrwt beam="2">  1       21 0.38196545E-01 0.26634847E+03</pdfrwt>
<totfact> 0.94452656E+03</totfact>
</mgrwt>
</event>
<event>
 5    0  0.1943430E+001  0.2717433E+03  0.7546771E-02  0.1100286E+00
         21   -1    0    0  503  501  0.00000000000E+00  0.00000000000E+00  0.32174590035E+03  0.32174590035E+03  0.00000000000E+00 0.  1.
         21   -1    0    0  504  502 -0.00000000000E+00 -0.00000000000E+00 -0.60878313442E+03  0.60878313442E+03  0.00000000000E+00 0. -1.
         25    1    1    2    0    0  0.11637670463E+03  0.26794028151E+03  0.19770071467E+02  0.31835732686E+03  0.12500000000E+03 0.  0.
         21    1    1    2  503  502  0.70836906862E+02 -0.12266462388E+03  0.76909019701E+02  0.16118149595E+03  0.00000000000E+00 0.  1.
         21    1    1    2  504  501 -0.18721361149E+03 -0.14527565764E+03 -0.38371632524E+03  0.45099021196E+03  0.00000000000E+00 0. -1.
<mgrwt>
<rscale>  4 0.27174327E+03</rscale>
<asrwt>0</asrwt>
<pdfrwt beam="1">  1       21 0.49499369E-01 0.27174327E+03</pdfrwt>
<pdfrwt beam="2">  1       21 0.93658943E-01 0.27174327E+03</pdfrwt>
<totfact> 0.35214928E+03</totfact>
</mgrwt>
</event>
<event>
 5    0  0.1943430E+001  0.3301454E+03  0.7546771E-02  0.1071073E+00
         21   -1    0    0  504  501  0.00000000000E+00  0.00000000000E+00  0.15794278081E+04  0.15794278081E+04  0.00000000000E+00 0.  1.
         21   -1    0    0  503  502 -0.00000000000E+00 -0.00000000000E+00 -0.33112593303E+03  0.33112593303E+03  0.00000000000E+00 0.  1.
         25    1    1    2    0    0  0.11197448812E+03 -0.45653763507E+03  0.53210946773E+03  0.72092328570E+03  0.12500000000E+03 0.  0.
         21    1    1    2  503  501 -0.50755578393E+02  0.18079122846E+03  0.85466710957E+03  0.87505283566E+03  0.00000000000E+00 0.  1.
         21    1    1    2  504  502 -0.61218909732E+02  0.27574640661E+03 -0.13847470225E+03  0.31457761973E+03  0.00000000000E+00 0.  1.
<mgrwt>
<rscale>  4 0.33014542E+03</rscale>
<asrwt>0</asrwt>
<pdfrwt beam="1">  1       21 0.24298889E+00 0.33014542E+03</pdfrwt>
<pdfrwt beam="2">  1       21 0.50942452E-01 0.33014542E+03</pdfrwt>
<totfact> 0.23200866E+02</totfact>
</mgrwt>
</event>
<event>
 5    0  0.1943430E+001  0.3759378E+03  0.7546771E-02  0.1052445E+00
         21   -1    0    0  503  501  0.00000000000E+00  0.00000000000E+00  0.26726936280E+03  0.26726936280E+03  0.00000000000E+00 0. -1.
         21   -1    0    0  504  502 -0.00000000000E+00 -0.00000000000E+00 -0.59274308918E+03  0.59274308918E+03  0.00000000000E+00 0. -1.
         25    1    1    2    0    0 -0.27757343948E+03 -0.19466612834E+03 -0.30954465010E+02  0.36266388672E+03  0.12500000000E+03 0.  0.
         21    1    1    2  503  502  0.31210021252E+03  0.18580821186E+03 -0.28098420475E+03  0.45922038017E+03  0.00000000000E+00 0. -1.
         21    1    1    2  504  501 -0.34526773035E+02  0.88579164775E+01 -0.13535056622E+02  0.38128185090E+02  0.00000000000E+00 0. -1.
<mgrwt>
<rscale>  4 0.37593784E+03</rscale>
<asrwt>0</asrwt>
<pdfrwt beam="1">  1       21 0.41118364E-01 0.37593784E+03</pdfrwt>
<pdfrwt beam="2">  1       21 0.91191244E-01 0.37593784E+03</pdfrwt>
<totfact> 0.52433146E+03</totfact>
</mgrwt>
</event>
<event>
 5    0  0.1943430E+001  0.2677676E+03  0.7546771E-02  0.1102564E+00
         21   -1    0    0  504  501  0.00000000000E+00  0.00000000000E+00  0.21528319402E+03  0.21528319402E+03  0.00000000000E+00 0.  1.
         21   -1    0    0  501  502 -0.00000000000E+00 -0.00000000000E+00 -0.44888162860E+03  0.44888162860E+03  0.00000000000E+00 0.  1.
         25    1    1    2    0    0  0.55386885007E+02  0.23225252730E+03 -0.27584615524E+01  0.26952096871E+03  0.12500000000E+03 0.  0.
         21    1    1    2  503  502 -0.32623714293E+02  0.21934872978E+01 -0.13740304071E+03  0.14123991545E+03  0.00000000000E+00 0. -1.
         21    1    1    2  504  503 -0.22763170714E+02 -0.23444601459E+03 -0.93436932318E+02  0.25340393845E+03  0.00000000000E+00 0.  1.
<mgrwt>
<rscale>  4 0.26776762E+03</rscale>
<asrwt>0</asrwt>
<pdfrwt beam="1">  1       21 0.33120492E-01 0.26776762E+03</pdfrwt>
<pdfrwt beam="2">  1       21 0.69058712E-01 0.26776762E+03</pdfrwt>
<totfact> 0.16076014E+04</totfact>
</mgrwt>
</event>
<event>
 5    0  0.1943430E+001  0.2560352E+03  0.7546771E-02  0.1109549E+00
         21   -1    0    0  504  501  0.00000000000E+00  0.00000000000E+00  0.65301364288E+03  0.65301364288E+03  0.00000000000E+00 0. -1.
         21   -1    0    0  503  502 -0.00000000000E+00 -0.00000000000E+00 -0.64662346815E+03  0.64662346815E+03  0.00000000000E+00 0. -1.
         25    1    1    2    0    0 -0.13843913707E+03  0.17539561373E+03  0.60397618380E+03  0.65600399891E+03  0.12500000000E+03 0.  0.
         21    1    1    2  503  501  0.12793718057E+03 -0.13051205654E+03 -0.38594360431E+03  0.42702902100E+03  0.00000000000E+00 0. -1.
         21    1    1    2  504  502  0.10501956500E+02 -0.44883557185E+02 -0.21164240476E+03  0.21660409112E+03  0.00000000000E+00 0. -1.
<mgrwt>
<rscale>  4 0.25603519E+03</rscale>
<asrwt>0</asrwt>
<pdfrwt beam="1">  1       21 0.10046364E+00 0.25603519E+03</pdfrwt>
<pdfrwt beam="2">  1       21 0.99480533E-01 0.25603519E+03</pdfrwt>
<totfact> 0.63570059E+02</totfact>
</mgrwt>
</event>
<event>
 5    0  0.1943430E+001  0.3441600E+03  0.7546771E-02  0.1065038E+00
         21   -1    0    0  504  501  0.00000000000E+00  0.00000000000E+00  0.11752125565E+03  0.11752125565E+03  0.00000000000E+00 0. -1.
         21   -1    0    0  501  502 -0.00000000000E+00 -0.00000000000E+00 -0.13195829174E+04  0.13195829174E+04  0.00000000000E+00 0. -1.
         25    1    1    2    0    0 -0.29912962693E+03  0.11550990359E+03 -0.24680031018E+03  0.42350497593E+03  0.12500000000E+03 0.  0.
         21    1    1    2  503  502  0.28858074799E+02 -0.46849164958E+02 -0.10155189561E+03  0.11550073697E+03  0.00000000000E+00 0. -1.
         21    1    1    2  504  503  0.27027155213E+03 -0.68660738630E+02 -0.85370945591E+03  0.89809846010E+03  0.00000000000E+00 0. -1.
<mgrwt>
<rscale>  4 0.34415995E+03</rscale>
<asrwt>0</asrwt>
<pdfrwt beam="1">  1       21 0.18080194E-01 0.34415995E+03</pdfrwt>
<pdfrwt beam="2">  1       21 0.20301275E+00 0.34415995E+03</pdfrwt>
<totfact> 0.32010707E+03</totfact>
</mgrwt>
</event>
<event>
 5    0  0.1943430E+001  0.3723288E+03  0.7546771E-02  0.1053806E+00
         21   -1    0    0  503  501  0.00000000000E+00  0.00000000000E+00  0.99471222996E+03  0.99471222996E+03  0.00000000000E+00 0. -1.
         21   -1    0    0  504  502 -0.00000000000E+00 -0.00000000000E+00 -0.69169599159E+03  0.69169599159E+03  0.00000000000E+00 0.  1.
         25    1    1    2    0    0  0.15947343267E+03 -0.29072067761E+03 -0.41511492059E+03  0.54579820942E+03  0.12500000000E+03 0.  0.
         21    1    1    2  503  502 -0.36127292789E+03  0.45474985553E+03  0.65021180495E+03  0.87183195103E+03  0.00000000000E+00 0. -1.
         21    1    1    2  504  501  0.20179949522E+03 -0.16402917792E+03  0.67919353999E+02  0.26877806110E+03  0.00000000000E+00 0.  1.
<mgrwt>
<rscale>  4 0.37232876E+03</rscale>
<asrwt>0</asrwt>
<pdfrwt beam="1">  1       21 0.15303265E+00 0.37232876E+03</pdfrwt>
<pdfrwt beam="2">  1       21 0.10641477E+00 0.37232876E+03</pdfrwt>
<totfact> 0.17040709E+02</totfact>
</mgrwt>
</event>
<event>
 5    0  0.1943430E+001  0.2437774E+03  0.7546771E-02  0.1117302E+00
         21   -1    0    0  503  501  0.00000000000E+00  0.00000000000E+00  0.45015926005E+03  0.45015926005E+03  0.00000000000E+00 0.  1.
         21   -1    0    0  504  502 -0.00000000000E+00 -0.00000000000E+00 -0.87687188464E+03  0.87687188464E+03  0.00000000000E+00 0. -1.
         25    1    1    2    0    0 -0.70365792328E+00 -0.21725169942E+03 -0.41139243705E+03  0.48173388224E+03  0.12500000000E+03 0.  0.
         21    1    1    2  503  502  0.44069107786E+02  0.20438619810E+03  0.38730589287E+03  0.44013822702E+03  0.00000000000E+00 0.  1.
         21    1    1    2  504  501 -0.43365449862E+02  0.12865501314E+02 -0.40262608041E+03  0.40515903543E+03  0.00000000000E+00 0. -1.
<mgrwt>
<rscale>  4 0.24377744E+03</rscale>
<asrwt>0</asrwt>
<pdfrwt beam="1">  1       21 0.69255272E-01 0.24377744E+03</pdfrwt>
<pdfrwt beam="2">  1       21 0.13490337E+00 0.24377744E+03</pdfrwt>
<totfact> 0.71039448E+02</totfact>
</mgrwt>
</event>
<event>
 5    0  0.1943430E+001  0.3485994E+03  0.7546771E-02  0.1063191E+00
         21   -1    0    0  504  501  0.00000000000E+00  0.00000000000E+00  0.61748047395E+03  0.61748047395E+03  0.00000000000E+00 0. -1.
         21   -1    0    0  503  502 -0.00000000000E+00 -0.00000000000E+00 -0.33220545805E+03  0.33220545805E+03  0.00000000000E+00 0. -1.
         25    1    1    2    0    0 -0.32990780409E+03  0.52084628623E+01 -0.50262715853E+02  0.35639532529E+03  0.12500000000E+03 0.  0.
         21    1    1    2  503  501  0.32395082636E+03  0.14752867126E+02  0.40611519143E+03  0.51970312073E+03  0.00000000000E+00 0. -1.
         21    1    1    2  504  502  0.59569777294E+01 -0.19961329988E+02 -0.70577459675E+02  0.73587485979E+02  0.00000000000E+00 0. -1.
<mgrwt>
<rscale>  4 0.34859941E+03</rscale>
<asrwt>0</asrwt>
<pdfrwt beam="1">  1       21 0.94996996E-01 0.34859941E+03</pdfrwt>
<pdfrwt beam="2">  1       21 0.51108532E-01 0.34859941E+03</pdfrwt>
<totfact> 0.30557816E+03</totfact>
</mgrwt>
</event>
