<event>
 5    0  0.3188794E-002  0.4484703E+03  0.7546771E-02  0.1028179E+00
         21   -1    0    0  501  502  0.00000000000E+00  0.00000000000E+00  0.29943905125E+04  0.29943905125E+04  0.00000000000E+00 0. -1.
          4   -1    0    0  503    0 -0.00000000000E+00 -0.00000000000E+00 -0.16698731742E+03  0.16698731742E+03  0.00000000000E+00 0. -1.
         25    1    1    2    0    0  0.39680509870E+02  0.23691233487E+03  0.12558494641E+03  0.29849384590E+03  0.12500000000E+03 0.  0.
         21    1    1    2  503  502 -0.83951897601E+02 -0.14780913576E+03  0.11123388880E+02  0.17035020254E+03  0.00000000000E+00 0.  1.
          4    1    1    2  501    0  0.44271387731E+02 -0.89103199109E+02  0.26906948598E+04  0.26925337815E+04  0.00000000000E+00 0. -1.
<mgrwt>
<rscale>  4 0.44847026E+03</rscale>
<asrwt>0</asrwt>
<pdfrwt beam="1">  1       21 0.46067542E+00 0.44847026E+03</pdfrwt>
<pdfrwt beam="2">  1        4 0.25690359E-01 0.44847026E+03</pdfrwt>
<totfact> 0.16975422E+00</totfact>
</mgrwt>
</event>
<event>
 5    0  0.3188794E-002  0.7809307E+03  0.7546771E-02  0.9588037E-01
         21   -1    0    0  503  502  0.00000000000E+00  0.00000000000E+00  0.10347804532E+03  0.10347804532E+03  0.00000000000E+00 0. -1.
          1   -1    0    0  502    0 -0.00000000000E+00 -0.00000000000E+00 -0.22172531214E+04  0.22172531214E+04  0.00000000000E+00 0.  1.
         25    1    1    2    0    0  0.19804070526E+03 -0.18077709789E+03 -0.19183351579E+04  0.19410139768E+04  0.12500000000E+03 0.  0.
         21    1    1    2  503  501 -0.17254040688E+03  0.45829072436E+02 -0.64085702568E+02  0.18967728689E+03  0.00000000000E+00 0. -1.
          1    1    1    2  501    0 -0.25500298373E+02  0.13494802545E+03 -0.13135421566E+03  0.19003990308E+03  0.00000000000E+00 0.  1.
<mgrwt>
<rscale>  4 0.78093072E+03</rscale>
<asrwt>0</asrwt>
<pdfrwt beam="1">  1       21 0.15919699E-01 0.78093072E+03</pdfrwt>
<pdfrwt beam="2">  1        1 0.34111587E+00 0.78093072E+03</pdfrwt>
<totfact> 0.82105568E+02</totfact>
</mgrwt>
</event>
<event>
 5    0  0.3188794E-002  0.8690952E+03  0.7546771E-02  0.9465060E-01
          2   -1    0    0  503    0 -0.00000000000E+00  0.00000000000E+00  0.30151987088E+04  0.30151987088E+04  0.00000000000E+00 0.  1.
         21   -1    0    0  501  502  0.00000000000E+00 -0.00000000000E+00 -0.91036868073E+02  0.91036868073E+02  0.00000000000E+00 0. -1.
         25    1    1    2    0    0  0.87070010664E+02  0.41476874830E+03  0.12846167629E+04  0.13584842763E+04  0.12500000000E+03 0.  0.
         21    1    1    2  503  502 -0.65579815356E+02 -0.41220627036E+03  0.16637351521E+04  0.17152927965E+04  0.00000000000E+00 0.  1.
          2    1    1    2  501    0 -0.21490195307E+02 -0.25624779364E+01 -0.24190074327E+02  0.32458504024E+02  0.00000000000E+00 0.  1.
<mgrwt>
<rscale>  4 0.86909521E+03</rscale>
<asrwt>0</asrwt>
<pdfrwt beam="1">  1       21 0.14005674E-01 0.86909521E+03</pdfrwt>
<pdfrwt beam="2">  1        2 0.46387665E+00 0.86909521E+03</pdfrwt>
<totfact> 0.95626437E+02</totfact>
</mgrwt>
</event>
<event>
 5    0  0.3188794E-002  0.4203525E+03  0.7546771E-02  0.1036952E+00
         -1   -1    0    0    0  501 -0.00000000000E+00  0.00000000000E+00  0.51882592170E+03  0.51882592170E+03  0.00000000000E+00 0. -1.
         21   -1    0    0  503  502  0.00000000000E+00 -0.00000000000E+00 -0.20659441845E+03  0.20659441845E+03  0.00000000000E+00 0.  1.
         25    1    1    2    0    0  0.26345080484E+03  0.26459017176E+01  0.22062391918E+03  0.36566821175E+03  0.12500000000E+03 0.  0.
         21    1    1    2  503  501 -0.10962110347E+03  0.62272002267E+02  0.13754324250E+03  0.18658170368E+03  0.00000000000E+00 0. -1.
         -1    1    1    2    0  502 -0.15382970137E+03 -0.64917903985E+02 -0.45935658426E+02  0.17317042472E+03  0.00000000000E+00 0. -1.
<mgrwt>
<rscale>  4 0.42035253E+03</rscale>
<asrwt>0</asrwt>
<pdfrwt beam="1">  1       21 0.31783757E-01 0.42035253E+03</pdfrwt>
<pdfrwt beam="2">  1       -1 0.79819372E-01 0.42035253E+03</pdfrwt>
<totfact> 0.13759698E+03</totfact>
</mgrwt>
</event>
<event>
 5    0  0.3188794E-002  0.3705262E+03  0.7546771E-02  0.1054492E+00
         21   -1    0    0  501  502  0.00000000000E+00  0.00000000000E+00  0.11492872625E+04  0.11492872625E+04  0.00000000000E+00 0.  1.
          2   -1    0    0  503    0 -0.00000000000E+00 -0.00000000000E+00 -0.63080399660E+02  0.63080399660E+02  0.00000000000E+00 0. -1.
         25    1    1    2    0    0 -0.19732499538E+03 -0.41260618202E+02  0.36033300646E+03  0.43139827070E+03  0.12500000000E+03 0.  0.
         21    1    1    2  503  502  0.38687990526E+02  0.90287815866E+02  0.43582528748E+03  0.44675757577E+03  0.00000000000E+00 0. -1.
          2    1    1    2  501    0  0.15863700486E+03 -0.49027197664E+02  0.29004856888E+03  0.33421181567E+03  0.00000000000E+00 0. -1.
<mgrwt>
<rscale>  4 0.37052620E+03</rscale>
<asrwt>0</asrwt>
<pdfrwt beam="1">  1       21 0.17681341E+00 0.37052620E+03</pdfrwt>
<pdfrwt beam="2">  1        2 0.97046778E-02 0.37052620E+03</pdfrwt>
<totfact> 0.14357263E+03</totfact>
</mgrwt>
</event>
<event>
 5    0  0.3188794E-002  0.6472044E+03  0.7546771E-02  0.9812039E-01
          1   -1    0    0  503    0 -0.00000000000E+00  0.00000000000E+00  0.40916018806E+03  0.40916018806E+03  0.00000000000E+00 0.  1.
         21   -1    0    0  501  502  0.00000000000E+00 -0.00000000000E+00 -0.52537707073E+03  0.52537707073E+03  0.00000000000E+00 0. -1.
         25    1    1    2    0    0 -0.21610552341E+03  0.19534549830E+03 -0.19581499330E+03  0.37259894331E+03  0.12500000000E+03 0.  0.
         21    1    1    2  503  502  0.27915397007E+03  0.66300093743E+02  0.48936837524E+02  0.29106263158E+03  0.00000000000E+00 0.  1.
          1    1    1    2  501    0 -0.63048446661E+02 -0.26164559205E+03  0.30661273106E+02  0.27087568391E+03  0.00000000000E+00 0.  1.
<mgrwt>
<rscale>  4 0.64720437E+03</rscale>
<asrwt>0</asrwt>
<pdfrwt beam="1">  1       21 0.80827242E-01 0.64720437E+03</pdfrwt>
<pdfrwt beam="2">  1        1 0.62947721E-01 0.64720437E+03</pdfrwt>
<totfact> 0.76575274E+02</totfact>
</mgrwt>
</event>
<event>
 5    0  0.3188794E-002  0.4643366E+03  0.7546771E-02  0.1023531E+00
         21   -1    0    0  501  502  0.00000000000E+00  0.00000000000E+00  0.37036659004E+02  0.37036659004E+02  0.00000000000E+00 0. -1.
          2   -1    0    0  503    0 -0.00000000000E+00 -0.00000000000E+00 -0.24045315024E+04  0.24045315024E+04  0.00000000000E+00 0.  1.
         25    1    1    2    0    0 -0.14170374883E+03 -0.20620642671E+03 -0.10720659363E+04  0.11079491931E+04  0.12500000000E+03 0.  0.
         21    1    1    2  503  502  0.35056490685E+02  0.17102211181E+03 -0.10405936639E+04  0.10551363388E+04  0.00000000000E+00 0. -1.
          2    1    1    2  501    0  0.10664725815E+03  0.35184314900E+02 -0.25483524324E+03  0.27848262941E+03  0.00000000000E+00 0.  1.
<mgrwt>
<rscale>  4 0.46433655E+03</rscale>
<asrwt>0</asrwt>
<pdfrwt beam="1">  1       21 0.56979483E-02 0.46433655E+03</pdfrwt>
<pdfrwt beam="2">  1        2 0.36992787E+00 0.46433655E+03</pdfrwt>
<totfact> 0.11754346E+04</totfact>
</mgrwt>
</event>
<event>
 5    0  0.3188794E-002  0.5566310E+03  0.7546771E-02  0.9999707E-01
         21   -1    0    0  501  502  0.00000000000E+00  0.00000000000E+00  0.20161759878E+04  0.20161759878E+04  0.00000000000E+00 0.  1.
          3   -1    0    0  503    0 -0.00000000000E+00 -0.00000000000E+00 -0.41506032331E+02  0.41506032331E+02  0.00000000000E+00 0. -1.
         25    1    1    2    0    0 -0.43703514990E+02  0.23622932355E+03  0.13221788699E+04  0.13496281912E+04  0.12500000000E+03 0.  0.
         21    1    1    2  503  502  0.62666042209E+02 -0.24576456235E+03  0.59698511157E+03  0.64862814955E+03  0.00000000000E+00 0. -1.
          3    1    1    2  501    0 -0.18962527219E+02  0.95352388023E+01  0.55505973970E+02  0.59425679331E+02  0.00000000000E+00 0. -1.
<mgrwt>
<rscale>  4 0.55663095E+03</rscale>
<asrwt>0</asrwt>
<pdfrwt beam="1">  1       21 0.31018085E+00 0.55663095E+03</pdfrwt>
<pdfrwt beam="2">  1        3 0.63855450E-02 0.55663095E+03</pdfrwt>
<totfact> 0.19321236E+02</totfact>
</mgrwt>
</event>
<event>
 5    0  0.3188794E-002  0.3224041E+03  0.7546771E-02  0.1074548E+00
          2   -1    0    0  503    0 -0.00000000000E+00  0.00000000000E+00  0.12500526526E+04  0.12500526526E+04  0.00000000000E+00 0.  1.
         21   -1    0    0  501  502  0.00000000000E+00 -0.00000000000E+00 -0.71709194593E+02  0.71709194593E+02  0.00000000000E+00 0. -1.
         25    1    1    2    0    0  0.48812655570E+02 -0.20892631777E+03  0.26044568622E+03  0.35984696340E+03  0.12500000000E+03 0.  0.
         21    1    1    2  503  502  0.21644963142E+02  0.70860808661E+02  0.77031511467E+02  0.10688130048E+03  0.00000000000E+00 0. -1.
          2    1    1    2  501    0 -0.70457618713E+02  0.13806550911E+03  0.84086626030E+03  0.85503358328E+03  0.00000000000E+00 0.  1.
<mgrwt>
<rscale>  4 0.32240411E+03</rscale>
<asrwt>0</asrwt>
<pdfrwt beam="1">  1       21 0.11032185E-01 0.32240411E+03</pdfrwt>
<pdfrwt beam="2">  1        2 0.19231578E+00 0.32240411E+03</pdfrwt>
<totfact> 0.15841715E+04</totfact>
</mgrwt>
</event>
<event>
 5    0  0.3188794E-002  0.5622747E+03  0.7546771E-02  0.9986921E-01
          2   -1    0    0  503    0 -0.00000000000E+00  0.00000000000E+00  0.89431599572E+03  0.89431599572E+03  0.00000000000E+00 0. -1.
         21   -1    0    0  501  502  0.00000000000E+00 -0.00000000000E+00 -0.71350875804E+03  0.71350875804E+03  0.00000000000E+00 0. -1.
         25    1    1    2    0    0  0.21217827424E+03 -0.37736263630E+02  0.59974221649E+03  0.64943003618E+03  0.12500000000E+03 0.  0.
         21    1    1    2  503  502 -0.26060529958E+03 -0.17678852608E+02  0.20381405544E+03  0.33131228953E+03  0.00000000000E+00 0.  1.
          2    1    1    2  501    0  0.48427025341E+02  0.55415116238E+02 -0.62274903426E+03  0.62708242804E+03  0.00000000000E+00 0. -1.
<mgrwt>
<rscale>  4 0.56227469E+03</rscale>
<asrwt>0</asrwt>
<pdfrwt beam="1">  1       21 0.10977058E+00 0.56227469E+03</pdfrwt>
<pdfrwt beam="2">  1        2 0.13758708E+00 0.56227469E+03</pdfrwt>
<totfact> 0.21713144E+02</totfact>
</mgrwt>
</event>
<event>
 5    0  0.3188794E-002  0.8391370E+03  0.7546771E-02  0.9505034E-01
          1   -1    0    0  503    0 -0.00000000000E+00  0.00000000000E+00  0.71981702222E+03  0.71981702222E+03  0.00000000000E+00 0. -1.
         21   -1    0    0  501  502  0.00000000000E+00 -0.00000000000E+00 -0.70342606639E+03  0.70342606639E+03  0.00000000000E+00 0. -1.
         25    1    1    2    0    0 -0.46935346451E+03  0.17778319840E+03  0.23831785465E+03  0.56949094824E+03  0.12500000000E+03 0.  0.
         21    1    1    2  503  502  0.34641525883E+02  0.20580361024E+03 -0.17454166239E+03  0.27206608244E+03  0.00000000000E+00 0.  1.
          1    1    1    2  501    0  0.43471193862E+03 -0.38358680865E+03 -0.47385236424E+02  0.58168605792E+03  0.00000000000E+00 0. -1.
<mgrwt>
<rscale>  4 0.83913696E+03</rscale>
<asrwt>0</asrwt>
<pdfrwt beam="1">  1       21 0.10821939E+00 0.83913696E+03</pdfrwt>
<pdfrwt beam="2">  1        1 0.11074108E+00 0.83913696E+03</pdfrwt>
<totfact> 0.16507060E+02</totfact>
</mgrwt>
</event>
<event>
 5    0  0.3188794E-002  0.4183219E+03  0.7546771E-02  0.1037614E+00
         21   -1    0    0  501  502  0.00000000000E+00  0.00000000000E+00  0.12031196318E+03  0.12031196318E+03  0.00000000000E+00 0. -1.
          2   -1    0    0  503    0 -0.00000000000E+00 -0.00000000000E+00 -0.13661579023E+04  0.13661579023E+04  0.00000000000E+00 0. -1.
         25    1    1    2    0    0  0.21399015876E+02  0.28871696106E+03 -0.10482087674E+04  0.10946150107E+04  0.12500000000E+03 0.  0.
         21    1    1    2  503  502 -0.39805609501E+01 -0.91991892260E+02 -0.16878012744E+03  0.19226306074E+03  0.00000000000E+00 0.  1.
          2    1    1    2  501    0 -0.17418454926E+02 -0.19672506880E+03 -0.28857044292E+02  0.19959179410E+03  0.00000000000E+00 0. -1.
<mgrwt>
<rscale>  4 0.41832189E+03</rscale>
<asrwt>0</asrwt>
<pdfrwt beam="1">  1       21 0.18509533E-01 0.41832189E+03</pdfrwt>
<pdfrwt beam="2">  1        2 0.21017814E+00 0.41832189E+03</pdfrwt>
<totfact> 0.51607825E+03</totfact>
</mgrwt>
</event>
<event>
 5    0  0.3194947E-002  0.4711845E+03  0.7546771E-02  0.1021586E+00
          1   -1    0    0  502    0 -0.00000000000E+00  0.00000000000E+00  0.78124805548E+03  0.78124805548E+03  0.00000000000E+00 0.  1.
         21   -1    0    0  503  502  0.00000000000E+00 -0.00000000000E+00 -0.32005512813E+03  0.32005512813E+03  0.00000000000E+00 0. -1.
         25    1    1    2    0    0  0.21782797643E+02 -0.36938204248E+03 -0.10122065561E+03  0.40347020299E+03  0.12500000000E+03 0.  0.
         21    1    1    2  503  501 -0.32001560076E+02  0.64937952812E+02  0.18970314450E+02  0.74839230307E+02  0.00000000000E+00 0.  1.
          1    1    1    2  501    0  0.10218762433E+02  0.30444408967E+03  0.54344326851E+03  0.62299375031E+03  0.00000000000E+00 0.  1.
<mgrwt>
<rscale>  4 0.47118446E+03</rscale>
<asrwt>0</asrwt>
<pdfrwt beam="1">  1       21 0.49239251E-01 0.47118446E+03</pdfrwt>
<pdfrwt beam="2">  1        1 0.12019201E+00 0.47118446E+03</pdfrwt>
<totfact> 0.95352375E+02</totfact>
</mgrwt>
</event>
<event>
 5    0  0.3188794E-002  0.4526681E+03  0.7546771E-02  0.1026929E+00
         21   -1    0    0  503  502  0.00000000000E+00  0.00000000000E+00  0.16695311849E+03  0.16695311849E+03  0.00000000000E+00 0.  1.
         -3   -1    0    0    0  501 -0.00000000000E+00 -0.00000000000E+00 -0.40823744047E+03  0.40823744047E+03  0.00000000000E+00 0. -1.
         25    1    1    2    0    0 -0.15722275234E+03  0.16123316003E+03 -0.15895479431E+03  0.30266607405E+03  0.12500000000E+03 0.  0.
         21    1    1    2  503  501  0.16206166458E+03 -0.10746517002E+03 -0.95962348002E+02  0.21684445607E+03  0.00000000000E+00 0. -1.
         -3    1    1    2    0  502 -0.48389122414E+01 -0.53767990007E+02  0.13632820338E+02  0.55680028838E+02  0.00000000000E+00 0. -1.
<mgrwt>
<rscale>  4 0.45266814E+03</rscale>
<asrwt>0</asrwt>
<pdfrwt beam="1">  1       21 0.25685095E-01 0.45266814E+03</pdfrwt>
<pdfrwt beam="2">  1       -3 0.62805759E-01 0.45266814E+03</pdfrwt>
<totfact> 0.17569152E+03</totfact>
</mgrwt>
</event>
<event>
 5    0  0.3188794E-002  0.3618335E+03  0.7546771E-02  0.1057860E+00
          1   -1    0    0  503    0 -0.00000000000E+00  0.00000000000E+00  0.87233815764E+03  0.87233815764E+03  0.00000000000E+00 0.  1.
         21   -1    0    0  501  502  0.00000000000E+00 -0.00000000000E+00 -0.10107615330E+03  0.10107615330E+03  0.00000000000E+00 0. -1.
         25    1    1    2    0    0 -0.20115976086E+01  0.20473691960E+03  0.62950799736E+03  0.67366651358E+03  0.12500000000E+03 0.  0.
         21    1    1    2  503  502  0.68744794694E+02 -0.74913215903E+02  0.11108238227E+03  0.15058928370E+03  0.00000000000E+00 0.  1.
          1    1    1    2  501    0 -0.66733197086E+02 -0.12982370370E+03  0.30671624711E+02  0.14915851366E+03  0.00000000000E+00 0.  1.
<mgrwt>
<rscale>  4 0.36183354E+03</rscale>
<asrwt>0</asrwt>
<pdfrwt beam="1">  1       21 0.15550178E-01 0.36183354E+03</pdfrwt>
<pdfrwt beam="2">  1        1 0.13420587E+00 0.36183354E+03</pdfrwt>
<totfact> 0.79476739E+03</totfact>
</mgrwt>
</event>
<event>
 5    0  0.3188794E-002  0.4375342E+03  0.7546771E-02  0.1031506E+00
         21   -1    0    0  501  502  0.00000000000E+00  0.00000000000E+00  0.45058717563E+03  0.45058717563E+03  0.00000000000E+00 0. -1.
          2   -1    0    0  503    0 -0.00000000000E+00 -0.00000000000E+00 -0.25470272396E+03  0.25470272396E+03  0.00000000000E+00 0.  1.
         25    1    1    2    0    0 -0.15496891917E+03 -0.18361124771E+03  0.78854293749E+02  0.28208412901E+03  0.12500000000E+03 0.  0.
         21    1    1    2  503  502 -0.81807804727E+02  0.14517579184E+03  0.54306648699E+02  0.17526476983E+03  0.00000000000E+00 0.  1.
          2    1    1    2  501    0  0.23677672389E+03  0.38435455877E+02  0.62723509219E+02  0.24794100075E+03  0.00000000000E+00 0.  1.
<mgrwt>
<rscale>  4 0.43753420E+03</rscale>
<asrwt>0</asrwt>
<pdfrwt beam="1">  1       21 0.69321104E-01 0.43753420E+03</pdfrwt>
<pdfrwt beam="2">  1        2 0.39185035E-01 0.43753420E+03</pdfrwt>
<totfact> 0.28777648E+03</totfact>
</mgrwt>
</event>
<event>
 5    0  0.3188794E-002  0.5989458E+03  0.7546771E-02  0.9907596E-01
         21   -1    0    0  501  502  0.00000000000E+00  0.00000000000E+00  0.69876141832E+02  0.69876141832E+02  0.00000000000E+00 0. -1.
          2   -1    0    0  503    0 -0.00000000000E+00 -0.00000000000E+00 -0.51026109607E+04  0.51026109607E+04  0.00000000000E+00 0. -1.
         25    1    1    2    0    0 -0.13975695114E+03  0.46643059984E+03 -0.16102388679E+04  0.16868858057E+04  0.12500000000E+03 0.  0.
         21    1    1    2  503  502  0.36844784019E+02  0.86764741647E+02 -0.38051842890E+03  0.39202032248E+03  0.00000000000E+00 0.  1.
          2    1    1    2  501    0  0.10291216712E+03 -0.55319534149E+03 -0.30419775221E+04  0.30935809744E+04  0.00000000000E+00 0. -1.
<mgrwt>
<rscale>  4 0.59894580E+03</rscale>
<asrwt>0</asrwt>
<pdfrwt beam="1">  1       21 0.10750173E-01 0.59894580E+03</pdfrwt>
<pdfrwt beam="2">  1        2 0.78501728E+00 0.59894580E+03</pdfrwt>
<totfact> 0.27818423E+01</totfact>
</mgrwt>
</event>
<event>
 5    0  0.3188794E-002  0.3326376E+03  0.7546771E-02  0.1069976E+00
         21   -1    0    0  501  502  0.00000000000E+00  0.00000000000E+00  0.28493095394E+03  0.28493095394E+03  0.00000000000E+00 0.  1.
          1   -1    0    0  503    0 -0.00000000000E+00 -0.00000000000E+00 -0.33384525335E+03  0.33384525335E+03  0.00000000000E+00 0.  1.
         25    1    1    2    0    0  0.13694008393E+03  0.15020029761E+03  0.35694598918E+02  0.24127125892E+03  0.12500000000E+03 0.  0.
         21    1    1    2  503  502 -0.14313033597E+01  0.90952268376E+02 -0.14176562185E+02  0.92061602568E+02  0.00000000000E+00 0.  1.
          1    1    1    2  501    0 -0.13550878057E+03 -0.24115256598E+03 -0.70432336149E+02  0.28544334581E+03  0.00000000000E+00 0.  1.
<mgrwt>
<rscale>  4 0.33263760E+03</rscale>
<asrwt>0</asrwt>
<pdfrwt beam="1">  1       21 0.43835531E-01 0.33263760E+03</pdfrwt>
<pdfrwt beam="2">  1        1 0.51360808E-01 0.33263760E+03</pdfrwt>
<totfact> 0.40408961E+03</totfact>
</mgrwt>
</event>
<event>
 5    0  0.3188794E-002  0.4451390E+03  0.7546771E-02  0.1029182E+00
         21   -1    0    0  501  502  0.00000000000E+00  0.00000000000E+00  0.40765125081E+03  0.40765125081E+03  0.00000000000E+00 0.  1.
          1   -1    0    0  503    0 -0.00000000000E+00 -0.00000000000E+00 -0.20087842678E+03  0.20087842678E+03  0.00000000000E+00 0.  1.
         25    1    1    2    0    0 -0.38789811280E+01  0.20463790812E+03 -0.57168062652E+02  0.24654595378E+03  0.12500000000E+03 0.  0.
         21    1    1    2  503  502  0.60209970497E+01 -0.17047630687E+03  0.10702319233E+03  0.20137623322E+03  0.00000000000E+00 0. -1.
          1    1    1    2  501    0 -0.21420159217E+01 -0.34161601251E+02  0.15691769435E+03  0.16060749059E+03  0.00000000000E+00 0.  1.
<mgrwt>
<rscale>  4 0.44513903E+03</rscale>
<asrwt>0</asrwt>
<pdfrwt beam="1">  1       21 0.62715577E-01 0.44513903E+03</pdfrwt>
<pdfrwt beam="2">  1        1 0.30904373E-01 0.44513903E+03</pdfrwt>
<totfact> 0.35238590E+03</totfact>
</mgrwt>
</event>
<event>
 5    0  0.3188794E-002  0.6588745E+03  0.7546771E-02  0.9790268E-01
          1   -1    0    0  503    0 -0.00000000000E+00  0.00000000000E+00  0.11446378679E+04  0.11446378679E+04  0.00000000000E+00 0. -1.
         21   -1    0    0  501  502  0.00000000000E+00 -0.00000000000E+00 -0.55150317675E+03  0.55150317675E+03  0.00000000000E+00 0. -1.
         25    1    1    2    0    0 -0.39737710312E+03  0.14377856591E+03  0.84500571873E+03  0.95301652807E+03  0.12500000000E+03 0.  0.
         21    1    1    2  503  502  0.13935629960E+02  0.15441236125E+03  0.59596871847E+02  0.16609986822E+03  0.00000000000E+00 0.  1.
          1    1    1    2  501    0  0.38344147316E+03 -0.29819092716E+03 -0.31146789946E+03  0.57702464832E+03  0.00000000000E+00 0. -1.
<mgrwt>
<rscale>  4 0.65887454E+03</rscale>
<asrwt>0</asrwt>
<pdfrwt beam="1">  1       21 0.84846643E-01 0.65887454E+03</pdfrwt>
<pdfrwt beam="2">  1        1 0.17609813E+00 0.65887454E+03</pdfrwt>
<totfact> 0.14013445E+02</totfact>
</mgrwt>
</event>
<event>
 5    0  0.3188794E-002  0.4975053E+03  0.7546771E-02  0.1014432E+00
          1   -1    0    0  503    0 -0.00000000000E+00  0.00000000000E+00  0.11701738934E+04  0.11701738934E+04  0.00000000000E+00 0.  1.
         21   -1    0    0  501  502  0.00000000000E+00 -0.00000000000E+00 -0.14474166801E+03  0.14474166801E+03  0.00000000000E+00 0.  1.
         25    1    1    2    0    0  0.58939693057E+02  0.22583391181E+03  0.39972635875E+03  0.47945907544E+03  0.12500000000E+03 0.  0.
         21    1    1    2  503  502 -0.28145828607E+02 -0.19406449960E+03  0.71198431267E+03  0.73849500957E+03  0.00000000000E+00 0.  1.
          1    1    1    2  501    0 -0.30793864449E+02 -0.31769412209E+02 -0.86278446076E+02  0.96961476356E+02  0.00000000000E+00 0.  1.
<mgrwt>
<rscale>  4 0.49750531E+03</rscale>
<asrwt>0</asrwt>
<pdfrwt beam="1">  1       21 0.22267950E-01 0.49750531E+03</pdfrwt>
<pdfrwt beam="2">  1        1 0.18002675E+00 0.49750531E+03</pdfrwt>
<totfact> 0.23382080E+03</totfact>
</mgrwt>
</event>
<event>
 5    0  0.3188794E-002  0.4413851E+03  0.7546771E-02  0.1030323E+00
         -3   -1    0    0    0  501 -0.00000000000E+00  0.00000000000E+00  0.26915452559E+02  0.26915452559E+02  0.00000000000E+00 0.  1.
         21   -1    0    0  503  502  0.00000000000E+00 -0.00000000000E+00 -0.24090984366E+04  0.24090984366E+04  0.00000000000E+00 0. -1.
         25    1    1    2    0    0 -0.20171107959E+03  0.15644686429E+02 -0.16685242683E+04  0.16853872996E+04  0.12500000000E+03 0.  0.
         21    1    1    2  503  501  0.14231273692E+03  0.91942482359E+01 -0.30217447761E+03  0.33413599658E+03  0.00000000000E+00 0.  1.
         -3    1    1    2    0  502  0.59398342679E+02 -0.24838934665E+02 -0.41148423813E+03  0.41649059295E+03  0.00000000000E+00 0.  1.
<mgrwt>
<rscale>  4 0.44138509E+03</rscale>
<asrwt>0</asrwt>
<pdfrwt beam="1">  1       21 0.37063057E+00 0.44138509E+03</pdfrwt>
<pdfrwt beam="2">  1       -3 0.41408383E-02 0.44138509E+03</pdfrwt>
<totfact> 0.17254789E+02</totfact>
</mgrwt>
</event>
<event>
 5    0  0.3188794E-002  0.4458121E+03  0.7546771E-02  0.1028978E+00
         21   -1    0    0  501  502  0.00000000000E+00  0.00000000000E+00  0.22121391371E+03  0.22121391371E+03  0.00000000000E+00 0. -1.
          2   -1    0    0  503    0 -0.00000000000E+00 -0.00000000000E+00 -0.82694047292E+03  0.82694047292E+03  0.00000000000E+00 0. -1.
         25    1    1    2    0    0 -0.21015200292E+03  0.39545723242E+02 -0.46099238198E+03  0.52332275395E+03  0.12500000000E+03 0.  0.
         21    1    1    2  503  502  0.16979038388E+03 -0.98698400469E+02 -0.29729115956E+03  0.35630349741E+03  0.00000000000E+00 0.  1.
          2    1    1    2  501    0  0.40361619037E+02  0.59152677227E+02  0.15255698234E+03  0.16852813526E+03  0.00000000000E+00 0. -1.
<mgrwt>
<rscale>  4 0.44581208E+03</rscale>
<asrwt>0</asrwt>
<pdfrwt beam="1">  1       21 0.34032909E-01 0.44581208E+03</pdfrwt>
<pdfrwt beam="2">  1        2 0.12722161E+00 0.44581208E+03</pdfrwt>
<totfact> 0.33375658E+03</totfact>
</mgrwt>
</event>
<event>
 5    0  0.3188794E-002  0.6310066E+03  0.7546771E-02  0.9843087E-01
         21   -1    0    0  501  502  0.00000000000E+00  0.00000000000E+00  0.17265626698E+03  0.17265626698E+03  0.00000000000E+00 0. -1.
          2   -1    0    0  503    0 -0.00000000000E+00 -0.00000000000E+00 -0.13770706357E+04  0.13770706357E+04  0.00000000000E+00 0.  1.
         25    1    1    2    0    0  0.87783378427E+02 -0.36865078789E+03 -0.74239912006E+03  0.84284682975E+03  0.12500000000E+03 0.  0.
         21    1    1    2  503  502  0.13779766089E+03  0.11089187406E+03 -0.81023151881E+02  0.19455064693E+03  0.00000000000E+00 0. -1.
          2    1    1    2  501    0 -0.22558103932E+03  0.25775891383E+03 -0.38099209683E+03  0.51232942606E+03  0.00000000000E+00 0.  1.
<mgrwt>
<rscale>  4 0.63100657E+03</rscale>
<asrwt>0</asrwt>
<pdfrwt beam="1">  1       21 0.26562502E-01 0.63100657E+03</pdfrwt>
<pdfrwt beam="2">  1        2 0.21185702E+00 0.63100657E+03</pdfrwt>
<totfact> 0.24406215E+03</totfact>
</mgrwt>
</event>
<event>
 5    0  0.3188794E-002  0.4959299E+03  0.7546771E-02  0.1014847E+00
          2   -1    0    0  502    0 -0.00000000000E+00  0.00000000000E+00  0.12536319931E+04  0.12536319931E+04  0.00000000000E+00 0.  1.
         21   -1    0    0  503  502  0.00000000000E+00 -0.00000000000E+00 -0.17537785555E+03  0.17537785555E+03  0.00000000000E+00 0.  1.
         25    1    1    2    0    0 -0.23859608732E+03 -0.26069188681E+03  0.98689625931E+03  0.10556882018E+04  0.12500000000E+03 0.  0.
         21    1    1    2  503  501  0.20449186223E+02  0.26302325418E+02 -0.14138941991E+02  0.36192419375E+02  0.00000000000E+00 0. -1.
          2    1    1    2  501    0  0.21814690110E+03  0.23438956139E+03  0.10549682023E+03  0.33712922749E+03  0.00000000000E+00 0.  1.
<mgrwt>
<rscale>  4 0.49592993E+03</rscale>
<asrwt>0</asrwt>
<pdfrwt beam="1">  1       21 0.26981209E-01 0.49592993E+03</pdfrwt>
<pdfrwt beam="2">  1        2 0.19286645E+00 0.49592993E+03</pdfrwt>
<totfact> 0.28482515E+03</totfact>
</mgrwt>
</event>
<event>
 5    0  0.3188794E-002  0.3826690E+03  0.7546771E-02  0.1049952E+00
          1   -1    0    0  502    0 -0.00000000000E+00  0.00000000000E+00  0.12637133572E+04  0.12637133572E+04  0.00000000000E+00 0. -1.
         21   -1    0    0  503  502  0.00000000000E+00 -0.00000000000E+00 -0.58020722787E+02  0.58020722787E+02  0.00000000000E+00 0.  1.
         25    1    1    2    0    0  0.18806889228E+03  0.16789567002E+03  0.68984520384E+03  0.74503038161E+03  0.12500000000E+03 0.  0.
         21    1    1    2  503  501 -0.87168980663E+02 -0.45312625006E+02  0.17493913573E+03  0.20063740026E+03  0.00000000000E+00 0.  1.
          1    1    1    2  501    0 -0.10089991162E+03 -0.12258304501E+03  0.34090829488E+03  0.37606629815E+03  0.00000000000E+00 0. -1.
<mgrwt>
<rscale>  4 0.38266905E+03</rscale>
<asrwt>0</asrwt>
<pdfrwt beam="1">  1       21 0.89262660E-02 0.38266905E+03</pdfrwt>
<pdfrwt beam="2">  1        1 0.19441742E+00 0.38266905E+03</pdfrwt>
<totfact> 0.11092738E+04</totfact>
</mgrwt>
</event>
<event>
 5    0  0.3188794E-002  0.5169271E+03  0.7546771E-02  0.1009453E+00
         21   -1    0    0  503  502  0.00000000000E+00  0.00000000000E+00  0.55635284466E+02  0.55635284466E+02  0.00000000000E+00 0.  1.
          2   -1    0    0  502    0 -0.00000000000E+00 -0.00000000000E+00 -0.16377816741E+04  0.16377816741E+04  0.00000000000E+00 0. -1.
         25    1    1    2    0    0 -0.22906383692E+03  0.12160758264E+03 -0.78001826004E+03  0.83145182154E+03  0.12500000000E+03 0.  0.
         21    1    1    2  503  501  0.18211040917E+03 -0.13368820518E+03 -0.77315592070E+03  0.80548545304E+03  0.00000000000E+00 0. -1.
          2    1    1    2  501    0  0.46953427752E+02  0.12080622540E+02 -0.28972208938E+02  0.56479684041E+02  0.00000000000E+00 0. -1.
<mgrwt>
<rscale>  4 0.51692708E+03</rscale>
<asrwt>0</asrwt>
<pdfrwt beam="1">  1       21 0.85592756E-02 0.51692708E+03</pdfrwt>
<pdfrwt beam="2">  1        2 0.25196638E+00 0.51692708E+03</pdfrwt>
<totfact> 0.14802436E+04</totfact>
</mgrwt>
</event>
<event>
 5    0  0.3188794E-002  0.4944640E+03  0.7546771E-02  0.1015234E+00
         21   -1    0    0  501  502  0.00000000000E+00  0.00000000000E+00  0.15920416335E+03  0.15920416335E+03  0.00000000000E+00 0. -1.
          1   -1    0    0  503    0 -0.00000000000E+00 -0.00000000000E+00 -0.66574353079E+03  0.66574353079E+03  0.00000000000E+00 0.  1.
         25    1    1    2    0    0 -0.15379667977E+03 -0.15026010971E+03 -0.44814149216E+03  0.51253030766E+03  0.12500000000E+03 0.  0.
         21    1    1    2  503  502  0.67344858800E+02  0.18548085059E+03 -0.85730912450E+02  0.21514707828E+03  0.00000000000E+00 0. -1.
          1    1    1    2  501    0  0.86451820973E+02 -0.35220740878E+02  0.27333037165E+02  0.97270308204E+02  0.00000000000E+00 0.  1.
<mgrwt>
<rscale>  4 0.49446399E+03</rscale>
<asrwt>0</asrwt>
<pdfrwt beam="1">  1       21 0.24492948E-01 0.49446399E+03</pdfrwt>
<pdfrwt beam="2">  1        1 0.10242208E+00 0.49446399E+03</pdfrwt>
<totfact> 0.49845155E+03</totfact>
</mgrwt>
</event>
<event>
 5    0  0.3188794E-002  0.5923063E+03  0.7546771E-02  0.9921498E-01
         21   -1    0    0  503  502  0.00000000000E+00  0.00000000000E+00  0.34788461817E+03  0.34788461817E+03  0.00000000000E+00 0. -1.
          1   -1    0    0  502    0 -0.00000000000E+00 -0.00000000000E+00 -0.42956157629E+03  0.42956157629E+03  0.00000000000E+00 0.  1.
         25    1    1    2    0    0 -0.32610779972E+02 -0.27717453179E+03 -0.26978993693E+03  0.40779994374E+03  0.12500000000E+03 0.  0.
         21    1    1    2  503  501 -0.21082590441E+01  0.10724771585E+03  0.16194031153E+03  0.19424515904E+03  0.00000000000E+00 0. -1.
          1    1    1    2  501    0  0.34719039016E+02  0.16992681595E+03  0.26172667279E+02  0.17540109168E+03  0.00000000000E+00 0.  1.
<mgrwt>
<rscale>  4 0.59230631E+03</rscale>
<asrwt>0</asrwt>
<pdfrwt beam="1">  1       21 0.53520710E-01 0.59230631E+03</pdfrwt>
<pdfrwt beam="2">  1        1 0.66086396E-01 0.59230631E+03</pdfrwt>
<totfact> 0.18259375E+03</totfact>
</mgrwt>
</event>
<event>
 5    0  0.3188794E-002  0.9462616E+03  0.7546771E-02  0.9369531E-01
         21   -1    0    0  501  502  0.00000000000E+00  0.00000000000E+00  0.10091736374E+03  0.10091736374E+03  0.00000000000E+00 0.  1.
          2   -1    0    0  503    0 -0.00000000000E+00 -0.00000000000E+00 -0.26147744797E+04  0.26147744797E+04  0.00000000000E+00 0. -1.
         25    1    1    2    0    0  0.29014592219E+03 -0.67239028105E+02 -0.22901343899E+04  0.23128005246E+04  0.12500000000E+03 0.  0.
         21    1    1    2  503  502 -0.28830211920E+03  0.89030389960E+02 -0.23082152238E+03  0.37989879898E+03  0.00000000000E+00 0.  1.
          2    1    1    2  501    0 -0.18438029898E+01 -0.21791361855E+02  0.70987962696E+01  0.22992519858E+02  0.00000000000E+00 0. -1.
<mgrwt>
<rscale>  4 0.94626156E+03</rscale>
<asrwt>0</asrwt>
<pdfrwt beam="1">  1       21 0.15525751E-01 0.94626156E+03</pdfrwt>
<pdfrwt beam="2">  1        2 0.40227293E+00 0.94626156E+03</pdfrwt>
<totfact> 0.13501620E+03</totfact>
</mgrwt>
</event>
<event>
 5    0  0.3188794E-002  0.7390010E+03  0.7546771E-02  0.9652766E-01
         21   -1    0    0  501  502  0.00000000000E+00  0.00000000000E+00  0.24151251054E+03  0.24151251054E+03  0.00000000000E+00 0.  1.
          1   -1    0    0  503    0 -0.00000000000E+00 -0.00000000000E+00 -0.10956295401E+04  0.10956295401E+04  0.00000000000E+00 0. -1.
         25    1    1    2    0    0 -0.35189581833E+03 -0.23122668660E+03 -0.32478038340E+03  0.54626343919E+03  0.12500000000E+03 0.  0.
         21    1    1    2  503  502  0.14786636163E+03  0.19476342610E+03 -0.52991509476E+03  0.58361567894E+03  0.00000000000E+00 0. -1.
          1    1    1    2  501    0  0.20402945670E+03  0.36463260500E+02  0.57844864928E+00  0.20726293246E+03  0.00000000000E+00 0. -1.
<mgrwt>
<rscale>  4 0.73900099E+03</rscale>
<asrwt>0</asrwt>
<pdfrwt beam="1">  1       21 0.37155770E-01 0.73900099E+03</pdfrwt>
<pdfrwt beam="2">  1        1 0.16855839E+00 0.73900099E+03</pdfrwt>
<totfact> 0.91941010E+02</totfact>
</mgrwt>
</event>
<event>
 5    0  0.3188794E-002  0.4493441E+03  0.7546771E-02  0.1027918E+00
         -1   -1    0    0    0  501 -0.00000000000E+00  0.00000000000E+00  0.32641796400E+03  0.32641796400E+03  0.00000000000E+00 0.  1.
         21   -1    0    0  503  502  0.00000000000E+00 -0.00000000000E+00 -0.23316362416E+03  0.23316362416E+03  0.00000000000E+00 0.  1.
         25    1    1    2    0    0 -0.13106906485E+03 -0.16174281510E+03  0.15367775992E+03  0.28737030447E+03  0.12500000000E+03 0.  0.
         21    1    1    2  503  501  0.13123580913E+03  0.14051408068E+03  0.15963002240E+02  0.19292968125E+03  0.00000000000E+00 0. -1.
         -1    1    1    2    0  502 -0.16674428064E+00  0.21228734421E+02 -0.76386422323E+02  0.79281602431E+02  0.00000000000E+00 0.  1.
<mgrwt>
<rscale>  4 0.44934406E+03</rscale>
<asrwt>0</asrwt>
<pdfrwt beam="1">  1       21 0.35871327E-01 0.44934406E+03</pdfrwt>
<pdfrwt beam="2">  1       -1 0.50218148E-01 0.44934406E+03</pdfrwt>
<totfact> 0.26856980E+03</totfact>
</mgrwt>
</event>
<event>
 5    0  0.3188794E-002  0.3412227E+03  0.7546771E-02  0.1066276E+00
         21   -1    0    0  503  502  0.00000000000E+00  0.00000000000E+00  0.40503734101E+03  0.40503734101E+03  0.00000000000E+00 0. -1.
         -4   -1    0    0    0  501 -0.00000000000E+00 -0.00000000000E+00 -0.21683653488E+03  0.21683653488E+03  0.00000000000E+00 0. -1.
         25    1    1    2    0    0  0.20850019093E+03  0.85868332175E+02  0.80763505824E+02  0.27017298895E+03  0.12500000000E+03 0.  0.
         21    1    1    2  503  501 -0.20252852861E+02  0.80894020847E+02  0.27890195622E+02  0.87931130265E+02  0.00000000000E+00 0.  1.
         -4    1    1    2    0  502 -0.18824733806E+03 -0.16676235302E+03  0.79547104685E+02  0.26376975668E+03  0.00000000000E+00 0. -1.
<mgrwt>
<rscale>  4 0.34122270E+03</rscale>
<asrwt>0</asrwt>
<pdfrwt beam="1">  1       21 0.62313437E-01 0.34122270E+03</pdfrwt>
<pdfrwt beam="2">  1       -4 0.33359467E-01 0.34122270E+03</pdfrwt>
<totfact> 0.86524792E+02</totfact>
</mgrwt>
</event>
<event>
 5    0  0.3188794E-002  0.4328085E+03  0.7546771E-02  0.1032976E+00
          2   -1    0    0  502    0 -0.00000000000E+00  0.00000000000E+00  0.94147998799E+03  0.94147998799E+03  0.00000000000E+00 0. -1.
         21   -1    0    0  503  502  0.00000000000E+00 -0.00000000000E+00 -0.16023354919E+03  0.16023354919E+03  0.00000000000E+00 0. -1.
         25    1    1    2    0    0 -0.27356027351E+02  0.30428769623E+03  0.59151962151E+03  0.67739192270E+03  0.12500000000E+03 0.  0.
         21    1    1    2  503  501 -0.74418796155E+02 -0.64777527014E+02  0.11912584723E+03  0.15467789986E+03  0.00000000000E+00 0. -1.
          2    1    1    2  501    0  0.10177482351E+03 -0.23951016922E+03  0.70600970048E+02  0.26964371461E+03  0.00000000000E+00 0. -1.
<mgrwt>
<rscale>  4 0.43280851E+03</rscale>
<asrwt>0</asrwt>
<pdfrwt beam="1">  1       21 0.24651316E-01 0.43280851E+03</pdfrwt>
<pdfrwt beam="2">  1        2 0.14484307E+00 0.43280851E+03</pdfrwt>
<totfact> 0.53091386E+03</totfact>
</mgrwt>
</event>
<event>
 5    0  0.3188794E-002  0.4753581E+03  0.7546771E-02  0.1020419E+00
          2   -1    0    0  503    0 -0.00000000000E+00  0.00000000000E+00  0.44557899469E+04  0.44557899469E+04  0.00000000000E+00 0. -1.
         21   -1    0    0  501  502  0.00000000000E+00 -0.00000000000E+00 -0.14620173595E+02  0.14620173595E+02  0.00000000000E+00 0.  1.
         25    1    1    2    0    0  0.12849579997E+02 -0.20468712597E+03  0.33458563366E+04  0.33544659122E+04  0.12500000000E+03 0.  0.
         21    1    1    2  503  502 -0.26348514222E+02  0.18630793406E+03  0.10216153476E+04  0.10387987336E+04  0.00000000000E+00 0.  1.
          2    1    1    2  501    0  0.13498934225E+02  0.18379191907E+02  0.73698089149E+02  0.77145474686E+02  0.00000000000E+00 0. -1.
<mgrwt>
<rscale>  4 0.47535811E+03</rscale>
<asrwt>0</asrwt>
<pdfrwt beam="1">  1       21 0.22492610E-02 0.47535811E+03</pdfrwt>
<pdfrwt beam="2">  1        2 0.68550506E+00 0.47535811E+03</pdfrwt>
<totfact> 0.22259555E+03</totfact>
</mgrwt>
</event>
<event>
 5    0  0.3188794E-002  0.7124379E+03  0.7546771E-02  0.9696195E-01
          2   -1    0    0  502    0 -0.00000000000E+00  0.00000000000E+00  0.71687122196E+03  0.71687122196E+03  0.00000000000E+00 0. -1.
         21   -1    0    0  503  502  0.00000000000E+00 -0.00000000000E+00 -0.53442411243E+03  0.53442411243E+03  0.00000000000E+00 0. -1.
         25    1    1    2    0    0  0.46205714581E+03 -0.27822379677E+03  0.16095456640E+03  0.57657320396E+03  0.12500000000E+03 0.  0.
         21    1    1    2  503  501  0.39472807699E+02  0.15158689285E+03  0.15609738004E+02  0.15741776441E+03  0.00000000000E+00 0.  1.
          2    1    1    2  501    0 -0.50152995351E+03  0.12663690392E+03  0.58828051333E+01  0.51730436601E+03  0.00000000000E+00 0. -1.
<mgrwt>
<rscale>  4 0.71243792E+03</rscale>
<asrwt>0</asrwt>
<pdfrwt beam="1">  1       21 0.82219094E-01 0.71243792E+03</pdfrwt>
<pdfrwt beam="2">  1        2 0.11028788E+00 0.71243792E+03</pdfrwt>
<totfact> 0.56764416E+02</totfact>
</mgrwt>
</event>
<event>
 5    0  0.3188794E-002  0.6431238E+03  0.7546771E-02  0.9819768E-01
          1   -1    0    0  503    0 -0.00000000000E+00  0.00000000000E+00  0.10093119946E+04  0.10093119946E+04  0.00000000000E+00 0.  1.
         21   -1    0    0  501  502  0.00000000000E+00 -0.00000000000E+00 -0.36621195803E+03  0.36621195803E+03  0.00000000000E+00 0.  1.
         25    1    1    2    0    0 -0.20218082947E+03 -0.23873445906E+03  0.49024148897E+03  0.59483858925E+03  0.12500000000E+03 0.  0.
         21    1    1    2  503  502  0.21690709838E+03  0.21581698869E+03  0.41584742843E+03  0.51628940108E+03  0.00000000000E+00 0.  1.
          1    1    1    2  501    0 -0.14726268914E+02  0.22917470367E+02 -0.26298888083E+03  0.26439596231E+03  0.00000000000E+00 0.  1.
<mgrwt>
<rscale>  4 0.64312385E+03</rscale>
<asrwt>0</asrwt>
<pdfrwt beam="1">  1       21 0.56340302E-01 0.64312385E+03</pdfrwt>
<pdfrwt beam="2">  1        1 0.15527877E+00 0.64312385E+03</pdfrwt>
<totfact> 0.44947570E+02</totfact>
</mgrwt>
</event>
<event>
 5    0  0.3188794E-002  0.6793706E+03  0.7546771E-02  0.9753176E-01
         21   -1    0    0  501  502  0.00000000000E+00  0.00000000000E+00  0.16217836983E+03  0.16217836983E+03  0.00000000000E+00 0. -1.
          2   -1    0    0  503    0 -0.00000000000E+00 -0.00000000000E+00 -0.11863857631E+04  0.11863857631E+04  0.00000000000E+00 0.  1.
         25    1    1    2    0    0 -0.62124216109E+02 -0.30150245839E+03 -0.43365454841E+03  0.54630066630E+03  0.12500000000E+03 0.  0.
         21    1    1    2  503  502  0.54070513744E+02  0.33373830158E+03 -0.65084641316E+03  0.73342070323E+03  0.00000000000E+00 0. -1.
          2    1    1    2  501    0  0.80537023653E+01 -0.32235843189E+02  0.60293568253E+02  0.68842763458E+02  0.00000000000E+00 0.  1.
<mgrwt>
<rscale>  4 0.67937063E+03</rscale>
<asrwt>0</asrwt>
<pdfrwt beam="1">  1       21 0.24950519E-01 0.67937063E+03</pdfrwt>
<pdfrwt beam="2">  1        2 0.18252088E+00 0.67937063E+03</pdfrwt>
<totfact> 0.35317231E+03</totfact>
</mgrwt>
</event>
<event>
 5    0  0.3188794E-002  0.5591797E+03  0.7546771E-02  0.9993912E-01
         -1   -1    0    0    0  501 -0.00000000000E+00  0.00000000000E+00  0.12017378855E+04  0.12017378855E+04  0.00000000000E+00 0.  1.
         21   -1    0    0  503  502  0.00000000000E+00 -0.00000000000E+00 -0.15515675258E+03  0.15515675258E+03  0.00000000000E+00 0.  1.
         25    1    1    2    0    0  0.34473416696E+02  0.26166901140E+03  0.55401513725E+03  0.62627219345E+03  0.12500000000E+03 0.  0.
         21    1    1    2  503  501  0.10972114939E+03 -0.24354285149E+03  0.51825147762E+03  0.58304068914E+03  0.00000000000E+00 0.  1.
         -1    1    1    2    0  502 -0.14419456609E+03 -0.18126159905E+02 -0.25685481981E+02  0.14758175547E+03  0.00000000000E+00 0.  1.
<mgrwt>
<rscale>  4 0.55917972E+03</rscale>
<asrwt>0</asrwt>
<pdfrwt beam="1">  1       21 0.23870270E-01 0.55917972E+03</pdfrwt>
<pdfrwt beam="2">  1       -1 0.18488275E+00 0.55917972E+03</pdfrwt>
<totfact> 0.29757213E+02</totfact>
</mgrwt>
</event>
<event>
 5    0  0.3188794E-002  0.6813213E+03  0.7546771E-02  0.9749719E-01
          1   -1    0    0  503    0 -0.00000000000E+00  0.00000000000E+00  0.14582849638E+04  0.14582849638E+04  0.00000000000E+00 0. -1.
         21   -1    0    0  501  502  0.00000000000E+00 -0.00000000000E+00 -0.11045981165E+03  0.11045981165E+03  0.00000000000E+00 0.  1.
         25    1    1    2    0    0 -0.15454732472E+03  0.26760399407E+03  0.10688186573E+04  0.11195959519E+04  0.12500000000E+03 0.  0.
         21    1    1    2  503  502  0.18282596381E+03 -0.19126293231E+03  0.24607371917E+03  0.36132965224E+03  0.00000000000E+00 0.  1.
          1    1    1    2  501    0 -0.28278639089E+02 -0.76341061767E+02  0.32932775655E+02  0.87819171329E+02  0.00000000000E+00 0. -1.
<mgrwt>
<rscale>  4 0.68132128E+03</rscale>
<asrwt>0</asrwt>
<pdfrwt beam="1">  1       21 0.16993818E-01 0.68132128E+03</pdfrwt>
<pdfrwt beam="2">  1        1 0.22435152E+00 0.68132128E+03</pdfrwt>
<totfact> 0.23865484E+03</totfact>
</mgrwt>
</event>
<event>
 5    0  0.3188794E-002  0.3844691E+03  0.7546771E-02  0.1049294E+00
         21   -1    0    0  501  502  0.00000000000E+00  0.00000000000E+00  0.15412649977E+03  0.15412649977E+03  0.00000000000E+00 0.  1.
          1   -1    0    0  503    0 -0.00000000000E+00 -0.00000000000E+00 -0.79638978627E+03  0.79638978627E+03  0.00000000000E+00 0.  1.
         25    1    1    2    0    0 -0.19189967512E+03  0.96134412869E+02 -0.58109326255E+03  0.63195070253E+03  0.12500000000E+03 0.  0.
         21    1    1    2  503  502  0.11241818375E+03 -0.49253754036E+02 -0.14771733703E+03  0.19205257610E+03  0.00000000000E+00 0. -1.
          1    1    1    2  501    0  0.79481491370E+02 -0.46880658834E+02  0.86547313080E+02  0.12651300741E+03  0.00000000000E+00 0.  1.
<mgrwt>
<rscale>  4 0.38446913E+03</rscale>
<asrwt>0</asrwt>
<pdfrwt beam="1">  1       21 0.23711770E-01 0.38446913E+03</pdfrwt>
<pdfrwt beam="2">  1        1 0.12252150E+00 0.38446913E+03</pdfrwt>
<totfact> 0.41229580E+03</totfact>
</mgrwt>
</event>
<event>
 5    0  0.3188794E-002  0.6664578E+03  0.7546771E-02  0.9776378E-01
         21   -1    0    0  503  502  0.00000000000E+00  0.00000000000E+00  0.58143140036E+03  0.58143140036E+03  0.00000000000E+00 0.  1.
          2   -1    0    0  502    0 -0.00000000000E+00 -0.00000000000E+00 -0.11313749817E+04  0.11313749817E+04  0.00000000000E+00 0.  1.
         25    1    1    2    0    0  0.20569001215E+03  0.26292082238E+03 -0.88972108034E+03  0.95846979125E+03  0.12500000000E+03 0.  0.
         21    1    1    2  503  501  0.89283054115E+00  0.16320148021E+03 -0.13147856491E+02  0.16373266754E+03  0.00000000000E+00 0.  1.
          2    1    1    2  501    0 -0.20658284269E+03 -0.42612230259E+03  0.35292535548E+03  0.59060392328E+03  0.00000000000E+00 0.  1.
<mgrwt>
<rscale>  4 0.66645783E+03</rscale>
<asrwt>0</asrwt>
<pdfrwt beam="1">  1       21 0.89450985E-01 0.66645783E+03</pdfrwt>
<pdfrwt beam="2">  1        2 0.17405769E+00 0.66645783E+03</pdfrwt>
<totfact> 0.24749279E+02</totfact>
</mgrwt>
</event>
<event>
 5    0  0.3188794E-002  0.4392891E+03  0.7546771E-02  0.1030965E+00
         21   -1    0    0  503  502  0.00000000000E+00  0.00000000000E+00  0.18463592439E+03  0.18463592439E+03  0.00000000000E+00 0.  1.
          2   -1    0    0  502    0 -0.00000000000E+00 -0.00000000000E+00 -0.69048750001E+03  0.69048750001E+03  0.00000000000E+00 0.  1.
         25    1    1    2    0    0  0.16821424644E+03 -0.11339729978E+03 -0.27236379020E+03  0.36188674266E+03  0.12500000000E+03 0.  0.
         21    1    1    2  503  501 -0.27921334822E+02 -0.84094505238E+02  0.78404654879E+02  0.11831642598E+03  0.00000000000E+00 0. -1.
          2    1    1    2  501    0 -0.14029291162E+03  0.19749180501E+03 -0.31189244030E+03  0.39492025577E+03  0.00000000000E+00 0.  1.
<mgrwt>
<rscale>  4 0.43928913E+03</rscale>
<asrwt>0</asrwt>
<pdfrwt beam="1">  1       21 0.28405527E-01 0.43928913E+03</pdfrwt>
<pdfrwt beam="2">  1        2 0.10622884E+00 0.43928913E+03</pdfrwt>
<totfact> 0.60305694E+03</totfact>
</mgrwt>
</event>
<event>
 5    0  0.3188794E-002  0.4939159E+03  0.7546771E-02  0.1015379E+00
         21   -1    0    0  501  502  0.00000000000E+00  0.00000000000E+00  0.95956735984E+02  0.95956735984E+02  0.00000000000E+00 0. -1.
          1   -1    0    0  503    0 -0.00000000000E+00 -0.00000000000E+00 -0.16349499298E+04  0.16349499298E+04  0.00000000000E+00 0. -1.
         25    1    1    2    0    0 -0.60965883411E+02 -0.19957850747E+03 -0.94469871354E+03  0.97551477639E+03  0.12500000000E+03 0.  0.
         21    1    1    2  503  502  0.17489384454E+02  0.24160999494E+03 -0.63690393963E+03  0.68141609648E+03  0.00000000000E+00 0. -1.
          1    1    1    2  501    0  0.43476498957E+02 -0.42031487465E+02  0.42609459404E+02  0.73975792870E+02  0.00000000000E+00 0. -1.
<mgrwt>
<rscale>  4 0.49391595E+03</rscale>
<asrwt>0</asrwt>
<pdfrwt beam="1">  1       21 0.14762576E-01 0.49391595E+03</pdfrwt>
<pdfrwt beam="2">  1        1 0.25153074E+00 0.49391595E+03</pdfrwt>
<totfact> 0.24353106E+03</totfact>
</mgrwt>
</event>
<event>
 5    0  0.3188794E-002  0.8919782E+03  0.7546771E-02  0.9435665E-01
          2   -1    0    0  503    0 -0.00000000000E+00  0.00000000000E+00  0.69934445161E+03  0.69934445161E+03  0.00000000000E+00 0.  1.
         21   -1    0    0  501  502  0.00000000000E+00 -0.00000000000E+00 -0.74869828968E+03  0.74869828968E+03  0.00000000000E+00 0.  1.
         25    1    1    2    0    0 -0.31719022915E+03 -0.18152002996E+03 -0.32149111069E+02  0.38757931845E+03  0.12500000000E+03 0.  0.
         21    1    1    2  503  502  0.30514867431E+03  0.25298070902E+03  0.44308288340E+03  0.59450600849E+03  0.00000000000E+00 0.  1.
          2    1    1    2  501    0  0.12041554844E+02 -0.71460679061E+02 -0.46028761040E+03  0.46595741435E+03  0.00000000000E+00 0.  1.
<mgrwt>
<rscale>  4 0.89197815E+03</rscale>
<asrwt>0</asrwt>
<pdfrwt beam="1">  1       21 0.11518435E+00 0.89197815E+03</pdfrwt>
<pdfrwt beam="2">  1        2 0.10759145E+00 0.89197815E+03</pdfrwt>
<totfact> 0.24944901E+02</totfact>
</mgrwt>
</event>
<event>
 5    0  0.3188794E-002  0.4907652E+03  0.7546771E-02  0.1016218E+00
         21   -1    0    0  501  502  0.00000000000E+00  0.00000000000E+00  0.39363565499E+03  0.39363565499E+03  0.00000000000E+00 0.  1.
          4   -1    0    0  503    0 -0.00000000000E+00 -0.00000000000E+00 -0.34240027221E+03  0.34240027221E+03  0.00000000000E+00 0.  1.
         25    1    1    2    0    0  0.19724695865E+03  0.70843412234E+02 -0.16228270174E+03  0.29306283804E+03  0.12500000000E+03 0.  0.
         21    1    1    2  503  502  0.44909373729E+02 -0.48220498022E+02  0.18706073555E+03  0.19832747430E+03  0.00000000000E+00 0. -1.
          4    1    1    2  501    0 -0.24215633238E+03 -0.22622914212E+02  0.26457348971E+02  0.24464561486E+03  0.00000000000E+00 0.  1.
<mgrwt>
<rscale>  4 0.49076521E+03</rscale>
<asrwt>0</asrwt>
<pdfrwt beam="1">  1       21 0.60559332E-01 0.49076521E+03</pdfrwt>
<pdfrwt beam="2">  1        4 0.52676965E-01 0.49076521E+03</pdfrwt>
<totfact> 0.36145869E+02</totfact>
</mgrwt>
</event>
<event>
 5    0  0.3188794E-002  0.1487671E+04  0.7546771E-02  0.8892693E-01
         21   -1    0    0  501  502  0.00000000000E+00  0.00000000000E+00  0.74455041560E+03  0.74455041560E+03  0.00000000000E+00 0. -1.
          1   -1    0    0  503    0 -0.00000000000E+00 -0.00000000000E+00 -0.23442838593E+04  0.23442838593E+04  0.00000000000E+00 0. -1.
         25    1    1    2    0    0  0.64858359419E+03  0.28340195871E+03 -0.38551082478E+03  0.81561078026E+03  0.12500000000E+03 0.  0.
         21    1    1    2  503  502 -0.15418248284E+03 -0.45387361313E+03 -0.15694508658E+04  0.16410208758E+04  0.00000000000E+00 0. -1.
          1    1    1    2  501    0 -0.49440111134E+03  0.17047165441E+03  0.35522824688E+03  0.63220261882E+03  0.00000000000E+00 0. -1.
<mgrwt>
<rscale>  4 0.14876706E+04</rscale>
<asrwt>0</asrwt>
<pdfrwt beam="1">  1       21 0.11454622E+00 0.14876706E+04</pdfrwt>
<pdfrwt beam="2">  1        1 0.36065906E+00 0.14876706E+04</pdfrwt>
<totfact> 0.86478299E+00</totfact>
</mgrwt>
</event>
<event>
 5    0  0.3188794E-002  0.7715728E+03  0.7546771E-02  0.9602101E-01
         21   -1    0    0  503  502  0.00000000000E+00  0.00000000000E+00  0.60693165381E+03  0.60693165381E+03  0.00000000000E+00 0.  1.
         -4   -1    0    0    0  501 -0.00000000000E+00 -0.00000000000E+00 -0.48963302973E+03  0.48963302973E+03  0.00000000000E+00 0. -1.
         25    1    1    2    0    0  0.21143776822E+03  0.34524466053E+03 -0.22875677934E+03  0.48151268888E+03  0.12500000000E+03 0.  0.
         21    1    1    2  503  501  0.16083610303E+02 -0.26063689900E+03  0.13804269933E+03  0.29537444452E+03  0.00000000000E+00 0.  1.
         -4    1    1    2    0  502 -0.22752137852E+03 -0.84607761537E+02  0.20801270409E+03  0.31967755014E+03  0.00000000000E+00 0. -1.
<mgrwt>
<rscale>  4 0.77157279E+03</rscale>
<asrwt>0</asrwt>
<pdfrwt beam="1">  1       21 0.93374101E-01 0.77157279E+03</pdfrwt>
<pdfrwt beam="2">  1       -4 0.75328158E-01 0.77157279E+03</pdfrwt>
<totfact> 0.59542648E+01</totfact>
</mgrwt>
</event>
<event>
 5    0  0.3188794E-002  0.4510469E+03  0.7546771E-02  0.1027410E+00
         21   -1    0    0  503  502  0.00000000000E+00  0.00000000000E+00  0.87730559887E+02  0.87730559887E+02  0.00000000000E+00 0. -1.
          2   -1    0    0  502    0 -0.00000000000E+00 -0.00000000000E+00 -0.91810251678E+03  0.91810251678E+03  0.00000000000E+00 0.  1.
         25    1    1    2    0    0 -0.23436872859E+03 -0.52719581023E+02 -0.60909825870E+03  0.66658363610E+03  0.12500000000E+03 0.  0.
         21    1    1    2  503  501  0.13415263701E+03 -0.43789393852E+01 -0.77727214386E+02  0.15510520617E+03  0.00000000000E+00 0. -1.
          2    1    1    2  501    0  0.10021609159E+03  0.57098520409E+02 -0.14354648380E+03  0.18414423439E+03  0.00000000000E+00 0.  1.
<mgrwt>
<rscale>  4 0.45104692E+03</rscale>
<asrwt>0</asrwt>
<pdfrwt beam="1">  1       21 0.13497010E-01 0.45104692E+03</pdfrwt>
<pdfrwt beam="2">  1        2 0.14124654E+00 0.45104692E+03</pdfrwt>
<totfact> 0.17095006E+04</totfact>
</mgrwt>
</event>
<event>
 5    0  0.3188794E-002  0.5405375E+03  0.7546771E-02  0.1003708E+00
          2   -1    0    0  503    0 -0.00000000000E+00  0.00000000000E+00  0.82413197291E+03  0.82413197291E+03  0.00000000000E+00 0. -1.
         21   -1    0    0  501  502  0.00000000000E+00 -0.00000000000E+00 -0.34838246147E+03  0.34838246147E+03  0.00000000000E+00 0.  1.
         25    1    1    2    0    0  0.24545499495E+03  0.11386689346E+02 -0.24222013243E+02  0.27674811140E+03  0.12500000000E+03 0.  0.
         21    1    1    2  503  502  0.20026507728E+03  0.15353217149E+03  0.89358705994E+02  0.26769984534E+03  0.00000000000E+00 0. -1.
          2    1    1    2  501    0 -0.44572007223E+03 -0.16491886083E+03  0.41061281869E+03  0.62806647763E+03  0.00000000000E+00 0. -1.
<mgrwt>
<rscale>  4 0.54053750E+03</rscale>
<asrwt>0</asrwt>
<pdfrwt beam="1">  1       21 0.53597302E-01 0.54053750E+03</pdfrwt>
<pdfrwt beam="2">  1        2 0.12678953E+00 0.54053750E+03</pdfrwt>
<totfact> 0.12779224E+03</totfact>
</mgrwt>
</event>
<event>
 5    0  0.3188794E-002  0.4059404E+03  0.7546771E-02  0.1041742E+00
         21   -1    0    0  501  502  0.00000000000E+00  0.00000000000E+00  0.36482470249E+03  0.36482470249E+03  0.00000000000E+00 0. -1.
         -2   -1    0    0    0  501 -0.00000000000E+00 -0.00000000000E+00 -0.26639074218E+03  0.26639074218E+03  0.00000000000E+00 0.  1.
         25    1    1    2    0    0 -0.20785658831E+03 -0.11233667135E+03  0.88783100675E+02  0.28165817581E+03  0.12500000000E+03 0.  0.
         21    1    1    2  503  502  0.10257003081E+03  0.67084934163E+02  0.13322443172E+03  0.18102416640E+03  0.00000000000E+00 0. -1.
         -2    1    1    2    0  503  0.10528655750E+03  0.45251737189E+02 -0.12357357208E+03  0.16853310246E+03  0.00000000000E+00 0.  1.
<mgrwt>
<rscale>  4 0.40594040E+03</rscale>
<asrwt>0</asrwt>
<pdfrwt beam="1">  1       21 0.56126877E-01 0.40594040E+03</pdfrwt>
<pdfrwt beam="2">  1       -2 0.40983191E-01 0.40594040E+03</pdfrwt>
<totfact> 0.13034883E+03</totfact>
</mgrwt>
</event>
<event>
 5    0  0.3188794E-002  0.7358529E+03  0.7546771E-02  0.9657810E-01
         21   -1    0    0  501  502  0.00000000000E+00  0.00000000000E+00  0.25148143844E+03  0.25148143844E+03  0.00000000000E+00 0. -1.
          2   -1    0    0  503    0 -0.00000000000E+00 -0.00000000000E+00 -0.75413913070E+03  0.75413913070E+03  0.00000000000E+00 0.  1.
         25    1    1    2    0    0  0.25302726285E+03 -0.23814811091E+03 -0.40883440911E+03  0.55091550400E+03  0.12500000000E+03 0.  0.
         21    1    1    2  503  502 -0.23141094461E+03  0.25491339668E+03 -0.16255396856E+03  0.38073042666E+03  0.00000000000E+00 0.  1.
          2    1    1    2  501    0 -0.21616318232E+02 -0.16765285764E+02  0.68730685408E+02  0.73974638474E+02  0.00000000000E+00 0.  1.
<mgrwt>
<rscale>  4 0.73585288E+03</rscale>
<asrwt>0</asrwt>
<pdfrwt beam="1">  1       21 0.38689452E-01 0.73585288E+03</pdfrwt>
<pdfrwt beam="2">  1        2 0.11602140E+00 0.73585288E+03</pdfrwt>
<totfact> 0.27784318E+03</totfact>
</mgrwt>
</event>
<event>
 5    0  0.3188794E-002  0.3763701E+03  0.7546771E-02  0.1052284E+00
          2   -1    0    0  502    0 -0.00000000000E+00  0.00000000000E+00  0.13073269391E+04  0.13073269391E+04  0.00000000000E+00 0.  1.
         21   -1    0    0  503  502  0.00000000000E+00 -0.00000000000E+00 -0.49832447778E+02  0.49832447778E+02  0.00000000000E+00 0.  1.
         25    1    1    2    0    0  0.22014677575E+03 -0.46204106153E+02  0.53194510650E+03  0.59092302259E+03  0.12500000000E+03 0.  0.
         21    1    1    2  503  501 -0.10999775393E+03  0.45270601542E+02  0.23401911604E+03  0.26251453276E+03  0.00000000000E+00 0. -1.
          2    1    1    2  501    0 -0.11014902182E+03  0.93350461096E+00  0.49153026881E+03  0.50372183156E+03  0.00000000000E+00 0.  1.
<mgrwt>
<rscale>  4 0.37637012E+03</rscale>
<asrwt>0</asrwt>
<pdfrwt beam="1">  1       21 0.76665314E-02 0.37637012E+03</pdfrwt>
<pdfrwt beam="2">  1        2 0.20112720E+00 0.37637012E+03</pdfrwt>
<totfact> 0.27870236E+04</totfact>
</mgrwt>
</event>
<event>
 5    0  0.3188794E-002  0.5418921E+03  0.7546771E-02  0.1003388E+00
          1   -1    0    0  503    0 -0.00000000000E+00  0.00000000000E+00  0.46595126901E+03  0.46595126901E+03  0.00000000000E+00 0.  1.
         21   -1    0    0  501  502  0.00000000000E+00 -0.00000000000E+00 -0.65120649877E+03  0.65120649877E+03  0.00000000000E+00 0.  1.
         25    1    1    2    0    0 -0.33707378234E+03 -0.16274161467E+03 -0.23239688576E+03  0.45797039249E+03  0.12500000000E+03 0.  0.
         21    1    1    2  503  502 -0.27433224116E+02 -0.14453606144E+03 -0.77691483897E+02  0.16637073514E+03  0.00000000000E+00 0. -1.
          1    1    1    2  501    0  0.36450700646E+03  0.30727767611E+03  0.12483313990E+03  0.49281664015E+03  0.00000000000E+00 0.  1.
<mgrwt>
<rscale>  4 0.54189210E+03</rscale>
<asrwt>0</asrwt>
<pdfrwt beam="1">  1       21 0.10018561E+00 0.54189210E+03</pdfrwt>
<pdfrwt beam="2">  1        1 0.71684811E-01 0.54189210E+03</pdfrwt>
<totfact> 0.39351499E+02</totfact>
</mgrwt>
</event>
<event>
 5    0  0.3188794E-002  0.3124438E+03  0.7546771E-02  0.1079180E+00
          2   -1    0    0  503    0 -0.00000000000E+00  0.00000000000E+00  0.58697247128E+03  0.58697247128E+03  0.00000000000E+00 0. -1.
         21   -1    0    0  501  502  0.00000000000E+00 -0.00000000000E+00 -0.14960223458E+03  0.14960223458E+03  0.00000000000E+00 0. -1.
         25    1    1    2    0    0  0.20457756055E+02  0.20451324316E+03  0.35332350091E+03  0.42744202262E+03  0.12500000000E+03 0.  0.
         21    1    1    2  503  502  0.63997780598E+02 -0.32074600379E+02  0.92466476296E+02  0.11693821082E+03  0.00000000000E+00 0.  1.
          2    1    1    2  501    0 -0.84455536654E+02 -0.17243864278E+03 -0.84197405051E+01  0.19219447241E+03  0.00000000000E+00 0. -1.
<mgrwt>
<rscale>  4 0.31244381E+03</rscale>
<asrwt>0</asrwt>
<pdfrwt beam="1">  1       21 0.23015729E-01 0.31244381E+03</pdfrwt>
<pdfrwt beam="2">  1        2 0.90303456E-01 0.31244381E+03</pdfrwt>
<totfact> 0.11254937E+04</totfact>
</mgrwt>
</event>
<event>
 5    0  0.3188794E-002  0.4908261E+03  0.7546771E-02  0.1016202E+00
         21   -1    0    0  501  502  0.00000000000E+00  0.00000000000E+00  0.47731207466E+03  0.47731207466E+03  0.00000000000E+00 0.  1.
          1   -1    0    0  503    0 -0.00000000000E+00 -0.00000000000E+00 -0.18782553537E+03  0.18782553537E+03  0.00000000000E+00 0. -1.
         25    1    1    2    0    0  0.17921478507E+03 -0.16012014285E+03  0.15596663869E+03  0.31258117621E+03  0.12500000000E+03 0.  0.
         21    1    1    2  503  502 -0.13294663962E+03  0.14721425371E+03 -0.12583837320E+02  0.19875914682E+03  0.00000000000E+00 0. -1.
          1    1    1    2  501    0 -0.46268145452E+02  0.12905889137E+02  0.14610373792E+03  0.15379728701E+03  0.00000000000E+00 0. -1.
<mgrwt>
<rscale>  4 0.49082614E+03</rscale>
<asrwt>0</asrwt>
<pdfrwt beam="1">  1       21 0.73432626E-01 0.49082614E+03</pdfrwt>
<pdfrwt beam="2">  1        1 0.28896236E-01 0.49082614E+03</pdfrwt>
<totfact> 0.26789330E+03</totfact>
</mgrwt>
</event>
<event>
 5    0  0.3188794E-002  0.3994920E+03  0.7546771E-02  0.1043956E+00
         21   -1    0    0  503  502  0.00000000000E+00  0.00000000000E+00  0.15534804028E+04  0.15534804028E+04  0.00000000000E+00 0. -1.
         -2   -1    0    0    0  501 -0.00000000000E+00 -0.00000000000E+00 -0.48008776710E+02  0.48008776710E+02  0.00000000000E+00 0.  1.
         25    1    1    2    0    0 -0.19755347931E+03  0.35258377689E+02  0.33937429126E+03  0.41360662465E+03  0.12500000000E+03 0.  0.
         21    1    1    2  503  501  0.12776381935E+03  0.13799045801E+02  0.49598979703E+03  0.51236694464E+03  0.00000000000E+00 0. -1.
         -2    1    1    2    0  502  0.69789659967E+02 -0.49057423491E+02  0.67010753776E+03  0.67551561019E+03  0.00000000000E+00 0.  1.
<mgrwt>
<rscale>  4 0.39949204E+03</rscale>
<asrwt>0</asrwt>
<pdfrwt beam="1">  1       21 0.23899695E+00 0.39949204E+03</pdfrwt>
<pdfrwt beam="2">  1       -2 0.73859668E-02 0.39949204E+03</pdfrwt>
<totfact> 0.58475681E+02</totfact>
</mgrwt>
</event>
<event>
 5    0  0.3188794E-002  0.5057098E+03  0.7546771E-02  0.1012299E+00
         21   -1    0    0  503  502  0.00000000000E+00  0.00000000000E+00  0.77140445636E+03  0.77140445636E+03  0.00000000000E+00 0. -1.
          1   -1    0    0  502    0 -0.00000000000E+00 -0.00000000000E+00 -0.43324105429E+03  0.43324105429E+03  0.00000000000E+00 0.  1.
         25    1    1    2    0    0 -0.20532043562E+03  0.10679974257E+03  0.47132704019E+03  0.53975628306E+03  0.12500000000E+03 0.  0.
         21    1    1    2  503  501 -0.14128470040E+03 -0.14835705998E+03  0.11653189649E+03  0.23569231364E+03  0.00000000000E+00 0. -1.
          1    1    1    2  501    0  0.34660513601E+03  0.41557317407E+02 -0.24969553461E+03  0.42919691395E+03  0.00000000000E+00 0.  1.
<mgrwt>
<rscale>  4 0.50570979E+03</rscale>
<asrwt>0</asrwt>
<pdfrwt beam="1">  1       21 0.11867761E+00 0.50570979E+03</pdfrwt>
<pdfrwt beam="2">  1        1 0.66652470E-01 0.50570979E+03</pdfrwt>
<totfact> 0.28699660E+02</totfact>
</mgrwt>
</event>
