<event>
 5    0  0.2159162E+000  0.2377703E+03  0.7546771E-02  0.1121287E+00
         21   -1    0    0  502  501  0.00000000000E+00  0.00000000000E+00  0.87141922907E+03  0.87141922907E+03  0.00000000000E+00 0. -1.
         21   -1    0    0  503  502 -0.00000000000E+00 -0.00000000000E+00 -0.13665741080E+03  0.13665741080E+03  0.00000000000E+00 0. -1.
         25    1    1    2    0    0 -0.21086022940E+02  0.20115933481E+03  0.75849095426E+03  0.79488566853E+03  0.12500000000E+03 0.  0.
         21    1    1    2  503  504  0.24027944271E+02 -0.13800960358E+03 -0.43948912524E+02  0.14681791341E+03  0.00000000000E+00 0. -1.
         21    1    1    2  504  501 -0.29419213311E+01 -0.63149731225E+02  0.20219776530E+02  0.66373057921E+02  0.00000000000E+00 0. -1.
<mgrwt>
<rscale>  4 0.23777026E+03</rscale>
<asrwt>0</asrwt>
<pdfrwt beam="1">  1       21 0.13406449E+00 0.23777026E+03</pdfrwt>
<pdfrwt beam="2">  1       21 0.21024218E-01 0.23777026E+03</pdfrwt>
<totfact> 0.81416062E+03</totfact>
</mgrwt>
</event>
<event>
 5    0  0.1145269E+001  0.3819004E+03  0.7546771E-02  0.1050234E+00
         21   -1    0    0  502  501  0.00000000000E+00  0.00000000000E+00  0.11288168121E+03  0.11288168121E+03  0.00000000000E+00 0.  1.
         21   -1    0    0  503  502 -0.00000000000E+00 -0.00000000000E+00 -0.12483502394E+04  0.12483502394E+04  0.00000000000E+00 0.  1.
         25    1    1    2    0    0 -0.28407955446E+03 -0.22253482045E+03 -0.51855718730E+03  0.64401047824E+03  0.12500000000E+03 0.  0.
         21    1    1    2  503  504  0.24908574894E+03  0.21686370131E+03 -0.56217746956E+03  0.65201003255E+03  0.00000000000E+00 0.  1.
         21    1    1    2  504  501  0.34993805523E+02  0.56711191385E+01 -0.54733901328E+02  0.65211409828E+02  0.00000000000E+00 0. -1.
<mgrwt>
<rscale>  4 0.38190043E+03</rscale>
<asrwt>0</asrwt>
<pdfrwt beam="1">  1       21 0.17366412E-01 0.38190043E+03</pdfrwt>
<pdfrwt beam="2">  1       21 0.19205389E+00 0.38190043E+03</pdfrwt>
<totfact> 0.40064608E+03</totfact>
</mgrwt>
</event>
<event>
 5    0  0.2159162E+000  0.3415709E+03  0.7546771E-02  0.1066129E+00
         21   -1    0    0  502  501  0.00000000000E+00  0.00000000000E+00  0.34664718128E+03  0.34664718128E+03  0.00000000000E+00 0. -1.
         21   -1    0    0  503  502 -0.00000000000E+00 -0.00000000000E+00 -0.76603910071E+03  0.76603910071E+03  0.00000000000E+00 0.  1.
         25    1    1    2    0    0 -0.14607148838E+03 -0.28232746155E+03  0.21067821890E+03  0.40131781319E+03  0.12500000000E+03 0.  0.
         21    1    1    2  503  504  0.84798785453E+02  0.22946411089E+03 -0.52081637370E+03  0.57540794860E+03  0.00000000000E+00 0.  1.
         21    1    1    2  504  501  0.61272702931E+02  0.52863350664E+02 -0.10925376463E+03  0.13596052020E+03  0.00000000000E+00 0.  1.
<mgrwt>
<rscale>  4 0.34157089E+03</rscale>
<asrwt>0</asrwt>
<pdfrwt beam="1">  1       21 0.53330335E-01 0.34157089E+03</pdfrwt>
<pdfrwt beam="2">  1       21 0.11785217E+00 0.34157089E+03</pdfrwt>
<totfact> 0.16544246E+03</totfact>
</mgrwt>
</event>
<event>
 5    0  0.2159162E+000  0.2330651E+03  0.7546771E-02  0.1124501E+00
         21   -1    0    0  502  501  0.00000000000E+00  0.00000000000E+00  0.14704415585E+03  0.14704415585E+03  0.00000000000E+00 0. -1.
         21   -1    0    0  503  502 -0.00000000000E+00 -0.00000000000E+00 -0.49486743521E+03  0.49486743521E+03  0.00000000000E+00 0. -1.
         25    1    1    2    0    0 -0.18359097181E+03  0.13789011018E+03 -0.10960420597E+03  0.28347382486E+03  0.12500000000E+03 0.  0.
         21    1    1    2  503  504  0.10815482664E+03 -0.15110635842E+03 -0.19944491474E+03  0.27259653720E+03  0.00000000000E+00 0. -1.
         21    1    1    2  504  501  0.75436145169E+02  0.13216248244E+02 -0.38774158655E+02  0.85841228993E+02  0.00000000000E+00 0. -1.
<mgrwt>
<rscale>  4 0.23306515E+03</rscale>
<asrwt>0</asrwt>
<pdfrwt beam="1">  1       21 0.22622178E-01 0.23306515E+03</pdfrwt>
<pdfrwt beam="2">  1       21 0.76133451E-01 0.23306515E+03</pdfrwt>
<totfact> 0.27552149E+04</totfact>
</mgrwt>
</event>
<event>
 5    0  0.2159162E+000  0.2588398E+03  0.7546771E-02  0.1107842E+00
         21   -1    0    0  502  501  0.00000000000E+00  0.00000000000E+00  0.85744180730E+02  0.85744180730E+02  0.00000000000E+00 0. -1.
         21   -1    0    0  503  502 -0.00000000000E+00 -0.00000000000E+00 -0.90574560506E+03  0.90574560506E+03  0.00000000000E+00 0. -1.
         25    1    1    2    0    0 -0.22664512520E+03 -0.22398577824E+01 -0.19119341379E+03  0.32179644376E+03  0.12500000000E+03 0.  0.
         21    1    1    2  503  504  0.28757588405E+02  0.14266403710E+02 -0.92921700754E+02  0.98310587613E+02  0.00000000000E+00 0. -1.
         21    1    1    2  504  501  0.19788753680E+03 -0.12026545928E+02 -0.53588630979E+03  0.57138275442E+03  0.00000000000E+00 0. -1.
<mgrwt>
<rscale>  4 0.25883978E+03</rscale>
<asrwt>0</asrwt>
<pdfrwt beam="1">  1       21 0.13191413E-01 0.25883978E+03</pdfrwt>
<pdfrwt beam="2">  1       21 0.13934547E+00 0.25883978E+03</pdfrwt>
<totfact> 0.17230877E+04</totfact>
</mgrwt>
</event>
<event>
 5    0  0.2159162E+000  0.2371264E+03  0.7546771E-02  0.1121722E+00
         21   -1    0    0  502  501  0.00000000000E+00  0.00000000000E+00  0.48397463341E+03  0.48397463341E+03  0.00000000000E+00 0.  1.
         21   -1    0    0  503  502 -0.00000000000E+00 -0.00000000000E+00 -0.17564443703E+03  0.17564443703E+03  0.00000000000E+00 0.  1.
         25    1    1    2    0    0  0.19435016557E+03 -0.53215847275E+02  0.37403800150E+03  0.44286943880E+03  0.12500000000E+03 0.  0.
         21    1    1    2  503  504 -0.79195379955E+02  0.85404676614E+01 -0.69160911326E+01  0.79954237602E+02  0.00000000000E+00 0.  1.
         21    1    1    2  504  501 -0.11515478562E+03  0.44675379614E+02 -0.58791713985E+02  0.13679539403E+03  0.00000000000E+00 0.  1.
<mgrwt>
<rscale>  4 0.23712637E+03</rscale>
<asrwt>0</asrwt>
<pdfrwt beam="1">  1       21 0.74457636E-01 0.23712637E+03</pdfrwt>
<pdfrwt beam="2">  1       21 0.27022221E-01 0.23712637E+03</pdfrwt>
<totfact> 0.20563061E+04</totfact>
</mgrwt>
</event>
<event>
 5    0  0.2517254E+000  0.2932752E+03  0.7546771E-02  0.1088651E+00
         21   -1    0    0  502  501  0.00000000000E+00  0.00000000000E+00  0.65656611094E+03  0.65656611094E+03  0.00000000000E+00 0.  1.
         21   -1    0    0  503  502 -0.00000000000E+00 -0.00000000000E+00 -0.14849337285E+03  0.14849337285E+03  0.00000000000E+00 0.  1.
         25    1    1    2    0    0 -0.82410327096E+02  0.25217823158E+03  0.43687858470E+03  0.52618743834E+03  0.12500000000E+03 0.  0.
         21    1    1    2  503  504 -0.46952699385E+01 -0.39620351597E+02  0.11753677627E+02  0.41592869079E+02  0.00000000000E+00 0.  1.
         21    1    1    2  504  501  0.87105597035E+02 -0.21255787999E+03  0.59440475755E+02  0.23727917637E+03  0.00000000000E+00 0.  1.
<mgrwt>
<rscale>  4 0.29327517E+03</rscale>
<asrwt>0</asrwt>
<pdfrwt beam="1">  1       21 0.10101017E+00 0.29327517E+03</pdfrwt>
<pdfrwt beam="2">  1       21 0.22845135E-01 0.29327517E+03</pdfrwt>
<totfact> 0.13627938E+04</totfact>
</mgrwt>
</event>
<event>
 5    0  0.4893641E+000  0.2468609E+03  0.7546771E-02  0.1115305E+00
         21   -1    0    0  502  501  0.00000000000E+00  0.00000000000E+00  0.61133381741E+03  0.61133381741E+03  0.00000000000E+00 0.  1.
         21   -1    0    0  503  502 -0.00000000000E+00 -0.00000000000E+00 -0.13520107250E+03  0.13520107250E+03  0.00000000000E+00 0. -1.
         25    1    1    2    0    0  0.15006103259E+03 -0.15098679908E+03  0.46720233019E+03  0.52841115084E+03  0.12500000000E+03 0.  0.
         21    1    1    2  503  504 -0.20005813231E+02  0.86886506652E+01 -0.10801350402E+02  0.24339153312E+02  0.00000000000E+00 0.  1.
         21    1    1    2  504  501 -0.13005521936E+03  0.14229814841E+03  0.19731765120E+02  0.19378458576E+03  0.00000000000E+00 0. -1.
<mgrwt>
<rscale>  4 0.24686095E+03</rscale>
<asrwt>0</asrwt>
<pdfrwt beam="1">  1       21 0.94051355E-01 0.24686095E+03</pdfrwt>
<pdfrwt beam="2">  1       21 0.20800165E-01 0.24686095E+03</pdfrwt>
<totfact> 0.19727364E+04</totfact>
</mgrwt>
</event>
<event>
 5    0  0.2159162E+000  0.4462453E+03  0.7546771E-02  0.1028848E+00
         21   -1    0    0  502  501  0.00000000000E+00  0.00000000000E+00  0.19675238093E+04  0.19675238093E+04  0.00000000000E+00 0. -1.
         21   -1    0    0  503  502 -0.00000000000E+00 -0.00000000000E+00 -0.23198637781E+03  0.23198637781E+03  0.00000000000E+00 0. -1.
         25    1    1    2    0    0 -0.22561920129E+03 -0.36415089270E+03  0.17000745711E+04  0.17576656235E+04  0.12500000000E+03 0.  0.
         21    1    1    2  503  504  0.30758358830E+02  0.23920453065E+02  0.30911494856E+02  0.49737161429E+02  0.00000000000E+00 0.  1.
         21    1    1    2  504  501  0.19486084246E+03  0.34023043964E+03  0.45513655977E+01  0.39210740226E+03  0.00000000000E+00 0. -1.
<mgrwt>
<rscale>  4 0.44624533E+03</rscale>
<asrwt>0</asrwt>
<pdfrwt beam="1">  1       21 0.30269596E+00 0.44624533E+03</pdfrwt>
<pdfrwt beam="2">  1       21 0.35690213E-01 0.44624533E+03</pdfrwt>
<totfact> 0.19551916E+02</totfact>
</mgrwt>
</event>
<event>
 5    0  0.2159162E+000  0.2524809E+03  0.7546771E-02  0.1111747E+00
         21   -1    0    0  502  501  0.00000000000E+00  0.00000000000E+00  0.59650447128E+02  0.59650447128E+02  0.00000000000E+00 0. -1.
         21   -1    0    0  503  502 -0.00000000000E+00 -0.00000000000E+00 -0.10354324108E+04  0.10354324108E+04  0.00000000000E+00 0. -1.
         25    1    1    2    0    0 -0.21068131569E+03  0.61114617987E+02 -0.35722948247E+03  0.43744658697E+03  0.12500000000E+03 0.  0.
         21    1    1    2  503  504  0.39467672275E+02  0.10733443997E+01 -0.14429929573E+03  0.14960326190E+03  0.00000000000E+00 0. -1.
         21    1    1    2  504  501  0.17121364341E+03 -0.62187962387E+02 -0.47425318548E+03  0.50803300906E+03  0.00000000000E+00 0. -1.
<mgrwt>
<rscale>  4 0.25248092E+03</rscale>
<asrwt>0</asrwt>
<pdfrwt beam="1">  1       21 0.91769926E-02 0.25248092E+03</pdfrwt>
<pdfrwt beam="2">  1       21 0.15929728E+00 0.25248092E+03</pdfrwt>
<totfact> 0.23188929E+04</totfact>
</mgrwt>
</event>
