<event>
 5    0  0.1911311E+001  0.2347953E+03  0.7546771E-02  0.1123309E+00
         21   -1    0    0  502  501  0.00000000000E+00  0.00000000000E+00  0.58765818041E+03  0.58765818041E+03  0.00000000000E+00 0. -1.
         21   -1    0    0  504  502 -0.00000000000E+00 -0.00000000000E+00 -0.45227762860E+03  0.45227762860E+03  0.00000000000E+00 0. -1.
         25    1    1    2    0    0  0.73784878615E+02  0.31198263069E+03 -0.14397159662E+03  0.37300159624E+03  0.12500000000E+03 0.  0.
         21    1    1    2  503  501  0.26754963763E+01 -0.18982763857E+03  0.42288151160E+03  0.46354122093E+03  0.00000000000E+00 0. -1.
         21    1    1    2  504  503 -0.76460374991E+02 -0.12215499211E+03 -0.14352936317E+03  0.20339299185E+03  0.00000000000E+00 0. -1.
<mgrwt>
<rscale>  4 0.23479529E+03</rscale>
<asrwt>0</asrwt>
<pdfrwt beam="1">  1       21 0.90408951E-01 0.23479529E+03</pdfrwt>
<pdfrwt beam="2">  1       21 0.69581173E-01 0.23479529E+03</pdfrwt>
<totfact> 0.18832032E+03</totfact>
</mgrwt>
</event>
<event>
 5    0  0.1911311E+001  0.3092754E+03  0.7546771E-02  0.1080694E+00
         21   -1    0    0  504  501  0.00000000000E+00  0.00000000000E+00  0.74385688099E+03  0.74385688099E+03  0.00000000000E+00 0. -1.
         21   -1    0    0  503  502 -0.00000000000E+00 -0.00000000000E+00 -0.89264276576E+03  0.89264276576E+03  0.00000000000E+00 0. -1.
         25    1    1    2    0    0 -0.11678742257E+03 -0.17232734335E+03 -0.14429126614E+03  0.28245527933E+03  0.12500000000E+03 0.  0.
         21    1    1    2  503  501  0.22224851355E+03  0.23959772543E+03 -0.63344300639E+03  0.71277732438E+03  0.00000000000E+00 0. -1.
         21    1    1    2  504  502 -0.10546109098E+03 -0.67270382085E+02  0.62894838777E+03  0.64126704304E+03  0.00000000000E+00 0. -1.
<mgrwt>
<rscale>  4 0.30927541E+03</rscale>
<asrwt>0</asrwt>
<pdfrwt beam="1">  1       21 0.11443952E+00 0.30927541E+03</pdfrwt>
<pdfrwt beam="2">  1       21 0.13732966E+00 0.30927541E+03</pdfrwt>
<totfact> 0.19875658E+02</totfact>
</mgrwt>
</event>
<event>
 5    0  0.1911311E+001  0.2755528E+03  0.7546771E-02  0.1098143E+00
         21   -1    0    0  504  501  0.00000000000E+00  0.00000000000E+00  0.28905949391E+03  0.28905949391E+03  0.00000000000E+00 0. -1.
         21   -1    0    0  503  502 -0.00000000000E+00 -0.00000000000E+00 -0.68467966710E+03  0.68467966710E+03  0.00000000000E+00 0. -1.
         25    1    1    2    0    0 -0.42486112382E+02 -0.31908805880E+03  0.79307940363E+02  0.35431202127E+03  0.12500000000E+03 0.  0.
         21    1    1    2  503  501  0.23681291632E+02  0.23470392568E+03 -0.47787050585E+03  0.53292303071E+03  0.00000000000E+00 0. -1.
         21    1    1    2  504  502  0.18804820750E+02  0.84384133117E+02  0.29423922919E+01  0.86504109022E+02  0.00000000000E+00 0. -1.
<mgrwt>
<rscale>  4 0.27555282E+03</rscale>
<asrwt>0</asrwt>
<pdfrwt beam="1">  1       21 0.44470692E-01 0.27555282E+03</pdfrwt>
<pdfrwt beam="2">  1       21 0.10533533E+00 0.27555282E+03</pdfrwt>
<totfact> 0.33156502E+03</totfact>
</mgrwt>
</event>
<event>
 5    0  0.1911311E+001  0.1997018E+03  0.7546771E-02  0.1149991E+00
         21   -1    0    0  504  501  0.00000000000E+00  0.00000000000E+00  0.34642402619E+03  0.34642402619E+03  0.00000000000E+00 0. -1.
         21   -1    0    0  503  502 -0.00000000000E+00 -0.00000000000E+00 -0.19416941531E+03  0.19416941531E+03  0.00000000000E+00 0. -1.
         25    1    1    2    0    0 -0.20478974882E+03  0.10767402696E+02  0.14737270167E+03  0.28177737911E+03  0.12500000000E+03 0.  0.
         21    1    1    2  503  501  0.75470594370E+02 -0.14161545005E+02 -0.74540665404E+02  0.10701715176E+03  0.00000000000E+00 0. -1.
         21    1    1    2  504  502  0.12931915445E+03  0.33941423090E+01  0.79422574609E+02  0.15179891063E+03  0.00000000000E+00 0. -1.
<mgrwt>
<rscale>  4 0.19970182E+03</rscale>
<asrwt>0</asrwt>
<pdfrwt beam="1">  1       21 0.53296004E-01 0.19970182E+03</pdfrwt>
<pdfrwt beam="2">  1       21 0.29872218E-01 0.19970182E+03</pdfrwt>
<totfact> 0.35684153E+04</totfact>
</mgrwt>
</event>
<event>
 5    0  0.1911311E+001  0.2060181E+03  0.7546771E-02  0.1144759E+00
         21   -1    0    0  504  501  0.00000000000E+00  0.00000000000E+00  0.16898482034E+03  0.16898482034E+03  0.00000000000E+00 0. -1.
         21   -1    0    0  503  502 -0.00000000000E+00 -0.00000000000E+00 -0.59204262979E+03  0.59204262979E+03  0.00000000000E+00 0. -1.
         25    1    1    2    0    0 -0.89899054338E+02  0.18770130269E+03 -0.36796823140E+03  0.44083924317E+03  0.12500000000E+03 0.  0.
         21    1    1    2  503  501 -0.25859884956E+01 -0.58811119862E+02 -0.13152329582E+03  0.14409653881E+03  0.00000000000E+00 0. -1.
         21    1    1    2  504  502  0.92485042833E+02 -0.12889018283E+03  0.76433717764E+02  0.17609166814E+03  0.00000000000E+00 0. -1.
<mgrwt>
<rscale>  4 0.20601813E+03</rscale>
<asrwt>0</asrwt>
<pdfrwt beam="1">  1       21 0.25997665E-01 0.20601813E+03</pdfrwt>
<pdfrwt beam="2">  1       21 0.91083482E-01 0.20601813E+03</pdfrwt>
<totfact> 0.14236494E+04</totfact>
</mgrwt>
</event>
<event>
 5    0  0.1911311E+001  0.2365566E+03  0.7546771E-02  0.1122108E+00
         21   -1    0    0  503  501  0.00000000000E+00  0.00000000000E+00  0.33068553273E+03  0.33068553273E+03  0.00000000000E+00 0. -1.
         21   -1    0    0  504  502 -0.00000000000E+00 -0.00000000000E+00 -0.36556446077E+03  0.36556446077E+03  0.00000000000E+00 0. -1.
         25    1    1    2    0    0  0.24538977081E+03  0.75334715985E+02 -0.17573221625E+03  0.33525851351E+03  0.12500000000E+03 0.  0.
         21    1    1    2  503  502 -0.60878008280E+02 -0.21222759427E+02 -0.56302640455E+02  0.85595120959E+02  0.00000000000E+00 0. -1.
         21    1    1    2  504  501 -0.18451176253E+03 -0.54111956558E+02  0.19715592867E+03  0.27539635903E+03  0.00000000000E+00 0. -1.
<mgrwt>
<rscale>  4 0.23655656E+03</rscale>
<asrwt>0</asrwt>
<pdfrwt beam="1">  1       21 0.50874698E-01 0.23655656E+03</pdfrwt>
<pdfrwt beam="2">  1       21 0.56240686E-01 0.23655656E+03</pdfrwt>
<totfact> 0.10632746E+04</totfact>
</mgrwt>
</event>
