<event>
 5    0  0.4166296E+000  0.2933501E+03  0.7546771E-02  0.1088613E+00
         21   -1    0    0  502  501  0.00000000000E+00  0.00000000000E+00  0.13466657760E+03  0.13466657760E+03  0.00000000000E+00 0.  1.
         21   -1    0    0  503  502 -0.00000000000E+00 -0.00000000000E+00 -0.60022393938E+03  0.60022393938E+03  0.00000000000E+00 0.  1.
         25    1    1    2    0    0  0.18541576167E+03 -0.18986909591E+03 -0.20181163670E+03  0.35606490274E+03  0.12500000000E+03 0.  0.
         21    1    1    2  503  504 -0.16483696612E+03  0.13666987646E+03 -0.21942937890E+03  0.30659278018E+03  0.00000000000E+00 0.  1.
         21    1    1    2  504  501 -0.20578795555E+02  0.53199219452E+02 -0.44316346181E+02  0.72232834055E+02  0.00000000000E+00 0. -1.
<mgrwt>
<rscale>  4 0.29335010E+03</rscale>
<asrwt>0</asrwt>
<pdfrwt beam="1">  1       21 0.20717935E-01 0.29335010E+03</pdfrwt>
<pdfrwt beam="2">  1       21 0.92342146E-01 0.29335010E+03</pdfrwt>
<totfact> 0.20316370E+04</totfact>
</mgrwt>
</event>
<event>
 5    0  0.3478269E+000  0.2767584E+03  0.7546771E-02  0.1097473E+00
         21   -1    0    0  502  501  0.00000000000E+00  0.00000000000E+00  0.89720806260E+03  0.89720806260E+03  0.00000000000E+00 0.  1.
         21   -1    0    0  503  502 -0.00000000000E+00 -0.00000000000E+00 -0.80927189375E+02  0.80927189375E+02  0.00000000000E+00 0.  1.
         25    1    1    2    0    0  0.23919718792E+03  0.61277317401E+02  0.43705333575E+03  0.51731114682E+03  0.12500000000E+03 0.  0.
         21    1    1    2  503  504 -0.22324772268E+03 -0.29042687942E+02  0.33802768489E+03  0.40613512426E+03  0.00000000000E+00 0.  1.
         21    1    1    2  504  501 -0.15949465242E+02 -0.32234629459E+02  0.41199852587E+02  0.54688980893E+02  0.00000000000E+00 0.  1.
<mgrwt>
<rscale>  4 0.27675839E+03</rscale>
<asrwt>0</asrwt>
<pdfrwt beam="1">  1       21 0.13803200E+00 0.27675839E+03</pdfrwt>
<pdfrwt beam="2">  1       21 0.12450337E-01 0.27675839E+03</pdfrwt>
<totfact> 0.19436716E+04</totfact>
</mgrwt>
</event>
<event>
 5    0  0.2159162E+000  0.2486437E+03  0.7546771E-02  0.1114165E+00
         21   -1    0    0  502  501  0.00000000000E+00  0.00000000000E+00  0.14162458326E+04  0.14162458326E+04  0.00000000000E+00 0.  1.
         21   -1    0    0  503  502 -0.00000000000E+00 -0.00000000000E+00 -0.40402744397E+03  0.40402744397E+03  0.00000000000E+00 0.  1.
         25    1    1    2    0    0  0.17495397301E+03  0.12485909260E+03  0.13683887054E+04  0.13907952167E+04  0.12500000000E+03 0.  0.
         21    1    1    2  503  504 -0.51269533438E+02 -0.92100802367E+02 -0.11191858461E+03  0.15374294272E+03  0.00000000000E+00 0.  1.
         21    1    1    2  504  501 -0.12368443957E+03 -0.32758290230E+02 -0.24425173217E+03  0.27573511716E+03  0.00000000000E+00 0.  1.
<mgrwt>
<rscale>  4 0.24864369E+03</rscale>
<asrwt>0</asrwt>
<pdfrwt beam="1">  1       21 0.21788397E+00 0.24864369E+03</pdfrwt>
<pdfrwt beam="2">  1       21 0.62158069E-01 0.24864369E+03</pdfrwt>
<totfact> 0.23278216E+02</totfact>
</mgrwt>
</event>
<event>
 5    0  0.2159162E+000  0.2952601E+03  0.7546771E-02  0.1087634E+00
         21   -1    0    0  502  501  0.00000000000E+00  0.00000000000E+00  0.54560145944E+03  0.54560145944E+03  0.00000000000E+00 0. -1.
         21   -1    0    0  503  502 -0.00000000000E+00 -0.00000000000E+00 -0.83102719129E+03  0.83102719129E+03  0.00000000000E+00 0.  1.
         25    1    1    2    0    0 -0.11184717522E+03  0.28060403665E+03  0.43815141546E+03  0.54667182007E+03  0.12500000000E+03 0.  0.
         21    1    1    2  503  504  0.24350020390E+02 -0.29528552457E+02  0.17897764137E+02  0.42251495409E+02  0.00000000000E+00 0. -1.
         21    1    1    2  504  501  0.87497154826E+02 -0.25107548420E+03 -0.74147491145E+03  0.78770533525E+03  0.00000000000E+00 0.  1.
<mgrwt>
<rscale>  4 0.29526006E+03</rscale>
<asrwt>0</asrwt>
<pdfrwt beam="1">  1       21 0.83938686E-01 0.29526006E+03</pdfrwt>
<pdfrwt beam="2">  1       21 0.12785034E+00 0.29526006E+03</pdfrwt>
<totfact> 0.50673617E+02</totfact>
</mgrwt>
</event>
<event>
 5    0  0.3024843E+000  0.2268280E+03  0.7546771E-02  0.1128892E+00
         21   -1    0    0  502  501  0.00000000000E+00  0.00000000000E+00  0.39230243020E+03  0.39230243020E+03  0.00000000000E+00 0.  1.
         21   -1    0    0  503  502 -0.00000000000E+00 -0.00000000000E+00 -0.23170086695E+03  0.23170086695E+03  0.00000000000E+00 0.  1.
         25    1    1    2    0    0 -0.20065865932E+03  0.11255470980E+03  0.24528159267E+03  0.35877642058E+03  0.12500000000E+03 0.  0.
         21    1    1    2  503  504  0.35301572878E+02 -0.35848454542E+02  0.21007380809E+02  0.54521764362E+02  0.00000000000E+00 0.  1.
         21    1    1    2  504  501  0.16535708644E+03 -0.76706255262E+02 -0.10568741023E+03  0.21070511222E+03  0.00000000000E+00 0.  1.
<mgrwt>
<rscale>  4 0.22682801E+03</rscale>
<asrwt>0</asrwt>
<pdfrwt beam="1">  1       21 0.60354220E-01 0.22682801E+03</pdfrwt>
<pdfrwt beam="2">  1       21 0.35646287E-01 0.22682801E+03</pdfrwt>
<totfact> 0.19034148E+04</totfact>
</mgrwt>
</event>
<event>
 5    0  0.2159162E+000  0.2595026E+03  0.7546771E-02  0.1107442E+00
         21   -1    0    0  502  501  0.00000000000E+00  0.00000000000E+00  0.21646048132E+03  0.21646048132E+03  0.00000000000E+00 0.  1.
         21   -1    0    0  503  502 -0.00000000000E+00 -0.00000000000E+00 -0.54344699957E+03  0.54344699957E+03  0.00000000000E+00 0.  1.
         25    1    1    2    0    0  0.23884606420E+03 -0.54733887900E+02 -0.34234648104E+03  0.43916893555E+03  0.12500000000E+03 0.  0.
         21    1    1    2  503  504 -0.22126517399E+03  0.35437965134E+02  0.90138394636E+02  0.24153479414E+03  0.00000000000E+00 0.  1.
         21    1    1    2  504  501 -0.17580890214E+02  0.19295922767E+02 -0.74778431838E+02  0.79203751201E+02  0.00000000000E+00 0.  1.
<mgrwt>
<rscale>  4 0.25950259E+03</rscale>
<asrwt>0</asrwt>
<pdfrwt beam="1">  1       21 0.33301613E-01 0.25950259E+03</pdfrwt>
<pdfrwt beam="2">  1       21 0.83607231E-01 0.25950259E+03</pdfrwt>
<totfact> 0.10371631E+04</totfact>
</mgrwt>
</event>
<event>
 5    0  0.2159162E+000  0.2909995E+03  0.7546771E-02  0.1089828E+00
         21   -1    0    0  502  501  0.00000000000E+00  0.00000000000E+00  0.27467075107E+03  0.27467075107E+03  0.00000000000E+00 0.  1.
         21   -1    0    0  503  502 -0.00000000000E+00 -0.00000000000E+00 -0.38222233751E+03  0.38222233751E+03  0.00000000000E+00 0.  1.
         25    1    1    2    0    0  0.26117321561E+03 -0.29056205369E+02 -0.21578921910E+03  0.36227848225E+03  0.12500000000E+03 0.  0.
         21    1    1    2  503  504 -0.42916086653E+02  0.20794601893E+02  0.48857009866E+02  0.68273079428E+02  0.00000000000E+00 0.  1.
         21    1    1    2  504  501 -0.21825712896E+03  0.82616034755E+01  0.59380622798E+02  0.22634152690E+03  0.00000000000E+00 0.  1.
<mgrwt>
<rscale>  4 0.29099950E+03</rscale>
<asrwt>0</asrwt>
<pdfrwt beam="1">  1       21 0.42257039E-01 0.29099950E+03</pdfrwt>
<pdfrwt beam="2">  1       21 0.58803436E-01 0.29099950E+03</pdfrwt>
<totfact> 0.13826917E+04</totfact>
</mgrwt>
</event>
