<event>
 5    0  0.1609797E+000  0.2428710E+03  0.7546771E-02  0.1117895E+00
         21   -1    0    0  502  501  0.00000000000E+00  0.00000000000E+00  0.87069347677E+02  0.87069347677E+02  0.00000000000E+00 0. -1.
         21   -1    0    0  503  502 -0.00000000000E+00 -0.00000000000E+00 -0.83749053792E+03  0.83749053792E+03  0.00000000000E+00 0. -1.
         25    1    1    2    0    0  0.90131594463E+02  0.20597058597E+03 -0.38904253306E+03  0.46639755481E+03  0.12500000000E+03 0.  0.
         21    1    1    2  503  504 -0.68710196991E+02 -0.18557690224E+03 -0.37620578601E+03  0.42507725327E+03  0.00000000000E+00 0. -1.
         21    1    1    2  504  501 -0.21421397472E+02 -0.20393683730E+02  0.14827128823E+02  0.33085077525E+02  0.00000000000E+00 0. -1.
<mgrwt>
<rscale>  4 0.24287102E+03</rscale>
<asrwt>0</asrwt>
<pdfrwt beam="1">  1       21 0.13395284E-01 0.24287102E+03</pdfrwt>
<pdfrwt beam="2">  1       21 0.12884470E+00 0.24287102E+03</pdfrwt>
<totfact> 0.20665422E+04</totfact>
</mgrwt>
</event>
<event>
 5    0  0.1609797E+000  0.2853454E+03  0.7546771E-02  0.1092805E+00
         21   -1    0    0  502  501  0.00000000000E+00  0.00000000000E+00  0.19329965644E+04  0.19329965644E+04  0.00000000000E+00 0.  1.
         21   -1    0    0  503  502 -0.00000000000E+00 -0.00000000000E+00 -0.50173399479E+02  0.50173399479E+02  0.00000000000E+00 0.  1.
         25    1    1    2    0    0 -0.50694679051E+02 -0.22428289595E+03  0.10101668397E+04  0.10435203937E+04  0.12500000000E+03 0.  0.
         21    1    1    2  503  504  0.19166194310E+02 -0.46088500779E+02  0.31695716172E+03  0.32086342153E+03  0.00000000000E+00 0.  1.
         21    1    1    2  504  501  0.31528484741E+02  0.27037139673E+03  0.55569916344E+03  0.61878614866E+03  0.00000000000E+00 0.  1.
<mgrwt>
<rscale>  4 0.28534543E+03</rscale>
<asrwt>0</asrwt>
<pdfrwt beam="1">  1       21 0.29738403E+00 0.28534543E+03</pdfrwt>
<pdfrwt beam="2">  1       21 0.77189860E-02 0.28534543E+03</pdfrwt>
<totfact> 0.41277255E+03</totfact>
</mgrwt>
</event>
<event>
 5    0  0.1609797E+000  0.3199039E+03  0.7546771E-02  0.1075694E+00
         21   -1    0    0  502  501  0.00000000000E+00  0.00000000000E+00  0.42880104780E+03  0.42880104780E+03  0.00000000000E+00 0.  1.
         21   -1    0    0  503  502 -0.00000000000E+00 -0.00000000000E+00 -0.27119012983E+03  0.27119012983E+03  0.00000000000E+00 0. -1.
         25    1    1    2    0    0 -0.28448134201E+03 -0.76051803501E+02  0.20436402246E+03  0.37960922598E+03  0.12500000000E+03 0.  0.
         21    1    1    2  503  504  0.65694894377E+02  0.14113088129E+02 -0.63407617289E+02  0.92387901448E+02  0.00000000000E+00 0. -1.
         21    1    1    2  504  501  0.21878644764E+03  0.61938715372E+02  0.16654512800E+02  0.22799405020E+03  0.00000000000E+00 0. -1.
<mgrwt>
<rscale>  4 0.31990391E+03</rscale>
<asrwt>0</asrwt>
<pdfrwt beam="1">  1       21 0.65969392E-01 0.31990391E+03</pdfrwt>
<pdfrwt beam="2">  1       21 0.41721558E-01 0.31990391E+03</pdfrwt>
<totfact> 0.10903911E+04</totfact>
</mgrwt>
</event>
<event>
 5    0  0.1609797E+000  0.3552877E+03  0.7546771E-02  0.1060465E+00
         21   -1    0    0  502  501  0.00000000000E+00  0.00000000000E+00  0.14072172364E+04  0.14072172364E+04  0.00000000000E+00 0. -1.
         21   -1    0    0  503  502 -0.00000000000E+00 -0.00000000000E+00 -0.25773367101E+03  0.25773367101E+03  0.00000000000E+00 0.  1.
         25    1    1    2    0    0  0.11921626309E+03  0.31047032439E+03  0.12565180494E+04  0.13057821213E+04  0.12500000000E+03 0.  0.
         21    1    1    2  503  504 -0.49296639180E+02 -0.44820925298E+02 -0.77297070663E+01  0.67073261068E+02  0.00000000000E+00 0.  1.
         21    1    1    2  504  501 -0.69919623907E+02 -0.26564939910E+03 -0.99304776953E+02  0.29209552508E+03  0.00000000000E+00 0.  1.
<mgrwt>
<rscale>  4 0.35528769E+03</rscale>
<asrwt>0</asrwt>
<pdfrwt beam="1">  1       21 0.21649496E+00 0.35528769E+03</pdfrwt>
<pdfrwt beam="2">  1       21 0.39651335E-01 0.35528769E+03</pdfrwt>
<totfact> 0.56117064E+02</totfact>
</mgrwt>
</event>
<event>
 5    0  0.1609797E+000  0.3003102E+03  0.7546771E-02  0.1085086E+00
         21   -1    0    0  502  501  0.00000000000E+00  0.00000000000E+00  0.58992381193E+02  0.58992381193E+02  0.00000000000E+00 0. -1.
         21   -1    0    0  503  502 -0.00000000000E+00 -0.00000000000E+00 -0.16135491463E+04  0.16135491463E+04  0.00000000000E+00 0. -1.
         25    1    1    2    0    0 -0.17626499335E+03 -0.20854703106E+03 -0.52751337117E+03  0.60700623457E+03  0.12500000000E+03 0.  0.
         21    1    1    2  503  504  0.10308637501E+03  0.17197470624E+03 -0.77677116578E+03  0.80223160265E+03  0.00000000000E+00 0. -1.
         21    1    1    2  504  501  0.73178618336E+02  0.36572324828E+02 -0.25027222812E+03  0.26330369024E+03  0.00000000000E+00 0. -1.
<mgrwt>
<rscale>  4 0.30031019E+03</rscale>
<asrwt>0</asrwt>
<pdfrwt beam="1">  1       21 0.90757499E-02 0.30031019E+03</pdfrwt>
<pdfrwt beam="2">  1       21 0.24823836E+00 0.30031019E+03</pdfrwt>
<totfact> 0.60079739E+03</totfact>
</mgrwt>
</event>
<event>
 5    0  0.1609797E+000  0.2980744E+03  0.7546771E-02  0.1086207E+00
         21   -1    0    0  502  501  0.00000000000E+00  0.00000000000E+00  0.83451102094E+03  0.83451102094E+03  0.00000000000E+00 0. -1.
         21   -1    0    0  503  502 -0.00000000000E+00 -0.00000000000E+00 -0.10269530792E+03  0.10269530792E+03  0.00000000000E+00 0. -1.
         25    1    1    2    0    0  0.26806188854E+03  0.36962131321E+02  0.46089921693E+03  0.54888656697E+03  0.12500000000E+03 0.  0.
         21    1    1    2  503  504 -0.13653029401E+03 -0.51212858856E+02  0.13734228995E+03  0.20031520837E+03  0.00000000000E+00 0. -1.
         21    1    1    2  504  501 -0.13153159453E+03  0.14250727534E+02  0.13357420615E+03  0.18800455352E+03  0.00000000000E+00 0. -1.
<mgrwt>
<rscale>  4 0.29807445E+03</rscale>
<asrwt>0</asrwt>
<pdfrwt beam="1">  1       21 0.12838631E+00 0.29807445E+03</pdfrwt>
<pdfrwt beam="2">  1       21 0.15799279E-01 0.29807445E+03</pdfrwt>
<totfact> 0.15004798E+04</totfact>
</mgrwt>
</event>
<event>
 5    0  0.1609797E+000  0.2277537E+03  0.7546771E-02  0.1128231E+00
         21   -1    0    0  502  501  0.00000000000E+00  0.00000000000E+00  0.19572895483E+03  0.19572895483E+03  0.00000000000E+00 0.  1.
         21   -1    0    0  503  502 -0.00000000000E+00 -0.00000000000E+00 -0.38711394362E+03  0.38711394362E+03  0.00000000000E+00 0.  1.
         25    1    1    2    0    0 -0.13429914492E+03  0.16136609490E+03 -0.10930194028E+02  0.24458075568E+03  0.12500000000E+03 0.  0.
         21    1    1    2  503  504  0.59603639726E+02  0.91945489944E+01  0.21071958842E+02  0.63883965510E+02  0.00000000000E+00 0. -1.
         21    1    1    2  504  501  0.74695505196E+02 -0.17056064389E+03 -0.20152675361E+03  0.27437817727E+03  0.00000000000E+00 0.  1.
<mgrwt>
<rscale>  4 0.22775372E+03</rscale>
<asrwt>0</asrwt>
<pdfrwt beam="1">  1       21 0.30112147E-01 0.22775372E+03</pdfrwt>
<pdfrwt beam="2">  1       21 0.59555990E-01 0.22775372E+03</pdfrwt>
<totfact> 0.27331508E+04</totfact>
</mgrwt>
</event>
<event>
 5    0  0.1609797E+000  0.2527952E+03  0.7546771E-02  0.1111551E+00
         21   -1    0    0  502  501  0.00000000000E+00  0.00000000000E+00  0.18708252823E+03  0.18708252823E+03  0.00000000000E+00 0.  1.
         21   -1    0    0  503  502 -0.00000000000E+00 -0.00000000000E+00 -0.66660880056E+03  0.66660880056E+03  0.00000000000E+00 0.  1.
         25    1    1    2    0    0  0.26296528869E+03  0.63588935843E+02 -0.11272786240E+03  0.31863280870E+03  0.12500000000E+03 0.  0.
         21    1    1    2  503  504 -0.55758593814E+02 -0.46720010738E+02  0.36457163012E+02  0.81368943230E+02  0.00000000000E+00 0.  1.
         21    1    1    2  504  501 -0.20720669488E+03 -0.16868925105E+02 -0.40325557295E+03  0.45368957686E+03  0.00000000000E+00 0.  1.
<mgrwt>
<rscale>  4 0.25279517E+03</rscale>
<asrwt>0</asrwt>
<pdfrwt beam="1">  1       21 0.28781928E-01 0.25279517E+03</pdfrwt>
<pdfrwt beam="2">  1       21 0.10255520E+00 0.25279517E+03</pdfrwt>
<totfact> 0.85856806E+03</totfact>
</mgrwt>
</event>
<event>
 5    0  0.1609797E+000  0.2861060E+03  0.7546771E-02  0.1092730E+00
         21   -1    0    0  502  501  0.00000000000E+00  0.00000000000E+00  0.30467615893E+04  0.30467615893E+04  0.00000000000E+00 0.  1.
         21   -1    0    0  503  502 -0.00000000000E+00 -0.00000000000E+00 -0.33667532196E+02  0.33667532196E+02  0.00000000000E+00 0.  1.
         25    1    1    2    0    0  0.16636214010E+03 -0.19273787100E+03  0.22052923958E+04  0.22234576226E+04  0.12500000000E+03 0.  0.
         21    1    1    2  503  504 -0.77110547139E+02  0.17553386991E+03  0.60692540511E+03  0.63648772442E+03  0.00000000000E+00 0.  1.
         21    1    1    2  504  501 -0.89251592963E+02  0.17204001094E+02  0.20087625618E+03  0.22048377445E+03  0.00000000000E+00 0.  1.
<mgrwt>
<rscale>  4 0.28548641E+03</rscale>
<asrwt>0</asrwt>
<pdfrwt beam="1">  1       21 0.46873234E+00 0.28610597E+03</pdfrwt>
<pdfrwt beam="2">  1       21 0.51796227E-02 0.28610597E+03</pdfrwt>
<totfact> 0.69757524E+02</totfact>
</mgrwt>
</event>
<event>
 5    0  0.1609797E+000  0.2568917E+03  0.7546771E-02  0.1109025E+00
         21   -1    0    0  502  501  0.00000000000E+00  0.00000000000E+00  0.26587135717E+03  0.26587135717E+03  0.00000000000E+00 0. -1.
         21   -1    0    0  503  502 -0.00000000000E+00 -0.00000000000E+00 -0.37754110973E+03  0.37754110973E+03  0.00000000000E+00 0. -1.
         25    1    1    2    0    0  0.22566487205E+03  0.48684217836E+02  0.13051221811E+03  0.29317780718E+03  0.12500000000E+03 0.  0.
         21    1    1    2  503  504 -0.18170920554E+02 -0.28580330105E+02 -0.77474209431E+02  0.84553360369E+02  0.00000000000E+00 0. -1.
         21    1    1    2  504  501 -0.20749395150E+03 -0.20103887731E+02 -0.16470776124E+03  0.26568129935E+03  0.00000000000E+00 0. -1.
<mgrwt>
<rscale>  4 0.25689174E+03</rscale>
<asrwt>0</asrwt>
<pdfrwt beam="1">  1       21 0.40903286E-01 0.25689174E+03</pdfrwt>
<pdfrwt beam="2">  1       21 0.58083247E-01 0.25689174E+03</pdfrwt>
<totfact> 0.15421822E+04</totfact>
</mgrwt>
</event>
<event>
 5    0  0.1609797E+000  0.2465047E+03  0.7546771E-02  0.1115534E+00
         21   -1    0    0  502  501  0.00000000000E+00  0.00000000000E+00  0.68932589482E+03  0.68932589482E+03  0.00000000000E+00 0.  1.
         21   -1    0    0  503  502 -0.00000000000E+00 -0.00000000000E+00 -0.14523392735E+03  0.14523392735E+03  0.00000000000E+00 0. -1.
         25    1    1    2    0    0 -0.18728229410E+02 -0.21163366375E+03  0.56412315908E+03  0.61562934695E+03  0.12500000000E+03 0.  0.
         21    1    1    2  503  504  0.28412960667E+02  0.10776631653E+03  0.53217339619E+01  0.11157596589E+03  0.00000000000E+00 0.  1.
         21    1    1    2  504  501 -0.96847312577E+01  0.10386734722E+03 -0.25352925572E+02  0.10735450933E+03  0.00000000000E+00 0. -1.
<mgrwt>
<rscale>  4 0.24650467E+03</rscale>
<asrwt>0</asrwt>
<pdfrwt beam="1">  1       21 0.10605014E+00 0.24650467E+03</pdfrwt>
<pdfrwt beam="2">  1       21 0.22343681E-01 0.24650467E+03</pdfrwt>
<totfact> 0.12934380E+04</totfact>
</mgrwt>
</event>
<event>
 5    0  0.1609797E+000  0.2450196E+03  0.7546771E-02  0.1116493E+00
         21   -1    0    0  502  501  0.00000000000E+00  0.00000000000E+00  0.76484263265E+03  0.76484263265E+03  0.00000000000E+00 0. -1.
         21   -1    0    0  503  502 -0.00000000000E+00 -0.00000000000E+00 -0.16751332107E+03  0.16751332107E+03  0.00000000000E+00 0. -1.
         25    1    1    2    0    0  0.20914074153E+03 -0.25879545242E+02  0.65817768061E+03  0.70230510456E+03  0.12500000000E+03 0.  0.
         21    1    1    2  503  504 -0.12504376725E+03  0.46896885110E+02 -0.50388945181E+02  0.14273859800E+03  0.00000000000E+00 0. -1.
         21    1    1    2  504  501 -0.84096974274E+02 -0.21017339869E+02 -0.10459423853E+02  0.87312251171E+02  0.00000000000E+00 0. -1.
<mgrwt>
<rscale>  4 0.24501959E+03</rscale>
<asrwt>0</asrwt>
<pdfrwt beam="1">  1       21 0.11766809E+00 0.24501959E+03</pdfrwt>
<pdfrwt beam="2">  1       21 0.25771281E-01 0.24501959E+03</pdfrwt>
<totfact> 0.76421597E+03</totfact>
</mgrwt>
</event>
<event>
 5    0  0.1609797E+000  0.2738983E+03  0.7546771E-02  0.1099069E+00
         21   -1    0    0  502  501  0.00000000000E+00  0.00000000000E+00  0.90927552106E+03  0.90927552106E+03  0.00000000000E+00 0.  1.
         21   -1    0    0  503  502 -0.00000000000E+00 -0.00000000000E+00 -0.11619894304E+03  0.11619894304E+03  0.00000000000E+00 0. -1.
         25    1    1    2    0    0 -0.26316409155E+03  0.43272008754E+01  0.57510333875E+03  0.64470374126E+03  0.12500000000E+03 0.  0.
         21    1    1    2  503  504  0.21618982275E+03 -0.46344347822E+02  0.22725639494E+03  0.31706672338E+03  0.00000000000E+00 0. -1.
         21    1    1    2  504  501  0.46974268803E+02  0.42017146946E+02 -0.92831556691E+01  0.63703999453E+02  0.00000000000E+00 0. -1.
<mgrwt>
<rscale>  4 0.27389835E+03</rscale>
<asrwt>0</asrwt>
<pdfrwt beam="1">  1       21 0.13988854E+00 0.27389835E+03</pdfrwt>
<pdfrwt beam="2">  1       21 0.17876761E-01 0.27389835E+03</pdfrwt>
<totfact> 0.96771545E+03</totfact>
</mgrwt>
</event>
<event>
 5    0  0.1609797E+000  0.2426832E+03  0.7546771E-02  0.1118018E+00
         21   -1    0    0  502  501  0.00000000000E+00  0.00000000000E+00  0.12865037158E+04  0.12865037158E+04  0.00000000000E+00 0.  1.
         21   -1    0    0  503  502 -0.00000000000E+00 -0.00000000000E+00 -0.81037025477E+02  0.81037025477E+02  0.00000000000E+00 0. -1.
         25    1    1    2    0    0 -0.56725194881E+02  0.21483586903E+03  0.10239629051E+04  0.10552237817E+04  0.12500000000E+03 0.  0.
         21    1    1    2  503  504  0.45668233734E+02 -0.55346124311E+02  0.12237461339E+03  0.14186023774E+03  0.00000000000E+00 0. -1.
         21    1    1    2  504  501  0.11056961146E+02 -0.15948974472E+03  0.59129171768E+02  0.17045672182E+03  0.00000000000E+00 0. -1.
<mgrwt>
<rscale>  4 0.24268322E+03</rscale>
<asrwt>0</asrwt>
<pdfrwt beam="1">  1       21 0.19792363E+00 0.24268322E+03</pdfrwt>
<pdfrwt beam="2">  1       21 0.12467236E-01 0.24268322E+03</pdfrwt>
<totfact> 0.72905066E+03</totfact>
</mgrwt>
</event>
<event>
 5    0  0.1609797E+000  0.3226891E+03  0.7546771E-02  0.1074418E+00
         21   -1    0    0  502  501  0.00000000000E+00  0.00000000000E+00  0.25073752237E+03  0.25073752237E+03  0.00000000000E+00 0.  1.
         21   -1    0    0  503  502 -0.00000000000E+00 -0.00000000000E+00 -0.56586113829E+03  0.56586113829E+03  0.00000000000E+00 0.  1.
         25    1    1    2    0    0 -0.41500326588E+02 -0.30785184209E+03 -0.84884373316E+02  0.34543507439E+03  0.12500000000E+03 0.  0.
         21    1    1    2  503  504  0.14592629151E+03  0.25525557555E+03 -0.17005721753E+03  0.33966063746E+03  0.00000000000E+00 0.  1.
         21    1    1    2  504  501 -0.10442596492E+03  0.52596266538E+02 -0.60182025086E+02  0.13150294882E+03  0.00000000000E+00 0.  1.
<mgrwt>
<rscale>  4 0.32268914E+03</rscale>
<asrwt>0</asrwt>
<pdfrwt beam="1">  1       21 0.38575003E-01 0.32268914E+03</pdfrwt>
<pdfrwt beam="2">  1       21 0.87055560E-01 0.32268914E+03</pdfrwt>
<totfact> 0.68154228E+03</totfact>
</mgrwt>
</event>
<event>
 5    0  0.1609797E+000  0.2472692E+03  0.7546771E-02  0.1115043E+00
         21   -1    0    0  502  501  0.00000000000E+00  0.00000000000E+00  0.78861068016E+03  0.78861068016E+03  0.00000000000E+00 0. -1.
         21   -1    0    0  503  502 -0.00000000000E+00 -0.00000000000E+00 -0.73011592926E+02  0.73011592926E+02  0.00000000000E+00 0. -1.
         25    1    1    2    0    0  0.28980642489E+02 -0.21136977547E+03  0.27860673369E+03  0.37251009608E+03  0.12500000000E+03 0.  0.
         21    1    1    2  503  504 -0.90355438723E+01  0.14744632794E+03  0.24866334788E+03  0.28923264210E+03  0.00000000000E+00 0. -1.
         21    1    1    2  504  501 -0.19945098617E+02  0.63923447525E+02  0.18832900566E+03  0.19987953491E+03  0.00000000000E+00 0. -1.
<mgrwt>
<rscale>  4 0.24726920E+03</rscale>
<asrwt>0</asrwt>
<pdfrwt beam="1">  1       21 0.12132471E+00 0.24726920E+03</pdfrwt>
<pdfrwt beam="2">  1       21 0.11232553E-01 0.24726920E+03</pdfrwt>
<totfact> 0.32961137E+04</totfact>
</mgrwt>
</event>
<event>
 5    0  0.1609797E+000  0.2783177E+03  0.7546771E-02  0.1096611E+00
         21   -1    0    0  502  501  0.00000000000E+00  0.00000000000E+00  0.45856200759E+03  0.45856200759E+03  0.00000000000E+00 0. -1.
         21   -1    0    0  503  502 -0.00000000000E+00 -0.00000000000E+00 -0.52975769382E+03  0.52975769382E+03  0.00000000000E+00 0. -1.
         25    1    1    2    0    0  0.10817599048E+02 -0.24843257325E+03  0.37934812186E+03  0.47049523001E+03  0.12500000000E+03 0.  0.
         21    1    1    2  503  504 -0.20922156365E+02  0.35869831417E+02 -0.90952175291E+02  0.99983396736E+02  0.00000000000E+00 0. -1.
         21    1    1    2  504  501  0.10104557317E+02  0.21256274183E+03 -0.35959163281E+03  0.41784107466E+03  0.00000000000E+00 0. -1.
<mgrwt>
<rscale>  4 0.27831774E+03</rscale>
<asrwt>0</asrwt>
<pdfrwt beam="1">  1       21 0.70548001E-01 0.27831774E+03</pdfrwt>
<pdfrwt beam="2">  1       21 0.81501184E-01 0.27831774E+03</pdfrwt>
<totfact> 0.22522167E+03</totfact>
</mgrwt>
</event>
<event>
 5    0  0.1609797E+000  0.2414403E+03  0.7546771E-02  0.1118837E+00
         21   -1    0    0  502  501  0.00000000000E+00  0.00000000000E+00  0.14065321518E+04  0.14065321518E+04  0.00000000000E+00 0. -1.
         21   -1    0    0  503  502 -0.00000000000E+00 -0.00000000000E+00 -0.24730611349E+03  0.24730611349E+03  0.00000000000E+00 0. -1.
         25    1    1    2    0    0 -0.31255307262E+01  0.20653968689E+03  0.13475484412E+04  0.13690070170E+04  0.12500000000E+03 0.  0.
         21    1    1    2  503  504 -0.11199769246E+02 -0.17992568459E+03 -0.14183167721E+03  0.22937940506E+03  0.00000000000E+00 0. -1.
         21    1    1    2  504  501  0.14325299972E+02 -0.26614002304E+02 -0.46490725707E+02  0.55451843204E+02  0.00000000000E+00 0. -1.
<mgrwt>
<rscale>  4 0.24144028E+03</rscale>
<asrwt>0</asrwt>
<pdfrwt beam="1">  1       21 0.21638956E+00 0.24144028E+03</pdfrwt>
<pdfrwt beam="2">  1       21 0.38047095E-01 0.24144028E+03</pdfrwt>
<totfact> 0.66870437E+02</totfact>
</mgrwt>
</event>
<event>
 5    0  0.1609797E+000  0.2976246E+03  0.7546771E-02  0.1086434E+00
         21   -1    0    0  502  501  0.00000000000E+00  0.00000000000E+00  0.28482075904E+03  0.28482075904E+03  0.00000000000E+00 0.  1.
         21   -1    0    0  503  502 -0.00000000000E+00 -0.00000000000E+00 -0.45099774852E+03  0.45099774852E+03  0.00000000000E+00 0.  1.
         25    1    1    2    0    0  0.23212643515E+03  0.13152243445E+03  0.92023621326E+02  0.30866515764E+03  0.12500000000E+03 0.  0.
         21    1    1    2  503  504  0.17863537242E+02 -0.25874292570E+02  0.20978663514E+02  0.37798006582E+02  0.00000000000E+00 0.  1.
         21    1    1    2  504  501 -0.24998997239E+03 -0.10564814188E+03 -0.27917927432E+03  0.38935534334E+03  0.00000000000E+00 0.  1.
<mgrwt>
<rscale>  4 0.29762455E+03</rscale>
<asrwt>0</asrwt>
<pdfrwt beam="1">  1       21 0.43818578E-01 0.29762455E+03</pdfrwt>
<pdfrwt beam="2">  1       21 0.69384269E-01 0.29762455E+03</pdfrwt>
<totfact> 0.88981793E+03</totfact>
</mgrwt>
</event>
<event>
 5    0  0.1609797E+000  0.2758008E+03  0.7546771E-02  0.1098005E+00
         21   -1    0    0  502  501  0.00000000000E+00  0.00000000000E+00  0.10129526956E+04  0.10129526956E+04  0.00000000000E+00 0. -1.
         21   -1    0    0  503  502 -0.00000000000E+00 -0.00000000000E+00 -0.70636911798E+02  0.70636911798E+02  0.00000000000E+00 0. -1.
         25    1    1    2    0    0 -0.12838931384E+03 -0.20965982834E+03  0.48079077881E+03  0.55427956170E+03  0.12500000000E+03 0.  0.
         21    1    1    2  503  504  0.11512454773E+03  0.16389014443E+03  0.42304403545E+03  0.46805971506E+03  0.00000000000E+00 0. -1.
         21    1    1    2  504  501  0.13264766114E+02  0.45769683908E+02  0.38480969507E+02  0.61250330606E+02  0.00000000000E+00 0. -1.
<mgrwt>
<rscale>  4 0.27580076E+03</rscale>
<asrwt>0</asrwt>
<pdfrwt beam="1">  1       21 0.15583887E+00 0.27580076E+03</pdfrwt>
<pdfrwt beam="2">  1       21 0.10867218E-01 0.27580076E+03</pdfrwt>
<totfact> 0.18001913E+04</totfact>
</mgrwt>
</event>
<event>
 5    0  0.1609797E+000  0.2563863E+03  0.7546771E-02  0.1109334E+00
         21   -1    0    0  502  501  0.00000000000E+00  0.00000000000E+00  0.21609504604E+03  0.21609504604E+03  0.00000000000E+00 0.  1.
         21   -1    0    0  503  502 -0.00000000000E+00 -0.00000000000E+00 -0.52826270620E+03  0.52826270620E+03  0.00000000000E+00 0.  1.
         25    1    1    2    0    0  0.22317603075E+03  0.17361131123E+02  0.97645382453E+02  0.27435118059E+03  0.12500000000E+03 0.  0.
         21    1    1    2  503  504 -0.77398394759E+02 -0.26799914157E+02 -0.11759448328E+03  0.14330809261E+03  0.00000000000E+00 0.  1.
         21    1    1    2  504  501 -0.14577763600E+03  0.94387830339E+01 -0.29221855934E+03  0.32669847904E+03  0.00000000000E+00 0.  1.
<mgrwt>
<rscale>  4 0.25638633E+03</rscale>
<asrwt>0</asrwt>
<pdfrwt beam="1">  1       21 0.33245392E-01 0.25638633E+03</pdfrwt>
<pdfrwt beam="2">  1       21 0.81271184E-01 0.25638633E+03</pdfrwt>
<totfact> 0.11123081E+04</totfact>
</mgrwt>
</event>
<event>
 5    0  0.1609797E+000  0.2381058E+03  0.7546771E-02  0.1121061E+00
         21   -1    0    0  502  501  0.00000000000E+00  0.00000000000E+00  0.44995270708E+03  0.44995270708E+03  0.00000000000E+00 0.  1.
         21   -1    0    0  503  502 -0.00000000000E+00 -0.00000000000E+00 -0.11400389859E+03  0.11400389859E+03  0.00000000000E+00 0.  1.
         25    1    1    2    0    0 -0.19548480691E+03  0.53432930256E+02  0.21095872972E+03  0.31811628914E+03  0.12500000000E+03 0.  0.
         21    1    1    2  503  504  0.14562366085E+03 -0.56935587391E+02  0.11685205412E+03  0.19519814104E+03  0.00000000000E+00 0.  1.
         21    1    1    2  504  501  0.49861146059E+02  0.35026571348E+01  0.81380246557E+01  0.50642175493E+02  0.00000000000E+00 0.  1.
<mgrwt>
<rscale>  4 0.23810583E+03</rscale>
<asrwt>0</asrwt>
<pdfrwt beam="1">  1       21 0.69223492E-01 0.23810583E+03</pdfrwt>
<pdfrwt beam="2">  1       21 0.17539062E-01 0.23810583E+03</pdfrwt>
<totfact> 0.54794174E+04</totfact>
</mgrwt>
</event>
<event>
 5    0  0.1609797E+000  0.2564423E+03  0.7546771E-02  0.1109300E+00
         21   -1    0    0  502  501  0.00000000000E+00  0.00000000000E+00  0.78977433974E+03  0.78977433974E+03  0.00000000000E+00 0. -1.
         21   -1    0    0  503  502 -0.00000000000E+00 -0.00000000000E+00 -0.14652637240E+03  0.14652637240E+03  0.00000000000E+00 0.  1.
         25    1    1    2    0    0  0.18676282698E+03 -0.11964744058E+03  0.61153219009E+03  0.66241413262E+03  0.12500000000E+03 0.  0.
         21    1    1    2  503  504  0.27729571307E+02  0.23826650216E+02  0.10336620654E+02  0.37993211393E+02  0.00000000000E+00 0.  1.
         21    1    1    2  504  501 -0.21449239829E+03  0.95820790359E+02  0.21379156591E+02  0.23589336812E+03  0.00000000000E+00 0.  1.
<mgrwt>
<rscale>  4 0.25644233E+03</rscale>
<asrwt>0</asrwt>
<pdfrwt beam="1">  1       21 0.12150374E+00 0.25644233E+03</pdfrwt>
<pdfrwt beam="2">  1       21 0.22542519E-01 0.25644233E+03</pdfrwt>
<totfact> 0.90530819E+03</totfact>
</mgrwt>
</event>
<event>
 5    0  0.1609797E+000  0.3810793E+03  0.7546771E-02  0.1050536E+00
         21   -1    0    0  502  501  0.00000000000E+00  0.00000000000E+00  0.26475795642E+03  0.26475795642E+03  0.00000000000E+00 0. -1.
         21   -1    0    0  503  502 -0.00000000000E+00 -0.00000000000E+00 -0.57200299395E+03  0.57200299395E+03  0.00000000000E+00 0.  1.
         25    1    1    2    0    0  0.17827866084E+03 -0.31275094425E+03 -0.49687789590E+02  0.38430497066E+03  0.12500000000E+03 0.  0.
         21    1    1    2  503  504 -0.76136549081E+02  0.11139145316E+03 -0.44652224288E+02  0.14212195846E+03  0.00000000000E+00 0.  1.
         21    1    1    2  504  501 -0.10214211176E+03  0.20135949109E+03 -0.21290502365E+03  0.31033402124E+03  0.00000000000E+00 0.  1.
<mgrwt>
<rscale>  4 0.38107930E+03</rscale>
<asrwt>0</asrwt>
<pdfrwt beam="1">  1       21 0.40731994E-01 0.38107930E+03</pdfrwt>
<pdfrwt beam="2">  1       21 0.88000460E-01 0.38107930E+03</pdfrwt>
<totfact> 0.58024134E+03</totfact>
</mgrwt>
</event>
<event>
 5    0  0.1609797E+000  0.2812162E+03  0.7546771E-02  0.1095027E+00
         21   -1    0    0  502  501  0.00000000000E+00  0.00000000000E+00  0.11472904164E+03  0.11472904164E+03  0.00000000000E+00 0. -1.
         21   -1    0    0  503  502 -0.00000000000E+00 -0.00000000000E+00 -0.16266774916E+04  0.16266774916E+04  0.00000000000E+00 0. -1.
         25    1    1    2    0    0 -0.24160299750E+03 -0.57275432233E+02 -0.11233961302E+03  0.29982940515E+03  0.12500000000E+03 0.  0.
         21    1    1    2  503  504  0.27460485476E+03  0.53958413000E+01 -0.99056102203E+03  0.10279338888E+04  0.00000000000E+00 0. -1.
         21    1    1    2  504  501 -0.33001857261E+02  0.51879590933E+02 -0.40904781491E+03  0.41364323930E+03  0.00000000000E+00 0. -1.
<mgrwt>
<rscale>  4 0.28121620E+03</rscale>
<asrwt>0</asrwt>
<pdfrwt beam="1">  1       21 0.17650621E-01 0.28121620E+03</pdfrwt>
<pdfrwt beam="2">  1       21 0.25025809E+00 0.28121620E+03</pdfrwt>
<totfact> 0.17708532E+03</totfact>
</mgrwt>
</event>
<event>
 5    0  0.1609797E+000  0.2372841E+03  0.7546771E-02  0.1121615E+00
         21   -1    0    0  502  501  0.00000000000E+00  0.00000000000E+00  0.27173139305E+03  0.27173139305E+03  0.00000000000E+00 0.  1.
         21   -1    0    0  503  502 -0.00000000000E+00 -0.00000000000E+00 -0.67693160966E+03  0.67693160966E+03  0.00000000000E+00 0. -1.
         25    1    1    2    0    0 -0.19079422471E+03 -0.70760522066E+02  0.19024330599E+03  0.30533097311E+03  0.12500000000E+03 0.  0.
         21    1    1    2  503  504  0.18157451872E+03  0.37049216381E+02 -0.57194377251E+03  0.60121679051E+03  0.00000000000E+00 0. -1.
         21    1    1    2  504  501  0.92197059921E+01  0.33711305684E+02 -0.23499750095E+02  0.42115239095E+02  0.00000000000E+00 0.  1.
<mgrwt>
<rscale>  4 0.23728406E+03</rscale>
<asrwt>0</asrwt>
<pdfrwt beam="1">  1       21 0.41804830E-01 0.23728406E+03</pdfrwt>
<pdfrwt beam="2">  1       21 0.10414332E+00 0.23728406E+03</pdfrwt>
<totfact> 0.39665701E+03</totfact>
</mgrwt>
</event>
<event>
 5    0  0.1609797E+000  0.2570826E+03  0.7546771E-02  0.1108909E+00
         21   -1    0    0  502  501  0.00000000000E+00  0.00000000000E+00  0.13544162225E+03  0.13544162225E+03  0.00000000000E+00 0.  1.
         21   -1    0    0  503  502 -0.00000000000E+00 -0.00000000000E+00 -0.43506537157E+03  0.43506537157E+03  0.00000000000E+00 0.  1.
         25    1    1    2    0    0 -0.18422750675E+03 -0.12855612849E+03 -0.16862823436E+03  0.30745232775E+03  0.12500000000E+03 0.  0.
         21    1    1    2  503  504  0.39159426843E+02  0.27319244121E+02 -0.10138914755E+02  0.48811877678E+02  0.00000000000E+00 0. -1.
         21    1    1    2  504  501  0.14506807991E+03  0.10123688437E+03 -0.12085660021E+03  0.21424278839E+03  0.00000000000E+00 0.  1.
<mgrwt>
<rscale>  4 0.25708258E+03</rscale>
<asrwt>0</asrwt>
<pdfrwt beam="1">  1       21 0.20837172E-01 0.25708258E+03</pdfrwt>
<pdfrwt beam="2">  1       21 0.66933135E-01 0.25708258E+03</pdfrwt>
<totfact> 0.42429616E+04</totfact>
</mgrwt>
</event>
<event>
 5    0  0.1609797E+000  0.2434962E+03  0.7546771E-02  0.1117485E+00
         21   -1    0    0  502  501  0.00000000000E+00  0.00000000000E+00  0.36874331408E+03  0.36874331408E+03  0.00000000000E+00 0. -1.
         21   -1    0    0  503  502 -0.00000000000E+00 -0.00000000000E+00 -0.13146518287E+04  0.13146518287E+04  0.00000000000E+00 0.  1.
         25    1    1    2    0    0  0.13722789095E+03 -0.15758779278E+03  0.31801473605E+03  0.40052937324E+03  0.12500000000E+03 0.  0.
         21    1    1    2  503  504 -0.18937914627E+02  0.23704975659E+02 -0.37143582929E+03  0.37267297428E+03  0.00000000000E+00 0.  1.
         21    1    1    2  504  501 -0.11828997632E+03  0.13388281712E+03 -0.89248742134E+03  0.91019279522E+03  0.00000000000E+00 0.  1.
<mgrwt>
<rscale>  4 0.24349621E+03</rscale>
<asrwt>0</asrwt>
<pdfrwt beam="1">  1       21 0.56729741E-01 0.24349621E+03</pdfrwt>
<pdfrwt beam="2">  1       21 0.20225413E+00 0.24349621E+03</pdfrwt>
<totfact> 0.35807775E+02</totfact>
</mgrwt>
</event>
<event>
 5    0  0.1609797E+000  0.2767192E+03  0.7546771E-02  0.1097494E+00
         21   -1    0    0  502  501  0.00000000000E+00  0.00000000000E+00  0.17195242247E+03  0.17195242247E+03  0.00000000000E+00 0.  1.
         21   -1    0    0  503  502 -0.00000000000E+00 -0.00000000000E+00 -0.54940148653E+03  0.54940148653E+03  0.00000000000E+00 0.  1.
         25    1    1    2    0    0 -0.22003136200E+03 -0.11653030793E+03 -0.48840961573E+02  0.28284899232E+03  0.12500000000E+03 0.  0.
         21    1    1    2  503  504  0.18564933289E+02 -0.21662365986E+02 -0.99745488280E+02  0.10374525185E+03  0.00000000000E+00 0.  1.
         21    1    1    2  504  501  0.20146642871E+03  0.13819267391E+03 -0.22886261420E+03  0.33475966484E+03  0.00000000000E+00 0.  1.
<mgrwt>
<rscale>  4 0.27671924E+03</rscale>
<asrwt>0</asrwt>
<pdfrwt beam="1">  1       21 0.26454219E-01 0.27671924E+03</pdfrwt>
<pdfrwt beam="2">  1       21 0.84523305E-01 0.27671924E+03</pdfrwt>
<totfact> 0.15753802E+04</totfact>
</mgrwt>
</event>
<event>
 5    0  0.1609797E+000  0.2537285E+03  0.7546771E-02  0.1110971E+00
         21   -1    0    0  502  501  0.00000000000E+00  0.00000000000E+00  0.13630693268E+03  0.13630693268E+03  0.00000000000E+00 0. -1.
         21   -1    0    0  503  502 -0.00000000000E+00 -0.00000000000E+00 -0.50276873578E+03  0.50276873578E+03  0.00000000000E+00 0. -1.
         25    1    1    2    0    0 -0.10409460326E+03  0.19346177213E+03 -0.85438000677E+02  0.26681041146E+03  0.12500000000E+03 0.  0.
         21    1    1    2  503  504  0.87216732295E+02 -0.20551998559E+03 -0.25344890052E+03  0.33775963057E+03  0.00000000000E+00 0. -1.
         21    1    1    2  504  501  0.16877870965E+02  0.12058213455E+02 -0.27574901906E+02  0.34505626428E+02  0.00000000000E+00 0. -1.
<mgrwt>
<rscale>  4 0.25372852E+03</rscale>
<asrwt>0</asrwt>
<pdfrwt beam="1">  1       21 0.20970298E-01 0.25372852E+03</pdfrwt>
<pdfrwt beam="2">  1       21 0.77349035E-01 0.25372852E+03</pdfrwt>
<totfact> 0.30396898E+04</totfact>
</mgrwt>
</event>
<event>
 5    0  0.1609797E+000  0.2657055E+03  0.7546771E-02  0.1103763E+00
         21   -1    0    0  502  501  0.00000000000E+00  0.00000000000E+00  0.37133516679E+03  0.37133516679E+03  0.00000000000E+00 0.  1.
         21   -1    0    0  503  502 -0.00000000000E+00 -0.00000000000E+00 -0.17274344779E+03  0.17274344779E+03  0.00000000000E+00 0.  1.
         25    1    1    2    0    0 -0.18046121691E+03 -0.14969364321E+03  0.91040917266E+02  0.28086987422E+03  0.12500000000E+03 0.  0.
         21    1    1    2  503  504  0.29712802236E+02  0.11820531261E+02 -0.75249516454E+00  0.31986588205E+02  0.00000000000E+00 0.  1.
         21    1    1    2  504  501  0.15074841468E+03  0.13787311195E+03  0.10830329690E+03  0.23122215215E+03  0.00000000000E+00 0.  1.
<mgrwt>
<rscale>  4 0.26570555E+03</rscale>
<asrwt>0</asrwt>
<pdfrwt beam="1">  1       21 0.57128487E-01 0.26570555E+03</pdfrwt>
<pdfrwt beam="2">  1       21 0.26575915E-01 0.26570555E+03</pdfrwt>
<totfact> 0.37485122E+04</totfact>
</mgrwt>
</event>
<event>
 5    0  0.1609797E+000  0.2491648E+03  0.7546771E-02  0.1113834E+00
         21   -1    0    0  502  501  0.00000000000E+00  0.00000000000E+00  0.35691144458E+03  0.35691144458E+03  0.00000000000E+00 0.  1.
         21   -1    0    0  503  502 -0.00000000000E+00 -0.00000000000E+00 -0.16313930307E+03  0.16313930307E+03  0.00000000000E+00 0.  1.
         25    1    1    2    0    0  0.21411615176E+03 -0.24746105083E+02  0.15832893747E+03  0.29521373377E+03  0.12500000000E+03 0.  0.
         21    1    1    2  503  504 -0.16643543452E+03 -0.13714051644E+01  0.16460698040E+02  0.16725306932E+03  0.00000000000E+00 0.  1.
         21    1    1    2  504  501 -0.47680717243E+02  0.26117510247E+02  0.18982505995E+02  0.57583944569E+02  0.00000000000E+00 0.  1.
<mgrwt>
<rscale>  4 0.24916480E+03</rscale>
<asrwt>0</asrwt>
<pdfrwt beam="1">  1       21 0.54909453E-01 0.24916480E+03</pdfrwt>
<pdfrwt beam="2">  1       21 0.25098354E-01 0.24916480E+03</pdfrwt>
<totfact> 0.45858911E+04</totfact>
</mgrwt>
</event>
<event>
 5    0  0.1609797E+000  0.2456900E+03  0.7546771E-02  0.1116059E+00
         21   -1    0    0  502  501  0.00000000000E+00  0.00000000000E+00  0.16264505946E+04  0.16264505946E+04  0.00000000000E+00 0.  1.
         21   -1    0    0  503  502 -0.00000000000E+00 -0.00000000000E+00 -0.38590520125E+02  0.38590520125E+02  0.00000000000E+00 0. -1.
         25    1    1    2    0    0  0.60423298923E+02  0.20270082498E+03  0.11248868066E+04  0.11514051968E+04  0.12500000000E+03 0.  0.
         21    1    1    2  503  504 -0.43291661571E+02 -0.41493709162E+02  0.13823431124E+03  0.15068052517E+03  0.00000000000E+00 0.  1.
         21    1    1    2  504  501 -0.17131637352E+02 -0.16120711582E+03  0.32473895664E+03  0.36295539278E+03  0.00000000000E+00 0. -1.
<mgrwt>
<rscale>  4 0.24569005E+03</rscale>
<asrwt>0</asrwt>
<pdfrwt beam="1">  1       21 0.25022312E+00 0.24569005E+03</pdfrwt>
<pdfrwt beam="2">  1       21 0.59370044E-02 0.24569005E+03</pdfrwt>
<totfact> 0.12732689E+04</totfact>
</mgrwt>
</event>
<event>
 5    0  0.1609797E+000  0.2550603E+03  0.7546771E-02  0.1110148E+00
         21   -1    0    0  502  501  0.00000000000E+00  0.00000000000E+00  0.29555414292E+03  0.29555414292E+03  0.00000000000E+00 0.  1.
         21   -1    0    0  503  502 -0.00000000000E+00 -0.00000000000E+00 -0.20410665916E+03  0.20410665916E+03  0.00000000000E+00 0.  1.
         25    1    1    2    0    0  0.20578658120E+03  0.84158487406E+02  0.39346980830E+02  0.25807741649E+03  0.12500000000E+03 0.  0.
         21    1    1    2  503  504 -0.14547288912E+03 -0.90575390894E+02  0.18813112727E+02  0.17239546431E+03  0.00000000000E+00 0.  1.
         21    1    1    2  504  501 -0.60313692080E+02  0.64169034888E+01  0.33287390206E+02  0.69187921268E+02  0.00000000000E+00 0.  1.
<mgrwt>
<rscale>  4 0.25506032E+03</rscale>
<asrwt>0</asrwt>
<pdfrwt beam="1">  1       21 0.45469868E-01 0.25506032E+03</pdfrwt>
<pdfrwt beam="2">  1       21 0.31401025E-01 0.25506032E+03</pdfrwt>
<totfact> 0.43950300E+04</totfact>
</mgrwt>
</event>
<event>
 5    0  0.1609797E+000  0.3799761E+03  0.7546771E-02  0.1050943E+00
         21   -1    0    0  502  501  0.00000000000E+00  0.00000000000E+00  0.75669850842E+03  0.75669850842E+03  0.00000000000E+00 0.  1.
         21   -1    0    0  503  502 -0.00000000000E+00 -0.00000000000E+00 -0.70812899106E+03  0.70812899106E+03  0.00000000000E+00 0. -1.
         25    1    1    2    0    0  0.11243795071E+03  0.34313668525E+03  0.61895167045E+03  0.72740033536E+03  0.12500000000E+03 0.  0.
         21    1    1    2  503  504 -0.20639198608E+03 -0.28493160199E+03 -0.47712554372E+03  0.59281738689E+03  0.00000000000E+00 0. -1.
         21    1    1    2  504  501  0.93954035368E+02 -0.58205083265E+02 -0.93256609376E+02  0.14460977724E+03  0.00000000000E+00 0. -1.
<mgrwt>
<rscale>  4 0.37997608E+03</rscale>
<asrwt>0</asrwt>
<pdfrwt beam="1">  1       21 0.11641516E+00 0.37997608E+03</pdfrwt>
<pdfrwt beam="2">  1       21 0.10894292E+00 0.37997608E+03</pdfrwt>
<totfact> 0.32651592E+02</totfact>
</mgrwt>
</event>
<event>
 5    0  0.1609797E+000  0.3240149E+03  0.7546771E-02  0.1073816E+00
         21   -1    0    0  502  501  0.00000000000E+00  0.00000000000E+00  0.53776031949E+03  0.53776031949E+03  0.00000000000E+00 0.  1.
         21   -1    0    0  503  502 -0.00000000000E+00 -0.00000000000E+00 -0.40063237364E+03  0.40063237364E+03  0.00000000000E+00 0. -1.
         25    1    1    2    0    0  0.28394289061E+03 -0.20695710884E+03  0.33006442076E+03  0.49801840516E+03  0.12500000000E+03 0.  0.
         21    1    1    2  503  504 -0.42233610798E+02  0.46635973649E+02  0.34532451356E+02  0.71771039534E+02  0.00000000000E+00 0. -1.
         21    1    1    2  504  501 -0.24170927982E+03  0.16032113520E+03 -0.22746892627E+03  0.36860324843E+03  0.00000000000E+00 0. -1.
<mgrwt>
<rscale>  4 0.32401488E+03</rscale>
<asrwt>0</asrwt>
<pdfrwt beam="1">  1       21 0.82732357E-01 0.32401488E+03</pdfrwt>
<pdfrwt beam="2">  1       21 0.61635750E-01 0.32401488E+03</pdfrwt>
<totfact> 0.28572147E+03</totfact>
</mgrwt>
</event>
<event>
 5    0  0.1609797E+000  0.3628041E+03  0.7546771E-02  0.1057479E+00
         21   -1    0    0  502  501  0.00000000000E+00  0.00000000000E+00  0.74485172153E+03  0.74485172153E+03  0.00000000000E+00 0. -1.
         21   -1    0    0  503  502 -0.00000000000E+00 -0.00000000000E+00 -0.21218366941E+03  0.21218366941E+03  0.00000000000E+00 0. -1.
         25    1    1    2    0    0  0.21798079131E+03  0.26169861892E+03  0.48440013200E+03  0.60520267713E+03  0.12500000000E+03 0.  0.
         21    1    1    2  503  504 -0.30818319656E+01 -0.28193246769E+02  0.16727270766E+02  0.32926561298E+02  0.00000000000E+00 0.  1.
         21    1    1    2  504  501 -0.21489895934E+03 -0.23350537215E+03  0.31540649346E+02  0.31890615251E+03  0.00000000000E+00 0. -1.
<mgrwt>
<rscale>  4 0.36280407E+03</rscale>
<asrwt>0</asrwt>
<pdfrwt beam="1">  1       21 0.11459257E+00 0.36280407E+03</pdfrwt>
<pdfrwt beam="2">  1       21 0.32643642E-01 0.36280407E+03</pdfrwt>
<totfact> 0.48340966E+03</totfact>
</mgrwt>
</event>
<event>
 5    0  0.1609797E+000  0.2431074E+03  0.7546771E-02  0.1117740E+00
         21   -1    0    0  502  501  0.00000000000E+00  0.00000000000E+00  0.13863546847E+04  0.13863546847E+04  0.00000000000E+00 0.  1.
         21   -1    0    0  503  502 -0.00000000000E+00 -0.00000000000E+00 -0.26416159268E+03  0.26416159268E+03  0.00000000000E+00 0. -1.
         25    1    1    2    0    0 -0.20372306221E+03 -0.44419857223E+02  0.13256023877E+04  0.13477102433E+04  0.12500000000E+03 0.  0.
         21    1    1    2  503  504  0.73948512628E+02  0.57663232860E+02 -0.89331887858E+02  0.12951299986E+03  0.00000000000E+00 0.  1.
         21    1    1    2  504  501  0.12977454958E+03 -0.13243375637E+02 -0.11407740782E+03  0.17329303417E+03  0.00000000000E+00 0. -1.
<mgrwt>
<rscale>  4 0.24310740E+03</rscale>
<asrwt>0</asrwt>
<pdfrwt beam="1">  1       21 0.21328533E+00 0.24310740E+03</pdfrwt>
<pdfrwt beam="2">  1       21 0.40640246E-01 0.24310740E+03</pdfrwt>
<totfact> 0.61093559E+02</totfact>
</mgrwt>
</event>
<event>
 5    0  0.1609797E+000  0.2536910E+03  0.7546771E-02  0.1110994E+00
         21   -1    0    0  502  501  0.00000000000E+00  0.00000000000E+00  0.64694652084E+02  0.64694652084E+02  0.00000000000E+00 0. -1.
         21   -1    0    0  503  502 -0.00000000000E+00 -0.00000000000E+00 -0.10157124674E+04  0.10157124674E+04  0.00000000000E+00 0. -1.
         25    1    1    2    0    0 -0.84191290848E+02  0.20407337301E+03 -0.34206164094E+03  0.42587002856E+03  0.12500000000E+03 0.  0.
         21    1    1    2  503  504  0.49441437214E+02 -0.12409241023E+03 -0.23276452804E+03  0.26837046690E+03  0.00000000000E+00 0. -1.
         21    1    1    2  504  501  0.34749853634E+02 -0.79980962776E+02 -0.37619164634E+03  0.38616662403E+03  0.00000000000E+00 0. -1.
<mgrwt>
<rscale>  4 0.25369098E+03</rscale>
<asrwt>0</asrwt>
<pdfrwt beam="1">  1       21 0.99530236E-02 0.25369098E+03</pdfrwt>
<pdfrwt beam="2">  1       21 0.15626345E+00 0.25369098E+03</pdfrwt>
<totfact> 0.21144191E+04</totfact>
</mgrwt>
</event>
<event>
 5    0  0.1609797E+000  0.3029373E+03  0.7546771E-02  0.1083781E+00
         21   -1    0    0  502  501  0.00000000000E+00  0.00000000000E+00  0.14890835460E+03  0.14890835460E+03  0.00000000000E+00 0. -1.
         21   -1    0    0  503  502 -0.00000000000E+00 -0.00000000000E+00 -0.75556355793E+03  0.75556355793E+03  0.00000000000E+00 0. -1.
         25    1    1    2    0    0  0.19488465218E+03 -0.20644281999E+03 -0.11818215802E+03  0.33194982762E+03  0.12500000000E+03 0.  0.
         21    1    1    2  503  504 -0.16460356580E+03  0.20288572182E+03 -0.38987912962E+03  0.46932151635E+03  0.00000000000E+00 0. -1.
         21    1    1    2  504  501 -0.30281086378E+02  0.35570981686E+01 -0.98593915696E+02  0.10320056856E+03  0.00000000000E+00 0. -1.
<mgrwt>
<rscale>  4 0.30293733E+03</rscale>
<asrwt>0</asrwt>
<pdfrwt beam="1">  1       21 0.22908978E-01 0.30293733E+03</pdfrwt>
<pdfrwt beam="2">  1       21 0.11624055E+00 0.30293733E+03</pdfrwt>
<totfact> 0.95721478E+03</totfact>
</mgrwt>
</event>
<event>
 5    0  0.1609797E+000  0.3004680E+03  0.7546771E-02  0.1085007E+00
         21   -1    0    0  502  501  0.00000000000E+00  0.00000000000E+00  0.20600852118E+04  0.20600852118E+04  0.00000000000E+00 0.  1.
         21   -1    0    0  503  502 -0.00000000000E+00 -0.00000000000E+00 -0.13268192830E+03  0.13268192830E+03  0.00000000000E+00 0. -1.
         25    1    1    2    0    0 -0.22976807370E+03 -0.14199313132E+03  0.18184546649E+04  0.18426496643E+04  0.12500000000E+03 0.  0.
         21    1    1    2  503  504  0.25826235811E+03  0.15416854127E+03  0.10633392901E+03  0.31902082878E+03  0.00000000000E+00 0. -1.
         21    1    1    2  504  501 -0.28494284408E+02 -0.12175409951E+02  0.26146895355E+01  0.31096646970E+02  0.00000000000E+00 0. -1.
<mgrwt>
<rscale>  4 0.30046801E+03</rscale>
<asrwt>0</asrwt>
<pdfrwt beam="1">  1       21 0.31693616E+00 0.30046801E+03</pdfrwt>
<pdfrwt beam="2">  1       21 0.20412606E-01 0.30046801E+03</pdfrwt>
<totfact> 0.53487058E+02</totfact>
</mgrwt>
</event>
<event>
 5    0  0.1609797E+000  0.2696224E+03  0.7546771E-02  0.1101496E+00
         21   -1    0    0  502  501  0.00000000000E+00  0.00000000000E+00  0.52911133882E+03  0.52911133882E+03  0.00000000000E+00 0.  1.
         21   -1    0    0  503  502 -0.00000000000E+00 -0.00000000000E+00 -0.15418898961E+03  0.15418898961E+03  0.00000000000E+00 0. -1.
         25    1    1    2    0    0 -0.39525638629E+02 -0.23560344244E+03  0.34690527547E+03  0.43936263877E+03  0.12500000000E+03 0.  0.
         21    1    1    2  503  504  0.30899062040E+01  0.39579030716E+02  0.19857743128E+02  0.44388930545E+02  0.00000000000E+00 0. -1.
         21    1    1    2  504  501  0.36435732425E+02  0.19602441172E+03  0.81593306118E+01  0.19954875911E+03  0.00000000000E+00 0. -1.
<mgrwt>
<rscale>  4 0.26962244E+03</rscale>
<asrwt>0</asrwt>
<pdfrwt beam="1">  1       21 0.81401743E-01 0.26962244E+03</pdfrwt>
<pdfrwt beam="2">  1       21 0.23721383E-01 0.26962244E+03</pdfrwt>
<totfact> 0.21258044E+04</totfact>
</mgrwt>
</event>
<event>
 5    0  0.1609797E+000  0.3143141E+03  0.7546771E-02  0.1078296E+00
         21   -1    0    0  502  501  0.00000000000E+00  0.00000000000E+00  0.26931894570E+03  0.26931894570E+03  0.00000000000E+00 0.  1.
         21   -1    0    0  503  502 -0.00000000000E+00 -0.00000000000E+00 -0.66962420877E+03  0.66962420877E+03  0.00000000000E+00 0.  1.
         25    1    1    2    0    0  0.13890194656E+03 -0.26275348483E+03  0.10028278474E+03  0.33766074907E+03  0.12500000000E+03 0.  0.
         21    1    1    2  503  504  0.40150051760E+01  0.42556544765E+02 -0.18937496627E+03  0.19413927376E+03  0.00000000000E+00 0.  1.
         21    1    1    2  504  501 -0.14291695174E+03  0.22019694006E+03 -0.31121308155E+03  0.40714313163E+03  0.00000000000E+00 0.  1.
<mgrwt>
<rscale>  4 0.31431410E+03</rscale>
<asrwt>0</asrwt>
<pdfrwt beam="1">  1       21 0.41433684E-01 0.31431410E+03</pdfrwt>
<pdfrwt beam="2">  1       21 0.10301911E+00 0.31431410E+03</pdfrwt>
<totfact> 0.39632810E+03</totfact>
</mgrwt>
</event>
<event>
 5    0  0.1609797E+000  0.3040579E+03  0.7546771E-02  0.1083230E+00
         21   -1    0    0  502  501  0.00000000000E+00  0.00000000000E+00  0.28512692351E+03  0.28512692351E+03  0.00000000000E+00 0.  1.
         21   -1    0    0  503  502 -0.00000000000E+00 -0.00000000000E+00 -0.48316060534E+03  0.48316060534E+03  0.00000000000E+00 0. -1.
         25    1    1    2    0    0 -0.24537770291E+03 -0.12890312486E+03  0.12569430918E+03  0.32901412135E+03  0.12500000000E+03 0.  0.
         21    1    1    2  503  504  0.42929364447E+02  0.49842422896E+02 -0.26173237615E+02  0.70797145558E+02  0.00000000000E+00 0. -1.
         21    1    1    2  504  501  0.20244833847E+03  0.79060701968E+02 -0.29755475340E+03  0.36847626194E+03  0.00000000000E+00 0. -1.
<mgrwt>
<rscale>  4 0.30405794E+03</rscale>
<asrwt>0</asrwt>
<pdfrwt beam="1">  1       21 0.43865681E-01 0.30405794E+03</pdfrwt>
<pdfrwt beam="2">  1       21 0.74332401E-01 0.30405794E+03</pdfrwt>
<totfact> 0.75857280E+03</totfact>
</mgrwt>
</event>
<event>
 5    0  0.1609797E+000  0.2679504E+03  0.7546771E-02  0.1102458E+00
         21   -1    0    0  502  501  0.00000000000E+00  0.00000000000E+00  0.13330044939E+03  0.13330044939E+03  0.00000000000E+00 0. -1.
         21   -1    0    0  503  502 -0.00000000000E+00 -0.00000000000E+00 -0.75970810316E+03  0.75970810316E+03  0.00000000000E+00 0. -1.
         25    1    1    2    0    0  0.14564429503E+03  0.18697637784E+03 -0.60244097486E+02  0.27463935957E+03  0.12500000000E+03 0.  0.
         21    1    1    2  503  504 -0.31651064237E+02 -0.69165085751E+01 -0.11377395980E+03  0.11829683802E+03  0.00000000000E+00 0. -1.
         21    1    1    2  504  501 -0.11399323079E+03 -0.18005986927E+03 -0.45238959649E+03  0.50007235496E+03  0.00000000000E+00 0. -1.
<mgrwt>
<rscale>  4 0.26795042E+03</rscale>
<asrwt>0</asrwt>
<pdfrwt beam="1">  1       21 0.20507762E-01 0.26795042E+03</pdfrwt>
<pdfrwt beam="2">  1       21 0.11687817E+00 0.26795042E+03</pdfrwt>
<totfact> 0.11856384E+04</totfact>
</mgrwt>
</event>
<event>
 5    0  0.1609797E+000  0.2468549E+03  0.7546771E-02  0.1115309E+00
         21   -1    0    0  502  501  0.00000000000E+00  0.00000000000E+00  0.60408560607E+03  0.60408560607E+03  0.00000000000E+00 0.  1.
         21   -1    0    0  503  502 -0.00000000000E+00 -0.00000000000E+00 -0.10963379753E+03  0.10963379753E+03  0.00000000000E+00 0.  1.
         25    1    1    2    0    0  0.80607819921E+02  0.21131951318E+03  0.32124045007E+03  0.41227901238E+03  0.12500000000E+03 0.  0.
         21    1    1    2  503  504 -0.49053855994E+02 -0.20098254279E+03  0.12130734227E+03  0.23982438280E+03  0.00000000000E+00 0.  1.
         21    1    1    2  504  501 -0.31553963927E+02 -0.10336970391E+02  0.51904016198E+02  0.61616008422E+02  0.00000000000E+00 0.  1.
<mgrwt>
<rscale>  4 0.24685489E+03</rscale>
<asrwt>0</asrwt>
<pdfrwt beam="1">  1       21 0.92936245E-01 0.24685489E+03</pdfrwt>
<pdfrwt beam="2">  1       21 0.16866738E-01 0.24685489E+03</pdfrwt>
<totfact> 0.30006338E+04</totfact>
</mgrwt>
</event>
<event>
 5    0  0.1609797E+000  0.1940227E+03  0.7546771E-02  0.1154882E+00
         21   -1    0    0  502  501  0.00000000000E+00  0.00000000000E+00  0.25915462762E+03  0.25915462762E+03  0.00000000000E+00 0.  1.
         21   -1    0    0  503  502 -0.00000000000E+00 -0.00000000000E+00 -0.27925638025E+03  0.27925638025E+03  0.00000000000E+00 0.  1.
         25    1    1    2    0    0  0.93126255433E+02  0.21013756195E+03 -0.19745237839E+02  0.26238362908E+03  0.12500000000E+03 0.  0.
         21    1    1    2  503  504 -0.83727790098E+01 -0.11442139799E+03 -0.65954068235E+02  0.13233404272E+03  0.00000000000E+00 0.  1.
         21    1    1    2  504  501 -0.84753476423E+02 -0.95716163964E+02  0.65597553444E+02  0.14369333606E+03  0.00000000000E+00 0.  1.
<mgrwt>
<rscale>  4 0.19402266E+03</rscale>
<asrwt>0</asrwt>
<pdfrwt beam="1">  1       21 0.39869942E-01 0.19402266E+03</pdfrwt>
<pdfrwt beam="2">  1       21 0.42962520E-01 0.19402266E+03</pdfrwt>
<totfact> 0.31568668E+04</totfact>
</mgrwt>
</event>
<event>
 5    0  0.1609797E+000  0.3097223E+03  0.7546771E-02  0.1080479E+00
         21   -1    0    0  502  501  0.00000000000E+00  0.00000000000E+00  0.97393207978E+03  0.97393207978E+03  0.00000000000E+00 0. -1.
         21   -1    0    0  503  502 -0.00000000000E+00 -0.00000000000E+00 -0.37729188822E+03  0.37729188822E+03  0.00000000000E+00 0.  1.
         25    1    1    2    0    0  0.27885719852E+03  0.50413756135E+02  0.88991858509E+03  0.94227542262E+03  0.12500000000E+03 0.  0.
         21    1    1    2  503  504 -0.25879435708E+03 -0.43351927605E+02 -0.25959381469E+03  0.36911090137E+03  0.00000000000E+00 0.  1.
         21    1    1    2  504  501 -0.20062841439E+02 -0.70618285300E+01 -0.33684578851E+02  0.39837644021E+02  0.00000000000E+00 0.  1.
<mgrwt>
<rscale>  4 0.30972227E+03</rscale>
<asrwt>0</asrwt>
<pdfrwt beam="1">  1       21 0.14983570E+00 0.30972227E+03</pdfrwt>
<pdfrwt beam="2">  1       21 0.58044906E-01 0.30972227E+03</pdfrwt>
<totfact> 0.75473982E+02</totfact>
</mgrwt>
</event>
<event>
 5    0  0.1609797E+000  0.2014933E+03  0.7546771E-02  0.1148485E+00
         21   -1    0    0  502  501  0.00000000000E+00  0.00000000000E+00  0.95989298508E+03  0.95989298508E+03  0.00000000000E+00 0. -1.
         21   -1    0    0  503  502 -0.00000000000E+00 -0.00000000000E+00 -0.66532370645E+02  0.66532370645E+02  0.00000000000E+00 0. -1.
         25    1    1    2    0    0 -0.55860584467E+02  0.20551317156E+03  0.46045600086E+03  0.52249478209E+03  0.12500000000E+03 0.  0.
         21    1    1    2  503  504  0.63920188321E+02 -0.12534846811E+03  0.13380507300E+03  0.19416958179E+03  0.00000000000E+00 0. -1.
         21    1    1    2  504  501 -0.80596038535E+01 -0.80164703451E+02  0.29909954058E+03  0.30976099184E+03  0.00000000000E+00 0. -1.
<mgrwt>
<rscale>  4 0.20149331E+03</rscale>
<asrwt>0</asrwt>
<pdfrwt beam="1">  1       21 0.14767583E+00 0.20149331E+03</pdfrwt>
<pdfrwt beam="2">  1       21 0.10235750E-01 0.20149331E+03</pdfrwt>
<totfact> 0.24111012E+04</totfact>
</mgrwt>
</event>
<event>
 5    0  0.1609797E+000  0.2677606E+03  0.7546771E-02  0.1102568E+00
         21   -1    0    0  502  501  0.00000000000E+00  0.00000000000E+00  0.34614979646E+03  0.34614979646E+03  0.00000000000E+00 0. -1.
         21   -1    0    0  503  502 -0.00000000000E+00 -0.00000000000E+00 -0.31708739927E+03  0.31708739927E+03  0.00000000000E+00 0. -1.
         25    1    1    2    0    0  0.14412076940E+03 -0.18788280673E+03  0.22349069536E+03  0.34877476421E+03  0.12500000000E+03 0.  0.
         21    1    1    2  503  504 -0.10947504298E+03  0.16249354640E+03 -0.18704870220E+03  0.27088033272E+03  0.00000000000E+00 0. -1.
         21    1    1    2  504  501 -0.34645726421E+02  0.25389260327E+02 -0.73795959644E+01  0.43582098800E+02  0.00000000000E+00 0. -1.
<mgrwt>
<rscale>  4 0.26776061E+03</rscale>
<asrwt>0</asrwt>
<pdfrwt beam="1">  1       21 0.53253815E-01 0.26776061E+03</pdfrwt>
<pdfrwt beam="2">  1       21 0.48782677E-01 0.26776061E+03</pdfrwt>
<totfact> 0.12828852E+04</totfact>
</mgrwt>
</event>
<event>
 5    0  0.1609797E+000  0.2617655E+03  0.7546771E-02  0.1106087E+00
         21   -1    0    0  502  501  0.00000000000E+00  0.00000000000E+00  0.99120127926E+03  0.99120127926E+03  0.00000000000E+00 0.  1.
         21   -1    0    0  503  502 -0.00000000000E+00 -0.00000000000E+00 -0.10917601850E+03  0.10917601850E+03  0.00000000000E+00 0.  1.
         25    1    1    2    0    0 -0.46607096137E+02 -0.22521979452E+03  0.81071422771E+03  0.85192648524E+03  0.12500000000E+03 0.  0.
         21    1    1    2  503  504  0.30607777690E+02  0.46727738917E+02  0.34021180979E+02  0.65404574722E+02  0.00000000000E+00 0.  1.
         21    1    1    2  504  501  0.15999318447E+02  0.17849205560E+03  0.37289852065E+02  0.18304623779E+03  0.00000000000E+00 0.  1.
<mgrwt>
<rscale>  4 0.26176550E+03</rscale>
<asrwt>0</asrwt>
<pdfrwt beam="1">  1       21 0.15249250E+00 0.26176550E+03</pdfrwt>
<pdfrwt beam="2">  1       21 0.16796311E-01 0.26176550E+03</pdfrwt>
<totfact> 0.87070429E+03</totfact>
</mgrwt>
</event>
<event>
 5    0  0.1609797E+000  0.2539259E+03  0.7546771E-02  0.1110849E+00
         21   -1    0    0  502  501  0.00000000000E+00  0.00000000000E+00  0.20249696641E+04  0.20249696641E+04  0.00000000000E+00 0. -1.
         21   -1    0    0  503  502 -0.00000000000E+00 -0.00000000000E+00 -0.18591342150E+03  0.18591342150E+03  0.00000000000E+00 0. -1.
         25    1    1    2    0    0 -0.21836370487E+03 -0.34214623553E+02  0.19328508509E+04  0.19494590942E+04  0.12500000000E+03 0.  0.
         21    1    1    2  503  504  0.78559532168E+02  0.54678642794E+02 -0.68946534535E+02  0.11796176794E+03  0.00000000000E+00 0. -1.
         21    1    1    2  504  501  0.13980417270E+03 -0.20464019240E+02 -0.24848073775E+02  0.14346222345E+03  0.00000000000E+00 0. -1.
<mgrwt>
<rscale>  4 0.25392587E+03</rscale>
<asrwt>0</asrwt>
<pdfrwt beam="1">  1       21 0.31153378E+00 0.25392587E+03</pdfrwt>
<pdfrwt beam="2">  1       21 0.28602066E-01 0.25392587E+03</pdfrwt>
<totfact> 0.31586241E+02</totfact>
</mgrwt>
</event>
<event>
 5    0  0.1609797E+000  0.2980649E+03  0.7546771E-02  0.1086212E+00
         21   -1    0    0  502  501  0.00000000000E+00  0.00000000000E+00  0.63492481474E+03  0.63492481474E+03  0.00000000000E+00 0.  1.
         21   -1    0    0  503  502 -0.00000000000E+00 -0.00000000000E+00 -0.13149280757E+04  0.13149280757E+04  0.00000000000E+00 0. -1.
         25    1    1    2    0    0  0.59817624344E+02 -0.27664023345E+03  0.55583748367E+03  0.63615114179E+03  0.12500000000E+03 0.  0.
         21    1    1    2  503  504 -0.11045702930E+02  0.19319858579E+03 -0.21887650284E+03  0.29215513790E+03  0.00000000000E+00 0.  1.
         21    1    1    2  504  501 -0.48771921414E+02  0.83441647652E+02 -0.10169642418E+04  0.10215466107E+04  0.00000000000E+00 0. -1.
<mgrwt>
<rscale>  4 0.29806490E+03</rscale>
<asrwt>0</asrwt>
<pdfrwt beam="1">  1       21 0.97680742E-01 0.29806490E+03</pdfrwt>
<pdfrwt beam="2">  1       21 0.20229662E+00 0.29806490E+03</pdfrwt>
<totfact> 0.99794324E+01</totfact>
</mgrwt>
</event>
<event>
 5    0  0.1609797E+000  0.2656806E+03  0.7546771E-02  0.1103777E+00
         21   -1    0    0  502  501  0.00000000000E+00  0.00000000000E+00  0.97902773349E+02  0.97902773349E+02  0.00000000000E+00 0.  1.
         21   -1    0    0  503  502 -0.00000000000E+00 -0.00000000000E+00 -0.66046440477E+03  0.66046440477E+03  0.00000000000E+00 0. -1.
         25    1    1    2    0    0  0.22856464012E+03 -0.52147949850E+02 -0.23840134185E+03  0.35696134690E+03  0.12500000000E+03 0.  0.
         21    1    1    2  503  504 -0.21150683117E+03  0.39124355711E+02 -0.29911674119E+03  0.36842459160E+03  0.00000000000E+00 0. -1.
         21    1    1    2  504  501 -0.17057808953E+02  0.13023594139E+02 -0.25043548383E+02  0.32981239609E+02  0.00000000000E+00 0. -1.
<mgrwt>
<rscale>  4 0.26568064E+03</rscale>
<asrwt>0</asrwt>
<pdfrwt beam="1">  1       21 0.15061966E-01 0.26568064E+03</pdfrwt>
<pdfrwt beam="2">  1       21 0.10160990E+00 0.26568064E+03</pdfrwt>
<totfact> 0.29653309E+04</totfact>
</mgrwt>
</event>
<event>
 5    0  0.1609797E+000  0.2377804E+03  0.7546771E-02  0.1121280E+00
         21   -1    0    0  502  501  0.00000000000E+00  0.00000000000E+00  0.20974473178E+03  0.20974473178E+03  0.00000000000E+00 0.  1.
         21   -1    0    0  503  502 -0.00000000000E+00 -0.00000000000E+00 -0.28805670289E+03  0.28805670289E+03  0.00000000000E+00 0.  1.
         25    1    1    2    0    0 -0.16647215654E+03 -0.13269867381E+03 -0.11391789620E+03  0.27189005868E+03  0.12500000000E+03 0.  0.
         21    1    1    2  503  504  0.14555536622E+03  0.13433951052E+03  0.44681646694E+02  0.20305151630E+03  0.00000000000E+00 0.  1.
         21    1    1    2  504  501  0.20916790324E+02 -0.16408367074E+01 -0.90757216037E+01  0.22859859693E+02  0.00000000000E+00 0.  1.
<mgrwt>
<rscale>  4 0.23778044E+03</rscale>
<asrwt>0</asrwt>
<pdfrwt beam="1">  1       21 0.32268420E-01 0.23778044E+03</pdfrwt>
<pdfrwt beam="2">  1       21 0.44316416E-01 0.23778044E+03</pdfrwt>
<totfact> 0.44231478E+04</totfact>
</mgrwt>
</event>
<event>
 5    0  0.1609797E+000  0.2551288E+03  0.7546771E-02  0.1110106E+00
         21   -1    0    0  502  501  0.00000000000E+00  0.00000000000E+00  0.84443772417E+03  0.84443772417E+03  0.00000000000E+00 0. -1.
         21   -1    0    0  503  502 -0.00000000000E+00 -0.00000000000E+00 -0.97536321902E+02  0.97536321902E+02  0.00000000000E+00 0. -1.
         25    1    1    2    0    0  0.21505462505E+03 -0.94312447024E+02  0.18947756835E+03  0.32660385535E+03  0.12500000000E+03 0.  0.
         21    1    1    2  503  504 -0.16620852801E+03  0.11899713403E+03  0.41040898777E+03  0.45849877855E+03  0.00000000000E+00 0. -1.
         21    1    1    2  504  501 -0.48846097045E+02 -0.24684687005E+02  0.14701484614E+03  0.15687141216E+03  0.00000000000E+00 0.  1.
<mgrwt>
<rscale>  4 0.25512876E+03</rscale>
<asrwt>0</asrwt>
<pdfrwt beam="1">  1       21 0.12991349E+00 0.25512876E+03</pdfrwt>
<pdfrwt beam="2">  1       21 0.15005589E-01 0.25512876E+03</pdfrwt>
<totfact> 0.16346048E+04</totfact>
</mgrwt>
</event>
<event>
 5    0  0.1609797E+000  0.2601351E+03  0.7546771E-02  0.1107062E+00
         21   -1    0    0  502  501  0.00000000000E+00  0.00000000000E+00  0.24124979527E+04  0.24124979527E+04  0.00000000000E+00 0. -1.
         21   -1    0    0  503  502 -0.00000000000E+00 -0.00000000000E+00 -0.11245699584E+03  0.11245699584E+03  0.00000000000E+00 0. -1.
         25    1    1    2    0    0 -0.21358146116E+03  0.89757297376E+02  0.22483113349E+04  0.22636700890E+04  0.12500000000E+03 0.  0.
         21    1    1    2  503  504  0.56147087774E+02  0.18848540298E+02  0.36156942227E+02  0.69390830865E+02  0.00000000000E+00 0. -1.
         21    1    1    2  504  501  0.15743437338E+03 -0.10860583767E+03  0.15572679713E+02  0.19189402871E+03  0.00000000000E+00 0. -1.
<mgrwt>
<rscale>  4 0.26013513E+03</rscale>
<asrwt>0</asrwt>
<pdfrwt beam="1">  1       21 0.37115349E+00 0.26013513E+03</pdfrwt>
<pdfrwt beam="2">  1       21 0.17301078E-01 0.26013513E+03</pdfrwt>
<totfact> 0.35983113E+02</totfact>
</mgrwt>
</event>
<event>
 5    0  0.1609797E+000  0.2294043E+03  0.7546771E-02  0.1127060E+00
         21   -1    0    0  502  501  0.00000000000E+00  0.00000000000E+00  0.81884886162E+02  0.81884886162E+02  0.00000000000E+00 0.  1.
         21   -1    0    0  503  502 -0.00000000000E+00 -0.00000000000E+00 -0.10904996420E+04  0.10904996420E+04  0.00000000000E+00 0.  1.
         25    1    1    2    0    0 -0.26762684007E+02  0.19936557360E+03 -0.14071741901E+03  0.27548006317E+03  0.12500000000E+03 0.  0.
         21    1    1    2  503  504  0.39176105687E+02 -0.36525451316E+02 -0.12042484577E+03  0.13179916285E+03  0.00000000000E+00 0.  1.
         21    1    1    2  504  501 -0.12413421680E+02 -0.16284012229E+03 -0.74747249109E+03  0.76510530216E+03  0.00000000000E+00 0.  1.
<mgrwt>
<rscale>  4 0.22940432E+03</rscale>
<asrwt>0</asrwt>
<pdfrwt beam="1">  1       21 0.12597676E-01 0.22940432E+03</pdfrwt>
<pdfrwt beam="2">  1       21 0.16776917E+00 0.22940432E+03</pdfrwt>
<totfact> 0.11587592E+04</totfact>
</mgrwt>
</event>
<event>
 5    0  0.1609797E+000  0.2584623E+03  0.7546771E-02  0.1108071E+00
         21   -1    0    0  502  501  0.00000000000E+00  0.00000000000E+00  0.85857594645E+03  0.85857594645E+03  0.00000000000E+00 0.  1.
         21   -1    0    0  503  502 -0.00000000000E+00 -0.00000000000E+00 -0.23667472395E+03  0.23667472395E+03  0.00000000000E+00 0.  1.
         25    1    1    2    0    0  0.19775268338E+03 -0.12193338668E+03  0.75681032159E+03  0.80147410278E+03  0.12500000000E+03 0.  0.
         21    1    1    2  503  504 -0.15714176252E+03  0.76730432240E+02 -0.15085708179E+03  0.23095227187E+03  0.00000000000E+00 0.  1.
         21    1    1    2  504  501 -0.40610920868E+02  0.45202954436E+02  0.15947982695E+02  0.62824295742E+02  0.00000000000E+00 0. -1.
<mgrwt>
<rscale>  4 0.25846233E+03</rscale>
<asrwt>0</asrwt>
<pdfrwt beam="1">  1       21 0.13208861E+00 0.25846233E+03</pdfrwt>
<pdfrwt beam="2">  1       21 0.36411496E-01 0.25846233E+03</pdfrwt>
<totfact> 0.28683568E+03</totfact>
</mgrwt>
</event>
<event>
 5    0  0.1609797E+000  0.2400894E+03  0.7546771E-02  0.1119733E+00
         21   -1    0    0  502  501  0.00000000000E+00  0.00000000000E+00  0.25207022742E+03  0.25207022742E+03  0.00000000000E+00 0. -1.
         21   -1    0    0  503  502 -0.00000000000E+00 -0.00000000000E+00 -0.21634382529E+03  0.21634382529E+03  0.00000000000E+00 0. -1.
         25    1    1    2    0    0 -0.16257360333E+03 -0.12485096628E+03  0.71351939217E+02  0.25046764164E+03  0.12500000000E+03 0.  0.
         21    1    1    2  503  504  0.86225944944E+02  0.31185484313E+02 -0.31787953832E+02  0.97045978908E+02  0.00000000000E+00 0.  1.
         21    1    1    2  504  501  0.76347658383E+02  0.93665481963E+02 -0.38375832512E+01  0.12090043216E+03  0.00000000000E+00 0. -1.
<mgrwt>
<rscale>  4 0.24008944E+03</rscale>
<asrwt>0</asrwt>
<pdfrwt beam="1">  1       21 0.38780035E-01 0.24008944E+03</pdfrwt>
<pdfrwt beam="2">  1       21 0.33283665E-01 0.24008944E+03</pdfrwt>
<totfact> 0.54573828E+04</totfact>
</mgrwt>
</event>
<event>
 5    0  0.1609797E+000  0.2788787E+03  0.7546771E-02  0.1096303E+00
         21   -1    0    0  502  501  0.00000000000E+00  0.00000000000E+00  0.31303145690E+03  0.31303145690E+03  0.00000000000E+00 0.  1.
         21   -1    0    0  503  502 -0.00000000000E+00 -0.00000000000E+00 -0.13373157025E+04  0.13373157025E+04  0.00000000000E+00 0.  1.
         25    1    1    2    0    0 -0.20584371172E+03 -0.14062972377E+03  0.23545979635E+03  0.36498584707E+03  0.12500000000E+03 0.  0.
         21    1    1    2  503  504  0.60178264919E+02  0.53817617953E+02 -0.53411219789E+03  0.54017922906E+03  0.00000000000E+00 0.  1.
         21    1    1    2  504  501  0.14566544681E+03  0.86812105821E+02 -0.72563184404E+03  0.74518208325E+03  0.00000000000E+00 0.  1.
<mgrwt>
<rscale>  4 0.27887874E+03</rscale>
<asrwt>0</asrwt>
<pdfrwt beam="1">  1       21 0.48158686E-01 0.27887874E+03</pdfrwt>
<pdfrwt beam="2">  1       21 0.20574088E+00 0.27887874E+03</pdfrwt>
<totfact> 0.46527763E+02</totfact>
</mgrwt>
</event>
<event>
 5    0  0.1609797E+000  0.3451410E+03  0.7546771E-02  0.1064627E+00
         21   -1    0    0  502  501  0.00000000000E+00  0.00000000000E+00  0.61115386019E+03  0.61115386019E+03  0.00000000000E+00 0.  1.
         21   -1    0    0  503  502 -0.00000000000E+00 -0.00000000000E+00 -0.19290665562E+03  0.19290665562E+03  0.00000000000E+00 0.  1.
         25    1    1    2    0    0  0.14541972836E+03 -0.28696765086E+03  0.27377525859E+03  0.44053969430E+03  0.12500000000E+03 0.  0.
         21    1    1    2  503  504 -0.66762376600E+02  0.52966301855E+02  0.52402501005E+02  0.10004332148E+03  0.00000000000E+00 0.  1.
         21    1    1    2  504  501 -0.78657351758E+02  0.23400134900E+03  0.92069444980E+02  0.26347750003E+03  0.00000000000E+00 0.  1.
<mgrwt>
<rscale>  4 0.34514103E+03</rscale>
<asrwt>0</asrwt>
<pdfrwt beam="1">  1       21 0.94023670E-01 0.34514103E+03</pdfrwt>
<pdfrwt beam="2">  1       21 0.29677947E-01 0.34514103E+03</pdfrwt>
<totfact> 0.95217906E+03</totfact>
</mgrwt>
</event>
<event>
 5    0  0.1609797E+000  0.3930506E+03  0.7546771E-02  0.1046213E+00
         21   -1    0    0  502  501  0.00000000000E+00  0.00000000000E+00  0.53288116601E+03  0.53288116601E+03  0.00000000000E+00 0.  1.
         21   -1    0    0  503  502 -0.00000000000E+00 -0.00000000000E+00 -0.13330304934E+04  0.13330304934E+04  0.00000000000E+00 0. -1.
         25    1    1    2    0    0 -0.47374389644E+02 -0.37088655454E+03  0.41109407400E+03  0.56958274799E+03  0.12500000000E+03 0.  0.
         21    1    1    2  503  504  0.56698000934E+02  0.13448833946E+02 -0.37411604591E+02  0.69247112593E+02  0.00000000000E+00 0. -1.
         21    1    1    2  504  501 -0.93236112899E+01  0.35743772059E+03 -0.11738317968E+04  0.12270817988E+04  0.00000000000E+00 0. -1.
<mgrwt>
<rscale>  4 0.39305060E+03</rscale>
<asrwt>0</asrwt>
<pdfrwt beam="1">  1       21 0.81981718E-01 0.39305060E+03</pdfrwt>
<pdfrwt beam="2">  1       21 0.20508161E+00 0.39305060E+03</pdfrwt>
<totfact> 0.13423467E+02</totfact>
</mgrwt>
</event>
<event>
 5    0  0.1609797E+000  0.2602778E+03  0.7546771E-02  0.1106976E+00
         21   -1    0    0  502  501  0.00000000000E+00  0.00000000000E+00  0.97854231222E+02  0.97854231222E+02  0.00000000000E+00 0.  1.
         21   -1    0    0  503  502 -0.00000000000E+00 -0.00000000000E+00 -0.18400015982E+04  0.18400015982E+04  0.00000000000E+00 0.  1.
         25    1    1    2    0    0  0.12599760624E+02  0.22794910828E+03 -0.10023757308E+03  0.27891238946E+03  0.12500000000E+03 0.  0.
         21    1    1    2  503  504 -0.13010916442E+01 -0.33323387363E+02 -0.11826618459E+03  0.12287811605E+03  0.00000000000E+00 0.  1.
         21    1    1    2  504  501 -0.11298668980E+02 -0.19462572092E+03 -0.15236436093E+04  0.15360653239E+04  0.00000000000E+00 0.  1.
<mgrwt>
<rscale>  4 0.26027783E+03</rscale>
<asrwt>0</asrwt>
<pdfrwt beam="1">  1       21 0.15054498E-01 0.26027783E+03</pdfrwt>
<pdfrwt beam="2">  1       21 0.28307716E+00 0.26027783E+03</pdfrwt>
<totfact> 0.15472097E+03</totfact>
</mgrwt>
</event>
<event>
 5    0  0.1609797E+000  0.2574270E+03  0.7546771E-02  0.1108699E+00
         21   -1    0    0  502  501  0.00000000000E+00  0.00000000000E+00  0.62537224869E+02  0.62537224869E+02  0.00000000000E+00 0. -1.
         21   -1    0    0  503  502 -0.00000000000E+00 -0.00000000000E+00 -0.12321314678E+04  0.12321314678E+04  0.00000000000E+00 0. -1.
         25    1    1    2    0    0 -0.23896413969E+03  0.83356503725E+01 -0.49706432779E+03  0.56557164806E+03  0.12500000000E+03 0.  0.
         21    1    1    2  503  504  0.21183925456E+02 -0.22164229188E+02 -0.11112629414E+02  0.32611382763E+02  0.00000000000E+00 0. -1.
         21    1    1    2  504  501  0.21778021423E+03  0.13828578815E+02 -0.66141728573E+03  0.69648566186E+03  0.00000000000E+00 0. -1.
<mgrwt>
<rscale>  4 0.25742702E+03</rscale>
<asrwt>0</asrwt>
<pdfrwt beam="1">  1       21 0.96211116E-02 0.25742702E+03</pdfrwt>
<pdfrwt beam="2">  1       21 0.18955869E+00 0.25742702E+03</pdfrwt>
<totfact> 0.13034679E+04</totfact>
</mgrwt>
</event>
<event>
 5    0  0.1609797E+000  0.2397032E+03  0.7546771E-02  0.1119991E+00
         21   -1    0    0  502  501  0.00000000000E+00  0.00000000000E+00  0.67994206521E+02  0.67994206521E+02  0.00000000000E+00 0.  1.
         21   -1    0    0  503  502 -0.00000000000E+00 -0.00000000000E+00 -0.12176834303E+04  0.12176834303E+04  0.00000000000E+00 0.  1.
         25    1    1    2    0    0 -0.21798910888E+03  0.86839265430E+02 -0.45182033710E+03  0.52423937913E+03  0.12500000000E+03 0.  0.
         21    1    1    2  503  504  0.19106771113E+03 -0.34918423623E+02 -0.66820122184E+03  0.69585849094E+03  0.00000000000E+00 0.  1.
         21    1    1    2  504  501  0.26921397748E+02 -0.51920841807E+02 -0.29667664843E+02  0.65579766757E+02  0.00000000000E+00 0.  1.
<mgrwt>
<rscale>  4 0.23970315E+03</rscale>
<asrwt>0</asrwt>
<pdfrwt beam="1">  1       21 0.10460648E-01 0.23970315E+03</pdfrwt>
<pdfrwt beam="2">  1       21 0.18733589E+00 0.23970315E+03</pdfrwt>
<totfact> 0.11756061E+04</totfact>
</mgrwt>
</event>
<event>
 5    0  0.1609797E+000  0.2589230E+03  0.7546771E-02  0.1107792E+00
         21   -1    0    0  502  501  0.00000000000E+00  0.00000000000E+00  0.15316928784E+04  0.15316928784E+04  0.00000000000E+00 0.  1.
         21   -1    0    0  503  502 -0.00000000000E+00 -0.00000000000E+00 -0.79202123209E+02  0.79202123209E+02  0.00000000000E+00 0.  1.
         25    1    1    2    0    0 -0.18510861555E+03 -0.13096158670E+03  0.13134237722E+04  0.13387020363E+04  0.12500000000E+03 0.  0.
         21    1    1    2  503  504  0.49355645166E+02  0.28614433815E+02  0.81783140057E+01  0.57633760525E+02  0.00000000000E+00 0.  1.
         21    1    1    2  504  501  0.13575297039E+03  0.10234715288E+03  0.13088866900E+03  0.21455920476E+03  0.00000000000E+00 0.  1.
<mgrwt>
<rscale>  4 0.25892303E+03</rscale>
<asrwt>0</asrwt>
<pdfrwt beam="1">  1       21 0.23564504E+00 0.25892303E+03</pdfrwt>
<pdfrwt beam="2">  1       21 0.12184943E-01 0.25892303E+03</pdfrwt>
<totfact> 0.43537973E+03</totfact>
</mgrwt>
</event>
<event>
 5    0  0.1609797E+000  0.2684548E+03  0.7546771E-02  0.1102167E+00
         21   -1    0    0  502  501  0.00000000000E+00  0.00000000000E+00  0.64487012975E+02  0.64487012975E+02  0.00000000000E+00 0.  1.
         21   -1    0    0  503  502 -0.00000000000E+00 -0.00000000000E+00 -0.10982528461E+04  0.10982528461E+04  0.00000000000E+00 0.  1.
         25    1    1    2    0    0 -0.17044811781E+03  0.16550050897E+03 -0.37966260140E+03  0.46498566670E+03  0.12500000000E+03 0.  0.
         21    1    1    2  503  504  0.15925061243E+02 -0.19164932837E+02 -0.12490768878E+03  0.12736888530E+03  0.00000000000E+00 0.  1.
         21    1    1    2  504  501  0.15452305657E+03 -0.14633557613E+03 -0.52919554293E+03  0.57038530706E+03  0.00000000000E+00 0.  1.
<mgrwt>
<rscale>  4 0.26845480E+03</rscale>
<asrwt>0</asrwt>
<pdfrwt beam="1">  1       21 0.99210784E-02 0.26845480E+03</pdfrwt>
<pdfrwt beam="2">  1       21 0.16896199E+00 0.26845480E+03</pdfrwt>
<totfact> 0.17025881E+04</totfact>
</mgrwt>
</event>
<event>
 5    0  0.1609797E+000  0.3608533E+03  0.7546771E-02  0.1058246E+00
         21   -1    0    0  502  501  0.00000000000E+00  0.00000000000E+00  0.72820267670E+03  0.72820267670E+03  0.00000000000E+00 0. -1.
         21   -1    0    0  503  502 -0.00000000000E+00 -0.00000000000E+00 -0.79762626173E+03  0.79762626173E+03  0.00000000000E+00 0.  1.
         25    1    1    2    0    0  0.10818193709E+03 -0.32169207684E+03  0.62005283043E+03  0.71782981015E+03  0.12500000000E+03 0.  0.
         21    1    1    2  503  504  0.68636131339E+02  0.35163711094E+02 -0.19577775987E+03  0.21041942962E+03  0.00000000000E+00 0.  1.
         21    1    1    2  504  501 -0.17681806843E+03  0.28652836575E+03 -0.49369865559E+03  0.59757969865E+03  0.00000000000E+00 0.  1.
<mgrwt>
<rscale>  4 0.36085333E+03</rscale>
<asrwt>0</asrwt>
<pdfrwt beam="1">  1       21 0.11203118E+00 0.36085333E+03</pdfrwt>
<pdfrwt beam="2">  1       21 0.12271173E+00 0.36085333E+03</pdfrwt>
<totfact> 0.26989188E+02</totfact>
</mgrwt>
</event>
<event>
 5    0  0.1609797E+000  0.2681163E+03  0.7546771E-02  0.1102363E+00
         21   -1    0    0  502  501  0.00000000000E+00  0.00000000000E+00  0.23692197548E+03  0.23692197548E+03  0.00000000000E+00 0. -1.
         21   -1    0    0  503  502 -0.00000000000E+00 -0.00000000000E+00 -0.87519606730E+03  0.87519606730E+03  0.00000000000E+00 0.  1.
         25    1    1    2    0    0 -0.18340325455E+03 -0.15041476554E+03  0.13480158895E+03  0.30009635762E+03  0.12500000000E+03 0.  0.
         21    1    1    2  503  504  0.13311046069E+03  0.11838229387E+03 -0.66654927578E+03  0.68994253332E+03  0.00000000000E+00 0.  1.
         21    1    1    2  504  501  0.50292793857E+02  0.32032471673E+02 -0.10652640499E+03  0.12207915185E+03  0.00000000000E+00 0.  1.
<mgrwt>
<rscale>  4 0.26811631E+03</rscale>
<asrwt>0</asrwt>
<pdfrwt beam="1">  1       21 0.36449535E-01 0.26811631E+03</pdfrwt>
<pdfrwt beam="2">  1       21 0.13464555E+00 0.26811631E+03</pdfrwt>
<totfact> 0.27074512E+03</totfact>
</mgrwt>
</event>
<event>
 5    0  0.1609797E+000  0.5758514E+03  0.7546771E-02  0.9956813E-01
         21   -1    0    0  502  501  0.00000000000E+00  0.00000000000E+00  0.21356551250E+04  0.21356551250E+04  0.00000000000E+00 0. -1.
         21   -1    0    0  503  502 -0.00000000000E+00 -0.00000000000E+00 -0.21954547064E+03  0.21954547064E+03  0.00000000000E+00 0. -1.
         25    1    1    2    0    0  0.55471775445E+03  0.11147095548E+03  0.15657874973E+04  0.16695667246E+04  0.12500000000E+03 0.  0.
         21    1    1    2  503  504 -0.54650339626E+03 -0.77066618269E+02  0.34204372063E+03  0.64930665528E+03  0.00000000000E+00 0. -1.
         21    1    1    2  504  501 -0.82143581954E+01 -0.34404337206E+02  0.82784364342E+01  0.36327215816E+02  0.00000000000E+00 0. -1.
<mgrwt>
<rscale>  4 0.57585142E+03</rscale>
<asrwt>0</asrwt>
<pdfrwt beam="1">  1       21 0.32856231E+00 0.57585142E+03</pdfrwt>
<pdfrwt beam="2">  1       21 0.33776228E-01 0.57585142E+03</pdfrwt>
<totfact> 0.14182831E+02</totfact>
</mgrwt>
</event>
<event>
 5    0  0.1609797E+000  0.3281911E+03  0.7546771E-02  0.1071940E+00
         21   -1    0    0  502  501  0.00000000000E+00  0.00000000000E+00  0.26537735522E+03  0.26537735522E+03  0.00000000000E+00 0.  1.
         21   -1    0    0  503  502 -0.00000000000E+00 -0.00000000000E+00 -0.38051298448E+03  0.38051298448E+03  0.00000000000E+00 0.  1.
         25    1    1    2    0    0 -0.30278762482E+03 -0.20101569807E+02 -0.62938627989E+02  0.33417164713E+03  0.12500000000E+03 0.  0.
         21    1    1    2  503  504  0.27433114037E+03  0.21994788730E+02 -0.60962686638E+02  0.28188258987E+03  0.00000000000E+00 0.  1.
         21    1    1    2  504  501  0.28456484447E+02 -0.18932189237E+01  0.87656853651E+01  0.29836102710E+02  0.00000000000E+00 0.  1.
<mgrwt>
<rscale>  4 0.32819113E+03</rscale>
<asrwt>0</asrwt>
<pdfrwt beam="1">  1       21 0.40827285E-01 0.32819113E+03</pdfrwt>
<pdfrwt beam="2">  1       21 0.58540459E-01 0.32819113E+03</pdfrwt>
<totfact> 0.14757589E+04</totfact>
</mgrwt>
</event>
<event>
 5    0  0.1609797E+000  0.2366183E+03  0.7546771E-02  0.1122066E+00
         21   -1    0    0  502  501  0.00000000000E+00  0.00000000000E+00  0.22927226782E+03  0.22927226782E+03  0.00000000000E+00 0. -1.
         21   -1    0    0  503  502 -0.00000000000E+00 -0.00000000000E+00 -0.22178889497E+03  0.22178889497E+03  0.00000000000E+00 0. -1.
         25    1    1    2    0    0 -0.18956113414E+03 -0.66556677533E+02 -0.32968343642E+02  0.23890401123E+03  0.12500000000E+03 0.  0.
         21    1    1    2  503  504  0.36981483165E+02  0.35525230673E+02  0.20312895237E+02  0.55156920004E+02  0.00000000000E+00 0. -1.
         21    1    1    2  504  501  0.15257965098E+03  0.31031446860E+02  0.20138821249E+02  0.15700023155E+03  0.00000000000E+00 0. -1.
<mgrwt>
<rscale>  4 0.23661829E+03</rscale>
<asrwt>0</asrwt>
<pdfrwt beam="1">  1       21 0.35272656E-01 0.23661829E+03</pdfrwt>
<pdfrwt beam="2">  1       21 0.34121369E-01 0.23661829E+03</pdfrwt>
<totfact> 0.62929203E+04</totfact>
</mgrwt>
</event>
<event>
 5    0  0.1609797E+000  0.2245250E+03  0.7546771E-02  0.1130554E+00
         21   -1    0    0  502  501  0.00000000000E+00  0.00000000000E+00  0.96187660096E+02  0.96187660096E+02  0.00000000000E+00 0.  1.
         21   -1    0    0  503  502 -0.00000000000E+00 -0.00000000000E+00 -0.55558503885E+03  0.55558503885E+03  0.00000000000E+00 0.  1.
         25    1    1    2    0    0 -0.13640137800E+03 -0.14937059385E+03 -0.21759827148E+03  0.32232114107E+03  0.12500000000E+03 0.  0.
         21    1    1    2  503  504  0.96267360596E+02  0.14986185757E+03 -0.22221874538E+03  0.28479317385E+03  0.00000000000E+00 0.  1.
         21    1    1    2  504  501  0.40134017400E+02 -0.49126372002E+00 -0.19580361895E+02  0.44658384035E+02  0.00000000000E+00 0.  1.
<mgrwt>
<rscale>  4 0.22452504E+03</rscale>
<asrwt>0</asrwt>
<pdfrwt beam="1">  1       21 0.14798102E-01 0.22452504E+03</pdfrwt>
<pdfrwt beam="2">  1       21 0.85474622E-01 0.22452504E+03</pdfrwt>
<totfact> 0.46829898E+04</totfact>
</mgrwt>
</event>
<event>
 5    0  0.1609797E+000  0.2926580E+03  0.7546771E-02  0.1088969E+00
         21   -1    0    0  502  501  0.00000000000E+00  0.00000000000E+00  0.52903517199E+03  0.52903517199E+03  0.00000000000E+00 0. -1.
         21   -1    0    0  503  502 -0.00000000000E+00 -0.00000000000E+00 -0.15079013226E+03  0.15079013226E+03  0.00000000000E+00 0. -1.
         25    1    1    2    0    0  0.66125133871E+02 -0.25622485254E+03  0.21484679121E+03  0.36305351132E+03  0.12500000000E+03 0.  0.
         21    1    1    2  503  504 -0.27763724209E+02  0.16949875356E+03  0.13285472032E+03  0.21714287590E+03  0.00000000000E+00 0. -1.
         21    1    1    2  504  501 -0.38361409662E+02  0.86726098977E+02  0.30543528197E+02  0.99628917036E+02  0.00000000000E+00 0. -1.
<mgrwt>
<rscale>  4 0.29265801E+03</rscale>
<asrwt>0</asrwt>
<pdfrwt beam="1">  1       21 0.81390026E-01 0.29265801E+03</pdfrwt>
<pdfrwt beam="2">  1       21 0.23198482E-01 0.29265801E+03</pdfrwt>
<totfact> 0.21975080E+04</totfact>
</mgrwt>
</event>
<event>
 5    0  0.1609797E+000  0.2919472E+03  0.7546771E-02  0.1089337E+00
         21   -1    0    0  502  501  0.00000000000E+00  0.00000000000E+00  0.15537247598E+03  0.15537247598E+03  0.00000000000E+00 0. -1.
         21   -1    0    0  503  502 -0.00000000000E+00 -0.00000000000E+00 -0.72223811481E+03  0.72223811481E+03  0.00000000000E+00 0.  1.
         25    1    1    2    0    0  0.94145020782E+01 -0.26366559001E+03 -0.58883444457E+02  0.29782618460E+03  0.12500000000E+03 0.  0.
         21    1    1    2  503  504  0.32810418040E+02  0.53752823858E+02 -0.14954077552E+03  0.16226007872E+03  0.00000000000E+00 0.  1.
         21    1    1    2  504  501 -0.42224920118E+02  0.20991276615E+03 -0.35844141886E+03  0.41752432746E+03  0.00000000000E+00 0.  1.
<mgrwt>
<rscale>  4 0.29194721E+03</rscale>
<asrwt>0</asrwt>
<pdfrwt beam="1">  1       21 0.23903458E-01 0.29194721E+03</pdfrwt>
<pdfrwt beam="2">  1       21 0.11111356E+00 0.29194721E+03</pdfrwt>
<totfact> 0.99135559E+03</totfact>
</mgrwt>
</event>
<event>
 5    0  0.1609797E+000  0.4208587E+03  0.7546771E-02  0.1037611E+00
         21   -1    0    0  502  501  0.00000000000E+00  0.00000000000E+00  0.27310221963E+04  0.27310221963E+04  0.00000000000E+00 0.  1.
         21   -1    0    0  503  502 -0.00000000000E+00 -0.00000000000E+00 -0.10929967371E+03  0.10929967371E+03  0.00000000000E+00 0. -1.
         25    1    1    2    0    0  0.26106984613E+03  0.29156201362E+03  0.22227738603E+04  0.22604235237E+04  0.12500000000E+03 0.  0.
         21    1    1    2  503  504 -0.69464191463E+02 -0.56038849676E+02  0.19410421959E+03  0.21364005859E+03  0.00000000000E+00 0.  1.
         21    1    1    2  504  501 -0.19160565467E+03 -0.23552316394E+03  0.20484444273E+03  0.36625828779E+03  0.00000000000E+00 0. -1.
<mgrwt>
<rscale>  4 0.41833178E+03</rscale>
<asrwt>0</asrwt>
<pdfrwt beam="1">  1       21 0.42015721E+00 0.42085871E+03</pdfrwt>
<pdfrwt beam="2">  1       21 0.16815337E-01 0.42085871E+03</pdfrwt>
<totfact> 0.16003396E+02</totfact>
</mgrwt>
</event>
<event>
 5    0  0.1609797E+000  0.2320166E+03  0.7546771E-02  0.1125228E+00
         21   -1    0    0  502  501  0.00000000000E+00  0.00000000000E+00  0.42403536932E+03  0.42403536932E+03  0.00000000000E+00 0.  1.
         21   -1    0    0  503  502 -0.00000000000E+00 -0.00000000000E+00 -0.13946842877E+03  0.13946842877E+03  0.00000000000E+00 0.  1.
         25    1    1    2    0    0  0.18802390464E+03 -0.97279896951E+02  0.13092292679E+03  0.27853577836E+03  0.12500000000E+03 0.  0.
         21    1    1    2  503  504 -0.25953776983E+02  0.84469645430E+01  0.82552983278E+02  0.86947943034E+02  0.00000000000E+00 0. -1.
         21    1    1    2  504  501 -0.16207012766E+03  0.88832932408E+02  0.71091030472E+02  0.19802007669E+03  0.00000000000E+00 0.  1.
<mgrwt>
<rscale>  4 0.23201658E+03</rscale>
<asrwt>0</asrwt>
<pdfrwt beam="1">  1       21 0.65236210E-01 0.23201658E+03</pdfrwt>
<pdfrwt beam="2">  1       21 0.21456682E-01 0.23201658E+03</pdfrwt>
<totfact> 0.42926255E+04</totfact>
</mgrwt>
</event>
<event>
 5    0  0.1609797E+000  0.3483858E+03  0.7546771E-02  0.1063280E+00
         21   -1    0    0  502  501  0.00000000000E+00  0.00000000000E+00  0.50821515018E+03  0.50821515018E+03  0.00000000000E+00 0. -1.
         21   -1    0    0  503  502 -0.00000000000E+00 -0.00000000000E+00 -0.55817046157E+03  0.55817046157E+03  0.00000000000E+00 0. -1.
         25    1    1    2    0    0  0.32109579124E+03 -0.51430884077E+02  0.38389342151E+03  0.51840794947E+03  0.12500000000E+03 0.  0.
         21    1    1    2  503  504 -0.78577144063E+02  0.24540440337E+02 -0.16825688132E+03  0.18731518597E+03  0.00000000000E+00 0. -1.
         21    1    1    2  504  501 -0.24251864718E+03  0.26890443740E+02 -0.26559185158E+03  0.36066247632E+03  0.00000000000E+00 0. -1.
<mgrwt>
<rscale>  4 0.34838577E+03</rscale>
<asrwt>0</asrwt>
<pdfrwt beam="1">  1       21 0.78186946E-01 0.34838577E+03</pdfrwt>
<pdfrwt beam="2">  1       21 0.85872379E-01 0.34838577E+03</pdfrwt>
<totfact> 0.15214131E+03</totfact>
</mgrwt>
</event>
