<event>
 5    0  0.2717550E+000  0.1989621E+03  0.7546771E-02  0.1150618E+00
         21   -1    0    0  502  501  0.00000000000E+00  0.00000000000E+00  0.43769228807E+03  0.43769228807E+03  0.00000000000E+00 0.  1.
         21   -1    0    0  503  502 -0.00000000000E+00 -0.00000000000E+00 -0.21690170951E+03  0.21690170951E+03  0.00000000000E+00 0.  1.
         25    1    1    2    0    0  0.17249074972E+03  0.13785837088E+03  0.29359087339E+03  0.38804457231E+03  0.12500000000E+03 0.  0.
         21    1    1    2  503  504 -0.64651106593E+02 -0.37012785465E+02  0.36395195594E+02  0.82911531972E+02  0.00000000000E+00 0. -1.
         21    1    1    2  504  501 -0.10783964313E+03 -0.10084558542E+03 -0.10919549042E+03  0.18363789330E+03  0.00000000000E+00 0.  1.
<mgrwt>
<rscale>  4 0.19896212E+03</rscale>
<asrwt>0</asrwt>
<pdfrwt beam="1">  1       21 0.67337275E-01 0.19896212E+03</pdfrwt>
<pdfrwt beam="2">  1       21 0.33369494E-01 0.19896212E+03</pdfrwt>
<totfact> 0.17382060E+04</totfact>
</mgrwt>
</event>
<event>
 5    0  0.3812817E+000  0.2405615E+03  0.7546771E-02  0.1119419E+00
         21   -1    0    0  502  501  0.00000000000E+00  0.00000000000E+00  0.42235598815E+03  0.42235598815E+03  0.00000000000E+00 0. -1.
         21   -1    0    0  503  502 -0.00000000000E+00 -0.00000000000E+00 -0.28663532037E+03  0.28663532037E+03  0.00000000000E+00 0. -1.
         25    1    1    2    0    0 -0.12923508386E+03  0.20483616523E+03  0.27841712505E+03  0.38961603792E+03  0.12500000000E+03 0.  0.
         21    1    1    2  503  504  0.54621474713E+02 -0.70237270363E+02 -0.13948270941E+03  0.16544547703E+03  0.00000000000E+00 0. -1.
         21    1    1    2  504  501  0.74613609147E+02 -0.13459889487E+03 -0.32137478646E+01  0.15392979356E+03  0.00000000000E+00 0. -1.
<mgrwt>
<rscale>  4 0.24056147E+03</rscale>
<asrwt>0</asrwt>
<pdfrwt beam="1">  1       21 0.64977845E-01 0.24056147E+03</pdfrwt>
<pdfrwt beam="2">  1       21 0.44097741E-01 0.24056147E+03</pdfrwt>
<totfact> 0.10452445E+04</totfact>
</mgrwt>
</event>
<event>
 5    0  0.2618644E+000  0.2347490E+03  0.7546771E-02  0.1123341E+00
         21   -1    0    0  502  501  0.00000000000E+00  0.00000000000E+00  0.24233671783E+04  0.24233671783E+04  0.00000000000E+00 0.  1.
         21   -1    0    0  503  502 -0.00000000000E+00 -0.00000000000E+00 -0.38326985769E+02  0.38326985769E+02  0.00000000000E+00 0.  1.
         25    1    1    2    0    0  0.17584780631E+03 -0.16749038041E+03  0.15826381624E+04  0.16060336334E+04  0.12500000000E+03 0.  0.
         21    1    1    2  503  504 -0.17456378828E+03  0.75071583357E+02  0.40085830970E+03  0.44361654981E+03  0.00000000000E+00 0.  1.
         21    1    1    2  504  501 -0.12840180264E+01  0.92418797052E+02  0.40154372048E+03  0.41204398092E+03  0.00000000000E+00 0.  1.
<mgrwt>
<rscale>  4 0.23474896E+03</rscale>
<asrwt>0</asrwt>
<pdfrwt beam="1">  1       21 0.37282560E+00 0.23474896E+03</pdfrwt>
<pdfrwt beam="2">  1       21 0.58964612E-02 0.23474896E+03</pdfrwt>
<totfact> 0.24603186E+03</totfact>
</mgrwt>
</event>
<event>
 5    0  0.2159162E+000  0.2915860E+03  0.7546771E-02  0.1089524E+00
         21   -1    0    0  502  501  0.00000000000E+00  0.00000000000E+00  0.79608962823E+03  0.79608962823E+03  0.00000000000E+00 0. -1.
         21   -1    0    0  503  502 -0.00000000000E+00 -0.00000000000E+00 -0.25794497459E+03  0.25794497459E+03  0.00000000000E+00 0.  1.
         25    1    1    2    0    0  0.24653930456E+03 -0.92821030245E+02  0.68814824309E+03  0.74737565977E+03  0.12500000000E+03 0.  0.
         21    1    1    2  503  504 -0.35531394980E+02  0.92859104632E+01 -0.40527520311E+02  0.54691755000E+02  0.00000000000E+00 0.  1.
         21    1    1    2  504  501 -0.21100790958E+03  0.83535119782E+02 -0.10947606914E+03  0.25196718805E+03  0.00000000000E+00 0.  1.
<mgrwt>
<rscale>  4 0.29158596E+03</rscale>
<asrwt>0</asrwt>
<pdfrwt beam="1">  1       21 0.12247533E+00 0.29158596E+03</pdfrwt>
<pdfrwt beam="2">  1       21 0.39683843E-01 0.29158596E+03</pdfrwt>
<totfact> 0.28600334E+03</totfact>
</mgrwt>
</event>
<event>
 5    0  0.2321595E+000  0.2616991E+03  0.7546771E-02  0.1106127E+00
         21   -1    0    0  502  501  0.00000000000E+00  0.00000000000E+00  0.47356626068E+03  0.47356626068E+03  0.00000000000E+00 0.  1.
         21   -1    0    0  503  502 -0.00000000000E+00 -0.00000000000E+00 -0.17177156824E+03  0.17177156824E+03  0.00000000000E+00 0.  1.
         25    1    1    2    0    0 -0.21866952464E+03 -0.71028713658E+02  0.30323829367E+03  0.40054949996E+03  0.12500000000E+03 0.  0.
         21    1    1    2  503  504  0.15781734202E+03  0.69354163648E+02 -0.34073616712E+02  0.17571944916E+03  0.00000000000E+00 0.  1.
         21    1    1    2  504  501  0.60852182621E+02  0.16745500102E+01  0.32630015478E+02  0.69068879806E+02  0.00000000000E+00 0.  1.
<mgrwt>
<rscale>  4 0.26169914E+03</rscale>
<asrwt>0</asrwt>
<pdfrwt beam="1">  1       21 0.72856347E-01 0.26169914E+03</pdfrwt>
<pdfrwt beam="2">  1       21 0.26426395E-01 0.26169914E+03</pdfrwt>
<totfact> 0.22276950E+04</totfact>
</mgrwt>
</event>
<event>
 5    0  0.2159162E+000  0.2764796E+03  0.7546771E-02  0.1097627E+00
         21   -1    0    0  502  501  0.00000000000E+00  0.00000000000E+00  0.30811411384E+03  0.30811411384E+03  0.00000000000E+00 0. -1.
         21   -1    0    0  503  502 -0.00000000000E+00 -0.00000000000E+00 -0.18166354977E+04  0.18166354977E+04  0.00000000000E+00 0. -1.
         25    1    1    2    0    0 -0.97761646534E+02 -0.22640363804E+03  0.23521275654E+03  0.36299585079E+03  0.12500000000E+03 0.  0.
         21    1    1    2  503  504  0.82621006376E+02  0.21178085687E+03 -0.15020703405E+04  0.15191749965E+04  0.00000000000E+00 0. -1.
         21    1    1    2  504  501  0.15140640158E+02  0.14622781166E+02 -0.24166379994E+03  0.24257876436E+03  0.00000000000E+00 0.  1.
<mgrwt>
<rscale>  4 0.27647956E+03</rscale>
<asrwt>0</asrwt>
<pdfrwt beam="1">  1       21 0.47402171E-01 0.27647956E+03</pdfrwt>
<pdfrwt beam="2">  1       21 0.27948239E+00 0.27647956E+03</pdfrwt>
<totfact> 0.17155001E+02</totfact>
</mgrwt>
</event>
<event>
 5    0  0.2159162E+000  0.2427012E+03  0.7546771E-02  0.1118006E+00
         21   -1    0    0  502  501  0.00000000000E+00  0.00000000000E+00  0.11312715647E+04  0.11312715647E+04  0.00000000000E+00 0. -1.
         21   -1    0    0  503  502 -0.00000000000E+00 -0.00000000000E+00 -0.13421946750E+03  0.13421946750E+03  0.00000000000E+00 0.  1.
         25    1    1    2    0    0  0.15837648376E+03  0.13489158162E+03  0.10202620748E+04  0.10487318774E+04  0.12500000000E+03 0.  0.
         21    1    1    2  503  504 -0.11591108800E+03 -0.88289031732E+02  0.89525136193E+01  0.14598109790E+03  0.00000000000E+00 0.  1.
         21    1    1    2  504  501 -0.42465395761E+02 -0.46602549889E+02 -0.32162491240E+02  0.70778056882E+02  0.00000000000E+00 0. -1.
<mgrwt>
<rscale>  4 0.24270115E+03</rscale>
<asrwt>0</asrwt>
<pdfrwt beam="1">  1       21 0.17404177E+00 0.24270115E+03</pdfrwt>
<pdfrwt beam="2">  1       21 0.20649150E-01 0.24270115E+03</pdfrwt>
<totfact> 0.41728267E+03</totfact>
</mgrwt>
</event>
<event>
 5    0  0.2159162E+000  0.2590418E+03  0.7546771E-02  0.1107720E+00
         21   -1    0    0  502  501  0.00000000000E+00  0.00000000000E+00  0.17021808559E+03  0.17021808559E+03  0.00000000000E+00 0.  1.
         21   -1    0    0  503  502 -0.00000000000E+00 -0.00000000000E+00 -0.35628171423E+03  0.35628171423E+03  0.00000000000E+00 0.  1.
         25    1    1    2    0    0  0.21938193768E+03 -0.57872307701E+02 -0.89446702992E+02  0.27404990650E+03  0.12500000000E+03 0.  0.
         21    1    1    2  503  504 -0.65571210835E+02  0.28548023453E+02 -0.55597273981E+02  0.90584933667E+02  0.00000000000E+00 0.  1.
         21    1    1    2  504  501 -0.15381072685E+03  0.29324284248E+02 -0.41019651672E+02  0.16186495965E+03  0.00000000000E+00 0.  1.
<mgrwt>
<rscale>  4 0.25904177E+03</rscale>
<asrwt>0</asrwt>
<pdfrwt beam="1">  1       21 0.26187398E-01 0.25904177E+03</pdfrwt>
<pdfrwt beam="2">  1       21 0.54812571E-01 0.25904177E+03</pdfrwt>
<totfact> 0.42247245E+04</totfact>
</mgrwt>
</event>
<event>
 5    0  0.2159162E+000  0.3962877E+03  0.7546771E-02  0.1045073E+00
         21   -1    0    0  502  501  0.00000000000E+00  0.00000000000E+00  0.11464351599E+04  0.11464351599E+04  0.00000000000E+00 0. -1.
         21   -1    0    0  503  502 -0.00000000000E+00 -0.00000000000E+00 -0.16469873131E+03  0.16469873131E+03  0.00000000000E+00 0. -1.
         25    1    1    2    0    0  0.33302688547E+03 -0.17467699612E+03  0.79455098892E+03  0.88789370615E+03  0.12500000000E+03 0.  0.
         21    1    1    2  503  504 -0.30085190984E+02  0.18503002696E+02  0.35843949699E+02  0.50321650960E+02  0.00000000000E+00 0. -1.
         21    1    1    2  504  501 -0.30294169449E+03  0.15617399343E+03  0.15134148997E+03  0.37291853409E+03  0.00000000000E+00 0. -1.
<mgrwt>
<rscale>  4 0.39628772E+03</rscale>
<asrwt>0</asrwt>
<pdfrwt beam="1">  1       21 0.17637464E+00 0.39628772E+03</pdfrwt>
<pdfrwt beam="2">  1       21 0.25338267E-01 0.39628772E+03</pdfrwt>
<totfact> 0.24860765E+03</totfact>
</mgrwt>
</event>
